FOO
138240
    1MOL0     O    1  10.424   4.484   9.307  0.2947 -0.1570  0.3090
    1MOL0     C    2  10.489   4.390   9.270 -0.6657  0.1012 -0.4941
    1MOL0     O    3  10.466   4.313   9.160  0.1007  0.1008  0.1178
    1MOL0     C    4  10.355   4.350   9.084  0.0756  0.8208 -0.1814
    1MOL0     C    5  10.351   4.474   9.018 -0.9785 -0.5492  0.1681
    1MOL0     C    6  10.242   4.507   8.947 -0.4371  0.1324  0.2246
    1MOL0     C    7  10.131   4.422   8.935  0.0271 -0.6116 -0.1286
    1MOL0     O    8  10.022   4.458   8.863  0.5196  0.5538  0.7955
    1MOL0     C    9   9.984   4.589   8.837 -0.8457 -0.0288  0.9936
    1MOL0     C   10  10.013   4.626   8.700  0.9866  0.3962 -0.1023
    1MOL0     C   11   9.938   4.744   8.658  0.6680 -0.3594  0.3533
    1MOL0     C   12   9.985   4.791   8.522  0.3550  0.3747 -0.2153
    1MOL0     C   13   9.887   4.896   8.449  0.6766 -0.2304 -0.3145
    1MOL0     C   14   9.946   4.964   8.327 -0.6138  1.0440  0.2360
    1MOL0     C   15   9.999   4.874   8.217  0.5361  0.2783 -0.0702
    1MOL0     C   16   9.882   4.794   8.158 -0.4743  0.2439 -0.5879
    1MOL0     N   17   9.788   4.887   8.098  1.1864  0.5612 -1.0732
    1MOL0     C   18   9.780   4.939   7.972 -0.3060 -0.2988 -0.7317
    1MOL0     C   19   9.662   4.999   7.962 -0.3751 -0.5950 -0.4283
    1MOL0     C   20   9.613   5.061   7.828 -0.0120  0.5844 -0.6807
    1MOL0     C   21   9.456   5.044   7.820  0.2746 -0.0686 -0.6116
    1MOL0     C   22   9.394   4.910   7.773  0.3096 -0.1598  0.2132
    1MOL0     C   23   9.247   4.896   7.768  0.9676 -1.0679  0.2594
    1MOL0     O   24   9.182   5.008   7.695 -0.7333 -0.4554 -0.3329
    1MOL0     C   25   9.069   4.987   7.616 -0.1128  0.0522 -0.7970
    1MOL0     C   26   9.053   5.074   7.511  0.1153  0.1894 -0.0108
    1MOL0     C   27   8.946   5.062   7.420 -0.3797 -0.7169 -0.0428
    1MOL0     C   28   8.944   5.156   7.305  0.0254  0.3055 -0.8634
    1MOL0     C   29   8.853   4.953   7.444  0.2461 -0.2155 -0.7242
    1MOL0     C   30   8.745   4.924   7.362  0.6160 -0.3314 -0.3035
    1MOL0     O   31   8.769   4.881   7.232  0.2972 -1.4833 -0.1257
    1MOL0     C   32   8.658   4.877   7.143  0.4271  0.6307 -0.7251
    1MOL0     C   33   8.582   4.760   7.147  0.3678  0.4907  0.5925
    1MOL0     C   34   8.454   4.761   7.091 -0.7459 -0.0716 -0.5235
    1MOL0     C   35   8.410   4.872   7.013  0.4662  0.2387  0.1280
    1MOL0     O   36   8.289   4.878   6.954 -0.1167  0.0209  0.5361
    1MOL0     C   37   8.202   4.771   6.963  0.0168  0.8271  0.1539
    1MOL0     C   38   8.236   4.655   6.872 -0.3687  0.5016 -0.9844
    1MOL0     C   39   8.204   4.677   6.725  0.2158 -0.4594 -0.4790
    1MOL0     C   40   8.244   4.559   6.645  0.3257 -0.2555 -0.3884
    1MOL0     C   41   8.181   4.552   6.505 -0.9237  0.0478  0.3448
    1MOL0     C   42   8.220   4.427   6.436  0.8730 -0.5798  0.6694
    1MOL0     C   43   8.133   4.309   6.482 -0.7766 -0.1456 -0.0114
    1MOL0     C   44   8.172   4.179   6.407 -0.1816  0.1030 -0.0102
    1MOL0    Cl   45   8.080   4.038   6.484  0.3300 -0.0929  0.2521
    1MOL0     C   46   8.491   4.985   7.000 -0.2388  0.0460  0.4078
    1MOL0     C   47   8.614   4.989   7.071  1.8389 -0.7967  0.1628
    1MOL0     O   48   8.632   4.958   7.406 -0.2620 -0.0571  0.1682
    1MOL0     C   49   8.870   4.877   7.556 -0.1075  0.3752 -0.0647
    1MOL0     C   50   8.982   4.887   7.639 -0.0105 -0.9919  0.4448
    1MOL0     N   51   9.609   5.006   8.087  0.2799  0.5506 -0.6541
    1MOL0     N   52   9.687   4.930   8.165  0.2531 -0.7170 -0.3071
    1MOL0     C   53  10.133   4.301   9.000  0.2701  0.1352 -0.5975
    1MOL0     C   54  10.246   4.265   9.080 -0.1827 -0.5429 -0.3257
    1MOL0     C   55  10.601   4.335   9.356 -0.0515 -0.9167  0.0848
    1MOL0     C   56  10.622   4.408   9.478 -0.1766 -0.2502  0.8805
    1MOL0     C   57  10.725   4.367   9.560  0.2701  0.2784 -1.1786
    1MOL0     C   58  10.798   4.250   9.539 -0.4018  0.2335 -0.4943
    1MOL0     O   59  10.884   4.193   9.639 -0.5467  0.0121 -0.1483
    1MOL0     C   60  10.967   4.288   9.706 -0.3385 -0.2876 -0.0221
    1MOL0     C   61  11.108   4.242   9.717  0.4044 -0.6697  0.2218
    1MOL0     C   62  11.122   4.106   9.786  0.9048 -0.0899 -0.1929
    1MOL0     C   63  11.274   4.070   9.804  0.5940 -0.2154 -0.2435
    1MOL0     C   64  11.349   4.065   9.679 -0.8040  0.1990  0.8817
    1MOL0     C   65  11.413   4.071   9.576 -0.2628 -0.4864 -0.4734
    1MOL0     C   66  10.768   4.169   9.421  0.5143 -0.2542  0.5053
    1MOL0     C   67  10.672   4.215   9.330 -0.4564  0.3937  0.8836
    1MOL0     H   68  10.437   4.540   9.024 -1.9555  1.1107 -2.5510
    1MOL0     H   69  10.242   4.593   8.881 -3.5152 -1.1539 -1.6736
    1MOL0     H   70   9.875   4.592   8.850 -0.7320 -0.4117  2.1790
    1MOL0     H   71  10.017   4.663   8.911 -2.4681  1.1326  0.6265
    1MOL0     H   72  10.120   4.647   8.693  1.1362  0.5376  2.0434
    1MOL0     H   73  10.001   4.541   8.632  2.1838  2.5938 -3.3151
    1MOL0     H   74   9.831   4.723   8.656  0.7852 -0.9452 -0.9288
    1MOL0     H   75   9.957   4.816   8.738 -1.3372  0.4380  0.1709
    1MOL0     H   76  10.082   4.840   8.531  0.6970  0.5553 -3.4431
    1MOL0     H   77  10.009   4.706   8.456  2.0116 -0.6615  1.6298
    1MOL0     H   78   9.791   4.847   8.431 -0.3452  0.5186  2.5442
    1MOL0     H   79   9.859   4.978   8.515  1.7360  2.1313 -2.6460
    1MOL0     H   80   9.889   5.049   8.290 -0.8829  0.9627  0.4607
    1MOL0     H   81  10.040   5.001   8.369 -0.9978  1.0039  1.1673
    1MOL0     H   82  10.053   4.936   8.146  0.8633  1.1420  0.9149
    1MOL0     H   83  10.067   4.801   8.263  2.4641  1.0424 -1.6034
    1MOL0     H   84   9.834   4.736   8.237  0.7483  0.5212  0.3965
    1MOL0     H   85   9.920   4.725   8.082  1.2998  0.5467 -0.0169
    1MOL0     H   86   9.858   4.943   7.896 -0.4859  2.7137 -0.8774
    1MOL0     H   87   9.634   5.168   7.829 -0.4336  0.6809  0.9961
    1MOL0     H   88   9.665   5.020   7.741 -1.4979 -0.9878 -0.8816
    1MOL0     H   89   9.429   5.130   7.758  0.3065 -0.1239 -0.7032
    1MOL0     H   90   9.416   5.053   7.921  0.4445  1.9533 -0.6796
    1MOL0     H   91   9.442   4.826   7.824  1.7313 -0.0349 -0.8512
    1MOL0     H   92   9.428   4.897   7.669  2.7937  1.1487  0.7781
    1MOL0     H   93   9.189   4.870   7.856 -1.8205 -1.0754 -1.4668
    1MOL0     H   94   9.230   4.812   7.699 -0.7824  0.2310 -0.9765
    1MOL0     H   95   9.131   5.149   7.501  1.2701 -1.0778 -0.8135
    1MOL0     H   96   9.011   5.238   7.333  0.3339 -0.6357  1.3796
    1MOL0     H   97   8.985   5.096   7.223 -2.2363 -3.7988  0.7225
    1MOL0     H   98   8.845   5.188   7.273 -0.5292 -0.1521  0.3260
    1MOL0     H   99   8.606   4.673   7.207 -0.8824 -0.3653 -0.0941
    1MOL0     H  100   8.399   4.668   7.105 -2.1444  0.8506  0.2908
    1MOL0     H  101   8.208   4.731   7.065  3.5735  0.2634 -0.1561
    1MOL0     H  102   8.095   4.791   6.946 -0.5501  0.6887  3.1093
    1MOL0     H  103   8.338   4.624   6.896 -0.5429  1.7761  1.7919
    1MOL0     H  104   8.162   4.577   6.895 -0.1812 -0.8455 -4.2452
    1MOL0     H  105   8.268   4.758   6.687  0.6222  0.5738  2.1723
    1MOL0     H  106   8.100   4.707   6.709  0.0324 -1.0791 -0.4588
    1MOL0     H  107   8.353   4.551   6.641  0.4004 -0.6545  1.4972
    1MOL0     H  108   8.206   4.479   6.709 -0.5178  1.8840  1.9526
    1MOL0     H  109   8.205   4.644   6.450 -1.3810 -0.4779 -0.7778
    1MOL0     H  110   8.073   4.551   6.524 -1.2682  1.5937 -1.2795
    1MOL0     H  111   8.203   4.434   6.329  0.3659 -6.0858  0.0920
    1MOL0     H  112   8.326   4.404   6.452  1.3443  0.4041 -0.8910
    1MOL0     H  113   8.031   4.338   6.454 -0.8648  0.1406  0.5879
    1MOL0     H  114   8.147   4.299   6.590  2.2672 -0.7303 -0.3677
    1MOL0     H  115   8.278   4.157   6.424 -0.0817  1.7514  2.0255
    1MOL0     H  116   8.144   4.189   6.302  1.8393  2.3224 -0.4474
    1MOL0     H  117   8.454   5.068   6.940  0.1575 -0.4833 -0.6038
    1MOL0     H  118   8.684   5.069   7.050  0.9130 -0.6206 -2.5868
    1MOL0     H  119   8.804   4.792   7.575  0.0949  0.3425  0.5183
    1MOL0     H  120   9.001   4.821   7.723  0.7223  1.2567  2.1233
    1MOL0     H  121  10.038   4.249   8.999 -0.3308  1.1142  1.0491
    1MOL0     H  122  10.251   4.176   9.143  0.5781 -1.3834 -1.5337
    1MOL0     H  123  10.568   4.502   9.487  1.5356  1.0002 -0.9400
    1MOL0     H  124  10.751   4.424   9.649  1.4817 -0.5031 -1.0207
    1MOL0     H  125  10.976   4.382   9.649  0.3825  0.9778  2.0682
    1MOL0     H  126  10.920   4.324   9.798  1.0048  0.6106  0.3393
    1MOL0     H  127  11.161   4.317   9.777 -2.9169  0.9967  1.3531
    1MOL0     H  128  11.153   4.243   9.617  1.8270 -3.3519  0.7568
    1MOL0     H  129  11.076   4.026   9.726  0.2802 -0.0983  0.2834
    1MOL0     H  130  11.070   4.112   9.882  0.8395 -1.4456 -0.1148
    1MOL0     H  131  11.281   3.970   9.847 -1.4526 -0.8136 -1.2073
    1MOL0     H  132  11.322   4.147   9.866 -0.1792  2.4598 -2.7603
    1MOL0     H  133  11.452   4.078   9.477 -1.8510 -2.3750 -1.3260
    1MOL0     H  134  10.821   4.077   9.399 -1.4871 -1.2772 -0.2346
    1MOL0     H  135  10.657   4.158   9.239  0.7949  1.0902  0.2100
    2MOL0     O  136   7.305   6.295   6.529  0.2809 -1.4171 -0.7968
    2MOL0     C  137   7.235   6.400   6.563 -0.7673 -0.1698  0.1880
    2MOL0     O  138   7.102   6.411   6.545  0.7653  0.1745 -0.1195
    2MOL0     C  139   7.043   6.325   6.471  0.1586  0.3768  0.4614
    2MOL0     C  140   7.032   6.190   6.513  0.3473 -0.3782 -1.1785
    2MOL0     C  141   6.966   6.091   6.432 -1.3955 -0.3206  0.8930
    2MOL0     C  142   6.904   6.140   6.322 -0.3214  0.6795  0.2197
    2MOL0     O  143   6.822   6.063   6.247  0.5862  0.4566 -0.0272
    2MOL0     C  144   6.861   5.941   6.189 -0.3803  0.1067 -0.2625
    2MOL0     C  145   6.741   5.871   6.133 -0.9745 -0.1619 -0.4532
    2MOL0     C  146   6.642   5.856   6.249 -0.0658 -0.2039  0.8881
    2MOL0     C  147   6.509   5.813   6.199  0.1031 -0.8726  1.2149
    2MOL0     C  148   6.423   5.757   6.316 -0.0128  0.1012 -0.4468
    2MOL0     C  149   6.279   5.730   6.291  1.2155  0.2688  0.3287
    2MOL0     C  150   6.259   5.661   6.153  0.2272 -0.2383  0.2385
    2MOL0     C  151   6.110   5.615   6.148 -0.1882  0.7007 -0.4728
    2MOL0     N  152   6.007   5.717   6.168 -0.2605  0.3002  1.0258
    2MOL0     C  153   5.903   5.713   6.252  0.5618 -0.2984  0.1183
    2MOL0     C  154   5.815   5.802   6.200  0.6143  0.5703  0.8023
    2MOL0     C  155   5.676   5.835   6.233 -0.9716 -1.0083  0.1633
    2MOL0     C  156   5.661   5.864   6.380  0.8853 -0.5436 -0.3527
    2MOL0     C  157   5.525   5.921   6.413  0.6432  1.1432 -0.3433
    2MOL0     C  158   5.409   5.818   6.384 -0.6997 -0.4739 -0.3481
    2MOL0     O  159   5.298   5.860   6.465 -0.0765  0.2851 -0.5548
    2MOL0     C  160   5.183   5.786   6.463  0.2790 -0.1754  0.8591
    2MOL0     C  161   5.071   5.849   6.512  0.0191 -0.0007  0.3706
    2MOL0     C  162   4.944   5.781   6.518  0.1556  0.0477  0.8709
    2MOL0     C  163   4.820   5.870   6.537 -0.3167 -0.5313 -0.2157
    2MOL0     C  164   4.941   5.639   6.495  0.3527 -0.0978 -0.7729
    2MOL0     C  165   4.810   5.562   6.510  0.3492  0.0771  0.7549
    2MOL0     O  166   4.826   5.428   6.492 -0.2787 -0.6841  0.4973
    2MOL0     C  167   4.715   5.337   6.506  0.1196 -0.8195 -0.2704
    2MOL0     C  168   4.637   5.322   6.622  0.8950 -0.3993  0.0892
    2MOL0     C  169   4.545   5.213   6.633  0.5733  0.4470  0.2755
    2MOL0     C  170   4.543   5.117   6.536  0.0483 -0.8011  0.2918
    2MOL0     O  171   4.468   5.003   6.529  0.6845  1.2790 -0.3287
    2MOL0     C  172   4.332   5.013   6.588  0.2782  0.9323  1.0097
    2MOL0     C  173   4.248   4.895   6.547 -0.2293  0.2586  0.4138
    2MOL0     C  174   4.099   4.911   6.563  0.2942 -0.3339 -0.4460
    2MOL0     C  175   4.027   4.788   6.505  0.1991 -0.2638 -0.1778
    2MOL0     C  176   3.878   4.809   6.532 -0.2981 -0.0561  0.2335
    2MOL0     C  177   3.802   4.693   6.499  0.1390 -0.4146 -0.0119
    2MOL0     C  178   3.662   4.696   6.572 -0.3104  0.1408 -0.1546
    2MOL0     C  179   3.579   4.564   6.540 -0.0446 -1.0208 -0.4624
    2MOL0    Cl  180   3.549   4.552   6.367  0.4503  0.3927  0.4962
    2MOL0     C  181   4.622   5.134   6.422  0.3020  0.2265  0.5265
    2MOL0     C  182   4.706   5.238   6.411 -0.0829  0.8495  0.3827
    2MOL0     O  183   4.706   5.613   6.543  0.3323  0.7266 -0.3179
    2MOL0     C  184   5.062   5.582   6.463  0.1002  0.2446 -0.7250
    2MOL0     C  185   5.181   5.652   6.439  0.7624 -0.2575  0.4188
    2MOL0     N  186   5.892   5.872   6.101  0.4850 -0.7977  0.1653
    2MOL0     N  187   6.004   5.823   6.086  0.3799 -0.1657  0.4733
    2MOL0     C  188   6.914   6.270   6.274  0.0741  0.3591  1.0426
    2MOL0     C  189   6.979   6.358   6.349 -0.5043 -0.6819 -0.6989
    2MOL0     C  190   7.306   6.511   6.621  0.4954 -0.2932 -0.1096
    2MOL0     C  191   7.435   6.491   6.671 -0.2268  0.2723  0.8272
    2MOL0     C  192   7.510   6.599   6.724 -0.4878  0.6033  1.1785
    2MOL0     C  193   7.463   6.725   6.710  1.0259 -1.1524  0.2885
    2MOL0     O  194   7.539   6.827   6.761  0.1833 -0.0371 -1.1012
    2MOL0     C  195   7.482   6.955   6.780 -0.7085  0.7283  0.0375
    2MOL0     C  196   7.595   7.043   6.816 -0.4941 -0.0623 -1.0888
    2MOL0     C  197   7.607   7.040   6.968  0.1160 -0.6324  0.3161
    2MOL0     C  198   7.730   7.129   7.002  0.1275 -0.5827  0.3015
    2MOL0     C  199   7.710   7.276   6.957 -0.0913  0.9499 -0.0602
    2MOL0     C  200   7.674   7.384   6.923 -0.0113  0.2974 -0.0258
    2MOL0     C  201   7.331   6.749   6.656  0.0052  0.2166  0.0897
    2MOL0     C  202   7.255   6.637   6.605 -0.3822 -0.0638  0.1792
    2MOL0     H  203   7.074   6.138   6.599 -0.8471 -1.3726 -1.1644
    2MOL0     H  204   6.954   5.986   6.457 -1.8513 -0.6707 -0.6906
    2MOL0     H  205   6.937   5.956   6.111  1.7518  0.4902  1.7960
    2MOL0     H  206   6.913   5.880   6.263  0.5324  1.2729  0.0890
    2MOL0     H  207   6.693   5.931   6.056 -2.0953  3.0384  2.4714
    2MOL0     H  208   6.774   5.776   6.091  0.5125 -0.2707  0.8639
    2MOL0     H  209   6.677   5.777   6.316  0.0267 -0.8328  0.1179
    2MOL0     H  210   6.626   5.946   6.308  0.7490  0.8771 -0.4723
    2MOL0     H  211   6.457   5.900   6.156  1.1986  0.4324  2.4396
    2MOL0     H  212   6.525   5.742   6.118 -1.1992 -0.6614  0.7375
    2MOL0     H  213   6.474   5.668   6.353  2.3071  1.7470  0.5559
    2MOL0     H  214   6.431   5.828   6.399  1.8155 -0.6653  0.0911
    2MOL0     H  215   6.236   5.674   6.374 -0.6494 -0.3534 -0.9886
    2MOL0     H  216   6.226   5.826   6.292  0.3457 -0.0673  4.4513
    2MOL0     H  217   6.285   5.740   6.082 -0.0276  0.2963  0.7280
    2MOL0     H  218   6.330   5.579   6.141  0.6796  0.2786 -0.6757
    2MOL0     H  219   6.094   5.535   6.221  2.8273 -0.4181 -0.9155
    2MOL0     H  220   6.105   5.560   6.053  1.5892  0.9302 -0.7215
    2MOL0     H  221   5.887   5.633   6.324  2.0582  0.1237  0.9607
    2MOL0     H  222   5.650   5.922   6.173  1.3688 -1.4198 -1.6015
    2MOL0     H  223   5.614   5.753   6.193 -1.5666 -0.7715  0.5905
    2MOL0     H  224   5.734   5.944   6.397  2.4960 -1.7744 -1.2127
    2MOL0     H  225   5.695   5.780   6.440  3.0138  1.1920  1.0443
    2MOL0     H  226   5.502   6.009   6.353  1.3264  1.1158 -0.6522
    2MOL0     H  227   5.516   5.939   6.521  0.0024  1.6111 -0.4749
    2MOL0     H  228   5.438   5.716   6.408  0.4882  0.2165  1.3454
    2MOL0     H  229   5.391   5.835   6.278 -2.6964  0.8499  0.1440
    2MOL0     H  230   5.087   5.952   6.543  3.5538 -0.0663 -0.7637
    2MOL0     H  231   4.853   5.974   6.542 -2.1178  0.0933 -0.4044
    2MOL0     H  232   4.747   5.866   6.456 -0.5188 -0.3280 -0.0451
    2MOL0     H  233   4.769   5.840   6.629 -0.2823 -0.9696 -0.3388
    2MOL0     H  234   4.642   5.392   6.704  1.6902 -1.6046  1.1059
    2MOL0     H  235   4.485   5.205   6.723 -0.0264  1.0201 -0.0710
    2MOL0     H  236   4.332   5.017   6.698  0.6500  1.8556  0.9881
    2MOL0     H  237   4.278   5.100   6.549 -1.3050  0.3856  1.8756
    2MOL0     H  238   4.264   4.875   6.441  1.1708  0.9493  0.4755
    2MOL0     H  239   4.280   4.809   6.608  1.4319  0.9609  0.5749
    2MOL0     H  240   4.069   4.998   6.504 -2.3687 -1.4321 -0.8673
    2MOL0     H  241   4.081   4.922   6.671  3.3417 -0.0328  0.1324
    2MOL0     H  242   4.039   4.792   6.396  2.4462  2.1658  0.0312
    2MOL0     H  243   4.066   4.697   6.551 -2.2793 -1.0763  0.4326
    2MOL0     H  244   3.838   4.901   6.488  3.1260  2.9308  2.7466
    2MOL0     H  245   3.877   4.820   6.641 -1.8515 -2.2318  0.5014
    2MOL0     H  246   3.786   4.672   6.392 -0.1751  3.0435 -0.7590
    2MOL0     H  247   3.854   4.603   6.534 -1.6026 -1.4849 -0.0441
    2MOL0     H  248   3.617   4.788   6.534  2.0002  1.9013  1.1426
    2MOL0     H  249   3.673   4.700   6.680 -3.4031  0.5608  0.2220
    2MOL0     H  250   3.484   4.571   6.594  1.4238  0.7499  2.1026
    2MOL0     H  251   3.648   4.486   6.573  2.1283  0.9533 -0.0482
    2MOL0     H  252   4.616   5.074   6.332 -0.6951  1.9960 -0.6286
    2MOL0     H  253   4.753   5.249   6.314 -0.5877 -0.9476 -0.1035
    2MOL0     H  254   5.072   5.475   6.444  1.9481  0.7103 -2.8800
    2MOL0     H  255   5.271   5.595   6.417 -0.5874 -1.0451 -4.2334
    2MOL0     H  256   6.844   6.298   6.196 -0.5819 -0.2423  1.4038
    2MOL0     H  257   6.980   6.466   6.335  0.2884 -0.5901 -0.0183
    2MOL0     H  258   7.475   6.390   6.668  0.9578  0.6499  2.3509
    2MOL0     H  259   7.614   6.591   6.754  0.5554 -0.6478 -2.2163
    2MOL0     H  260   7.457   7.005   6.686 -0.7480  1.3313  0.3600
    2MOL0     H  261   7.394   6.963   6.844  1.0240  0.4664  2.5674
    2MOL0     H  262   7.572   7.145   6.786 -0.0994  0.3598 -0.0346
    2MOL0     H  263   7.691   7.015   6.771 -0.6411 -1.3764 -0.6462
    2MOL0     H  264   7.624   6.939   7.008  7.8508  0.1820  0.6766
    2MOL0     H  265   7.520   7.095   7.003 -0.8088 -0.2980 -2.2654
    2MOL0     H  266   7.821   7.096   6.950  0.5680  2.3058 -1.0077
    2MOL0     H  267   7.744   7.131   7.110 -2.0953 -1.4991  0.6583
    2MOL0     H  268   7.659   7.490   6.910  1.9203  0.8412  1.5630
    2MOL0     H  269   7.281   6.845   6.659 -1.7420 -0.6728  0.7459
    2MOL0     H  270   7.165   6.656   6.547 -1.1736  1.4001  1.8284
    3MOL0     O  271   2.747   8.893   0.282 -0.7078  0.2393 -0.0887
    3MOL0     C  272   2.771   8.875   0.163  0.0532  0.8222  0.5729
    3MOL0     O  273   2.682   8.845   0.059  0.1947 -0.1883 -0.3292
    3MOL0     C  274   2.550   8.866   0.083 -0.1119 -0.3387  0.6919
    3MOL0     C  275   2.475   8.773   0.157 -0.4942  0.3298 -0.4199
    3MOL0     C  276   2.344   8.809   0.180  0.0258 -0.4601  0.5573
    3MOL0     C  277   2.274   8.926   0.129  0.5550  0.5222 -0.4881
    3MOL0     O  278   2.143   8.959   0.140  0.5802  0.0854  0.1384
    3MOL0     C  279   2.048   8.851   0.138 -0.5795  0.0657  0.0461
    3MOL0     C  280   1.911   8.906   0.187  0.1553 -0.0092 -0.7499
    3MOL0     C  281   1.804   8.801   0.184 -0.3705  0.1057 -0.1380
    3MOL0     C  282   1.684   8.850   0.269  0.0737 -1.0510 -0.2917
    3MOL0     C  283   1.560   8.768   0.257  0.4952 -0.4333  0.0880
    3MOL0     C  284   1.433   8.857   0.304  0.4970 -0.0310 -0.5256
    3MOL0     C  285   1.295   8.795   0.282  0.7351  1.1233 -0.2529
    3MOL0     C  286   1.176   8.876   0.340 -0.1263 -0.5956  0.1340
    3MOL0     N  287   1.157   9.011   0.280  0.9337 -0.4840 -0.0637
    3MOL0     C  288   1.108   9.039   0.157  0.3450 -0.1129  1.2880
    3MOL0     C  289   1.079   9.173   0.163 -0.4899 -0.0372  0.3370
    3MOL0     C  290   1.034   9.237   0.038 -0.4141  0.5813 -0.5318
    3MOL0     C  291   0.897   9.295   0.063  0.0421 -0.2484  0.0272
    3MOL0     C  292   0.803   9.174   0.093 -0.8220 -0.3253 -0.6546
    3MOL0     C  293   0.653   9.218   0.100  0.2070 -0.5251 -1.0847
    3MOL0     O  294   0.569   9.105   0.131  0.0616 -0.0904 -0.5079
    3MOL0     C  295   0.435   9.112   0.112  0.4545 -1.0945 -0.0012
    3MOL0     C  296   0.369   9.226   0.070  0.6351 -0.6380 -0.5227
    3MOL0     C  297   0.230   9.231   0.045  0.9720  0.0534 -0.3815
    3MOL0     C  298   0.173   9.352  -0.016  0.2748  0.3097  0.3234
    3MOL0     C  299   0.151   9.112   0.079  0.1813  0.1877 -0.3959
    3MOL0     C  300   0.002   9.106   0.084  0.1166  0.2884 -0.5989
    3MOL0     O  301  -0.051   8.982   0.097  0.7532 -0.1252 -0.4577
    3MOL0     C  302  -0.188   8.963   0.064 -1.5329  1.1383 -0.8439
    3MOL0     C  303  -0.244   8.840   0.109 -0.2644  0.1754 -0.4228
    3MOL0     C  304  -0.376   8.815   0.095  0.1730 -0.0851 -0.4508
    3MOL0     C  305  -0.468   8.909   0.050 -0.6114 -0.3571  0.2015
    3MOL0     O  306  -0.602   8.876   0.060 -0.8125  0.3633  0.3805
    3MOL0     C  307  -0.703   8.958   0.007  0.4125  1.5443  1.2390
    3MOL0     C  308  -0.820   8.862   0.008  0.2085  0.1773 -0.6023
    3MOL0     C  309  -0.943   8.931  -0.052  0.0219 -0.3190 -0.3324
    3MOL0     C  310  -1.008   9.037   0.033  0.2382 -1.0981 -0.7235
    3MOL0     C  311  -1.103   9.114  -0.049  0.0280 -0.8355  0.7715
    3MOL0     C  312  -1.242   9.062  -0.045  0.1592 -0.0779  0.2398
    3MOL0     C  313  -1.324   9.128  -0.159  0.6210 -0.5489  0.9287
    3MOL0     C  314  -1.466   9.067  -0.150 -0.2965  0.4858  0.1219
    3MOL0    Cl  315  -1.551   9.129  -0.017 -0.0979 -0.1110 -0.0759
    3MOL0     C  316  -0.415   9.027  -0.007  0.0595  0.0507 -0.1823
    3MOL0     C  317  -0.278   9.051  -0.005 -0.0822 -0.7912 -0.0660
    3MOL0     O  318  -0.064   9.208   0.076 -0.1207 -1.1128  0.0137
    3MOL0     C  319   0.217   8.995   0.115 -0.0741 -0.4203 -0.0576
    3MOL0     C  320   0.355   8.997   0.134  0.0558  0.1550  0.8277
    3MOL0     N  321   1.109   9.228   0.286 -0.1875  0.1047  0.8649
    3MOL0     N  322   1.157   9.126   0.351 -0.1109 -0.2520  0.8236
    3MOL0     C  323   2.354   9.015   0.064 -0.1529 -0.3188 -0.0770
    3MOL0     C  324   2.489   8.986   0.035  0.5779 -0.6823 -0.8079
    3MOL0     C  325   2.909   8.896   0.120 -0.2691 -0.9146  0.3722
    3MOL0     C  326   2.974   8.807   0.033  0.0400  0.8547 -0.5023
    3MOL0     C  327   3.110   8.844  -0.007  0.0990 -0.1419 -0.8368
    3MOL0     C  328   3.178   8.952   0.043 -0.4042  0.2641  0.1591
    3MOL0     O  329   3.313   8.975   0.009 -0.1599  0.6091  0.2174
    3MOL0     C  330   3.370   9.106  -0.003 -0.0684 -0.0230 -0.1805
    3MOL0     C  331   3.399   9.150  -0.143 -0.6576 -0.0766 -0.1309
    3MOL0     C  332   3.480   9.049  -0.227  0.6406 -0.0526 -0.0030
    3MOL0     C  333   3.490   9.098  -0.382  0.3657 -0.2275 -1.0210
    3MOL0     C  334   3.541   8.999  -0.481  0.6505 -0.1525 -0.5308
    3MOL0     C  335   3.581   8.925  -0.565 -0.1416  0.1883 -0.6908
    3MOL0     C  336   3.103   9.039   0.127 -0.0081  0.1599  0.0167
    3MOL0     C  337   2.977   9.010   0.170  0.7447 -0.6511  1.1313
    3MOL0     H  338   2.532   8.688   0.195  2.6507  1.7351 -1.5980
    3MOL0     H  339   2.290   8.742   0.246 -0.4131 -1.2788 -0.6022
    3MOL0     H  340   2.037   8.815   0.035  1.1547  2.9296 -1.2689
    3MOL0     H  341   2.089   8.768   0.196 -2.1370  1.6775  3.8022
    3MOL0     H  342   1.915   8.957   0.284  0.6015  1.2414 -1.4077
    3MOL0     H  343   1.889   8.979   0.109  0.9170 -1.4956 -2.4285
    3MOL0     H  344   1.776   8.784   0.079 -0.7376  3.7920 -0.7850
    3MOL0     H  345   1.838   8.705   0.221  0.3817 -0.9171 -3.1703
    3MOL0     H  346   1.704   8.859   0.376 -3.4950 -1.1675  0.5093
    3MOL0     H  347   1.649   8.949   0.236 -0.4063 -1.7275 -1.9068
    3MOL0     H  348   1.543   8.761   0.150 -2.3186 -2.5406  0.5621
    3MOL0     H  349   1.564   8.675   0.316 -2.5805  1.1703  3.1465
    3MOL0     H  350   1.437   8.867   0.412 -3.1754  0.2841 -0.2826
    3MOL0     H  351   1.434   8.958   0.263  0.4371  1.4814  2.9309
    3MOL0     H  352   1.278   8.759   0.180  0.6977 -2.1061  0.7943
    3MOL0     H  353   1.298   8.702   0.338 -3.0408 -0.1981 -1.9288
    3MOL0     H  354   1.204   8.881   0.446 -0.6833  0.8625  0.2436
    3MOL0     H  355   1.089   8.811   0.345  0.8118 -1.9997 -1.0876
    3MOL0     H  356   1.110   8.962   0.080 -1.0974 -0.0664  1.1679
    3MOL0     H  357   1.102   9.314  -0.001  0.1191 -0.6249 -2.0973
    3MOL0     H  358   1.022   9.167  -0.045 -2.1353 -1.0784  1.0300
    3MOL0     H  359   0.861   9.354  -0.023  2.9259  0.4890 -0.7759
    3MOL0     H  360   0.894   9.356   0.153  0.2140  0.8948 -0.7110
    3MOL0     H  361   0.824   9.143   0.196 -0.0229 -0.2410 -0.7837
    3MOL0     H  362   0.824   9.087   0.030  2.1629  0.7552 -1.3349
    3MOL0     H  363   0.622   9.251   0.001 -2.3434  3.1652  0.7237
    3MOL0     H  364   0.630   9.305   0.162 -3.8816 -1.7427 -0.5952
    3MOL0     H  365   0.425   9.317   0.050  1.2063 -1.2478 -1.8047
    3MOL0     H  366   0.110   9.407   0.054  0.8483 -1.8017  2.6352
    3MOL0     H  367   0.251   9.418  -0.055  0.2833 -0.6830 -1.4361
    3MOL0     H  368   0.105   9.321  -0.096  0.4198  0.7160  0.0414
    3MOL0     H  369  -0.195   8.756   0.158 -0.9870 -1.0131 -1.6859
    3MOL0     H  370  -0.423   8.727   0.138 -1.3180  1.6286  1.6216
    3MOL0     H  371  -0.713   9.046   0.072 -1.2758  0.5658  2.3788
    3MOL0     H  372  -0.694   8.977  -0.101 -3.4879 -0.5387  0.3406
    3MOL0     H  373  -0.785   8.779  -0.055  3.0319  0.1785  0.8113
    3MOL0     H  374  -0.835   8.818   0.107  3.1698  1.8344  0.6948
    3MOL0     H  375  -1.017   8.853  -0.076  2.3178 -2.6326 -0.4294
    3MOL0     H  376  -0.917   8.985  -0.143  0.6148  1.1157  0.6689
    3MOL0     H  377  -1.050   8.998   0.126 -0.3363  3.0110  0.9707
    3MOL0     H  378  -0.932   9.111   0.060 -0.6328 -0.8794  1.3044
    3MOL0     H  379  -1.067   9.126  -0.152 -1.5679 -0.1038  0.2771
    3MOL0     H  380  -1.095   9.213  -0.003  2.0305  0.7819 -2.6498
    3MOL0     H  381  -1.239   8.952  -0.050 -0.0468 -0.0682 -0.1596
    3MOL0     H  382  -1.292   9.087   0.049  1.4116 -1.8788  1.4437
    3MOL0     H  383  -1.274   9.116  -0.256  2.8406  0.5458  1.8603
    3MOL0     H  384  -1.338   9.236  -0.150 -1.3349 -0.7783  0.9894
    3MOL0     H  385  -1.455   8.958  -0.141 -2.0934  0.0500 -2.1782
    3MOL0     H  386  -1.521   9.080  -0.243 -0.9916  3.1355  0.8069
    3MOL0     H  387  -0.466   9.099  -0.070 -0.2838 -2.4159 -2.9565
    3MOL0     H  388  -0.232   9.129  -0.065  0.1849 -0.0800  1.0417
    3MOL0     H  389   0.166   8.904   0.145 -0.4515  0.5538  2.5057
    3MOL0     H  390   0.410   8.909   0.167 -0.6283 -0.8520 -0.5644
    3MOL0     H  391   2.314   9.113   0.039 -0.5266  0.0403  1.7675
    3MOL0     H  392   2.541   9.070  -0.010  0.0236  1.3464  2.0891
    3MOL0     H  393   2.923   8.716   0.004  0.5598 -0.9757  3.5460
    3MOL0     H  394   3.162   8.783  -0.080 -1.5377 -2.6861 -0.0156
    3MOL0     H  395   3.292   9.171   0.037 -1.3025 -2.1644  1.0809
    3MOL0     H  396   3.460   9.117   0.057 -1.3794  0.3794  1.8312
    3MOL0     H  397   3.460   9.240  -0.134  1.1541 -1.2931  0.2941
    3MOL0     H  398   3.308   9.176  -0.198  1.8837  0.4434 -4.6324
    3MOL0     H  399   3.422   8.957  -0.241 -0.8839  0.9659 -0.6029
    3MOL0     H  400   3.574   9.032  -0.175 -0.4041  1.3732  2.5271
    3MOL0     H  401   3.554   9.186  -0.378 -1.6152  1.3427 -2.2978
    3MOL0     H  402   3.390   9.132  -0.409 -1.5575 -3.2087  1.6396
    3MOL0     H  403   3.616   8.864  -0.646 -1.5876 -2.4673  0.5336
    3MOL0     H  404   3.143   9.131   0.167  1.9057 -0.8267  0.5401
    3MOL0     H  405   2.916   9.062   0.242 -2.0601 -2.7626  0.4654
    4MOL0     O  406   0.850   1.021   0.931 -0.9330 -0.3854 -0.7623
    4MOL0     C  407   0.841   1.106   1.023 -0.1241 -0.9986 -0.4799
    4MOL0     O  408   0.735   1.191   1.047 -0.0092  0.6465  0.3888
    4MOL0     C  409   0.605   1.180   1.002  0.5858  0.0194 -0.3898
    4MOL0     C  410   0.517   1.281   1.046  0.0479  0.0387 -0.0990
    4MOL0     C  411   0.374   1.280   1.006  0.3459  0.2646  0.5051
    4MOL0     C  412   0.325   1.172   0.930 -0.3450  0.1214 -0.4407
    4MOL0     O  413   0.194   1.166   0.906 -0.2407 -0.2501  0.4353
    4MOL0     C  414   0.162   1.151   0.766 -0.7692 -0.7608  0.3634
    4MOL0     C  415   0.009   1.172   0.762 -0.0979  0.1993  0.3982
    4MOL0     C  416  -0.045   1.169   0.610 -0.3693 -1.1010  0.5499
    4MOL0     C  417  -0.196   1.194   0.606  0.3099  0.4776 -0.4916
    4MOL0     C  418  -0.253   1.203   0.468 -0.6225 -0.9657 -0.2531
    4MOL0     C  419  -0.402   1.195   0.491 -0.1557 -0.1823  0.5056
    4MOL0     C  420  -0.484   1.213   0.356  0.6771 -0.1504 -0.2297
    4MOL0     C  421  -0.636   1.223   0.384 -0.5804 -0.1296 -0.0295
    4MOL0     N  422  -0.711   1.227   0.250  0.0607  0.0175 -0.1980
    4MOL0     C  423  -0.752   1.333   0.178  0.0946 -0.0772  0.2693
    4MOL0     C  424  -0.796   1.285   0.058  0.1803  0.1936  0.5172
    4MOL0     C  425  -0.834   1.372  -0.056 -1.1216 -0.7621  0.3328
    4MOL0     C  426  -0.698   1.403  -0.123  0.2266 -0.1757  0.0860
    4MOL0     C  427  -0.714   1.527  -0.217  0.6967  0.1508  0.1600
    4MOL0     C  428  -0.836   1.524  -0.314 -0.0852  0.3088  0.7395
    4MOL0     O  429  -0.857   1.391  -0.362 -0.9887  0.1595 -0.6821
    4MOL0     C  430  -0.981   1.376  -0.420  0.1584  0.5851 -0.0716
    4MOL0     C  431  -0.995   1.435  -0.545  0.6170 -0.3627 -0.0253
    4MOL0     C  432  -1.119   1.437  -0.615 -0.8757  0.8211 -0.1731
    4MOL0     C  433  -1.131   1.522  -0.743 -0.1828 -0.1848 -0.7514
    4MOL0     C  434  -1.228   1.366  -0.555  0.1481 -0.6018 -0.1248
    4MOL0     C  435  -1.361   1.359  -0.613 -0.2366  0.3456 -0.1092
    4MOL0     O  436  -1.427   1.243  -0.582 -0.8501  0.4015  0.4810
    4MOL0     C  437  -1.562   1.231  -0.631  0.5514 -0.0080 -0.0137
    4MOL0     C  438  -1.662   1.309  -0.578 -1.1706 -0.1404 -0.7029
    4MOL0     C  439  -1.795   1.298  -0.613 -0.1475  0.9300 -0.2682
    4MOL0     C  440  -1.834   1.197  -0.702 -0.4264  0.7882  0.0380
    4MOL0     O  441  -1.960   1.170  -0.742 -0.1631 -1.0898  0.2226
    4MOL0     C  442  -2.066   1.230  -0.672  0.8130 -0.5882 -0.1082
    4MOL0     C  443  -2.102   1.368  -0.741 -0.2357 -0.1064 -0.3559
    4MOL0     C  444  -2.243   1.406  -0.708  0.5625 -0.5812  0.2690
    4MOL0     C  445  -2.261   1.545  -0.768  1.0252  0.1373 -0.2150
    4MOL0     C  446  -2.415   1.591  -0.752  0.7203  0.4555 -0.3046
    4MOL0     C  447  -2.442   1.717  -0.837 -0.2484  0.0516  1.1490
    4MOL0     C  448  -2.361   1.837  -0.800 -0.2484 -0.3630  0.4101
    4MOL0     C  449  -2.409   1.967  -0.868 -0.6513 -0.0658  1.2917
    4MOL0    Cl  450  -2.487   1.937  -1.016 -0.0489 -0.0221  0.5118
    4MOL0     C  451  -1.739   1.107  -0.758 -1.2339 -0.7092  0.4853
    4MOL0     C  452  -1.604   1.123  -0.710 -0.0521  0.5294 -0.0870
    4MOL0     O  453  -1.413   1.457  -0.661  0.7543 -0.5232  0.2080
    4MOL0     C  454  -1.207   1.298  -0.432  0.6004  0.7822 -0.2807
    4MOL0     C  455  -1.086   1.310  -0.362 -0.0752 -0.0405 -0.8445
    4MOL0     N  456  -0.789   1.151   0.060  0.2369 -0.6342  0.3129
    4MOL0     N  457  -0.733   1.110   0.174  0.4948  0.3752 -1.2893
    4MOL0     C  458   0.415   1.072   0.888  1.2664  0.7279  0.4420
    4MOL0     C  459   0.551   1.079   0.924  0.2383 -0.3167  0.2841
    4MOL0     C  460   0.971   1.140   1.086  0.2991 -0.7265 -0.3184
    4MOL0     C  461   0.985   1.266   1.149 -0.1457 -0.1831  0.6675
    4MOL0     C  462   1.116   1.313   1.185 -0.3908  0.0112  0.3476
    4MOL0     C  463   1.229   1.235   1.149 -0.4124 -0.5743 -0.0155
    4MOL0     O  464   1.353   1.282   1.180 -0.0713  0.2932 -0.3509
    4MOL0     C  465   1.392   1.412   1.132  0.3953 -0.2460 -0.0823
    4MOL0     C  466   1.526   1.390   1.068 -0.6309 -0.1589  0.0772
    4MOL0     C  467   1.626   1.325   1.162  0.3313  0.3403 -0.6996
    4MOL0     C  468   1.660   1.401   1.293  0.8706 -0.3109 -0.6110
    4MOL0     C  469   1.772   1.482   1.294 -0.1533  0.2410 -0.5941
    4MOL0     C  470   1.869   1.550   1.295  0.1508 -0.0181 -0.0332
    4MOL0     C  471   1.210   1.115   1.090  0.0404  0.2789 -0.1326
    4MOL0     C  472   1.083   1.061   1.072 -0.4420  0.2410  1.0022
    4MOL0     H  473   0.559   1.349   1.120 -1.9585 -0.2581  1.3999
    4MOL0     H  474   0.304   1.349   1.052 -0.7076 -1.0042  0.8590
    4MOL0     H  475   0.208   1.227   0.703 -2.1859 -1.5024 -1.6722
    4MOL0     H  476   0.187   1.048   0.740  1.9747 -0.9781  3.2849
    4MOL0     H  477  -0.039   1.093   0.821 -1.5160  1.1242  0.5290
    4MOL0     H  478  -0.008   1.270   0.807  1.7667  0.9528 -0.4239
    4MOL0     H  479   0.005   1.240   0.544 -2.0033  0.7370  1.2083
    4MOL0     H  480  -0.033   1.068   0.569  2.2564 -1.4086  1.8546
    4MOL0     H  481  -0.238   1.113   0.667 -0.2417  0.4135 -0.9480
    4MOL0     H  482  -0.219   1.280   0.670 -3.0325 -1.0691  0.6201
    4MOL0     H  483  -0.214   1.300   0.435  0.5439 -1.5045 -0.4939
    4MOL0     H  484  -0.217   1.125   0.400 -0.6795 -3.0116  1.9451
    4MOL0     H  485  -0.414   1.091   0.521  0.3901 -0.3538  0.1503
    4MOL0     H  486  -0.437   1.265   0.568 -1.7264  0.2794 -0.5909
    4MOL0     H  487  -0.456   1.299   0.294  2.3811  0.2171  0.9656
    4MOL0     H  488  -0.471   1.122   0.298 -3.0243 -1.0349  0.0881
    4MOL0     H  489  -0.664   1.303   0.453  0.6960 -1.4747  2.1573
    4MOL0     H  490  -0.651   1.131   0.441  0.4398 -1.2152 -1.4406
    4MOL0     H  491  -0.734   1.434   0.215  3.1394 -1.1424  2.0049
    4MOL0     H  492  -0.894   1.317  -0.129 -0.5530  0.7667 -1.3648
    4MOL0     H  493  -0.884   1.459  -0.014 -0.0175 -0.1699  0.4742
    4MOL0     H  494  -0.669   1.311  -0.175 -0.3621 -1.7495  2.3820
    4MOL0     H  495  -0.618   1.422  -0.050  2.4203 -2.0742 -1.6562
    4MOL0     H  496  -0.618   1.555  -0.261  1.2497  2.5205  2.5761
    4MOL0     H  497  -0.738   1.609  -0.148 -0.0078  1.1458 -1.2250
    4MOL0     H  498  -0.819   1.596  -0.394  0.5062  0.7340  1.2347
    4MOL0     H  499  -0.926   1.558  -0.263 -1.4357 -2.3049  0.2426
    4MOL0     H  500  -0.906   1.478  -0.591  1.6700  0.5094  2.6412
    4MOL0     H  501  -1.171   1.453  -0.818 -2.2044 -0.0433  0.1268
    4MOL0     H  502  -1.207   1.599  -0.725  2.3806  3.0433 -2.5735
    4MOL0     H  503  -1.040   1.575  -0.772  2.0891 -3.9197 -1.0220
    4MOL0     H  504  -1.638   1.383  -0.501 -3.4041 -0.9734  0.9079
    4MOL0     H  505  -1.866   1.367  -0.568 -1.0596  0.1940 -0.5364
    4MOL0     H  506  -2.154   1.165  -0.679 -0.0821  0.3796  1.6690
    4MOL0     H  507  -2.051   1.238  -0.564 -0.7329  1.3633 -0.0019
    4MOL0     H  508  -2.035   1.450  -0.711 -2.3084  1.2837  0.7004
    4MOL0     H  509  -2.098   1.356  -0.850  2.0727 -4.3891 -0.0098
    4MOL0     H  510  -2.256   1.414  -0.600  0.6877 -0.2404  0.2591
    4MOL0     H  511  -2.318   1.343  -0.758 -1.8106  1.2145  1.3408
    4MOL0     H  512  -2.194   1.620  -0.725  1.3946  0.5178 -1.3949
    4MOL0     H  513  -2.248   1.541  -0.877 -0.5009 -1.5027 -0.3769
    4MOL0     H  514  -2.436   1.620  -0.649  0.3787  0.3981 -0.3563
    4MOL0     H  515  -2.478   1.508  -0.786 -0.0686  1.4219 -1.3006
    4MOL0     H  516  -2.429   1.696  -0.944 -0.3954 -0.3953  1.2180
    4MOL0     H  517  -2.546   1.750  -0.840 -0.5151 -0.2509 -4.8147
    4MOL0     H  518  -2.255   1.828  -0.826  0.0086 -0.7910  1.5533
    4MOL0     H  519  -2.364   1.841  -0.691  2.9257  2.3271  0.5606
    4MOL0     H  520  -2.329   2.036  -0.895 -1.5272 -0.0718 -1.6603
    4MOL0     H  521  -2.483   2.013  -0.802 -1.5114 -2.2253  1.9274
    4MOL0     H  522  -1.777   1.031  -0.825 -0.9067 -0.2299 -0.2543
    4MOL0     H  523  -1.535   1.055  -0.759 -2.5703 -0.4318 -2.5637
    4MOL0     H  524  -1.276   1.222  -0.396  2.3950 -0.2450  1.1863
    4MOL0     H  525  -1.070   1.257  -0.268 -1.6607 -2.1111 -1.6507
    4MOL0     H  526   0.380   0.993   0.822 -2.1668  2.3750  0.0705
    4MOL0     H  527   0.609   1.003   0.872  2.0060  0.5365  0.9336
    4MOL0     H  528   0.901   1.334   1.155 -1.2927 -1.3559 -1.1412
    4MOL0     H  529   1.124   1.405   1.241 -1.4046  0.2533  0.1130
    4MOL0     H  530   1.332   1.452   1.050  0.8720 -1.4118 -1.0258
    4MOL0     H  531   1.389   1.489   1.210  1.3487 -1.1392  0.8659
    4MOL0     H  532   1.567   1.491   1.055 -2.3057  1.0633  3.0310
    4MOL0     H  533   1.524   1.325   0.981 -2.1267 -0.9541  0.6654
    4MOL0     H  534   1.725   1.319   1.117  1.1169 -1.1639  1.0686
    4MOL0     H  535   1.586   1.227   1.188  0.4843  0.6154  0.6717
    4MOL0     H  536   1.671   1.325   1.371 -4.1247  1.0067  1.8405
    4MOL0     H  537   1.574   1.460   1.327 -0.2594 -2.4420  0.4432
    4MOL0     H  538   1.964   1.598   1.290  0.0099  0.2912  0.2401
    4MOL0     H  539   1.306   1.069   1.069 -0.4897 -1.1965  0.5775
    4MOL0     H  540   1.067   0.961   1.033  3.3564 -0.3409  0.5307
    5MOL0     O  541  11.144   8.012   5.645  0.3366 -0.6002  0.1146
    5MOL0     C  542  11.092   7.934   5.726  0.2915 -0.9243  0.1276
    5MOL0     O  543  11.123   7.928   5.858  0.5585  0.7546  0.1789
    5MOL0     C  544  11.226   8.002   5.907 -0.0384 -0.2395 -0.8296
    5MOL0     C  545  11.248   8.143   5.885  0.8490  0.5128 -0.1070
    5MOL0     C  546  11.359   8.211   5.944  0.6229  0.0197  0.5663
    5MOL0     C  547  11.448   8.146   6.028  0.6719  0.6021 -0.3069
    5MOL0     O  548  11.557   8.212   6.077  0.3594  0.0003  0.0063
    5MOL0     C  549  11.526   8.322   6.166  0.2544 -0.0448  0.4759
    5MOL0     C  550  11.528   8.269   6.312 -0.1952  0.9188 -0.2302
    5MOL0     C  551  11.666   8.202   6.339  0.9619  0.5852 -0.8722
    5MOL0     C  552  11.674   8.151   6.486 -0.1354  0.2440  0.0872
    5MOL0     C  553  11.786   8.059   6.515  0.6496  0.4130  0.4596
    5MOL0     C  554  11.773   7.924   6.446 -0.3416  0.0802  0.5435
    5MOL0     C  555  11.843   7.827   6.527  0.0992 -0.3358 -0.7596
    5MOL0     C  556  11.869   7.696   6.448 -0.4837 -0.1686  0.2034
    5MOL0     N  557  11.743   7.640   6.390 -0.5281  0.1430  0.0566
    5MOL0     C  558  11.640   7.572   6.457  0.3323 -0.0791 -0.6345
    5MOL0     C  559  11.584   7.510   6.353  0.8103 -0.4877 -0.2115
    5MOL0     C  560  11.474   7.418   6.366  0.0581  0.2200  0.3009
    5MOL0     C  561  11.341   7.503   6.374 -0.0076  0.4264 -0.2083
    5MOL0     C  562  11.226   7.400   6.409 -0.6755 -0.6873  0.8747
    5MOL0     C  563  11.085   7.471   6.418  0.0746  0.3343 -0.1129
    5MOL0     O  564  10.982   7.382   6.477 -0.1586  0.4413 -0.0812
    5MOL0     C  565  10.849   7.412   6.465 -0.7671  0.6607 -0.2699
    5MOL0     C  566  10.791   7.534   6.423 -0.0489  0.3341 -0.0017
    5MOL0     C  567  10.660   7.563   6.451 -0.0346  0.3646  0.0536
    5MOL0     C  568  10.619   7.703   6.403  0.1585  0.2455 -0.6628
    5MOL0     C  569  10.566   7.469   6.499 -0.7753 -0.3012 -0.6281
    5MOL0     C  570  10.432   7.507   6.542  0.5360 -0.2706  0.2763
    5MOL0     O  571  10.418   7.597   6.645  0.3139 -0.4307  0.3128
    5MOL0     C  572  10.291   7.621   6.694 -0.2110  0.5146  0.3095
    5MOL0     C  573  10.212   7.524   6.763 -0.3335  0.6018 -0.6554
    5MOL0     C  574  10.091   7.573   6.817 -0.1663 -0.2606 -0.0409
    5MOL0     C  575  10.046   7.706   6.796  0.0775  0.6097 -0.5539
    5MOL0     O  576   9.931   7.752   6.853  0.2543 -0.5437  0.3796
    5MOL0     C  577   9.855   7.860   6.781  0.4117 -0.7848  0.2078
    5MOL0     C  578   9.719   7.879   6.845 -0.2226  0.3439 -0.1546
    5MOL0     C  579   9.629   7.953   6.752  0.0115  0.1742 -0.2748
    5MOL0     C  580   9.655   8.106   6.745  0.5762  0.5971 -0.5367
    5MOL0     C  581   9.561   8.192   6.654 -0.1563 -0.2448  0.1551
    5MOL0     C  582   9.414   8.141   6.644  0.8017  0.4785 -0.3218
    5MOL0     C  583   9.327   8.124   6.778 -0.4438 -0.4313 -1.0432
    5MOL0     C  584   9.327   8.260   6.853 -0.7447  0.2123  0.4205
    5MOL0    Cl  585   9.249   8.405   6.776  0.1161 -0.3754 -0.1243
    5MOL0     C  586  10.128   7.790   6.725 -0.8077 -0.3909  0.3617
    5MOL0     C  587  10.244   7.748   6.672 -0.3152  0.1605 -0.6787
    5MOL0     O  588  10.338   7.457   6.474 -0.2527 -0.3843  0.5487
    5MOL0     C  589  10.628   7.348   6.541 -0.0575  0.5647 -0.5659
    5MOL0     C  590  10.761   7.318   6.521  0.0015 -0.8179  0.1485
    5MOL0     N  591  11.646   7.533   6.233 -0.1353  0.0277 -0.7036
    5MOL0     N  592  11.735   7.617   6.254  0.5151  0.7612 -0.0453
    5MOL0     C  593  11.416   8.016   6.059 -0.6244  0.6262  0.0156
    5MOL0     C  594  11.307   7.944   6.007 -0.0558 -0.0667  0.2129
    5MOL0     C  595  10.994   7.833   5.682  0.3990 -0.0675 -0.6522
    5MOL0     C  596  10.958   7.840   5.549 -1.0438  0.7902  0.8504
    5MOL0     C  597  10.840   7.788   5.499  0.3223  0.5859 -0.4888
    5MOL0     C  598  10.765   7.700   5.587 -0.7263  0.1263  0.1367
    5MOL0     O  599  10.645   7.637   5.559 -0.4424 -1.0416  0.2167
    5MOL0     C  600  10.622   7.601   5.423 -0.5748  0.6439  0.4071
    5MOL0     C  601  10.477   7.611   5.383  0.4393 -0.7714 -0.1974
    5MOL0     C  602  10.451   7.752   5.323  0.3839 -0.2625  0.6844
    5MOL0     C  603  10.331   7.811   5.399  0.1350  0.7993  0.0035
    5MOL0     C  604  10.309   7.945   5.349  0.1742 -0.7529  0.3522
    5MOL0     C  605  10.271   8.043   5.286 -0.4843  0.1404  0.5688
    5MOL0     C  606  10.813   7.681   5.719  0.5243 -0.1078  0.8483
    5MOL0     C  607  10.922   7.745   5.763  0.5822 -0.0746  0.0597
    5MOL0     H  608  11.197   8.203   5.810 -0.2927  0.0460  0.2833
    5MOL0     H  609  11.373   8.312   5.907  0.6832 -0.6915 -1.4963
    5MOL0     H  610  11.599   8.403   6.163  0.7212 -0.4871 -1.9673
    5MOL0     H  611  11.429   8.369   6.147  0.0533 -0.1600  1.2000
    5MOL0     H  612  11.519   8.360   6.372 -1.5211 -0.2197  1.3767
    5MOL0     H  613  11.443   8.202   6.327  0.0978  0.0315 -2.2127
    5MOL0     H  614  11.677   8.119   6.268  0.7963  1.7124 -2.2381
    5MOL0     H  615  11.745   8.276   6.323  0.1999  1.5195 -0.3987
    5MOL0     H  616  11.693   8.242   6.544  1.9874 -0.5594  0.7725
    5MOL0     H  617  11.586   8.096   6.520 -0.0733  0.1540  0.1065
    5MOL0     H  618  11.883   8.094   6.480  1.6263 -1.7248  0.8659
    5MOL0     H  619  11.810   8.041   6.620  4.2329  0.3824 -0.2143
    5MOL0     H  620  11.666   7.900   6.448 -1.2206  3.3957  0.3579
    5MOL0     H  621  11.805   7.927   6.341 -1.8939 -2.5652 -0.1010
    5MOL0     H  622  11.938   7.875   6.554 -0.8736  1.9408 -1.1182
    5MOL0     H  623  11.794   7.806   6.622  4.3918 -0.9919  1.5589
    5MOL0     H  624  11.917   7.616   6.505 -0.5367 -0.1723  0.2428
    5MOL0     H  625  11.930   7.722   6.362  1.2248 -0.4212  1.2826
    5MOL0     H  626  11.619   7.546   6.560 -0.1906  0.2256 -0.6636
    5MOL0     H  627  11.463   7.344   6.287 -0.6375  0.0420  0.5536
    5MOL0     H  628  11.486   7.353   6.453  0.0839 -0.3247 -0.1100
    5MOL0     H  629  11.315   7.550   6.279 -1.8291  1.7336  0.8681
    5MOL0     H  630  11.334   7.580   6.451 -1.1489  1.2200 -1.0799
    5MOL0     H  631  11.233   7.362   6.512 -0.5503  0.8882  1.4900
    5MOL0     H  632  11.204   7.315   6.344 -1.9854 -0.5876  1.1447
    5MOL0     H  633  11.046   7.495   6.319  1.1400  0.4661 -0.5111
    5MOL0     H  634  11.092   7.561   6.480 -2.8199 -2.2474  4.6484
    5MOL0     H  635  10.862   7.609   6.390  0.4799 -0.0932  0.1383
    5MOL0     H  636  10.530   7.684   6.341  0.5044 -1.0536 -0.7815
    5MOL0     H  637  10.590   7.761   6.492  1.7254 -0.3831  0.2969
    5MOL0     H  638  10.699   7.761   6.357 -0.1717 -0.4076 -2.1168
    5MOL0     H  639  10.254   7.425   6.782  3.5596  2.2014  0.0844
    5MOL0     H  640  10.025   7.514   6.880 -0.7238  0.4185  0.0192
    5MOL0     H  641   9.906   7.955   6.761  3.3161 -1.5852  2.9577
    5MOL0     H  642   9.827   7.822   6.682 -1.3088  0.8220  0.0232
    5MOL0     H  643   9.678   7.777   6.853  1.1290 -0.2965 -1.0531
    5MOL0     H  644   9.723   7.938   6.937  2.4528  2.5609 -1.5619
    5MOL0     H  645   9.530   7.938   6.795  0.1143  1.4686  0.4776
    5MOL0     H  646   9.637   7.908   6.653  1.8466  1.8842 -0.9757
    5MOL0     H  647   9.657   8.143   6.848 -0.9933 -1.3162  0.2571
    5MOL0     H  648   9.752   8.135   6.704 -0.9307  3.1508 -2.6413
    5MOL0     H  649   9.603   8.209   6.554 -2.4187  2.7231 -0.4189
    5MOL0     H  650   9.549   8.290   6.700  0.5738  0.4188 -0.9996
    5MOL0     H  651   9.358   8.199   6.571 -0.5360 -1.7198 -1.1230
    5MOL0     H  652   9.413   8.038   6.607 -0.9137  0.1155  0.6364
    5MOL0     H  653   9.370   8.051   6.847 -0.6469 -0.5247 -1.0134
    5MOL0     H  654   9.226   8.095   6.747 -0.0196 -1.0749 -1.8362
    5MOL0     H  655   9.431   8.287   6.876 -0.9048  0.8467  0.4217
    5MOL0     H  656   9.277   8.242   6.948  0.1243  0.3009  0.9095
    5MOL0     H  657  10.094   7.892   6.707  0.8794 -0.3047 -2.9009
    5MOL0     H  658  10.316   7.821   6.638 -1.2839  2.0252  1.0621
    5MOL0     H  659  10.566   7.270   6.584 -2.3759  0.1828 -4.2106
    5MOL0     H  660  10.790   7.218   6.552  0.1640 -1.3161 -1.4924
    5MOL0     H  661  11.480   7.966   6.130 -1.0519  2.3448  1.7040
    5MOL0     H  662  11.293   7.840   6.035  2.3960  0.3333  3.4612
    5MOL0     H  663  10.997   7.920   5.486 -1.4112  0.9169  0.7843
    5MOL0     H  664  10.803   7.804   5.398 -2.2865 -0.3306  0.2368
    5MOL0     H  665  10.677   7.662   5.350 -0.3501 -0.1878 -0.1311
    5MOL0     H  666  10.640   7.494   5.419 -0.9805  0.3556  3.8142
    5MOL0     H  667  10.414   7.583   5.468  0.5511 -0.2891  0.0477
    5MOL0     H  668  10.447   7.540   5.306  1.7463  0.3995 -1.8471
    5MOL0     H  669  10.431   7.754   5.215 -2.5642 -1.0749  1.1254
    5MOL0     H  670  10.534   7.817   5.350 -0.4899 -0.0884  3.2092
    5MOL0     H  671  10.343   7.817   5.508  0.0323  1.4799 -0.0200
    5MOL0     H  672  10.238   7.755   5.385 -0.3072  1.2048  1.1930
    5MOL0     H  673  10.223   8.119   5.228 -1.5153 -0.6015  0.4100
    5MOL0     H  674  10.753   7.631   5.794  1.0389  0.8852  1.9621
    5MOL0     H  675  10.940   7.751   5.870 -0.2447  1.1241  0.1506
    6MOL0     O  676   3.512   1.151   4.225 -0.1397  0.4913 -0.0838
    6MOL0     C  677   3.543   1.044   4.284 -0.6540 -0.0602  0.4775
    6MOL0     O  678   3.461   0.948   4.323 -0.0329 -0.4106 -0.3323
    6MOL0     C  679   3.328   0.963   4.285  0.4049 -0.6167  0.0867
    6MOL0     C  680   3.240   1.015   4.375  0.5997 -0.3103  0.9547
    6MOL0     C  681   3.098   1.034   4.336  0.0369 -0.3533  0.5269
    6MOL0     C  682   3.055   1.003   4.206  0.8517  0.0931  0.3495
    6MOL0     O  683   2.928   1.025   4.154  0.5021  0.3565 -0.9482
    6MOL0     C  684   2.846   0.930   4.226 -1.2879 -0.5613 -0.3253
    6MOL0     C  685   2.706   0.966   4.173 -0.6113  0.3079 -0.3629
    6MOL0     C  686   2.610   0.874   4.233 -0.6450  0.1963  0.0328
    6MOL0     C  687   2.480   0.863   4.141  0.2123 -1.3248 -0.6213
    6MOL0     C  688   2.395   0.990   4.163  0.2373 -0.4103  0.8887
    6MOL0     C  689   2.264   0.986   4.082  0.9522 -0.6638  0.9473
    6MOL0     C  690   2.176   1.112   4.129 -0.2183  0.3841 -0.1591
    6MOL0     C  691   2.071   1.151   4.033 -0.2093 -0.4669 -0.1669
    6MOL0     N  692   1.974   1.239   4.109  0.1470 -0.4708 -0.2353
    6MOL0     C  693   1.893   1.203   4.212 -1.0488 -0.2669  0.8245
    6MOL0     C  694   1.834   1.317   4.248 -0.3086 -0.1830  0.4327
    6MOL0     C  695   1.723   1.332   4.351  0.1813 -0.0806  0.1060
    6MOL0     C  696   1.578   1.313   4.304 -0.4550  0.3142 -0.7401
    6MOL0     C  697   1.534   1.432   4.221  0.5133  0.8240  1.1099
    6MOL0     C  698   1.392   1.408   4.155 -0.3212 -0.7169 -0.0832
    6MOL0     O  699   1.284   1.407   4.249  0.1351 -0.2516 -0.9030
    6MOL0     C  700   1.165   1.461   4.203 -0.5596  0.5987  1.0107
    6MOL0     C  701   1.148   1.594   4.171 -0.5588 -0.3361 -0.0509
    6MOL0     C  702   1.019   1.648   4.141  0.3424 -0.0228 -0.4695
    6MOL0     C  703   1.024   1.799   4.119  1.2816 -0.6125 -0.2863
    6MOL0     C  704   0.907   1.561   4.137  0.3883  0.4528  0.4658
    6MOL0     C  705   0.765   1.609   4.098 -0.3101 -0.4026  0.7965
    6MOL0     O  706   0.746   1.735   4.040 -0.4566  0.3486 -0.3724
    6MOL0     C  707   0.623   1.788   4.017 -0.7592  0.0682 -1.0203
    6MOL0     C  708   0.592   1.837   3.891 -0.0576 -0.2874 -0.1476
    6MOL0     C  709   0.464   1.892   3.867 -0.0345  0.7040 -0.1631
    6MOL0     C  710   0.360   1.899   3.973 -0.2338  0.1537  0.0999
    6MOL0     O  711   0.231   1.950   3.966  0.9700  0.5694  0.6163
    6MOL0     C  712   0.181   2.020   3.848 -0.3426  0.4059  0.9127
    6MOL0     C  713   0.034   2.049   3.872 -0.6597 -0.4565  0.7442
    6MOL0     C  714   0.010   2.146   3.984  0.2895  0.5312  0.0153
    6MOL0     C  715  -0.100   2.243   3.948  1.0037 -0.8929 -0.1304
    6MOL0     C  716  -0.230   2.193   3.911  0.7587 -0.8324  0.3742
    6MOL0     C  717  -0.290   2.089   4.005 -1.5923 -0.4785  0.2263
    6MOL0     C  718  -0.317   2.140   4.145 -0.9042  0.5439  0.6098
    6MOL0     C  719  -0.385   2.033   4.242 -0.1686  0.2434  0.0353
    6MOL0    Cl  720  -0.430   2.108   4.400 -0.0574 -0.0386  0.3325
    6MOL0     C  721   0.398   1.840   4.101  0.0310 -0.0560  0.2842
    6MOL0     C  722   0.527   1.792   4.123 -0.8419  1.0240  1.2463
    6MOL0     O  723   0.672   1.530   4.121 -0.3280  0.0549 -0.1707
    6MOL0     C  724   0.932   1.427   4.147 -0.4907 -0.3895  0.5265
    6MOL0     C  725   1.059   1.373   4.191 -1.3820  0.1794  0.2564
    6MOL0     N  726   1.881   1.420   4.171  0.5488  0.5632 -0.6557
    6MOL0     N  727   1.966   1.375   4.095  0.1488  0.0948  0.5608
    6MOL0     C  728   3.150   0.953   4.112 -0.3919  0.6522 -0.6135
    6MOL0     C  729   3.285   0.932   4.153  0.5384  0.2613 -0.1676
    6MOL0     C  730   3.687   1.012   4.285 -0.4433 -0.0134  0.2313
    6MOL0     C  731   3.739   0.901   4.356  0.3853 -0.4566  0.0464
    6MOL0     C  732   3.865   0.865   4.350 -0.2691  0.0523  0.1301
    6MOL0     C  733   3.952   0.938   4.269 -0.6022 -0.2808  0.0468
    6MOL0     O  734   4.090   0.918   4.255  0.4438  0.1426 -0.3173
    6MOL0     C  735   4.162   0.836   4.347  0.5192  0.6806 -0.0501
    6MOL0     C  736   4.299   0.823   4.289  0.7774  0.2813 -0.0223
    6MOL0     C  737   4.290   0.737   4.161 -0.6470 -0.4257  0.9529
    6MOL0     C  738   4.425   0.722   4.104 -0.1829  0.2215 -0.1397
    6MOL0     C  739   4.540   0.714   4.202  0.3550 -0.5144  0.6068
    6MOL0     C  740   4.629   0.706   4.281 -0.0496  0.8738  0.1153
    6MOL0     C  741   3.910   1.046   4.195 -0.4381 -1.1081 -0.3833
    6MOL0     C  742   3.777   1.080   4.200  0.4546 -0.1699 -0.2315
    6MOL0     H  743   3.285   1.035   4.472  0.0698  3.8399  0.5194
    6MOL0     H  744   3.032   1.083   4.407  1.5715  2.6897  0.0322
    6MOL0     H  745   2.869   0.825   4.205  3.2100 -0.0773  1.1406
    6MOL0     H  746   2.859   0.936   4.335 -0.5218  0.3910 -0.4522
    6MOL0     H  747   2.671   1.066   4.199  1.5527  0.7862  0.9707
    6MOL0     H  748   2.691   0.975   4.065 -3.9404  0.9372  0.0465
    6MOL0     H  749   2.650   0.773   4.242  2.8665  1.3595 -1.0525
    6MOL0     H  750   2.588   0.901   4.337  0.0599 -1.5047  0.6548
    6MOL0     H  751   2.517   0.873   4.039 -1.1799 -1.3264 -1.1441
    6MOL0     H  752   2.422   0.771   4.153 -0.6506 -0.7390 -0.2701
    6MOL0     H  753   2.364   1.000   4.267 -0.6447  2.7750  0.4132
    6MOL0     H  754   2.455   1.076   4.133  0.2698 -2.0829 -5.1257
    6MOL0     H  755   2.275   0.982   3.974 -0.2849  0.9369  0.7295
    6MOL0     H  756   2.226   0.889   4.115  1.0711 -0.6958  0.9935
    6MOL0     H  757   2.130   1.076   4.222 -0.8035  1.3567 -0.0618
    6MOL0     H  758   2.244   1.197   4.142 -2.2910  1.9163  1.2120
    6MOL0     H  759   2.015   1.068   3.990 -0.7493 -0.2704  0.1459
    6MOL0     H  760   2.117   1.209   3.953 -0.8569  1.0544  0.5311
    6MOL0     H  761   1.882   1.101   4.248  1.0452 -0.6943  0.3519
    6MOL0     H  762   1.747   1.263   4.432 -4.0029 -3.7739 -1.3816
    6MOL0     H  763   1.730   1.436   4.384  0.3667 -0.1246  0.2051
    6MOL0     H  764   1.521   1.306   4.397  0.4926  1.6972 -0.0258
    6MOL0     H  765   1.585   1.226   4.238  1.7164  0.4791 -0.7890
    6MOL0     H  766   1.603   1.452   4.139 -1.5088  1.5425 -0.4976
    6MOL0     H  767   1.525   1.524   4.279  2.3094  2.4074 -0.9987
    6MOL0     H  768   1.403   1.319   4.092  1.0970 -2.0077  1.8790
    6MOL0     H  769   1.382   1.493   4.086  1.5430  2.0078  2.7322
    6MOL0     H  770   1.225   1.671   4.175 -1.6138  1.0210 -3.1455
    6MOL0     H  771   0.953   1.852   4.183  3.4687  1.4388  0.5921
    6MOL0     H  772   1.124   1.841   4.133  1.1555 -1.0434  2.4943
    6MOL0     H  773   1.007   1.820   4.013 -1.6737 -1.7363 -0.1310
    6MOL0     H  774   0.672   1.846   3.819  0.5525 -0.3691  0.5075
    6MOL0     H  775   0.451   1.937   3.769  1.7363 -2.3302 -1.9490
    6MOL0     H  776   0.232   2.115   3.831  0.1787 -0.0748 -0.3608
    6MOL0     H  777   0.191   1.948   3.766  3.1993 -0.1242  1.6620
    6MOL0     H  778  -0.004   2.090   3.778  0.7693 -0.1185  0.2888
    6MOL0     H  779  -0.002   1.949   3.898  3.0284 -1.1381  4.2428
    6MOL0     H  780   0.104   2.198   4.003  0.5691  0.2588 -0.5919
    6MOL0     H  781  -0.024   2.096   4.075  2.2679 -0.8571  0.0627
    6MOL0     H  782  -0.129   2.312   4.028  0.4132  0.4380 -1.4381
    6MOL0     H  783  -0.075   2.313   3.867  0.9246  0.2818  0.8298
    6MOL0     H  784  -0.228   2.156   3.808 -0.9084  0.3866 -0.1435
    6MOL0     H  785  -0.290   2.285   3.909  0.1122 -1.2423 -1.4258
    6MOL0     H  786  -0.387   2.062   3.964 -2.1232 -1.5199  2.0637
    6MOL0     H  787  -0.231   1.997   4.007  0.0594  0.5351  0.6088
    6MOL0     H  788  -0.377   2.231   4.150  2.8710  3.2173  0.8030
    6MOL0     H  789  -0.219   2.166   4.186  1.2507  0.1266 -3.6470
    6MOL0     H  790  -0.307   1.959   4.267 -0.8157  0.3336  2.6395
    6MOL0     H  791  -0.472   1.989   4.193  1.1363 -0.8383 -1.4013
    6MOL0     H  792   0.327   1.853   4.182 -0.1600  4.1211 -0.2830
    6MOL0     H  793   0.564   1.749   4.215 -1.5782  0.5392  1.3221
    6MOL0     H  794   0.860   1.346   4.134 -1.5944  0.7063 -0.4051
    6MOL0     H  795   1.078   1.270   4.220 -0.1485  0.9706  2.6040
    6MOL0     H  796   3.115   0.924   4.013  1.3879  0.7423 -1.3092
    6MOL0     H  797   3.364   0.893   4.090  2.9236  0.7865  2.3424
    6MOL0     H  798   3.681   0.846   4.428 -0.7630  2.7555  1.7527
    6MOL0     H  799   3.902   0.786   4.415  0.5162  1.6390  1.6850
    6MOL0     H  800   4.179   0.890   4.441 -0.6837  0.0578  0.5392
    6MOL0     H  801   4.115   0.738   4.350 -0.4036  1.0886 -0.5637
    6MOL0     H  802   4.365   0.780   4.366  1.0177 -0.7137 -0.7641
    6MOL0     H  803   4.332   0.924   4.262 -3.3566  3.0357  3.7942
    6MOL0     H  804   4.234   0.782   4.079  1.9772 -0.2165 -0.8332
    6MOL0     H  805   4.266   0.632   4.180 -0.7354 -0.0520  3.2238
    6MOL0     H  806   4.439   0.796   4.024  0.5615  1.1906  0.8602
    6MOL0     H  807   4.417   0.628   4.048  0.6119 -0.4183  0.7851
    6MOL0     H  808   4.710   0.690   4.350 -0.4150 -1.9173  0.0212
    6MOL0     H  809   3.967   1.101   4.122 -0.8293  1.4320  1.1113
    6MOL0     H  810   3.739   1.156   4.131 -0.8569  0.4595  1.1200
    7MOL0     O  811   6.315  10.175   5.037  0.3360  0.0601 -0.0739
    7MOL0     C  812   6.392  10.116   4.960  0.2183 -0.0142 -0.2936
    7MOL0     O  813   6.385   9.988   4.903  0.2924 -0.1371  0.1335
    7MOL0     C  814   6.284   9.897   4.930  0.0905 -0.8258  0.4598
    7MOL0     C  815   6.159   9.927   5.003  0.1528  0.1785 -0.3965
    7MOL0     C  816   6.062   9.826   5.004 -0.1474  0.2500  0.0536
    7MOL0     C  817   6.084   9.704   4.954  0.4414  0.7196 -0.7644
    7MOL0     O  818   5.981   9.611   4.965  0.6265 -0.1089 -0.9023
    7MOL0     C  819   5.998   9.475   4.917 -0.1250  0.1034 -0.1938
    7MOL0     C  820   5.876   9.385   4.951 -0.4649  0.4709 -0.0254
    7MOL0     C  821   5.768   9.413   4.851 -0.0184  0.1443 -0.8344
    7MOL0     C  822   5.632   9.336   4.878  0.4720  0.3378 -0.0342
    7MOL0     C  823   5.519   9.366   4.771  0.4138  0.0593 -0.4074
    7MOL0     C  824   5.395   9.271   4.795 -0.2599  0.3870 -0.8118
    7MOL0     C  825   5.278   9.290   4.704 -0.5405  0.9458 -0.3342
    7MOL0     C  826   5.164   9.205   4.744 -0.7674 -1.1103 -0.0001
    7MOL0     N  827   5.047   9.260   4.667 -1.6914 -0.7408 -0.0881
    7MOL0     C  828   4.937   9.328   4.717 -0.7984  0.2877  0.0098
    7MOL0     C  829   4.866   9.362   4.603 -0.0149  0.4547 -0.1569
    7MOL0     C  830   4.736   9.434   4.612  0.4270  0.2914  0.4574
    7MOL0     C  831   4.617   9.333   4.627 -0.5555  0.1770  0.2130
    7MOL0     C  832   4.638   9.212   4.710 -0.3050 -0.4263 -0.0930
    7MOL0     C  833   4.516   9.116   4.710  0.0400  0.6167  0.2936
    7MOL0     O  834   4.399   9.191   4.735  0.4779  0.4006 -0.2339
    7MOL0     C  835   4.285   9.118   4.765  0.0556  0.1035  0.8509
    7MOL0     C  836   4.279   8.978   4.767  0.9672 -0.3172 -0.0435
    7MOL0     C  837   4.160   8.906   4.783 -0.3311 -0.6599  0.1082
    7MOL0     C  838   4.182   8.757   4.794  0.2693 -0.5393  0.5626
    7MOL0     C  839   4.031   8.973   4.799 -0.9015  0.0084 -0.8016
    7MOL0     C  840   3.899   8.911   4.809 -0.4755 -0.4524 -1.1832
    7MOL0     O  841   3.796   8.988   4.861  0.2005  0.7475  0.0171
    7MOL0     C  842   3.663   8.963   4.833  0.5992  0.0629  0.0030
    7MOL0     C  843   3.612   8.928   4.706  0.4310 -0.5499 -0.8365
    7MOL0     C  844   3.478   8.902   4.679 -0.0809 -1.0437  0.6414
    7MOL0     C  845   3.396   8.894   4.792  0.8385  0.1257  0.8673
    7MOL0     O  846   3.257   8.866   4.781 -0.8185  0.0990  0.7978
    7MOL0     C  847   3.198   8.800   4.668  0.8769  0.0851  0.1269
    7MOL0     C  848   3.075   8.741   4.735  0.3454 -0.2729  0.2446
    7MOL0     C  849   2.974   8.847   4.791 -0.2673 -0.3970  0.4130
    7MOL0     C  850   2.843   8.781   4.824  0.2486  0.7103  0.2336
    7MOL0     C  851   2.743   8.863   4.906 -0.1459 -0.2615  0.6940
    7MOL0     C  852   2.647   8.770   4.980  0.7056 -0.6655 -0.4722
    7MOL0     C  853   2.567   8.679   4.896 -0.2400  0.1288  0.0363
    7MOL0     C  854   2.486   8.584   4.975 -0.1654  0.2756 -0.7010
    7MOL0    Cl  855   2.358   8.669   5.063  0.1840 -0.0750 -0.2130
    7MOL0     C  856   3.445   8.927   4.925  0.0501  0.3607  0.6153
    7MOL0     C  857   3.575   8.967   4.942  0.6975  0.0648 -0.7105
    7MOL0     O  858   3.891   8.797   4.758  0.2761 -1.0863 -0.3291
    7MOL0     C  859   4.042   9.117   4.823  0.2298  0.2942  0.4232
    7MOL0     C  860   4.169   9.185   4.797  0.4334 -0.2130 -0.2130
    7MOL0     N  861   4.930   9.309   4.488 -0.4726  0.5140  0.3462
    7MOL0     N  862   5.041   9.260   4.526  0.1891  0.4388 -0.0628
    7MOL0     C  863   6.204   9.670   4.895  0.1722  1.1306 -0.5339
    7MOL0     C  864   6.307   9.771   4.887 -0.2630  0.2060  0.4050
    7MOL0     C  865   6.502  10.194   4.908 -0.3353  0.1136 -0.2703
    7MOL0     C  866   6.515  10.329   4.935  0.1510  0.5571 -0.3240
    7MOL0     C  867   6.618  10.398   4.879  0.1633 -0.8034  0.4060
    7MOL0     C  868   6.707  10.347   4.782 -0.4612  0.7871 -0.8708
    7MOL0     O  869   6.796  10.433   4.727 -0.3901 -0.1844 -0.2487
    7MOL0     C  870   6.846  10.409   4.597 -0.5087  0.5405 -0.4904
    7MOL0     C  871   6.900  10.540   4.533 -0.3956  0.6493 -0.3035
    7MOL0     C  872   7.009  10.525   4.412  0.7324 -0.0395  0.0162
    7MOL0     C  873   7.052  10.660   4.354  0.1110 -0.3305 -0.4423
    7MOL0     C  874   7.176  10.623   4.292  0.4059  0.5713  0.5037
    7MOL0     C  875   7.272  10.595   4.236 -0.5834 -0.7056  0.9328
    7MOL0     C  876   6.691  10.210   4.752 -0.5511 -0.0262 -0.3410
    7MOL0     C  877   6.587  10.140   4.812 -0.5558  0.0802 -0.3711
    7MOL0     H  878   6.136  10.027   5.038  0.6085  0.5697 -1.1740
    7MOL0     H  879   5.970   9.861   5.050 -0.0399  0.6011  0.0015
    7MOL0     H  880   6.011   9.473   4.809 -1.6834  0.5364 -0.4217
    7MOL0     H  881   6.081   9.434   4.975 -1.5544 -2.8416 -0.0085
    7MOL0     H  882   5.908   9.281   4.948  2.9278  1.3984 -1.2743
    7MOL0     H  883   5.843   9.410   5.052 -1.2806  0.4648 -0.2858
    7MOL0     H  884   5.748   9.520   4.862 -0.4736  0.0398 -0.6366
    7MOL0     H  885   5.801   9.398   4.748  0.2723  0.3747 -0.7768
    7MOL0     H  886   5.650   9.230   4.857  3.3196  1.1244 -2.1689
    7MOL0     H  887   5.593   9.356   4.979 -0.5608 -0.6294 -0.2311
    7MOL0     H  888   5.476   9.465   4.788 -0.9329 -0.7737  1.3604
    7MOL0     H  889   5.568   9.362   4.673 -0.8442  0.6132 -1.0738
    7MOL0     H  890   5.418   9.166   4.811 -0.3993  0.7011  2.0419
    7MOL0     H  891   5.359   9.305   4.892  2.3927  0.9300  0.0782
    7MOL0     H  892   5.242   9.393   4.708  1.3742  1.6518  0.1901
    7MOL0     H  893   5.299   9.269   4.599 -0.2204  0.0211 -0.0977
    7MOL0     H  894   5.151   9.213   4.852 -2.3200  2.6241 -0.3098
    7MOL0     H  895   5.181   9.101   4.713  0.4788 -0.2611 -2.4334
    7MOL0     H  896   4.918   9.351   4.821 -0.4838  1.1378 -0.1112
    7MOL0     H  897   4.736   9.507   4.693  3.3576  0.4541  0.4024
    7MOL0     H  898   4.725   9.482   4.514  3.8101 -1.8255 -1.1330
    7MOL0     H  899   4.606   9.297   4.524 -1.0272  1.0407 -0.0533
    7MOL0     H  900   4.530   9.390   4.660  0.4974  2.3540 -0.5136
    7MOL0     H  901   4.654   9.245   4.813 -0.5646 -0.8289  0.0828
    7MOL0     H  902   4.727   9.160   4.675  0.7743  1.9938 -1.1240
    7MOL0     H  903   4.517   9.033   4.781 -2.7970  0.3438  0.1008
    7MOL0     H  904   4.513   9.079   4.607 -1.3240  1.5055 -0.0108
    7MOL0     H  905   4.368   8.922   4.743  0.1861 -1.8128  0.3708
    7MOL0     H  906   4.289   8.738   4.804  1.1566  3.0720 -0.4636
    7MOL0     H  907   4.150   8.715   4.890 -1.7724 -2.8180 -0.9983
    7MOL0     H  908   4.127   8.704   4.716  2.0638 -0.3099 -0.9147
    7MOL0     H  909   3.681   8.932   4.623 -0.0309  2.0098 -1.1867
    7MOL0     H  910   3.442   8.875   4.580 -1.3059 -0.8395  1.0271
    7MOL0     H  911   3.184   8.870   4.585  0.5277  2.8641  2.3792
    7MOL0     H  912   3.259   8.720   4.625 -0.1237  0.3763 -1.9966
    7MOL0     H  913   3.024   8.678   4.662 -1.1482  0.3801  0.6828
    7MOL0     H  914   3.112   8.685   4.821  0.2776  1.8655  1.7635
    7MOL0     H  915   2.968   8.927   4.716  1.0426 -2.0240 -1.5543
    7MOL0     H  916   3.013   8.885   4.886  0.1491  0.9678 -0.2791
    7MOL0     H  917   2.795   8.737   4.736  1.5852 -2.0736  0.8036
    7MOL0     H  918   2.870   8.691   4.879 -0.3851 -0.4066 -1.2117
    7MOL0     H  919   2.692   8.930   4.836  0.0522  0.9305  1.6524
    7MOL0     H  920   2.802   8.920   4.979 -0.6200  2.0670 -0.6395
    7MOL0     H  921   2.710   8.723   5.056  1.4269  0.7183 -0.1901
    7MOL0     H  922   2.570   8.823   5.037  1.4109  1.3362 -1.2774
    7MOL0     H  923   2.634   8.617   4.838 -2.1415 -2.2028  0.1947
    7MOL0     H  924   2.506   8.740   4.828  0.5388  0.5161 -0.3282
    7MOL0     H  925   2.546   8.522   5.043 -0.6985 -1.5737 -1.8676
    7MOL0     H  926   2.432   8.516   4.909  0.5057  0.6369 -1.6378
    7MOL0     H  927   3.370   8.906   5.001  1.6080 -2.1745  1.5966
    7MOL0     H  928   3.621   8.979   5.040  1.3494  1.3339 -1.1510
    7MOL0     H  929   3.957   9.179   4.851 -0.1208  0.9986 -2.0172
    7MOL0     H  930   4.166   9.294   4.803  1.0072 -0.0102 -2.7312
    7MOL0     H  931   6.224   9.569   4.861 -1.3778  1.2420 -1.9567
    7MOL0     H  932   6.404   9.743   4.847  1.8868 -0.2065  5.1791
    7MOL0     H  933   6.445  10.383   4.998 -0.0121  1.2369 -1.0579
    7MOL0     H  934   6.621  10.502   4.908 -3.6872 -0.6433  0.7447
    7MOL0     H  935   6.933  10.343   4.601  1.2045  2.7278  1.4938
    7MOL0     H  936   6.771  10.361   4.534 -0.0096  0.5824 -1.1366
    7MOL0     H  937   6.933  10.610   4.611 -3.0627  2.2403 -0.4696
    7MOL0     H  938   6.813  10.591   4.490 -1.5129 -0.1032  0.9781
    7MOL0     H  939   6.968  10.464   4.332 -2.0721  1.5952  0.0483
    7MOL0     H  940   7.101  10.482   4.452  0.7160 -0.5678 -0.4970
    7MOL0     H  941   7.073  10.727   4.437 -1.0565 -0.8033  0.2565
    7MOL0     H  942   6.981  10.708   4.286 -0.3439 -0.9295 -0.4041
    7MOL0     H  943   7.357  10.567   4.176  2.3528  0.8924  3.9728
    7MOL0     H  944   6.763  10.159   4.687  0.9185  1.0116  0.4213
    7MOL0     H  945   6.605  10.042   4.770  0.8586  0.8818 -1.7558
    8MOL0     O  946   3.219   0.792   7.718  0.1383  0.0690 -0.2826
    8MOL0     C  947   3.203   0.695   7.797  0.1099 -0.6816 -0.2440
    8MOL0     O  948   3.109   0.599   7.793  0.6796 -0.9039  0.3781
    8MOL0     C  949   3.015   0.579   7.683 -0.4705  0.3771 -0.3368
    8MOL0     C  950   2.961   0.452   7.677 -0.8851 -0.2650 -0.4596
    8MOL0     C  951   2.898   0.418   7.569 -0.1971 -0.1788  0.5194
    8MOL0     C  952   2.872   0.505   7.466  0.5037  0.5305  0.1415
    8MOL0     O  953   2.795   0.469   7.359  1.0136 -0.2368 -0.7650
    8MOL0     C  954   2.852   0.386   7.261 -0.3098 -0.6477  0.2413
    8MOL0     C  955   2.812   0.234   7.275 -0.0855  0.0071  0.0199
    8MOL0     C  956   2.665   0.200   7.259 -0.3729 -0.6185  0.4479
    8MOL0     C  957   2.606   0.223   7.121 -0.9290  0.2535  0.4737
    8MOL0     C  958   2.465   0.179   7.108  1.0941 -0.8850  0.3312
    8MOL0     C  959   2.414   0.233   6.974  0.7469 -0.2997  0.4695
    8MOL0     C  960   2.255   0.206   6.977 -0.9276 -0.4249 -0.0313
    8MOL0     C  961   2.195   0.260   6.847 -0.0595 -0.1219 -0.6667
    8MOL0     N  962   2.204   0.157   6.740 -0.1959 -0.8261 -0.1775
    8MOL0     C  963   2.194   0.021   6.746 -0.0062  0.3034  0.0563
    8MOL0     C  964   2.189  -0.020   6.612  0.3579  0.2428 -0.7551
    8MOL0     C  965   2.161  -0.163   6.559 -0.4822 -0.2722 -0.7332
    8MOL0     C  966   2.037  -0.227   6.624  0.1086 -0.0655  0.1753
    8MOL0     C  967   1.897  -0.152   6.607  0.1251  0.2483 -0.0766
    8MOL0     C  968   1.853  -0.119   6.466  1.0014  0.3362  0.0524
    8MOL0     O  969   1.760  -0.222   6.430 -0.1972  0.4979 -0.7790
    8MOL0     C  970   1.646  -0.172   6.378 -0.2858  0.7342  0.1846
    8MOL0     C  971   1.561  -0.087   6.444 -1.4411 -0.3987 -0.2907
    8MOL0     C  972   1.441  -0.055   6.398  0.0837 -0.6929  0.0684
    8MOL0     C  973   1.359   0.041   6.492 -0.4741  1.2649 -0.4568
    8MOL0     C  974   1.391  -0.107   6.270  0.5328 -0.0641  0.8769
    8MOL0     C  975   1.259  -0.081   6.211 -0.7226  1.3082 -0.6600
    8MOL0     O  976   1.190   0.013   6.269  0.5247  0.7130  1.1428
    8MOL0     C  977   1.081   0.052   6.196  0.7424  0.2298 -0.5960
    8MOL0     C  978   1.095   0.151   6.107 -0.5248  0.1299 -0.8314
    8MOL0     C  979   0.991   0.186   6.035  0.5975 -1.2566  0.7659
    8MOL0     C  980   0.861   0.129   6.056 -0.3219 -0.0073  0.4049
    8MOL0     O  981   0.752   0.163   5.981 -0.4766 -0.0515 -0.6144
    8MOL0     C  982   0.641   0.071   5.966  0.5280  0.2003 -0.5573
    8MOL0     C  983   0.530   0.111   5.868  0.9875 -0.0261 -0.2612
    8MOL0     C  984   0.436  -0.012   5.845 -0.3680 -0.7189  0.8435
    8MOL0     C  985   0.330  -0.007   5.950  0.2601  1.4246 -0.1601
    8MOL0     C  986   0.228  -0.135   5.965 -0.1112 -0.9201  0.8085
    8MOL0     C  987   0.148  -0.161   5.837  0.6957  0.1788  0.4854
    8MOL0     C  988   0.051  -0.279   5.840 -0.3037 -0.1238  0.7806
    8MOL0     C  989   0.115  -0.416   5.848  0.0649 -0.0389  0.4014
    8MOL0    Cl  990  -0.019  -0.520   5.869  0.1310  0.0241  0.1584
    8MOL0     C  991   0.847   0.033   6.157  0.1336  0.8287 -0.4350
    8MOL0     C  992   0.960  -0.008   6.231  0.3793 -0.0503 -0.2069
    8MOL0     O  993   1.235  -0.131   6.101 -0.4345  0.1324 -0.0281
    8MOL0     C  994   1.486  -0.193   6.207  1.3628 -0.6929  0.7201
    8MOL0     C  995   1.609  -0.232   6.260  0.0898  0.0352  1.1969
    8MOL0     N  996   2.215   0.098   6.547 -0.4425  0.1628  0.2644
    8MOL0     N  997   2.222   0.201   6.618 -0.2631  0.3956 -0.2806
    8MOL0     C  998   2.907   0.638   7.478 -0.0503 -0.5812  0.3519
    8MOL0     C  999   2.982   0.679   7.590  0.3170 -0.2326  0.4126
    8MOL0     C 1000   3.285   0.688   7.921 -0.8045  0.1326  0.7808
    8MOL0     C 1001   3.326   0.806   7.980  0.7899  0.3989 -0.7302
    8MOL0     C 1002   3.389   0.806   8.104 -0.8370  0.9332  1.0875
    8MOL0     C 1003   3.428   0.690   8.166  0.0031  0.4668  0.6528
    8MOL0     O 1004   3.500   0.676   8.282 -0.9305  0.8030 -0.0423
    8MOL0     C 1005   3.556   0.782   8.358  0.6542 -0.8398  0.0937
    8MOL0     C 1006   3.689   0.854   8.303 -0.1435 -0.2286 -0.2439
    8MOL0     C 1007   3.800   0.748   8.306 -0.0693  1.0911  0.0562
    8MOL0     C 1008   3.941   0.805   8.317  0.3208  0.0947  0.7819
    8MOL0     C 1009   3.969   0.898   8.424 -0.5690  0.0355 -0.4899
    8MOL0     C 1010   4.007   0.968   8.519  0.4367  0.1629  0.7700
    8MOL0     C 1011   3.390   0.566   8.107 -0.3497  0.9189  0.0917
    8MOL0     C 1012   3.311   0.568   7.986 -0.7533  0.5742 -1.2092
    8MOL0     H 1013   2.979   0.378   7.754  3.0099 -2.1590 -2.8125
    8MOL0     H 1014   2.876   0.311   7.567 -2.6263  0.2782 -0.7109
    8MOL0     H 1015   2.817   0.423   7.165  2.2521  1.4132  0.0071
    8MOL0     H 1016   2.960   0.392   7.251 -0.5235 -0.6111 -3.1363
    8MOL0     H 1017   2.869   0.182   7.198  1.8308  0.2677  1.1870
    8MOL0     H 1018   2.839   0.200   7.375 -4.1109 -1.6872  0.7361
    8MOL0     H 1019   2.659   0.098   7.296 -3.4628  0.5640  3.7779
    8MOL0     H 1020   2.601   0.257   7.327  0.3216  2.0486 -0.9658
    8MOL0     H 1021   2.607   0.329   7.094 -0.7428  0.0367 -0.4026
    8MOL0     H 1022   2.662   0.176   7.040  0.8454  1.5365  0.9142
    8MOL0     H 1023   2.462   0.070   7.116 -1.9562 -1.0757 -1.6741
    8MOL0     H 1024   2.419   0.240   7.186  2.2139 -1.6129  1.6036
    8MOL0     H 1025   2.439   0.339   6.964  6.5556 -1.4276 -0.3091
    8MOL0     H 1026   2.456   0.168   6.896 -2.0345 -1.0957 -0.5047
    8MOL0     H 1027   2.236   0.099   6.988  2.8897 -1.4506 -1.7478
    8MOL0     H 1028   2.214   0.255   7.066 -1.2363 -1.7373  0.5768
    8MOL0     H 1029   2.240   0.354   6.815 -1.4354  0.5253 -0.7635
    8MOL0     H 1030   2.088   0.271   6.865 -0.0003 -0.6984  0.0968
    8MOL0     H 1031   2.171  -0.045   6.829  2.7659 -1.6664 -0.5728
    8MOL0     H 1032   2.156  -0.159   6.450  3.4021  0.3612 -1.0338
    8MOL0     H 1033   2.251  -0.221   6.584  0.8277  1.5297 -1.0367
    8MOL0     H 1034   2.072  -0.260   6.722  3.3687  0.1955 -0.8020
    8MOL0     H 1035   2.030  -0.325   6.576  2.0897 -1.4718  2.5201
    8MOL0     H 1036   1.906  -0.056   6.659  2.3671  0.1193 -0.1595
    8MOL0     H 1037   1.817  -0.210   6.654 -2.4718  2.1785 -1.8264
    8MOL0     H 1038   1.935  -0.112   6.394  1.9426  0.6156  1.1210
    8MOL0     H 1039   1.820  -0.014   6.459  3.5175  1.1973  0.0005
    8MOL0     H 1040   1.593  -0.055   6.543  0.3676 -1.6633 -0.4102
    8MOL0     H 1041   1.252   0.019   6.483  0.0069 -1.3031 -0.6363
    8MOL0     H 1042   1.379   0.015   6.596 -0.8361  0.8320 -0.4879
    8MOL0     H 1043   1.383   0.146   6.478  0.6171  1.2123  0.8749
    8MOL0     H 1044   1.192   0.196   6.092 -0.7844  0.0372 -3.0923
    8MOL0     H 1045   1.018   0.263   5.963  1.5994 -3.0290 -0.8618
    8MOL0     H 1046   0.686  -0.025   5.941 -1.0356 -0.6524 -0.2532
    8MOL0     H 1047   0.595   0.056   6.064 -1.3023  1.2634 -1.1829
    8MOL0     H 1048   0.481   0.201   5.907  5.5004  3.0807 -0.9704
    8MOL0     H 1049   0.582   0.136   5.775 -0.3320 -0.2295 -1.0815
    8MOL0     H 1050   0.499  -0.099   5.867  1.7107  0.2106 -1.0567
    8MOL0     H 1051   0.406  -0.015   5.740  0.1239  2.2355  0.5325
    8MOL0     H 1052   0.380  -0.017   6.047  4.1299  0.7239 -2.0147
    8MOL0     H 1053   0.278   0.089   5.946  0.2311  1.3624 -1.9165
    8MOL0     H 1054   0.157  -0.134   6.048 -3.0595 -0.6863 -1.5175
    8MOL0     H 1055   0.300  -0.214   5.982  2.1438  0.5711 -1.1267
    8MOL0     H 1056   0.090  -0.070   5.818  1.5541  0.6825  0.2245
    8MOL0     H 1057   0.225  -0.178   5.762 -2.1461 -0.3392 -2.5104
    8MOL0     H 1058  -0.014  -0.286   5.752  0.2704  0.3405  0.3139
    8MOL0     H 1059  -0.004  -0.257   5.933 -1.6157  2.4542 -0.4790
    8MOL0     H 1060   0.193  -0.433   5.922  0.4618  0.4268  0.1011
    8MOL0     H 1061   0.165  -0.427   5.751 -0.0817  0.3872  0.2708
    8MOL0     H 1062   0.755  -0.020   6.180 -1.0327  2.0296 -2.1424
    8MOL0     H 1063   0.954  -0.083   6.309  0.5360  1.3029  1.1663
    8MOL0     H 1064   1.470  -0.235   6.108 -3.8328 -2.1333  1.8455
    8MOL0     H 1065   1.677  -0.301   6.211 -2.0582 -0.2390 -1.7570
    8MOL0     H 1066   2.869   0.713   7.409 -2.1068 -2.7283 -1.0092
    8MOL0     H 1067   3.019   0.778   7.612 -0.6549  0.4386 -0.8068
    8MOL0     H 1068   3.293   0.902   7.940  1.8848  1.9663  1.9091
    8MOL0     H 1069   3.411   0.903   8.149  1.2498 -0.4776  3.4111
    8MOL0     H 1070   3.478   0.857   8.376  1.2934 -0.4922  1.5680
    8MOL0     H 1071   3.575   0.741   8.458  1.2995 -0.9505 -0.0712
    8MOL0     H 1072   3.710   0.947   8.356  1.2162 -0.1751 -0.8300
    8MOL0     H 1073   3.653   0.884   8.205  0.1355 -3.4823 -1.4779
    8MOL0     H 1074   3.798   0.672   8.227  1.7379  0.9626  0.0881
    8MOL0     H 1075   3.786   0.692   8.399  1.4480 -0.2947 -0.4941
    8MOL0     H 1076   3.963   0.853   8.221  0.6989 -0.7246  0.4468
    8MOL0     H 1077   4.017   0.727   8.313  0.5638  0.3314  0.8225
    8MOL0     H 1078   4.036   1.043   8.589 -1.6600  1.2621  0.5431
    8MOL0     H 1079   3.437   0.477   8.147  0.1199  1.9106  1.8510
    8MOL0     H 1080   3.281   0.472   7.945  1.1528 -0.7806  0.3992
    9MOL0     O 1081   8.280   6.275   7.408  0.3994 -0.7214 -0.5502
    9MOL0     C 1082   8.165   6.231   7.423  0.6522 -0.2924 -0.2807
    9MOL0     O 1083   8.092   6.240   7.538  0.5308  0.3986 -0.6937
    9MOL0     C 1084   8.151   6.294   7.651  0.6867 -0.2426  0.2975
    9MOL0     C 1085   8.274   6.247   7.707  1.4051 -0.1388  1.2446
    9MOL0     C 1086   8.323   6.302   7.827  0.1434  0.2283 -0.3507
    9MOL0     C 1087   8.251   6.405   7.889 -0.1593 -0.2435 -0.0596
    9MOL0     O 1088   8.279   6.456   8.016  0.1246 -0.1300 -0.5265
    9MOL0     C 1089   8.408   6.430   8.077 -0.4418 -0.0569 -0.3454
    9MOL0     C 1090   8.412   6.499   8.216  0.0566 -0.0866  0.1777
    9MOL0     C 1091   8.551   6.525   8.272  0.4562  0.4335 -0.5589
    9MOL0     C 1092   8.566   6.560   8.423  0.2014 -0.3826  0.3882
    9MOL0     C 1093   8.702   6.606   8.457 -1.0544 -0.4689 -0.0272
    9MOL0     C 1094   8.703   6.690   8.597 -0.1393 -0.2626  0.8733
    9MOL0     C 1095   8.663   6.612   8.721  0.3548  0.2438 -0.2037
    9MOL0     C 1096   8.634   6.686   8.844 -0.1475  0.1341 -0.7756
    9MOL0     N 1097   8.502   6.756   8.836 -0.1878  0.2621  0.1262
    9MOL0     C 1098   8.379   6.705   8.847  0.9287 -0.3799 -1.0648
    9MOL0     C 1099   8.298   6.808   8.814  0.2208  0.0133 -0.1590
    9MOL0     C 1100   8.144   6.786   8.807 -0.5163  0.0308 -0.0920
    9MOL0     C 1101   8.111   6.731   8.676 -0.2672 -0.2393 -0.9520
    9MOL0     C 1102   8.127   6.831   8.562  0.0274  0.2539 -0.6314
    9MOL0     C 1103   8.102   6.783   8.426  0.1944 -0.3929 -0.2802
    9MOL0     O 1104   7.967   6.733   8.442 -0.3254  0.1329  0.5815
    9MOL0     C 1105   7.914   6.673   8.336 -0.0578  1.2259 -0.4624
    9MOL0     C 1106   7.776   6.691   8.318  0.1965 -0.7452 -0.5517
    9MOL0     C 1107   7.708   6.639   8.215 -0.3516 -0.2384 -0.1371
    9MOL0     C 1108   7.553   6.666   8.215 -0.8588 -0.0111  0.3734
    9MOL0     C 1109   7.781   6.556   8.114 -0.0841 -0.1340 -0.9244
    9MOL0     C 1110   7.712   6.489   8.005 -0.9451  0.3188  0.4877
    9MOL0     O 1111   7.783   6.392   7.947 -0.2074 -0.3061  0.7340
    9MOL0     C 1112   7.730   6.301   7.857 -0.2805  0.1354 -0.3392
    9MOL0     C 1113   7.825   6.206   7.830 -0.0736 -0.7113 -0.1087
    9MOL0     C 1114   7.800   6.108   7.738  0.3898  0.8851 -0.0206
    9MOL0     C 1115   7.675   6.078   7.692  0.3140 -0.8528 -0.0695
    9MOL0     O 1116   7.641   5.968   7.617  0.4255  0.1645 -0.0817
    9MOL0     C 1117   7.706   5.848   7.639 -0.6134 -0.0192 -0.1373
    9MOL0     C 1118   7.641   5.760   7.541 -1.7226  0.3333 -0.7397
    9MOL0     C 1119   7.502   5.716   7.587 -1.0397 -0.4658  0.6239
    9MOL0     C 1120   7.431   5.632   7.474 -0.7995 -0.6354  1.0947
    9MOL0     C 1121   7.292   5.597   7.512  0.6636  0.5795  0.5297
    9MOL0     C 1122   7.282   5.463   7.584  0.1069  0.3846  0.3738
    9MOL0     C 1123   7.139   5.425   7.603  0.7358 -0.7072  0.2047
    9MOL0     C 1124   7.087   5.464   7.744 -1.0511 -0.1513  0.1983
    9MOL0    Cl 1125   7.199   5.398   7.874  0.2570 -0.4791  0.0305
    9MOL0     C 1126   7.574   6.166   7.730  0.6615  0.6208  0.5150
    9MOL0     C 1127   7.598   6.280   7.802  0.8548 -0.4376 -0.0616
    9MOL0     O 1128   7.598   6.524   7.973 -0.0661  0.1072  0.3002
    9MOL0     C 1129   7.919   6.537   8.134  0.6610  0.5447  0.2568
    9MOL0     C 1130   7.992   6.593   8.250  0.6795 -0.7716 -0.1642
    9MOL0     N 1131   8.372   6.918   8.775  0.3566  0.2104  0.3368
    9MOL0     N 1132   8.493   6.885   8.803 -0.2722 -0.3541 -0.1839
    9MOL0     C 1133   8.132   6.441   7.830  0.9976 -0.0071 -0.0268
    9MOL0     C 1134   8.079   6.398   7.713  0.6009  0.8301  0.8379
    9MOL0     C 1135   8.119   6.148   7.306 -0.4708 -0.0901  0.0142
    9MOL0     C 1136   8.196   6.119   7.187 -0.1768 -0.2138 -0.1828
    9MOL0     C 1137   8.135   6.049   7.077  0.4087  0.2326  0.3220
    9MOL0     C 1138   8.007   6.007   7.082  0.3041  0.3341  0.3498
    9MOL0     O 1139   7.950   5.919   6.987 -0.5460 -0.6307 -1.1601
    9MOL0     C 1140   8.005   5.913   6.860  0.6798  0.5925  0.1049
    9MOL0     C 1141   7.905   5.851   6.756 -0.4678  0.3122 -0.5682
    9MOL0     C 1142   7.771   5.941   6.738 -0.6858  0.8444  0.5027
    9MOL0     C 1143   7.676   5.916   6.860  0.9066 -0.1965  0.3289
    9MOL0     C 1144   7.553   6.002   6.857  0.9111  0.1735  0.4894
    9MOL0     C 1145   7.454   6.070   6.840  0.0454  0.1584  0.5662
    9MOL0     C 1146   7.924   6.037   7.198  1.1811  0.1778  0.2714
    9MOL0     C 1147   7.977   6.112   7.306  0.1224  0.3329  0.4805
    9MOL0     H 1148   8.325   6.165   7.657  0.2873  0.4472 -0.9688
    9MOL0     H 1149   8.409   6.251   7.868  0.4385 -1.7292 -3.1264
    9MOL0     H 1150   8.421   6.325   8.104  1.1498  0.3420  0.5254
    9MOL0     H 1151   8.491   6.451   8.009 -1.4446  0.0318 -1.5978
    9MOL0     H 1152   8.360   6.593   8.197  2.7986  1.3895 -0.6735
    9MOL0     H 1153   8.358   6.447   8.296  3.7572 -3.6368  0.7654
    9MOL0     H 1154   8.606   6.431   8.262 -3.5180 -1.9974 -1.6614
    9MOL0     H 1155   8.597   6.602   8.209 -0.1320  0.6654 -0.7093
    9MOL0     H 1156   8.494   6.642   8.435  1.4938  0.9188 -0.4868
    9MOL0     H 1157   8.522   6.486   8.490  1.6406 -1.6980 -0.0650
    9MOL0     H 1158   8.774   6.524   8.462 -1.5263 -1.1024 -2.2955
    9MOL0     H 1159   8.745   6.671   8.380  0.2797 -1.8539 -0.4956
    9MOL0     H 1160   8.803   6.733   8.602 -0.4153  0.8758 -1.8432
    9MOL0     H 1161   8.644   6.781   8.585  0.0977 -0.4728 -3.2456
    9MOL0     H 1162   8.569   6.561   8.697 -0.3853  0.8449  1.2840
    9MOL0     H 1163   8.742   6.538   8.738  1.4837  1.8389  2.0508
    9MOL0     H 1164   8.710   6.762   8.863 -0.6023  0.2123  0.9519
    9MOL0     H 1165   8.627   6.616   8.929 -1.8963  0.3867 -0.6750
    9MOL0     H 1166   8.355   6.601   8.866  1.2249  0.1915  3.6853
    9MOL0     H 1167   8.111   6.719   8.887 -2.6172 -0.0863 -0.9905
    9MOL0     H 1168   8.099   6.882   8.832 -0.4066  0.2866 -0.8470
    9MOL0     H 1169   8.007   6.710   8.701  0.6609 -0.8355  3.1479
    9MOL0     H 1170   8.165   6.638   8.654  1.5741  0.2667  1.0554
    9MOL0     H 1171   8.226   6.877   8.569  0.1696 -0.2036  0.4188
    9MOL0     H 1172   8.050   6.908   8.571 -0.5674 -0.3751 -0.3129
    9MOL0     H 1173   8.169   6.699   8.402 -0.7653 -0.6980 -2.0029
    9MOL0     H 1174   8.106   6.858   8.347 -1.9179 -1.7254 -1.7393
    9MOL0     H 1175   7.724   6.752   8.391  1.1978 -0.2063 -0.2685
    9MOL0     H 1176   7.488   6.596   8.163 -1.3780  1.5431 -1.1579
    9MOL0     H 1177   7.506   6.683   8.313  0.5741  1.7471  0.8184
    9MOL0     H 1178   7.541   6.762   8.164 -0.8520 -0.8645 -1.2978
    9MOL0     H 1179   7.923   6.211   7.876  1.6048 -1.2351 -3.3158
    9MOL0     H 1180   7.884   6.045   7.710 -0.8234 -2.8517  3.7734
    9MOL0     H 1181   7.811   5.861   7.611 -0.0348 -1.5381  1.1711
    9MOL0     H 1182   7.691   5.810   7.740 -4.6193  3.3882  0.8351
    9MOL0     H 1183   7.638   5.812   7.445 -0.0903 -2.0864 -2.2001
    9MOL0     H 1184   7.700   5.668   7.531  2.1012  2.4618  0.3736
    9MOL0     H 1185   7.446   5.807   7.610 -1.3565  0.0313 -1.8306
    9MOL0     H 1186   7.498   5.648   7.672 -1.3777 -2.5487 -0.9805
    9MOL0     H 1187   7.427   5.707   7.394  2.1795 -1.5420 -0.0353
    9MOL0     H 1188   7.488   5.552   7.427 -0.1226  0.0580  0.7161
    9MOL0     H 1189   7.222   5.600   7.428  2.1250  0.9685 -0.7245
    9MOL0     H 1190   7.248   5.671   7.579 -1.5133  1.5644 -1.7937
    9MOL0     H 1191   7.329   5.383   7.526 -1.5563  0.7156 -1.5274
    9MOL0     H 1192   7.333   5.473   7.680 -1.4432  1.5522  1.1229
    9MOL0     H 1193   7.111   5.321   7.586 -0.0219 -1.1087  3.2120
    9MOL0     H 1194   7.078   5.483   7.534  1.6456  0.8311  0.6322
    9MOL0     H 1195   6.989   5.424   7.770 -0.9836 -2.2073 -2.2314
    9MOL0     H 1196   7.086   5.573   7.743  2.1331  0.0830  3.0142
    9MOL0     H 1197   7.474   6.152   7.692  0.0978  0.6898  1.9149
    9MOL0     H 1198   7.517   6.349   7.823  2.7360  1.3122  1.7669
    9MOL0     H 1199   7.981   6.470   8.075  0.3028  3.1672 -3.4401
    9MOL0     H 1200   8.096   6.571   8.270  0.5680  0.7749  2.5449
    9MOL0     H 1201   8.080   6.515   7.890 -0.6654  1.2460 -2.8086
    9MOL0     H 1202   7.981   6.424   7.674  0.2999  0.8454  1.5783
    9MOL0     H 1203   8.300   6.150   7.191 -0.2511 -0.1131  1.6759
    9MOL0     H 1204   8.198   6.019   6.994 -0.9098  0.9781 -1.0065
    9MOL0     H 1205   8.021   6.011   6.815 -0.6274 -0.6964 -3.4571
    9MOL0     H 1206   8.105   5.868   6.863  1.3641  2.0594  0.6318
    9MOL0     H 1207   7.878   5.746   6.769 -0.4174  0.1630 -1.6204
    9MOL0     H 1208   7.966   5.851   6.665  1.3501  0.1946  0.5850
    9MOL0     H 1209   7.722   5.918   6.643 -0.4672 -0.7390  0.7419
    9MOL0     H 1210   7.799   6.046   6.728  1.3279  0.5662  2.3425
    9MOL0     H 1211   7.732   5.934   6.953  0.0520  2.8752  0.3462
    9MOL0     H 1212   7.639   5.813   6.861  0.2807  0.0173  1.5650
    9MOL0     H 1213   7.362   6.120   6.818 -0.1647  0.2669  1.5996
    9MOL0     H 1214   7.820   6.008   7.199  0.9253  0.7145 -2.7176
    9MOL0     H 1215   7.908   6.139   7.385  0.6499  1.2627  0.6339
   10MOL0     O 1216   3.846  10.208   1.093  0.1091 -0.5665  0.5864
   10MOL0     C 1217   3.818  10.332   1.095 -0.4739 -1.0758  0.2537
   10MOL0     O 1218   3.703  10.392   1.059 -0.0082  0.2175 -0.5875
   10MOL0     C 1219   3.594  10.330   0.997 -0.2502  0.8670 -0.0252
   10MOL0     C 1220   3.551  10.200   1.031 -0.3503  0.4759 -0.6679
   10MOL0     C 1221   3.438  10.151   0.961  0.2814 -0.0853 -0.3083
   10MOL0     C 1222   3.367  10.222   0.865 -0.6278 -0.4935 -0.0322
   10MOL0     O 1223   3.260  10.153   0.810 -0.6508 -1.1098  0.1811
   10MOL0     C 1224   3.173  10.228   0.724  0.3533 -0.4108 -0.5111
   10MOL0     C 1225   3.047  10.146   0.682 -0.2402  0.1676 -0.3894
   10MOL0     C 1226   2.984  10.218   0.564 -0.0413  0.4986 -0.3415
   10MOL0     C 1227   2.846  10.153   0.552  0.3341  0.1319  0.8209
   10MOL0     C 1228   2.769  10.234   0.456  0.7358 -0.4209 -0.1473
   10MOL0     C 1229   2.637  10.165   0.419 -0.3888  0.0698  0.7657
   10MOL0     C 1230   2.543  10.258   0.330  0.0446  0.6781  0.2749
   10MOL0     C 1231   2.398  10.219   0.355 -0.1532 -0.4014  0.1090
   10MOL0     N 1232   2.319  10.257   0.240 -0.7864 -0.4990  0.3783
   10MOL0     C 1233   2.209  10.345   0.231  0.8320  0.8889  0.2168
   10MOL0     C 1234   2.161  10.349   0.106 -0.6608  0.5668  0.1355
   10MOL0     C 1235   2.045  10.427   0.060 -0.4978 -0.2280 -0.0217
   10MOL0     C 1236   1.904  10.392   0.102 -0.2814 -0.7107 -0.0303
   10MOL0     C 1237   1.874  10.431   0.251  0.3919 -0.4107 -0.4767
   10MOL0     C 1238   1.719  10.443   0.274 -1.1522 -0.3502 -0.2127
   10MOL0     O 1239   1.697  10.517   0.393 -0.8421 -0.2701  0.3497
   10MOL0     C 1240   1.563  10.512   0.426  0.1379  0.8027 -0.2035
   10MOL0     C 1241   1.536  10.518   0.563 -0.9202 -0.2907  0.4838
   10MOL0     C 1242   1.409  10.517   0.626  0.1267 -0.6316  0.4354
   10MOL0     C 1243   1.388  10.559   0.772  0.0088  0.5262  0.0299
   10MOL0     C 1244   1.290  10.489   0.544  0.0672 -0.0106  0.1867
   10MOL0     C 1245   1.150  10.473   0.587  1.1911  0.1952  0.4003
   10MOL0     O 1246   1.109  10.508   0.715 -0.2326  1.1713  0.3702
   10MOL0     C 1247   0.972  10.500   0.732 -0.2519  0.0524 -0.2907
   10MOL0     C 1248   0.901  10.620   0.705  0.5505  0.0722 -0.2209
   10MOL0     C 1249   0.763  10.619   0.727  0.4951  0.0267 -0.5871
   10MOL0     C 1250   0.705  10.504   0.780  0.3472 -0.4724 -0.8453
   10MOL0     O 1251   0.573  10.502   0.805  0.3208 -0.1612 -0.0076
   10MOL0     C 1252   0.491  10.505   0.677 -0.1328 -0.1325 -0.2161
   10MOL0     C 1253   0.341  10.494   0.716 -0.3618  0.2302  0.5450
   10MOL0     C 1254   0.263  10.453   0.595 -0.5490 -0.1973  0.0792
   10MOL0     C 1255   0.117  10.435   0.634 -0.1593  0.8887  0.1412
   10MOL0     C 1256   0.052  10.346   0.521  0.3755  0.1474 -0.0716
   10MOL0     C 1257  -0.076  10.285   0.567  0.1617  0.0613 -0.1374
   10MOL0     C 1258  -0.157  10.230   0.450  0.1396  0.6232  0.3852
   10MOL0     C 1259  -0.201  10.328   0.334 -0.6688  0.2428 -0.7722
   10MOL0    Cl 1260  -0.270  10.480   0.399  0.1410  0.2492 -0.1217
   10MOL0     C 1261   0.770  10.387   0.796 -0.0349  0.2419  0.3851
   10MOL0     C 1262   0.908  10.383   0.770 -0.1448  0.2963 -0.4303
   10MOL0     O 1263   1.079  10.409   0.504  0.2023 -0.0800 -0.9688
   10MOL0     C 1264   1.324  10.481   0.400  1.5969 -0.1651  0.8912
   10MOL0     C 1265   1.452  10.493   0.345  1.3716 -1.3240  0.6879
   10MOL0     N 1266   2.238  10.257   0.042 -0.2795  0.2254  0.3201
   10MOL0     N 1267   2.329  10.204   0.116  0.0123  0.5510 -0.4516
   10MOL0     C 1268   3.419  10.349   0.832  0.1939  0.4699  0.6444
   10MOL0     C 1269   3.535  10.403   0.887  1.2600 -0.0307 -0.3513
   10MOL0     C 1270   3.934  10.418   1.144  0.4480  0.1487  0.4592
   10MOL0     C 1271   4.045  10.361   1.208 -0.2269  0.4807 -0.2302
   10MOL0     C 1272   4.149  10.444   1.256  0.0249 -0.3283 -0.0672
   10MOL0     C 1273   4.129  10.584   1.257 -0.5446  0.2055 -0.5222
   10MOL0     O 1274   4.236  10.656   1.308 -0.4764  0.1304  0.3651
   10MOL0     C 1275   4.362  10.651   1.233  0.1466  0.0771  1.1993
   10MOL0     C 1276   4.461  10.735   1.313 -0.2452  0.0565  0.1937
   10MOL0     C 1277   4.512  10.669   1.436  0.0613  0.6410  0.4139
   10MOL0     C 1278   4.579  10.767   1.535  0.3011  0.1552 -0.1206
   10MOL0     C 1279   4.590  10.710   1.666  0.3034  0.7987 -0.0849
   10MOL0     C 1280   4.598  10.686   1.783 -0.9926  0.7004  0.3351
   10MOL0     C 1281   4.017  10.642   1.203 -0.3448 -0.2045 -0.3182
   10MOL0     C 1282   3.919  10.554   1.145 -0.4460  0.0500  0.4189
   10MOL0     H 1283   3.596  10.132   1.103  1.3982  2.4179  0.1866
   10MOL0     H 1284   3.387  10.061   0.993 -1.9143  1.4664  0.8303
   10MOL0     H 1285   3.132  10.310   0.783  0.9555  0.1866 -0.9059
   10MOL0     H 1286   3.229  10.265   0.637  0.0825 -0.9132 -0.9055
   10MOL0     H 1287   3.072  10.042   0.656  2.0832  0.3294  0.9601
   10MOL0     H 1288   2.979  10.149   0.768  1.2081  1.9054  0.7647
   10MOL0     H 1289   2.976  10.323   0.595  1.3371  0.2599  0.9251
   10MOL0     H 1290   3.058  10.207   0.484  2.3373  0.3193  1.7525
   10MOL0     H 1291   2.862  10.052   0.515 -3.3898  0.2990 -1.8370
   10MOL0     H 1292   2.785  10.142   0.642 -3.8922 -0.3548 -1.7984
   10MOL0     H 1293   2.740  10.327   0.505 -0.3852 -0.7765 -0.1236
   10MOL0     H 1294   2.824  10.243   0.361 -1.1528 -0.6945 -1.3106
   10MOL0     H 1295   2.670  10.072   0.372  2.2903  0.7350  1.1714
   10MOL0     H 1296   2.575  10.151   0.508 -3.7769 -0.6483 -1.5162
   10MOL0     H 1297   2.550  10.361   0.364 -0.8552  0.2826  1.7319
   10MOL0     H 1298   2.570  10.245   0.224 -2.0015  1.4749 -0.3797
   10MOL0     H 1299   2.373  10.260   0.454  0.5085 -3.1187  1.4970
   10MOL0     H 1300   2.381  10.113   0.374  1.6841 -0.9554 -1.0676
   10MOL0     H 1301   2.166  10.401   0.313  1.8000 -0.2754  1.5722
   10MOL0     H 1302   2.068  10.531   0.083  2.9863 -0.6638 -0.9475
   10MOL0     H 1303   2.044  10.415  -0.048 -0.6678  0.7875 -0.1405
   10MOL0     H 1304   1.893  10.285   0.081  0.0906 -0.8555  0.5073
   10MOL0     H 1305   1.839  10.452   0.037  2.6529  3.5275  0.4980
   10MOL0     H 1306   1.927  10.525   0.266 -0.5139 -0.0464  0.5006
   10MOL0     H 1307   1.906  10.350   0.317 -1.8670 -2.1034 -1.3132
   10MOL0     H 1308   1.661  10.352   0.255 -2.4135  0.4257 -0.1398
   10MOL0     H 1309   1.685  10.510   0.194 -0.9071 -0.0432 -0.0603
   10MOL0     H 1310   1.626  10.519   0.625  0.6053  0.6300 -1.6279
   10MOL0     H 1311   1.468  10.626   0.806 -0.5020 -0.0967  2.6605
   10MOL0     H 1312   1.303  10.624   0.793  1.2193  2.2987 -0.2752
   10MOL0     H 1313   1.382  10.465   0.827 -1.7651 -1.3806 -3.1195
   10MOL0     H 1314   0.956  10.701   0.659  0.5675  1.5861  2.2875
   10MOL0     H 1315   0.695  10.698   0.699  0.7332 -0.3640 -2.3952
   10MOL0     H 1316   0.500  10.601   0.626 -1.9626 -1.2704 -2.8970
   10MOL0     H 1317   0.516  10.419   0.615 -0.6684  0.4372 -1.2458
   10MOL0     H 1318   0.342  10.406   0.781 -1.7607 -1.3804 -1.4859
   10MOL0     H 1319   0.301  10.589   0.753 -2.1447 -0.3512  0.2061
   10MOL0     H 1320   0.296  10.356   0.556 -3.3610 -0.4321 -1.9756
   10MOL0     H 1321   0.264  10.537   0.525 -0.3336 -2.4856 -2.8294
   10MOL0     H 1322   0.110  10.380   0.728  0.2640 -4.6763 -2.6731
   10MOL0     H 1323   0.064  10.529   0.651  0.9967  1.3638  1.3797
   10MOL0     H 1324   0.119  10.263   0.498  0.3743  0.6920 -2.3644
   10MOL0     H 1325   0.057  10.408   0.430  1.1858 -0.1772 -0.2611
   10MOL0     H 1326  -0.051  10.211   0.644  0.1095 -1.0136 -1.1285
   10MOL0     H 1327  -0.139  10.359   0.617  0.3612 -0.1075  0.3664
   10MOL0     H 1328  -0.252  10.194   0.490 -0.8075  3.2186  0.6733
   10MOL0     H 1329  -0.103  10.150   0.399  1.5648  2.6196 -1.4906
   10MOL0     H 1330  -0.280  10.274   0.280 -1.1856 -3.2134  2.9245
   10MOL0     H 1331  -0.116  10.343   0.267  0.6463 -3.6143 -0.2303
   10MOL0     H 1332   0.711  10.309   0.845 -0.3799  0.5136  0.4004
   10MOL0     H 1333   0.977  10.307   0.806  2.8822  3.5822  1.2561
   10MOL0     H 1334   1.250  10.469   0.322  2.9646  1.4486 -0.7322
   10MOL0     H 1335   1.458  10.503   0.237 -1.3417  0.6131  0.6420
   10MOL0     H 1336   3.384  10.417   0.754  1.0510  1.9966  1.5337
   10MOL0     H 1337   3.577  10.494   0.846  0.7630 -0.1620 -1.1850
   10MOL0     H 1338   4.057  10.254   1.220  2.0502  0.4168 -2.3566
   10MOL0     H 1339   4.235  10.398   1.303 -0.4949 -0.1587  1.1064
   10MOL0     H 1340   4.400  10.549   1.235  2.8272  0.9468 -0.5786
   10MOL0     H 1341   4.348  10.683   1.129 -1.0984 -0.5068  1.1688
   10MOL0     H 1342   4.409  10.826   1.343  0.0531  0.2354  0.1770
   10MOL0     H 1343   4.549  10.772   1.258 -0.5893 -1.0530 -1.1636
   10MOL0     H 1344   4.587  10.593   1.413  0.9620  1.3700  0.8765
   10MOL0     H 1345   4.426  10.626   1.487 -3.0672  2.6538 -2.6706
   10MOL0     H 1346   4.521  10.859   1.541  2.4359  1.5294  0.9594
   10MOL0     H 1347   4.681  10.791   1.503 -0.2119  3.0553  0.1557
   10MOL0     H 1348   4.617  10.685   1.888  2.0905  0.9770 -0.1327
   10MOL0     H 1349   4.003  10.750   1.206 -2.1362 -0.4041  0.2100
   10MOL0     H 1350   3.823  10.595   1.116  0.3422  0.6097 -1.5892
   11MOL0     O 1351   2.832   2.377   2.624 -0.0269 -0.3216  0.3014
   11MOL0     C 1352   2.868   2.469   2.552 -0.1082 -0.8441 -0.0497
   11MOL0     O 1353   2.786   2.545   2.466 -0.1046 -0.1424  0.6211
   11MOL0     C 1354   2.652   2.511   2.467  0.0807  0.4661 -0.8991
   11MOL0     C 1355   2.592   2.531   2.344  0.1042  0.0695 -0.5172
   11MOL0     C 1356   2.454   2.481   2.322 -0.3868  0.5866 -0.1022
   11MOL0     C 1357   2.389   2.423   2.424  0.1725 -0.3128 -0.7656
   11MOL0     O 1358   2.265   2.370   2.397 -0.5012 -0.1397 -0.7714
   11MOL0     C 1359   2.203   2.278   2.479  0.3990  0.0798 -0.1972
   11MOL0     C 1360   2.079   2.229   2.417  0.3820  0.2906  0.1737
   11MOL0     C 1361   1.992   2.148   2.516 -0.0109 -0.7616  0.3736
   11MOL0     C 1362   1.866   2.089   2.454 -0.2311 -0.3258  0.0644
   11MOL0     C 1363   1.806   1.973   2.542 -1.5848 -0.4142 -0.0895
   11MOL0     C 1364   1.678   1.926   2.474  0.1092  0.1007 -0.4668
   11MOL0     C 1365   1.606   1.827   2.566 -0.0806  0.2014  0.2209
   11MOL0     C 1366   1.472   1.800   2.499  0.0779 -0.1917  0.1996
   11MOL0     N 1367   1.396   1.677   2.529  0.4746 -0.4906  0.0018
   11MOL0     C 1368   1.339   1.661   2.649 -0.0591 -0.4241  0.2381
   11MOL0     C 1369   1.309   1.528   2.654  0.0302  0.1420 -0.6642
   11MOL0     C 1370   1.261   1.451   2.775 -0.6934 -0.2093 -0.0773
   11MOL0     C 1371   1.113   1.467   2.796 -0.9350 -0.2587  0.1083
   11MOL0     C 1372   1.088   1.601   2.867 -0.2474  0.2482 -0.8677
   11MOL0     C 1373   0.935   1.617   2.898 -0.5648  0.6107 -0.1129
   11MOL0     O 1374   0.904   1.752   2.947 -0.1848 -0.3707  0.4704
   11MOL0     C 1375   0.774   1.766   2.975  0.1211  0.3141 -0.4602
   11MOL0     C 1376   0.674   1.683   2.930 -0.3541  0.5073  0.5627
   11MOL0     C 1377   0.539   1.708   2.956  0.3563  0.3688  0.5124
   11MOL0     C 1378   0.437   1.624   2.876  0.4162 -0.2591 -0.0349
   11MOL0     C 1379   0.505   1.807   3.048  0.3814 -0.1084  0.3447
   11MOL0     C 1380   0.360   1.855   3.066 -0.3975 -0.0104 -0.6060
   11MOL0     O 1381   0.267   1.768   3.014 -0.2020 -0.5520 -0.3940
   11MOL0     C 1382   0.143   1.773   3.075 -0.7245 -0.1720  1.1883
   11MOL0     C 1383   0.054   1.872   3.046 -0.6468  0.1738  0.4497
   11MOL0     C 1384  -0.074   1.864   3.099  0.0578 -0.0595  0.4309
   11MOL0     C 1385  -0.126   1.746   3.161 -0.8677 -0.6336 -0.3334
   11MOL0     O 1386  -0.258   1.745   3.183  0.4446  0.3339  0.2978
   11MOL0     C 1387  -0.340   1.626   3.225  0.1784  0.4105  0.1595
   11MOL0     C 1388  -0.461   1.601   3.129  0.3650 -0.3950 -0.8021
   11MOL0     C 1389  -0.555   1.492   3.182  0.8021 -0.8694  0.3771
   11MOL0     C 1390  -0.672   1.478   3.086 -0.3176  0.1994 -0.5632
   11MOL0     C 1391  -0.780   1.392   3.161  0.9595  0.7101  0.2505
   11MOL0     C 1392  -0.900   1.392   3.070  0.5221 -0.3980 -0.1258
   11MOL0     C 1393  -0.882   1.311   2.948 -0.4682 -0.6630 -1.1821
   11MOL0     C 1394  -1.008   1.310   2.860  0.3201  0.4928 -0.1666
   11MOL0    Cl 1395  -1.061   1.139   2.826 -0.3435  0.0196  0.0891
   11MOL0     C 1396  -0.034   1.647   3.197  0.4843 -0.8424 -0.4159
   11MOL0     C 1397   0.098   1.667   3.160 -0.5328 -0.5967  0.6253
   11MOL0     O 1398   0.333   1.954   3.127  0.5058 -0.2067  0.2468
   11MOL0     C 1399   0.604   1.889   3.097  0.2253  0.4968  0.1964
   11MOL0     C 1400   0.733   1.879   3.054  0.4759  0.6540  1.4823
   11MOL0     N 1401   1.337   1.472   2.527  0.0545 -0.7763  0.8408
   11MOL0     N 1402   1.396   1.563   2.455 -0.0188 -0.2901  0.5351
   11MOL0     C 1403   2.450   2.409   2.550 -0.1681 -0.5335 -0.3675
   11MOL0     C 1404   2.576   2.461   2.576  0.8811  1.3652  0.0422
   11MOL0     C 1405   3.004   2.517   2.578 -0.2142 -0.1953  0.2369
   11MOL0     C 1406   3.050   2.649   2.543 -1.0112 -0.1759  0.1421
   11MOL0     C 1407   3.183   2.687   2.566 -0.1827 -0.1047  0.4998
   11MOL0     C 1408   3.275   2.611   2.641  0.0960  0.2829  0.2541
   11MOL0     O 1409   3.396   2.670   2.664  0.3382 -0.0947 -0.4413
   11MOL0     C 1410   3.506   2.591   2.716 -0.5596 -0.3337 -0.1486
   11MOL0     C 1411   3.549   2.644   2.852  0.2800 -1.0632 -0.0682
   11MOL0     C 1412   3.671   2.589   2.925  0.0119 -0.2588  0.6309
   11MOL0     C 1413   3.696   2.663   3.061  0.4543 -0.1780  0.0360
   11MOL0     C 1414   3.807   2.622   3.128 -0.6446  0.3280  0.0538
   11MOL0     C 1415   3.905   2.594   3.193 -0.4858 -0.1374 -0.6651
   11MOL0     C 1416   3.223   2.488   2.684  0.2561 -0.5313  0.3629
   11MOL0     C 1417   3.092   2.442   2.658 -0.9935 -0.1839 -0.0429
   11MOL0     H 1418   2.647   2.584   2.268 -0.5117 -0.6585 -1.5004
   11MOL0     H 1419   2.408   2.488   2.224 -3.3045  1.9977  1.2579
   11MOL0     H 1420   2.272   2.196   2.503  4.6190  3.4288  0.3642
   11MOL0     H 1421   2.175   2.326   2.573 -0.8761 -3.8424  1.6506
   11MOL0     H 1422   2.030   2.319   2.380  0.3484  0.1130 -0.2253
   11MOL0     H 1423   2.107   2.173   2.327  2.3383  0.9563  0.3190
   11MOL0     H 1424   2.055   2.067   2.553  0.5399  0.7408  3.0316
   11MOL0     H 1425   1.976   2.216   2.601  2.7697  1.7290 -0.8971
   11MOL0     H 1426   1.790   2.168   2.445 -1.5381 -1.4797  0.7106
   11MOL0     H 1427   1.892   2.052   2.354 -0.4243  0.9687 -0.4894
   11MOL0     H 1428   1.864   1.881   2.555 -2.0049 -0.3963  2.6750
   11MOL0     H 1429   1.790   2.007   2.645  1.5771 -2.1402  1.1268
   11MOL0     H 1430   1.614   2.010   2.447 -0.8216 -0.4315  0.0359
   11MOL0     H 1431   1.696   1.871   2.380 -0.0603  1.3462 -1.2475
   11MOL0     H 1432   1.670   1.740   2.586  0.4692  0.4990 -0.2206
   11MOL0     H 1433   1.580   1.877   2.660  3.2563 -0.1493  1.4872
   11MOL0     H 1434   1.473   1.800   2.390 -0.8820 -2.0945  0.1367
   11MOL0     H 1435   1.412   1.886   2.530  0.7644  0.5676 -0.5287
   11MOL0     H 1436   1.335   1.739   2.725  4.3111 -2.2356  2.7004
   11MOL0     H 1437   1.277   1.344   2.757 -1.6409 -0.4550  0.4748
   11MOL0     H 1438   1.319   1.480   2.863  0.4948 -0.2862 -0.8083
   11MOL0     H 1439   1.081   1.380   2.854  0.9714 -0.5194  0.8486
   11MOL0     H 1440   1.071   1.468   2.695  3.6394 -1.4495 -2.1037
   11MOL0     H 1441   1.114   1.684   2.801 -0.5019  0.0996 -1.1522
   11MOL0     H 1442   1.137   1.597   2.965 -1.6315  0.3026 -0.1502
   11MOL0     H 1443   0.901   1.537   2.964  2.4381 -0.5807  0.1819
   11MOL0     H 1444   0.896   1.598   2.797  0.2565 -1.1076 -0.1608
   11MOL0     H 1445   0.700   1.600   2.865  0.1466  0.3772  0.9279
   11MOL0     H 1446   0.392   1.551   2.944  2.5130 -1.6500 -0.0338
   11MOL0     H 1447   0.364   1.687   2.825 -0.0731 -2.4198 -2.2099
   11MOL0     H 1448   0.466   1.556   2.795 -0.6150 -0.5446 -0.1734
   11MOL0     H 1449   0.072   1.944   2.966  0.0843  0.2101  0.6406
   11MOL0     H 1450  -0.144   1.942   3.073  0.5903 -0.4113 -2.3937
   11MOL0     H 1451  -0.270   1.542   3.234  0.6990  1.0363  2.5932
   11MOL0     H 1452  -0.377   1.641   3.326  1.1970 -1.1939  0.8098
   11MOL0     H 1453  -0.510   1.694   3.099  0.2003  0.4445  1.8304
   11MOL0     H 1454  -0.415   1.565   3.036 -3.5468 -0.6392 -2.8314
   11MOL0     H 1455  -0.593   1.516   3.282 -0.1288 -1.4733  0.1870
   11MOL0     H 1456  -0.520   1.388   3.178 -2.8572 -2.2380 -2.6658
   11MOL0     H 1457  -0.718   1.572   3.056  0.3429  0.8900  0.5077
   11MOL0     H 1458  -0.642   1.425   2.995 -2.3145  0.6783 -1.5587
   11MOL0     H 1459  -0.817   1.445   3.249 -0.9198  0.6803 -0.4737
   11MOL0     H 1460  -0.736   1.296   3.193  2.4967  1.8527  1.7695
   11MOL0     H 1461  -0.983   1.342   3.121  1.8817 -1.7563  0.8709
   11MOL0     H 1462  -0.923   1.496   3.049 -0.1716 -0.7922 -1.4683
   11MOL0     H 1463  -0.851   1.209   2.971  0.5051 -0.2616 -0.6565
   11MOL0     H 1464  -0.805   1.353   2.882 -1.0340  0.4874 -1.1455
   11MOL0     H 1465  -0.984   1.350   2.761 -1.3393  2.5956  0.2054
   11MOL0     H 1466  -1.095   1.368   2.892  0.9815  1.2788  0.2166
   11MOL0     H 1467  -0.062   1.561   3.257 -3.2807 -0.5164 -1.4584
   11MOL0     H 1468   0.176   1.600   3.195  0.4273  0.9176  1.5279
   11MOL0     H 1469   0.584   1.970   3.167  1.3783  0.9133  0.0725
   11MOL0     H 1470   0.809   1.952   3.082 -0.7260  1.6100  2.3416
   11MOL0     H 1471   2.391   2.369   2.631 -0.7751  0.2523 -0.4086
   11MOL0     H 1472   2.619   2.465   2.675  2.3051  1.9715 -0.5765
   11MOL0     H 1473   2.993   2.731   2.500  3.0382  1.7024 -2.2328
   11MOL0     H 1474   3.218   2.784   2.533 -3.7281  1.3444  0.5318
   11MOL0     H 1475   3.476   2.486   2.727 -2.4125  0.2676  1.0196
   11MOL0     H 1476   3.591   2.595   2.648  1.1327  2.1099  1.9304
   11MOL0     H 1477   3.466   2.643   2.923  1.5686 -0.5926  1.5072
   11MOL0     H 1478   3.570   2.751   2.849  2.2835 -1.3670  1.3832
   11MOL0     H 1479   3.760   2.604   2.863 -0.7875  0.9635 -0.2508
   11MOL0     H 1480   3.650   2.483   2.945 -0.5966 -0.0898  0.8976
   11MOL0     H 1481   3.608   2.637   3.121  1.7826 -1.1520  1.6506
   11MOL0     H 1482   3.685   2.771   3.044 -3.5374 -0.6511 -1.7263
   11MOL0     H 1483   3.999   2.582   3.243  0.8829  1.9275 -2.5220
   11MOL0     H 1484   3.287   2.415   2.733 -1.0352 -2.9699 -1.3730
   11MOL0     H 1485   3.062   2.340   2.683 -1.4119 -0.7914 -2.6911
   12MOL0     O 1486  10.969   9.789  11.115 -0.7797 -0.4447  0.2283
   12MOL0     C 1487  10.970   9.874  11.027 -0.7059  0.3551 -0.9276
   12MOL0     O 1488  10.864   9.937  10.981 -0.0154  0.3383 -0.7644
   12MOL0     C 1489  10.735   9.892  11.027  0.0185  0.0708  0.0334
   12MOL0     C 1490  10.677   9.770  10.983  0.2434  0.6177 -0.1647
   12MOL0     C 1491  10.541   9.731  11.006  0.1792 -0.5007 -0.9704
   12MOL0     C 1492  10.462   9.811  11.087 -0.3334 -0.2650 -0.1776
   12MOL0     O 1493  10.336   9.761  11.118 -0.0664  0.9370  0.2469
   12MOL0     C 1494  10.228   9.855  11.132 -0.6793  0.2889 -0.3789
   12MOL0     C 1495  10.101   9.781  11.093  0.2161 -0.1480  0.1323
   12MOL0     C 1496   9.992   9.873  11.034  0.1651  0.5262 -0.5630
   12MOL0     C 1497   9.939   9.982  11.116 -0.9014 -0.2114 -0.1428
   12MOL0     C 1498   9.829  10.055  11.045 -0.4407  0.1186 -1.0161
   12MOL0     C 1499   9.763  10.157  11.138 -1.0537  0.1086 -0.1730
   12MOL0     C 1500   9.667  10.089  11.238  0.0440 -0.4086 -0.6294
   12MOL0     C 1501   9.601  10.194  11.331 -0.6399  0.5673  0.3812
   12MOL0     N 1502   9.496  10.136  11.410  0.5538 -0.8610  0.2502
   12MOL0     C 1503   9.395  10.055  11.368 -0.3980 -0.1388 -0.3975
   12MOL0     C 1504   9.336  10.019  11.488  0.6525  1.0774 -0.7533
   12MOL0     C 1505   9.208   9.934  11.522 -0.2506 -0.1323 -0.8093
   12MOL0     C 1506   9.244   9.787  11.531 -1.1870  0.0980  0.4200
   12MOL0     C 1507   9.127   9.697  11.556 -0.5188 -0.4842  0.5692
   12MOL0     C 1508   9.151   9.610  11.678  0.1385 -0.4037  0.9221
   12MOL0     O 1509   9.169   9.690  11.799  0.6717 -0.0425  0.1804
   12MOL0     C 1510   9.297   9.670  11.857  0.2302 -0.0140  0.6031
   12MOL0     C 1511   9.329   9.560  11.931 -0.1415 -0.2838 -0.0440
   12MOL0     C 1512   9.448   9.535  12.001  0.0852 -0.1161  0.4663
   12MOL0     C 1513   9.472   9.398  12.067  0.4743  0.1665  0.3423
   12MOL0     C 1514   9.545   9.642  11.990  0.0620  1.2785  0.7199
   12MOL0     C 1515   9.687   9.616  12.037  0.1657 -0.0814 -0.4915
   12MOL0     O 1516   9.760   9.724  12.038 -0.8603  0.1224  0.0472
   12MOL0     C 1517   9.891   9.714  12.094  0.0969  0.8504  0.2812
   12MOL0     C 1518   9.909   9.723  12.229  0.5436  0.5233  0.6835
   12MOL0     C 1519  10.042   9.719  12.270  0.1635  0.7367 -0.0208
   12MOL0     C 1520  10.154   9.724  12.186  0.2252 -0.2672  0.4653
   12MOL0     O 1521  10.274   9.716  12.248  0.2397 -0.0846  0.2627
   12MOL0     C 1522  10.385   9.766  12.171  0.0479  0.4701 -0.3620
   12MOL0     C 1523  10.509   9.742  12.248  0.2307 -0.3856 -0.0122
   12MOL0     C 1524  10.608   9.639  12.193 -1.0516  0.1809  0.3162
   12MOL0     C 1525  10.743   9.684  12.243  0.6315  0.1903 -0.0295
   12MOL0     C 1526  10.835   9.553  12.255 -0.8262 -0.6200 -1.0139
   12MOL0     C 1527  10.971   9.587  12.322 -0.0763 -1.0367 -0.3954
   12MOL0     C 1528  11.065   9.462  12.307 -0.4530  0.2880  0.1709
   12MOL0     C 1529  11.157   9.477  12.186  1.1126  0.5063 -0.0485
   12MOL0    Cl 1530  11.312   9.393  12.216 -0.0108 -0.0330 -0.0036
   12MOL0     C 1531  10.133   9.725  12.050 -0.4447  0.0284 -0.8281
   12MOL0     C 1532  10.005   9.718  12.008  0.2300  0.3313  0.4182
   12MOL0     O 1533   9.725   9.505  12.067 -0.6425  0.1167  0.0965
   12MOL0     C 1534   9.512   9.764  11.938 -0.1198 -0.0874 -1.2665
   12MOL0     C 1535   9.385   9.783  11.875 -0.1814 -0.3610 -0.6579
   12MOL0     N 1536   9.410  10.069  11.590  0.0551 -0.4539  0.6633
   12MOL0     N 1537   9.507  10.143  11.542  0.2135  0.5457  0.2451
   12MOL0     C 1538  10.512   9.936  11.135  0.5603  0.7091  0.2059
   12MOL0     C 1539  10.646   9.973  11.103  0.6769 -0.2158  0.2167
   12MOL0     C 1540  11.089   9.921  10.962  0.2132 -0.9048  0.5377
   12MOL0     C 1541  11.227   9.894  11.019 -0.1529  0.2716 -0.3640
   12MOL0     C 1542  11.342   9.938  10.957  0.2970 -0.4197  0.5543
   12MOL0     C 1543  11.328  10.012  10.844  0.0272 -0.2425 -0.6711
   12MOL0     O 1544  11.430  10.079  10.774 -0.5222 -0.0521 -0.0650
   12MOL0     C 1545  11.569  10.043  10.787  0.7238 -0.4600  0.1343
   12MOL0     C 1546  11.644  10.128  10.682  0.1139  0.4607 -0.5375
   12MOL0     C 1547  11.602  10.068  10.551 -0.5578  0.1770 -0.1095
   12MOL0     C 1548  11.707   9.967  10.495  0.3697  0.1804  0.7659
   12MOL0     C 1549  11.843  10.001  10.500 -0.9043  0.5597  0.4027
   12MOL0     C 1550  11.961  10.025  10.499 -0.3793  0.4883  0.2565
   12MOL0     C 1551  11.205  10.042  10.790  0.3463 -1.0666 -0.5466
   12MOL0     C 1552  11.086   9.998  10.842  0.4217 -0.4715  0.6638
   12MOL0     H 1553  10.735   9.696  10.928  1.1251  1.0958  0.0988
   12MOL0     H 1554  10.518   9.628  10.981 -1.1503 -0.7917  1.1816
   12MOL0     H 1555  10.218   9.909  11.227  0.6606  3.3488 -1.8466
   12MOL0     H 1556  10.242   9.935  11.058 -1.3502  1.0722  0.3091
   12MOL0     H 1557  10.122   9.702  11.020  1.4716  1.0487 -0.8713
   12MOL0     H 1558  10.065   9.721  11.176 -1.7971  0.4777 -0.2437
   12MOL0     H 1559  10.035   9.922  10.946  0.7642  1.9405  0.4889
   12MOL0     H 1560   9.912   9.803  11.007  1.0956 -0.1193 -1.7472
   12MOL0     H 1561   9.904   9.930  11.206 -0.4596 -1.3455 -0.6024
   12MOL0     H 1562  10.018  10.050  11.149  0.2327 -3.0196  3.6519
   12MOL0     H 1563   9.863  10.108  10.956  0.6038  0.9826 -0.1363
   12MOL0     H 1564   9.755   9.979  11.020  1.1654 -1.4712 -1.1227
   12MOL0     H 1565   9.846  10.210  11.186 -2.3407  0.1784  2.1075
   12MOL0     H 1566   9.708  10.216  11.065  1.1838 -0.1394 -2.2063
   12MOL0     H 1567   9.591  10.030  11.187 -2.7515 -0.7944  3.5114
   12MOL0     H 1568   9.728  10.024  11.303  0.1789  1.1214  0.8353
   12MOL0     H 1569   9.560  10.278  11.275 -0.8114  0.6462  0.6293
   12MOL0     H 1570   9.688  10.226  11.390  1.6044  0.6942 -2.7243
   12MOL0     H 1571   9.365  10.047  11.264 -0.6105  1.2515 -0.4566
   12MOL0     H 1572   9.183   9.961  11.625  3.1668  0.1317  0.0534
   12MOL0     H 1573   9.126   9.954  11.452 -1.7597 -0.4539  0.7768
   12MOL0     H 1574   9.331   9.775  11.597  1.9619 -0.1069 -3.4082
   12MOL0     H 1575   9.287   9.763  11.433  1.0225  1.5682  0.9589
   12MOL0     H 1576   9.115   9.631  11.469  2.6316 -0.6455  0.1419
   12MOL0     H 1577   9.040   9.763  11.564 -0.3963 -0.1244 -0.6922
   12MOL0     H 1578   9.245   9.557  11.661 -0.7568 -2.7673  2.7824
   12MOL0     H 1579   9.078   9.528  11.680  0.6487 -0.9398 -0.9104
   12MOL0     H 1580   9.258   9.480  11.914 -0.5100  0.4447 -2.2528
   12MOL0     H 1581   9.505   9.408  12.171 -0.5594  2.3880  0.5036
   12MOL0     H 1582   9.385   9.331  12.062  1.5481 -1.3657  1.4026
   12MOL0     H 1583   9.542   9.338  12.009  1.0331  1.0597  0.0811
   12MOL0     H 1584   9.828   9.722  12.301  1.3364 -1.4710  1.6480
   12MOL0     H 1585  10.058   9.720  12.378 -1.0588 -0.3445  0.1920
   12MOL0     H 1586  10.396   9.706  12.080 -1.2772  0.0643 -0.2800
   12MOL0     H 1587  10.373   9.873  12.150 -2.0378  0.6829  1.5349
   12MOL0     H 1588  10.563   9.836  12.263 -0.1716  0.2343 -2.1550
   12MOL0     H 1589  10.477   9.703  12.345 -0.4199 -2.8137 -1.1268
   12MOL0     H 1590  10.601   9.635  12.084  0.8197 -0.5921  0.1889
   12MOL0     H 1591  10.582   9.543  12.239  1.0814  1.3791  4.5985
   12MOL0     H 1592  10.776   9.772  12.187 -5.1844  3.1956  0.4977
   12MOL0     H 1593  10.726   9.724  12.343  0.9940  2.2193 -0.7151
   12MOL0     H 1594  10.847   9.512  12.154  2.0168  1.9547 -1.8968
   12MOL0     H 1595  10.782   9.478  12.313 -0.2372 -0.3901 -0.1489
   12MOL0     H 1596  11.016   9.673  12.271 -0.2838 -0.2407  0.7222
   12MOL0     H 1597  10.961   9.608  12.429 -0.6436 -1.6017 -0.3331
   12MOL0     H 1598  11.005   9.371  12.310 -0.0126 -0.0697 -1.3620
   12MOL0     H 1599  11.132   9.460  12.394 -1.9064 -1.7303  1.3477
   12MOL0     H 1600  11.175   9.580  12.156  0.0177  0.5357 -0.6760
   12MOL0     H 1601  11.106   9.430  12.101  0.3986  1.8480 -0.3825
   12MOL0     H 1602  10.212   9.733  11.976  0.3799 -1.6931 -0.1853
   12MOL0     H 1603   9.986   9.738  11.903  1.9509  2.7128  0.4621
   12MOL0     H 1604   9.579   9.850  11.939 -0.6237  0.3362 -2.2747
   12MOL0     H 1605   9.362   9.885  11.847  0.1701 -0.1493 -0.1978
   12MOL0     H 1606  10.447   9.998  11.196 -0.5722 -0.6472  0.4172
   12MOL0     H 1607  10.682  10.057  11.160  0.1318  0.4157 -0.3567
   12MOL0     H 1608  11.223   9.837  11.111 -0.9352  0.6794 -0.1282
   12MOL0     H 1609  11.438   9.919  11.004 -0.3157 -1.3162  1.4874
   12MOL0     H 1610  11.605  10.070  10.887 -0.3434  3.4344 -0.3666
   12MOL0     H 1611  11.580   9.940  10.754 -1.5105 -0.4990 -0.5999
   12MOL0     H 1612  11.752  10.117  10.698 -0.1710  0.4552  1.6919
   12MOL0     H 1613  11.604  10.230  10.681 -0.1649  0.4083 -3.1553
   12MOL0     H 1614  11.623  10.151  10.484  0.5368  0.5816  0.6916
   12MOL0     H 1615  11.501  10.027  10.541  0.8366 -3.2607 -1.9616
   12MOL0     H 1616  11.684   9.956  10.389  1.7822 -1.8649  0.6058
   12MOL0     H 1617  11.687   9.866  10.534 -1.3342 -1.0448 -2.8049
   12MOL0     H 1618  12.060  10.063  10.486  0.9420 -2.9568 -0.7840
   12MOL0     H 1619  11.212  10.101  10.699  0.5236  0.3699  0.3706
   12MOL0     H 1620  11.001  10.014  10.775  1.2428 -0.0456 -0.3057
   13MOL0     O 1621   0.664   2.421   4.521  0.0481 -0.2681  0.0883
   13MOL0     C 1622   0.636   2.479   4.420 -0.3298 -0.2805  0.6829
   13MOL0     O 1623   0.720   2.490   4.307  0.3581 -0.1438 -0.2383
   13MOL0     C 1624   0.844   2.444   4.286 -0.7362 -1.4016  0.5392
   13MOL0     C 1625   0.934   2.538   4.225  0.5954 -1.6083  0.3780
   13MOL0     C 1626   1.074   2.499   4.211  0.1538  0.0458 -0.7663
   13MOL0     C 1627   1.120   2.372   4.261  0.9575 -0.1469  0.3260
   13MOL0     O 1628   1.244   2.321   4.243 -0.3587  1.0117  0.1899
   13MOL0     C 1629   1.334   2.312   4.351 -0.2149 -0.1104  1.4706
   13MOL0     C 1630   1.479   2.322   4.307 -0.2401  0.3685 -0.5877
   13MOL0     C 1631   1.515   2.220   4.202  0.2051  0.3127 -1.0511
   13MOL0     C 1632   1.666   2.189   4.194 -0.4407  0.7316 -0.2100
   13MOL0     C 1633   1.708   2.093   4.077 -0.2456  0.5166  0.5589
   13MOL0     C 1634   1.863   2.099   4.046  0.0979  0.0070 -0.2919
   13MOL0     C 1635   1.884   2.011   3.924  0.4055  0.1116 -0.3219
   13MOL0     C 1636   2.029   1.968   3.896 -0.4803 -0.5840  0.6183
   13MOL0     N 1637   2.093   1.913   4.016 -0.2603 -0.3402  0.5051
   13MOL0     C 1638   2.049   1.796   4.072  0.1756  0.1605 -0.0756
   13MOL0     C 1639   2.122   1.789   4.188 -0.1802 -0.2707 -0.6179
   13MOL0     C 1640   2.095   1.680   4.286 -0.1281 -0.2207 -0.2908
   13MOL0     C 1641   1.959   1.701   4.364  0.3432  0.0151 -0.2712
   13MOL0     C 1642   1.976   1.795   4.487 -0.0206  0.8926 -0.0261
   13MOL0     C 1643   1.981   1.944   4.456 -0.2699  0.8438 -0.4774
   13MOL0     O 1644   1.981   2.019   4.572 -0.4471  0.0074 -0.5700
   13MOL0     C 1645   1.866   2.080   4.607  0.3178  0.7470 -0.9398
   13MOL0     C 1646   1.880   2.200   4.669 -0.4912 -0.0789 -0.1894
   13MOL0     C 1647   1.773   2.272   4.714 -0.8131  0.7696 -0.4362
   13MOL0     C 1648   1.816   2.395   4.775 -0.3070  0.2639  0.5941
   13MOL0     C 1649   1.641   2.227   4.684 -0.1461  0.0935 -0.0122
   13MOL0     C 1650   1.523   2.308   4.714 -0.0502  0.5942 -0.1764
   13MOL0     O 1651   1.403   2.243   4.687 -0.3547 -0.4315 -0.3220
   13MOL0     C 1652   1.284   2.307   4.729 -0.3899 -0.5624 -0.1179
   13MOL0     C 1653   1.281   2.391   4.846  0.2373  0.4154  0.0467
   13MOL0     C 1654   1.164   2.466   4.874 -0.4952 -0.5985 -0.5770
   13MOL0     C 1655   1.049   2.444   4.793  0.7279 -0.2807 -0.5991
   13MOL0     O 1656   0.934   2.500   4.838  0.1843  0.0363 -0.1391
   13MOL0     C 1657   0.812   2.472   4.772 -0.2409 -0.1761 -0.1434
   13MOL0     C 1658   0.692   2.543   4.845  0.4259 -0.3523 -0.1619
   13MOL0     C 1659   0.683   2.514   4.995  0.0757 -0.1075  0.8618
   13MOL0     C 1660   0.533   2.553   5.033 -0.4641 -0.6893  0.0734
   13MOL0     C 1661   0.509   2.517   5.178 -0.4768  0.1504  0.2961
   13MOL0     C 1662   0.363   2.534   5.230 -0.2084 -0.2485 -0.0992
   13MOL0     C 1663   0.329   2.435   5.337 -0.2885 -0.4067 -0.0152
   13MOL0     C 1664   0.291   2.308   5.263  0.0058 -0.4794  0.4948
   13MOL0    Cl 1665   0.193   2.212   5.388 -0.1825  0.1215  0.5102
   13MOL0     C 1666   1.054   2.350   4.687  0.5323 -0.3287 -0.0793
   13MOL0     C 1667   1.173   2.285   4.658 -0.5326 -0.8217  0.9677
   13MOL0     O 1668   1.537   2.421   4.752 -0.7463  0.3398 -0.2535
   13MOL0     C 1669   1.626   2.102   4.612  0.1605 -0.4085 -0.4288
   13MOL0     C 1670   1.736   2.029   4.586  0.1163  0.4357  0.7101
   13MOL0     N 1671   2.201   1.900   4.203  0.7044  0.5098 -0.0026
   13MOL0     N 1672   2.189   1.978   4.096 -0.7271  1.0613  0.1965
   13MOL0     C 1673   1.024   2.291   4.319 -0.0802 -0.2681  0.6062
   13MOL0     C 1674   0.891   2.324   4.330 -0.4637 -0.0179  0.4663
   13MOL0     C 1675   0.510   2.554   4.427  0.3472  0.7459 -0.0736
   13MOL0     C 1676   0.462   2.629   4.319  1.4076  0.5150 -0.6165
   13MOL0     C 1677   0.348   2.708   4.327  0.7878 -0.2206  0.0780
   13MOL0     C 1678   0.268   2.718   4.441 -0.1977  0.0958 -0.3634
   13MOL0     O 1679   0.157   2.800   4.462  0.0012  0.1390  0.2638
   13MOL0     C 1680   0.071   2.828   4.347  0.6006 -0.0877 -0.3507
   13MOL0     C 1681  -0.009   2.701   4.308  0.0820 -0.2579  0.1243
   13MOL0     C 1682  -0.123   2.733   4.215  0.1497  0.0658 -0.3927
   13MOL0     C 1683  -0.204   2.606   4.183 -0.0780  0.2587  0.0167
   13MOL0     C 1684  -0.316   2.616   4.091 -0.8496 -0.3860 -1.0233
   13MOL0     C 1685  -0.421   2.617   4.035 -0.0614  0.2027 -0.1217
   13MOL0     C 1686   0.311   2.639   4.548 -0.0093  0.4663  0.6869
   13MOL0     C 1687   0.426   2.558   4.545  0.2396 -0.3265  0.5423
   13MOL0     H 1688   0.897   2.622   4.167 -0.9120 -1.0155  2.1234
   13MOL0     H 1689   1.149   2.560   4.163  0.1805 -0.1576 -0.9896
   13MOL0     H 1690   1.307   2.381   4.432 -0.1959  1.6109  0.0760
   13MOL0     H 1691   1.316   2.208   4.380  2.5649 -1.2831 -0.5989
   13MOL0     H 1692   1.509   2.421   4.272 -0.0777  0.3387 -0.5319
   13MOL0     H 1693   1.535   2.291   4.396  2.0670  2.0999 -1.3321
   13MOL0     H 1694   1.466   2.126   4.230  2.0077  0.0930  1.7919
   13MOL0     H 1695   1.477   2.252   4.105  3.2565  2.1768 -1.7704
   13MOL0     H 1696   1.715   2.284   4.172  0.5168  0.6114  1.2736
   13MOL0     H 1697   1.704   2.150   4.289  2.0051  0.0942 -1.3799
   13MOL0     H 1698   1.689   1.987   4.096  3.6101 -0.9108 -2.1625
   13MOL0     H 1699   1.651   2.111   3.985  0.7382  0.9296  0.0181
   13MOL0     H 1700   1.887   2.204   4.031 -2.9212  0.9552  0.7602
   13MOL0     H 1701   1.924   2.062   4.129  2.4490  2.1728 -0.9427
   13MOL0     H 1702   1.830   1.917   3.943  0.2646  0.3131  0.2922
   13MOL0     H 1703   1.839   2.054   3.835  0.0674 -0.4229 -0.4175
   13MOL0     H 1704   2.085   2.058   3.868  1.7604 -2.1183 -0.2102
   13MOL0     H 1705   2.029   1.898   3.812 -2.8520 -0.9139  0.8295
   13MOL0     H 1706   1.962   1.737   4.044 -0.7369  2.5051 -2.6397
   13MOL0     H 1707   2.082   1.590   4.224 -0.6422 -0.6533  0.4255
   13MOL0     H 1708   2.173   1.665   4.361 -0.9616  0.7636  0.8058
   13MOL0     H 1709   1.918   1.609   4.407 -2.3550  1.1104 -0.2629
   13MOL0     H 1710   1.886   1.749   4.298  3.0709  0.4467 -3.1767
   13MOL0     H 1711   2.060   1.767   4.552  0.5021  2.5926  0.0737
   13MOL0     H 1712   1.892   1.770   4.552 -1.4340 -0.2420 -2.1732
   13MOL0     H 1713   1.907   1.981   4.384  1.6767 -0.8674 -3.5814
   13MOL0     H 1714   2.080   1.955   4.411  0.4265 -2.0410  0.1745
   13MOL0     H 1715   1.982   2.238   4.674  0.5921 -2.6096 -1.3219
   13MOL0     H 1716   1.752   2.430   4.857 -1.4613  0.6465 -0.4520
   13MOL0     H 1717   1.921   2.387   4.805  0.0406 -4.3169 -1.1641
   13MOL0     H 1718   1.816   2.477   4.702  0.2749 -0.5919 -0.3860
   13MOL0     H 1719   1.366   2.415   4.909 -0.5892  0.6761  1.0894
   13MOL0     H 1720   1.165   2.529   4.962  1.1304 -1.3761  0.0059
   13MOL0     H 1721   0.818   2.518   4.672 -0.7989  1.9224  0.7347
   13MOL0     H 1722   0.787   2.366   4.772 -1.0657 -0.0966  3.2265
   13MOL0     H 1723   0.687   2.652   4.834 -0.2736 -0.3993 -0.3657
   13MOL0     H 1724   0.599   2.511   4.796  0.0780  4.7363 -3.5672
   13MOL0     H 1725   0.761   2.570   5.048  1.1394  1.5848 -2.2532
   13MOL0     H 1726   0.705   2.407   5.003  1.7809 -0.0304 -1.5904
   13MOL0     H 1727   0.519   2.660   5.012 -0.2802 -0.9364 -1.4655
   13MOL0     H 1728   0.465   2.502   4.964  0.2359 -0.9860 -0.4023
   13MOL0     H 1729   0.579   2.561   5.249 -0.4512 -1.8892  1.6054
   13MOL0     H 1730   0.535   2.411   5.179 -1.3098 -0.2747 -3.9247
   13MOL0     H 1731   0.354   2.632   5.279  1.5482 -0.8440  1.5490
   13MOL0     H 1732   0.297   2.530   5.143  2.3759 -1.5333 -2.1405
   13MOL0     H 1733   0.243   2.469   5.395  0.9220  3.6199 -0.3178
   13MOL0     H 1734   0.415   2.417   5.402 -3.1072 -2.2719  3.5287
   13MOL0     H 1735   0.376   2.254   5.220 -0.0467  0.2079 -0.4857
   13MOL0     H 1736   0.211   2.324   5.190  0.0998  1.1743  0.7146
   13MOL0     H 1737   0.964   2.349   4.626 -1.3974  0.8765  2.5290
   13MOL0     H 1738   1.197   2.226   4.570  1.7601 -1.3265  1.8763
   13MOL0     H 1739   1.525   2.070   4.586  0.1512 -0.6677 -0.0877
   13MOL0     H 1740   1.733   1.925   4.556  3.0568  0.4393  0.1106
   13MOL0     H 1741   1.051   2.192   4.355 -3.5991 -1.2181  0.9942
   13MOL0     H 1742   0.823   2.265   4.390 -1.0435  0.6868  0.5174
   13MOL0     H 1743   0.516   2.634   4.225  0.0413 -0.5684 -1.5018
   13MOL0     H 1744   0.316   2.763   4.239  3.8950  0.0051 -1.0193
   13MOL0     H 1745   0.001   2.911   4.360  0.9428 -0.0066  1.3148
   13MOL0     H 1746   0.136   2.865   4.267  0.5655  1.8373  0.4385
   13MOL0     H 1747  -0.051   2.646   4.393 -2.1879 -0.6161 -1.1257
   13MOL0     H 1748   0.066   2.646   4.250  2.4457  2.3355  0.5255
   13MOL0     H 1749  -0.077   2.781   4.128 -0.4472  1.0097 -0.2009
   13MOL0     H 1750  -0.196   2.795   4.267 -0.3931 -0.5220 -0.4404
   13MOL0     H 1751  -0.241   2.568   4.278 -2.0046  2.5484  0.2910
   13MOL0     H 1752  -0.138   2.529   4.142 -1.2173 -1.2697  0.9550
   13MOL0     H 1753  -0.514   2.600   3.984 -1.3718 -0.5279  2.3458
   13MOL0     H 1754   0.243   2.624   4.631 -1.7613 -0.5743 -0.8730
   13MOL0     H 1755   0.453   2.505   4.635 -0.6756 -1.6992  0.0332
   14MOL0     O 1756   3.321   5.642   6.171 -0.2815 -0.3668 -0.0436
   14MOL0     C 1757   3.412   5.631   6.253 -0.3430  0.2077 -0.8379
   14MOL0     O 1758   3.400   5.563   6.372  0.0202 -0.1691  0.5841
   14MOL0     C 1759   3.271   5.548   6.422 -0.5115 -0.7015 -0.6583
   14MOL0     C 1760   3.215   5.651   6.503  0.1234 -0.0833 -0.0276
   14MOL0     C 1761   3.099   5.627   6.567 -0.4277  0.0131 -0.5239
   14MOL0     C 1762   3.032   5.507   6.557  0.1232 -0.7775 -0.2491
   14MOL0     O 1763   2.914   5.510   6.631  0.0514  0.8290  0.1622
   14MOL0     C 1764   2.846   5.382   6.638  0.3322  0.5760  0.7465
   14MOL0     C 1765   2.723   5.406   6.715  1.0323 -0.2496 -0.2306
   14MOL0     C 1766   2.632   5.290   6.708  0.2420 -0.0744 -0.0923
   14MOL0     C 1767   2.526   5.292   6.816 -0.1188  1.5466  0.4939
   14MOL0     C 1768   2.439   5.163   6.796 -0.4490 -0.0698  0.0383
   14MOL0     C 1769   2.341   5.164   6.915 -1.2575  0.3154 -0.8207
   14MOL0     C 1770   2.245   5.051   6.884 -0.9695  0.1182  0.7099
   14MOL0     C 1771   2.127   5.014   6.979 -0.1839 -0.7619 -0.3415
   14MOL0     N 1772   2.054   5.127   7.036 -0.3479 -0.7810  0.0365
   14MOL0     C 1773   1.971   5.205   6.962 -0.4381 -0.5003 -0.9099
   14MOL0     C 1774   1.926   5.292   7.051  0.4109 -0.2433 -0.1944
   14MOL0     C 1775   1.818   5.395   7.013  0.3339 -1.1940 -0.3806
   14MOL0     C 1776   1.694   5.387   7.102 -0.8643  0.5597 -0.3460
   14MOL0     C 1777   1.574   5.458   7.042 -0.8688  0.0914  0.1631
   14MOL0     C 1778   1.446   5.440   7.123 -0.2029  0.2113 -0.4359
   14MOL0     O 1779   1.412   5.300   7.125  0.1246  0.2231  0.1901
   14MOL0     C 1780   1.285   5.260   7.140 -0.0151  0.0611  0.1492
   14MOL0     C 1781   1.198   5.335   7.214 -0.8604  0.6768 -0.3302
   14MOL0     C 1782   1.054   5.307   7.205 -0.3050  0.2928  0.5869
   14MOL0     C 1783   0.977   5.418   7.266 -0.7508 -0.5040 -1.1038
   14MOL0     C 1784   1.009   5.196   7.130 -0.3701  0.2392 -0.7082
   14MOL0     C 1785   0.869   5.142   7.123  0.0800  0.4649  0.4795
   14MOL0     O 1786   0.837   5.039   7.042  0.4902 -0.3035 -0.6097
   14MOL0     C 1787   0.696   5.020   7.031  0.2156 -0.2136 -0.4195
   14MOL0     C 1788   0.638   4.925   7.119  0.3713 -0.4553 -0.2911
   14MOL0     C 1789   0.505   4.877   7.090 -0.1182 -0.2563  0.0810
   14MOL0     C 1790   0.431   4.930   6.982  0.7690  0.2407 -0.0395
   14MOL0     O 1791   0.303   4.886   6.963  0.3573 -0.0030 -0.3008
   14MOL0     C 1792   0.208   4.949   7.052  0.1395  0.1340  0.0247
   14MOL0     C 1793   0.061   4.901   7.026 -0.3823 -0.0988 -0.0536
   14MOL0     C 1794   0.035   4.771   7.090 -0.3940  0.7177 -0.3153
   14MOL0     C 1795  -0.104   4.717   7.062 -0.2998 -0.4969  0.0460
   14MOL0     C 1796  -0.156   4.614   7.162  0.4975  1.0474 -0.4405
   14MOL0     C 1797  -0.304   4.580   7.138 -0.7546 -0.1452 -0.6788
   14MOL0     C 1798  -0.317   4.476   7.019 -0.7969 -1.0870 -0.3716
   14MOL0     C 1799  -0.450   4.396   7.029  0.1155 -0.4256 -0.3388
   14MOL0    Cl 1800  -0.588   4.498   7.011 -0.2054  0.1419 -0.3549
   14MOL0     C 1801   0.485   5.037   6.902 -0.1293  1.3307  0.0009
   14MOL0     C 1802   0.620   5.089   6.937  0.8442 -0.7826 -0.4508
   14MOL0     O 1803   0.784   5.193   7.197  0.3619 -0.0885  0.0796
   14MOL0     C 1804   1.114   5.112   7.069  0.9408 -0.4077  0.2718
   14MOL0     C 1805   1.248   5.149   7.073 -0.3051  0.0090 -0.7573
   14MOL0     N 1806   1.999   5.280   7.170  0.2344 -0.0058  0.6375
   14MOL0     N 1807   2.057   5.169   7.167 -0.4934  0.6799 -0.0886
   14MOL0     C 1808   3.090   5.408   6.477 -0.0980  0.8520  0.1375
   14MOL0     C 1809   3.213   5.424   6.416 -0.5708  0.0385 -0.0078
   14MOL0     C 1810   3.545   5.689   6.218 -0.0362  0.1123 -0.2718
   14MOL0     C 1811   3.661   5.631   6.261 -0.5008  0.0133 -0.0444
   14MOL0     C 1812   3.780   5.684   6.238  0.8024  0.4339  0.1303
   14MOL0     C 1813   3.801   5.792   6.155 -0.0725 -0.0784  0.1699
   14MOL0     O 1814   3.936   5.832   6.137  0.0980 -0.2446 -0.1982
   14MOL0     C 1815   3.973   5.937   6.051 -0.4512  0.1358 -0.2095
   14MOL0     C 1816   3.941   6.069   6.117 -0.2516 -0.7349  0.0525
   14MOL0     C 1817   4.015   6.106   6.248 -0.9772  0.1215 -0.3143
   14MOL0     C 1818   4.030   6.256   6.271 -0.2460  0.0296  0.0144
   14MOL0     C 1819   3.898   6.312   6.308 -0.4263 -0.1589  0.7497
   14MOL0     C 1820   3.789   6.345   6.340  0.5579 -0.0677 -0.6436
   14MOL0     C 1821   3.684   5.850   6.097  0.7846  0.2266  0.8441
   14MOL0     C 1822   3.554   5.798   6.131 -0.1476 -0.4263 -0.1645
   14MOL0     H 1823   3.266   5.746   6.515  3.6619 -1.9466  1.2392
   14MOL0     H 1824   3.048   5.697   6.634 -2.8250  0.3269 -2.5149
   14MOL0     H 1825   2.814   5.352   6.538  4.3502  2.2757 -1.2525
   14MOL0     H 1826   2.890   5.300   6.695  1.0913  2.3642  2.8914
   14MOL0     H 1827   2.750   5.425   6.819  2.2701 -1.8747 -0.2020
   14MOL0     H 1828   2.669   5.494   6.680 -0.0809 -0.5904  0.5638
   14MOL0     H 1829   2.582   5.288   6.611  1.5372  0.5999 -0.8041
   14MOL0     H 1830   2.695   5.201   6.722  0.4475  0.3587  2.2153
   14MOL0     H 1831   2.577   5.294   6.913 -0.5284 -1.0241  0.8476
   14MOL0     H 1832   2.460   5.378   6.797  1.7102  2.5115 -1.9355
   14MOL0     H 1833   2.390   5.162   6.698 -1.3026  1.5486  0.4305
   14MOL0     H 1834   2.517   5.086   6.797  0.0907  0.4615 -0.3088
   14MOL0     H 1835   2.396   5.151   7.009 -1.6481  0.5887 -0.5535
   14MOL0     H 1836   2.291   5.261   6.913 -0.7407  0.5778 -1.3720
   14MOL0     H 1837   2.210   5.067   6.782  1.5866  0.1230 -0.2477
   14MOL0     H 1838   2.308   4.962   6.872  1.7978  2.2664 -2.0633
   14MOL0     H 1839   2.160   4.951   7.061 -2.5605 -0.5982  0.8223
   14MOL0     H 1840   2.061   4.946   6.924  0.7853 -2.0711  0.0895
   14MOL0     H 1841   1.951   5.196   6.856 -0.4158 -1.5432 -0.8360
   14MOL0     H 1842   1.861   5.494   6.993 -3.6194  1.5043  2.7867
   14MOL0     H 1843   1.776   5.365   6.917 -0.1720 -2.1160  0.1145
   14MOL0     H 1844   1.717   5.425   7.202 -2.1560 -0.3496  0.3262
   14MOL0     H 1845   1.675   5.284   7.134  2.2745 -0.4394 -1.2340
   14MOL0     H 1846   1.546   5.428   6.940  1.2175 -1.8896  0.1050
   14MOL0     H 1847   1.590   5.566   7.030 -3.0533  0.4421 -0.0091
   14MOL0     H 1848   1.363   5.503   7.090 -0.8389  0.0157  0.7515
   14MOL0     H 1849   1.464   5.475   7.225 -0.4820 -0.1741 -0.2536
   14MOL0     H 1850   1.232   5.417   7.276  2.4423  0.4849 -1.7072
   14MOL0     H 1851   0.890   5.383   7.324  0.1732 -0.6527  0.2401
   14MOL0     H 1852   1.042   5.468   7.339 -1.0093  1.5707 -2.2137
   14MOL0     H 1853   0.957   5.490   7.186 -3.7355  1.8755  1.5168
   14MOL0     H 1854   0.699   4.883   7.199  0.7247  0.5370 -0.0251
   14MOL0     H 1855   0.459   4.802   7.153  0.7679  0.1348  1.2220
   14MOL0     H 1856   0.240   4.932   7.155 -0.5064 -3.5935 -0.2369
   14MOL0     H 1857   0.209   5.053   7.018  1.3391  0.6287  1.4739
   14MOL0     H 1858  -0.016   4.973   7.058 -0.9814 -0.5335 -0.4961
   14MOL0     H 1859   0.040   4.888   6.920  1.2552 -0.0214 -0.4037
   14MOL0     H 1860   0.052   4.773   7.198  0.1131 -1.2078 -0.3347
   14MOL0     H 1861   0.113   4.707   7.047 -0.0349 -1.1347  2.7745
   14MOL0     H 1862  -0.176   4.800   7.070 -0.2309 -0.6318  3.9022
   14MOL0     H 1863  -0.104   4.685   6.958  0.9505  1.1378 -0.4944
   14MOL0     H 1864  -0.150   4.653   7.264  4.0711 -0.8896  0.2476
   14MOL0     H 1865  -0.092   4.526   7.153  1.2037  1.2114  2.2135
   14MOL0     H 1866  -0.349   4.537   7.228 -1.0801 -2.0065 -1.6995
   14MOL0     H 1867  -0.364   4.666   7.105 -1.5595 -0.0358  0.9543
   14MOL0     H 1868  -0.236   4.402   7.013  0.3166  0.1947 -1.7983
   14MOL0     H 1869  -0.321   4.525   6.921 -0.9851 -1.8273 -0.7471
   14MOL0     H 1870  -0.452   4.341   7.123  0.8085 -1.6770 -1.0362
   14MOL0     H 1871  -0.457   4.318   6.952  0.6884 -1.1866  0.3676
   14MOL0     H 1872   0.430   5.083   6.821 -0.3632  0.1787 -0.5094
   14MOL0     H 1873   0.670   5.175   6.894  1.9105 -1.5622 -0.8205
   14MOL0     H 1874   1.085   5.017   7.025 -0.7624  0.4183 -0.4754
   14MOL0     H 1875   1.318   5.086   7.019  0.7456  0.7405 -0.2831
   14MOL0     H 1876   3.043   5.311   6.474  0.5136  0.5622 -0.2760
   14MOL0     H 1877   3.267   5.344   6.366  1.9047 -0.0058  2.4918
   14MOL0     H 1878   3.657   5.548   6.332  1.0375  0.5129  0.6631
   14MOL0     H 1879   3.864   5.621   6.269 -0.0114 -1.7601 -1.8429
   14MOL0     H 1880   4.082   5.930   6.040 -0.6588  0.5308 -3.4191
   14MOL0     H 1881   3.930   5.929   5.951 -0.3194 -0.9337 -0.1895
   14MOL0     H 1882   3.835   6.073   6.142 -0.6890 -1.6347 -1.5005
   14MOL0     H 1883   3.962   6.156   6.054 -3.7515  0.0062 -0.3020
   14MOL0     H 1884   4.117   6.070   6.235 -1.1631 -0.6814  0.4021
   14MOL0     H 1885   3.962   6.059   6.332  0.3710  0.7745  0.9489
   14MOL0     H 1886   4.067   6.292   6.175  0.0731 -2.8262 -1.0339
   14MOL0     H 1887   4.101   6.276   6.353 -1.4205  3.2781  0.3784
   14MOL0     H 1888   3.689   6.379   6.360  0.5499 -1.0214  1.1444
   14MOL0     H 1889   3.694   5.938   6.034  0.1180 -1.7680 -2.2728
   14MOL0     H 1890   3.464   5.845   6.093  0.8134  0.2424 -1.7166
   15MOL0     O 1891   6.703   3.338   0.939 -0.6153 -0.8112  0.7231
   15MOL0     C 1892   6.780   3.270   0.875 -0.1522  0.1713  0.0809
   15MOL0     O 1893   6.755   3.141   0.842  0.3347 -0.6792  0.3653
   15MOL0     C 1894   6.659   3.069   0.909 -0.7079 -0.4015  0.4764
   15MOL0     C 1895   6.525   3.116   0.914 -0.1331 -0.7191 -1.3984
   15MOL0     C 1896   6.440   3.041   0.990  0.5148 -0.7212  0.1619
   15MOL0     C 1897   6.466   2.919   1.039 -0.0454  0.5962  0.3911
   15MOL0     O 1898   6.368   2.852   1.107  0.5316 -0.4110 -0.1967
   15MOL0     C 1899   6.396   2.801   1.237  0.6509  0.5041  0.3983
   15MOL0     C 1900   6.446   2.910   1.335  0.5743  0.0685  0.8578
   15MOL0     C 1901   6.343   3.024   1.359 -0.0091 -0.4146  0.1965
   15MOL0     C 1902   6.375   3.105   1.486 -0.4833 -0.0087 -0.0488
   15MOL0     C 1903   6.277   3.219   1.501  0.9144  0.4608 -0.6648
   15MOL0     C 1904   6.155   3.182   1.589  0.2717 -0.4343  0.1422
   15MOL0     C 1905   6.056   3.295   1.594  0.4023  0.1793 -0.9451
   15MOL0     C 1906   5.968   3.285   1.726  0.6189  0.5415 -0.0428
   15MOL0     N 1907   5.838   3.354   1.716  0.1417 -0.0597  0.4582
   15MOL0     C 1908   5.768   3.397   1.830  0.6959 -0.1313  0.6334
   15MOL0     C 1909   5.642   3.425   1.778 -0.4112 -0.1996  0.2433
   15MOL0     C 1910   5.511   3.436   1.851  0.4301 -0.4105 -0.0595
   15MOL0     C 1911   5.502   3.575   1.925 -0.0284  0.1737  0.3675
   15MOL0     C 1912   5.459   3.682   1.829 -0.3410 -0.2355 -0.2530
   15MOL0     C 1913   5.444   3.827   1.896  0.0199 -0.0363  0.3422
   15MOL0     O 1914   5.365   3.812   2.015  0.3754 -0.9277  0.0530
   15MOL0     C 1915   5.249   3.888   2.031 -0.6999 -0.5107 -0.4651
   15MOL0     C 1916   5.195   3.981   1.946  0.2764 -0.5437 -0.1494
   15MOL0     C 1917   5.071   4.045   1.967  0.3269  0.3425  0.9695
   15MOL0     C 1918   5.021   4.128   1.863  0.0383 -1.1597 -0.6785
   15MOL0     C 1919   5.004   4.016   2.086 -0.1135 -1.0885  0.2548
   15MOL0     C 1920   4.873   4.064   2.126 -0.4734  0.5187 -0.3345
   15MOL0     O 1921   4.770   4.040   2.042  0.1584  0.2053  0.5925
   15MOL0     C 1922   4.643   4.056   2.095  0.1284  0.3741  0.5647
   15MOL0     C 1923   4.564   3.945   2.131 -0.5193 -0.4768 -0.9922
   15MOL0     C 1924   4.433   3.962   2.185 -0.0064 -0.5402  0.4761
   15MOL0     C 1925   4.381   4.092   2.193  0.5046 -1.1884  0.3859
   15MOL0     O 1926   4.257   4.096   2.243 -0.5372  0.8375  0.2376
   15MOL0     C 1927   4.182   4.214   2.217 -0.4073 -0.6008 -1.1787
   15MOL0     C 1928   4.028   4.210   2.255 -0.3393  0.4268  0.5941
   15MOL0     C 1929   3.939   4.321   2.175  0.5503 -0.7657  0.2789
   15MOL0     C 1930   3.791   4.291   2.209 -0.3879  0.2493 -0.0783
   15MOL0     C 1931   3.723   4.170   2.144 -0.1568 -0.0986 -0.3403
   15MOL0     C 1932   3.729   4.169   1.987 -0.3784 -0.2977  0.3966
   15MOL0     C 1933   3.649   4.063   1.924  0.1104  0.5033 -0.8273
   15MOL0     C 1934   3.686   4.065   1.774  0.4954 -0.9738  0.3552
   15MOL0    Cl 1935   3.607   3.926   1.701 -0.0852 -0.1657  0.4817
   15MOL0     C 1936   4.463   4.201   2.156  0.3691 -0.1274  0.3809
   15MOL0     C 1937   4.587   4.188   2.099 -0.5299 -0.6835 -0.5917
   15MOL0     O 1938   4.863   4.089   2.249 -0.1327 -0.1188 -0.0813
   15MOL0     C 1939   5.065   3.930   2.178  0.1983 -0.7092 -0.3688
   15MOL0     C 1940   5.186   3.867   2.150 -0.0789 -0.8151  0.2473
   15MOL0     N 1941   5.638   3.401   1.638  0.0459  0.4320 -0.7202
   15MOL0     N 1942   5.757   3.367   1.604  0.4419 -0.1111  0.1402
   15MOL0     C 1943   6.597   2.872   1.029 -0.4169  1.0003 -0.2459
   15MOL0     C 1944   6.702   2.944   0.970 -0.5900  0.3719  0.3198
   15MOL0     C 1945   6.896   3.341   0.812  0.3899 -0.6054 -0.7917
   15MOL0     C 1946   6.988   3.268   0.736 -0.1698  0.7324  0.4114
   15MOL0     C 1947   7.104   3.325   0.684  0.0743  0.0451  0.2888
   15MOL0     C 1948   7.125   3.463   0.689  0.4789 -0.5783  0.2558
   15MOL0     O 1949   7.227   3.537   0.628  0.3656 -0.3586 -0.0699
   15MOL0     C 1950   7.335   3.472   0.552 -0.6224  0.2007  0.3517
   15MOL0     C 1951   7.432   3.417   0.658 -0.1281  0.2355  0.1393
   15MOL0     C 1952   7.569   3.379   0.600  1.1718 -0.0745  0.8214
   15MOL0     C 1953   7.637   3.287   0.700 -0.6117 -0.2367 -0.0594
   15MOL0     C 1954   7.769   3.244   0.659  1.1163  1.2052 -0.3904
   15MOL0     C 1955   7.871   3.190   0.621 -0.2068  0.8347  0.8176
   15MOL0     C 1956   7.031   3.538   0.757 -0.4014  0.5418 -0.0549
   15MOL0     C 1957   6.914   3.480   0.813  0.2339 -0.2697  0.9329
   15MOL0     H 1958   6.501   3.214   0.873 -2.1378 -0.2121  0.7431
   15MOL0     H 1959   6.341   3.085   0.992 -0.8348 -3.4587  2.2389
   15MOL0     H 1960   6.300   2.757   1.266  1.6059 -1.9853 -0.0399
   15MOL0     H 1961   6.468   2.720   1.229  0.5052 -0.0556  3.4800
   15MOL0     H 1962   6.465   2.853   1.426  1.2101 -3.6557 -1.4132
   15MOL0     H 1963   6.541   2.943   1.292 -0.3396  0.2883 -1.1050
   15MOL0     H 1964   6.338   3.093   1.274 -1.5052 -0.3291  0.3285
   15MOL0     H 1965   6.245   2.982   1.381  0.6066 -1.0511  1.8978
   15MOL0     H 1966   6.376   3.047   1.578  0.8193 -0.0408 -0.0601
   15MOL0     H 1967   6.471   3.157   1.482 -1.6472  2.3079  0.4136
   15MOL0     H 1968   6.319   3.308   1.550  0.3364 -0.1336  1.0020
   15MOL0     H 1969   6.232   3.250   1.407 -2.4805 -0.6429  0.4497
   15MOL0     H 1970   6.117   3.091   1.541  4.3233 -1.3233 -1.8223
   15MOL0     H 1971   6.194   3.160   1.689 -1.8606  0.6653  1.2807
   15MOL0     H 1972   6.107   3.392   1.587  0.3700  0.3545  0.7423
   15MOL0     H 1973   6.002   3.284   1.500  1.6845  0.4064 -1.7269
   15MOL0     H 1974   6.038   3.317   1.804  0.2282  2.4308 -0.4298
   15MOL0     H 1975   5.942   3.180   1.746 -1.5451  1.2440  1.0972
   15MOL0     H 1976   5.803   3.403   1.932  2.8627 -1.0132 -0.0079
   15MOL0     H 1977   5.423   3.422   1.787 -0.7427  0.2701  1.3418
   15MOL0     H 1978   5.522   3.360   1.930  0.4224 -2.1906 -1.6953
   15MOL0     H 1979   5.598   3.613   1.962  1.8034 -2.2383 -1.5547
   15MOL0     H 1980   5.434   3.561   2.010 -0.0401 -3.7903 -0.1208
   15MOL0     H 1981   5.363   3.672   1.779  0.1802 -0.0055 -1.3311
   15MOL0     H 1982   5.534   3.699   1.751 -0.6547 -0.6925 -0.6626
   15MOL0     H 1983   5.420   3.905   1.823  0.4656  2.4029  2.6725
   15MOL0     H 1984   5.545   3.854   1.929  0.4494  2.1190 -2.3387
   15MOL0     H 1985   5.230   3.996   1.845 -1.7719  0.2044 -0.7909
   15MOL0     H 1986   5.081   4.220   1.855 -1.7748 -0.0600 -2.4058
   15MOL0     H 1987   5.004   4.080   1.766  3.9837  0.6882 -2.5267
   15MOL0     H 1988   4.930   4.172   1.904  0.8721 -0.5966  0.6463
   15MOL0     H 1989   4.608   3.846   2.129  1.5674  0.4165 -2.1404
   15MOL0     H 1990   4.377   3.877   2.221 -0.7473  0.6154  2.1625
   15MOL0     H 1991   4.239   4.297   2.260 -0.1564 -1.0002 -0.7283
   15MOL0     H 1992   4.186   4.232   2.110  2.3679  1.7796 -0.8086
   15MOL0     H 1993   3.993   4.115   2.214 -0.0740  2.0079 -3.8434
   15MOL0     H 1994   4.010   4.213   2.363 -1.4449  2.7627  0.4104
   15MOL0     H 1995   3.964   4.309   2.069 -1.2039  3.1258 -0.7670
   15MOL0     H 1996   3.961   4.425   2.202  0.3673  0.3458 -3.3303
   15MOL0     H 1997   3.780   4.285   2.318  1.3369 -2.3928  0.0428
   15MOL0     H 1998   3.730   4.375   2.174 -0.7669  0.1438  0.3172
   15MOL0     H 1999   3.620   4.162   2.179 -0.5194 -2.0570 -1.7100
   15MOL0     H 2000   3.784   4.083   2.170  3.5362  2.0227 -1.0962
   15MOL0     H 2001   3.683   4.261   1.950 -1.7522 -2.2662 -3.2717
   15MOL0     H 2002   3.833   4.163   1.955 -0.9126 -0.3012 -1.4451
   15MOL0     H 2003   3.545   4.091   1.939  0.1765 -0.0062  0.7372
   15MOL0     H 2004   3.667   3.973   1.984 -0.8080  1.2229  0.5709
   15MOL0     H 2005   3.794   4.047   1.783  0.2793 -1.9462  1.2279
   15MOL0     H 2006   3.674   4.158   1.718 -1.2737 -2.2660 -1.5481
   15MOL0     H 2007   4.431   4.305   2.162  1.3338  0.2813 -0.9601
   15MOL0     H 2008   4.642   4.281   2.087  0.2974 -0.9099  1.1825
   15MOL0     H 2009   5.009   3.909   2.268 -1.3683 -1.5462 -1.4871
   15MOL0     H 2010   5.219   3.791   2.220  0.8265 -0.3520  0.3427
   15MOL0     H 2011   6.620   2.779   1.078  0.1356  1.9177  1.2959
   15MOL0     H 2012   6.803   2.907   0.969 -0.5932  0.3565 -0.6608
   15MOL0     H 2013   6.978   3.160   0.727  1.5328  0.5103  0.7694
   15MOL0     H 2014   7.181   3.258   0.647  0.4653 -1.0975  2.9220
   15MOL0     H 2015   7.297   3.392   0.486 -0.5858  1.0037 -0.6620
   15MOL0     H 2016   7.375   3.546   0.483  0.4734  0.1697  0.9322
   15MOL0     H 2017   7.399   3.329   0.713 -2.2650  0.0541 -1.2837
   15MOL0     H 2018   7.452   3.499   0.728  2.5192 -2.6972  3.1356
   15MOL0     H 2019   7.632   3.467   0.582  0.3181  1.0748  3.0287
   15MOL0     H 2020   7.555   3.333   0.502 -1.0424  2.0461  0.0608
   15MOL0     H 2021   7.581   3.193   0.711 -3.7599  1.5180 -0.0492
   15MOL0     H 2022   7.636   3.330   0.801  0.8333  0.9556 -0.5051
   15MOL0     H 2023   7.943   3.136   0.563  0.1821  0.8429  1.2866
   15MOL0     H 2024   7.047   3.644   0.775  0.8772  0.2567  0.5692
   15MOL0     H 2025   6.849   3.557   0.855  0.5906  1.6539 -1.7657
   16MOL0     O 2026   7.511   1.353   5.421  0.2075 -0.3315 -0.3224
   16MOL0     C 2027   7.553   1.249   5.472  0.1655 -0.4981 -0.2983
   16MOL0     O 2028   7.493   1.130   5.479  0.7854  0.4588 -0.1431
   16MOL0     C 2029   7.375   1.119   5.410 -0.1424  1.2458  0.4023
   16MOL0     C 2030   7.256   1.156   5.467 -0.4402 -0.4794  0.8969
   16MOL0     C 2031   7.132   1.142   5.402 -0.1587  0.2458 -0.4594
   16MOL0     C 2032   7.127   1.092   5.268 -0.6463  0.2830  0.5394
   16MOL0     O 2033   7.006   1.073   5.198 -0.5412 -0.2839  0.0342
   16MOL0     C 2034   7.010   1.101   5.054  0.6003  0.5034 -0.4905
   16MOL0     C 2035   6.902   1.191   5.002 -0.5447 -0.4730 -0.3102
   16MOL0     C 2036   6.764   1.143   5.045  0.5841 -0.3896  0.9413
   16MOL0     C 2037   6.649   1.229   4.985  0.1384  0.2168  0.0385
   16MOL0     C 2038   6.524   1.157   5.021 -0.1116 -0.0033 -0.6246
   16MOL0     C 2039   6.400   1.238   4.977  0.3951 -0.2967 -0.3439
   16MOL0     C 2040   6.266   1.161   4.978  0.6030  0.0178  0.3387
   16MOL0     C 2041   6.130   1.242   4.988 -0.9074 -0.4596 -0.4521
   16MOL0     N 2042   6.031   1.174   4.915 -0.1112  0.4306  0.0854
   16MOL0     C 2043   5.957   1.078   4.977  0.3562  0.7070  0.0233
   16MOL0     C 2044   5.865   1.047   4.884  1.0264 -0.7913  0.9643
   16MOL0     C 2045   5.767   0.934   4.900 -0.4671  0.5297 -1.2453
   16MOL0     C 2046   5.843   0.794   4.928  0.8321 -0.4258  0.3150
   16MOL0     C 2047   5.921   0.756   4.802  0.4259  0.5670 -0.6627
   16MOL0     C 2048   6.034   0.655   4.818 -0.0131  0.6849  0.0041
   16MOL0     O 2049   6.009   0.553   4.919 -0.0519 -0.6062 -0.7748
   16MOL0     C 2050   6.124   0.482   4.964  0.5776 -0.2628 -0.6704
   16MOL0     C 2051   6.101   0.384   5.059 -0.4499  0.0553 -0.2152
   16MOL0     C 2052   6.206   0.306   5.113  0.1340 -0.3732 -0.0300
   16MOL0     C 2053   6.162   0.190   5.200 -0.6010  0.2297  0.2532
   16MOL0     C 2054   6.344   0.339   5.090 -0.0134  0.0680 -0.4368
   16MOL0     C 2055   6.460   0.279   5.162  0.5565  0.8491  0.7523
   16MOL0     O 2056   6.562   0.227   5.085 -0.0710 -0.0757  0.5961
   16MOL0     C 2057   6.681   0.189   5.141  1.0685  0.6644 -0.5363
   16MOL0     C 2058   6.749   0.252   5.246  0.0703 -0.4472 -0.5271
   16MOL0     C 2059   6.859   0.184   5.314 -0.0828  0.1561 -0.1076
   16MOL0     C 2060   6.891   0.048   5.275  0.5633 -0.0933 -0.1009
   16MOL0     O 2061   6.977  -0.033   5.339 -0.3985 -0.1557 -0.0298
   16MOL0     C 2062   6.939  -0.170   5.378  0.0167 -0.5003  0.0596
   16MOL0     C 2063   7.023  -0.264   5.298 -0.5499 -0.0431  0.3485
   16MOL0     C 2064   7.165  -0.239   5.324 -0.4593 -0.2543 -0.0773
   16MOL0     C 2065   7.193  -0.231   5.476  0.6188  0.4919  0.2833
   16MOL0     C 2066   7.344  -0.266   5.512 -0.4107  0.1179 -1.2500
   16MOL0     C 2067   7.437  -0.163   5.455 -0.0052  0.6684 -1.1005
   16MOL0     C 2068   7.586  -0.194   5.462 -0.0090 -0.2554  0.5561
   16MOL0     C 2069   7.670  -0.120   5.345 -0.1671 -0.2885  0.5285
   16MOL0    Cl 2070   7.630  -0.196   5.180  0.3177  0.0183  0.4172
   16MOL0     C 2071   6.830  -0.002   5.167  0.2187  0.0935  0.5651
   16MOL0     C 2072   6.734   0.071   5.089  0.7423  0.7318  0.5025
   16MOL0     O 2073   6.447   0.254   5.285 -0.8651 -0.4059  0.2122
   16MOL0     C 2074   6.364   0.439   4.997  0.5158 -0.3020 -0.6914
   16MOL0     C 2075   6.260   0.499   4.926 -0.4972 -0.1751  0.0308
   16MOL0     N 2076   5.871   1.132   4.774 -0.7659 -0.9201 -0.6792
   16MOL0     N 2077   5.973   1.206   4.795  0.7557 -0.3706 -0.1237
   16MOL0     C 2078   7.251   1.049   5.216  0.2365  0.1889 -0.2641
   16MOL0     C 2079   7.373   1.053   5.285  0.3277 -0.1378  0.0335
   16MOL0     C 2080   7.688   1.254   5.534 -0.0107  0.5689 -1.0203
   16MOL0     C 2081   7.714   1.162   5.644 -0.6001 -0.4728  0.8962
   16MOL0     C 2082   7.838   1.167   5.704  0.1490 -0.2682 -0.1832
   16MOL0     C 2083   7.941   1.250   5.666 -0.4277  0.7593  0.3862
   16MOL0     O 2084   8.061   1.229   5.725 -0.7739 -0.3813  0.3850
   16MOL0     C 2085   8.115   1.355   5.790  1.0809  0.9694 -0.3037
   16MOL0     C 2086   8.033   1.387   5.911 -0.2768 -1.0647  0.1946
   16MOL0     C 2087   8.107   1.513   5.973  0.2229 -0.0419  0.5012
   16MOL0     C 2088   8.033   1.566   6.099  0.1521  0.1641  1.1525
   16MOL0     C 2089   8.073   1.488   6.216  0.3687 -1.2614  0.2516
   16MOL0     C 2090   8.122   1.447   6.320 -0.0888  0.5496  0.7853
   16MOL0     C 2091   7.914   1.339   5.561  0.7401 -0.4312  0.0645
   16MOL0     C 2092   7.791   1.336   5.486 -0.7405  0.1473 -1.1164
   16MOL0     H 2093   7.255   1.188   5.571 -0.0734  0.2517  0.6768
   16MOL0     H 2094   7.046   1.172   5.462 -0.2813  3.0084 -1.8525
   16MOL0     H 2095   7.109   1.144   5.033  2.1901 -2.7306 -0.3132
   16MOL0     H 2096   7.010   1.001   5.009 -0.1590  0.8114 -1.2084
   16MOL0     H 2097   6.918   1.290   5.045 -1.1938  0.0238 -1.1826
   16MOL0     H 2098   6.915   1.211   4.895 -0.2694 -0.0952 -0.2057
   16MOL0     H 2099   6.761   1.050   4.987  0.0122  1.1909 -1.7281
   16MOL0     H 2100   6.743   1.131   5.152 -2.3461  3.6867  1.0800
   16MOL0     H 2101   6.655   1.333   5.017  3.2193 -0.5406  2.3975
   16MOL0     H 2102   6.659   1.224   4.876 -0.5724 -2.4902  0.0304
   16MOL0     H 2103   6.531   1.057   4.977  1.4046 -1.0551  1.7743
   16MOL0     H 2104   6.515   1.153   5.130 -0.0636  0.3668 -0.6071
   16MOL0     H 2105   6.404   1.324   5.044  1.3542 -1.0729  0.6196
   16MOL0     H 2106   6.415   1.271   4.873 -0.6754 -0.8640 -0.6859
   16MOL0     H 2107   6.270   1.103   4.885  0.2317 -1.9664  1.4896
   16MOL0     H 2108   6.268   1.086   5.058  1.4760 -2.7406 -2.0819
   16MOL0     H 2109   6.147   1.343   4.949 -2.9783  0.6334  1.2551
   16MOL0     H 2110   6.095   1.258   5.091 -1.7010 -0.3767 -0.7300
   16MOL0     H 2111   5.973   1.038   5.076 -1.2176 -0.9724 -0.3511
   16MOL0     H 2112   5.694   0.961   4.977  0.2641  3.3030 -1.3871
   16MOL0     H 2113   5.705   0.921   4.811 -2.8529 -2.6489  0.7073
   16MOL0     H 2114   5.773   0.718   4.964  1.5120 -1.0315  0.3869
   16MOL0     H 2115   5.923   0.805   5.002  0.6412  2.1893  0.2155
   16MOL0     H 2116   5.954   0.846   4.749 -0.3355  0.8290 -0.7004
   16MOL0     H 2117   5.846   0.708   4.738  0.1272 -0.4767  0.4241
   16MOL0     H 2118   6.128   0.706   4.838  0.8484 -0.6479 -0.5451
   16MOL0     H 2119   6.055   0.605   4.723 -1.1449  0.4946 -0.1635
   16MOL0     H 2120   5.997   0.374   5.086 -0.6971  1.6490 -0.4871
   16MOL0     H 2121   6.060   0.166   5.169 -0.7225  1.4571 -0.3817
   16MOL0     H 2122   6.234   0.108   5.195 -0.1936  0.6280 -0.7045
   16MOL0     H 2123   6.154   0.214   5.306  1.6772  1.2366  0.2570
   16MOL0     H 2124   6.720   0.347   5.290  0.8489 -0.8889  1.0049
   16MOL0     H 2125   6.905   0.225   5.403 -0.3865  0.5000 -0.1032
   16MOL0     H 2126   6.954  -0.177   5.487 -2.2866  2.5868  0.7411
   16MOL0     H 2127   6.833  -0.189   5.365 -0.0153  1.0036 -2.6176
   16MOL0     H 2128   7.001  -0.370   5.310  2.0113 -0.7362 -0.4667
   16MOL0     H 2129   7.012  -0.257   5.189  5.0527  0.1324 -0.4943
   16MOL0     H 2130   7.194  -0.153   5.262 -2.3537  0.5097  0.0308
   16MOL0     H 2131   7.231  -0.320   5.294  0.5804  0.2449  0.8056
   16MOL0     H 2132   7.180  -0.127   5.504  2.1504  0.5896  0.7331
   16MOL0     H 2133   7.126  -0.303   5.523  1.1283 -0.0492  0.1983
   16MOL0     H 2134   7.368  -0.372   5.497 -1.6985 -0.6204  1.2892
   16MOL0     H 2135   7.354  -0.262   5.621 -1.0923  0.7024 -1.1985
   16MOL0     H 2136   7.418  -0.173   5.348  0.8100 -1.9957 -1.0620
   16MOL0     H 2137   7.415  -0.065   5.497  0.4008  0.5361 -0.5653
   16MOL0     H 2138   7.591  -0.303   5.456 -1.9259 -0.3354 -0.3389
   16MOL0     H 2139   7.625  -0.158   5.558  1.4586  0.5418 -0.3160
   16MOL0     H 2140   7.775  -0.141   5.366  0.2208 -0.5256 -1.4799
   16MOL0     H 2141   7.669  -0.011   5.345  1.3181 -0.2629  0.9035
   16MOL0     H 2142   6.850  -0.106   5.140 -0.3928 -0.6546  2.7830
   16MOL0     H 2143   6.692   0.022   5.002  0.5729 -1.8552  1.9309
   16MOL0     H 2144   6.468   0.458   4.973  1.4046 -2.4461  1.1196
   16MOL0     H 2145   6.293   0.562   4.844  1.6639 -1.6333 -0.2963
   16MOL0     H 2146   7.254   0.993   5.123  0.4471  0.5074 -0.4503
   16MOL0     H 2147   7.471   1.022   5.249  1.3540  1.4666  1.3035
   16MOL0     H 2148   7.641   1.090   5.678 -2.3813  1.4289  1.3344
   16MOL0     H 2149   7.856   1.096   5.783  4.5621 -1.0178 -1.5742
   16MOL0     H 2150   8.222   1.350   5.811  0.8148 -0.1836  0.9624
   16MOL0     H 2151   8.118   1.426   5.707  0.7491  0.8185 -0.4468
   16MOL0     H 2152   8.039   1.304   5.982  0.5382 -0.6076  0.6765
   16MOL0     H 2153   7.927   1.410   5.895  0.0777  0.4023 -0.2502
   16MOL0     H 2154   8.119   1.594   5.901  0.0678  2.2953  2.9490
   16MOL0     H 2155   8.205   1.479   6.008  0.0449 -2.1289 -0.8385
   16MOL0     H 2156   7.924   1.562   6.096  0.0772  1.7405  0.2271
   16MOL0     H 2157   8.068   1.670   6.104  2.4197 -0.4476 -0.4045
   16MOL0     H 2158   8.169   1.411   6.409 -0.7383  1.4013  1.4805
   16MOL0     H 2159   7.976   1.423   5.532  1.1338 -0.4613  0.8014
   16MOL0     H 2160   7.785   1.393   5.394  1.5270  1.3316 -0.6022
   17MOL0     O 2161   3.157   9.161   6.038 -0.3880  0.0125 -0.3130
   17MOL0     C 2162   3.218   9.251   6.087  0.5976 -0.7411 -1.3161
   17MOL0     O 2163   3.159   9.364   6.142  0.8703 -0.0856  0.0865
   17MOL0     C 2164   3.029   9.360   6.188 -0.3391  0.3738 -0.3492
   17MOL0     C 2165   2.995   9.335   6.326  0.0425  0.4651  0.0772
   17MOL0     C 2166   2.865   9.328   6.368 -0.2985  1.0592  0.2405
   17MOL0     C 2167   2.759   9.363   6.283 -0.2525  0.1097  0.4913
   17MOL0     O 2168   2.629   9.370   6.324  0.2723 -0.2678 -0.0872
   17MOL0     C 2169   2.614   9.438   6.456 -0.6038  0.4817  0.6618
   17MOL0     C 2170   2.468   9.452   6.499 -0.6906 -0.7409  0.3430
   17MOL0     C 2171   2.447   9.563   6.607  0.5905 -0.2888 -0.3914
   17MOL0     C 2172   2.289   9.571   6.646  0.4990  0.6217  0.0271
   17MOL0     C 2173   2.238   9.703   6.578  0.2280  0.8723 -0.6504
   17MOL0     C 2174   2.117   9.761   6.636  0.3875 -0.2138  0.2269
   17MOL0     C 2175   2.103   9.902   6.565  0.4088  0.4804 -0.5035
   17MOL0     C 2176   2.188  10.009   6.629 -0.4012 -0.5475 -0.3256
   17MOL0     N 2177   2.141  10.047   6.767  0.6399  0.4343 -1.0810
   17MOL0     C 2178   2.020  10.105   6.791  0.3218 -0.0359 -0.0138
   17MOL0     C 2179   2.012  10.094   6.926 -0.0102  0.4464  0.3499
   17MOL0     C 2180   1.894  10.157   7.007 -0.4445  0.0271 -0.1957
   17MOL0     C 2181   1.910  10.309   7.029  0.6407  0.2464  0.8689
   17MOL0     C 2182   1.782  10.367   7.099  0.4273 -0.2002  0.1801
   17MOL0     C 2183   1.809  10.511   7.122 -0.1803 -0.1588 -0.6755
   17MOL0     O 2184   1.722  10.561   7.236  0.4397 -0.6863 -0.7362
   17MOL0     C 2185   1.594  10.598   7.222 -0.4962 -0.6424  0.4448
   17MOL0     C 2186   1.521  10.603   7.105  0.4511 -0.5970 -0.2826
   17MOL0     C 2187   1.391  10.661   7.096  0.0358 -0.7454  0.5471
   17MOL0     C 2188   1.316  10.653   6.958 -0.3097  0.6191  0.8022
   17MOL0     C 2189   1.340  10.724   7.214 -0.1006  0.4473 -0.9508
   17MOL0     C 2190   1.218  10.805   7.205  0.1949 -0.2937  0.0127
   17MOL0     O 2191   1.182  10.868   7.094  0.3223  0.9336 -0.1034
   17MOL0     C 2192   1.046  10.910   7.083  0.4829 -0.1916 -0.1480
   17MOL0     C 2193   0.950  10.831   7.020  1.0608 -0.1646 -0.6188
   17MOL0     C 2194   0.813  10.869   7.008 -1.0884  0.5359  0.0557
   17MOL0     C 2195   0.778  10.988   7.072 -0.0535 -0.3119  0.0531
   17MOL0     O 2196   0.647  11.018   7.089  0.1477  0.0953 -0.2135
   17MOL0     C 2197   0.579  11.061   6.973  0.4974  0.2287  0.8987
   17MOL0     C 2198   0.467  11.156   7.016  0.1748 -0.0405 -0.6582
   17MOL0     C 2199   0.350  11.074   7.076  0.5266 -0.5135 -0.0006
   17MOL0     C 2200   0.237  11.167   7.111 -0.2353  0.7390  0.1691
   17MOL0     C 2201   0.117  11.070   7.152  0.0139 -0.0783  0.0604
   17MOL0     C 2202   0.002  11.146   7.210  0.2141 -0.7370 -0.0730
   17MOL0     C 2203  -0.089  11.067   7.300  0.5601 -0.1800  0.0318
   17MOL0     C 2204  -0.200  11.162   7.349 -0.2922  0.8408 -0.1034
   17MOL0    Cl 2205  -0.343  11.070   7.400  0.2066 -0.4506 -0.1824
   17MOL0     C 2206   0.876  11.077   7.119 -0.2539 -1.0395 -0.0697
   17MOL0     C 2207   1.007  11.033   7.130 -0.1608 -0.1081 -0.6899
   17MOL0     O 2208   1.149  10.810   7.304  0.1415 -0.3978 -0.2183
   17MOL0     C 2209   1.412  10.718   7.340  0.2883 -0.4847  0.2468
   17MOL0     C 2210   1.535  10.653   7.341 -0.2219 -0.0877  0.4082
   17MOL0     N 2211   2.121  10.037   6.977 -0.2390 -0.3998 -0.4452
   17MOL0     N 2212   2.205  10.011   6.885  0.4402 -0.8453  0.3317
   17MOL0     C 2213   2.790   9.373   6.142  0.5857  0.8644 -0.0958
   17MOL0     C 2214   2.927   9.371   6.098 -0.5464 -0.4196  0.1899
   17MOL0     C 2215   3.361   9.247   6.057  0.2039  0.5502  0.0869
   17MOL0     C 2216   3.446   9.361   6.082 -0.0288  0.0022 -0.4132
   17MOL0     C 2217   3.586   9.344   6.061  0.3086 -0.3456  0.4120
   17MOL0     C 2218   3.638   9.217   6.026 -0.8993  0.4181 -0.1326
   17MOL0     O 2219   3.774   9.211   6.022  0.3834  0.6272 -0.4402
   17MOL0     C 2220   3.848   9.092   6.048  0.6120 -0.2415  0.0918
   17MOL0     C 2221   4.002   9.109   6.043 -0.3204 -0.3511  0.1799
   17MOL0     C 2222   4.070   9.211   5.949 -0.2010 -0.2900 -0.0333
   17MOL0     C 2223   4.215   9.211   5.941 -1.2034 -0.4530  0.5259
   17MOL0     C 2224   4.256   9.310   5.838  0.0333  0.1462  0.5835
   17MOL0     C 2225   4.283   9.390   5.751  0.0966 -0.3935  0.0252
   17MOL0     C 2226   3.551   9.113   5.996  0.1769  0.6058  0.2094
   17MOL0     C 2227   3.416   9.130   6.013 -0.1893 -0.1220  0.1971
   17MOL0     H 2228   3.078   9.305   6.390 -0.1084  0.6185  0.3461
   17MOL0     H 2229   2.848   9.313   6.474  0.3209 -0.5024  0.1546
   17MOL0     H 2230   2.657   9.382   6.540 -2.1613  0.0551  1.2195
   17MOL0     H 2231   2.665   9.535   6.455  1.4639 -0.5049 -2.4264
   17MOL0     H 2232   2.402   9.479   6.416 -1.2780 -1.0788  0.6980
   17MOL0     H 2233   2.440   9.352   6.532 -3.9609 -1.3316 -3.4733
   17MOL0     H 2234   2.502   9.543   6.699 -0.8115 -0.2731  0.4825
   17MOL0     H 2235   2.480   9.655   6.557 -0.4605  0.3073 -0.0152
   17MOL0     H 2236   2.228   9.486   6.613  0.5110  0.7673 -0.3643
   17MOL0     H 2237   2.278   9.573   6.755 -2.1585 -3.6931  0.1116
   17MOL0     H 2238   2.316   9.777   6.594  1.6945 -0.4792 -1.2667
   17MOL0     H 2239   2.225   9.679   6.472  0.1436 -0.8438 -0.2949
   17MOL0     H 2240   2.036   9.693   6.608  0.8380  0.5773 -3.5582
   17MOL0     H 2241   2.127   9.764   6.745  2.2905  0.0844  0.0849
   17MOL0     H 2242   2.128   9.883   6.460  0.6418  1.8567 -0.7235
   17MOL0     H 2243   2.000   9.937   6.566  0.5870  1.0655 -1.2870
   17MOL0     H 2244   2.174  10.098   6.566 -0.0871 -2.0571 -2.6491
   17MOL0     H 2245   2.295   9.986   6.633  0.5589  3.3443  2.0916
   17MOL0     H 2246   1.945  10.160   6.735  1.3924 -0.5009 -2.0083
   17MOL0     H 2247   1.798  10.145   6.956 -0.3147 -2.7506  0.0316
   17MOL0     H 2248   1.888  10.096   7.098  0.2311 -1.7325 -1.2797
   17MOL0     H 2249   1.929  10.357   6.933 -1.1907  2.3157  1.4743
   17MOL0     H 2250   1.988  10.334   7.102  1.0728  1.8093 -0.0813
   17MOL0     H 2251   1.769  10.320   7.197 -0.1247  0.7819  0.5946
   17MOL0     H 2252   1.689  10.363   7.041  0.1393 -0.7158  0.6662
   17MOL0     H 2253   1.795  10.563   7.027 -0.2212  0.7511 -0.1852
   17MOL0     H 2254   1.912  10.528   7.153 -0.0804  0.7747 -1.4745
   17MOL0     H 2255   1.558  10.560   7.012 -2.7113 -0.7717 -1.5801
   17MOL0     H 2256   1.212  10.630   6.984 -0.1765  0.4433  1.1786
   17MOL0     H 2257   1.337  10.749   6.910  3.3136  1.3871  3.4994
   17MOL0     H 2258   1.354  10.566   6.903  3.3124  1.8757  1.0441
   17MOL0     H 2259   0.990  10.739   6.977  1.6076 -0.9665  1.4700
   17MOL0     H 2260   0.742  10.793   6.977 -0.6112 -0.2918  0.9505
   17MOL0     H 2261   0.649  11.101   6.900 -0.3799 -0.2840 -0.2605
   17MOL0     H 2262   0.530  10.982   6.915  1.8042 -1.2822  1.7526
   17MOL0     H 2263   0.506  11.234   7.081 -0.5741  1.9871 -2.5321
   17MOL0     H 2264   0.421  11.215   6.937  0.4134 -0.3123 -1.0030
   17MOL0     H 2265   0.387  11.030   7.169 -0.7662 -1.9047 -0.1091
   17MOL0     H 2266   0.323  10.993   7.008  1.1527 -1.0824  0.4128
   17MOL0     H 2267   0.257  11.231   7.197  1.0990  0.6851 -0.0808
   17MOL0     H 2268   0.208  11.233   7.028  0.3232  2.1734  1.0879
   17MOL0     H 2269   0.150  10.995   7.223  3.3026  0.5519 -0.6268
   17MOL0     H 2270   0.083  11.029   7.056  0.6620  0.0112 -0.2178
   17MOL0     H 2271   0.030  11.234   7.269  1.3847 -2.7244  2.5219
   17MOL0     H 2272  -0.061  11.184   7.128 -1.0183  1.0125  1.5916
   17MOL0     H 2273  -0.039  11.052   7.396  0.0603  1.9970  0.6943
   17MOL0     H 2274  -0.138  10.981   7.255  1.2057 -0.7178  0.3391
   17MOL0     H 2275  -0.224  11.224   7.262  0.9953  1.2853 -0.1621
   17MOL0     H 2276  -0.159  11.226   7.428 -0.5434  0.1760  0.5840
   17MOL0     H 2277   0.846  11.168   7.171  0.6619 -0.1532 -1.0453
   17MOL0     H 2278   1.076  11.098   7.183 -0.9901  1.6478 -1.6800
   17MOL0     H 2279   1.374  10.759   7.433  0.7370  0.6364 -0.0453
   17MOL0     H 2280   1.592  10.653   7.433 -0.0013 -2.5409  0.3248
   17MOL0     H 2281   2.701   9.379   6.081 -1.4622 -0.7307  2.5115
   17MOL0     H 2282   2.947   9.369   5.991  1.4519 -1.9828  0.5152
   17MOL0     H 2283   3.401   9.454   6.115 -3.1324 -1.8415  1.0484
   17MOL0     H 2284   3.657   9.423   6.080  1.1140 -0.7908 -0.5775
   17MOL0     H 2285   3.830   9.058   6.150 -0.0264  1.0703  0.4328
   17MOL0     H 2286   3.811   9.022   5.973  1.5440  0.5989 -1.1895
   17MOL0     H 2287   4.039   9.009   6.017 -1.6481 -0.2608 -2.3307
   17MOL0     H 2288   4.029   9.128   6.148  0.3847 -1.0984  0.1383
   17MOL0     H 2289   4.044   9.314   5.974 -3.1058 -0.4969 -1.7815
   17MOL0     H 2290   4.019   9.191   5.854  0.6355  1.5359 -0.9056
   17MOL0     H 2291   4.250   9.116   5.900  0.2225  1.2052 -2.4504
   17MOL0     H 2292   4.268   9.237   6.034 -0.3762  0.5899 -0.2109
   17MOL0     H 2293   4.299   9.466   5.678  2.2492 -1.0738 -0.2973
   17MOL0     H 2294   3.583   9.014   5.964 -1.0978  0.6647 -1.3374
   17MOL0     H 2295   3.362   9.039   5.988  3.7228 -3.1861  1.7472
   18MOL0     O 2296   2.446   9.047   5.823  0.5444 -0.5880 -0.5122
   18MOL0     C 2297   2.549   9.111   5.851  0.6535 -0.0069 -0.6304
   18MOL0     O 2298   2.557   9.233   5.910  0.1115  0.0347  0.5292
   18MOL0     C 2299   2.434   9.273   5.954  0.3694 -0.1081 -0.0994
   18MOL0     C 2300   2.377   9.228   6.074  0.1985  0.1770 -0.3086
   18MOL0     C 2301   2.269   9.286   6.136  0.1552  0.9685 -0.4220
   18MOL0     C 2302   2.195   9.388   6.073 -1.3458 -0.2574  0.2020
   18MOL0     O 2303   2.077   9.439   6.120 -0.3326  0.2007 -0.0885
   18MOL0     C 2304   2.096   9.478   6.255 -0.0534  0.1467  0.8031
   18MOL0     C 2305   2.004   9.595   6.287  0.0034  0.7909  0.4872
   18MOL0     C 2306   1.849   9.568   6.277  0.3112 -1.1144 -0.9130
   18MOL0     C 2307   1.757   9.642   6.389 -0.1305 -0.0957  0.1979
   18MOL0     C 2308   1.759   9.789   6.391  0.3611 -0.9779  0.2702
   18MOL0     C 2309   1.710   9.848   6.520  0.1594  0.6967  0.1254
   18MOL0     C 2310   1.709   9.999   6.517 -0.1062 -0.2056 -0.5291
   18MOL0     C 2311   1.651  10.061   6.655 -0.1325 -0.3016  0.0750
   18MOL0     N 2312   1.667  10.205   6.659  0.1676 -0.1184 -0.2296
   18MOL0     C 2313   1.663  10.293   6.558  0.7657 -0.4730  0.6987
   18MOL0     C 2314   1.657  10.419   6.616 -0.9331  0.1756 -0.3444
   18MOL0     C 2315   1.640  10.543   6.536 -0.8670  0.2273  0.5065
   18MOL0     C 2316   1.548  10.652   6.597 -0.5302  0.3360  0.2152
   18MOL0     C 2317   1.549  10.780   6.513 -0.5370 -0.4572  0.3193
   18MOL0     C 2318   1.490  10.889   6.601  0.0890 -0.3719  0.6236
   18MOL0     O 2319   1.353  10.868   6.636  0.4060 -0.3262  0.0886
   18MOL0     C 2320   1.257  10.884   6.541  0.2129  0.4023  0.3675
   18MOL0     C 2321   1.130  10.879   6.593  0.4904  1.8132  0.4295
   18MOL0     C 2322   1.012  10.895   6.517  0.8817 -0.7666  0.7798
   18MOL0     C 2323   0.887  10.895   6.597 -0.2791  0.6265  0.3096
   18MOL0     C 2324   1.018  10.928   6.377 -0.2925  0.5440 -0.0272
   18MOL0     C 2325   0.904  10.967   6.291  0.5223  0.2707 -0.3003
   18MOL0     O 2326   0.947  11.008   6.161 -0.0224  0.5080  0.0324
   18MOL0     C 2327   0.862  11.026   6.055 -0.2950 -0.3622  0.1593
   18MOL0     C 2328   0.727  10.971   6.039 -0.0808 -0.1619  0.7452
   18MOL0     C 2329   0.663  10.986   5.918  0.3864  0.1785  0.5821
   18MOL0     C 2330   0.727  11.061   5.808 -0.4923  0.2620 -0.5476
   18MOL0     O 2331   0.664  11.070   5.690  0.2455  0.5775  0.2065
   18MOL0     C 2332   0.740  11.061   5.573 -0.0103  0.6420 -0.6549
   18MOL0     C 2333   0.654  11.039   5.453 -0.1441  0.4503 -0.1592
   18MOL0     C 2334   0.572  11.164   5.420 -0.2469  0.4354 -0.3999
   18MOL0     C 2335   0.475  11.129   5.312 -0.4579 -0.1035  0.4554
   18MOL0     C 2336   0.397  11.254   5.254  0.2907  0.5136 -0.0745
   18MOL0     C 2337   0.284  11.318   5.343 -0.7652  1.0301 -0.2748
   18MOL0     C 2338   0.256  11.458   5.300  0.3084 -0.4109  0.7980
   18MOL0     C 2339   0.214  11.468   5.149  0.5573 -0.2289  0.5973
   18MOL0    Cl 2340   0.056  11.387   5.123 -0.3037 -0.3169  0.7219
   18MOL0     C 2341   0.852  11.122   5.832 -0.6594  0.1751  0.5108
   18MOL0     C 2342   0.915  11.109   5.954 -0.5456 -0.4377 -0.5214
   18MOL0     O 2343   0.790  10.951   6.332  0.9671 -0.1690  0.2392
   18MOL0     C 2344   1.152  10.944   6.326 -0.2019 -0.4242  0.7488
   18MOL0     C 2345   1.266  10.917   6.405 -0.4668  0.2086  0.1399
   18MOL0     N 2346   1.663  10.394   6.755 -0.3869 -0.5865 -0.1838
   18MOL0     N 2347   1.669  10.268   6.775  0.4473  0.1892 -0.3838
   18MOL0     C 2348   2.249   9.428   5.951 -0.1884 -0.3840 -0.5752
   18MOL0     C 2349   2.372   9.389   5.891 -0.2337  0.3810  0.1711
   18MOL0     C 2350   2.678   9.055   5.803  0.9372  1.1214  0.1291
   18MOL0     C 2351   2.684   8.922   5.740 -0.0088 -1.0434  1.0881
   18MOL0     C 2352   2.811   8.872   5.715  0.4164  0.5117 -0.3668
   18MOL0     C 2353   2.931   8.939   5.738  0.5284  0.0735  0.3835
   18MOL0     O 2354   3.046   8.865   5.718  0.3219 -0.4487 -0.8894
   18MOL0     C 2355   3.168   8.927   5.748  0.5746  0.2702  0.5023
   18MOL0     C 2356   3.271   8.823   5.719  0.2015 -1.0399  0.5091
   18MOL0     C 2357   3.274   8.723   5.840 -1.1700  1.5118  0.0593
   18MOL0     C 2358   3.321   8.576   5.801  0.1308  0.0860  0.5711
   18MOL0     C 2359   3.210   8.487   5.786 -0.3139 -0.0394  0.3401
   18MOL0     C 2360   3.125   8.403   5.769  0.2848 -0.2207  0.8273
   18MOL0     C 2361   2.923   9.073   5.786 -0.7177 -0.2332 -0.3056
   18MOL0     C 2362   2.797   9.130   5.819 -0.2810  0.2011 -0.3177
   18MOL0     H 2363   2.398   9.131   6.118 -2.9979 -0.6264 -0.2965
   18MOL0     H 2364   2.218   9.242   6.221 -0.3206  0.4104 -0.9878
   18MOL0     H 2365   2.073   9.404   6.332  0.1457  0.4451  1.1520
   18MOL0     H 2366   2.199   9.506   6.278 -0.3367 -0.0623  2.4324
   18MOL0     H 2367   2.031   9.630   6.387  0.5915 -0.3076  0.7262
   18MOL0     H 2368   2.021   9.678   6.217  2.7408 -0.8254 -0.9273
   18MOL0     H 2369   1.833   9.612   6.179  0.2382 -0.1221 -0.4696
   18MOL0     H 2370   1.832   9.460   6.280 -2.6176 -0.7888  3.0033
   18MOL0     H 2371   1.651   9.615   6.386 -0.9289  2.7134 -0.0936
   18MOL0     H 2372   1.792   9.602   6.484  2.5521 -0.3331 -0.7891
   18MOL0     H 2373   1.852   9.840   6.364  0.2290 -0.4827  0.7230
   18MOL0     H 2374   1.710   9.829   6.302  1.5637  2.8173  1.1151
   18MOL0     H 2375   1.606   9.815   6.531 -0.3903  2.1372 -0.4852
   18MOL0     H 2376   1.775   9.808   6.597 -2.5556  0.2131  2.3260
   18MOL0     H 2377   1.812  10.034   6.508  1.2552 -3.6737 -0.0149
   18MOL0     H 2378   1.646  10.031   6.434 -0.2122  0.6542 -0.1318
   18MOL0     H 2379   1.703  10.023   6.744  0.6385  1.5184  0.4443
   18MOL0     H 2380   1.547  10.030   6.664 -1.0042  2.0591 -1.0294
   18MOL0     H 2381   1.647  10.280   6.452  1.5019 -2.8037  0.8246
   18MOL0     H 2382   1.735  10.595   6.517 -0.5478 -0.2158  0.8627
   18MOL0     H 2383   1.606  10.515   6.436  0.0429  0.0854  0.2268
   18MOL0     H 2384   1.590  10.676   6.695  2.7719  1.6813 -1.3656
   18MOL0     H 2385   1.450  10.605   6.612 -0.1218 -0.9068 -0.8143
   18MOL0     H 2386   1.495  10.751   6.422  0.0304  1.3218 -0.6452
   18MOL0     H 2387   1.647  10.816   6.479 -1.7164  1.0695 -1.6887
   18MOL0     H 2388   1.514  10.982   6.549 -0.3318 -0.8394 -0.4382
   18MOL0     H 2389   1.553  10.894   6.690  0.9013  2.0024  0.0108
   18MOL0     H 2390   1.115  10.861   6.699 -0.0918 -0.2132  0.0308
   18MOL0     H 2391   0.909  10.837   6.687 -0.8159 -0.9708 -0.5576
   18MOL0     H 2392   0.869  11.001   6.618 -1.6696  1.1207 -2.7722
   18MOL0     H 2393   0.806  10.851   6.538 -1.6776  1.8700  1.2169
   18MOL0     H 2394   0.692  10.898   6.112 -1.6062  0.8441  1.0556
   18MOL0     H 2395   0.567  10.941   5.894  1.2379 -1.1155 -0.5581
   18MOL0     H 2396   0.802  11.151   5.563  2.1505 -0.4431  1.7653
   18MOL0     H 2397   0.803  10.972   5.584 -2.0437 -0.7714  0.0495
   18MOL0     H 2398   0.727  11.033   5.372  2.5171  0.6875  2.0456
   18MOL0     H 2399   0.588  10.953   5.468  0.0756  0.7237  3.0590
   18MOL0     H 2400   0.645  11.231   5.372 -0.5290  0.0740 -1.3647
   18MOL0     H 2401   0.535  11.217   5.508  3.0804 -1.1210  2.1388
   18MOL0     H 2402   0.532  11.089   5.228  0.3883  0.3121  0.8226
   18MOL0     H 2403   0.412  11.049   5.353 -1.8667 -1.3854 -3.6624
   18MOL0     H 2404   0.352  11.230   5.158  0.4126 -0.5553  0.1242
   18MOL0     H 2405   0.472  11.328   5.226  0.3876  0.6491  0.5175
   18MOL0     H 2406   0.209  11.241   5.322  1.0114 -1.2796  1.3554
   18MOL0     H 2407   0.293  11.310   5.452 -0.2293  3.7102 -0.0505
   18MOL0     H 2408   0.344  11.522   5.313  0.1376  0.0303 -0.1371
   18MOL0     H 2409   0.171  11.497   5.357  0.4185  1.7482 -0.3794
   18MOL0     H 2410   0.288  11.426   5.081  0.7945 -1.3198  1.4912
   18MOL0     H 2411   0.202  11.571   5.114  1.1613 -1.0945 -2.4387
   18MOL0     H 2412   0.898  11.175   5.749  0.3581 -0.9547  0.3329
   18MOL0     H 2413   1.011  11.153   5.977 -1.8170  0.9035  2.9866
   18MOL0     H 2414   1.178  10.973   6.225  1.3108 -1.0630  0.9183
   18MOL0     H 2415   1.363  10.936   6.360 -0.3419 -2.4923 -0.9103
   18MOL0     H 2416   2.199   9.514   5.907 -1.2016 -1.1715 -0.9825
   18MOL0     H 2417   2.407   9.429   5.797  0.1940  0.1456  0.2260
   18MOL0     H 2418   2.601   8.852   5.734  0.6409 -1.7567 -0.2193
   18MOL0     H 2419   2.812   8.769   5.681 -0.8210  0.8330 -1.4476
   18MOL0     H 2420   3.176   9.012   5.679 -0.4784 -1.7672 -2.3379
   18MOL0     H 2421   3.175   8.963   5.851 -0.9493 -0.3218  0.8408
   18MOL0     H 2422   3.360   8.886   5.710  0.5927 -1.8286 -1.6532
   18MOL0     H 2423   3.266   8.767   5.626 -0.2975 -0.4888  0.1980
   18MOL0     H 2424   3.178   8.720   5.892 -0.6858  1.8795  1.0078
   18MOL0     H 2425   3.350   8.754   5.912 -1.2715 -2.4790  2.1646
   18MOL0     H 2426   3.389   8.534   5.876  1.9759 -0.9733 -1.5673
   18MOL0     H 2427   3.379   8.575   5.709 -0.5505 -0.8165  0.1371
   18MOL0     H 2428   3.062   8.318   5.751  0.1903 -0.1767  0.9504
   18MOL0     H 2429   3.017   9.123   5.806 -0.2873 -1.3034  0.4278
   18MOL0     H 2430   2.780   9.232   5.852 -4.8358  0.0261 -1.4725
   19MOL0     O 2431   4.514   6.461   1.351 -0.9493 -0.5359  0.4066
   19MOL0     C 2432   4.524   6.389   1.253 -0.8792  0.1437  0.6810
   19MOL0     O 2433   4.627   6.376   1.171 -0.0801 -0.0217 -0.0551
   19MOL0     C 2434   4.754   6.368   1.227  0.0662 -0.1658  0.1520
   19MOL0     C 2435   4.799   6.458   1.325 -1.0707 -0.1354 -0.1549
   19MOL0     C 2436   4.936   6.450   1.365  0.1055  0.0494  0.0154
   19MOL0     C 2437   5.013   6.347   1.301  0.2318 -0.8829 -0.0397
   19MOL0     O 2438   5.144   6.333   1.335  0.0003  0.0466  0.0124
   19MOL0     C 2439   5.226   6.433   1.280  0.8728  0.1601 -0.4934
   19MOL0     C 2440   5.262   6.413   1.131  0.2133  0.1386  0.3010
   19MOL0     C 2441   5.339   6.279   1.111  0.4913 -0.7708 -0.3650
   19MOL0     C 2442   5.424   6.282   0.984 -0.0395 -0.4558 -0.0275
   19MOL0     C 2443   5.536   6.175   0.979  0.9321  0.8468 -0.0474
   19MOL0     C 2444   5.668   6.205   1.051  0.5972  0.8112 -0.6678
   19MOL0     C 2445   5.758   6.270   0.948 -0.3302 -0.2941  0.5119
   19MOL0     C 2446   5.887   6.312   1.023  0.6226  0.6719  0.2373
   19MOL0     N 2447   5.967   6.394   0.932  0.2207  0.1286  0.3209
   19MOL0     C 2448   6.049   6.340   0.838 -0.0170 -0.3859 -0.7279
   19MOL0     C 2449   6.100   6.454   0.773  0.0885 -0.0661  0.1329
   19MOL0     C 2450   6.208   6.431   0.664  0.1994 -0.4253 -0.3645
   19MOL0     C 2451   6.159   6.464   0.519  0.1231  0.9959 -0.3333
   19MOL0     C 2452   6.073   6.354   0.455  0.0401  0.3445  0.3397
   19MOL0     C 2453   5.931   6.345   0.504  0.2381  0.9827 -0.6023
   19MOL0     O 2454   5.895   6.215   0.477 -0.4599  0.0862  0.0690
   19MOL0     C 2455   5.770   6.164   0.509 -0.1344  0.8297  1.0244
   19MOL0     C 2456   5.746   6.030   0.470  0.3218  0.5684  1.3253
   19MOL0     C 2457   5.620   5.973   0.492  0.4543  0.6060 -0.1438
   19MOL0     C 2458   5.604   5.832   0.440  0.1814  0.0311  0.6640
   19MOL0     C 2459   5.512   6.047   0.561 -0.1327  0.6466  0.2779
   19MOL0     C 2460   5.377   5.988   0.603 -0.7277  0.0478  0.1840
   19MOL0     O 2461   5.292   6.074   0.653  0.1661  0.1827 -0.0044
   19MOL0     C 2462   5.162   6.049   0.686  0.2491  0.0329  0.6345
   19MOL0     C 2463   5.084   5.942   0.641  0.1228 -0.0857 -0.6098
   19MOL0     C 2464   4.949   5.918   0.669 -0.8745  0.1359 -0.4067
   19MOL0     C 2465   4.882   6.026   0.720  0.6057  0.0866 -0.1654
   19MOL0     O 2466   4.753   6.014   0.757  0.4527 -0.8347 -0.3348
   19MOL0     C 2467   4.666   5.948   0.660 -0.1647 -0.8837 -0.5562
   19MOL0     C 2468   4.523   5.978   0.710 -0.7987 -0.3447  0.3819
   19MOL0     C 2469   4.487   5.933   0.858  0.1030  0.5951  0.2638
   19MOL0     C 2470   4.338   5.900   0.853  0.0127  0.1455 -0.9532
   19MOL0     C 2471   4.313   5.850   0.990  0.4683 -0.3269  0.9503
   19MOL0     C 2472   4.166   5.810   1.019  0.6249  0.2652  0.6419
   19MOL0     C 2473   4.147   5.759   1.157 -0.5439  0.1463  0.3567
   19MOL0     C 2474   4.033   5.659   1.161  0.9907 -0.2640  0.2299
   19MOL0    Cl 2475   3.882   5.725   1.106 -0.3601 -0.0394 -0.1537
   19MOL0     C 2476   4.954   6.143   0.761  0.1000 -1.1858  0.1257
   19MOL0     C 2477   5.094   6.148   0.752 -0.2737  1.0222 -0.4891
   19MOL0     O 2478   5.370   5.867   0.608 -0.1866  0.8731  0.0319
   19MOL0     C 2479   5.537   6.179   0.592 -0.2420 -0.2830 -0.0194
   19MOL0     C 2480   5.661   6.236   0.566 -0.2548 -0.2614 -0.0617
   19MOL0     N 2481   6.029   6.566   0.806 -0.4757 -0.4494 -0.1351
   19MOL0     N 2482   5.954   6.525   0.905 -0.2457  0.7159  0.4917
   19MOL0     C 2483   4.954   6.263   1.209 -0.5606  0.1362  0.5822
   19MOL0     C 2484   4.828   6.273   1.171 -0.4129  0.4804 -0.1544
   19MOL0     C 2485   4.394   6.332   1.198 -0.2220  0.0937  0.1555
   19MOL0     C 2486   4.284   6.328   1.284  0.3794  0.6153  0.0138
   19MOL0     C 2487   4.161   6.265   1.259 -0.8662  0.4030 -0.4453
   19MOL0     C 2488   4.144   6.211   1.131  0.3846  0.4458 -1.2866
   19MOL0     O 2489   4.032   6.158   1.090  0.4329  0.1457  0.1487
   19MOL0     C 2490   3.915   6.174   1.174  0.1236  0.6927  0.8815
   19MOL0     C 2491   3.915   6.065   1.280  0.1435  0.5748 -0.6690
   19MOL0     C 2492   3.825   6.090   1.394 -0.1954  0.1412 -0.4799
   19MOL0     C 2493   3.682   6.028   1.376 -0.2150 -0.6274 -0.2164
   19MOL0     C 2494   3.620   6.019   1.504  0.4079  0.1589 -0.1380
   19MOL0     C 2495   3.566   6.014   1.610  1.1391 -0.6031  0.0744
   19MOL0     C 2496   4.251   6.219   1.042 -0.6441 -0.5615 -0.2999
   19MOL0     C 2497   4.375   6.269   1.070 -0.2361  0.4934  0.5167
   19MOL0     H 2498   4.738   6.538   1.367  1.7575  2.5070 -0.6986
   19MOL0     H 2499   4.989   6.506   1.442  1.3033 -1.2335  0.1748
   19MOL0     H 2500   5.185   6.535   1.274  2.1050  0.6115 -1.7516
   19MOL0     H 2501   5.319   6.431   1.337  0.5814 -2.5633  0.0066
   19MOL0     H 2502   5.170   6.428   1.074  1.2195  3.2108 -0.7263
   19MOL0     H 2503   5.328   6.496   1.104 -0.3307 -0.1152 -2.0735
   19MOL0     H 2504   5.407   6.266   1.196 -1.1353 -1.3642  0.8895
   19MOL0     H 2505   5.270   6.194   1.107  0.2145 -0.5985  0.6118
   19MOL0     H 2506   5.357   6.276   0.897  2.6743 -0.8595 -2.2214
   19MOL0     H 2507   5.477   6.375   0.962 -3.1907  1.0747 -1.9844
   19MOL0     H 2508   5.483   6.091   1.024 -0.7121  0.5218 -2.4576
   19MOL0     H 2509   5.548   6.157   0.872  1.7638 -0.1185  0.1894
   19MOL0     H 2510   5.651   6.281   1.128  2.7282 -1.1352  1.8949
   19MOL0     H 2511   5.707   6.110   1.090  1.8107  0.7519 -1.9352
   19MOL0     H 2512   5.780   6.205   0.863  1.0662 -1.3846  1.6695
   19MOL0     H 2513   5.707   6.358   0.906 -3.9833 -2.8974 -1.0617
   19MOL0     H 2514   5.923   6.225   1.078 -0.3012  0.3135  0.2882
   19MOL0     H 2515   5.863   6.383   1.102 -0.3708  0.9325 -0.2818
   19MOL0     H 2516   6.079   6.236   0.833  1.7534  0.1630 -3.6192
   19MOL0     H 2517   6.280   6.500   0.708 -0.9551 -0.1527  1.1814
   19MOL0     H 2518   6.259   6.335   0.671 -0.3701 -0.6630  0.6026
   19MOL0     H 2519   6.245   6.475   0.452 -0.1980  1.9194 -0.6059
   19MOL0     H 2520   6.115   6.564   0.517 -0.0609  0.9873  1.5848
   19MOL0     H 2521   6.123   6.257   0.457  0.7432  0.7029  0.2788
   19MOL0     H 2522   6.060   6.389   0.352 -0.5989  2.2234  1.0090
   19MOL0     H 2523   5.865   6.419   0.458 -4.3346 -0.6084  2.6792
   19MOL0     H 2524   5.941   6.347   0.613  1.4297 -1.7386 -0.5693
   19MOL0     H 2525   5.816   5.970   0.414  1.0927  2.3112  0.3430
   19MOL0     H 2526   5.620   5.759   0.519 -2.1235  0.5279  1.6862
   19MOL0     H 2527   5.503   5.811   0.402  0.7660 -3.0195  0.5968
   19MOL0     H 2528   5.674   5.813   0.358  0.1777 -0.2114  0.7185
   19MOL0     H 2529   5.122   5.862   0.578 -2.4879 -2.9553  1.1616
   19MOL0     H 2530   4.894   5.826   0.652  0.0939 -0.6885  0.7249
   19MOL0     H 2531   4.684   5.997   0.564 -0.4705  0.7710  0.1953
   19MOL0     H 2532   4.674   5.839   0.657 -0.8412 -0.9509 -0.1840
   19MOL0     H 2533   4.500   6.083   0.688 -1.2991 -0.8336 -1.5566
   19MOL0     H 2534   4.454   5.925   0.644  1.5672 -1.3717 -1.4078
   19MOL0     H 2535   4.507   6.015   0.926 -1.4477  1.6700 -0.5121
   19MOL0     H 2536   4.544   5.847   0.895 -2.0854  0.5537  4.0516
   19MOL0     H 2537   4.281   5.990   0.830  2.0386  2.1591  1.3459
   19MOL0     H 2538   4.312   5.818   0.785  0.2715  0.1522 -1.0635
   19MOL0     H 2539   4.338   5.933   1.056  1.6127  0.6411 -0.6385
   19MOL0     H 2540   4.378   5.765   1.014  1.9561  0.6425  0.4912
   19MOL0     H 2541   4.103   5.899   1.009  0.7801  0.3920  0.7927
   19MOL0     H 2542   4.143   5.724   0.955 -2.4034  0.9676  0.6241
   19MOL0     H 2543   4.127   5.851   1.213 -2.9251  0.4065 -0.8017
   19MOL0     H 2544   4.243   5.720   1.192  0.8715  1.8301 -1.4588
   19MOL0     H 2545   4.034   5.607   1.257  1.2195  0.5464  0.6802
   19MOL0     H 2546   4.050   5.578   1.090 -1.3978  0.4635 -1.2798
   19MOL0     H 2547   4.914   6.231   0.811  0.2214 -0.8640 -0.3308
   19MOL0     H 2548   5.153   6.230   0.791 -0.1195  0.3522  0.7200
   19MOL0     H 2549   5.466   6.237   0.650  1.1211  0.2558  1.1812
   19MOL0     H 2550   5.689   6.339   0.588  0.3733 -0.1962 -1.0722
   19MOL0     H 2551   5.019   6.192   1.158 -1.9468 -1.0290  0.3972
   19MOL0     H 2552   4.801   6.214   1.084  0.4916 -0.8014  0.4132
   19MOL0     H 2553   4.287   6.370   1.384  0.5558 -3.4280  1.9097
   19MOL0     H 2554   4.083   6.262   1.335 -1.4404 -1.2516 -1.0631
   19MOL0     H 2555   3.905   6.276   1.213 -0.5626  1.4006 -1.0031
   19MOL0     H 2556   3.826   6.152   1.113  2.9018 -2.1272 -2.5859
   19MOL0     H 2557   4.018   6.053   1.316  0.1257 -0.0208 -0.8005
   19MOL0     H 2558   3.886   5.966   1.243  0.1790  0.0314  0.6856
   19MOL0     H 2559   3.818   6.195   1.423  0.0314 -0.5664  2.3642
   19MOL0     H 2560   3.873   6.031   1.472 -1.2286 -1.6862 -1.1617
   19MOL0     H 2561   3.685   5.929   1.330 -2.7249 -0.2734 -1.3012
   19MOL0     H 2562   3.637   6.102   1.309 -0.6384  3.0126  3.6571
   19MOL0     H 2563   3.499   6.007   1.694 -3.5416 -0.0498 -3.1934
   19MOL0     H 2564   4.232   6.161   0.952  0.3133  1.2611 -1.7499
   19MOL0     H 2565   4.457   6.254   1.000 -0.3505  2.9732 -0.2589
   20MOL0     O 2566   6.356   3.637   5.169  0.8714  0.1003  0.3504
   20MOL0     C 2567   6.373   3.750   5.200 -0.0623 -0.3743  0.2339
   20MOL0     O 2568   6.287   3.854   5.188 -0.0422 -0.5570 -0.5113
   20MOL0     C 2569   6.151   3.830   5.171 -0.1631  0.2933 -0.0796
   20MOL0     C 2570   6.067   3.903   5.084  0.1810 -0.3619  0.9322
   20MOL0     C 2571   5.927   3.882   5.080 -0.3654 -0.1685  0.5520
   20MOL0     C 2572   5.864   3.804   5.174  0.1220  0.0209 -0.8154
   20MOL0     O 2573   5.726   3.801   5.178  0.0314  0.4172  0.1233
   20MOL0     C 2574   5.660   3.702   5.255 -0.0345 -0.0625 -0.0844
   20MOL0     C 2575   5.527   3.680   5.187 -0.6853 -0.3786  0.0971
   20MOL0     C 2576   5.439   3.798   5.200  0.3029 -0.6639  0.4293
   20MOL0     C 2577   5.345   3.790   5.324 -0.0047  0.1322 -0.1462
   20MOL0     C 2578   5.261   3.918   5.333 -0.2544 -0.7317  0.3841
   20MOL0     C 2579   5.338   4.042   5.386 -0.1542  0.2996  0.6606
   20MOL0     C 2580   5.309   4.051   5.531  0.4743 -0.1465 -0.5018
   20MOL0     C 2581   5.364   4.178   5.590  0.2565  0.3256 -0.0789
   20MOL0     N 2582   5.337   4.178   5.734  0.2649  0.6799 -0.1444
   20MOL0     C 2583   5.213   4.207   5.795 -0.2395 -0.2177 -0.7627
   20MOL0     C 2584   5.251   4.244   5.915 -0.2599  0.2498 -0.2897
   20MOL0     C 2585   5.149   4.302   6.012 -0.6636  0.5612 -0.5081
   20MOL0     C 2586   5.050   4.188   6.052  0.0045 -0.8402 -0.4008
   20MOL0     C 2587   4.977   4.230   6.184  0.6766  0.7027 -0.0713
   20MOL0     C 2588   4.855   4.311   6.144 -0.1717 -0.0116 -0.2857
   20MOL0     O 2589   4.745   4.236   6.098  0.1637  0.3059  0.1121
   20MOL0     C 2590   4.669   4.167   6.184 -0.4557 -0.3012  0.2958
   20MOL0     C 2591   4.670   4.156   6.316 -0.0732 -1.0275  0.4409
   20MOL0     C 2592   4.575   4.082   6.399 -0.6155  0.0726  0.1651
   20MOL0     C 2593   4.579   4.102   6.554 -0.0812  0.1718 -0.4535
   20MOL0     C 2594   4.488   3.996   6.328  0.5635  0.7616 -0.5394
   20MOL0     C 2595   4.388   3.903   6.391 -0.2108  0.0881  0.3776
   20MOL0     O 2596   4.330   3.809   6.311 -0.0963 -0.2857  0.2578
   20MOL0     C 2597   4.228   3.740   6.365 -0.3436  0.2330  0.1545
   20MOL0     C 2598   4.097   3.780   6.327 -0.2656 -0.5842  0.5008
   20MOL0     C 2599   3.986   3.710   6.380  0.4332 -0.5502 -0.0428
   20MOL0     C 2600   4.008   3.592   6.463 -0.7289  0.6516 -0.1465
   20MOL0     O 2601   3.909   3.513   6.519 -0.4662  0.1203  0.1415
   20MOL0     C 2602   3.771   3.533   6.467  0.2161  0.3961  0.3419
   20MOL0     C 2603   3.693   3.452   6.572  0.4846 -0.2182 -0.0493
   20MOL0     C 2604   3.538   3.456   6.552 -0.0951  0.4197  0.4131
   20MOL0     C 2605   3.465   3.354   6.630  0.2554 -0.4078  0.6402
   20MOL0     C 2606   3.324   3.394   6.665  0.9328 -0.2194 -0.2988
   20MOL0     C 2607   3.250   3.278   6.739 -0.2656  0.2482  0.3832
   20MOL0     C 2608   3.101   3.274   6.732 -1.0315  0.7343  0.7881
   20MOL0     C 2609   3.030   3.400   6.784  0.9499 -0.5654 -0.1299
   20MOL0    Cl 2610   2.851   3.373   6.744 -0.3363 -0.2680  0.0563
   20MOL0     C 2611   4.142   3.557   6.485  0.5669  0.3823 -0.9100
   20MOL0     C 2612   4.250   3.622   6.440 -0.5231 -0.5743 -0.0349
   20MOL0     O 2613   4.365   3.917   6.510 -0.9399 -0.8069  0.0896
   20MOL0     C 2614   4.500   3.998   6.192 -0.4758  0.4794  0.5701
   20MOL0     C 2615   4.591   4.078   6.122 -0.4351  0.2542  0.0788
   20MOL0     N 2616   5.392   4.253   5.928 -0.3371  0.2347  0.5701
   20MOL0     N 2617   5.441   4.195   5.824  0.2029  0.3748 -0.2342
   20MOL0     C 2618   5.943   3.731   5.265 -0.1622  0.6222 -0.6850
   20MOL0     C 2619   6.086   3.746   5.257 -0.2988  0.0127 -1.1058
   20MOL0     C 2620   6.521   3.786   5.214 -0.2866 -0.2511  0.9895
   20MOL0     C 2621   6.627   3.694   5.197  0.2035 -0.0588  0.5343
   20MOL0     C 2622   6.761   3.743   5.192  0.0934  0.2035  0.9028
   20MOL0     C 2623   6.789   3.876   5.226 -0.3060  0.2475  1.0280
   20MOL0     O 2624   6.923   3.918   5.254  0.4896  0.6862  0.7344
   20MOL0     C 2625   6.962   4.019   5.338 -0.0574 -0.6717 -0.0462
   20MOL0     C 2626   7.013   4.139   5.257 -0.1939  0.1744 -0.1823
   20MOL0     C 2627   7.050   4.260   5.343 -0.0764 -0.1276 -0.9763
   20MOL0     C 2628   7.079   4.383   5.260  0.3666 -0.0166  0.4722
   20MOL0     C 2629   7.199   4.377   5.180 -0.1722  0.0686 -0.5756
   20MOL0     C 2630   7.309   4.362   5.125 -0.1144 -0.9407  0.1956
   20MOL0     C 2631   6.682   3.966   5.246  0.2562  0.0704  0.6151
   20MOL0     C 2632   6.553   3.920   5.238  0.3943  0.3716  0.6254
   20MOL0     H 2633   6.104   3.983   5.021 -1.8987  0.6190  0.8782
   20MOL0     H 2634   5.866   3.929   5.004  0.6242 -0.6738 -0.6009
   20MOL0     H 2635   5.717   3.609   5.265  0.3762  0.0508 -1.2698
   20MOL0     H 2636   5.645   3.747   5.353 -2.1543  1.9715 -1.2430
   20MOL0     H 2637   5.532   3.647   5.082 -0.5515 -0.9489  0.2799
   20MOL0     H 2638   5.470   3.607   5.245 -2.8620  1.8435  0.8927
   20MOL0     H 2639   5.496   3.891   5.199  1.5179 -1.3032 -3.6020
   20MOL0     H 2640   5.367   3.808   5.118  1.6494 -0.4129 -0.7623
   20MOL0     H 2641   5.274   3.707   5.322 -1.1640  0.9729  2.5362
   20MOL0     H 2642   5.402   3.780   5.416 -0.1619 -2.6001 -0.2566
   20MOL0     H 2643   5.218   3.945   5.236 -1.4706  0.8274  1.3200
   20MOL0     H 2644   5.175   3.891   5.394 -0.3174 -0.0734  0.5915
   20MOL0     H 2645   5.446   4.039   5.367 -0.1074 -0.2731  1.0142
   20MOL0     H 2646   5.296   4.128   5.333  0.7723  0.8429  0.7820
   20MOL0     H 2647   5.201   4.049   5.548  0.6583 -1.8510  0.6792
   20MOL0     H 2648   5.355   3.969   5.586  0.8390  0.6829  0.4674
   20MOL0     H 2649   5.317   4.261   5.537  0.6373 -1.4102 -3.3861
   20MOL0     H 2650   5.473   4.177   5.581  0.0560 -1.1158 -3.8978
   20MOL0     H 2651   5.116   4.202   5.746 -1.5684  0.4072  1.6754
   20MOL0     H 2652   5.199   4.346   6.099 -1.3278  0.4293 -0.0432
   20MOL0     H 2653   5.089   4.382   5.967  0.8246  2.9051  1.4316
   20MOL0     H 2654   5.111   4.102   6.081 -0.9626 -0.8114  1.9101
   20MOL0     H 2655   4.975   4.160   5.977 -0.5290 -0.0861 -0.1621
   20MOL0     H 2656   5.058   4.274   6.244  1.8748  0.7029 -1.6312
   20MOL0     H 2657   4.947   4.141   6.241  4.0829 -0.0979  0.6896
   20MOL0     H 2658   4.886   4.389   6.073  0.9509 -2.3663 -2.5359
   20MOL0     H 2659   4.817   4.351   6.239  1.3752 -0.4577  0.5604
   20MOL0     H 2660   4.730   4.226   6.373  0.7207  0.1598 -1.7205
   20MOL0     H 2661   4.588   4.005   6.603 -0.7056 -0.1414 -0.9524
   20MOL0     H 2662   4.663   4.160   6.594 -0.4432 -0.0517  0.6493
   20MOL0     H 2663   4.491   4.155   6.590  0.2428 -0.5582  1.5406
   20MOL0     H 2664   4.090   3.860   6.253 -2.6138 -0.6687  0.5620
   20MOL0     H 2665   3.885   3.746   6.359  1.8076  1.5826 -3.8360
   20MOL0     H 2666   3.747   3.639   6.472 -5.6448 -0.6241  0.3679
   20MOL0     H 2667   3.758   3.500   6.364  1.0386  2.0200 -0.3196
   20MOL0     H 2668   3.734   3.351   6.577  1.1958  0.1169  2.0589
   20MOL0     H 2669   3.711   3.498   6.670 -2.9372  2.2282 -0.3665
   20MOL0     H 2670   3.524   3.452   6.444 -0.2365  1.6659  0.3713
   20MOL0     H 2671   3.492   3.551   6.580 -2.4472 -0.2305 -1.0640
   20MOL0     H 2672   3.468   3.256   6.582  2.6401 -0.1513  0.1543
   20MOL0     H 2673   3.521   3.357   6.724 -0.5424 -1.5986  1.1846
   20MOL0     H 2674   3.266   3.404   6.573 -3.0402  1.8915  2.1119
   20MOL0     H 2675   3.311   3.487   6.722 -1.2902 -0.4627 -0.3085
   20MOL0     H 2676   3.278   3.190   6.681  1.3206  0.8661  0.1492
   20MOL0     H 2677   3.296   3.260   6.836  0.5615 -0.9244 -0.2016
   20MOL0     H 2678   3.066   3.187   6.789  1.1715  0.0011  1.1165
   20MOL0     H 2679   3.069   3.266   6.627 -2.2988  2.0026  1.0554
   20MOL0     H 2680   3.066   3.494   6.740  1.0550 -0.2451  0.6209
   20MOL0     H 2681   3.036   3.412   6.893 -1.3064  1.3385 -0.1294
   20MOL0     H 2682   4.156   3.463   6.538  0.4500  1.0007  0.2579
   20MOL0     H 2683   4.355   3.614   6.466 -0.1189 -0.2719 -1.4918
   20MOL0     H 2684   4.446   3.930   6.126  0.1382  2.6350 -2.3950
   20MOL0     H 2685   4.576   4.085   6.015 -2.6192  1.7152  0.4155
   20MOL0     H 2686   5.894   3.667   5.337  0.7846 -0.3155 -0.8554
   20MOL0     H 2687   6.139   3.687   5.331 -1.2652  0.3653 -0.1046
   20MOL0     H 2688   6.608   3.588   5.187  0.7630 -0.3547  2.3524
   20MOL0     H 2689   6.845   3.680   5.165  0.5767  0.4077  1.8935
   20MOL0     H 2690   6.881   4.037   5.409 -0.1862 -0.4885 -0.2373
   20MOL0     H 2691   7.047   3.988   5.399 -2.3607 -2.4966  2.4749
   20MOL0     H 2692   6.939   4.167   5.182 -0.0690 -1.0896 -0.8099
   20MOL0     H 2693   7.103   4.112   5.200 -1.5924  0.2841 -2.5600
   20MOL0     H 2694   7.134   4.237   5.409  0.4507  3.6217 -0.0995
   20MOL0     H 2695   6.967   4.280   5.410  0.5311  2.3048 -0.8450
   20MOL0     H 2696   7.080   4.467   5.330  3.6572 -0.1984  0.8007
   20MOL0     H 2697   6.994   4.396   5.192  0.2445 -3.2655 -0.1447
   20MOL0     H 2698   7.397   4.342   5.068 -0.1894 -0.3997 -0.1144
   20MOL0     H 2699   6.700   4.068   5.280  2.6233  0.0388 -0.2867
   20MOL0     H 2700   6.469   3.988   5.243 -1.5086 -1.8578  0.6645
   21MOL0     O 2701   0.396   1.469   5.512 -1.1996 -0.4995  0.2724
   21MOL0     C 2702   0.359   1.477   5.632 -0.9097 -0.8855  0.6045
   21MOL0     O 2703   0.245   1.420   5.686  0.1965 -0.0094 -0.1634
   21MOL0     C 2704   0.152   1.371   5.609  0.1564 -0.6962 -0.1678
   21MOL0     C 2705   0.165   1.255   5.529  0.3826  0.4224 -0.2115
   21MOL0     C 2706   0.071   1.221   5.432  0.7330 -0.6841  0.7929
   21MOL0     C 2707  -0.045   1.303   5.408  0.2656  0.5435  0.2768
   21MOL0     O 2708  -0.161   1.274   5.336  0.5028 -0.0237  0.3798
   21MOL0     C 2709  -0.141   1.211   5.208  0.2876  0.0824  0.2093
   21MOL0     C 2710  -0.276   1.182   5.149  0.3226  0.4850  0.4350
   21MOL0     C 2711  -0.347   1.064   5.212 -0.0621  0.5435 -0.5560
   21MOL0     C 2712  -0.444   0.997   5.106 -0.0075 -0.5137 -0.4712
   21MOL0     C 2713  -0.563   1.080   5.073 -0.2802 -0.6364  1.1441
   21MOL0     C 2714  -0.657   1.002   4.982 -1.1459 -0.1044 -0.3647
   21MOL0     C 2715  -0.788   1.087   4.958 -0.1927  0.0092  0.4195
   21MOL0     C 2716  -0.880   1.012   4.862  0.3877  0.1593 -0.3087
   21MOL0     N 2717  -1.017   1.073   4.872  0.2392  0.4376 -0.1137
   21MOL0     C 2718  -1.133   1.003   4.895 -0.2660  0.6090 -0.2915
   21MOL0     C 2719  -1.225   1.097   4.921  0.2878 -0.4664 -0.1679
   21MOL0     C 2720  -1.359   1.084   4.983 -0.4057  0.2271 -0.0496
   21MOL0     C 2721  -1.469   1.165   4.904  0.5709 -0.6657 -0.7447
   21MOL0     C 2722  -1.609   1.146   4.950 -0.2401 -0.3621  0.2931
   21MOL0     C 2723  -1.711   1.231   4.873  0.4850 -0.1184  0.7905
   21MOL0     O 2724  -1.843   1.185   4.909  0.1345  0.3474 -0.1909
   21MOL0     C 2725  -1.936   1.154   4.813  0.1309 -0.7907 -0.2569
   21MOL0     C 2726  -1.899   1.090   4.682  0.2772  0.3260 -0.7628
   21MOL0     C 2727  -2.000   1.070   4.587 -0.3925 -0.0144  0.3532
   21MOL0     C 2728  -1.959   1.008   4.447  1.0436  0.2732 -0.8403
   21MOL0     C 2729  -2.137   1.090   4.623  0.1109  0.0596 -0.2576
   21MOL0     C 2730  -2.252   1.050   4.535 -0.0127  0.6036 -0.5852
   21MOL0     O 2731  -2.350   1.151   4.520 -0.0028 -0.0748  0.0457
   21MOL0     C 2732  -2.470   1.124   4.459  0.3974  0.1338 -0.4604
   21MOL0     C 2733  -2.476   1.082   4.321  0.8604  0.1132 -0.1006
   21MOL0     C 2734  -2.597   1.055   4.261  0.3412 -0.0825 -0.2439
   21MOL0     C 2735  -2.719   1.074   4.326 -0.0517 -0.2035  0.2969
   21MOL0     O 2736  -2.838   1.044   4.267  0.3850 -0.3184 -0.0488
   21MOL0     C 2737  -2.867   1.103   4.139 -0.1665  0.1668  0.6449
   21MOL0     C 2738  -3.003   1.044   4.087 -0.2681  0.3183  0.1533
   21MOL0     C 2739  -3.081   1.136   4.000 -0.1824 -0.6240 -0.0304
   21MOL0     C 2740  -3.189   1.064   3.910 -0.3159  0.6789  0.1514
   21MOL0     C 2741  -3.314   1.024   3.993 -0.2001 -0.0396  0.3887
   21MOL0     C 2742  -3.416   0.944   3.914 -0.0938  0.2363 -0.9966
   21MOL0     C 2743  -3.531   0.898   4.005  0.2281 -0.2432  0.0834
   21MOL0     C 2744  -3.567   0.754   3.966 -0.0858 -0.0599 -0.2149
   21MOL0    Cl 2745  -3.658   0.765   3.815  0.8251 -0.3138  0.1080
   21MOL0     C 2746  -2.714   1.132   4.450 -0.1624  0.6138  0.3491
   21MOL0     C 2747  -2.593   1.159   4.520 -0.1056  0.1974  0.1100
   21MOL0     O 2748  -2.259   0.933   4.495  0.0958  0.3121 -0.0806
   21MOL0     C 2749  -2.165   1.138   4.744  0.3197  0.5452 -0.2474
   21MOL0     C 2750  -2.067   1.182   4.833 -0.7829 -0.3451  0.7416
   21MOL0     N 2751  -1.168   1.218   4.913 -0.8525 -0.5695 -0.6866
   21MOL0     N 2752  -1.037   1.209   4.885  0.1016 -0.2324  0.1955
   21MOL0     C 2753  -0.055   1.416   5.492 -0.2793  0.7278 -0.5163
   21MOL0     C 2754   0.041   1.448   5.586 -0.6905  0.1291 -0.0117
   21MOL0     C 2755   0.447   1.563   5.719 -0.3578 -1.4800  0.8915
   21MOL0     C 2756   0.569   1.617   5.668 -0.2408  0.3354 -0.3896
   21MOL0     C 2757   0.641   1.708   5.742 -0.4058  0.4043 -0.8930
   21MOL0     C 2758   0.606   1.751   5.868  0.3125  0.2835  0.0054
   21MOL0     O 2759   0.685   1.849   5.926  0.3944  0.6629 -0.8607
   21MOL0     C 2760   0.639   1.894   6.056 -0.1241 -0.2209  0.1764
   21MOL0     C 2761   0.718   2.004   6.105 -0.2044 -1.6778 -0.3655
   21MOL0     C 2762   0.692   2.045   6.251  1.0614 -0.1502  0.6734
   21MOL0     C 2763   0.542   2.053   6.296 -0.1450  0.3746  0.4987
   21MOL0     C 2764   0.463   2.161   6.227  0.0699  0.3031 -0.2039
   21MOL0     C 2765   0.380   2.224   6.171  0.5971  0.4338  0.9926
   21MOL0     C 2766   0.489   1.690   5.925 -0.2963  0.0838 -0.0556
   21MOL0     C 2767   0.408   1.602   5.846 -1.6464  0.7195 -1.1214
   21MOL0     H 2768   0.253   1.199   5.557  0.1407  0.7597  1.2697
   21MOL0     H 2769   0.074   1.127   5.379 -2.9828 -1.5456  1.8910
   21MOL0     H 2770  -0.083   1.283   5.148 -1.3953  1.5315  0.2470
   21MOL0     H 2771  -0.087   1.117   5.224 -0.5565 -0.3011  0.8219
   21MOL0     H 2772  -0.346   1.267   5.148  1.1218  1.1557  0.1078
   21MOL0     H 2773  -0.258   1.151   5.046 -2.7976 -3.5024  0.8346
   21MOL0     H 2774  -0.268   0.996   5.244 -0.3538  0.8493  0.9166
   21MOL0     H 2775  -0.401   1.091   5.303  2.1535 -0.3577  1.1111
   21MOL0     H 2776  -0.394   0.972   5.012  1.3500 -1.1715  0.3853
   21MOL0     H 2777  -0.479   0.908   5.159 -0.3258  0.9275  1.8976
   21MOL0     H 2778  -0.614   1.108   5.166  2.8836  0.0130  2.8266
   21MOL0     H 2779  -0.526   1.172   5.025  0.8158 -1.7086 -0.1501
   21MOL0     H 2780  -0.601   0.988   4.889  0.9148  1.0468  0.6496
   21MOL0     H 2781  -0.675   0.903   5.027 -6.7501  0.0928 -1.3758
   21MOL0     H 2782  -0.842   1.110   5.050  1.4766 -2.2072  2.0760
   21MOL0     H 2783  -0.761   1.182   4.910  0.7207 -1.5442 -2.3875
   21MOL0     H 2784  -0.886   0.905   4.882 -0.3071 -0.2657 -2.4949
   21MOL0     H 2785  -0.831   1.016   4.764  4.8035 -0.3270  1.6166
   21MOL0     H 2786  -1.131   0.899   4.924  2.6323  1.0640  1.6921
   21MOL0     H 2787  -1.383   0.978   4.974 -1.4143  0.5885 -2.3687
   21MOL0     H 2788  -1.352   1.115   5.087 -1.5859 -1.3898  0.5418
   21MOL0     H 2789  -1.462   1.138   4.798 -1.7075  3.1329 -2.0380
   21MOL0     H 2790  -1.448   1.272   4.915  0.2286 -0.5459 -1.2266
   21MOL0     H 2791  -1.617   1.168   5.057  0.5737  1.0410  0.0934
   21MOL0     H 2792  -1.628   1.041   4.927 -0.0634 -0.4868  0.7038
   21MOL0     H 2793  -1.699   1.227   4.764  0.7980  2.5250  0.6734
   21MOL0     H 2794  -1.705   1.339   4.891 -1.1254 -0.0326  0.9655
   21MOL0     H 2795  -1.796   1.064   4.662  1.7875  4.6264  0.2900
   21MOL0     H 2796  -1.855   1.031   4.424  0.7930 -0.7267 -3.2794
   21MOL0     H 2797  -1.984   0.904   4.425  1.0572 -0.2301  1.2643
   21MOL0     H 2798  -2.027   1.051   4.373 -0.2624 -1.9897 -1.0373
   21MOL0     H 2799  -2.383   1.066   4.268  0.9831  2.7436 -0.7994
   21MOL0     H 2800  -2.593   1.017   4.159 -1.9624 -0.5511 -0.2067
   21MOL0     H 2801  -2.871   1.212   4.127  0.0109 -0.0585 -2.5142
   21MOL0     H 2802  -2.784   1.058   4.084 -2.0632 -1.6338 -0.9386
   21MOL0     H 2803  -2.974   0.951   4.038  1.3181  0.4576  0.7736
   21MOL0     H 2804  -3.051   1.008   4.178  2.7760 -2.0366  1.0080
   21MOL0     H 2805  -3.012   1.190   3.935 -2.1147 -1.9414 -3.4394
   21MOL0     H 2806  -3.140   1.211   4.054 -0.1323  0.0432 -0.8763
   21MOL0     H 2807  -3.221   1.130   3.829 -0.6699  0.0081 -0.2551
   21MOL0     H 2808  -3.136   0.976   3.873 -2.9440 -1.9260  2.1568
   21MOL0     H 2809  -3.352   1.113   4.044 -1.2395  0.7456 -1.6317
   21MOL0     H 2810  -3.284   0.968   4.082 -0.2854 -0.0632  0.4031
   21MOL0     H 2811  -3.451   1.020   3.843 -1.6728  0.2514 -0.2343
   21MOL0     H 2812  -3.360   0.863   3.866 -0.6629 -0.8848  0.1770
   21MOL0     H 2813  -3.613   0.970   3.996  1.9111  1.8181  0.2730
   21MOL0     H 2814  -3.502   0.896   4.110 -0.3617  2.4983  0.3756
   21MOL0     H 2815  -3.631   0.709   4.043 -0.4998  1.8872  0.6258
   21MOL0     H 2816  -3.484   0.682   3.963 -1.1243 -1.3416  0.5293
   21MOL0     H 2817  -2.805   1.166   4.497 -0.8078 -0.5053 -0.0457
   21MOL0     H 2818  -2.574   1.206   4.615 -1.6918  1.2816 -0.0779
   21MOL0     H 2819  -2.268   1.164   4.767  0.5196  1.8063 -0.7013
   21MOL0     H 2820  -2.111   1.235   4.917 -3.1398  1.8444 -1.6667
   21MOL0     H 2821  -0.142   1.481   5.480 -2.7566 -2.3291 -0.2122
   21MOL0     H 2822   0.028   1.518   5.668  2.0829 -1.3035  1.8001
   21MOL0     H 2823   0.603   1.590   5.569 -1.2419  0.4428 -0.7742
   21MOL0     H 2824   0.733   1.737   5.693  1.2423  0.2130  1.8877
   21MOL0     H 2825   0.537   1.927   6.034 -0.5810 -1.3048  0.6134
   21MOL0     H 2826   0.640   1.808   6.124 -2.1566  0.2673  0.8716
   21MOL0     H 2827   0.713   2.093   6.041  2.7094 -1.1638 -0.0019
   21MOL0     H 2828   0.818   1.960   6.097 -1.3014 -4.8065  1.2905
   21MOL0     H 2829   0.746   2.139   6.268  2.1794 -0.9695  1.9028
   21MOL0     H 2830   0.741   1.970   6.314  0.6010 -2.9620 -2.0635
   21MOL0     H 2831   0.550   2.085   6.400  1.7877  2.4084 -0.2065
   21MOL0     H 2832   0.497   1.957   6.267  5.2265 -1.8743 -1.7540
   21MOL0     H 2833   0.302   2.279   6.122  0.3748  0.3423  1.2403
   21MOL0     H 2834   0.461   1.706   6.028  2.8376  1.3050  0.7336
   21MOL0     H 2835   0.320   1.545   5.873  0.3878 -2.9384 -1.5223
   22MOL0     O 2836   3.003   4.339   4.127  0.8887 -0.2097 -0.2528
   22MOL0     C 2837   3.047   4.321   4.238 -0.0397  0.5697  0.2232
   22MOL0     O 2838   3.000   4.373   4.352  0.8760 -0.1927 -0.2030
   22MOL0     C 2839   2.882   4.445   4.355  0.3061 -0.2811 -0.3104
   22MOL0     C 2840   2.761   4.403   4.296 -0.0906 -0.0805 -1.3219
   22MOL0     C 2841   2.647   4.482   4.308  0.0182  0.2803 -0.4225
   22MOL0     C 2842   2.647   4.601   4.377 -0.2174  0.1873 -0.3908
   22MOL0     O 2843   2.531   4.671   4.394 -0.3170  0.4102 -0.0227
   22MOL0     C 2844   2.416   4.609   4.440  0.5121  0.1742 -0.1173
   22MOL0     C 2845   2.282   4.702   4.451  0.0893 -0.7720  0.5037
   22MOL0     C 2846   2.162   4.648   4.524 -0.5433 -0.3939  0.0126
   22MOL0     C 2847   2.042   4.743   4.499 -0.9470 -0.7502 -0.3241
   22MOL0     C 2848   1.925   4.691   4.588 -0.6455 -0.4203  0.4633
   22MOL0     C 2849   1.849   4.574   4.519  0.2004  0.6159 -0.0842
   22MOL0     C 2850   1.719   4.530   4.599 -0.0428  0.2351 -0.3566
   22MOL0     C 2851   1.641   4.418   4.522 -0.8851 -0.3341 -0.6546
   22MOL0     N 2852   1.516   4.403   4.593 -0.3850  0.4447 -0.7965
   22MOL0     C 2853   1.484   4.290   4.662 -0.8820 -0.6228  0.0055
   22MOL0     C 2854   1.375   4.315   4.734 -0.3501 -0.6872  0.0012
   22MOL0     C 2855   1.297   4.220   4.823 -0.5054  0.4878  0.1650
   22MOL0     C 2856   1.154   4.265   4.824 -0.0718 -0.4003 -0.5013
   22MOL0     C 2857   1.070   4.193   4.931  0.3603 -0.4144 -0.1939
   22MOL0     C 2858   0.952   4.281   4.978  0.2180 -0.3224  0.1462
   22MOL0     O 2859   0.868   4.313   4.868 -0.1437 -0.7780  0.6367
   22MOL0     C 2860   0.778   4.225   4.822 -0.6390  0.2532 -0.0821
   22MOL0     C 2861   0.728   4.109   4.874  0.6774  1.7855  0.2235
   22MOL0     C 2862   0.631   4.023   4.817  0.2177  0.2117 -0.5135
   22MOL0     C 2863   0.545   3.930   4.912  0.3043 -0.1214  0.0989
   22MOL0     C 2864   0.581   4.058   4.689 -0.0717  0.3852  0.1108
   22MOL0     C 2865   0.487   3.959   4.625 -0.3307  0.0257 -0.2183
   22MOL0     O 2866   0.510   3.824   4.631 -1.1171  0.1011 -0.5673
   22MOL0     C 2867   0.424   3.724   4.588 -0.2246 -0.3555 -0.7131
   22MOL0     C 2868   0.453   3.643   4.483 -0.3981  0.1029 -0.0954
   22MOL0     C 2869   0.371   3.549   4.422 -0.5157  0.2037  0.5339
   22MOL0     C 2870   0.250   3.530   4.483  0.2520  0.7067 -0.6292
   22MOL0     O 2871   0.162   3.429   4.449 -0.5620  0.9561 -0.6568
   22MOL0     C 2872   0.134   3.327   4.546  1.4989  0.1152  0.8566
   22MOL0     C 2873   0.266   3.266   4.598  0.3557 -0.1030 -0.3008
   22MOL0     C 2874   0.339   3.196   4.490  0.3567  0.4253 -0.3437
   22MOL0     C 2875   0.468   3.142   4.542 -0.1277 -0.3394 -0.3347
   22MOL0     C 2876   0.537   3.045   4.438  0.0983  0.2478 -0.9094
   22MOL0     C 2877   0.667   3.007   4.500 -0.0492  0.4787  0.4521
   22MOL0     C 2878   0.717   2.878   4.439 -0.2409  0.8777 -1.4985
   22MOL0     C 2879   0.845   2.827   4.506  0.0474  0.2841 -0.1211
   22MOL0    Cl 2880   0.815   2.786   4.679  0.1660 -0.0678 -0.0332
   22MOL0     C 2881   0.206   3.613   4.591 -0.1661  0.3756 -0.1003
   22MOL0     C 2882   0.294   3.709   4.637  0.1447 -0.0542 -0.0649
   22MOL0     O 2883   0.398   4.000   4.549  0.7030  0.1425  0.6090
   22MOL0     C 2884   0.623   4.174   4.625 -0.5876  0.0913  2.1015
   22MOL0     C 2885   0.727   4.252   4.693 -0.5778 -0.0214 -0.9938
   22MOL0     N 2886   1.344   4.452   4.708 -0.1611 -0.1395  0.5115
   22MOL0     N 2887   1.421   4.505   4.621  0.1306  0.4423  0.1069
   22MOL0     C 2888   2.768   4.646   4.426 -0.9012 -0.4736 -0.3599
   22MOL0     C 2889   2.881   4.572   4.414 -0.3811  0.7415  0.0043
   22MOL0     C 2890   3.171   4.246   4.244  1.2108 -0.0134 -0.0645
   22MOL0     C 2891   3.174   4.145   4.339 -0.0374  0.4542 -0.7063
   22MOL0     C 2892   3.299   4.085   4.361 -0.3088 -0.5236 -0.0495
   22MOL0     C 2893   3.414   4.109   4.290  0.1878 -0.3680 -0.1233
   22MOL0     O 2894   3.523   4.023   4.300  0.6307 -0.4595  0.1730
   22MOL0     C 2895   3.601   4.013   4.182 -0.4109  0.0918  0.3617
   22MOL0     C 2896   3.653   3.867   4.178  0.2121  0.7481  0.6529
   22MOL0     C 2897   3.559   3.761   4.231  0.0687 -0.0321 -0.8874
   22MOL0     C 2898   3.566   3.626   4.148 -0.0556 -0.3992 -0.3530
   22MOL0     C 2899   3.454   3.535   4.170  0.4293  0.0015 -0.4601
   22MOL0     C 2900   3.369   3.452   4.189  1.5007 -0.3906  0.6564
   22MOL0     C 2901   3.408   4.209   4.203 -0.5621 -0.4423  0.2409
   22MOL0     C 2902   3.289   4.284   4.174 -0.9357  0.4429 -0.4124
   22MOL0     H 2903   2.756   4.317   4.230  0.8545 -2.6104  1.6908
   22MOL0     H 2904   2.552   4.447   4.268 -0.8290  1.0464  0.8531
   22MOL0     H 2905   2.399   4.523   4.375  0.4370  1.0237 -1.2561
   22MOL0     H 2906   2.427   4.575   4.543 -1.6101  0.4080  0.2342
   22MOL0     H 2907   2.323   4.796   4.489  3.7935 -2.9935  2.5996
   22MOL0     H 2908   2.249   4.719   4.348 -0.5112 -0.6222  0.7184
   22MOL0     H 2909   2.137   4.547   4.488 -4.6173 -0.3998  2.2043
   22MOL0     H 2910   2.190   4.643   4.630  0.3469  1.3614 -0.1095
   22MOL0     H 2911   2.079   4.843   4.523  3.0864 -1.3443 -2.9280
   22MOL0     H 2912   2.015   4.748   4.393  4.5584  2.8737 -2.0261
   22MOL0     H 2913   1.961   4.660   4.687 -3.9601  0.6180  2.1694
   22MOL0     H 2914   1.863   4.774   4.622 -0.0862 -1.5390  4.9580
   22MOL0     H 2915   1.823   4.602   4.417  1.0735  1.6427 -0.0357
   22MOL0     H 2916   1.914   4.487   4.509  1.2054  1.1607  1.3701
   22MOL0     H 2917   1.749   4.506   4.701 -4.3234  0.8418  1.2673
   22MOL0     H 2918   1.658   4.621   4.601  1.4668  1.3065 -1.1981
   22MOL0     H 2919   1.694   4.323   4.533  1.6036  1.2911  4.1817
   22MOL0     H 2920   1.632   4.437   4.415  0.3833  0.5141 -0.6404
   22MOL0     H 2921   1.535   4.194   4.660 -1.9151 -1.1789 -1.5227
   22MOL0     H 2922   1.303   4.121   4.777 -0.9108  1.8102 -2.9249
   22MOL0     H 2923   1.346   4.213   4.921  1.3924 -1.2487 -0.8091
   22MOL0     H 2924   1.099   4.265   4.730 -3.6674  0.9656  1.4108
   22MOL0     H 2925   1.150   4.371   4.849  3.7269 -0.1871 -0.2598
   22MOL0     H 2926   1.132   4.185   5.021  0.2308  3.2583  0.3543
   22MOL0     H 2927   1.039   4.094   4.895 -0.2644 -0.0352 -0.7134
   22MOL0     H 2928   0.995   4.375   5.014  2.3432 -1.1325 -0.1243
   22MOL0     H 2929   0.905   4.218   5.054  1.7580 -3.4609 -1.2965
   22MOL0     H 2930   0.752   4.086   4.977 -1.9518  1.4188  0.8336
   22MOL0     H 2931   0.439   3.912   4.892  0.5673  0.8328 -2.4890
   22MOL0     H 2932   0.595   3.833   4.909 -0.4104 -0.6806  2.8486
   22MOL0     H 2933   0.546   3.970   5.014  1.2267  1.2447 -0.4182
   22MOL0     H 2934   0.550   3.668   4.441 -0.2755  0.4289  0.3694
   22MOL0     H 2935   0.415   3.481   4.349 -1.1040 -2.3350  2.3942
   22MOL0     H 2936   0.062   3.359   4.622  1.7139 -2.1886  2.1182
   22MOL0     H 2937   0.079   3.246   4.498  3.8954 -0.8279 -0.4437
   22MOL0     H 2938   0.328   3.339   4.652 -1.4521  0.9287  0.4691
   22MOL0     H 2939   0.231   3.192   4.670  1.6264 -1.6532 -1.2297
   22MOL0     H 2940   0.368   3.256   4.403  1.2787 -1.0780 -1.1266
   22MOL0     H 2941   0.275   3.114   4.455 -0.9091  1.0887  0.3345
   22MOL0     H 2942   0.534   3.223   4.574 -1.9612  0.9870  0.2135
   22MOL0     H 2943   0.435   3.086   4.630 -1.8190 -0.2666 -0.8996
   22MOL0     H 2944   0.540   3.087   4.337  1.5744  0.0492 -0.9737
   22MOL0     H 2945   0.473   2.958   4.432  2.4238 -1.5259 -1.5085
   22MOL0     H 2946   0.743   3.086   4.494  3.8091 -2.7789  1.7604
   22MOL0     H 2947   0.660   3.014   4.609 -3.8494  1.0686  0.2773
   22MOL0     H 2948   0.742   2.901   4.335 -4.1752  1.3303 -2.4901
   22MOL0     H 2949   0.642   2.799   4.436 -0.1074  0.4856  1.8817
   22MOL0     H 2950   0.923   2.900   4.485 -1.0772  1.3389 -0.7576
   22MOL0     H 2951   0.873   2.732   4.458 -2.4828 -0.9408  0.6415
   22MOL0     H 2952   0.111   3.604   4.642  1.0862 -1.1430  2.1776
   22MOL0     H 2953   0.252   3.777   4.711 -0.5399  0.5903 -1.0128
   22MOL0     H 2954   0.594   4.190   4.521  1.3635  1.1175  1.6662
   22MOL0     H 2955   0.752   4.340   4.634  2.9676 -1.3158 -1.6480
   22MOL0     H 2956   2.770   4.740   4.480  1.8352 -1.0470  0.6800
   22MOL0     H 2957   2.977   4.591   4.461 -0.4519 -2.0569  1.4820
   22MOL0     H 2958   3.093   4.108   4.400  1.0057 -1.5084 -0.4173
   22MOL0     H 2959   3.305   4.002   4.431  0.9849 -1.0479 -0.7432
   22MOL0     H 2960   3.547   4.031   4.088 -0.7064 -1.5518  0.1889
   22MOL0     H 2961   3.687   4.080   4.181 -1.0973  1.0086  0.1237
   22MOL0     H 2962   3.747   3.856   4.233  0.5445  1.4093  0.2368
   22MOL0     H 2963   3.691   3.835   4.081 -1.6933 -0.3370  0.2229
   22MOL0     H 2964   3.456   3.798   4.239  0.3514  0.6621 -0.3388
   22MOL0     H 2965   3.574   3.742   4.338 -0.6078 -0.1872 -0.8132
   22MOL0     H 2966   3.656   3.581   4.190  0.3343  1.6595  1.1376
   22MOL0     H 2967   3.570   3.652   4.042  0.1731 -1.3064 -0.5789
   22MOL0     H 2968   3.286   3.384   4.193  1.5379 -0.7391 -2.3822
   22MOL0     H 2969   3.492   4.242   4.142 -2.6963  3.2800 -1.0372
   22MOL0     H 2970   3.290   4.362   4.099 -2.7049  0.6884 -0.2380
   23MOL0     O 2971   9.997   7.818   4.607 -0.9127  0.2750 -0.1440
   23MOL0     C 2972   9.981   7.717   4.675 -0.1692  0.4293 -0.5094
   23MOL0     O 2973   9.871   7.687   4.752 -0.3089  0.0747  0.5531
   23MOL0     C 2974   9.750   7.755   4.767 -0.6627  0.5888 -0.1757
   23MOL0     C 2975   9.733   7.889   4.731 -0.7609  0.1353 -0.0564
   23MOL0     C 2976   9.620   7.961   4.767 -0.5880  0.4626 -0.2242
   23MOL0     C 2977   9.512   7.901   4.837 -0.2530 -0.5176  0.1840
   23MOL0     O 2978   9.392   7.969   4.876  0.3843 -0.2878  0.0013
   23MOL0     C 2979   9.347   8.098   4.818  0.3429 -0.3407 -0.1436
   23MOL0     C 2980   9.251   8.154   4.913  0.4167  0.4246  0.3653
   23MOL0     C 2981   9.193   8.281   4.851  0.1597 -0.0505  0.0420
   23MOL0     C 2982   9.075   8.325   4.944  0.1960  0.3844  0.2631
   23MOL0     C 2983   9.001   8.451   4.886 -0.5175  0.3801  0.3270
   23MOL0     C 2984   8.893   8.497   4.977 -0.9675 -0.3694 -0.3282
   23MOL0     C 2985   8.758   8.447   4.937  0.1714 -0.5561 -1.3598
   23MOL0     C 2986   8.657   8.554   4.983 -0.2453 -0.1152  0.2701
   23MOL0     N 2987   8.587   8.634   4.875  0.2961  0.0530 -0.1582
   23MOL0     C 2988   8.557   8.583   4.748  0.5517 -0.6445  0.1651
   23MOL0     C 2989   8.497   8.688   4.686 -0.5224 -0.0454 -0.3141
   23MOL0     C 2990   8.442   8.686   4.541 -1.5995 -0.9695  0.6816
   23MOL0     C 2991   8.309   8.623   4.547 -0.1196 -0.0197  0.6107
   23MOL0     C 2992   8.249   8.615   4.408 -0.3924  0.1865  0.2030
   23MOL0     C 2993   8.106   8.581   4.420 -0.3334  0.0549  0.3504
   23MOL0     O 2994   8.052   8.583   4.289 -0.1615  0.4369  0.1626
   23MOL0     C 2995   7.932   8.512   4.277  0.5693 -0.2198 -0.2291
   23MOL0     C 2996   7.904   8.454   4.162 -0.2625  0.1052 -0.9233
   23MOL0     C 2997   7.789   8.381   4.134 -0.2516 -0.3221  0.6101
   23MOL0     C 2998   7.778   8.327   3.988  0.6812  0.2578 -0.4169
   23MOL0     C 2999   7.687   8.378   4.239  0.0538  0.2069  0.1652
   23MOL0     C 3000   7.557   8.307   4.221  0.1006  0.6594 -0.5935
   23MOL0     O 3001   7.489   8.281   4.339 -0.1506  0.1689  0.2143
   23MOL0     C 3002   7.370   8.213   4.350 -0.3570  0.8667 -0.2811
   23MOL0     C 3003   7.278   8.167   4.257 -0.1818 -0.5133 -0.1228
   23MOL0     C 3004   7.162   8.101   4.287  0.0728 -0.5206 -0.2314
   23MOL0     C 3005   7.137   8.075   4.417 -0.1104 -0.6786  0.6807
   23MOL0     O 3006   7.029   8.020   4.473 -0.1395 -0.4887  0.5573
   23MOL0     C 3007   6.919   7.978   4.383 -0.3136  0.2752  0.3410
   23MOL0     C 3008   6.820   7.904   4.474 -0.1227 -0.3108  0.0576
   23MOL0     C 3009   6.697   7.854   4.401 -0.2707  0.2127 -0.5218
   23MOL0     C 3010   6.623   7.764   4.504 -0.7819 -0.0928 -0.2877
   23MOL0     C 3011   6.486   7.722   4.453 -0.0635 -0.2403  0.1960
   23MOL0     C 3012   6.413   7.650   4.570  0.3093  0.2625  0.1427
   23MOL0     C 3013   6.269   7.621   4.536  0.5650  0.5351  0.6221
   23MOL0     C 3014   6.179   7.593   4.658  0.4318 -1.2633 -0.0428
   23MOL0    Cl 3015   6.013   7.551   4.603  0.4120 -0.0741  0.1086
   23MOL0     C 3016   7.225   8.123   4.515 -0.7739  0.2765 -0.0000
   23MOL0     C 3017   7.349   8.184   4.480  0.0101  0.1132 -0.6254
   23MOL0     O 3018   7.514   8.273   4.108 -0.3788 -0.4341  0.2609
   23MOL0     C 3019   7.718   8.425   4.365 -0.2067 -0.2559 -1.0552
   23MOL0     C 3020   7.848   8.473   4.384  0.2390  0.6044  0.1990
   23MOL0     N 3021   8.496   8.797   4.776  0.4633 -0.4583  0.4036
   23MOL0     N 3022   8.549   8.759   4.890  0.1846  0.3558 -0.8570
   23MOL0     C 3023   9.531   7.766   4.873 -0.2415  0.2100  0.0290
   23MOL0     C 3024   9.644   7.694   4.834 -0.5368 -1.3960  0.2017
   23MOL0     C 3025  10.094   7.622   4.674 -0.6050 -0.8254  0.9098
   23MOL0     C 3026  10.202   7.633   4.589 -0.6684 -0.3622  0.0800
   23MOL0     C 3027  10.306   7.536   4.583 -0.0906 -0.1885 -0.5627
   23MOL0     C 3028  10.309   7.425   4.668 -0.9386 -0.0395 -0.3010
   23MOL0     O 3029  10.400   7.325   4.674  0.0460 -0.2409  0.1072
   23MOL0     C 3030  10.509   7.326   4.587  0.3411  1.2869 -0.5929
   23MOL0     C 3031  10.606   7.216   4.646 -0.4631  0.5831  0.0483
   23MOL0     C 3032  10.737   7.219   4.562 -0.1091 -0.4311 -0.1392
   23MOL0     C 3033  10.829   7.090   4.578 -0.2072 -0.2436 -0.1300
   23MOL0     C 3034  10.857   7.083   4.721  0.5191  0.2504 -0.9172
   23MOL0     C 3035  10.874   7.083   4.846 -0.4550 -0.4612 -0.9633
   23MOL0     C 3036  10.206   7.418   4.757  0.5060 -0.4015 -0.0756
   23MOL0     C 3037  10.108   7.517   4.764  1.2313 -0.1734  0.3616
   23MOL0     H 3038   9.810   7.944   4.677  0.7880 -0.7678  1.1458
   23MOL0     H 3039   9.615   8.068   4.752 -0.3819  0.3046 -1.5301
   23MOL0     H 3040   9.430   8.163   4.791 -1.4593  1.7345 -0.9261
   23MOL0     H 3041   9.284   8.071   4.733 -1.1757 -2.0462  1.4123
   23MOL0     H 3042   9.174   8.079   4.934  0.2381  0.1201 -1.2418
   23MOL0     H 3043   9.286   8.172   5.015  1.1069  1.2307 -0.0070
   23MOL0     H 3044   9.278   8.349   4.853 -1.2356  1.7942  3.1202
   23MOL0     H 3045   9.147   8.268   4.752  2.8910  1.4447 -1.5448
   23MOL0     H 3046   9.006   8.242   4.953  1.0073 -0.2727  0.5794
   23MOL0     H 3047   9.106   8.353   5.045 -1.5764  1.3890  0.5682
   23MOL0     H 3048   9.077   8.529   4.884 -3.4201  3.6492  3.2269
   23MOL0     H 3049   8.959   8.437   4.787 -1.0691  2.0361  0.3067
   23MOL0     H 3050   8.912   8.477   5.083  3.4272 -0.2995 -0.8974
   23MOL0     H 3051   8.889   8.607   4.976 -3.0838 -0.3429  1.7546
   23MOL0     H 3052   8.753   8.436   4.828 -1.7073 -1.3244 -1.2447
   23MOL0     H 3053   8.734   8.351   4.984 -1.6065  0.2957 -0.4024
   23MOL0     H 3054   8.705   8.627   5.049 -1.0022 -1.6883  2.7102
   23MOL0     H 3055   8.586   8.502   5.049 -1.7495  1.4017 -0.1050
   23MOL0     H 3056   8.580   8.490   4.695 -1.6079  1.1524 -4.5515
   23MOL0     H 3057   8.430   8.787   4.501  0.0046 -0.7715  0.6154
   23MOL0     H 3058   8.514   8.641   4.471  2.2336  3.1249  1.5202
   23MOL0     H 3059   8.254   8.688   4.616 -4.0212 -0.6740 -1.6190
   23MOL0     H 3060   8.316   8.521   4.587  2.8520 -0.3649 -0.5148
   23MOL0     H 3061   8.313   8.549   4.348  1.8599  2.8650 -0.5439
   23MOL0     H 3062   8.251   8.712   4.357  1.2552 -0.1315 -0.3777
   23MOL0     H 3063   8.059   8.652   4.489 -0.2057 -0.0212  0.5158
   23MOL0     H 3064   8.102   8.479   4.460  1.6309 -0.3485 -0.4127
   23MOL0     H 3065   7.980   8.470   4.087  1.2190 -0.0939  0.4845
   23MOL0     H 3066   7.877   8.309   3.945  1.5313 -3.8923  2.6284
   23MOL0     H 3067   7.734   8.227   3.984 -0.4287  0.7489 -1.0191
   23MOL0     H 3068   7.725   8.400   3.927 -0.9773  0.1134  0.7940
   23MOL0     H 3069   7.298   8.182   4.151  0.6690  1.3166  0.2650
   23MOL0     H 3070   7.094   8.069   4.208 -0.6038  0.9744 -0.2835
   23MOL0     H 3071   6.869   8.070   4.352 -1.0904 -0.1831  0.2029
   23MOL0     H 3072   6.970   7.920   4.305 -0.9693 -1.8828  1.4266
   23MOL0     H 3073   6.879   7.825   4.521 -1.5031 -0.0995  2.3376
   23MOL0     H 3074   6.794   7.968   4.560 -1.6611 -2.6539  1.4586
   23MOL0     H 3075   6.736   7.791   4.321  2.8830 -0.1551  1.1521
   23MOL0     H 3076   6.624   7.933   4.381 -0.4249  0.8065  2.0210
   23MOL0     H 3077   6.683   7.675   4.522  1.1747  1.1105 -0.5806
   23MOL0     H 3078   6.613   7.806   4.604 -0.8203  2.8278 -1.4204
   23MOL0     H 3079   6.498   7.670   4.357 -2.4745  0.2076 -0.4064
   23MOL0     H 3080   6.422   7.808   4.435 -0.8374 -0.8340  0.0422
   23MOL0     H 3081   6.477   7.561   4.579  3.3572  2.0413 -2.1622
   23MOL0     H 3082   6.422   7.707   4.663  1.0251  0.5491 -0.0955
   23MOL0     H 3083   6.272   7.530   4.475  0.9583  1.2725 -0.4875
   23MOL0     H 3084   6.233   7.703   4.474 -1.0120 -0.0263  0.7452
   23MOL0     H 3085   6.161   7.686   4.713  1.9833  0.0814 -1.7032
   23MOL0     H 3086   6.227   7.515   4.718  1.3869 -1.5839 -1.1806
   23MOL0     H 3087   7.208   8.102   4.620 -3.6754 -2.0234 -0.7910
   23MOL0     H 3088   7.413   8.220   4.560  0.2831  0.4442 -0.9906
   23MOL0     H 3089   7.644   8.409   4.443 -2.4165  1.4208 -2.6455
   23MOL0     H 3090   7.881   8.506   4.482 -0.0184  1.0083  0.1549
   23MOL0     H 3091   9.452   7.720   4.932 -0.0402 -0.1065  0.0546
   23MOL0     H 3092   9.644   7.595   4.879 -0.7793 -1.5414 -0.1128
   23MOL0     H 3093  10.213   7.710   4.514  1.2587 -1.2419 -0.5980
   23MOL0     H 3094  10.385   7.543   4.509 -0.8267 -0.7218 -1.4113
   23MOL0     H 3095  10.468   7.297   4.489 -2.8363 -1.0797  1.2471
   23MOL0     H 3096  10.568   7.418   4.579 -1.0005  2.0278 -3.0811
   23MOL0     H 3097  10.565   7.114   4.648 -0.2990  0.5167  0.0305
   23MOL0     H 3098  10.633   7.233   4.750  2.2128  0.2075 -0.5079
   23MOL0     H 3099  10.793   7.310   4.583 -2.6756  1.5882 -1.5250
   23MOL0     H 3100  10.704   7.237   4.459 -1.4439  3.4662  0.8232
   23MOL0     H 3101  10.926   7.115   4.533  0.0376  0.5575  0.8191
   23MOL0     H 3102  10.794   6.994   4.538  1.9129 -1.0113 -0.2498
   23MOL0     H 3103  10.875   7.101   4.951  0.7922 -1.4404 -0.7720
   23MOL0     H 3104  10.202   7.332   4.823 -2.3056 -0.9195 -0.7968
   23MOL0     H 3105  10.031   7.498   4.838  0.0353  1.0343 -0.5505
   24MOL0     O 3106  10.393   2.245  10.142 -0.3592  0.0667  0.3333
   24MOL0     C 3107  10.447   2.285  10.039  0.0423  0.0271 -0.5276
   24MOL0     O 3108  10.404   2.386   9.957 -0.4313 -0.0486 -0.0202
   24MOL0     C 3109  10.270   2.431   9.951 -0.3833  0.4031 -0.3165
   24MOL0     C 3110  10.245   2.503   9.835  0.2232 -0.6318 -0.8368
   24MOL0     C 3111  10.114   2.542   9.806 -0.7647  0.4400  0.1499
   24MOL0     C 3112  10.000   2.499   9.882  0.4797 -0.1475  0.3309
   24MOL0     O 3113   9.873   2.526   9.838  0.3865 -0.6849 -0.2076
   24MOL0     C 3114   9.767   2.439   9.838  0.0596 -0.0634 -0.5394
   24MOL0     C 3115   9.660   2.516   9.760  0.0031 -0.3602 -0.6126
   24MOL0     C 3116   9.545   2.415   9.764 -1.0069 -0.1040 -1.0727
   24MOL0     C 3117   9.414   2.485   9.725 -1.0705  0.6209  0.3980
   24MOL0     C 3118   9.410   2.558   9.595 -0.7164  0.2002  0.0231
   24MOL0     C 3119   9.272   2.604   9.554  0.4399 -0.7635 -0.7544
   24MOL0     C 3120   9.264   2.669   9.409  0.3141  0.4888 -0.1659
   24MOL0     C 3121   9.123   2.715   9.373  0.1315 -0.2839  0.3882
   24MOL0     N 3122   9.024   2.603   9.370  0.8185 -0.2845  0.1797
   24MOL0     C 3123   8.897   2.611   9.424 -0.2203 -0.1117 -0.1464
   24MOL0     C 3124   8.845   2.483   9.407 -0.5895 -0.5757  0.4743
   24MOL0     C 3125   8.708   2.440   9.448 -0.4736  0.3930  0.1302
   24MOL0     C 3126   8.606   2.449   9.336 -0.1356 -1.2069 -0.5004
   24MOL0     C 3127   8.474   2.376   9.376 -0.0452  0.6607  0.9420
   24MOL0     C 3128   8.365   2.390   9.276 -1.3643 -0.0704 -0.7652
   24MOL0     O 3129   8.298   2.521   9.290 -0.6973 -0.3887 -0.2865
   24MOL0     C 3130   8.192   2.537   9.201  0.2427 -0.4409  0.0413
   24MOL0     C 3131   8.121   2.439   9.133  0.2930  0.2957 -0.3381
   24MOL0     C 3132   8.010   2.452   9.057  0.4603  0.1333 -0.0730
   24MOL0     C 3133   7.952   2.327   8.998 -0.1982  1.4289  0.7068
   24MOL0     C 3134   7.950   2.583   9.056  0.0689  0.5089  0.3667
   24MOL0     C 3135   7.827   2.612   8.982 -0.0106 -0.0979  0.0244
   24MOL0     O 3136   7.781   2.510   8.902 -0.6818  0.2679  0.2517
   24MOL0     C 3137   7.666   2.518   8.832  1.3805 -0.0644 -0.4483
   24MOL0     C 3138   7.567   2.420   8.841  0.0077  0.9672  0.0677
   24MOL0     C 3139   7.448   2.436   8.776 -0.4550 -0.4435  0.0566
   24MOL0     C 3140   7.420   2.551   8.701  0.3756 -0.0677 -0.3827
   24MOL0     O 3141   7.303   2.550   8.623  1.4713  0.2537 -0.2497
   24MOL0     C 3142   7.290   2.656   8.527 -0.7826  0.2409 -0.3628
   24MOL0     C 3143   7.169   2.640   8.439 -0.4291  0.9801 -0.4121
   24MOL0     C 3144   7.033   2.670   8.511 -0.2419  0.6241 -0.3470
   24MOL0     C 3145   6.924   2.566   8.461  0.7148  0.0879 -0.1251
   24MOL0     C 3146   6.785   2.632   8.467 -0.1893  0.2997  0.2674
   24MOL0     C 3147   6.782   2.722   8.343  0.5275  0.0222 -0.6280
   24MOL0     C 3148   6.656   2.808   8.349 -0.0698 -0.1098 -0.0707
   24MOL0     C 3149   6.514   2.741   8.348  0.6941 -0.2108  0.7345
   24MOL0    Cl 3150   6.384   2.861   8.313  0.3418 -0.4067 -0.1563
   24MOL0     C 3151   7.514   2.654   8.694  0.1789  0.1605 -0.5962
   24MOL0     C 3152   7.639   2.630   8.754  0.4596 -0.4750  0.2278
   24MOL0     O 3153   7.776   2.727   8.993 -0.0133 -0.2156 -0.5336
   24MOL0     C 3154   8.008   2.683   9.133  0.5526  0.8116  0.1097
   24MOL0     C 3155   8.121   2.658   9.214 -0.1601 -0.7441  0.1636
   24MOL0     N 3156   8.948   2.401   9.349 -0.0527  0.2256  0.3113
   24MOL0     N 3157   9.054   2.476   9.335  0.6000  0.1788  0.6478
   24MOL0     C 3158  10.025   2.415   9.985 -0.3636 -0.1175 -0.0861
   24MOL0     C 3159  10.156   2.380  10.025 -1.0350  0.3544 -0.2737
   24MOL0     C 3160  10.575   2.224  10.009 -0.4361 -0.7712  0.0149
   24MOL0     C 3161  10.680   2.301   9.952  0.4324  0.8117 -1.2599
   24MOL0     C 3162  10.807   2.248   9.924 -0.3982  0.0437 -0.2411
   24MOL0     C 3163  10.834   2.112   9.957 -0.1992 -0.4988  0.0158
   24MOL0     O 3164  10.942   2.040   9.935 -0.5893 -0.2939  0.3682
   24MOL0     C 3165  11.046   2.108   9.861 -0.2623 -0.1080  0.4127
   24MOL0     C 3166  11.157   2.011   9.842  0.6173  0.9182 -0.9445
   24MOL0     C 3167  11.273   2.064   9.757 -0.2612 -0.1975 -0.8041
   24MOL0     C 3168  11.400   1.977   9.766 -0.0176 -0.6502 -0.1723
   24MOL0     C 3169  11.513   2.059   9.706 -0.5035  0.4083 -0.4285
   24MOL0     C 3170  11.608   2.124   9.664 -0.2912  0.1984 -0.1985
   24MOL0     C 3171  10.739   2.044  10.029 -1.0387  0.4718  0.0101
   24MOL0     C 3172  10.611   2.096  10.045 -0.4003 -0.4524 -0.4145
   24MOL0     H 3173  10.323   2.545   9.773  0.8898  0.1960  0.5266
   24MOL0     H 3174  10.094   2.589   9.710 -0.8201  0.2476  0.0658
   24MOL0     H 3175   9.798   2.352   9.780  0.4506  0.6199 -1.3754
   24MOL0     H 3176   9.739   2.404   9.938 -0.1684 -4.0903 -1.8552
   24MOL0     H 3177   9.641   2.616   9.799 -1.6136 -0.8177 -0.1476
   24MOL0     H 3178   9.675   2.529   9.652 -0.0743 -3.7803 -1.1447
   24MOL0     H 3179   9.571   2.324   9.710  1.6980 -0.2070  0.2433
   24MOL0     H 3180   9.517   2.389   9.867  2.1861 -3.2850 -0.8524
   24MOL0     H 3181   9.346   2.400   9.716 -1.0601  0.6675 -0.1490
   24MOL0     H 3182   9.391   2.553   9.808 -0.8670  0.6515  0.4286
   24MOL0     H 3183   9.472   2.648   9.604  2.1357 -1.7017  0.7309
   24MOL0     H 3184   9.455   2.496   9.517  1.0534 -0.7237  1.6892
   24MOL0     H 3185   9.212   2.512   9.552  0.0033 -0.4827 -0.8416
   24MOL0     H 3186   9.228   2.665   9.634  1.7407 -0.3646 -0.3140
   24MOL0     H 3187   9.329   2.757   9.415  1.1567 -0.2107  2.1243
   24MOL0     H 3188   9.304   2.612   9.325 -1.6540  1.2731 -1.7106
   24MOL0     H 3189   9.134   2.765   9.276 -1.6473  0.8461  0.7385
   24MOL0     H 3190   9.087   2.788   9.445 -3.2174 -1.0842 -0.2676
   24MOL0     H 3191   8.840   2.692   9.468 -1.5977 -0.7752 -0.6301
   24MOL0     H 3192   8.721   2.334   9.472  1.3630 -0.2947 -3.2391
   24MOL0     H 3193   8.685   2.504   9.533  1.5685 -0.3538  1.3189
   24MOL0     H 3194   8.655   2.420   9.243  1.1134 -0.8913  0.0401
   24MOL0     H 3195   8.575   2.552   9.321  0.3512 -0.8938  0.5477
   24MOL0     H 3196   8.437   2.418   9.470 -1.8243 -2.0421  1.5881
   24MOL0     H 3197   8.499   2.270   9.390 -2.9258 -0.2154  0.0674
   24MOL0     H 3198   8.294   2.308   9.293  0.4868 -1.7384 -0.6752
   24MOL0     H 3199   8.397   2.365   9.175 -2.1043 -0.3674 -0.9295
   24MOL0     H 3200   8.172   2.344   9.137  1.6295  0.9312 -1.2012
   24MOL0     H 3201   8.030   2.253   9.018  2.5957  3.8343 -0.4427
   24MOL0     H 3202   7.859   2.303   9.049 -0.2969  1.5610  0.5890
   24MOL0     H 3203   7.944   2.324   8.889 -0.4554  2.1742  0.6984
   24MOL0     H 3204   7.593   2.330   8.895  1.1104  0.9519 -0.4480
   24MOL0     H 3205   7.374   2.356   8.775  0.3008 -1.1583  0.2063
   24MOL0     H 3206   7.283   2.755   8.574  2.5063 -0.2638  1.4925
   24MOL0     H 3207   7.376   2.640   8.460 -0.6621 -3.0392  0.4082
   24MOL0     H 3208   7.184   2.700   8.348  1.5367 -1.2995 -1.6985
   24MOL0     H 3209   7.173   2.537   8.403 -0.1444  0.9447 -0.2900
   24MOL0     H 3210   7.003   2.770   8.480  1.8394  1.5653  0.5075
   24MOL0     H 3211   7.033   2.669   8.620 -0.7949 -0.4984 -0.3440
   24MOL0     H 3212   6.949   2.532   8.360 -0.1375  2.3274 -1.1672
   24MOL0     H 3213   6.923   2.474   8.520 -0.6157  0.1356 -0.0356
   24MOL0     H 3214   6.773   2.690   8.558  2.4157 -0.9016  1.4988
   24MOL0     H 3215   6.703   2.560   8.458  0.4530 -0.4304  0.1305
   24MOL0     H 3216   6.862   2.796   8.344  1.0299 -0.4588 -2.1407
   24MOL0     H 3217   6.798   2.662   8.254 -0.2995  0.9762 -1.4548
   24MOL0     H 3218   6.653   2.875   8.262 -3.1064 -0.0013  0.0080
   24MOL0     H 3219   6.657   2.865   8.443 -1.9373 -1.6994  0.9836
   24MOL0     H 3220   6.488   2.707   8.449 -0.0944  1.2625  1.0494
   24MOL0     H 3221   6.497   2.655   8.281 -1.2460  2.0487 -1.9212
   24MOL0     H 3222   7.491   2.750   8.651  1.5136  0.9146  0.2942
   24MOL0     H 3223   7.725   2.697   8.752  0.7139 -0.7830  0.7084
   24MOL0     H 3224   7.966   2.783   9.130  0.5867  0.8246 -2.5483
   24MOL0     H 3225   8.167   2.733   9.278 -0.8089 -1.2351  1.2395
   24MOL0     H 3226   9.939   2.388  10.046  1.5893 -2.6675  1.7774
   24MOL0     H 3227  10.173   2.318  10.112  1.0188  1.1195 -0.0656
   24MOL0     H 3228  10.657   2.405   9.931  1.2348  1.1544 -0.4981
   24MOL0     H 3229  10.886   2.305   9.876  0.1729  0.2747  0.9326
   24MOL0     H 3230  11.013   2.132   9.760 -1.0230  2.9694  1.2912
   24MOL0     H 3231  11.080   2.197   9.916 -0.8808  0.8313 -0.6929
   24MOL0     H 3232  11.120   1.923   9.790  1.5382 -0.1506  0.1347
   24MOL0     H 3233  11.192   1.971   9.938 -1.3844 -0.2158 -0.6427
   24MOL0     H 3234  11.297   2.161   9.801  0.2965 -0.5482 -0.3158
   24MOL0     H 3235  11.238   2.081   9.655 -0.1435 -0.1893 -0.8444
   24MOL0     H 3236  11.393   1.877   9.721 -0.9110 -1.3640  1.4676
   24MOL0     H 3237  11.409   1.957   9.873 -1.9973  2.6522  0.7254
   24MOL0     H 3238  11.680   2.199   9.634 -0.9160  2.0166  2.4605
   24MOL0     H 3239  10.761   1.945  10.067 -1.8716 -0.3135 -1.4579
   24MOL0     H 3240  10.543   2.040  10.110 -1.4333  1.7991  0.5494
   25MOL0     O 3241   2.760   8.387   4.986 -0.4355  0.5163 -0.0764
   25MOL0     C 3242   2.827   8.392   4.886  0.7373  0.5601 -0.1060
   25MOL0     O 3243   2.777   8.371   4.762  0.0727  0.0212  0.3720
   25MOL0     C 3244   2.652   8.334   4.745  0.7396  0.1975  0.8053
   25MOL0     C 3245   2.590   8.218   4.797 -0.7312 -0.0478  0.3176
   25MOL0     C 3246   2.455   8.183   4.766 -0.0298  0.2562 -0.1235
   25MOL0     C 3247   2.376   8.268   4.696  0.4204 -0.7425 -0.0660
   25MOL0     O 3248   2.249   8.228   4.703  0.6941  0.9892 -0.1000
   25MOL0     C 3249   2.148   8.305   4.762  0.3525 -0.7484 -0.9395
   25MOL0     C 3250   2.051   8.222   4.855 -0.3999 -1.3616 -0.1852
   25MOL0     C 3251   1.901   8.207   4.822 -0.1336 -0.3331  0.5056
   25MOL0     C 3252   1.826   8.344   4.789 -0.1898  0.6000 -0.3274
   25MOL0     C 3253   1.736   8.398   4.902 -0.0317  0.6589  0.7088
   25MOL0     C 3254   1.674   8.526   4.849 -0.0947  0.1624 -0.4773
   25MOL0     C 3255   1.608   8.605   4.959 -0.2821  1.0493 -0.1025
   25MOL0     C 3256   1.476   8.558   5.008  0.6406  0.5111  0.2513
   25MOL0     N 3257   1.413   8.647   5.113 -0.1400 -0.0440  0.6087
   25MOL0     C 3258   1.487   8.694   5.218  0.4922 -1.0666 -0.2896
   25MOL0     C 3259   1.393   8.775   5.286 -0.3066 -0.5097 -0.1739
   25MOL0     C 3260   1.419   8.856   5.411  0.9670 -0.1876 -0.0304
   25MOL0     C 3261   1.291   8.913   5.474  0.2745 -0.5084  0.2171
   25MOL0     C 3262   1.319   9.023   5.564  0.6352  0.1884  0.4008
   25MOL0     C 3263   1.195   9.091   5.620 -0.3264  0.0003  0.2484
   25MOL0     O 3264   1.127   9.148   5.512  0.4829 -0.0832  0.8234
   25MOL0     C 3265   1.009   9.213   5.526 -0.6881 -0.4952 -0.1519
   25MOL0     C 3266   0.929   9.240   5.416  0.2493 -0.9076 -1.1602
   25MOL0     C 3267   0.799   9.301   5.434 -0.4724 -0.5076  0.3590
   25MOL0     C 3268   0.718   9.307   5.310  0.7033 -0.5390  0.4245
   25MOL0     C 3269   0.758   9.348   5.562 -0.0828 -0.7647  1.0387
   25MOL0     C 3270   0.628   9.413   5.576 -0.9374  0.2992  0.0773
   25MOL0     O 3271   0.530   9.406   5.478 -0.0251  0.2134 -0.0843
   25MOL0     C 3272   0.405   9.436   5.512  0.6081 -0.3618  0.6480
   25MOL0     C 3273   0.332   9.344   5.587  1.1299 -0.4304  0.3472
   25MOL0     C 3274   0.197   9.372   5.608 -0.2202  0.4354  0.0570
   25MOL0     C 3275   0.142   9.497   5.576 -0.2755 -0.1161 -0.0791
   25MOL0     O 3276   0.014   9.537   5.606 -0.6867 -0.4608 -0.2386
   25MOL0     C 3277  -0.056   9.456   5.701 -0.3342 -0.1363  0.4469
   25MOL0     C 3278  -0.160   9.529   5.781  0.0081  0.4551  0.1437
   25MOL0     C 3279  -0.215   9.429   5.888 -1.0295 -0.0779  0.4545
   25MOL0     C 3280  -0.329   9.490   5.956 -0.4833 -0.5865  0.3770
   25MOL0     C 3281  -0.385   9.401   6.063 -0.1050  0.1796  0.0138
   25MOL0     C 3282  -0.288   9.384   6.187  0.1415 -0.7653  0.2343
   25MOL0     C 3283  -0.366   9.329   6.298 -0.4170 -0.0185  0.1947
   25MOL0     C 3284  -0.273   9.278   6.418 -0.1446  0.0641  0.4046
   25MOL0    Cl 3285  -0.152   9.409   6.449 -0.1307 -0.1376  0.1862
   25MOL0     C 3286   0.210   9.585   5.499 -0.8682 -0.3847 -0.6738
   25MOL0     C 3287   0.342   9.553   5.466 -0.6502  0.2595 -0.5204
   25MOL0     O 3288   0.623   9.482   5.677  0.0984  0.3711 -0.6664
   25MOL0     C 3289   0.832   9.320   5.673 -0.1556 -0.1793  0.6387
   25MOL0     C 3290   0.952   9.252   5.657 -0.4755 -0.3719  0.2183
   25MOL0     N 3291   1.267   8.779   5.207 -0.7290  0.4087 -0.0491
   25MOL0     N 3292   1.287   8.699   5.105 -0.0240  0.0414 -0.4308
   25MOL0     C 3293   2.437   8.371   4.622  0.4532  0.4555 -0.2043
   25MOL0     C 3294   2.575   8.402   4.650  0.3768  0.2997  0.2059
   25MOL0     C 3295   2.966   8.408   4.905  1.0838  0.4891 -0.7121
   25MOL0     C 3296   3.052   8.370   4.802  0.0577  0.8353  0.3859
   25MOL0     C 3297   3.186   8.387   4.804  0.0557 -0.5142 -0.1800
   25MOL0     C 3298   3.243   8.456   4.915 -0.3689  0.0245  0.3322
   25MOL0     O 3299   3.381   8.464   4.918  0.6699 -0.3077  0.5021
   25MOL0     C 3300   3.432   8.591   4.931  0.7751  0.5878  0.6193
   25MOL0     C 3301   3.583   8.596   4.904 -1.0430 -0.6671  0.3367
   25MOL0     C 3302   3.650   8.466   4.974  0.6930  0.4362 -0.7684
   25MOL0     C 3303   3.792   8.478   4.946 -0.5889 -0.2131  0.6756
   25MOL0     C 3304   3.871   8.362   4.996  0.9502  0.0816 -0.1988
   25MOL0     C 3305   3.952   8.277   5.026  0.2104  0.1169  0.2113
   25MOL0     C 3306   3.162   8.493   5.021 -0.7809  1.3628  0.9830
   25MOL0     C 3307   3.026   8.466   5.014 -0.0760  1.2109  0.5610
   25MOL0     H 3308   2.657   8.150   4.848  1.4636  0.7368 -1.3530
   25MOL0     H 3309   2.419   8.088   4.804  2.9520 -0.5980  0.8345
   25MOL0     H 3310   2.197   8.382   4.823 -2.2085 -0.4889  0.9496
   25MOL0     H 3311   2.085   8.355   4.688 -2.2936 -1.9093  0.3934
   25MOL0     H 3312   2.094   8.121   4.862  1.5416 -0.5481  0.2146
   25MOL0     H 3313   2.051   8.275   4.951  2.0085 -1.7119  0.0827
   25MOL0     H 3314   1.884   8.140   4.738 -1.9314 -0.5381  0.9989
   25MOL0     H 3315   1.856   8.160   4.910 -0.3546  1.4461  1.3902
   25MOL0     H 3316   1.909   8.414   4.775  1.7632 -1.3746  0.7307
   25MOL0     H 3317   1.766   8.326   4.699 -2.2651 -0.3017  1.1543
   25MOL0     H 3318   1.676   8.313   4.939  2.6894 -0.8848  1.8482
   25MOL0     H 3319   1.799   8.421   4.988 -1.1769 -2.9097  2.7394
   25MOL0     H 3320   1.750   8.585   4.796 -0.4239 -0.9834 -2.2930
   25MOL0     H 3321   1.596   8.518   4.773 -1.0374 -3.3101  0.6752
   25MOL0     H 3322   1.688   8.593   5.033  0.9722 -3.5585 -1.8548
   25MOL0     H 3323   1.602   8.710   4.929  1.7907  1.7484  1.6610
   25MOL0     H 3324   1.489   8.455   5.044  1.1504  0.1455 -0.9257
   25MOL0     H 3325   1.412   8.557   4.919  2.2799  0.6628 -0.9793
   25MOL0     H 3326   1.587   8.662   5.243  0.8650 -1.2942 -1.9809
   25MOL0     H 3327   1.457   8.789   5.489 -1.4053 -0.0340  1.3527
   25MOL0     H 3328   1.488   8.940   5.396 -0.0837  0.7704  0.3812
   25MOL0     H 3329   1.250   8.832   5.535 -3.3197  0.1385 -1.0904
   25MOL0     H 3330   1.222   8.948   5.397 -1.7823  2.3721  3.0527
   25MOL0     H 3331   1.383   9.091   5.507  0.0249  1.1841  0.8817
   25MOL0     H 3332   1.376   8.979   5.647 -1.9883  0.1698  2.3366
   25MOL0     H 3333   1.220   9.177   5.683 -0.2986 -0.6703  1.1678
   25MOL0     H 3334   1.124   9.027   5.672 -4.7176  3.7606 -0.4449
   25MOL0     H 3335   0.967   9.201   5.322 -0.4655 -1.0654 -1.3952
   25MOL0     H 3336   0.707   9.408   5.269 -0.7148 -1.8623 -2.8024
   25MOL0     H 3337   0.765   9.265   5.220  1.0955  0.1095  0.3177
   25MOL0     H 3338   0.613   9.279   5.323 -1.3509  5.4947  0.1459
   25MOL0     H 3339   0.373   9.248   5.616  1.0428 -1.0097 -1.3507
   25MOL0     H 3340   0.151   9.296   5.671  2.0965 -0.7580  0.4154
   25MOL0     H 3341  -0.093   9.364   5.653  0.0580  0.8396 -1.8610
   25MOL0     H 3342   0.012   9.424   5.781 -2.5860 -1.2547  2.0155
   25MOL0     H 3343  -0.115   9.618   5.826 -0.1485  0.8978 -0.5560
   25MOL0     H 3344  -0.237   9.569   5.714  0.0090 -1.4715 -1.0882
   25MOL0     H 3345  -0.143   9.417   5.969 -0.8362  0.1443  0.3185
   25MOL0     H 3346  -0.241   9.334   5.839 -0.4864  1.3222 -2.8138
   25MOL0     H 3347  -0.294   9.587   5.992 -0.5089  0.9377 -3.2525
   25MOL0     H 3348  -0.418   9.510   5.896 -0.0074 -0.4477 -0.2936
   25MOL0     H 3349  -0.411   9.308   6.012 -0.6231  1.0867 -1.4482
   25MOL0     H 3350  -0.478   9.447   6.099 -0.3657 -0.7959  0.6084
   25MOL0     H 3351  -0.205   9.319   6.159 -0.5283 -3.0760  3.1250
   25MOL0     H 3352  -0.254   9.485   6.211  0.2327  0.0779 -2.9817
   25MOL0     H 3353  -0.430   9.250   6.258 -1.9286  2.0900 -1.8043
   25MOL0     H 3354  -0.424   9.416   6.331 -0.2891  1.2173 -2.5859
   25MOL0     H 3355  -0.214   9.198   6.373  1.8456  0.8579  1.4801
   25MOL0     H 3356  -0.323   9.251   6.512 -2.1857  1.0999 -0.3285
   25MOL0     H 3357   0.186   9.687   5.468  2.3067  0.6191 -0.2309
   25MOL0     H 3358   0.399   9.620   5.403  0.6248  0.5592  0.9095
   25MOL0     H 3359   0.804   9.359   5.771  0.4668  0.0742  0.7245
   25MOL0     H 3360   1.001   9.214   5.747 -0.8478 -0.6545  0.3053
   25MOL0     H 3361   2.361   8.433   4.575 -2.5767 -4.0995 -2.0239
   25MOL0     H 3362   2.604   8.495   4.603 -2.6168  1.5963  0.6535
   25MOL0     H 3363   3.003   8.323   4.717  0.5651  0.7582  0.1369
   25MOL0     H 3364   3.253   8.345   4.729  0.6446 -0.5665  0.3611
   25MOL0     H 3365   3.377   8.650   4.856 -1.1317  0.7458  2.0627
   25MOL0     H 3366   3.422   8.637   5.030  0.2565 -0.1558  0.9145
   25MOL0     H 3367   3.631   8.687   4.943 -1.0918 -0.8500  0.8400
   25MOL0     H 3368   3.594   8.603   4.796 -0.2321 -2.1244  0.3117
   25MOL0     H 3369   3.611   8.369   4.944  1.4001 -0.2407  0.4395
   25MOL0     H 3370   3.639   8.486   5.081  1.1179 -0.4323 -0.5589
   25MOL0     H 3371   3.848   8.558   4.994  0.7341 -0.5788 -0.1932
   25MOL0     H 3372   3.806   8.487   4.838  0.5291 -1.8672  0.6348
   25MOL0     H 3373   4.024   8.201   5.049  2.9003  2.3910 -0.1511
   25MOL0     H 3374   3.209   8.515   5.116 -0.1877 -0.5013  1.1722
   25MOL0     H 3375   2.962   8.485   5.100 -0.9486 -1.4787  0.6023
   26MOL0     O 3376   8.826   9.510   9.944 -0.2445 -0.4609  1.0196
   26MOL0     C 3377   8.789   9.614   9.882  0.3699  0.0507 -0.0425
   26MOL0     O 3378   8.695   9.697   9.932  0.0202  0.6658 -0.0667
   26MOL0     C 3379   8.614   9.635  10.018 -0.1788 -0.9103  0.9758
   26MOL0     C 3380   8.522   9.532   9.993  0.7189 -0.0862  1.1972
   26MOL0     C 3381   8.451   9.476  10.098 -1.1506  0.1286 -0.4084
   26MOL0     C 3382   8.462   9.529  10.223 -0.7639  0.1867  0.8101
   26MOL0     O 3383   8.397   9.464  10.321 -0.9073 -0.0994 -0.4413
   26MOL0     C 3384   8.271   9.408  10.298 -0.4292  0.2102  0.2458
   26MOL0     C 3385   8.191   9.390  10.431  0.2850 -0.7452  1.0178
   26MOL0     C 3386   8.062   9.320  10.399 -0.2164  0.5257  0.0022
   26MOL0     C 3387   8.003   9.252  10.526 -0.2255 -0.3552 -0.3436
   26MOL0     C 3388   7.908   9.134  10.498  0.9051  0.3968  0.1269
   26MOL0     C 3389   7.772   9.204  10.456 -0.8294 -0.6692  0.1886
   26MOL0     C 3390   7.670   9.109  10.406  0.2753  0.3067  0.0966
   26MOL0     C 3391   7.532   9.165  10.392  0.0450  0.1006 -0.6431
   26MOL0     N 3392   7.445   9.054  10.346 -0.2060  0.7959 -0.6067
   26MOL0     C 3393   7.423   9.007  10.214 -0.2899  0.7920 -0.0781
   26MOL0     C 3394   7.317   8.917  10.224  1.2381 -1.1242  0.1584
   26MOL0     C 3395   7.274   8.843  10.102  0.1560 -0.4671  0.4269
   26MOL0     C 3396   7.128   8.879  10.068 -0.1369  0.3242 -0.1167
   26MOL0     C 3397   7.068   8.778   9.974 -0.1392 -0.5007 -0.8881
   26MOL0     C 3398   6.924   8.801   9.939 -0.3848  0.2246 -0.3745
   26MOL0     O 3399   6.843   8.822  10.060  0.2735  0.5510  0.6852
   26MOL0     C 3400   6.709   8.795  10.042  0.3627  0.5954  0.4885
   26MOL0     C 3401   6.620   8.903  10.021 -0.5928  0.9478 -0.0019
   26MOL0     C 3402   6.481   8.881  10.001 -0.1322  0.0994 -0.0432
   26MOL0     C 3403   6.404   9.010   9.961  0.7855  0.4118 -0.1448
   26MOL0     C 3404   6.429   8.752  10.006 -0.3283 -0.4902  0.4524
   26MOL0     C 3405   6.286   8.730   9.988 -0.2321 -0.0255 -1.3736
   26MOL0     O 3406   6.197   8.830   9.958  0.2877 -0.4574  0.7085
   26MOL0     C 3407   6.070   8.796   9.927  1.1218 -1.0814  0.3352
   26MOL0     C 3408   6.048   8.697   9.828 -0.4564  0.5249  0.3884
   26MOL0     C 3409   5.918   8.674   9.785 -0.2482  0.8317 -0.5651
   26MOL0     C 3410   5.809   8.743   9.845  0.3568  0.1888  0.4415
   26MOL0     O 3411   5.676   8.731   9.815 -0.2287 -0.4809  0.6201
   26MOL0     C 3412   5.626   8.599   9.858  0.1903 -0.6961  0.6439
   26MOL0     C 3413   5.507   8.568   9.786  0.4512 -0.5849  0.3158
   26MOL0     C 3414   5.392   8.662   9.809  0.3214 -0.1784 -0.0395
   26MOL0     C 3415   5.269   8.616   9.732 -0.0820 -0.8311  0.7626
   26MOL0     C 3416   5.150   8.691   9.790  0.0607 -0.3450 -0.7060
   26MOL0     C 3417   5.022   8.689   9.704 -0.0532  0.9616 -0.2734
   26MOL0     C 3418   4.978   8.552   9.644  0.5832 -0.0361 -0.4205
   26MOL0     C 3419   4.841   8.574   9.561  0.1360 -0.0497  0.1121
   26MOL0    Cl 3420   4.808   8.458   9.430  0.2758 -0.1913 -0.2982
   26MOL0     C 3421   5.836   8.845   9.932  0.3959 -0.3116  0.1430
   26MOL0     C 3422   5.962   8.869   9.971 -0.7436 -1.1342  0.5455
   26MOL0     O 3423   6.256   8.607  10.007 -0.0719 -0.0988 -0.0976
   26MOL0     C 3424   6.518   8.644  10.040 -0.6398 -0.0670 -0.0931
   26MOL0     C 3425   6.653   8.671  10.065 -0.3581  0.0398 -0.0975
   26MOL0     N 3426   7.270   8.919  10.354 -0.3942  0.0402  0.0245
   26MOL0     N 3427   7.346   8.993  10.431 -0.1449  0.0826  0.6200
   26MOL0     C 3428   8.550   9.639  10.251  0.3553  0.0889 -0.3118
   26MOL0     C 3429   8.621   9.691  10.145 -0.1039 -0.5739  0.0467
   26MOL0     C 3430   8.878   9.671   9.781  0.0676  0.4140  0.6487
   26MOL0     C 3431   8.821   9.763   9.694 -0.7835 -0.2574 -0.1223
   26MOL0     C 3432   8.899   9.821   9.591 -0.4514  0.4786 -0.1330
   26MOL0     C 3433   9.031   9.777   9.578 -0.2638 -0.4095 -0.5792
   26MOL0     O 3434   9.125   9.826   9.484  0.3429 -0.4926  0.3575
   26MOL0     C 3435   9.087   9.951   9.438  0.9596  0.4706 -0.2071
   26MOL0     C 3436   9.174  10.003   9.320  1.0539  0.0607 -0.8520
   26MOL0     C 3437   9.119  10.141   9.259 -0.7118 -0.2180 -0.1699
   26MOL0     C 3438   9.190  10.183   9.125  0.6778  0.4223 -0.0520
   26MOL0     C 3439   9.131  10.314   9.098 -0.4175  0.0703  0.2096
   26MOL0     C 3440   9.090  10.424   9.075 -0.7672  0.5017  0.6140
   26MOL0     C 3441   9.081   9.675   9.653 -0.1858 -0.4141  0.1100
   26MOL0     C 3442   8.996   9.616   9.751 -0.2861 -1.0668  0.4844
   26MOL0     H 3443   8.518   9.484   9.895  0.0546  1.3604  0.4820
   26MOL0     H 3444   8.399   9.383  10.076 -1.6301  0.3204 -0.0907
   26MOL0     H 3445   8.208   9.462  10.228 -0.0248  1.4805  0.8268
   26MOL0     H 3446   8.282   9.306  10.260  1.5813  1.1308 -1.8911
   26MOL0     H 3447   8.250   9.336  10.506 -1.0951 -2.1210  1.1434
   26MOL0     H 3448   8.166   9.493  10.458 -0.0697  0.1601 -2.3373
   26MOL0     H 3449   7.981   9.382  10.360 -2.8953 -3.6995 -1.8790
   26MOL0     H 3450   8.080   9.239  10.329  2.8856  0.8556  0.2999
   26MOL0     H 3451   8.084   9.226  10.594  0.1784  0.8509 -0.3379
   26MOL0     H 3452   7.942   9.323  10.583 -1.5818 -0.4165 -1.6599
   26MOL0     H 3453   7.938   9.059  10.425  2.3152  0.1660  0.9028
   26MOL0     H 3454   7.893   9.085  10.595 -0.7900  0.8198  0.1146
   26MOL0     H 3455   7.736   9.256  10.546 -0.3036 -2.4436  1.4678
   26MOL0     H 3456   7.790   9.288  10.388  3.0056 -0.9450  0.6297
   26MOL0     H 3457   7.702   9.066  10.311  0.0262  2.8744 -1.2424
   26MOL0     H 3458   7.665   9.032  10.483  1.6206 -0.9657 -1.0449
   26MOL0     H 3459   7.531   9.251  10.325  0.7259  0.9876  0.4290
   26MOL0     H 3460   7.486   9.201  10.485  1.1334  0.3188 -0.1596
   26MOL0     H 3461   7.489   9.041  10.135  0.9954 -1.2764  0.0258
   26MOL0     H 3462   7.344   8.864  10.020 -1.1292 -0.7302 -0.7828
   26MOL0     H 3463   7.278   8.735  10.120 -1.3337 -0.4416  1.0250
   26MOL0     H 3464   7.107   8.982  10.036  0.6923  1.2143  2.0248
   26MOL0     H 3465   7.065   8.871  10.158 -0.7806  1.5864 -0.4279
   26MOL0     H 3466   7.072   8.679  10.019 -0.6484 -0.6398 -1.1370
   26MOL0     H 3467   7.126   8.771   9.881  1.8313  5.0869 -0.4554
   26MOL0     H 3468   6.881   8.719   9.881 -2.4014 -0.5994  2.1402
   26MOL0     H 3469   6.918   8.893   9.879  1.4258  0.6336  0.0122
   26MOL0     H 3470   6.664   9.000  10.004  0.8541 -0.3248 -5.6237
   26MOL0     H 3471   6.473   9.096   9.962  2.5947 -0.9829 -0.4670
   26MOL0     H 3472   6.357   9.010   9.862 -0.6796  0.2137  0.5275
   26MOL0     H 3473   6.333   9.029  10.042  2.2885 -0.0075  1.3344
   26MOL0     H 3474   6.129   8.638   9.785 -2.3793  0.0899 -3.0257
   26MOL0     H 3475   5.895   8.599   9.710  3.1287 -1.0071  0.0213
   26MOL0     H 3476   5.703   8.523   9.842  0.5148  0.0793 -1.7809
   26MOL0     H 3477   5.608   8.612   9.966  2.2579 -0.5579  1.0085
   26MOL0     H 3478   5.537   8.564   9.681 -0.2892 -3.3953  0.1437
   26MOL0     H 3479   5.478   8.470   9.823  0.1454  0.0632  1.8951
   26MOL0     H 3480   5.429   8.761   9.781 -0.9528  0.4615  0.4569
   26MOL0     H 3481   5.367   8.655   9.916  1.4143  0.9887  0.3186
   26MOL0     H 3482   5.279   8.646   9.627  0.1059 -0.3767  0.9064
   26MOL0     H 3483   5.273   8.508   9.746  0.9407 -0.8108  0.7260
   26MOL0     H 3484   5.174   8.795   9.814  0.8065 -0.9154  1.1858
   26MOL0     H 3485   5.124   8.656   9.890  0.6866  2.8228  0.6751
   26MOL0     H 3486   4.929   8.727   9.749 -0.9516  0.7952 -1.9142
   26MOL0     H 3487   5.040   8.755   9.618 -2.0563  2.2682  0.2320
   26MOL0     H 3488   4.956   8.473   9.716 -0.9014  0.1910 -0.6023
   26MOL0     H 3489   5.057   8.509   9.582  0.2129 -2.5340  0.7336
   26MOL0     H 3490   4.834   8.679   9.530  0.8052  0.5464  1.8358
   26MOL0     H 3491   4.749   8.564   9.619 -0.0092 -0.0114 -0.1102
   26MOL0     H 3492   5.755   8.904   9.973  1.6014  0.3969  1.6146
   26MOL0     H 3493   5.988   8.943  10.047 -0.2834 -0.8121  0.0866
   26MOL0     H 3494   6.475   8.547  10.062 -1.4581  0.5398  1.0678
   26MOL0     H 3495   6.722   8.588  10.081 -0.6562 -0.6065 -1.9855
   26MOL0     H 3496   8.557   9.674  10.354  1.1386 -1.8459  0.3560
   26MOL0     H 3497   8.663   9.789  10.166  0.8774 -1.2132  1.2167
   26MOL0     H 3498   8.719   9.790   9.717 -0.4151  0.9322  0.1853
   26MOL0     H 3499   8.850   9.888   9.521 -0.1055  1.8871  0.9134
   26MOL0     H 3500   8.988   9.949   9.391  1.3471  0.7404 -1.0584
   26MOL0     H 3501   9.087  10.027   9.516  0.2360  1.0510 -0.7565
   26MOL0     H 3502   9.174   9.926   9.243  0.0396  0.7830 -1.5993
   26MOL0     H 3503   9.278  10.024   9.350  0.8574  1.9902 -1.3658
   26MOL0     H 3504   9.125  10.219   9.335  0.6388 -1.5183  1.1095
   26MOL0     H 3505   9.011  10.132   9.241 -1.3569  0.6884  2.7033
   26MOL0     H 3506   9.160  10.118   9.042  0.1142 -1.1080  1.3012
   26MOL0     H 3507   9.299  10.186   9.128  0.6914  3.6540 -0.5414
   26MOL0     H 3508   9.047  10.521   9.066  0.7274  1.1569  0.3534
   26MOL0     H 3509   9.179   9.644   9.618 -0.4960  0.1530 -1.3009
   26MOL0     H 3510   9.037   9.539   9.816  0.6966 -2.1756 -1.3584
   27MOL0     O 3511   5.485   1.733   5.788  0.2002  0.3695 -0.2402
   27MOL0     C 3512   5.507   1.849   5.768  0.4490 -0.5789  0.6722
   27MOL0     O 3513   5.412   1.951   5.786 -0.0575 -0.3870 -0.2808
   27MOL0     C 3514   5.289   1.911   5.822  0.5985  0.4755  0.1507
   27MOL0     C 3515   5.212   1.812   5.754  0.7627  0.5023 -0.2198
   27MOL0     C 3516   5.084   1.768   5.790 -0.2997  0.1685  0.1388
   27MOL0     C 3517   5.021   1.823   5.897 -0.2251 -0.1489  0.5939
   27MOL0     O 3518   4.891   1.776   5.926 -0.7223 -0.3367 -0.4853
   27MOL0     C 3519   4.812   1.831   6.028  0.3225 -0.2436 -0.0873
   27MOL0     C 3520   4.693   1.746   6.038 -0.1819  0.3504 -0.3397
   27MOL0     C 3521   4.601   1.815   6.131  0.6202 -0.8033  0.2704
   27MOL0     C 3522   4.485   1.730   6.166 -0.0104  0.6479  0.9502
   27MOL0     C 3523   4.484   1.654   6.301  0.4333 -0.8003  0.0167
   27MOL0     C 3524   4.590   1.541   6.306  0.2768  0.1067 -0.2035
   27MOL0     C 3525   4.602   1.472   6.440 -0.3657  0.0947 -0.9024
   27MOL0     C 3526   4.639   1.563   6.553 -0.3093  0.1181  0.1162
   27MOL0     N 3527   4.768   1.629   6.523  0.3879 -0.9134 -0.7943
   27MOL0     C 3528   4.885   1.565   6.501  0.4574  0.8126 -0.2536
   27MOL0     C 3529   4.978   1.660   6.480 -0.4920 -0.2912  0.2471
   27MOL0     C 3530   5.124   1.640   6.441 -0.1036 -1.1043  0.0291
   27MOL0     C 3531   5.174   1.719   6.319 -0.0109  0.9596  0.2316
   27MOL0     C 3532   5.319   1.683   6.298 -0.1428  0.4242  0.8928
   27MOL0     C 3533   5.369   1.756   6.179 -0.1212  0.3736  0.9545
   27MOL0     O 3534   5.389   1.897   6.200 -0.0365 -0.6668  0.3950
   27MOL0     C 3535   5.510   1.955   6.179  0.9625  0.1534  0.0212
   27MOL0     C 3536   5.619   1.884   6.223  0.7553 -0.6909 -1.0148
   27MOL0     C 3537   5.737   1.921   6.187 -0.9956 -0.3801 -1.3269
   27MOL0     C 3538   5.853   1.837   6.233  0.2224 -0.1851  0.9674
   27MOL0     C 3539   5.768   2.043   6.119  0.2086 -0.0589  0.2407
   27MOL0     C 3540   5.902   2.093   6.074  0.2627 -0.0165  0.5789
   27MOL0     O 3541   6.014   2.010   6.086 -1.0563 -0.4683 -0.1365
   27MOL0     C 3542   6.149   2.025   6.065  0.5531  0.3506  0.3057
   27MOL0     C 3543   6.206   2.132   6.127  0.2093 -0.4718  0.1347
   27MOL0     C 3544   6.342   2.143   6.140 -0.4910  0.3195  0.0959
   27MOL0     C 3545   6.428   2.042   6.084 -0.2264  0.2130 -0.3862
   27MOL0     O 3546   6.560   2.046   6.119 -0.0508 -0.2519 -0.1054
   27MOL0     C 3547   6.653   1.947   6.069  0.3266  0.2677 -0.4835
   27MOL0     C 3548   6.797   2.003   6.086  0.4317 -0.4429 -0.1080
   27MOL0     C 3549   6.886   1.931   5.985  0.1053  0.4024  0.3166
   27MOL0     C 3550   7.041   1.957   5.981 -0.1592  0.1458  0.3613
   27MOL0     C 3551   7.131   1.875   5.889  0.2717 -0.9053  0.1977
   27MOL0     C 3552   7.274   1.934   5.876 -0.1474 -0.1179  0.1156
   27MOL0     C 3553   7.363   1.856   5.781 -0.0717 -0.5287  1.0253
   27MOL0     C 3554   7.496   1.926   5.759  0.4970  0.0518  0.3174
   27MOL0    Cl 3555   7.461   2.078   5.665  0.0627 -0.4892 -0.3662
   27MOL0     C 3556   6.368   1.935   6.017  0.4869 -0.0976 -0.3023
   27MOL0     C 3557   6.224   1.927   6.007  0.0487 -0.2217 -0.2376
   27MOL0     O 3558   5.904   2.203   6.015  0.2789  0.6013  0.4228
   27MOL0     C 3559   5.654   2.118   6.082  0.8649 -0.3076 -0.0514
   27MOL0     C 3560   5.522   2.073   6.112  0.0179 -0.0098 -0.2874
   27MOL0     N 3561   4.917   1.781   6.485  0.8984 -0.3388 -1.0449
   27MOL0     N 3562   4.793   1.765   6.522  0.4095  0.0905  0.2199
   27MOL0     C 3563   5.092   1.926   5.959  0.1859  0.2010  0.4315
   27MOL0     C 3564   5.215   1.982   5.917  0.4397 -0.2840 -0.7487
   27MOL0     C 3565   5.649   1.886   5.737 -0.2456  0.5543  0.1945
   27MOL0     C 3566   5.693   2.015   5.725 -0.5500 -1.0082 -0.0290
   27MOL0     C 3567   5.823   2.041   5.689  0.5657  1.1391  0.5675
   27MOL0     C 3568   5.918   1.940   5.675  0.1706  0.1774  0.4471
   27MOL0     O 3569   6.052   1.981   5.659  0.3844  0.6044  0.5833
   27MOL0     C 3570   6.148   1.877   5.639 -0.6235 -0.0461 -0.6591
   27MOL0     C 3571   6.286   1.944   5.634  0.8919  1.0480 -0.7328
   27MOL0     C 3572   6.394   1.837   5.653 -0.5397 -0.5751 -0.7383
   27MOL0     C 3573   6.526   1.910   5.668 -0.4564  0.6904  0.3219
   27MOL0     C 3574   6.636   1.818   5.637 -0.5118  0.1341 -0.3822
   27MOL0     C 3575   6.743   1.767   5.595  0.8994 -0.3441 -0.4423
   27MOL0     C 3576   5.871   1.807   5.675 -0.2998  0.2946  0.7153
   27MOL0     C 3577   5.740   1.782   5.710  0.5429 -0.2543 -0.2822
   27MOL0     H 3578   5.246   1.763   5.663  1.0841 -0.6199  0.4932
   27MOL0     H 3579   5.027   1.697   5.732 -1.5510  0.0296  1.4949
   27MOL0     H 3580   4.869   1.838   6.121 -0.0812 -1.5240  0.2838
   27MOL0     H 3581   4.782   1.932   6.002 -0.6501 -0.5520 -0.1964
   27MOL0     H 3582   4.642   1.739   5.942 -0.2406 -0.2442 -0.2704
   27MOL0     H 3583   4.734   1.651   6.075 -0.7221 -0.4259 -1.6599
   27MOL0     H 3584   4.654   1.854   6.218 -1.4457  3.6484 -0.1860
   27MOL0     H 3585   4.558   1.897   6.073 -1.0662 -0.8327  1.3829
   27MOL0     H 3586   4.394   1.790   6.154 -0.4286 -0.2464 -0.6458
   27MOL0     H 3587   4.461   1.663   6.083 -5.0794  3.8606 -0.6675
   27MOL0     H 3588   4.508   1.724   6.382 -0.9215 -0.2469 -0.0413
   27MOL0     H 3589   4.384   1.610   6.307  0.0087  0.1980  0.4790
   27MOL0     H 3590   4.567   1.461   6.235  0.7477  3.0399 -3.9366
   27MOL0     H 3591   4.686   1.577   6.268  0.3375 -1.5210 -1.7114
   27MOL0     H 3592   4.501   1.435   6.458 -1.0718  2.8667  1.5792
   27MOL0     H 3593   4.671   1.387   6.442  0.8418  1.0552  0.0119
   27MOL0     H 3594   4.658   1.505   6.644  3.5240  0.4980 -0.2886
   27MOL0     H 3595   4.563   1.640   6.572 -0.3780 -0.0361  0.4842
   27MOL0     H 3596   4.902   1.458   6.497 -2.0816  0.3377  0.1177
   27MOL0     H 3597   5.185   1.673   6.526  1.7784 -1.7591 -1.0150
   27MOL0     H 3598   5.132   1.532   6.424  1.6003 -0.7351 -1.9147
   27MOL0     H 3599   5.169   1.828   6.328  4.0086  1.3525 -0.4087
   27MOL0     H 3600   5.112   1.703   6.230  0.6484 -0.4366 -0.0010
   27MOL0     H 3601   5.343   1.578   6.284  0.5068  0.8370 -1.6445
   27MOL0     H 3602   5.387   1.721   6.375 -1.2097  0.9897  1.5873
   27MOL0     H 3603   5.288   1.752   6.106 -1.6298  0.0358  2.5834
   27MOL0     H 3604   5.452   1.706   6.128 -2.2042 -1.5773 -0.7656
   27MOL0     H 3605   5.613   1.790   6.277  0.4663 -0.1254 -0.0403
   27MOL0     H 3606   5.905   1.800   6.144  0.5824  0.0091  1.0953
   27MOL0     H 3607   5.917   1.890   6.304 -1.1048  1.3854  1.0373
   27MOL0     H 3608   5.817   1.749   6.288  0.3440  0.3256  1.8785
   27MOL0     H 3609   6.143   2.190   6.194  1.5715 -1.7588  2.7159
   27MOL0     H 3610   6.374   2.230   6.196  0.3456  1.8902 -2.6064
   27MOL0     H 3611   6.653   1.851   6.122 -2.1036 -1.8612 -3.9458
   27MOL0     H 3612   6.639   1.928   5.963 -0.5406 -0.5149 -0.2424
   27MOL0     H 3613   6.815   2.110   6.070 -1.2909 -0.1080 -0.0026
   27MOL0     H 3614   6.825   1.977   6.189 -1.3504 -0.9213  0.2826
   27MOL0     H 3615   6.848   1.959   5.886  1.8542  0.9653 -0.2352
   27MOL0     H 3616   6.873   1.823   6.002 -0.4234  0.7092  2.0487
   27MOL0     H 3617   7.055   2.062   5.953 -0.8137  0.2539  0.4376
   27MOL0     H 3618   7.083   1.948   6.082  1.5047  0.7693 -0.2428
   27MOL0     H 3619   7.092   1.875   5.787  5.3910  1.1749 -2.1526
   27MOL0     H 3620   7.138   1.773   5.926 -2.1033 -2.3526 -2.9349
   27MOL0     H 3621   7.247   2.026   5.823  1.4850  0.2087 -0.1876
   27MOL0     H 3622   7.327   1.956   5.968 -0.0016  0.6607 -0.1505
   27MOL0     H 3623   7.314   1.847   5.684 -2.2499  0.7459  1.9454
   27MOL0     H 3624   7.389   1.757   5.819  1.0663 -0.1787  1.1994
   27MOL0     H 3625   7.560   1.864   5.696  2.2031  3.6748 -1.8147
   27MOL0     H 3626   7.536   1.945   5.859 -0.1225  1.3735  0.3398
   27MOL0     H 3627   6.422   1.859   5.961  0.4670 -1.6400  1.6585
   27MOL0     H 3628   6.177   1.841   5.959  2.4817 -2.2769  0.8049
   27MOL0     H 3629   5.656   2.218   6.041 -2.1095 -1.3170 -3.1056
   27MOL0     H 3630   5.437   2.132   6.080  0.8457  1.7924  0.6767
   27MOL0     H 3631   5.041   1.993   6.028 -2.8179  1.1309 -2.3901
   27MOL0     H 3632   5.252   2.073   5.963 -0.4900  0.1335 -0.7887
   27MOL0     H 3633   5.636   2.105   5.743  1.4697  0.6768 -1.5731
   27MOL0     H 3634   5.862   2.141   5.673  2.1701  0.4166 -0.3857
   27MOL0     H 3635   6.154   1.801   5.717 -0.0992 -1.7224 -2.2675
   27MOL0     H 3636   6.135   1.817   5.548 -0.1115 -0.5679 -0.3939
   27MOL0     H 3637   6.299   2.013   5.717 -0.2017  0.8763 -0.4159
   27MOL0     H 3638   6.287   2.007   5.544 -1.9919  0.0524 -1.5879
   27MOL0     H 3639   6.402   1.781   5.559 -1.0920 -0.9836 -0.5501
   27MOL0     H 3640   6.392   1.766   5.736  0.0550 -2.8410 -2.5465
   27MOL0     H 3641   6.544   1.960   5.764  2.6805 -1.6100  1.1008
   27MOL0     H 3642   6.536   1.984   5.589  2.8518 -1.7976 -1.8722
   27MOL0     H 3643   6.837   1.721   5.570  0.1532 -2.4922  0.4884
   27MOL0     H 3644   5.949   1.731   5.667  0.7661  0.4217  6.1569
   27MOL0     H 3645   5.715   1.677   5.722 -0.6637 -0.0938 -1.1714
   28MOL0     O 3646   3.633   0.487  10.677 -0.5918  0.1149  0.2094
   28MOL0     C 3647   3.677   0.573  10.756  1.2939 -0.4885  0.5287
   28MOL0     O 3648   3.600   0.633  10.848  0.5933 -0.2010 -0.2240
   28MOL0     C 3649   3.459   0.623  10.850 -0.0637  1.0591  0.2626
   28MOL0     C 3650   3.374   0.607  10.741  0.7125  0.3989 -0.3588
   28MOL0     C 3651   3.234   0.623  10.758  0.0779 -0.4644 -0.1581
   28MOL0     C 3652   3.169   0.645  10.875 -0.7736  0.1797  0.0526
   28MOL0     O 3653   3.037   0.643  10.883 -0.0254 -0.6221 -0.5884
   28MOL0     C 3654   2.994   0.536  10.966 -0.4703 -0.2779 -0.8574
   28MOL0     C 3655   2.861   0.468  10.924 -0.5110 -0.6555  0.3147
   28MOL0     C 3656   2.739   0.558  10.930  0.5690  0.5337  0.2916
   28MOL0     C 3657   2.614   0.504  10.856  0.0079 -0.1252 -0.2654
   28MOL0     C 3658   2.494   0.605  10.867 -0.5154  0.2862  0.2014
   28MOL0     C 3659   2.418   0.589  10.993 -0.1673 -1.3067  0.0533
   28MOL0     C 3660   2.280   0.656  10.993 -0.3053  0.0640 -0.3648
   28MOL0     C 3661   2.187   0.611  10.877 -0.8354  0.4899  0.7119
   28MOL0     N 3662   2.047   0.655  10.886 -0.5038  0.6130  1.2887
   28MOL0     C 3663   1.947   0.584  10.948 -0.5028 -0.7434 -0.1845
   28MOL0     C 3664   1.838   0.673  10.963 -0.4227  0.7926  0.6255
   28MOL0     C 3665   1.694   0.662  11.006  0.1692 -0.5658 -0.9109
   28MOL0     C 3666   1.625   0.539  10.954  0.3546  0.0110  0.0242
   28MOL0     C 3667   1.483   0.560  10.996 -0.2430  0.2268 -0.3505
   28MOL0     C 3668   1.386   0.448  10.938  0.0161  0.0367 -0.1390
   28MOL0     O 3669   1.318   0.371  11.047 -0.5520 -0.2577  0.9164
   28MOL0     C 3670   1.220   0.283  11.015 -1.0352  0.6635 -0.8021
   28MOL0     C 3671   1.156   0.220  11.116  0.8213  0.3458  1.0049
   28MOL0     C 3672   1.043   0.128  11.089 -0.5020  0.3843  0.7032
   28MOL0     C 3673   0.974   0.071  11.210  0.0722 -0.7764  0.0354
   28MOL0     C 3674   1.002   0.101  10.955  0.0819  0.0520  0.1053
   28MOL0     C 3675   0.903   0.003  10.912  0.1110 -0.5548 -0.3221
   28MOL0     O 3676   0.846   0.028  10.797 -0.2458  0.2421 -1.1696
   28MOL0     C 3677   0.733  -0.042  10.753  0.6569 -0.2132  0.3896
   28MOL0     C 3678   0.738  -0.091  10.622 -0.2693  1.3911  0.8129
   28MOL0     C 3679   0.628  -0.159  10.564 -0.2418  0.1579  0.1473
   28MOL0     C 3680   0.509  -0.182  10.636  0.6879 -0.7281 -0.8168
   28MOL0     O 3681   0.400  -0.233  10.567 -0.0235  0.5554 -0.9347
   28MOL0     C 3682   0.336  -0.344  10.635  0.2666  0.2394 -0.6208
   28MOL0     C 3683   0.223  -0.390  10.545  0.9021  0.1150  0.6146
   28MOL0     C 3684   0.139  -0.270  10.506 -1.2291  0.7113  0.5648
   28MOL0     C 3685   0.025  -0.322  10.416 -0.2427  1.3450  0.1163
   28MOL0     C 3686  -0.085  -0.388  10.498  0.0114 -0.2644  0.5511
   28MOL0     C 3687  -0.211  -0.395  10.404  0.2726 -0.5632  0.1992
   28MOL0     C 3688  -0.336  -0.471  10.468 -0.8386  0.0755 -0.3135
   28MOL0     C 3689  -0.330  -0.620  10.433 -0.3491  0.8534 -0.2262
   28MOL0    Cl 3690  -0.449  -0.722  10.509  0.2501 -0.8173 -0.1567
   28MOL0     C 3691   0.501  -0.127  10.768 -0.5437  0.1982 -0.6279
   28MOL0     C 3692   0.612  -0.066  10.826 -0.8221  0.3362 -0.0926
   28MOL0     O 3693   0.870  -0.087  10.991  0.4903  0.1259  0.5310
   28MOL0     C 3694   1.067   0.176  10.857 -0.3816  0.4575  0.5992
   28MOL0     C 3695   1.178   0.264  10.885 -0.1622 -0.7346  0.0994
   28MOL0     N 3696   1.879   0.777  10.874 -0.2921 -0.8805 -0.5838
   28MOL0     N 3697   2.001   0.768  10.835  0.2414 -0.5464 -0.1789
   28MOL0     C 3698   3.258   0.658  10.981  0.3363  0.2549 -0.2435
   28MOL0     C 3699   3.397   0.641  10.973  0.2966 -0.6336 -0.9787
   28MOL0     C 3700   3.816   0.615  10.755  0.1580 -0.0556  1.1778
   28MOL0     C 3701   3.885   0.623  10.639 -0.3515  0.0541  0.1967
   28MOL0     C 3702   4.018   0.654  10.625  0.2965  0.2387  0.0435
   28MOL0     C 3703   4.091   0.685  10.744  0.4021  0.9470  0.0047
   28MOL0     O 3704   4.222   0.734  10.753  0.3277  1.1388  0.8732
   28MOL0     C 3705   4.296   0.741  10.630  0.4584 -0.0026  0.4697
   28MOL0     C 3706   4.328   0.892  10.614  0.0569  0.1652 -0.5503
   28MOL0     C 3707   4.402   0.942  10.743  0.3784 -0.2872  0.2849
   28MOL0     C 3708   4.531   0.866  10.782 -0.3185 -0.1460  0.1938
   28MOL0     C 3709   4.617   0.956  10.862  0.2698  0.7140  0.5806
   28MOL0     C 3710   4.704   1.012  10.928  1.3195 -1.2435  0.2215
   28MOL0     C 3711   4.019   0.669  10.870  1.2483 -0.1689  0.2887
   28MOL0     C 3712   3.886   0.637  10.873 -0.5850 -0.9241  0.5973
   28MOL0     H 3713   3.415   0.585  10.643  1.3587  1.0154 -0.2305
   28MOL0     H 3714   3.172   0.615  10.669 -1.1463 -1.8127  0.7716
   28MOL0     H 3715   3.072   0.460  10.973  1.5986  1.8304  1.4704
   28MOL0     H 3716   2.983   0.582  11.065 -1.3101 -3.3509  0.5956
   28MOL0     H 3717   2.869   0.433  10.821 -2.3600  0.1224 -0.1459
   28MOL0     H 3718   2.847   0.379  10.986  1.6454 -2.0588 -1.0589
   28MOL0     H 3719   2.698   0.573  11.031  2.4306 -0.5792  1.2741
   28MOL0     H 3720   2.756   0.658  10.889 -1.8579  0.2708 -1.5638
   28MOL0     H 3721   2.635   0.482  10.751 -1.6069 -1.5985 -0.3207
   28MOL0     H 3722   2.583   0.406  10.893 -2.4850 -0.0747 -1.9697
   28MOL0     H 3723   2.515   0.708  10.837  0.9797 -0.3915 -1.2166
   28MOL0     H 3724   2.429   0.570  10.787 -0.4875 -0.6058  0.5536
   28MOL0     H 3725   2.415   0.485  11.026  1.8530 -1.2973  0.3758
   28MOL0     H 3726   2.478   0.638  11.069  1.3085  0.6014 -2.2052
   28MOL0     H 3727   2.224   0.634  11.084 -1.7015  0.3002 -1.1426
   28MOL0     H 3728   2.287   0.765  10.988 -0.9974  0.1399  0.2690
   28MOL0     H 3729   2.190   0.502  10.870  0.8186  0.3201  2.8879
   28MOL0     H 3730   2.220   0.649  10.780 -0.1494 -0.9238  0.3672
   28MOL0     H 3731   1.948   0.486  10.994 -4.6423 -0.1798  1.5326
   28MOL0     H 3732   1.691   0.654  11.115  0.4780 -0.3248 -0.8836
   28MOL0     H 3733   1.650   0.759  10.981 -2.9445 -0.8901  2.4868
   28MOL0     H 3734   1.665   0.455  11.012 -1.6236 -1.7628 -1.0235
   28MOL0     H 3735   1.634   0.520  10.847  1.6834 -1.9216  0.4263
   28MOL0     H 3736   1.448   0.659  10.966 -0.8208  0.5027  1.1391
   28MOL0     H 3737   1.483   0.547  11.105  3.6931 -0.9105 -0.3322
   28MOL0     H 3738   1.432   0.379  10.867 -1.6080 -0.2420 -0.9531
   28MOL0     H 3739   1.312   0.492  10.870  1.5506  0.5331 -1.5611
   28MOL0     H 3740   1.186   0.225  11.221  0.5494  1.2173  1.0493
   28MOL0     H 3741   1.002  -0.030  11.244 -1.0154 -1.2070 -0.3014
   28MOL0     H 3742   0.978   0.136  11.298  1.8797 -2.7769  1.5768
   28MOL0     H 3743   0.865   0.073  11.209  0.0286 -1.9735 -0.2089
   28MOL0     H 3744   0.827  -0.080  10.560 -1.7112 -2.1384 -2.3351
   28MOL0     H 3745   0.646  -0.177  10.458 -1.5843  2.6962 -0.6222
   28MOL0     H 3746   0.406  -0.426  10.655  0.6214  0.6583 -0.1266
   28MOL0     H 3747   0.305  -0.305  10.733 -0.3165 -2.6706  0.4714
   28MOL0     H 3748   0.255  -0.451  10.460 -0.1159  1.5111 -0.8077
   28MOL0     H 3749   0.165  -0.462  10.604  0.8070 -0.9204 -0.6944
   28MOL0     H 3750   0.197  -0.205  10.439  0.1933 -1.7561 -0.7320
   28MOL0     H 3751   0.106  -0.214  10.594 -1.0704  2.3327 -0.3620
   28MOL0     H 3752  -0.017  -0.234  10.367  1.5272  3.6196  2.4085
   28MOL0     H 3753   0.066  -0.387  10.337 -0.8215 -2.0194  2.3820
   28MOL0     H 3754  -0.111  -0.326  10.584  0.9390 -2.6840  2.6924
   28MOL0     H 3755  -0.066  -0.486  10.543  0.1208 -0.1982  0.6464
   28MOL0     H 3756  -0.245  -0.297  10.368  1.8807  0.4276  1.2710
   28MOL0     H 3757  -0.184  -0.452  10.315 -1.3462  0.3306 -0.9107
   28MOL0     H 3758  -0.430  -0.430  10.432 -1.2749  1.1707  1.9212
   28MOL0     H 3759  -0.336  -0.453  10.576  2.2580 -1.7019  0.1062
   28MOL0     H 3760  -0.232  -0.661  10.461  1.3089  0.9184 -4.9977
   28MOL0     H 3761  -0.326  -0.637  10.325  0.9422 -2.0584  0.1827
   28MOL0     H 3762   0.412  -0.126  10.831 -0.3271  1.4755 -0.3180
   28MOL0     H 3763   0.605  -0.023  10.925 -1.0640 -1.2036  0.5794
   28MOL0     H 3764   1.041   0.155  10.754 -3.1586 -1.4706  1.5683
   28MOL0     H 3765   1.224   0.301  10.794 -1.0571 -3.6092 -1.6282
   28MOL0     H 3766   3.217   0.675  11.080  1.0446  2.3281 -0.2646
   28MOL0     H 3767   3.459   0.643  11.062  2.0571 -2.9940 -2.0461
   28MOL0     H 3768   3.820   0.613  10.553 -1.1845  1.4224  0.6272
   28MOL0     H 3769   4.058   0.651  10.524  2.7489 -1.8263  0.9583
   28MOL0     H 3770   4.392   0.689  10.626  0.6460  0.3862 -0.2508
   28MOL0     H 3771   4.252   0.703  10.537 -1.1092 -2.5819  2.1449
   28MOL0     H 3772   4.240   0.952  10.589  0.3190  0.4303 -0.8503
   28MOL0     H 3773   4.402   0.887  10.534 -0.2160 -3.3237 -0.7358
   28MOL0     H 3774   4.326   0.937  10.822  0.6937 -3.4511  0.5298
   28MOL0     H 3775   4.419   1.048  10.725  0.0212 -0.1873  0.5151
   28MOL0     H 3776   4.578   0.852  10.685 -2.9972 -1.6135 -1.0022
   28MOL0     H 3777   4.517   0.768  10.830  0.5110 -0.3118  0.1134
   28MOL0     H 3778   4.781   1.063  10.982 -0.1961  2.7709 -1.0364
   28MOL0     H 3779   4.066   0.676  10.968 -1.3200  0.2110  1.5618
   28MOL0     H 3780   3.831   0.619  10.965  0.9145 -2.6648  1.2218
   29MOL0     O 3781   0.895   7.409   8.275  0.6610  0.7108  0.3169
   29MOL0     C 3782   0.781   7.409   8.322 -0.4440 -0.5889 -0.5747
   29MOL0     O 3783   0.742   7.364   8.449 -0.5680 -0.0354  0.1622
   29MOL0     C 3784   0.837   7.327   8.533 -0.4045  0.6908  0.2769
   29MOL0     C 3785   0.891   7.199   8.520 -0.5413 -0.2745 -0.7461
   29MOL0     C 3786   0.976   7.152   8.619  0.7548 -1.0611 -0.4414
   29MOL0     C 3787   1.027   7.237   8.716  0.1889  0.1876 -0.4066
   29MOL0     O 3788   1.120   7.191   8.811  0.5351 -0.8981  0.1950
   29MOL0     C 3789   1.113   7.059   8.856  0.5445  0.2809 -0.2158
   29MOL0     C 3790   1.226   7.041   8.958 -0.1202  0.8298 -0.5821
   29MOL0     C 3791   1.260   6.897   8.981  0.9968  0.1306 -0.2806
   29MOL0     C 3792   1.394   6.894   9.061 -0.1100 -0.9206  0.0035
   29MOL0     C 3793   1.408   6.756   9.109  0.0020 -0.3935 -0.3553
   29MOL0     C 3794   1.518   6.758   9.216  0.2023  0.1767  0.4325
   29MOL0     C 3795   1.524   6.614   9.277 -1.2786 -0.6451 -0.1700
   29MOL0     C 3796   1.425   6.607   9.401 -1.0644 -0.3118  0.0859
   29MOL0     N 3797   1.417   6.471   9.457  0.2766 -0.3236  0.1334
   29MOL0     C 3798   1.375   6.353   9.396 -1.0486 -0.0138  0.4679
   29MOL0     C 3799   1.399   6.255   9.485  0.2973  0.2346  0.4448
   29MOL0     C 3800   1.394   6.107   9.461  0.9223 -0.1977  0.8175
   29MOL0     C 3801   1.458   6.012   9.566 -0.2809 -0.5586  0.2140
   29MOL0     C 3802   1.384   6.005   9.699  0.5103 -0.7170 -0.0392
   29MOL0     C 3803   1.456   5.937   9.812 -0.6537 -0.3314 -0.2638
   29MOL0     O 3804   1.502   5.809   9.771 -0.5530 -0.0358  0.0201
   29MOL0     C 3805   1.413   5.710   9.760  0.0953  0.3493 -0.1489
   29MOL0     C 3806   1.451   5.598   9.687 -0.0776  0.5860 -0.1113
   29MOL0     C 3807   1.362   5.491   9.662  0.6953 -0.1613  0.0192
   29MOL0     C 3808   1.423   5.381   9.580 -0.3465 -0.1454  0.0041
   29MOL0     C 3809   1.225   5.505   9.719 -0.5903  0.2795 -0.1868
   29MOL0     C 3810   1.121   5.391   9.711  0.6240  0.0003  0.1135
   29MOL0     O 3811   1.000   5.410   9.777 -0.2391 -0.2902  0.4037
   29MOL0     C 3812   0.876   5.377   9.723  0.6498  0.7686 -0.3339
   29MOL0     C 3813   0.855   5.349   9.590  0.1355 -0.0756 -0.8592
   29MOL0     C 3814   0.727   5.297   9.552 -0.5067 -0.0532 -0.3215
   29MOL0     C 3815   0.623   5.286   9.649  0.3650  0.2877  0.3105
   29MOL0     O 3816   0.494   5.233   9.639 -0.6033 -0.5016 -0.8763
   29MOL0     C 3817   0.470   5.127   9.555  0.2964  0.5001 -0.4662
   29MOL0     C 3818   0.320   5.107   9.570  0.5360 -0.1699  0.5134
   29MOL0     C 3819   0.286   5.074   9.707 -0.1359  0.3211 -0.4128
   29MOL0     C 3820   0.139   5.027   9.726 -0.2852 -0.3795 -0.3944
   29MOL0     C 3821   0.137   4.956   9.872  0.1435 -0.0286  0.2605
   29MOL0     C 3822  -0.004   4.936   9.898  1.0502  0.5224 -0.4194
   29MOL0     C 3823  -0.080   4.851   9.784 -0.0599  0.0107 -0.2277
   29MOL0     C 3824  -0.188   4.771   9.843  0.3880 -0.5736  0.5750
   29MOL0    Cl 3825  -0.134   4.631   9.938  0.2826  0.3310  0.1622
   29MOL0     C 3826   0.660   5.297   9.783  0.7187 -0.1262  0.4298
   29MOL0     C 3827   0.779   5.356   9.819  0.2252 -0.0625 -0.8536
   29MOL0     O 3828   1.142   5.293   9.643  0.6096  0.1932 -0.5723
   29MOL0     C 3829   1.193   5.618   9.791  0.2310  0.1155 -0.2262
   29MOL0     C 3830   1.283   5.718   9.802 -0.2906 -0.7372 -0.4007
   29MOL0     N 3831   1.464   6.318   9.591  0.1109 -0.1045 -0.9364
   29MOL0     N 3832   1.478   6.445   9.578 -0.1184 -0.5269 -0.1079
   29MOL0     C 3833   0.998   7.377   8.718  0.3755 -0.2844 -0.1312
   29MOL0     C 3834   0.901   7.418   8.624 -0.3528 -0.3810  0.6605
   29MOL0     C 3835   0.679   7.473   8.237 -0.5659 -0.9140  0.5663
   29MOL0     C 3836   0.543   7.421   8.243 -0.8577 -0.7681  0.5188
   29MOL0     C 3837   0.447   7.476   8.160 -0.2116  0.0996  0.2612
   29MOL0     C 3838   0.479   7.596   8.074  0.0608 -0.6565 -0.0888
   29MOL0     O 3839   0.387   7.666   8.001  0.0292 -0.2314  0.2562
   29MOL0     C 3840   0.249   7.654   8.014  0.5205  0.6507  0.8707
   29MOL0     C 3841   0.203   7.689   8.153 -0.1633  0.1980 -0.4152
   29MOL0     C 3842   0.282   7.812   8.204 -0.6412 -0.3328 -0.4760
   29MOL0     C 3843   0.214   7.881   8.321  0.1618 -0.0639  0.0210
   29MOL0     C 3844   0.089   7.938   8.276 -0.2009 -0.3706 -0.2071
   29MOL0     C 3845  -0.018   7.977   8.233 -0.4490 -0.0051 -0.4219
   29MOL0     C 3846   0.605   7.645   8.076  0.2528  0.0299 -0.3793
   29MOL0     C 3847   0.701   7.586   8.156 -0.5825 -0.0380  0.0030
   29MOL0     H 3848   0.859   7.140   8.435 -1.5064 -0.0602 -0.5322
   29MOL0     H 3849   1.017   7.052   8.606 -1.8341 -2.4588  1.2867
   29MOL0     H 3850   1.014   7.022   8.883  0.0142  1.0199 -1.0979
   29MOL0     H 3851   1.144   7.000   8.770  1.4326  1.2290 -0.5836
   29MOL0     H 3852   1.318   7.086   8.920  1.8424 -2.3802 -0.0329
   29MOL0     H 3853   1.203   7.079   9.058  1.5496 -3.5262  1.7198
   29MOL0     H 3854   1.174   6.851   9.030  0.6639  1.7486  0.7388
   29MOL0     H 3855   1.287   6.848   8.887  0.6785 -3.4728  1.3391
   29MOL0     H 3856   1.466   6.929   8.988 -1.4399  0.5911 -0.6477
   29MOL0     H 3857   1.397   6.971   9.138  1.0011  2.4183 -3.1066
   29MOL0     H 3858   1.311   6.717   9.140 -0.2988  0.0445 -0.7313
   29MOL0     H 3859   1.440   6.695   9.024 -1.5573  1.0057 -2.0299
   29MOL0     H 3860   1.607   6.791   9.161 -0.6583  1.5754 -0.1680
   29MOL0     H 3861   1.496   6.835   9.290 -1.8528 -1.9588  2.2114
   29MOL0     H 3862   1.506   6.538   9.201 -0.3790 -2.7848  1.6521
   29MOL0     H 3863   1.624   6.601   9.320 -2.0286 -1.9380  1.2794
   29MOL0     H 3864   1.323   6.633   9.369 -1.1986 -0.9676 -0.0325
   29MOL0     H 3865   1.454   6.682   9.475 -2.2151 -0.2601  0.5073
   29MOL0     H 3866   1.339   6.348   9.294 -1.7635  4.1126  0.3630
   29MOL0     H 3867   1.290   6.079   9.443  0.6379  2.6587 -3.5624
   29MOL0     H 3868   1.446   6.093   9.366  0.6054  1.7405  0.3221
   29MOL0     H 3869   1.560   6.049   9.580 -0.1225 -1.1064  0.5436
   29MOL0     H 3870   1.468   5.917   9.513  1.9266  1.1899 -2.7902
   29MOL0     H 3871   1.297   5.948   9.666 -0.1978  0.8258 -0.9702
   29MOL0     H 3872   1.355   6.105   9.730  1.9751 -0.8480  1.9645
   29MOL0     H 3873   1.397   5.923   9.903 -1.2799 -0.8266 -0.7354
   29MOL0     H 3874   1.544   5.998   9.832  0.4995 -1.4143 -1.7463
   29MOL0     H 3875   1.552   5.612   9.649 -0.4355  2.1807 -0.5960
   29MOL0     H 3876   1.386   5.371   9.478  1.0272 -2.4246 -0.3382
   29MOL0     H 3877   1.528   5.411   9.577 -1.0828  2.6479 -1.1796
   29MOL0     H 3878   1.408   5.283   9.625  0.1793 -0.0597  0.3733
   29MOL0     H 3879   0.931   5.360   9.514 -0.3783 -1.0266 -1.5318
   29MOL0     H 3880   0.716   5.276   9.446  0.4378  0.5423 -0.5501
   29MOL0     H 3881   0.500   5.153   9.453 -0.4464 -0.3162 -0.9106
   29MOL0     H 3882   0.531   5.039   9.576  1.8216 -0.1464 -6.0278
   29MOL0     H 3883   0.270   5.200   9.542  2.3779  1.1276  1.3030
   29MOL0     H 3884   0.285   5.027   9.504  1.4825  0.0508 -0.2907
   29MOL0     H 3885   0.304   5.161   9.771 -0.5170  1.1910 -1.4614
   29MOL0     H 3886   0.357   4.995   9.734 -0.9100 -0.5973 -0.9974
   29MOL0     H 3887   0.071   5.113   9.721  0.5098  0.2771 -0.1017
   29MOL0     H 3888   0.099   4.956   9.653  1.2292 -0.3398 -1.2920
   29MOL0     H 3889   0.186   5.023   9.943  2.7813  0.7382 -2.1241
   29MOL0     H 3890   0.192   4.861   9.871 -0.1432 -0.2099  0.8813
   29MOL0     H 3891  -0.008   4.883   9.994 -0.8245  0.9918 -0.1989
   29MOL0     H 3892  -0.046   5.034   9.922  2.4578  1.0759 -0.0919
   29MOL0     H 3893  -0.025   4.783   9.719 -0.4063 -1.3511  0.8544
   29MOL0     H 3894  -0.129   4.926   9.721  0.2394 -0.5522 -1.1523
   29MOL0     H 3895  -0.258   4.739   9.765 -2.5144  0.3337  2.6308
   29MOL0     H 3896  -0.243   4.841   9.906 -2.6287  0.9951 -3.3750
   29MOL0     H 3897   0.588   5.284   9.863  0.1720 -2.4993 -0.3806
   29MOL0     H 3898   0.812   5.367   9.922 -0.2779 -0.6858 -0.6239
   29MOL0     H 3899   1.099   5.624   9.844 -0.0692 -4.1643  0.0352
   29MOL0     H 3900   1.243   5.799   9.862 -0.6816 -0.8921 -0.4475
   29MOL0     H 3901   1.046   7.439   8.793  1.1749 -0.7409 -0.2468
   29MOL0     H 3902   0.869   7.522   8.624 -1.8156 -0.7945  1.7198
   29MOL0     H 3903   0.517   7.337   8.306 -2.3397  0.7666  2.0677
   29MOL0     H 3904   0.347   7.434   8.159 -0.1340 -0.0861  0.2010
   29MOL0     H 3905   0.197   7.718   7.942  1.8631  0.2410 -0.5115
   29MOL0     H 3906   0.216   7.552   7.991  2.6266 -0.3470  1.9938
   29MOL0     H 3907   0.227   7.600   8.212 -1.0870  0.8739  1.0154
   29MOL0     H 3908   0.095   7.707   8.160 -0.5463 -2.0432  0.2584
   29MOL0     H 3909   0.300   7.879   8.119  0.7296 -1.3858 -1.0615
   29MOL0     H 3910   0.380   7.781   8.241 -1.3002  0.0564  1.7238
   29MOL0     H 3911   0.270   7.965   8.363 -1.1283 -0.2585  2.2585
   29MOL0     H 3912   0.191   7.815   8.405 -3.1146 -1.5435 -1.8529
   29MOL0     H 3913  -0.109   8.013   8.187 -0.5919 -1.6254 -1.5023
   29MOL0     H 3914   0.642   7.736   8.029 -2.7786  0.5043 -2.1109
   29MOL0     H 3915   0.800   7.631   8.157 -0.6837  0.1910  1.3401
   30MOL0     O 3916   8.597   1.093  10.439 -0.7339 -0.1527 -0.5643
   30MOL0     C 3917   8.617   0.980  10.407 -0.3968  0.6068  0.6388
   30MOL0     O 3918   8.518   0.885  10.389  0.9695  0.1797  1.0139
   30MOL0     C 3919   8.383   0.914  10.402 -0.5624  0.3714  0.0708
   30MOL0     C 3920   8.292   0.800  10.381  0.1031  0.0698 -0.2549
   30MOL0     C 3921   8.149   0.811  10.387 -0.4143 -0.0382 -0.2666
   30MOL0     C 3922   8.090   0.936  10.416 -0.7822  0.6345  0.3108
   30MOL0     O 3923   7.948   0.956  10.421 -0.3716 -0.5764 -0.1636
   30MOL0     C 3924   7.904   1.063  10.331  0.0977  0.3928  0.2315
   30MOL0     C 3925   7.751   1.057  10.311  0.9330  0.6085  0.9171
   30MOL0     C 3926   7.701   1.106  10.182  0.2823 -0.5967  0.1474
   30MOL0     C 3927   7.549   1.063  10.168 -0.3296  0.3768 -0.3602
   30MOL0     C 3928   7.505   1.077  10.022  0.2346 -0.0358  0.2211
   30MOL0     C 3929   7.354   1.075   9.999  0.8229  0.2888 -0.8826
   30MOL0     C 3930   7.308   1.107   9.859 -1.0016  0.1642 -0.1422
   30MOL0     C 3931   7.158   1.106   9.848  0.7445 -1.0687  0.2223
   30MOL0     N 3932   7.119   1.139   9.713 -0.0156 -0.0820 -0.2082
   30MOL0     C 3933   7.142   1.058   9.602 -0.0499  0.4146 -0.3209
   30MOL0     C 3934   7.083   1.127   9.503  0.3756  0.0138 -0.2758
   30MOL0     C 3935   7.096   1.088   9.357 -0.5187  0.6586  0.3583
   30MOL0     C 3936   6.966   1.123   9.285 -0.2700 -0.2662 -0.8566
   30MOL0     C 3937   6.968   1.099   9.138  0.0056  0.3040  0.4740
   30MOL0     C 3938   6.860   1.170   9.052 -1.3099  0.1511 -0.1275
   30MOL0     O 3939   6.738   1.107   9.073  0.5126  0.8470  0.2403
   30MOL0     C 3940   6.625   1.167   9.016  0.4693 -0.2224  0.2855
   30MOL0     C 3941   6.625   1.267   8.918 -0.6465 -0.4018  0.4207
   30MOL0     C 3942   6.507   1.320   8.867 -0.3828 -0.4610  0.1411
   30MOL0     C 3943   6.517   1.432   8.764  0.1814  0.2596  0.0832
   30MOL0     C 3944   6.388   1.254   8.889  0.1919 -0.3644 -0.3428
   30MOL0     C 3945   6.259   1.267   8.811 -0.1304  0.7450 -0.8363
   30MOL0     O 3946   6.263   1.342   8.700  0.6975 -0.0554 -0.6693
   30MOL0     C 3947   6.145   1.382   8.642  1.1113 -0.1654 -0.7535
   30MOL0     C 3948   6.017   1.389   8.702  0.2845  0.1963  0.7486
   30MOL0     C 3949   5.903   1.406   8.623  0.3235  0.0956  0.4796
   30MOL0     C 3950   5.906   1.420   8.492  0.2975  0.2052  0.2393
   30MOL0     O 3951   5.782   1.446   8.433  0.4138  0.0624  0.3069
   30MOL0     C 3952   5.770   1.459   8.288 -0.0422 -0.2632  0.2861
   30MOL0     C 3953   5.625   1.502   8.251 -0.5887  0.0933 -0.3246
   30MOL0     C 3954   5.507   1.425   8.321 -0.4813  0.7316  0.4839
   30MOL0     C 3955   5.374   1.449   8.257  0.3067 -0.4560 -0.3783
   30MOL0     C 3956   5.271   1.378   8.344 -0.3941  0.2089  0.3658
   30MOL0     C 3957   5.133   1.383   8.294 -0.2010  0.4954  0.2782
   30MOL0     C 3958   5.059   1.262   8.341  0.1839 -0.2868  0.1535
   30MOL0     C 3959   5.081   1.124   8.278  0.4468 -0.8937  0.1619
   30MOL0    Cl 3960   4.974   1.004   8.364  0.1578  0.8375  0.0506
   30MOL0     C 3961   6.033   1.417   8.425 -0.3606 -0.1099  0.5715
   30MOL0     C 3962   6.144   1.398   8.504 -0.4080  0.7130  0.0599
   30MOL0     O 3963   6.175   1.182   8.839  0.3708  0.5643  0.7044
   30MOL0     C 3964   6.391   1.168   9.005 -0.1718  0.4666 -0.4071
   30MOL0     C 3965   6.504   1.122   9.068  0.5960  0.5206  0.3152
   30MOL0     N 3966   7.021   1.238   9.556  0.3073 -0.4348  0.8400
   30MOL0     N 3967   7.047   1.246   9.671 -0.1830 -0.2136 -0.4130
   30MOL0     C 3968   8.177   1.042  10.439  0.1513 -0.1837  0.1672
   30MOL0     C 3969   8.321   1.032  10.421  0.4460 -0.1043  0.4707
   30MOL0     C 3970   8.761   0.936  10.383  0.2452  0.3156 -0.8520
   30MOL0     C 3971   8.862   1.025  10.401  0.3953 -0.7320  1.0074
   30MOL0     C 3972   8.996   0.992  10.379 -0.0833 -0.6019 -0.9981
   30MOL0     C 3973   9.030   0.862  10.349 -0.4235 -0.5346  0.2169
   30MOL0     O 3974   9.155   0.800  10.345  0.9807  0.1410  0.6782
   30MOL0     C 3975   9.263   0.878  10.379 -0.2301 -0.7825 -0.3226
   30MOL0     C 3976   9.305   0.981  10.271 -0.7438 -0.2578 -0.0739
   30MOL0     C 3977   9.333   0.921  10.124 -0.4534  0.4362 -0.1684
   30MOL0     C 3978   9.429   1.004  10.040 -0.3702 -0.0941 -0.7249
   30MOL0     C 3979   9.451   0.924   9.921 -0.9904  0.4666  0.2343
   30MOL0     C 3980   9.448   0.848   9.823  0.4584  0.2178 -0.0186
   30MOL0     C 3981   8.928   0.767  10.328 -0.8128  0.3705  1.4265
   30MOL0     C 3982   8.793   0.798  10.349 -0.2982  0.7389  0.3020
   30MOL0     H 3983   8.322   0.698  10.357 -0.6335 -0.4362  0.8893
   30MOL0     H 3984   8.092   0.722  10.360  2.9194 -2.1591 -0.7849
   30MOL0     H 3985   7.931   1.166  10.354 -0.5747  0.3550  1.2281
   30MOL0     H 3986   7.957   1.062  10.235  0.7434 -2.7982  0.5299
   30MOL0     H 3987   7.711   0.958  10.334 -1.2836  1.1216 -0.4178
   30MOL0     H 3988   7.707   1.131  10.378  0.2965  1.4949 -0.4149
   30MOL0     H 3989   7.709   1.215  10.173  0.4305 -0.7095 -1.6136
   30MOL0     H 3990   7.758   1.052  10.105 -1.3892 -3.1467  0.5780
   30MOL0     H 3991   7.548   0.957  10.196 -1.8743  0.0868 -1.3900
   30MOL0     H 3992   7.475   1.123  10.223 -0.8085  1.1605 -1.8037
   30MOL0     H 3993   7.541   1.174   9.986 -2.1915  1.7006  2.1340
   30MOL0     H 3994   7.560   1.003   9.963 -1.6502  0.2465 -2.0298
   30MOL0     H 3995   7.307   0.982  10.030  2.7462  0.0501  1.7003
   30MOL0     H 3996   7.325   1.156  10.067 -0.5062  0.4743 -1.6309
   30MOL0     H 3997   7.350   1.205   9.835 -1.4781 -0.0707 -2.1115
   30MOL0     H 3998   7.360   1.033   9.798  2.6479  1.2975  1.3096
   30MOL0     H 3999   7.104   1.176   9.913 -2.0107  1.1080 -3.9301
   30MOL0     H 4000   7.135   1.003   9.875  4.3672 -2.1098 -0.2282
   30MOL0     H 4001   7.193   0.963   9.596 -3.0022 -1.2063 -1.5105
   30MOL0     H 4002   7.185   1.127   9.306 -1.3334  1.7440 -0.2739
   30MOL0     H 4003   7.102   0.979   9.344  0.7737  0.8086 -0.5330
   30MOL0     H 4004   6.946   1.230   9.299 -1.9978 -0.5990 -0.5312
   30MOL0     H 4005   6.879   1.076   9.332 -1.8920  2.3198 -1.0140
   30MOL0     H 4006   6.957   0.993   9.113  3.3581  0.0923 -0.6663
   30MOL0     H 4007   7.068   1.120   9.097  0.3882 -3.5718 -0.9877
   30MOL0     H 4008   6.890   1.149   8.949 -1.6426  1.2619 -0.4681
   30MOL0     H 4009   6.854   1.277   9.075  0.8458  0.1163  0.9151
   30MOL0     H 4010   6.721   1.294   8.876 -0.4517 -0.0278  1.0939
   30MOL0     H 4011   6.539   1.391   8.665  0.0239 -1.6051  0.7858
   30MOL0     H 4012   6.426   1.492   8.750 -0.7418 -1.0455  0.3102
   30MOL0     H 4013   6.588   1.506   8.803 -0.4627  0.0659  1.6780
   30MOL0     H 4014   6.002   1.398   8.809 -2.6931  1.0854  0.3391
   30MOL0     H 4015   5.806   1.413   8.671 -0.0130  1.5228 -0.3395
   30MOL0     H 4016   5.828   1.547   8.255 -0.6612 -0.7839 -2.4081
   30MOL0     H 4017   5.811   1.372   8.237 -0.1442  1.5848 -3.2464
   30MOL0     H 4018   5.613   1.600   8.297  0.4271 -0.6263  1.6088
   30MOL0     H 4019   5.623   1.496   8.142  1.3128 -2.0808 -0.3383
   30MOL0     H 4020   5.505   1.448   8.428  0.8197 -1.0268  0.9219
   30MOL0     H 4021   5.522   1.317   8.313 -3.5382  0.2831 -0.3111
   30MOL0     H 4022   5.360   1.557   8.270 -2.5465 -0.6554 -1.0714
   30MOL0     H 4023   5.367   1.428   8.150 -1.1028 -1.1101 -0.1824
   30MOL0     H 4024   5.273   1.406   8.450 -1.4685 -0.8491  0.6916
   30MOL0     H 4025   5.311   1.276   8.344 -0.4025  0.1447 -1.9851
   30MOL0     H 4026   5.083   1.471   8.336  0.1860  1.5711 -1.4342
   30MOL0     H 4027   5.127   1.388   8.185  0.6134  7.3358  0.0972
   30MOL0     H 4028   4.958   1.292   8.311  0.1734  0.9894  1.3749
   30MOL0     H 4029   5.075   1.257   8.449  1.2418 -1.5656 -0.0338
   30MOL0     H 4030   5.188   1.102   8.274  1.1836  1.9444  1.1587
   30MOL0     H 4031   5.044   1.119   8.175 -0.6910  2.4553  0.2781
   30MOL0     H 4032   6.044   1.447   8.321 -0.6565  2.2809  1.1640
   30MOL0     H 4033   6.235   1.382   8.446 -0.5896 -0.6830  0.1242
   30MOL0     H 4034   6.302   1.116   9.037  0.6911 -0.8540 -0.0684
   30MOL0     H 4035   6.485   1.050   9.147 -0.3170  1.7782  1.2998
   30MOL0     H 4036   8.130   1.139  10.455  2.5586  1.0991 -0.1162
   30MOL0     H 4037   8.372   1.128  10.417  0.1301  0.0781  0.7306
   30MOL0     H 4038   8.851   1.132  10.417  3.3328 -0.1440 -0.4015
   30MOL0     H 4039   9.077   1.060  10.402 -0.1228 -1.1906  1.1725
   30MOL0     H 4040   9.239   0.931  10.471 -2.0579 -3.0303  0.5944
   30MOL0     H 4041   9.346   0.811  10.404 -1.0810 -2.3851 -1.5714
   30MOL0     H 4042   9.388   1.043  10.304 -1.3796 -0.6311  2.4482
   30MOL0     H 4043   9.226   1.054  10.253  0.3131  0.8238 -0.4007
   30MOL0     H 4044   9.243   0.894  10.069 -0.9321 -0.6773  1.0981
   30MOL0     H 4045   9.384   0.825  10.136  1.5475  1.3967 -0.5372
   30MOL0     H 4046   9.528   1.012  10.086 -0.5459  2.4953 -0.6341
   30MOL0     H 4047   9.398   1.106  10.014  0.9952  0.1583 -1.5272
   30MOL0     H 4048   9.429   0.771   9.750  1.2963 -1.2760  1.2616
   30MOL0     H 4049   8.963   0.668  10.303  0.0083  1.5389 -2.6784
   30MOL0     H 4050   8.709   0.729  10.339 -0.1936  0.3154  1.9477
   31MOL0     O 4051   1.794   5.498   0.213  0.6987  0.7668  0.6547
   31MOL0     C 4052   1.854   5.481   0.106 -1.2109 -0.8062 -1.1038
   31MOL0     O 4053   1.805   5.413  -0.000  0.3079 -0.3041  0.2054
   31MOL0     C 4054   1.677   5.382  -0.008 -0.8005 -0.1832  0.1715
   31MOL0     C 4055   1.635   5.267   0.056 -0.2170 -0.0409  0.3224
   31MOL0     C 4056   1.507   5.229   0.058  0.5393  1.0675  0.2350
   31MOL0     C 4057   1.410   5.318   0.005 -0.7144  0.5521 -0.2258
   31MOL0     O 4058   1.277   5.290   0.017 -0.6510  0.3627 -0.7980
   31MOL0     C 4059   1.217   5.207   0.118 -0.7405 -0.1439 -0.5577
   31MOL0     C 4060   1.076   5.247   0.169  0.3958 -0.9665 -0.7700
   31MOL0     C 4061   0.996   5.133   0.233 -0.2433  0.7557 -0.0972
   31MOL0     C 4062   0.856   5.195   0.261 -0.2402  0.1641 -0.7568
   31MOL0     C 4063   0.776   5.120   0.358  1.4975  0.4392 -0.1229
   31MOL0     C 4064   0.620   5.143   0.324 -0.2000 -0.2779  0.9124
   31MOL0     C 4065   0.530   5.029   0.389  0.2370  0.4123 -1.0038
   31MOL0     C 4066   0.545   5.028   0.542 -0.3898  0.2409  0.6495
   31MOL0     N 4067   0.618   4.911   0.601  0.2814 -0.5716  0.0576
   31MOL0     C 4068   0.701   4.914   0.712 -0.3126 -0.4053 -0.6098
   31MOL0     C 4069   0.744   4.788   0.736  0.5724 -0.7926  0.3615
   31MOL0     C 4070   0.847   4.740   0.838  0.1208 -0.5854 -0.2366
   31MOL0     C 4071   0.987   4.742   0.764 -0.9415 -0.2317  0.5713
   31MOL0     C 4072   1.101   4.770   0.865  0.2992 -0.2540 -0.4872
   31MOL0     C 4073   1.230   4.746   0.802  0.7698 -0.0322 -0.3648
   31MOL0     O 4074   1.232   4.838   0.697 -0.1401  0.4462 -0.2144
   31MOL0     C 4075   1.353   4.852   0.637 -0.1881 -1.1883 -0.5749
   31MOL0     C 4076   1.446   4.750   0.621  0.6232  0.5418  0.0841
   31MOL0     C 4077   1.566   4.768   0.552  0.1796 -0.1714 -0.5431
   31MOL0     C 4078   1.647   4.639   0.533 -1.0325  0.0102  0.1131
   31MOL0     C 4079   1.598   4.900   0.508  0.2623  0.7028  0.1311
   31MOL0     C 4080   1.732   4.930   0.453  0.0513  0.3579  0.2171
   31MOL0     O 4081   1.747   5.061   0.408  0.0488  0.1619 -0.2506
   31MOL0     C 4082   1.870   5.108   0.362  0.0559 -0.5720  0.0893
   31MOL0     C 4083   1.952   5.186   0.450  0.1771  1.2864 -0.5631
   31MOL0     C 4084   2.082   5.223   0.412 -0.3424  0.4979  0.6055
   31MOL0     C 4085   2.129   5.187   0.285  0.1403 -0.4015 -0.0040
   31MOL0     O 4086   2.264   5.220   0.271 -0.3635  0.5505  0.1606
   31MOL0     C 4087   2.314   5.196   0.144 -0.0952 -0.0353 -0.2402
   31MOL0     C 4088   2.459   5.265   0.147 -0.6848  0.1336  0.1946
   31MOL0     C 4089   2.569   5.187   0.225  0.4325 -0.1201  0.4837
   31MOL0     C 4090   2.698   5.277   0.215  0.1819 -0.2983 -0.9201
   31MOL0     C 4091   2.796   5.232   0.115 -0.5824 -0.2379  1.0662
   31MOL0     C 4092   2.928   5.318   0.105  0.2093 -0.4575  0.3953
   31MOL0     C 4093   3.016   5.300   0.224  0.1150 -0.7841  0.4671
   31MOL0     C 4094   3.162   5.372   0.214  0.8289 -1.0254  0.3238
   31MOL0    Cl 4095   3.272   5.329   0.356  0.3219  0.2400  0.1059
   31MOL0     C 4096   2.050   5.119   0.202  0.9488 -0.3350  0.1947
   31MOL0     C 4097   1.925   5.070   0.243  0.7488  0.3964  0.3238
   31MOL0     O 4098   1.825   4.851   0.471 -0.6017 -0.0138  0.3250
   31MOL0     C 4099   1.507   4.999   0.528  0.2423  0.4701 -1.1991
   31MOL0     C 4100   1.382   4.976   0.587  0.4944  0.2078  0.2798
   31MOL0     N 4101   0.680   4.707   0.642  0.6317  0.0596  0.1264
   31MOL0     N 4102   0.603   4.776   0.567  0.0215 -0.2091  0.2947
   31MOL0     C 4103   1.450   5.437  -0.056  0.2551  0.6769 -1.0546
   31MOL0     C 4104   1.583   5.472  -0.069  0.2152  1.1696  0.4134
   31MOL0     C 4105   1.993   5.499   0.096  0.0929 -0.8545  0.6584
   31MOL0     C 4106   2.063   5.551   0.211 -0.3486  0.3375  0.5302
   31MOL0     C 4107   2.198   5.583   0.212  0.5446 -0.9437  0.4651
   31MOL0     C 4108   2.282   5.567   0.097 -0.1042 -0.3140  0.5185
   31MOL0     O 4109   2.420   5.587   0.099 -0.4533 -0.5852  0.5055
   31MOL0     C 4110   2.467   5.688   0.191 -0.6461 -0.5599  0.0133
   31MOL0     C 4111   2.576   5.770   0.122 -0.1710  0.1557 -0.9509
   31MOL0     C 4112   2.689   5.666   0.096 -0.0142  0.0396  0.1315
   31MOL0     C 4113   2.782   5.719  -0.017  0.0083 -0.0867 -0.1773
   31MOL0     C 4114   2.915   5.695   0.020  0.3869 -0.9232  0.0063
   31MOL0     C 4115   3.027   5.689   0.062  0.0556  0.3952 -0.8911
   31MOL0     C 4116   2.217   5.520  -0.021 -0.6703 -0.1758 -0.8866
   31MOL0     C 4117   2.076   5.491  -0.016  0.7819  0.0401 -0.0194
   31MOL0     H 4118   1.721   5.216   0.099  1.1404  2.1407  0.3656
   31MOL0     H 4119   1.473   5.135   0.102 -1.9132  2.1827  0.9213
   31MOL0     H 4120   1.222   5.104   0.080  1.0684 -0.9123  1.5612
   31MOL0     H 4121   1.275   5.195   0.209 -0.2381 -3.9729 -1.1920
   31MOL0     H 4122   1.089   5.312   0.255  4.2780 -1.1273 -1.0739
   31MOL0     H 4123   1.013   5.286   0.088 -3.0198 -2.9044  0.7129
   31MOL0     H 4124   1.009   5.051   0.162  4.4826  0.7315  0.4924
   31MOL0     H 4125   1.051   5.105   0.324 -0.2816  2.0921  0.3561
   31MOL0     H 4126   0.864   5.294   0.307  0.6388 -0.1634 -0.1686
   31MOL0     H 4127   0.799   5.191   0.168 -2.1379 -0.8044  0.3771
   31MOL0     H 4128   0.797   5.014   0.341  1.3176  0.2455  0.8026
   31MOL0     H 4129   0.789   5.155   0.461 -0.5240  0.6625  0.0836
   31MOL0     H 4130   0.586   5.237   0.369  0.2897 -0.5921  1.9842
   31MOL0     H 4131   0.601   5.143   0.217 -0.8555 -5.6272  0.7814
   31MOL0     H 4132   0.428   5.063   0.366  0.5226 -0.0195 -3.1349
   31MOL0     H 4133   0.545   4.940   0.328 -0.1055  0.4126 -1.0951
   31MOL0     H 4134   0.442   5.027   0.579 -0.0547  0.6153  1.6368
   31MOL0     H 4135   0.577   5.123   0.588  0.4379 -0.4436  1.5206
   31MOL0     H 4136   0.737   4.998   0.770 -0.1329 -0.9166  0.0286
   31MOL0     H 4137   0.862   4.795   0.931 -1.5726 -3.6401  2.0390
   31MOL0     H 4138   0.827   4.639   0.876  2.5727 -0.5387  1.3682
   31MOL0     H 4139   0.985   4.818   0.685 -2.5150  1.5092  2.1766
   31MOL0     H 4140   1.009   4.654   0.704 -0.6191 -0.4874  1.0590
   31MOL0     H 4141   1.097   4.700   0.949  2.1368  1.3721  1.0571
   31MOL0     H 4142   1.102   4.873   0.902  1.9507 -0.2157 -0.5676
   31MOL0     H 4143   1.224   4.644   0.764  3.2013 -0.6851  0.8324
   31MOL0     H 4144   1.310   4.766   0.873  0.5486 -1.3271  0.2743
   31MOL0     H 4145   1.428   4.653   0.664 -0.2088  0.5272 -0.2957
   31MOL0     H 4146   1.595   4.556   0.582 -1.1605  0.3488  0.5485
   31MOL0     H 4147   1.657   4.618   0.426 -0.1673  2.7069 -0.4150
   31MOL0     H 4148   1.748   4.649   0.575 -1.5390  3.6124  0.8073
   31MOL0     H 4149   1.918   5.211   0.550  3.2425 -0.2283  0.9822
   31MOL0     H 4150   2.148   5.285   0.471  0.8518 -0.0477 -0.1158
   31MOL0     H 4151   2.322   5.090   0.117  3.8977  1.0243 -4.4642
   31MOL0     H 4152   2.249   5.253   0.078 -1.5327  2.0113  2.7054
   31MOL0     H 4153   2.480   5.272   0.040 -0.7855 -3.0860 -0.1504
   31MOL0     H 4154   2.443   5.364   0.190  3.6036  1.8057 -1.4657
   31MOL0     H 4155   2.577   5.086   0.185  1.5610 -0.0795  0.5848
   31MOL0     H 4156   2.537   5.191   0.329 -2.0943 -1.5449 -0.1413
   31MOL0     H 4157   2.662   5.379   0.197 -0.6139 -0.1803  1.0999
   31MOL0     H 4158   2.738   5.267   0.316  3.8033 -1.2970 -2.2681
   31MOL0     H 4159   2.749   5.235   0.016 -1.6555  1.0405  1.5817
   31MOL0     H 4160   2.822   5.129   0.139  4.8294 -0.6355 -4.1084
   31MOL0     H 4161   2.980   5.282   0.015  1.6012 -0.4236  1.1639
   31MOL0     H 4162   2.903   5.424   0.096 -2.3971 -1.0201  0.0198
   31MOL0     H 4163   3.027   5.196   0.253  0.0261 -0.3701  2.1127
   31MOL0     H 4164   2.966   5.348   0.310  0.9058  2.3537 -0.6850
   31MOL0     H 4165   3.146   5.481   0.216  2.0700 -0.8233  0.2351
   31MOL0     H 4166   3.198   5.338   0.117 -1.4557  0.1922 -1.0505
   31MOL0     H 4167   2.081   5.082   0.105 -1.5180 -1.1386 -0.3687
   31MOL0     H 4168   1.872   4.995   0.185  0.2234  2.5252 -2.1493
   31MOL0     H 4169   1.533   5.102   0.504 -2.7045  1.7397  0.4922
   31MOL0     H 4170   1.309   5.055   0.602 -1.8623 -1.7090 -0.4168
   31MOL0     H 4171   1.378   5.515  -0.078  1.7220  2.7412  1.0394
   31MOL0     H 4172   1.618   5.556  -0.127  2.5492 -0.7889 -1.1918
   31MOL0     H 4173   2.012   5.563   0.307  0.1804  0.6768  0.7713
   31MOL0     H 4174   2.251   5.607   0.304  1.4148 -0.3956 -0.1633
   31MOL0     H 4175   2.388   5.758   0.221  0.6329  0.1706  1.8751
   31MOL0     H 4176   2.506   5.651   0.286  1.4632  1.8260  0.1968
   31MOL0     H 4177   2.604   5.851   0.190 -1.9042 -1.1977  1.5319
   31MOL0     H 4178   2.536   5.814   0.031  1.6246 -0.3260 -2.0403
   31MOL0     H 4179   2.646   5.570   0.066  1.9475 -0.8987  0.0862
   31MOL0     H 4180   2.736   5.656   0.194 -1.8402  0.4625  1.0744
   31MOL0     H 4181   2.767   5.827  -0.032 -2.2648 -0.3202  0.1063
   31MOL0     H 4182   2.767   5.664  -0.110  1.5871  1.4550 -1.4222
   31MOL0     H 4183   3.125   5.692   0.106  0.1119  1.7483 -1.0600
   31MOL0     H 4184   2.266   5.516  -0.117  3.8500 -1.0400  1.1956
   31MOL0     H 4185   2.026   5.471  -0.110  0.5540 -1.2276  0.3434
   32MOL0     O 4186   6.270   7.612   0.522 -1.4300 -0.0804 -0.2536
   32MOL0     C 4187   6.285   7.719   0.462  0.7356 -0.3562 -0.5005
   32MOL0     O 4188   6.397   7.764   0.409  0.0488  1.1000 -0.2819
   32MOL0     C 4189   6.514   7.689   0.415  0.3058  0.1757 -0.2132
   32MOL0     C 4190   6.574   7.655   0.545  0.2700  0.3013  1.1951
   32MOL0     C 4191   6.696   7.590   0.555 -0.8780 -0.1133  0.3473
   32MOL0     C 4192   6.771   7.572   0.437  0.6764 -0.1576 -0.3963
   32MOL0     O 4193   6.893   7.502   0.448  0.0954  0.0495 -0.3680
   32MOL0     C 4194   6.995   7.537   0.351  0.0797 -0.5480  0.4130
   32MOL0     C 4195   7.113   7.442   0.370 -0.2599  0.1818  0.3319
   32MOL0     C 4196   7.243   7.502   0.318 -0.0290  0.3551 -0.4259
   32MOL0     C 4197   7.357   7.408   0.351 -1.1577 -0.2413 -0.3279
   32MOL0     C 4198   7.475   7.424   0.255 -0.7080  1.0604  0.1343
   32MOL0     C 4199   7.547   7.553   0.261  0.1523 -1.2224  0.0211
   32MOL0     C 4200   7.695   7.548   0.202  0.3557  0.6564 -0.2802
   32MOL0     C 4201   7.782   7.667   0.237 -0.5932 -0.8513  0.5789
   32MOL0     N 4202   7.723   7.798   0.212 -0.3045  0.4253  0.5460
   32MOL0     C 4203   7.699   7.833   0.079  0.0972 -0.4398 -0.2869
   32MOL0     C 4204   7.625   7.944   0.100 -0.0476  0.0320 -0.1921
   32MOL0     C 4205   7.563   8.037  -0.008  0.3125 -0.4587  0.3260
   32MOL0     C 4206   7.407   8.023  -0.020  0.1712 -0.5988 -0.7170
   32MOL0     C 4207   7.343   8.135  -0.105  0.1036 -0.7399 -0.4458
   32MOL0     C 4208   7.186   8.126  -0.121 -0.8635 -0.7969 -1.0187
   32MOL0     O 4209   7.130   8.021  -0.205 -0.3419  0.2451 -0.2087
   32MOL0     C 4210   6.995   8.019  -0.220  0.4312  0.1049  0.5069
   32MOL0     C 4211   6.914   8.114  -0.183  0.2488 -0.5810  0.2835
   32MOL0     C 4212   6.774   8.119  -0.200 -0.4900 -0.5143 -0.1952
   32MOL0     C 4213   6.696   8.242  -0.172 -0.0106  0.4338  0.5143
   32MOL0     C 4214   6.716   8.005  -0.261  0.4038 -0.8195  0.0261
   32MOL0     C 4215   6.572   7.977  -0.294  0.2919 -0.2244 -0.0930
   32MOL0     O 4216   6.487   8.089  -0.288 -0.0164  0.5401  0.4517
   32MOL0     C 4217   6.346   8.064  -0.304 -0.4155 -0.0446  0.0844
   32MOL0     C 4218   6.282   7.964  -0.224  0.5571  0.3936 -0.4090
   32MOL0     C 4219   6.142   7.955  -0.225 -0.7646 -0.7856  0.1321
   32MOL0     C 4220   6.065   8.048  -0.302  1.2953 -0.1866  0.2518
   32MOL0     O 4221   5.929   8.022  -0.305 -0.1861 -0.0605  0.4350
   32MOL0     C 4222   5.834   8.122  -0.319 -0.4306 -0.9633  0.5319
   32MOL0     C 4223   5.773   8.165  -0.183 -0.4667  0.0254  0.5902
   32MOL0     C 4224   5.697   8.296  -0.194  0.0429  0.5254  0.7684
   32MOL0     C 4225   5.656   8.359  -0.052 -0.8845  0.1096  0.5954
   32MOL0     C 4226   5.611   8.508  -0.053 -0.2974 -0.0873  0.6849
   32MOL0     C 4227   5.493   8.525  -0.149  0.3855 -0.7467  0.6552
   32MOL0     C 4228   5.460   8.673  -0.163 -0.0817  0.4968 -0.2040
   32MOL0     C 4229   5.346   8.697  -0.267 -0.8944  0.8920 -0.7595
   32MOL0    Cl 4230   5.390   8.637  -0.436 -0.0838 -0.1655 -0.0711
   32MOL0     C 4231   6.132   8.132  -0.386  0.0092  0.2407 -0.5223
   32MOL0     C 4232   6.271   8.144  -0.390 -0.3450  0.3785 -0.0431
   32MOL0     O 4233   6.533   7.862  -0.322  0.3821 -0.7886  0.4515
   32MOL0     C 4234   6.799   7.894  -0.303  0.0112 -0.3364  0.6909
   32MOL0     C 4235   6.937   7.907  -0.281  0.0592 -0.2577  0.2604
   32MOL0     N 4236   7.625   7.990   0.236 -0.5303  0.0264  1.2032
   32MOL0     N 4237   7.688   7.897   0.298 -0.5148  0.2632  0.4828
   32MOL0     C 4238   6.719   7.614   0.311 -0.0804  0.2448 -0.9491
   32MOL0     C 4239   6.592   7.672   0.298 -0.3696 -0.7143 -0.7008
   32MOL0     C 4240   6.164   7.803   0.440  0.7050  1.1825  0.1941
   32MOL0     C 4241   6.170   7.920   0.365 -0.4928 -0.5019  0.0022
   32MOL0     C 4242   6.058   7.994   0.330 -0.0068  0.2866 -0.2629
   32MOL0     C 4243   5.925   7.957   0.374  0.5181 -0.1141  0.5179
   32MOL0     O 4244   5.816   8.039   0.336 -0.3259 -0.5347  0.2165
   32MOL0     C 4245   5.685   8.016   0.384 -0.8298  0.4245 -1.4173
   32MOL0     C 4246   5.587   8.129   0.348  0.8387  0.8530  0.3516
   32MOL0     C 4247   5.632   8.268   0.387  0.1731 -0.2319 -0.2324
   32MOL0     C 4248   5.518   8.375   0.400  0.5203 -0.4226  1.0438
   32MOL0     C 4249   5.441   8.388   0.272  0.6936 -0.6811 -0.1465
   32MOL0     C 4250   5.374   8.421   0.177  0.7194  0.8339 -0.5345
   32MOL0     C 4251   5.918   7.824   0.434  0.2174 -0.3921 -0.0768
   32MOL0     C 4252   6.034   7.756   0.469  0.1587  0.2662  0.2495
   32MOL0     H 4253   6.508   7.673   0.629  0.3989 -3.4606  2.2718
   32MOL0     H 4254   6.739   7.573   0.654  2.3212 -1.1160 -1.0624
   32MOL0     H 4255   6.975   7.522   0.245  3.8499  2.1977 -0.9232
   32MOL0     H 4256   7.019   7.644   0.358 -1.2279 -0.1433 -0.8366
   32MOL0     H 4257   7.127   7.421   0.476  1.8089  1.8024  0.4699
   32MOL0     H 4258   7.091   7.345   0.326 -2.6880  1.4379 -1.4673
   32MOL0     H 4259   7.226   7.514   0.210  1.6579 -1.7723 -1.0087
   32MOL0     H 4260   7.271   7.595   0.368 -1.1934 -1.1251  3.3465
   32MOL0     H 4261   7.394   7.423   0.453  1.3119  1.0156 -1.3205
   32MOL0     H 4262   7.317   7.306   0.348 -0.5653 -0.4922  0.2331
   32MOL0     H 4263   7.546   7.342   0.267  0.8252  2.3937  0.6290
   32MOL0     H 4264   7.426   7.425   0.157 -1.3184 -2.2380  0.3099
   32MOL0     H 4265   7.491   7.633   0.212  1.1047  0.2467  1.2726
   32MOL0     H 4266   7.564   7.587   0.363 -0.2247  0.1457 -0.3548
   32MOL0     H 4267   7.743   7.455   0.234 -0.3001  1.3689  3.1622
   32MOL0     H 4268   7.686   7.530   0.094  2.6640 -2.7794 -0.0466
   32MOL0     H 4269   7.873   7.666   0.177  0.0421 -0.5063  1.5196
   32MOL0     H 4270   7.802   7.658   0.344 -0.5359 -0.4940  0.5987
   32MOL0     H 4271   7.709   7.779  -0.014 -1.3616 -0.1855 -0.6213
   32MOL0     H 4272   7.598   8.138   0.019  1.1572  0.1337 -2.6255
   32MOL0     H 4273   7.605   8.008  -0.105 -2.0765 -1.4020 -0.4838
   32MOL0     H 4274   7.373   8.050   0.081  3.7940 -2.1039  1.0950
   32MOL0     H 4275   7.375   7.922  -0.046 -2.0383 -0.2232  0.3236
   32MOL0     H 4276   7.378   8.151  -0.208 -1.3084  0.2974 -0.8016
   32MOL0     H 4277   7.357   8.228  -0.050  1.5686 -0.9250 -0.4827
   32MOL0     H 4278   7.144   8.224  -0.145 -0.3355 -0.2174  0.3577
   32MOL0     H 4279   7.148   8.100  -0.022 -0.4224 -0.8638 -0.8659
   32MOL0     H 4280   6.950   8.200  -0.127  0.8227 -0.8398  0.3086
   32MOL0     H 4281   6.749   8.314  -0.109 -0.6060  1.2563  0.0921
   32MOL0     H 4282   6.657   8.285  -0.265 -1.1356 -0.1084  0.7143
   32MOL0     H 4283   6.609   8.213  -0.111 -0.6866 -1.3846 -1.2263
   32MOL0     H 4284   6.339   7.901  -0.157  0.5354  0.3135 -0.4651
   32MOL0     H 4285   6.102   7.882  -0.155  2.5344 -1.6522  1.3072
   32MOL0     H 4286   5.881   8.211  -0.363 -2.3486 -0.4388 -0.5448
   32MOL0     H 4287   5.750   8.089  -0.381  0.8307 -1.1397 -1.1744
   32MOL0     H 4288   5.713   8.085  -0.139 -1.4588  2.6224  4.5071
   32MOL0     H 4289   5.855   8.175  -0.111 -0.4166 -3.1900  1.1010
   32MOL0     H 4290   5.617   8.287  -0.269  1.6536 -2.0157 -0.8117
   32MOL0     H 4291   5.765   8.373  -0.233 -0.8348  0.2135 -1.5408
   32MOL0     H 4292   5.573   8.300  -0.013 -1.4990  0.1437 -0.6065
   32MOL0     H 4293   5.738   8.344   0.019 -0.5883  0.2046  0.2756
   32MOL0     H 4294   5.698   8.568  -0.081  0.0249 -1.1639 -0.6978
   32MOL0     H 4295   5.579   8.534   0.048 -1.6219 -1.0302  0.5322
   32MOL0     H 4296   5.528   8.491  -0.247  3.2703  0.3474  1.1968
   32MOL0     H 4297   5.407   8.465  -0.119 -1.0674  0.4807 -0.8627
   32MOL0     H 4298   5.548   8.735  -0.183 -0.3392  0.5421 -1.2958
   32MOL0     H 4299   5.399   8.710  -0.080 -3.2135  2.0715 -2.9384
   32MOL0     H 4300   5.328   8.804  -0.280  1.0937  1.4233  0.3712
   32MOL0     H 4301   5.254   8.654  -0.226 -0.4807  0.0907 -0.6483
   32MOL0     H 4302   6.074   8.204  -0.444  0.3748  2.1701  1.3747
   32MOL0     H 4303   6.322   8.212  -0.458  0.0965  0.8992  0.7994
   32MOL0     H 4304   6.774   7.808  -0.365  1.4578  0.4757 -1.0974
   32MOL0     H 4305   7.007   7.826  -0.298  1.9127  1.4411 -0.6474
   32MOL0     H 4306   6.770   7.599   0.217 -2.7278 -0.9928 -2.3152
   32MOL0     H 4307   6.563   7.720   0.205 -0.9713  1.5193  0.5606
   32MOL0     H 4308   6.262   7.970   0.338 -1.3082  0.8137 -0.3974
   32MOL0     H 4309   6.077   8.088   0.279 -2.5081  0.1167 -1.6336
   32MOL0     H 4310   5.660   7.913   0.354 -0.2046 -0.4903  0.9655
   32MOL0     H 4311   5.687   8.008   0.493  2.3016  2.7152 -1.1827
   32MOL0     H 4312   5.490   8.113   0.395  1.7394  1.7210  2.6949
   32MOL0     H 4313   5.564   8.123   0.241 -2.3794 -2.3879  1.0415
   32MOL0     H 4314   5.706   8.299   0.312  0.8268 -3.9629 -1.3359
   32MOL0     H 4315   5.691   8.263   0.479  1.5342  2.7224 -0.8055
   32MOL0     H 4316   5.574   8.467   0.421 -1.1678  0.8503  0.2449
   32MOL0     H 4317   5.441   8.355   0.475  0.2530  0.7588  1.1045
   32MOL0     H 4318   5.305   8.450   0.101  1.3193  0.6419 -1.1639
   32MOL0     H 4319   5.823   7.793   0.477  0.9966 -0.7585  1.4427
   32MOL0     H 4320   6.027   7.662   0.523 -1.1435  1.4287  2.2398
   33MOL0     O 4321   1.797   0.220   9.588  0.8360 -0.3813  0.4443
   33MOL0     C 4322   1.904   0.180   9.546 -0.3824 -0.1599 -0.2922
   33MOL0     O 4323   1.931   0.055   9.482 -0.5018 -0.2627 -0.0041
   33MOL0     C 4324   1.824  -0.035   9.461  0.2198  0.2234  0.5906
   33MOL0     C 4325   1.773  -0.048   9.331  0.8698 -0.5991 -0.6755
   33MOL0     C 4326   1.682  -0.147   9.306  0.0499  0.0140  0.3782
   33MOL0     C 4327   1.621  -0.234   9.405 -0.2755 -0.4590  0.0796
   33MOL0     O 4328   1.525  -0.332   9.383  0.3402 -0.3527 -0.6070
   33MOL0     C 4329   1.550  -0.399   9.252 -0.0780  0.3279 -0.3301
   33MOL0     C 4330   1.496  -0.540   9.237 -0.1724  0.0183  0.4543
   33MOL0     C 4331   1.481  -0.588   9.088 -0.5664 -0.2642 -0.4613
   33MOL0     C 4332   1.434  -0.734   9.061 -0.4833 -0.0111 -0.7338
   33MOL0     C 4333   1.435  -0.768   8.911 -0.4334 -0.1295 -0.3907
   33MOL0     C 4334   1.322  -0.689   8.830 -0.5325 -0.5148 -0.0748
   33MOL0     C 4335   1.294  -0.753   8.689 -0.1457 -0.0026  0.3134
   33MOL0     C 4336   1.225  -0.653   8.602  0.2317 -0.2835  0.9702
   33MOL0     N 4337   1.203  -0.697   8.460 -0.1579 -0.0977 -0.3448
   33MOL0     C 4338   1.084  -0.754   8.416 -1.0482  0.2296 -0.7751
   33MOL0     C 4339   1.095  -0.758   8.277  0.6928 -0.3153  0.7974
   33MOL0     C 4340   0.979  -0.782   8.184 -1.1064  0.1001  1.2840
   33MOL0     C 4341   0.902  -0.663   8.136  0.3251 -0.1291 -0.3986
   33MOL0     C 4342   0.978  -0.533   8.128  0.5177  0.0186  0.1690
   33MOL0     C 4343   0.897  -0.416   8.076 -0.2653  0.2619 -0.7977
   33MOL0     O 4344   0.805  -0.369   8.175 -0.1942  0.6908 -0.2382
   33MOL0     C 4345   0.711  -0.279   8.130  0.4964  0.1408  0.8989
   33MOL0     C 4346   0.678  -0.239   7.993  1.0003  0.7443 -0.2557
   33MOL0     C 4347   0.569  -0.164   7.967 -0.3316 -0.3389  0.5637
   33MOL0     C 4348   0.546  -0.137   7.820  0.6758 -0.1748  0.6218
   33MOL0     C 4349   0.484  -0.114   8.070 -0.6535 -0.5689 -0.7568
   33MOL0     C 4350   0.360  -0.031   8.048 -0.7283  0.0403  0.3169
   33MOL0     O 4351   0.292   0.005   8.165 -0.5736  0.0848 -0.0953
   33MOL0     C 4352   0.160   0.048   8.167 -0.0765  0.0247 -0.4647
   33MOL0     C 4353   0.060  -0.015   8.097 -0.0011  0.4359  0.0848
   33MOL0     C 4354  -0.065   0.041   8.104 -0.1270 -0.3820 -0.6112
   33MOL0     C 4355  -0.091   0.140   8.189  0.0521 -0.2506  0.5360
   33MOL0     O 4356  -0.215   0.201   8.203  0.0769 -0.0145 -0.0520
   33MOL0     C 4357  -0.333   0.159   8.127 -0.4888  0.1252  0.3885
   33MOL0     C 4358  -0.448   0.245   8.142  0.9710 -0.2199  0.0832
   33MOL0     C 4359  -0.500   0.238   8.285  0.3719 -0.5605  0.7317
   33MOL0     C 4360  -0.620   0.331   8.292  0.4348 -0.0163 -1.0530
   33MOL0     C 4361  -0.686   0.327   8.432 -0.2631 -0.9471 -0.8438
   33MOL0     C 4362  -0.609   0.388   8.538 -0.0739  0.0750 -0.8782
   33MOL0     C 4363  -0.696   0.394   8.662  0.2291  0.8362 -0.3016
   33MOL0     C 4364  -0.621   0.434   8.789 -0.1803 -0.1953  0.5996
   33MOL0    Cl 4365  -0.582   0.611   8.782 -0.1310 -0.3210  0.5531
   33MOL0     C 4366   0.012   0.199   8.268  0.0877  0.0162 -0.3991
   33MOL0     C 4367   0.139   0.145   8.260  0.7271  0.3011  0.1379
   33MOL0     O 4368   0.322  -0.014   7.929  0.1138 -0.2454  0.1341
   33MOL0     C 4369   0.531  -0.146   8.202  0.0782 -0.9376 -0.4456
   33MOL0     C 4370   0.648  -0.221   8.234  0.1866  0.9104 -0.2593
   33MOL0     N 4371   1.223  -0.715   8.247 -0.1230  0.3457  0.0132
   33MOL0     N 4372   1.286  -0.685   8.353 -0.0959 -0.3861 -0.0383
   33MOL0     C 4373   1.661  -0.213   9.539 -0.6347  0.7212  1.2437
   33MOL0     C 4374   1.763  -0.117   9.561  0.7575 -0.3861 -0.1394
   33MOL0     C 4375   2.014   0.282   9.565 -0.0102 -0.8277  0.0667
   33MOL0     C 4376   2.139   0.265   9.499  0.1896 -0.8846  0.1685
   33MOL0     C 4377   2.229   0.370   9.497  0.2694 -0.0601 -0.0679
   33MOL0     C 4378   2.204   0.493   9.553  0.4671 -0.4755 -0.1658
   33MOL0     O 4379   2.294   0.600   9.547  0.5233 -0.3505 -0.3766
   33MOL0     C 4380   2.431   0.566   9.532  0.3780  0.1257 -0.1784
   33MOL0     C 4381   2.516   0.691   9.546  0.2351  0.6372 -0.3471
   33MOL0     C 4382   2.667   0.666   9.552 -0.3127  0.1954  0.0831
   33MOL0     C 4383   2.723   0.655   9.414  0.7291 -0.2636  0.8805
   33MOL0     C 4384   2.857   0.603   9.427 -0.1273  0.5176 -0.4844
   33MOL0     C 4385   2.966   0.567   9.454 -0.1246 -0.4724  0.0103
   33MOL0     C 4386   2.085   0.510   9.624 -0.5846 -0.7359  0.5817
   33MOL0     C 4387   1.991   0.401   9.640 -0.9296 -0.7283  0.3963
   33MOL0     H 4388   1.797   0.011   9.243  0.2410 -1.6511 -1.5814
   33MOL0     H 4389   1.665  -0.148   9.199 -0.1780 -0.8423  0.4185
   33MOL0     H 4390   1.519  -0.331   9.172 -0.6224  0.4392 -0.0242
   33MOL0     H 4391   1.658  -0.403   9.234  0.5718 -0.8588  3.1280
   33MOL0     H 4392   1.551  -0.610   9.300 -2.8982 -1.6058  1.1717
   33MOL0     H 4393   1.398  -0.532   9.285  0.0520  0.6727  0.8122
   33MOL0     H 4394   1.397  -0.526   9.057 -0.2318  0.1473 -0.5533
   33MOL0     H 4395   1.576  -0.561   9.041 -0.5587  1.3260  0.4037
   33MOL0     H 4396   1.503  -0.805   9.107 -1.6656 -0.0108  1.1589
   33MOL0     H 4397   1.339  -0.737   9.115  0.2397  0.4351  0.5961
   33MOL0     H 4398   1.536  -0.746   8.875 -1.0956  0.7318 -1.8481
   33MOL0     H 4399   1.416  -0.875   8.902  3.5392 -0.8360 -3.0810
   33MOL0     H 4400   1.229  -0.699   8.887  0.6903  1.2880  2.4344
   33MOL0     H 4401   1.349  -0.583   8.828  0.6730 -0.8058 -0.1308
   33MOL0     H 4402   1.394  -0.776   8.651 -0.4662  1.5288 -1.6323
   33MOL0     H 4403   1.235  -0.844   8.699  0.4535 -0.7065 -1.9910
   33MOL0     H 4404   1.299  -0.574   8.586  0.7478 -0.5109  2.0869
   33MOL0     H 4405   1.131  -0.616   8.643 -0.3473 -2.1717  1.4325
   33MOL0     H 4406   0.995  -0.779   8.473  0.1375 -0.5536  0.8226
   33MOL0     H 4407   1.023  -0.836   8.099 -0.4703  1.5649  0.6604
   33MOL0     H 4408   0.915  -0.842   8.250 -0.9022 -0.1325  1.2755
   33MOL0     H 4409   0.828  -0.645   8.214  1.2771 -4.1781  1.7178
   33MOL0     H 4410   0.855  -0.684   8.039 -1.0720 -0.6256  0.3719
   33MOL0     H 4411   1.064  -0.549   8.062 -0.7080 -3.5551 -0.7870
   33MOL0     H 4412   1.018  -0.516   8.229 -1.5175 -2.7646  1.5754
   33MOL0     H 4413   0.847  -0.442   7.982 -0.3024  3.2191 -1.6968
   33MOL0     H 4414   0.968  -0.338   8.047  0.3936 -0.1014 -0.1933
   33MOL0     H 4415   0.723  -0.292   7.910  2.1812 -2.8304  2.4165
   33MOL0     H 4416   0.484  -0.052   7.790  2.0462  0.5710 -0.2649
   33MOL0     H 4417   0.640  -0.122   7.766  1.2226 -3.5464  0.4465
   33MOL0     H 4418   0.479  -0.216   7.788  0.3273 -0.1651  1.3136
   33MOL0     H 4419   0.076  -0.106   8.040 -1.9191 -0.4427  0.8753
   33MOL0     H 4420  -0.135  -0.014   8.042 -0.9373 -0.5716  0.4495
   33MOL0     H 4421  -0.291   0.169   8.026  2.5607  1.1527  1.6271
   33MOL0     H 4422  -0.351   0.059   8.167  1.4121 -1.4854 -2.3960
   33MOL0     H 4423  -0.429   0.348   8.113 -2.0106  0.6099  0.7268
   33MOL0     H 4424  -0.529   0.205   8.080 -2.2606 -3.1656  5.4413
   33MOL0     H 4425  -0.420   0.276   8.350  1.5922  0.3876 -1.2459
   33MOL0     H 4426  -0.529   0.135   8.311 -3.0530  0.4036  1.1887
   33MOL0     H 4427  -0.578   0.429   8.268  0.8292  0.5596  1.5893
   33MOL0     H 4428  -0.693   0.301   8.217 -0.6080  0.2646 -0.1750
   33MOL0     H 4429  -0.705   0.225   8.467  0.7572 -0.9209 -0.2064
   33MOL0     H 4430  -0.777   0.387   8.434 -0.6727 -1.5368 -1.1583
   33MOL0     H 4431  -0.526   0.320   8.560 -0.6088 -1.1705 -2.4975
   33MOL0     H 4432  -0.584   0.491   8.510 -2.3662  0.8076 -0.4193
   33MOL0     H 4433  -0.736   0.295   8.686  1.0676  0.4321 -0.5446
   33MOL0     H 4434  -0.788   0.452   8.647 -0.6410 -0.8011 -1.6949
   33MOL0     H 4435  -0.536   0.365   8.783 -0.9847 -1.2360  0.8903
   33MOL0     H 4436  -0.686   0.412   8.875  2.0508 -3.7341  1.5746
   33MOL0     H 4437  -0.020   0.278   8.335 -0.6303 -1.5983  1.2570
   33MOL0     H 4438   0.225   0.183   8.314  1.1542 -2.6614  1.7693
   33MOL0     H 4439   0.487  -0.088   8.282  0.5705 -0.6273 -0.3933
   33MOL0     H 4440   0.691  -0.237   8.332 -1.9030  0.8520  0.6809
   33MOL0     H 4441   1.631  -0.281   9.618 -2.5190 -1.7453 -1.3586
   33MOL0     H 4442   1.814  -0.108   9.657  2.5836 -2.1225 -0.8718
   33MOL0     H 4443   2.155   0.172   9.446 -0.2597 -1.4896  1.0696
   33MOL0     H 4444   2.326   0.363   9.448  1.0265 -0.2290  1.4049
   33MOL0     H 4445   2.454   0.500   9.617  1.2400 -0.9777 -1.2443
   33MOL0     H 4446   2.451   0.519   9.436 -1.1734 -0.5556 -0.2066
   33MOL0     H 4447   2.495   0.729   9.647  0.8844  1.7455 -0.6046
   33MOL0     H 4448   2.503   0.762   9.464  0.8520  1.7293  0.4678
   33MOL0     H 4449   2.699   0.578   9.608  0.7171  1.3643  1.3743
   33MOL0     H 4450   2.714   0.757   9.588 -1.2870  1.8138 -2.4276
   33MOL0     H 4451   2.737   0.752   9.366  1.8440 -0.6062  0.4656
   33MOL0     H 4452   2.670   0.596   9.339  1.4779  0.0670  0.0755
   33MOL0     H 4453   3.056   0.513   9.473  0.3185 -0.3872 -1.6543
   33MOL0     H 4454   2.073   0.609   9.668 -0.8847 -0.0470 -0.9590
   33MOL0     H 4455   1.904   0.407   9.704 -0.5436 -0.7346  0.9212
   34MOL0     O 4456   6.078   5.410   0.127  0.0944  0.2969  0.0337
   34MOL0     C 4457   6.090   5.509   0.201  0.1445  0.5344 -0.6537
   34MOL0     O 4458   5.992   5.607   0.215 -0.7382 -0.1146 -0.2636
   34MOL0     C 4459   5.879   5.583   0.140  0.7382  0.6878 -0.4413
   34MOL0     C 4460   5.866   5.656   0.021  0.2032 -0.4281  0.0670
   34MOL0     C 4461   5.759   5.640  -0.066  0.9182  0.7085 -0.1121
   34MOL0     C 4462   5.666   5.542  -0.038 -0.4609 -0.3654  0.6444
   34MOL0     O 4463   5.570   5.518  -0.128 -0.2548 -0.4687  0.2094
   34MOL0     C 4464   5.592   5.398  -0.196  0.3698  0.7971  0.1364
   34MOL0     C 4465   5.496   5.399  -0.316  1.0575 -0.1536 -1.2456
   34MOL0     C 4466   5.351   5.413  -0.264  0.0818  0.1248  0.6012
   34MOL0     C 4467   5.264   5.416  -0.394 -0.8594 -0.6534  0.0313
   34MOL0     C 4468   5.116   5.428  -0.348 -1.1025  0.3386  0.2519
   34MOL0     C 4469   5.033   5.433  -0.480  1.1719  0.0028  0.0929
   34MOL0     C 4470   4.888   5.441  -0.445  0.2027 -0.7241 -0.1307
   34MOL0     C 4471   4.815   5.501  -0.559 -0.0321  0.5665 -0.8902
   34MOL0     N 4472   4.673   5.491  -0.532  0.2644  0.0529  0.1420
   34MOL0     C 4473   4.597   5.384  -0.570 -0.1964 -0.7752 -0.1136
   34MOL0     C 4474   4.465   5.406  -0.533  0.1977  0.2440  0.0245
   34MOL0     C 4475   4.353   5.307  -0.556 -0.1794  0.2015 -0.4198
   34MOL0     C 4476   4.231   5.330  -0.465  0.2671  0.4196 -0.0007
   34MOL0     C 4477   4.274   5.262  -0.330  0.2492  0.5029  0.3614
   34MOL0     C 4478   4.157   5.269  -0.238  0.5795 -0.1267  0.3201
   34MOL0     O 4479   4.164   5.168  -0.130 -0.5717  0.5954 -0.3615
   34MOL0     C 4480   4.068   5.075  -0.109  0.3389 -0.4471 -0.7977
   34MOL0     C 4481   4.098   4.976  -0.017  0.1800 -1.0440 -0.4732
   34MOL0     C 4482   4.007   4.873   0.003  0.0738 -0.8380 -0.2675
   34MOL0     C 4483   4.054   4.757   0.092  0.0212 -0.8245  0.7833
   34MOL0     C 4484   3.879   4.869  -0.056 -0.6280  0.4755 -0.3418
   34MOL0     C 4485   3.768   4.766  -0.039 -0.5774 -0.6188  0.0545
   34MOL0     O 4486   3.648   4.787  -0.095 -0.6405  0.5926  0.4133
   34MOL0     C 4487   3.556   4.683  -0.089  0.0022 -0.0361 -0.0414
   34MOL0     C 4488   3.558   4.581  -0.182 -0.3432 -1.0750  0.3371
   34MOL0     C 4489   3.455   4.492  -0.199 -0.1097  0.2490 -0.0664
   34MOL0     C 4490   3.345   4.504  -0.114 -0.5720 -0.2217 -0.3763
   34MOL0     O 4491   3.236   4.426  -0.120 -0.9915 -0.5943 -0.2543
   34MOL0     C 4492   3.216   4.347  -0.239  1.0210 -0.5980  0.3274
   34MOL0     C 4493   3.082   4.274  -0.218 -0.4635 -0.1187  0.6045
   34MOL0     C 4494   2.964   4.370  -0.252 -0.1153  0.7511  0.5683
   34MOL0     C 4495   2.838   4.330  -0.181  0.2275  0.0507 -0.9965
   34MOL0     C 4496   2.724   4.373  -0.268 -0.4395  1.0532  0.3208
   34MOL0     C 4497   2.584   4.325  -0.236  0.4646  0.5614  0.0745
   34MOL0     C 4498   2.540   4.351  -0.087 -0.4345  0.0476  0.2939
   34MOL0     C 4499   2.406   4.291  -0.043 -0.5324 -0.3014 -0.6257
   34MOL0    Cl 4500   2.421   4.119  -0.076 -0.3514 -0.0817 -0.2287
   34MOL0     C 4501   3.357   4.594  -0.007  0.4547 -0.3383  0.0061
   34MOL0     C 4502   3.456   4.689   0.012  0.3959 -0.7379 -0.2937
   34MOL0     O 4503   3.799   4.658   0.016  0.3105 -0.2942  0.6287
   34MOL0     C 4504   3.846   4.980  -0.134  0.6408  0.0697  0.0409
   34MOL0     C 4505   3.938   5.086  -0.146  0.6702 -1.1312  0.4045
   34MOL0     N 4506   4.468   5.527  -0.465  0.1600 -0.2566 -0.0399
   34MOL0     N 4507   4.596   5.579  -0.469 -0.5438 -0.0547  0.1545
   34MOL0     C 4508   5.673   5.473   0.087 -0.1310 -0.5765 -0.5416
   34MOL0     C 4509   5.776   5.506   0.178  0.5064  0.6749  0.2649
   34MOL0     C 4510   6.205   5.510   0.295  0.3841  0.9766 -0.3602
   34MOL0     C 4511   6.212   5.593   0.407  0.6674  0.2581  0.2709
   34MOL0     C 4512   6.317   5.574   0.510 -0.4781  0.0983  0.1718
   34MOL0     C 4513   6.421   5.483   0.488  0.4925  0.7000  0.3648
   34MOL0     O 4514   6.523   5.458   0.577  0.6044  0.2174  0.2772
   34MOL0     C 4515   6.610   5.567   0.603 -0.1694  0.4597  0.1320
   34MOL0     C 4516   6.718   5.551   0.720 -0.2065 -1.2566 -0.4533
   34MOL0     C 4517   6.744   5.401   0.745 -0.5552  0.1373  0.7068
   34MOL0     C 4518   6.850   5.366   0.839 -0.8258  0.8836 -0.2311
   34MOL0     C 4519   6.831   5.404   0.981 -0.6885 -0.8007 -0.5915
   34MOL0     C 4520   6.813   5.436   1.101  0.9769  0.6724  0.2769
   34MOL0     C 4521   6.412   5.412   0.369  0.4581 -0.4271 -0.4898
   34MOL0     C 4522   6.313   5.427   0.268  0.4178  0.1553  0.5877
   34MOL0     H 4523   5.940   5.732  -0.005 -2.3751  1.9451 -0.8382
   34MOL0     H 4524   5.752   5.699  -0.157  0.8055 -2.2442 -2.1222
   34MOL0     H 4525   5.696   5.407  -0.230  0.7905  2.0528  1.6378
   34MOL0     H 4526   5.572   5.308  -0.138 -2.3172 -0.6351 -2.7398
   34MOL0     H 4527   5.530   5.485  -0.375  3.5023 -0.9675 -1.1287
   34MOL0     H 4528   5.501   5.302  -0.367 -0.0812  0.9612 -3.6222
   34MOL0     H 4529   5.327   5.320  -0.211 -0.3786 -0.3036 -0.3282
   34MOL0     H 4530   5.336   5.500  -0.199 -0.7285  0.0289  0.5463
   34MOL0     H 4531   5.288   5.504  -0.454  0.1631 -0.4631  0.6852
   34MOL0     H 4532   5.272   5.322  -0.449 -0.0974 -1.1712  0.9963
   34MOL0     H 4533   5.085   5.337  -0.296  0.3541 -0.5302 -0.3733
   34MOL0     H 4534   5.108   5.517  -0.284 -0.2910  0.6041 -0.0146
   34MOL0     H 4535   5.070   5.521  -0.534  1.6995  1.1729  2.2493
   34MOL0     H 4536   5.040   5.345  -0.545  1.2084 -0.4246  0.6700
   34MOL0     H 4537   4.840   5.343  -0.440  1.3206 -1.2464  1.0465
   34MOL0     H 4538   4.869   5.496  -0.352  0.7759 -3.3448  1.6419
   34MOL0     H 4539   4.846   5.458  -0.654 -0.5695 -1.8766 -0.0269
   34MOL0     H 4540   4.844   5.607  -0.564  0.3517  0.4496 -1.2168
   34MOL0     H 4541   4.634   5.296  -0.622 -1.1365  0.4031 -2.9421
   34MOL0     H 4542   4.320   5.307  -0.661 -2.2702  1.7635  0.1674
   34MOL0     H 4543   4.391   5.204  -0.551 -1.8538 -0.4934 -1.0419
   34MOL0     H 4544   4.142   5.289  -0.513  0.9540  0.9606 -1.8361
   34MOL0     H 4545   4.216   5.437  -0.448 -1.3074  0.1054  0.8017
   34MOL0     H 4546   4.358   5.314  -0.285  0.5844  1.3205 -1.1327
   34MOL0     H 4547   4.293   5.156  -0.352 -3.7096 -1.6191  5.1158
   34MOL0     H 4548   4.072   5.262  -0.306 -2.4686  3.6753  3.2449
   34MOL0     H 4549   4.158   5.367  -0.188 -1.2200 -0.5963  1.3787
   34MOL0     H 4550   4.199   4.976   0.022  0.4634  1.3281 -1.0958
   34MOL0     H 4551   3.987   4.753   0.178 -0.7291 -0.6297  0.2306
   34MOL0     H 4552   4.044   4.664   0.036 -0.6668  1.1427 -2.6947
   34MOL0     H 4553   4.155   4.775   0.129  0.1050  0.2391  0.1034
   34MOL0     H 4554   3.652   4.578  -0.237 -1.2429 -1.0589 -1.2571
   34MOL0     H 4555   3.466   4.422  -0.281 -1.5524 -1.9964  1.5295
   34MOL0     H 4556   3.212   4.403  -0.333  1.3822 -1.8710 -0.4711
   34MOL0     H 4557   3.293   4.270  -0.256  1.0005 -0.5482  0.0060
   34MOL0     H 4558   3.083   4.180  -0.273  1.0262 -1.1002  2.2227
   34MOL0     H 4559   3.084   4.241  -0.114  3.2900 -3.0205 -0.1604
   34MOL0     H 4560   2.951   4.364  -0.361 -0.5499  0.3123  0.6452
   34MOL0     H 4561   2.974   4.474  -0.218 -1.9679  0.9187  0.6742
   34MOL0     H 4562   2.830   4.222  -0.167 -1.4200  0.3567  1.0495
   34MOL0     H 4563   2.835   4.377  -0.082  2.6093  1.0142 -1.3138
   34MOL0     H 4564   2.748   4.343  -0.370  1.0068 -0.1332  0.9802
   34MOL0     H 4565   2.720   4.482  -0.272 -1.8957  0.9840 -1.9613
   34MOL0     H 4566   2.526   4.392  -0.300  1.2277  1.4043  0.2405
   34MOL0     H 4567   2.577   4.217  -0.252  1.0734  0.2451  1.7190
   34MOL0     H 4568   2.540   4.459  -0.072  0.1610 -0.0132  0.7991
   34MOL0     H 4569   2.608   4.306  -0.014 -0.2086 -2.1235 -1.1556
   34MOL0     H 4570   2.320   4.332  -0.097 -1.2340 -2.3168 -1.1373
   34MOL0     H 4571   2.390   4.303   0.065  2.8064  0.7589 -0.1326
   34MOL0     H 4572   3.272   4.596   0.061 -0.1268 -0.9798 -0.6844
   34MOL0     H 4573   3.449   4.769   0.084  0.6893  0.3869 -1.4721
   34MOL0     H 4574   3.762   4.985  -0.202 -0.4564  0.7352  1.4033
   34MOL0     H 4575   3.893   5.164  -0.207 -3.0319 -3.0378  0.3767
   34MOL0     H 4576   5.589   5.411   0.118 -0.5480  0.1404 -0.2038
   34MOL0     H 4577   5.771   5.451   0.272 -0.3718 -1.5169 -1.0012
   34MOL0     H 4578   6.131   5.661   0.430 -1.4852 -2.3135  0.7207
   34MOL0     H 4579   6.321   5.629   0.604 -1.4767  1.2667 -0.4426
   34MOL0     H 4580   6.665   5.597   0.514  0.0052 -0.7383 -0.1817
   34MOL0     H 4581   6.558   5.659   0.633  3.9886  2.2504  2.7333
   34MOL0     H 4582   6.684   5.603   0.810  0.4371  1.1956 -1.5276
   34MOL0     H 4583   6.811   5.604   0.700 -0.2084 -0.6183  1.0782
   34MOL0     H 4584   6.770   5.353   0.650  0.2068  2.1896 -0.1856
   34MOL0     H 4585   6.654   5.349   0.777 -2.3954  2.2595 -0.7323
   34MOL0     H 4586   6.941   5.417   0.808 -0.9323  0.2045 -1.7465
   34MOL0     H 4587   6.875   5.260   0.843 -1.7334  0.6512 -0.3864
   34MOL0     H 4588   6.810   5.445   1.208  0.7983 -3.1935  0.7183
   34MOL0     H 4589   6.485   5.332   0.362 -2.2886 -2.9392 -2.5748
   34MOL0     H 4590   6.322   5.371   0.175  3.3209  1.3715  0.0130
   35MOL0     O 4591   2.813   9.231   6.980 -0.0654 -0.1776 -0.3271
   35MOL0     C 4592   2.891   9.324   6.943 -0.1943 -0.2276 -0.2808
   35MOL0     O 4593   2.879   9.454   6.985  0.5262  0.3623  0.6732
   35MOL0     C 4594   2.771   9.477   7.067 -0.1352 -0.6632 -0.5718
   35MOL0     C 4595   2.640   9.503   7.018  0.2050  0.3409  0.6094
   35MOL0     C 4596   2.538   9.549   7.104 -0.4847 -0.3134  0.2572
   35MOL0     C 4597   2.570   9.575   7.241  0.1909  0.1090 -0.6957
   35MOL0     O 4598   2.470   9.609   7.323 -0.5453  0.3574 -0.1607
   35MOL0     C 4599   2.422   9.740   7.323 -0.5342  0.3085 -1.1706
   35MOL0     C 4600   2.297   9.722   7.399  0.1302  0.5560 -0.0104
   35MOL0     C 4601   2.171   9.721   7.301 -0.3792  0.2959 -0.7430
   35MOL0     C 4602   2.051   9.747   7.386 -0.9465 -0.3663  0.5066
   35MOL0     C 4603   1.929   9.750   7.292  0.2399 -0.3876 -0.2453
   35MOL0     C 4604   1.795   9.806   7.345  0.1155 -0.4520 -1.4902
   35MOL0     C 4605   1.759   9.719   7.469 -0.6082 -0.2294  0.9188
   35MOL0     C 4606   1.639   9.776   7.541 -0.1394 -0.6636 -0.3514
   35MOL0     N 4607   1.501   9.762   7.479 -0.1638  0.3170  0.1004
   35MOL0     C 4608   1.431   9.847   7.396 -0.0389 -0.6008 -0.1305
   35MOL0     C 4609   1.313   9.797   7.374 -0.4601 -0.1477 -0.7957
   35MOL0     C 4610   1.195   9.864   7.304 -0.5009  0.0734 -0.2840
   35MOL0     C 4611   1.092   9.759   7.256  0.2721 -0.8183  0.0815
   35MOL0     C 4612   0.995   9.833   7.148 -0.0513  0.0792  0.0561
   35MOL0     C 4613   0.925   9.971   7.189  0.3024  0.5579 -0.2222
   35MOL0     O 4614   0.898   9.985   7.335 -0.2638 -0.2256 -0.1850
   35MOL0     C 4615   0.785  10.058   7.365 -1.0391 -0.2830 -0.9572
   35MOL0     C 4616   0.704  10.019   7.466 -0.3954  0.5621 -0.4350
   35MOL0     C 4617   0.592  10.094   7.507 -0.2945  0.5073  0.0623
   35MOL0     C 4618   0.493  10.023   7.600  0.6941  0.4511  0.5791
   35MOL0     C 4619   0.558  10.214   7.431 -1.0938  0.8615  0.2705
   35MOL0     C 4620   0.441  10.291   7.461  0.3447 -0.7291  0.0562
   35MOL0     O 4621   0.410  10.289   7.596 -0.3217  0.1589  0.9587
   35MOL0     C 4622   0.307  10.356   7.655  0.1181  0.7192 -0.7743
   35MOL0     C 4623   0.198  10.424   7.596 -0.3702  0.1656 -0.8394
   35MOL0     C 4624   0.092  10.467   7.683 -0.1443  0.1385 -0.4094
   35MOL0     C 4625   0.091  10.450   7.819 -0.0997  0.1218  0.3954
   35MOL0     O 4626  -0.007  10.488   7.906 -0.1033 -0.6731  0.4069
   35MOL0     C 4627  -0.130  10.543   7.856  0.0638  0.6753  0.4526
   35MOL0     C 4628  -0.167  10.676   7.916  0.2578  0.2640 -0.8026
   35MOL0     C 4629  -0.173  10.669   8.066 -0.1766 -0.8990  0.0461
   35MOL0     C 4630  -0.260  10.562   8.128  0.1495 -0.8477  0.0274
   35MOL0     C 4631  -0.406  10.551   8.073 -0.5078 -0.0227  0.3723
   35MOL0     C 4632  -0.471  10.428   8.132 -0.9006 -0.4603  0.2724
   35MOL0     C 4633  -0.622  10.417   8.109  0.3535  0.6805  0.9797
   35MOL0     C 4634  -0.698  10.334   8.205  0.3698 -0.3557 -0.4818
   35MOL0    Cl 4635  -0.869  10.355   8.180 -0.0950 -0.4433 -0.3426
   35MOL0     C 4636   0.193  10.370   7.871  0.5279  0.4770  0.5024
   35MOL0     C 4637   0.291  10.312   7.791 -1.2178 -0.2341  0.4807
   35MOL0     O 4638   0.378  10.345   7.377  0.7035 -0.1059  0.1533
   35MOL0     C 4639   0.642  10.245   7.318 -0.2665  0.2559 -0.0724
   35MOL0     C 4640   0.748  10.166   7.285  0.1690  0.4997 -1.3518
   35MOL0     N 4641   1.296   9.689   7.462  0.0128  0.0322  0.6357
   35MOL0     N 4642   1.408   9.672   7.519 -0.2050  1.1633  0.4341
   35MOL0     C 4643   2.702   9.569   7.290 -0.0930  0.0213  0.5467
   35MOL0     C 4644   2.805   9.523   7.200 -0.2711 -0.2004  0.1811
   35MOL0     C 4645   2.995   9.294   6.843 -0.5410 -0.2761 -0.0561
   35MOL0     C 4646   3.108   9.377   6.842  0.1790 -0.4949  1.0975
   35MOL0     C 4647   3.200   9.358   6.739  1.2665 -0.2458 -0.8093
   35MOL0     C 4648   3.193   9.246   6.649  0.1198  0.9820 -1.0312
   35MOL0     O 4649   3.288   9.216   6.550  0.2749  0.0845  0.3495
   35MOL0     C 4650   3.405   9.288   6.554 -0.2700 -0.1439 -0.6353
   35MOL0     C 4651   3.519   9.234   6.462  0.2710 -0.1635 -1.1755
   35MOL0     C 4652   3.602   9.131   6.544 -0.8404 -0.1968  0.1169
   35MOL0     C 4653   3.727   9.085   6.450 -0.3421 -0.3926  0.2454
   35MOL0     C 4654   3.811   8.985   6.516  0.0007 -0.8308 -0.5933
   35MOL0     C 4655   3.879   8.906   6.573  0.0089  0.0580  0.3355
   35MOL0     C 4656   3.084   9.159   6.663  0.4176  0.6544 -0.2662
   35MOL0     C 4657   2.988   9.184   6.763  0.0427  0.5040  0.2354
   35MOL0     H 4658   2.612   9.482   6.916  2.8624 -0.4204 -0.0363
   35MOL0     H 4659   2.438   9.570   7.065  1.2658  2.0728 -3.4992
   35MOL0     H 4660   2.493   9.812   7.366 -0.2890 -0.3924 -0.3821
   35MOL0     H 4661   2.403   9.775   7.221 -0.8516  1.8112 -0.6220
   35MOL0     H 4662   2.291   9.625   7.449 -1.7609  0.2906 -0.6501
   35MOL0     H 4663   2.274   9.795   7.476 -2.8554 -0.2371 -0.0290
   35MOL0     H 4664   2.181   9.795   7.221  1.2495 -0.8288 -1.6576
   35MOL0     H 4665   2.157   9.626   7.249 -0.1934  0.9745 -2.0735
   35MOL0     H 4666   2.035   9.663   7.454 -3.0764 -0.7424 -0.4081
   35MOL0     H 4667   2.048   9.836   7.449 -0.8458  0.4643 -0.6249
   35MOL0     H 4668   1.956   9.820   7.213 -0.1656 -0.7551 -0.7125
   35MOL0     H 4669   1.920   9.645   7.260  1.6763 -0.3648 -0.8054
   35MOL0     H 4670   1.814   9.911   7.371  1.6406 -0.3595 -2.7991
   35MOL0     H 4671   1.714   9.802   7.271  0.7663 -0.1506 -2.2358
   35MOL0     H 4672   1.753   9.612   7.447  0.3853 -0.6167  2.3570
   35MOL0     H 4673   1.835   9.721   7.548  0.4481 -2.8428  0.0880
   35MOL0     H 4674   1.644   9.884   7.559  0.6129 -0.4727 -1.5834
   35MOL0     H 4675   1.643   9.722   7.637  2.8332  1.5848  0.9496
   35MOL0     H 4676   1.466   9.934   7.342 -0.9149 -0.5601 -0.6388
   35MOL0     H 4677   1.132   9.926   7.369 -0.7248 -0.9454  0.4763
   35MOL0     H 4678   1.239   9.924   7.223  3.4304  0.0073  1.5630
   35MOL0     H 4679   1.033   9.740   7.346  1.8382 -2.0911  0.8971
   35MOL0     H 4680   1.143   9.671   7.216 -1.3784 -1.6682 -0.2755
   35MOL0     H 4681   0.913   9.768   7.117 -2.3769  3.5669 -1.6840
   35MOL0     H 4682   1.047   9.840   7.052 -1.3101 -2.1378 -0.8674
   35MOL0     H 4683   0.834   9.978   7.129  0.4115 -0.1348 -0.4787
   35MOL0     H 4684   0.988  10.057   7.168  1.2459 -0.0327  0.1320
   35MOL0     H 4685   0.735   9.933   7.526  0.6740  1.9083  1.0284
   35MOL0     H 4686   0.391  10.024   7.562  2.3943 -0.4328 -4.8120
   35MOL0     H 4687   0.517   9.917   7.604 -1.9395 -0.3371 -1.5205
   35MOL0     H 4688   0.503  10.075   7.696  3.0831 -1.7009  1.6014
   35MOL0     H 4689   0.182  10.430   7.489 -3.4764 -1.0266 -0.5354
   35MOL0     H 4690   0.006  10.508   7.631 -1.2608 -1.2268  0.2780
   35MOL0     H 4691  -0.130  10.573   7.751 -1.1541  1.1889  0.5750
   35MOL0     H 4692  -0.205  10.465   7.871 -0.0231  0.8740  1.1067
   35MOL0     H 4693  -0.088  10.744   7.883  0.2797  0.1097 -1.0716
   35MOL0     H 4694  -0.263  10.711   7.878 -1.6049 -0.7046  2.6075
   35MOL0     H 4695  -0.207  10.769   8.096  1.8165  0.6504 -2.4751
   35MOL0     H 4696  -0.071  10.660   8.103  0.3848  0.0480 -1.2155
   35MOL0     H 4697  -0.213  10.463   8.125 -2.8522 -2.3488 -0.4475
   35MOL0     H 4698  -0.266  10.594   8.233 -2.4352  0.4246 -0.4421
   35MOL0     H 4699  -0.413  10.559   7.964 -1.9085  1.4874  0.5271
   35MOL0     H 4700  -0.454  10.643   8.107 -0.6835 -0.4186  1.2186
   35MOL0     H 4701  -0.417  10.341   8.095  0.5521  1.0332 -1.2790
   35MOL0     H 4702  -0.442  10.439   8.237 -0.0550  1.0096 -0.0876
   35MOL0     H 4703  -0.626  10.382   8.006  0.5927 -0.3446  1.3003
   35MOL0     H 4704  -0.663  10.518   8.110 -0.6043  0.3437 -0.5708
   35MOL0     H 4705  -0.671  10.363   8.307 -0.5303 -0.6684 -0.1413
   35MOL0     H 4706  -0.661  10.232   8.193  1.2307 -0.0143 -0.7923
   35MOL0     H 4707   0.177  10.324   7.968  0.4897 -0.4343  0.0729
   35MOL0     H 4708   0.363  10.253   7.847  0.7518  0.4011 -1.2515
   35MOL0     H 4709   0.623  10.330   7.253  1.6946  2.0696  1.5473
   35MOL0     H 4710   0.818  10.198   7.209  2.1470  0.8139  0.4897
   35MOL0     H 4711   2.715   9.606   7.391 -0.0513  0.9587  0.1999
   35MOL0     H 4712   2.906   9.514   7.240  0.3145  1.3736 -0.8475
   35MOL0     H 4713   3.113   9.465   6.906 -3.5135  1.5837 -1.1015
   35MOL0     H 4714   3.277   9.431   6.717  2.3875 -1.5697 -1.5110
   35MOL0     H 4715   3.385   9.389   6.515 -4.1257 -0.9862 -1.2625
   35MOL0     H 4716   3.438   9.296   6.658  3.6542 -1.1356 -1.6355
   35MOL0     H 4717   3.583   9.315   6.428  2.1535  0.3113  2.9206
   35MOL0     H 4718   3.485   9.177   6.375 -2.0239 -2.6773  1.1485
   35MOL0     H 4719   3.526   9.055   6.565  0.9296 -2.5666 -1.4799
   35MOL0     H 4720   3.637   9.175   6.638  1.0886 -0.0716 -0.6125
   35MOL0     H 4721   3.787   9.172   6.424 -0.1094 -0.7691 -0.4954
   35MOL0     H 4722   3.686   9.054   6.354 -1.1273  2.2793 -0.3586
   35MOL0     H 4723   3.935   8.825   6.615  3.1544  2.1220  0.5009
   35MOL0     H 4724   3.073   9.071   6.601  0.0340  0.7188 -0.2956
   35MOL0     H 4725   2.905   9.115   6.757  1.2302 -0.8634 -2.2827
   36MOL0     O 4726   1.666  10.471   9.835 -0.1318 -0.2120 -0.4581
   36MOL0     C 4727   1.763  10.447   9.908 -0.2711  0.0257  0.2263
   36MOL0     O 4728   1.758  10.369  10.018 -0.2337  0.1451 -0.1637
   36MOL0     C 4729   1.643  10.300  10.051  0.2170 -0.9734 -0.3952
   36MOL0     C 4730   1.658  10.158  10.059 -0.2978  0.5055 -0.3131
   36MOL0     C 4731   1.551  10.073  10.105  0.0193 -0.1577 -0.7088
   36MOL0     C 4732   1.433  10.133  10.154  0.0415 -0.0733  0.7158
   36MOL0     O 4733   1.326  10.061  10.200 -0.2296  0.2244 -0.7039
   36MOL0     C 4734   1.298   9.928  10.142  0.0091  0.0857  1.0049
   36MOL0     C 4735   1.259   9.943   9.999 -0.0261  0.1436  0.4862
   36MOL0     C 4736   1.272   9.817   9.918  0.0315 -0.0223  0.5980
   36MOL0     C 4737   1.162   9.716   9.943 -0.6025 -0.4885 -0.8685
   36MOL0     C 4738   1.160   9.613   9.830 -0.2968  0.9358 -0.2569
   36MOL0     C 4739   1.280   9.511   9.830  0.1696  0.0823 -0.3298
   36MOL0     C 4740   1.304   9.423   9.950 -0.4425 -0.9880  0.0229
   36MOL0     C 4741   1.215   9.298   9.966  0.3116  0.0439 -0.2825
   36MOL0     N 4742   1.078   9.316   9.951  0.2994 -0.5195  0.2698
   36MOL0     C 4743   1.003   9.374  10.046  0.4703  0.5025 -0.3067
   36MOL0     C 4744   0.875   9.365   9.991  0.0790  0.8320 -0.1224
   36MOL0     C 4745   0.753   9.432  10.060  0.0962  0.2634  0.8157
   36MOL0     C 4746   0.763   9.578  10.039  0.5758  0.4292  0.0918
   36MOL0     C 4747   0.640   9.668  10.060 -0.3920  0.0447  0.1104
   36MOL0     C 4748   0.538   9.631  10.180  0.5882 -0.3544 -0.8729
   36MOL0     O 4749   0.429   9.710  10.159 -0.5650  0.1088 -0.5872
   36MOL0     C 4750   0.321   9.689  10.242 -0.3780 -1.0299  0.4698
   36MOL0     C 4751   0.196   9.745  10.210  0.5416  0.2082 -0.1549
   36MOL0     C 4752   0.077   9.736  10.297 -0.1573 -0.3710  0.6990
   36MOL0     C 4753  -0.042   9.821  10.263  0.3255  0.4067 -0.0060
   36MOL0     C 4754   0.095   9.666  10.418 -0.1109 -0.2601  0.5318
   36MOL0     C 4755  -0.006   9.650  10.521 -1.0135  0.0156 -0.1208
   36MOL0     O 4756  -0.133   9.640  10.484 -0.0008  0.1564  0.0600
   36MOL0     C 4757  -0.217   9.585  10.584 -0.4470  0.2409 -0.9475
   36MOL0     C 4758  -0.270   9.464  10.557  0.3862  0.4472  0.4418
   36MOL0     C 4759  -0.362   9.410  10.648  0.6007  0.0822  0.4953
   36MOL0     C 4760  -0.389   9.466  10.771 -0.7383 -0.4206 -0.3337
   36MOL0     O 4761  -0.481   9.409  10.854 -0.6102  0.5922 -0.4178
   36MOL0     C 4762  -0.441   9.284  10.918  0.4833 -0.0406 -0.4383
   36MOL0     C 4763  -0.544   9.249  11.022 -0.1816 -0.1997  0.4983
   36MOL0     C 4764  -0.687   9.232  10.972  0.5947 -0.1032  0.4777
   36MOL0     C 4765  -0.713   9.145  10.851  0.0943 -0.3582  0.0221
   36MOL0     C 4766  -0.855   9.151  10.787 -0.1098  0.5766 -1.0817
   36MOL0     C 4767  -0.953   9.080  10.880  0.8959  0.7315  0.4226
   36MOL0     C 4768  -1.086   9.057  10.796 -0.4310  0.4160 -0.8536
   36MOL0     C 4769  -1.106   8.901  10.782  0.4640 -0.5414 -0.7951
   36MOL0    Cl 4770  -0.988   8.829  10.665  0.3719  0.1145  0.1733
   36MOL0     C 4771  -0.325   9.585  10.805 -0.3735 -0.8846 -0.1851
   36MOL0     C 4772  -0.243   9.648  10.711  0.5982 -0.1292 -0.8919
   36MOL0     O 4773   0.032   9.639  10.631 -0.6986  0.3799  0.1222
   36MOL0     C 4774   0.215   9.601  10.444 -0.2385  0.5232 -0.4426
   36MOL0     C 4775   0.329   9.614  10.362  0.1026 -0.0479  0.4188
   36MOL0     N 4776   0.873   9.290   9.872 -0.2110 -0.5663  0.3421
   36MOL0     N 4777   0.997   9.278   9.849 -0.8136  0.0945  0.5361
   36MOL0     C 4778   1.418  10.274  10.163 -0.2890  0.4165  1.1190
   36MOL0     C 4779   1.519  10.355  10.099  0.0888 -0.6026  0.4900
   36MOL0     C 4780   1.891  10.485   9.860  0.3636  0.4693 -0.0446
   36MOL0     C 4781   2.006  10.492   9.946 -0.1769  0.2084  0.0628
   36MOL0     C 4782   2.131  10.543   9.899  0.5905 -0.2377 -0.0833
   36MOL0     C 4783   2.149  10.597   9.768 -0.7566 -0.5914 -0.6136
   36MOL0     O 4784   2.273  10.656   9.739  0.5578  0.2489 -0.9521
   36MOL0     C 4785   2.315  10.709   9.609  0.4912  0.2154 -0.2548
   36MOL0     C 4786   2.365  10.614   9.498  0.8629  0.1605  0.0654
   36MOL0     C 4787   2.447  10.491   9.551 -0.1507 -0.8516  0.2259
   36MOL0     C 4788   2.578  10.511   9.632  0.1472  0.5974  0.1297
   36MOL0     C 4789   2.691  10.548   9.545 -0.3403  0.5037  0.0041
   36MOL0     C 4790   2.787  10.576   9.474  0.6566  0.2280  1.1331
   36MOL0     C 4791   2.036  10.598   9.691 -0.5725  0.1375  0.9073
   36MOL0     C 4792   1.919  10.540   9.735 -0.2861 -0.0377  0.9683
   36MOL0     H 4793   1.752  10.113  10.030  1.3419  2.3018  1.8638
   36MOL0     H 4794   1.572   9.968  10.117  1.5625  0.4367  3.5872
   36MOL0     H 4795   1.376   9.852  10.158  1.3654  1.3165  0.4758
   36MOL0     H 4796   1.210   9.879  10.184 -0.9058  1.3463  0.6204
   36MOL0     H 4797   1.169  10.003   9.987 -0.6079 -0.6138  0.9262
   36MOL0     H 4798   1.331  10.008   9.948  0.4447 -0.4876  0.3326
   36MOL0     H 4799   1.282   9.842   9.812 -3.0875  0.3630  0.2972
   36MOL0     H 4800   1.370   9.776   9.942 -0.1549 -1.4634 -0.8620
   36MOL0     H 4801   1.179   9.670  10.040  0.6021 -1.8534 -1.6920
   36MOL0     H 4802   1.068   9.773   9.939 -0.5644 -0.4138 -0.6759
   36MOL0     H 4803   1.066   9.557   9.836 -0.9669  2.0955  0.5325
   36MOL0     H 4804   1.159   9.670   9.737  0.2329  3.7377  1.3480
   36MOL0     H 4805   1.259   9.438   9.752  1.1455  0.1227 -0.6353
   36MOL0     H 4806   1.372   9.563   9.802  1.4067 -2.9932 -2.4513
   36MOL0     H 4807   1.410   9.396   9.948  0.9740  3.4754  1.3596
   36MOL0     H 4808   1.301   9.478  10.045  2.0954  0.0084 -0.3856
   36MOL0     H 4809   1.243   9.249  10.060 -1.7372 -0.8804 -0.1101
   36MOL0     H 4810   1.246   9.230   9.885  0.4889 -0.9161  0.5685
   36MOL0     H 4811   1.048   9.425  10.131  4.6578  0.3799 -2.2046
   36MOL0     H 4812   0.660   9.411  10.007  0.2535  3.4420 -0.9555
   36MOL0     H 4813   0.747   9.409  10.167  1.8373  1.8228  1.3076
   36MOL0     H 4814   0.774   9.586   9.931 -2.0799  2.0495 -0.1426
   36MOL0     H 4815   0.858   9.615  10.079  0.9345 -1.6651  1.3656
   36MOL0     H 4816   0.586   9.671   9.965 -0.0857 -0.0230 -0.0664
   36MOL0     H 4817   0.674   9.771  10.074 -0.4272 -0.1778  2.1856
   36MOL0     H 4818   0.585   9.649  10.277 -0.2982 -2.2429 -0.0295
   36MOL0     H 4819   0.497   9.530  10.167 -0.6700  0.3534 -2.9912
   36MOL0     H 4820   0.192   9.807  10.121  1.8419 -0.3023 -0.6011
   36MOL0     H 4821  -0.028   9.871  10.167  3.7825  2.7891  1.5657
   36MOL0     H 4822  -0.129   9.754  10.261 -0.1342  0.8972  1.8135
   36MOL0     H 4823  -0.062   9.894  10.341 -0.4079 -0.3323  0.5275
   36MOL0     H 4824  -0.259   9.416  10.460 -2.8086  2.7751 -1.2611
   36MOL0     H 4825  -0.404   9.313  10.625 -0.0612  0.2384  0.9903
   36MOL0     H 4826  -0.438   9.201  10.846  1.3861  0.8978 -1.5106
   36MOL0     H 4827  -0.339   9.284  10.957  0.1346  0.5848  0.4963
   36MOL0     H 4828  -0.509   9.161  11.075 -2.2474 -0.2957  1.8037
   36MOL0     H 4829  -0.545   9.330  11.096 -0.8574  1.9172 -1.6714
   36MOL0     H 4830  -0.733   9.327  10.942 -2.2142 -0.8876  2.0173
   36MOL0     H 4831  -0.755   9.197  11.049  0.5400 -1.7044 -0.2555
   36MOL0     H 4832  -0.643   9.178  10.774 -0.5243  0.2860 -0.2872
   36MOL0     H 4833  -0.667   9.048  10.871  0.6772 -0.3319 -1.1052
   36MOL0     H 4834  -0.856   9.097  10.692 -0.6429 -1.2741 -0.0797
   36MOL0     H 4835  -0.892   9.254  10.777 -0.3039  0.5876 -0.3645
   36MOL0     H 4836  -0.914   8.982  10.910  1.8306  0.1167 -2.4051
   36MOL0     H 4837  -0.973   9.141  10.968 -1.2822 -0.9175  1.1521
   36MOL0     H 4838  -1.084   9.102  10.697  0.8918 -0.9666 -1.4971
   36MOL0     H 4839  -1.162   9.111  10.854 -0.3243  1.1037 -1.3461
   36MOL0     H 4840  -1.206   8.876  10.745  0.1748  0.4974 -0.7654
   36MOL0     H 4841  -1.089   8.852  10.878 -1.6651  0.1240 -0.0265
   36MOL0     H 4842  -0.320   9.625  10.906 -0.0807  0.8583 -0.8605
   36MOL0     H 4843  -0.184   9.735  10.739 -2.4827  1.1757  2.2365
   36MOL0     H 4844   0.230   9.542  10.534  0.1583 -1.1017 -1.5267
   36MOL0     H 4845   0.416   9.556  10.391  0.8041  0.1334 -1.2001
   36MOL0     H 4846   1.329  10.320  10.206 -1.0660 -0.8977  0.9711
   36MOL0     H 4847   1.505  10.462  10.097 -2.0196 -0.8298 -0.3301
   36MOL0     H 4848   2.003  10.444  10.043 -1.0423  2.0984  1.0396
   36MOL0     H 4849   2.229  10.531   9.945  0.7112 -3.0713 -0.8396
   36MOL0     H 4850   2.234  10.764   9.561 -0.5830 -1.5574 -0.5598
   36MOL0     H 4851   2.403  10.769   9.634  1.6644 -1.5546  0.0016
   36MOL0     H 4852   2.426  10.689   9.447 -1.1598  1.8896  0.0094
   36MOL0     H 4853   2.283  10.577   9.435  0.8622 -1.2751  0.8792
   36MOL0     H 4854   2.458  10.431   9.460  1.1017  1.7482 -1.4510
   36MOL0     H 4855   2.377  10.455   9.627 -0.7999  0.5993  0.3530
   36MOL0     H 4856   2.609  10.418   9.680 -0.5524  0.5815  0.5649
   36MOL0     H 4857   2.555  10.583   9.711  0.1582  0.6342  0.0984
   36MOL0     H 4858   2.865  10.617   9.413  1.0208 -0.1498  1.3353
   36MOL0     H 4859   2.040  10.633   9.589  0.3425 -1.8004  0.2292
   36MOL0     H 4860   1.841  10.547   9.659  0.2180  0.7042  0.4958
   37MOL0     O 4861   4.604   6.685   8.445  0.3035 -0.3146 -0.5754
   37MOL0     C 4862   4.673   6.698   8.341  0.1817 -0.4637 -0.3709
   37MOL0     O 4863   4.620   6.731   8.217 -0.4531  0.1384  0.0769
   37MOL0     C 4864   4.484   6.730   8.216 -0.0176 -0.2919  0.2744
   37MOL0     C 4865   4.407   6.831   8.262 -0.3541 -0.9687  0.0066
   37MOL0     C 4866   4.265   6.823   8.265 -0.4829  0.5512 -0.0300
   37MOL0     C 4867   4.198   6.705   8.222  0.6002 -0.0693  0.3075
   37MOL0     O 4868   4.062   6.687   8.213 -0.0217  0.2736  0.2013
   37MOL0     C 4869   3.977   6.782   8.276 -0.2658  0.3677 -0.2747
   37MOL0     C 4870   3.823   6.742   8.265 -0.0859  0.4808  0.4881
   37MOL0     C 4871   3.737   6.862   8.305  0.6320  0.4829 -0.0365
   37MOL0     C 4872   3.585   6.831   8.300  0.4301 -0.8147 -0.6541
   37MOL0     C 4873   3.513   6.966   8.286  0.2915  0.5962  0.7479
   37MOL0     C 4874   3.367   6.940   8.317 -0.1518 -1.1781 -0.0132
   37MOL0     C 4875   3.270   6.939   8.201 -0.2700 -0.5304  0.9902
   37MOL0     C 4876   3.194   7.059   8.154  0.1293 -0.2827  0.3321
   37MOL0     N 4877   3.172   7.066   8.007  0.3308 -0.4190  0.4370
   37MOL0     C 4878   3.061   7.015   7.941 -0.0380 -0.7043  0.6947
   37MOL0     C 4879   3.098   7.015   7.808  0.3401 -0.0682  0.1666
   37MOL0     C 4880   3.012   6.961   7.694 -0.4515  0.5046 -0.4449
   37MOL0     C 4881   2.966   7.066   7.600  0.2811 -0.5714 -0.1835
   37MOL0     C 4882   2.874   7.010   7.495  0.9790 -0.7746  0.3192
   37MOL0     C 4883   2.802   7.130   7.416  1.0894  0.3023  0.0282
   37MOL0     O 4884   2.889   7.231   7.367 -0.4054  0.3971 -0.0214
   37MOL0     C 4885   2.824   7.348   7.333 -0.2385  0.0681 -0.5444
   37MOL0     C 4886   2.692   7.354   7.294 -0.1894 -0.2293 -0.9465
   37MOL0     C 4887   2.628   7.476   7.280 -0.3934 -0.1142 -0.0855
   37MOL0     C 4888   2.480   7.470   7.275  0.0518  0.3832 -0.0580
   37MOL0     C 4889   2.700   7.600   7.298  0.0790 -0.6423  0.0829
   37MOL0     C 4890   2.638   7.736   7.281  0.6849 -0.6592 -0.5596
   37MOL0     O 4891   2.509   7.748   7.312 -0.2394 -0.0826  1.0707
   37MOL0     C 4892   2.464   7.865   7.368  0.2331  0.9655  0.3984
   37MOL0     C 4893   2.552   7.957   7.435 -0.1497 -0.1037 -0.5990
   37MOL0     C 4894   2.501   8.081   7.480  0.5214 -0.2261  0.0522
   37MOL0     C 4895   2.366   8.113   7.469 -0.2338  0.2118 -0.6544
   37MOL0     O 4896   2.309   8.237   7.505  0.1139 -0.4557  0.5969
   37MOL0     C 4897   2.400   8.344   7.494 -0.3170 -0.6574 -0.5210
   37MOL0     C 4898   2.319   8.465   7.447 -0.0115  0.2122  0.1519
   37MOL0     C 4899   2.184   8.484   7.505 -0.5948 -0.3010 -0.6612
   37MOL0     C 4900   2.117   8.623   7.458  0.2659  0.3094 -0.2144
   37MOL0     C 4901   2.182   8.746   7.510 -0.5335  0.4969 -0.0550
   37MOL0     C 4902   2.127   8.798   7.646 -0.7758  0.1734  1.5056
   37MOL0     C 4903   1.992   8.870   7.637 -0.4254 -0.4784 -0.4179
   37MOL0     C 4904   1.939   8.905   7.771  0.5422 -0.3472  0.7557
   37MOL0    Cl 4905   2.050   9.001   7.853 -0.1131  0.0177  0.4265
   37MOL0     C 4906   2.281   8.020   7.404  0.1087 -0.0127 -0.0652
   37MOL0     C 4907   2.325   7.896   7.359  0.3506 -0.5251 -1.1296
   37MOL0     O 4908   2.709   7.821   7.231 -0.7282 -0.4990  0.0973
   37MOL0     C 4909   2.842   7.594   7.324 -0.0405  0.0365  0.0967
   37MOL0     C 4910   2.899   7.466   7.349  0.8783 -0.3897 -0.7251
   37MOL0     N 4911   3.229   7.056   7.803  0.1265 -0.6030  0.2294
   37MOL0     N 4912   3.276   7.086   7.917 -0.6394 -0.4418 -0.0982
   37MOL0     C 4913   4.274   6.615   8.158 -0.5749  0.2496 -0.3205
   37MOL0     C 4914   4.412   6.633   8.147 -0.3755  0.2089 -0.0191
   37MOL0     C 4915   4.812   6.697   8.361  0.0946  0.3633  0.5573
   37MOL0     C 4916   4.866   6.748   8.476 -0.2610  0.0190  0.3215
   37MOL0     C 4917   5.004   6.754   8.505 -0.5841  0.9279  0.0737
   37MOL0     C 4918   5.085   6.706   8.405  0.3932  0.5539  0.6245
   37MOL0     O 4919   5.222   6.691   8.421  0.3163 -0.1544  0.7676
   37MOL0     C 4920   5.294   6.797   8.475 -0.1933 -0.0606  0.9138
   37MOL0     C 4921   5.438   6.779   8.456 -0.5895 -0.3953 -0.7753
   37MOL0     C 4922   5.475   6.832   8.320 -0.4560  0.8678  0.2441
   37MOL0     C 4923   5.624   6.835   8.312 -0.4211  0.3792  0.0986
   37MOL0     C 4924   5.684   6.702   8.312  0.0306  0.2408 -0.1355
   37MOL0     C 4925   5.722   6.586   8.297  0.5077  0.0224  0.6319
   37MOL0     C 4926   5.033   6.655   8.287  0.4816 -0.7356  0.0006
   37MOL0     C 4927   4.902   6.664   8.260 -0.1456 -0.4909  0.3779
   37MOL0     H 4928   4.452   6.928   8.281  1.4018 -1.4419 -1.4449
   37MOL0     H 4929   4.211   6.911   8.297  1.3083  0.4227  4.0234
   37MOL0     H 4930   3.998   6.794   8.383  0.3874  1.4474 -0.4985
   37MOL0     H 4931   3.990   6.884   8.237 -1.3075 -0.2258 -2.3271
   37MOL0     H 4932   3.799   6.705   8.165 -0.3099  0.8893  0.3899
   37MOL0     H 4933   3.813   6.661   8.338 -1.1030 -2.2759 -2.4744
   37MOL0     H 4934   3.759   6.900   8.405  2.4329 -1.6905  0.4592
   37MOL0     H 4935   3.758   6.941   8.233 -0.7044  1.2402  0.3723
   37MOL0     H 4936   3.566   6.763   8.216 -0.9049 -0.0236 -1.0252
   37MOL0     H 4937   3.550   6.779   8.389 -3.8855 -2.7495 -3.1332
   37MOL0     H 4938   3.556   7.039   8.355 -0.1011  1.3031  0.2573
   37MOL0     H 4939   3.520   7.007   8.185  1.6947  1.7396  1.2759
   37MOL0     H 4940   3.360   6.849   8.377 -3.0699 -1.3323 -0.4158
   37MOL0     H 4941   3.338   7.026   8.379 -0.9174 -0.7024 -1.0089
   37MOL0     H 4942   3.326   6.895   8.118 -0.8911 -0.3856  0.4822
   37MOL0     H 4943   3.201   6.865   8.243 -0.9966  1.7795  4.2037
   37MOL0     H 4944   3.234   7.153   8.193 -0.7916 -0.4848  1.8534
   37MOL0     H 4945   3.094   7.059   8.199 -0.2904 -1.7070 -0.5303
   37MOL0     H 4946   2.963   6.988   7.980  0.0422 -0.8333  0.8117
   37MOL0     H 4947   3.083   6.897   7.641  1.9334  1.4980  1.3759
   37MOL0     H 4948   2.927   6.896   7.721  0.0519  0.8131  2.1590
   37MOL0     H 4949   3.045   7.112   7.541  1.2238 -1.9958 -0.0989
   37MOL0     H 4950   2.913   7.144   7.656 -0.5259 -0.5354 -0.9713
   37MOL0     H 4951   2.807   6.932   7.533 -1.3201  0.9622  0.0476
   37MOL0     H 4952   2.929   6.959   7.415 -2.1569 -1.4537 -1.5700
   37MOL0     H 4953   2.725   7.171   7.482 -2.2304 -3.6729 -0.9771
   37MOL0     H 4954   2.749   7.082   7.334  0.1120 -0.0928  0.8678
   37MOL0     H 4955   2.641   7.259   7.281  0.1334 -0.2858 -1.8867
   37MOL0     H 4956   2.452   7.513   7.178  1.8288  1.9606  0.0563
   37MOL0     H 4957   2.445   7.367   7.274 -0.1776  0.4565 -0.9506
   37MOL0     H 4958   2.442   7.528   7.360  1.2251 -1.0981  1.5391
   37MOL0     H 4959   2.657   7.931   7.447  0.7350  3.2268 -0.0142
   37MOL0     H 4960   2.569   8.149   7.531  0.5453  0.7110 -1.1860
   37MOL0     H 4961   2.448   8.365   7.590  0.5504 -0.9773 -0.8720
   37MOL0     H 4962   2.481   8.320   7.424 -1.9088 -3.3194 -1.6403
   37MOL0     H 4963   2.376   8.553   7.480  1.6694 -0.0815 -1.7580
   37MOL0     H 4964   2.315   8.463   7.338  2.8552  1.5346 -0.0778
   37MOL0     H 4965   2.182   8.484   7.615 -1.6970 -0.2786 -0.6711
   37MOL0     H 4966   2.118   8.404   7.469 -0.0312 -1.1478  0.1356
   37MOL0     H 4967   2.125   8.616   7.349  0.0109 -1.6913 -0.1422
   37MOL0     H 4968   2.012   8.621   7.486  1.4392  0.3654  5.1264
   37MOL0     H 4969   2.165   8.833   7.446  1.2434  0.8384 -0.1149
   37MOL0     H 4970   2.291   8.740   7.502 -0.4412 -0.2300  1.4721
   37MOL0     H 4971   2.124   8.708   7.708  0.4922 -3.4313 -3.0225
   37MOL0     H 4972   2.201   8.869   7.685 -0.0483  2.1080 -2.8151
   37MOL0     H 4973   1.920   8.809   7.583  0.3289 -0.3560 -1.6110
   37MOL0     H 4974   2.006   8.966   7.585 -2.4272  2.7006  4.2337
   37MOL0     H 4975   1.898   8.818   7.823 -0.7613 -0.6234 -0.6791
   37MOL0     H 4976   1.857   8.976   7.759  2.4012  1.5374 -2.1095
   37MOL0     H 4977   2.176   8.045   7.396 -0.9831 -4.1909 -1.2964
   37MOL0     H 4978   2.257   7.820   7.320 -0.3230 -1.5269  1.7547
   37MOL0     H 4979   2.898   7.686   7.335  1.0578 -0.4515 -1.0714
   37MOL0     H 4980   3.003   7.450   7.373  0.8548  0.9736  0.4269
   37MOL0     H 4981   4.234   6.533   8.099  0.3161  0.0791 -0.7195
   37MOL0     H 4982   4.472   6.563   8.089 -2.7878  0.5724 -3.2128
   37MOL0     H 4983   4.792   6.780   8.549  0.3786 -2.5428  2.2212
   37MOL0     H 4984   5.047   6.797   8.594  0.3151  0.3823 -0.0892
   37MOL0     H 4985   5.270   6.891   8.426 -1.3235  1.0217  3.3585
   37MOL0     H 4986   5.266   6.798   8.581 -0.3408 -0.2187  0.8782
   37MOL0     H 4987   5.474   6.680   8.485  2.5563  1.0395  0.7964
   37MOL0     H 4988   5.487   6.831   8.540  2.2199 -2.8118 -0.7419
   37MOL0     H 4989   5.433   6.930   8.299  1.4633  1.0948 -3.1751
   37MOL0     H 4990   5.433   6.767   8.243 -0.5114  0.6232  0.4783
   37MOL0     H 4991   5.668   6.905   8.383  1.3472 -1.4313  0.8969
   37MOL0     H 4992   5.651   6.873   8.213 -0.2183 -0.7488 -0.2928
   37MOL0     H 4993   5.758   6.486   8.284  2.2321  0.7478 -0.6064
   37MOL0     H 4994   5.104   6.609   8.220  1.8223  0.0886  0.8133
   37MOL0     H 4995   4.849   6.632   8.171 -2.0709  1.0814  0.8886
   38MOL0     O 4996   4.578   9.657  10.533  0.1958 -0.2174 -0.1724
   38MOL0     C 4997   4.556   9.769  10.579  0.8533 -0.5523  0.4183
   38MOL0     O 4998   4.440   9.851  10.551 -0.0159  0.2327  0.1407
   38MOL0     C 4999   4.350   9.796  10.464 -0.4336  0.1237  0.1050
   38MOL0     C 5000   4.358   9.816  10.324  0.3419  0.8196  0.5852
   38MOL0     C 5001   4.247   9.776  10.242  0.1933 -0.3398 -0.0083
   38MOL0     C 5002   4.139   9.718  10.305 -0.4499  0.0367  0.0407
   38MOL0     O 5003   4.026   9.679  10.233 -0.3433 -0.0009 -0.6958
   38MOL0     C 5004   3.991   9.775  10.129 -0.0369 -0.3002 -0.4818
   38MOL0     C 5005   3.852   9.743  10.073 -1.0400  0.4652  0.3566
   38MOL0     C 5006   3.785   9.845   9.980  0.1704  0.4543  0.1924
   38MOL0     C 5007   3.646   9.781   9.950  0.4457  0.5238 -0.3678
   38MOL0     C 5008   3.567   9.859   9.841  0.9868  0.6053  0.1353
   38MOL0     C 5009   3.482   9.974   9.903  0.7902  0.2694 -0.8771
   38MOL0     C 5010   3.398  10.047   9.797  1.3702 -0.1112  0.3513
   38MOL0     C 5011   3.276  10.130   9.857 -0.5363  1.1981 -0.9839
   38MOL0     N 5012   3.166  10.047   9.904  0.5112  0.0681  0.1798
   38MOL0     C 5013   3.073  10.093   9.992  0.0416  0.3991 -0.1006
   38MOL0     C 5014   2.998   9.988  10.020  0.2323 -0.5643  0.1324
   38MOL0     C 5015   2.893   9.984  10.135  0.5833 -0.0749 -0.2446
   38MOL0     C 5016   2.753   9.960  10.096  0.0462  0.4146 -0.4950
   38MOL0     C 5017   2.662   9.997  10.215  0.4725 -0.6692  0.4032
   38MOL0     C 5018   2.667   9.885  10.321  0.2416 -0.0286 -0.1055
   38MOL0     O 5019   2.609   9.761  10.272 -0.6247  0.2527  0.4826
   38MOL0     C 5020   2.474   9.734  10.281 -0.2964 -0.3917  0.0147
   38MOL0     C 5021   2.376   9.829  10.298  0.5357 -0.3983  0.1348
   38MOL0     C 5022   2.243   9.787  10.318  1.1147 -0.1853  0.7716
   38MOL0     C 5023   2.138   9.901  10.324  0.2723 -0.3543 -0.5370
   38MOL0     C 5024   2.219   9.646  10.326 -1.1983  0.1055 -0.3166
   38MOL0     C 5025   2.090   9.592  10.364 -0.4362  0.0158 -0.2753
   38MOL0     O 5026   2.033   9.666  10.471 -0.4809 -0.1235  0.0011
   38MOL0     C 5027   1.910   9.662  10.522 -0.3391  0.9776  0.1398
   38MOL0     C 5028   1.877   9.763  10.611  0.4714  0.4129  0.0792
   38MOL0     C 5029   1.742   9.780  10.656 -0.0389 -0.3439  0.8522
   38MOL0     C 5030   1.639   9.696  10.622  0.0397 -0.1297  0.1655
   38MOL0     O 5031   1.512   9.723  10.669  0.1893  0.2410 -0.2472
   38MOL0     C 5032   1.397   9.692  10.591  0.3167 -0.4338 -0.4083
   38MOL0     C 5033   1.270   9.773  10.642 -0.1184 -0.1219  0.3152
   38MOL0     C 5034   1.279   9.929  10.629 -0.6256  0.6728  0.3279
   38MOL0     C 5035   1.167   9.984  10.716 -0.0821 -0.3504  1.0397
   38MOL0     C 5036   1.143  10.131  10.684  0.5750  0.0321 -0.0074
   38MOL0     C 5037   1.096  10.161  10.540 -0.0536  0.4449  1.3752
   38MOL0     C 5038   0.999  10.063  10.474 -0.3374 -0.4288  0.2660
   38MOL0     C 5039   0.976  10.102  10.327  0.2221 -0.7261  0.1011
   38MOL0    Cl 5040   0.859   9.990  10.255 -0.0156 -0.2260 -0.3464
   38MOL0     C 5041   1.681   9.588  10.543  0.4380  0.2622 -0.2951
   38MOL0     C 5042   1.814   9.571  10.498 -0.4098  0.6468 -0.5550
   38MOL0     O 5043   2.043   9.489  10.317  0.0496 -0.2055  0.6438
   38MOL0     C 5044   2.319   9.555  10.310 -0.4662 -0.3880 -0.2730
   38MOL0     C 5045   2.451   9.599  10.297  0.2588  1.1510  0.2582
   38MOL0     N 5046   3.027   9.883   9.936  0.5213 -0.1091 -1.0892
   38MOL0     N 5047   3.130   9.918   9.866  0.5991  0.0413  0.1236
   38MOL0     C 5048   4.134   9.701  10.452 -1.6100  0.3975  0.3197
   38MOL0     C 5049   4.244   9.735  10.529 -0.2809 -0.3820 -0.0863
   38MOL0     C 5050   4.668   9.837  10.657  0.7691 -0.0014  0.4833
   38MOL0     C 5051   4.650   9.955  10.729 -0.0385 -0.4267  0.2702
   38MOL0     C 5052   4.757  10.013  10.794 -0.4541  0.5186  0.7613
   38MOL0     C 5053   4.886   9.960  10.793  1.0336 -0.8899 -0.6028
   38MOL0     O 5054   4.978  10.013  10.875  0.2443 -0.0251  0.6155
   38MOL0     C 5055   5.111  10.006  10.860 -0.3699 -0.0569 -0.5596
   38MOL0     C 5056   5.162   9.879  10.923 -0.4804  0.2140 -0.4787
   38MOL0     C 5057   5.316   9.861  10.914 -0.3169 -0.5163  0.7073
   38MOL0     C 5058   5.363   9.841  10.764 -0.0935  0.5774 -0.0162
   38MOL0     C 5059   5.282   9.741  10.692 -0.3359  0.8222 -0.0141
   38MOL0     C 5060   5.221   9.665  10.616 -0.0893  0.4803  0.4911
   38MOL0     C 5061   4.903   9.851  10.708  0.2709 -0.1709 -0.4538
   38MOL0     C 5062   4.796   9.786  10.648 -1.2431 -0.2231  0.4703
   38MOL0     H 5063   4.444   9.873  10.290 -0.1246  2.4168  1.9396
   38MOL0     H 5064   4.265   9.790  10.136 -1.5972  0.0489 -0.2944
   38MOL0     H 5065   3.981   9.874  10.175 -0.6967 -0.0556 -1.1245
   38MOL0     H 5066   4.070   9.778  10.053  2.0424 -3.7665  1.3122
   38MOL0     H 5067   3.861   9.643  10.031  0.1136  1.1680 -1.1944
   38MOL0     H 5068   3.785   9.739  10.159 -2.8294  2.8095 -0.7893
   38MOL0     H 5069   3.779   9.944  10.025  1.0994  0.2678  0.7335
   38MOL0     H 5070   3.831   9.848   9.881 -0.2224  0.4271  0.0035
   38MOL0     H 5071   3.660   9.677   9.918  0.6473  0.2719  0.5020
   38MOL0     H 5072   3.588   9.786  10.042  1.1488  0.8643  0.0611
   38MOL0     H 5073   3.637   9.897   9.766  1.2778 -3.3420 -1.8408
   38MOL0     H 5074   3.504   9.785   9.791  0.0659 -0.6354  2.9317
   38MOL0     H 5075   3.422   9.923   9.979  0.8259 -3.9735 -3.3432
   38MOL0     H 5076   3.545  10.046   9.956  0.1128 -0.4364  0.9662
   38MOL0     H 5077   3.468  10.123   9.760  2.2911 -0.5432  1.1551
   38MOL0     H 5078   3.366   9.972   9.723 -0.2647  0.3204  0.5878
   38MOL0     H 5079   3.234  10.198   9.783 -2.7283  0.8604 -0.1186
   38MOL0     H 5080   3.313  10.193   9.938  1.5046  0.7213 -1.4990
   38MOL0     H 5081   3.075  10.192  10.036  0.6407  0.9240 -1.2622
   38MOL0     H 5082   2.922   9.916  10.216  1.7103  0.1653 -0.4330
   38MOL0     H 5083   2.895  10.083  10.181  2.2569  0.8128 -2.1087
   38MOL0     H 5084   2.731   9.858  10.061 -3.0118 -1.3327  5.2430
   38MOL0     H 5085   2.732  10.040  10.025 -0.2162  3.7269  2.9756
   38MOL0     H 5086   2.561  10.013  10.175  0.5065  0.7767  0.8632
   38MOL0     H 5087   2.691  10.086  10.272 -5.0140  1.0238  1.1969
   38MOL0     H 5088   2.612   9.913  10.411 -0.3108 -0.5213 -0.2858
   38MOL0     H 5089   2.766   9.857  10.359 -1.1239 -2.5727  1.8457
   38MOL0     H 5090   2.400   9.932  10.276 -1.6811  0.0666 -0.2981
   38MOL0     H 5091   2.055   9.859  10.266 -2.8862 -1.8926  4.4701
   38MOL0     H 5092   2.088   9.925  10.418 -1.0005  0.5953 -1.4190
   38MOL0     H 5093   2.170   9.989  10.268 -0.8916  0.0105 -0.6617
   38MOL0     H 5094   1.951   9.837  10.638  1.4008 -0.3677 -0.2842
   38MOL0     H 5095   1.721   9.872  10.710 -1.0641 -0.9113  1.4476
   38MOL0     H 5096   1.416   9.714  10.486  1.0091  1.9037  0.1374
   38MOL0     H 5097   1.374   9.586  10.605 -2.0265  0.2780  2.1456
   38MOL0     H 5098   1.186   9.735  10.584 -1.1104 -0.2913  1.8141
   38MOL0     H 5099   1.249   9.745  10.746  2.2089 -1.1167  0.5889
   38MOL0     H 5100   1.277   9.957  10.524 -1.3891  1.3880  0.5231
   38MOL0     H 5101   1.372   9.958  10.678 -1.0318  2.3627  0.1372
   38MOL0     H 5102   1.072   9.930  10.718  0.2691 -1.0767 -0.3877
   38MOL0     H 5103   1.209   9.966  10.816 -0.5568 -0.3542  1.2431
   38MOL0     H 5104   1.238  10.184  10.693  0.9823 -0.5718 -0.5909
   38MOL0     H 5105   1.074  10.179  10.753 -0.2949  2.0350 -2.1189
   38MOL0     H 5106   1.042  10.256  10.542 -1.0675  0.0478 -1.7202
   38MOL0     H 5107   1.174  10.176  10.465 -2.1698  1.5145 -0.7393
   38MOL0     H 5108   0.908  10.055  10.536 -0.6678 -1.2916 -0.3115
   38MOL0     H 5109   1.033   9.959  10.473 -1.0675 -0.8773 -5.1212
   38MOL0     H 5110   1.072  10.097  10.276  0.4661 -1.0467  0.5893
   38MOL0     H 5111   0.942  10.206  10.330 -0.7081 -1.0384  0.8817
   38MOL0     H 5112   1.619   9.503  10.518 -0.5787  0.2108  2.1182
   38MOL0     H 5113   1.842   9.487  10.435 -2.4722  0.3682 -1.1704
   38MOL0     H 5114   2.307   9.447  10.321  1.1452 -0.7794 -1.9179
   38MOL0     H 5115   2.535   9.538  10.267 -1.6184 -0.5777 -1.8459
   38MOL0     H 5116   4.044   9.647  10.480 -2.7159 -0.3071 -3.7836
   38MOL0     H 5117   4.243   9.721  10.636  1.0049  0.7780  0.1096
   38MOL0     H 5118   4.554  10.005  10.738  0.4210  1.3447 -2.9068
   38MOL0     H 5119   4.753  10.102  10.857  0.0185 -0.1244  1.7106
   38MOL0     H 5120   5.131  10.001  10.752 -1.0223 -1.5401 -0.6395
   38MOL0     H 5121   5.150  10.101  10.896 -1.5020  0.3925 -0.4570
   38MOL0     H 5122   5.117   9.788  10.884  0.2186  0.1214 -1.1026
   38MOL0     H 5123   5.134   9.886  11.028 -0.1137 -2.1265 -0.1761
   38MOL0     H 5124   5.344   9.779  10.981 -1.5013 -0.8703  0.8045
   38MOL0     H 5125   5.370   9.949  10.948  2.0566 -1.1315 -1.1864
   38MOL0     H 5126   5.466   9.806  10.748  0.2411  0.3855  2.1803
   38MOL0     H 5127   5.351   9.937  10.714 -1.8616  1.0386  1.1831
   38MOL0     H 5128   5.177   9.596  10.548 -0.7221 -0.7235  2.0562
   38MOL0     H 5129   4.997   9.797  10.698 -0.9528 -2.9175  1.5331
   38MOL0     H 5130   4.815   9.709  10.575 -2.2391  1.3797 -1.5838
   39MOL0     O 5131   3.586   0.240   8.231  0.5355 -0.6157  0.5239
   39MOL0     C 5132   3.655   0.242   8.326 -0.6261  0.2976 -0.4022
   39MOL0     O 5133   3.622   0.201   8.453 -0.4732 -0.7603 -0.0707
   39MOL0     C 5134   3.484   0.183   8.471 -0.9097  0.7950 -0.7282
   39MOL0     C 5135   3.393   0.282   8.443  0.2144  0.8812 -0.0911
   39MOL0     C 5136   3.261   0.258   8.468 -1.1121  0.2523  0.5104
   39MOL0     C 5137   3.214   0.126   8.492 -0.3329  0.0494 -0.3427
   39MOL0     O 5138   3.074   0.091   8.504 -0.6905  0.3009 -0.1980
   39MOL0     C 5139   2.985   0.160   8.417 -0.4952 -0.3607  0.4087
   39MOL0     C 5140   2.868   0.070   8.373 -0.6006 -0.1459  0.6148
   39MOL0     C 5141   2.764   0.031   8.483 -0.1774 -0.0268 -0.0725
   39MOL0     C 5142   2.641   0.120   8.494  0.4889 -0.6405 -0.4817
   39MOL0     C 5143   2.563   0.092   8.624  0.0329 -0.2992 -0.2713
   39MOL0     C 5144   2.449   0.196   8.644 -0.1125 -0.1910  0.4077
   39MOL0     C 5145   2.364   0.169   8.767 -0.2321  0.6319 -0.1229
   39MOL0     C 5146   2.274   0.046   8.758 -0.2639  0.2278  0.5419
   39MOL0     N 5147   2.239  -0.006   8.888  0.6255  0.0403  0.5092
   39MOL0     C 5148   2.307  -0.091   8.973 -0.0022  0.0469 -1.1288
   39MOL0     C 5149   2.254  -0.073   9.090  1.1390 -0.0629 -0.1004
   39MOL0     C 5150   2.290  -0.161   9.211  0.0728  0.2386  0.5007
   39MOL0     C 5151   2.171  -0.245   9.255 -0.4105  0.0788 -0.6176
   39MOL0     C 5152   2.200  -0.309   9.387  0.5184  0.7521 -0.1599
   39MOL0     C 5153   2.057  -0.325   9.457 -0.7520 -0.3679 -1.2319
   39MOL0     O 5154   2.078  -0.367   9.591  0.7922 -0.3174 -0.3600
   39MOL0     C 5155   1.979  -0.418   9.674  0.1502 -0.7487 -0.3523
   39MOL0     C 5156   1.864  -0.486   9.623 -0.1807 -0.4494  0.2792
   39MOL0     C 5157   1.755  -0.517   9.703  0.1322 -0.0507  1.0355
   39MOL0     C 5158   1.623  -0.569   9.633  0.3661 -0.3766 -0.1596
   39MOL0     C 5159   1.758  -0.483   9.833 -0.0577  0.5004  0.2928
   39MOL0     C 5160   1.631  -0.498   9.904 -0.3633 -0.6510  0.0101
   39MOL0     O 5161   1.621  -0.608   9.968  0.1967 -0.7116 -0.1616
   39MOL0     C 5162   1.491  -0.638  10.011  0.5532 -0.0006  0.1701
   39MOL0     C 5163   1.455  -0.636  10.146 -0.2072  0.1424 -0.4849
   39MOL0     C 5164   1.328  -0.679  10.193  0.4592 -0.8481  0.5237
   39MOL0     C 5165   1.237  -0.729  10.095 -0.7165  0.5775  0.1027
   39MOL0     O 5166   1.121  -0.786  10.135  0.0121 -0.1098 -0.3973
   39MOL0     C 5167   1.016  -0.690  10.158 -0.6687 -0.0519  0.3143
   39MOL0     C 5168   0.901  -0.735  10.070 -0.1902  0.4985  0.0339
   39MOL0     C 5169   0.858  -0.879  10.098  0.5094 -0.6181 -0.3753
   39MOL0     C 5170   0.708  -0.899  10.083 -0.1182  0.3703  0.0449
   39MOL0     C 5171   0.668  -1.044  10.132  0.1225 -0.3210 -0.2669
   39MOL0     C 5172   0.517  -1.056  10.110  0.4380  0.5528 -0.1181
   39MOL0     C 5173   0.458  -1.181  10.179 -0.7063  0.0811  0.0909
   39MOL0     C 5174   0.335  -1.241  10.112 -0.4383 -0.3129  0.0539
   39MOL0    Cl 5175   0.182  -1.143  10.138 -0.3602  0.2789  0.2219
   39MOL0     C 5176   1.268  -0.716   9.960  0.2602  0.5996 -1.1859
   39MOL0     C 5177   1.394  -0.677   9.918 -0.0008 -0.5060 -0.0755
   39MOL0     O 5178   1.552  -0.398   9.908 -0.9967  0.4651 -0.3959
   39MOL0     C 5179   1.867  -0.420   9.891  0.3921 -0.5079 -0.1615
   39MOL0     C 5180   1.981  -0.395   9.814  1.2293 -0.8509  0.2659
   39MOL0     N 5181   2.158   0.029   9.080 -0.4282  0.7287  0.1785
   39MOL0     N 5182   2.155   0.072   8.961  0.1605  0.2121  0.7700
   39MOL0     C 5183   3.312   0.024   8.515  0.4424  0.0827  1.4522
   39MOL0     C 5184   3.446   0.061   8.514  0.0406 -0.7426 -0.8616
   39MOL0     C 5185   3.787   0.305   8.311  0.7719  0.1415 -0.2261
   39MOL0     C 5186   3.875   0.311   8.419  0.1614 -0.2460 -0.0333
   39MOL0     C 5187   3.998   0.379   8.403  0.1214  0.3863  0.0621
   39MOL0     C 5188   4.039   0.425   8.281  0.3765  0.5457  0.8113
   39MOL0     O 5189   4.159   0.487   8.286  0.6214  0.1073  0.2049
   39MOL0     C 5190   4.224   0.529   8.168 -0.8063  0.1710 -0.4591
   39MOL0     C 5191   4.334   0.634   8.191 -0.6868  0.4867 -0.6481
   39MOL0     C 5192   4.282   0.759   8.258 -0.0985  0.5216 -0.3436
   39MOL0     C 5193   4.394   0.857   8.278  0.4579 -0.3459  0.0072
   39MOL0     C 5194   4.341   0.990   8.330  0.1930  0.0854 -0.4758
   39MOL0     C 5195   4.273   1.078   8.367  0.0619  0.9900 -0.5651
   39MOL0     C 5196   3.963   0.399   8.167 -0.7162  0.1230 -0.0021
   39MOL0     C 5197   3.831   0.343   8.185  0.4832 -0.2419  0.4591
   39MOL0     H 5198   3.431   0.377   8.406 -0.4957  0.0577 -3.2479
   39MOL0     H 5199   3.184   0.333   8.462 -1.2855  0.0081 -0.4990
   39MOL0     H 5200   2.948   0.256   8.454  0.9804  0.8557 -1.0746
   39MOL0     H 5201   3.038   0.181   8.323  0.4854 -0.3039  0.9676
   39MOL0     H 5202   2.810   0.133   8.304  1.3193  2.3451  1.1108
   39MOL0     H 5203   2.903  -0.022   8.326 -1.6482  0.6596 -1.9384
   39MOL0     H 5204   2.724  -0.070   8.473  1.3357 -0.6210 -0.5382
   39MOL0     H 5205   2.809   0.041   8.582 -3.9241  1.5666  1.6713
   39MOL0     H 5206   2.669   0.226   8.485 -1.2977 -0.1612 -0.9371
   39MOL0     H 5207   2.574   0.090   8.412 -0.1480  1.7129 -0.9278
   39MOL0     H 5208   2.522  -0.010   8.624 -1.2709  0.2007 -1.2574
   39MOL0     H 5209   2.632   0.088   8.709 -0.2249 -0.7631 -0.0769
   39MOL0     H 5210   2.481   0.301   8.644 -3.5249  0.9888  1.9790
   39MOL0     H 5211   2.377   0.181   8.564  0.2201 -0.0633  0.0837
   39MOL0     H 5212   2.436   0.166   8.849  0.6654  1.1930 -0.8792
   39MOL0     H 5213   2.304   0.259   8.778  0.0436  0.6834  1.2490
   39MOL0     H 5214   2.323  -0.034   8.701  2.1206  2.3255 -0.5518
   39MOL0     H 5215   2.184   0.068   8.699 -1.4249  1.5023  2.6532
   39MOL0     H 5216   2.375  -0.170   8.941 -2.1054 -0.9108 -3.5485
   39MOL0     H 5217   2.380  -0.220   9.188  0.1056  0.3653  0.2983
   39MOL0     H 5218   2.329  -0.091   9.285  4.3354  0.8011 -1.9461
   39MOL0     H 5219   2.163  -0.330   9.186 -1.4032 -0.9705  0.7386
   39MOL0     H 5220   2.078  -0.187   9.262  0.1630  0.9577 -0.1315
   39MOL0     H 5221   2.266  -0.243   9.444  2.7864 -1.3789 -0.1429
   39MOL0     H 5222   2.250  -0.403   9.358 -0.3575  1.1894 -3.6035
   39MOL0     H 5223   2.003  -0.401   9.400 -0.6273 -1.5677  0.1918
   39MOL0     H 5224   2.002  -0.232   9.473  0.0918  0.0088 -0.4663
   39MOL0     H 5225   1.859  -0.507   9.516  2.8847 -0.9546  0.1568
   39MOL0     H 5226   1.611  -0.672   9.667 -2.6594  0.7992  2.8979
   39MOL0     H 5227   1.534  -0.507   9.646  0.4382  0.6474 -3.5251
   39MOL0     H 5228   1.636  -0.573   9.525 -1.0351 -0.7770 -0.3312
   39MOL0     H 5229   1.533  -0.605  10.215 -1.4719  3.0385 -0.2077
   39MOL0     H 5230   1.304  -0.689  10.298 -1.0618 -1.5039  0.1446
   39MOL0     H 5231   0.991  -0.691  10.264  4.2874  1.8648  1.7899
   39MOL0     H 5232   1.054  -0.592  10.125  3.1408 -1.8761 -1.4371
   39MOL0     H 5233   0.823  -0.669  10.107  0.4455  1.0923  0.3336
   39MOL0     H 5234   0.917  -0.716   9.963 -0.2716 -3.1497 -0.7484
   39MOL0     H 5235   0.898  -0.907  10.196  2.8839  1.5167 -0.6238
   39MOL0     H 5236   0.897  -0.945  10.020  1.8009  1.3512 -1.4777
   39MOL0     H 5237   0.649  -0.827  10.141 -3.0239 -1.1915 -0.7492
   39MOL0     H 5238   0.675  -0.893   9.978 -0.3767  2.0561  0.1931
   39MOL0     H 5239   0.685  -1.057  10.239  0.7500 -0.8487 -0.4262
   39MOL0     H 5240   0.723  -1.121  10.077 -0.3058  0.5775 -2.0048
   39MOL0     H 5241   0.467  -0.975  10.165  1.7777  1.6991 -0.5089
   39MOL0     H 5242   0.481  -1.051  10.007 -2.2744  0.1178  0.7393
   39MOL0     H 5243   0.429  -1.158  10.282 -2.4621  1.9510 -0.7582
   39MOL0     H 5244   0.535  -1.259  10.183 -0.9618 -0.4256 -2.9717
   39MOL0     H 5245   0.320  -1.333  10.170  0.4307  0.7759  2.0890
   39MOL0     H 5246   0.362  -1.273  10.011  0.0753  0.8654 -0.1920
   39MOL0     H 5247   1.192  -0.737   9.885  2.0311 -0.0469 -2.8994
   39MOL0     H 5248   1.413  -0.681   9.811 -1.6828 -0.3972 -0.4081
   39MOL0     H 5249   1.868  -0.383   9.994 -0.9097 -1.5281  0.2490
   39MOL0     H 5250   2.062  -0.334   9.852  1.1654  0.8470 -2.1011
   39MOL0     H 5251   3.290  -0.078   8.547  0.3139 -1.0826 -1.9275
   39MOL0     H 5252   3.524  -0.014   8.522  0.2865 -0.3157  1.6179
   39MOL0     H 5253   3.844   0.273   8.516  0.5114 -1.3158 -0.3225
   39MOL0     H 5254   4.062   0.401   8.488  0.7046 -1.4981  0.1412
   39MOL0     H 5255   4.275   0.444   8.121 -2.2198 -0.5879 -0.6785
   39MOL0     H 5256   4.161   0.575   8.091 -3.2524 -2.4973 -0.2660
   39MOL0     H 5257   4.379   0.648   8.092 -0.6973 -0.1574 -0.7480
   39MOL0     H 5258   4.397   0.576   8.258 -0.8203 -1.2488 -1.9595
   39MOL0     H 5259   4.238   0.743   8.357  2.4769  1.6793  1.0985
   39MOL0     H 5260   4.201   0.804   8.200 -1.8769 -1.0625  0.7811
   39MOL0     H 5261   4.449   0.864   8.184 -0.5562 -0.2829 -0.5988
   39MOL0     H 5262   4.462   0.819   8.355 -1.5778  1.5852  2.9751
   39MOL0     H 5263   4.208   1.157   8.401  0.2884  1.0974 -0.3774
   39MOL0     H 5264   4.006   0.438   8.075 -2.5432 -0.8612 -1.3429
   39MOL0     H 5265   3.766   0.337   8.099 -1.4828  1.4654  1.7177
   40MOL0     O 5266  11.132   6.894   3.858 -0.6044 -0.0089 -0.2245
   40MOL0     C 5267  11.190   6.993   3.804  0.0432 -0.4373 -0.4767
   40MOL0     O 5268  11.158   7.127   3.825 -0.6188 -0.0925 -0.4285
   40MOL0     C 5269  11.054   7.161   3.912  0.7677  0.4591  0.7580
   40MOL0     C 5270  10.961   7.254   3.870 -0.6483  0.2674 -0.2013
   40MOL0     C 5271  10.854   7.297   3.951 -0.0602 -0.0122  0.5745
   40MOL0     C 5272  10.836   7.240   4.079 -0.3633  0.5197 -0.2042
   40MOL0     O 5273  10.744   7.282   4.167 -0.6061 -0.0212  0.7812
   40MOL0     C 5274  10.617   7.304   4.113  0.6446 -0.0314 -0.2708
   40MOL0     C 5275  10.568   7.447   4.136 -0.9462  0.4315 -0.2798
   40MOL0     C 5276  10.420   7.477   4.119  0.0169 -0.6178 -1.1311
   40MOL0     C 5277  10.402   7.626   4.146 -0.2497 -0.3694 -0.2348
   40MOL0     C 5278  10.262   7.663   4.177  0.3509  0.3635  0.9510
   40MOL0     C 5279  10.151   7.625   4.072  0.0872 -0.3924 -0.3743
   40MOL0     C 5280  10.013   7.675   4.109  0.4111  0.0846  0.6629
   40MOL0     C 5281   9.946   7.630   4.245 -0.5849 -0.1391  0.0934
   40MOL0     N 5282   9.813   7.688   4.247  0.1000 -0.2855  1.4201
   40MOL0     C 5283   9.794   7.818   4.286  0.4360 -0.4400  0.4457
   40MOL0     C 5284   9.659   7.837   4.266  0.0841  0.1375 -0.3054
   40MOL0     C 5285   9.586   7.968   4.309  0.1091 -0.6402  0.0887
   40MOL0     C 5286   9.445   7.966   4.244 -0.8470 -0.4131  0.8949
   40MOL0     C 5287   9.390   8.107   4.248 -0.3333  0.0795  0.7903
   40MOL0     C 5288   9.365   8.141   4.398  0.7815 -0.4308 -0.6905
   40MOL0     O 5289   9.289   8.269   4.392  0.0553  0.0209  0.1065
   40MOL0     C 5290   9.152   8.265   4.408  0.3601 -0.6760  0.3786
   40MOL0     C 5291   9.090   8.384   4.448  0.3545  0.4014  0.2508
   40MOL0     C 5292   8.950   8.372   4.480  0.1407  0.5449 -0.0681
   40MOL0     C 5293   8.886   8.505   4.509 -0.7408 -0.3413 -0.1879
   40MOL0     C 5294   8.875   8.252   4.475 -1.1188  0.2884  0.0441
   40MOL0     C 5295   8.729   8.242   4.508 -0.0296  0.0976 -0.9329
   40MOL0     O 5296   8.667   8.124   4.465 -0.5768 -0.2116 -0.3493
   40MOL0     C 5297   8.528   8.097   4.486 -0.0642  0.4327 -0.2014
   40MOL0     C 5298   8.443   8.207   4.510  0.5875 -0.3965  0.1923
   40MOL0     C 5299   8.309   8.187   4.534  0.9719 -0.0464  0.2567
   40MOL0     C 5300   8.249   8.057   4.512 -0.5281 -0.6297  0.1708
   40MOL0     O 5301   8.115   8.029   4.519 -0.2995 -0.4172 -1.0306
   40MOL0     C 5302   8.024   8.141   4.505  0.8979  0.0873 -0.4375
   40MOL0     C 5303   7.879   8.092   4.489  0.0456  0.0163 -0.4142
   40MOL0     C 5304   7.869   7.996   4.374  0.0314 -0.3630 -0.2596
   40MOL0     C 5305   7.718   7.951   4.351  0.4658  0.7066  0.3928
   40MOL0     C 5306   7.698   7.900   4.208  0.2325 -0.0598  0.0019
   40MOL0     C 5307   7.557   7.833   4.186 -0.3739 -0.9106 -0.3207
   40MOL0     C 5308   7.540   7.771   4.050  0.3871  0.0581 -0.1542
   40MOL0     C 5309   7.401   7.716   4.034  0.1621 -0.5299 -0.1582
   40MOL0    Cl 5310   7.278   7.843   4.035 -0.3624  0.2513 -0.2776
   40MOL0     C 5311   8.341   7.947   4.503 -1.1577  0.4240  0.1679
   40MOL0     C 5312   8.478   7.972   4.488 -0.0342  0.1663  0.2292
   40MOL0     O 5313   8.693   8.312   4.603  1.0597 -0.3742 -0.6925
   40MOL0     C 5314   8.946   8.136   4.431  0.1773 -1.2095  1.0914
   40MOL0     C 5315   9.083   8.146   4.403 -0.0383  0.6929  0.2790
   40MOL0     N 5316   9.599   7.719   4.214 -0.5449 -0.2012 -0.5605
   40MOL0     N 5317   9.697   7.633   4.199  0.3863  0.1659 -0.1138
   40MOL0     C 5318  10.935   7.146   4.125  0.3379  0.3830 -0.3325
   40MOL0     C 5319  11.045   7.112   4.045 -0.2389 -0.6023 -0.2003
   40MOL0     C 5320  11.297   6.958   3.714  0.2336 -0.5708  0.1492
   40MOL0     C 5321  11.347   6.828   3.709  0.0984 -0.7289  0.8476
   40MOL0     C 5322  11.472   6.804   3.648 -0.5584 -0.1057 -1.0280
   40MOL0     C 5323  11.548   6.900   3.577  0.3367  0.0349  0.4936
   40MOL0     O 5324  11.660   6.851   3.512 -0.3260  0.9888 -0.1879
   40MOL0     C 5325  11.710   6.922   3.389  0.2844  0.0535 -0.8783
   40MOL0     C 5326  11.829   6.856   3.315  0.0096 -0.0139 -0.1042
   40MOL0     C 5327  11.957   6.857   3.402 -0.0700  0.1713  0.6956
   40MOL0     C 5328  12.076   6.807   3.307  0.0552  0.4899 -0.1164
   40MOL0     C 5329  12.209   6.835   3.358  0.0523  0.1915 -0.0003
   40MOL0     C 5330  12.318   6.855   3.414  0.0752 -0.8821  0.7201
   40MOL0     C 5331  11.490   7.027   3.573 -0.5183 -0.1422 -0.0745
   40MOL0     C 5332  11.373   7.052   3.646 -0.1628  0.7496 -0.2968
   40MOL0     H 5333  10.966   7.304   3.774 -0.2974  0.0157 -0.3179
   40MOL0     H 5334  10.786   7.373   3.915  2.5944  1.6681 -1.2322
   40MOL0     H 5335  10.617   7.276   4.007  2.2534  1.1973 -0.6430
   40MOL0     H 5336  10.551   7.243   4.174  0.7773 -1.6016 -1.6367
   40MOL0     H 5337  10.607   7.487   4.230 -2.4779 -2.4428  1.7290
   40MOL0     H 5338  10.624   7.506   4.062 -3.0163 -0.1556 -2.4330
   40MOL0     H 5339  10.405   7.459   4.012 -2.3157 -0.8652 -0.8114
   40MOL0     H 5340  10.351   7.410   4.172 -1.5710 -0.2543 -2.6707
   40MOL0     H 5341  10.471   7.656   4.226  1.2887  0.2620 -1.7335
   40MOL0     H 5342  10.440   7.680   4.059 -0.3452 -0.7598 -0.5209
   40MOL0     H 5343  10.231   7.617   4.272 -2.8482 -1.3797 -0.7764
   40MOL0     H 5344  10.265   7.772   4.181 -0.2969  0.6375 -2.5443
   40MOL0     H 5345  10.180   7.677   3.981  0.7528  0.6823  0.4291
   40MOL0     H 5346  10.141   7.518   4.052 -0.4237 -0.1002 -1.8296
   40MOL0     H 5347   9.994   7.783   4.105 -4.3957 -0.5592 -0.5602
   40MOL0     H 5348   9.946   7.638   4.031 -0.4703  0.6482  1.1352
   40MOL0     H 5349  10.010   7.667   4.325  1.6185 -0.0426 -1.6168
   40MOL0     H 5350   9.945   7.522   4.257 -0.3833 -0.0457  1.0213
   40MOL0     H 5351   9.866   7.886   4.329 -0.3843  0.0165  1.1214
   40MOL0     H 5352   9.566   7.958   4.416 -0.7741 -2.9857 -0.2408
   40MOL0     H 5353   9.640   8.059   4.280 -3.4677  0.9703 -2.3669
   40MOL0     H 5354   9.372   7.906   4.298  0.5088 -2.6308  0.3774
   40MOL0     H 5355   9.447   7.919   4.145 -0.1575  1.5447 -0.0922
   40MOL0     H 5356   9.294   8.108   4.195  0.6148 -2.9876 -1.3081
   40MOL0     H 5357   9.465   8.175   4.207  2.3915 -1.3640  3.0866
   40MOL0     H 5358   9.455   8.169   4.454 -1.5580 -0.2188  3.4214
   40MOL0     H 5359   9.327   8.056   4.457  2.2875  0.6309  2.0019
   40MOL0     H 5360   9.148   8.474   4.430  2.1745 -0.5353  1.1699
   40MOL0     H 5361   8.965   8.573   4.540  0.8659 -2.2647  0.1509
   40MOL0     H 5362   8.827   8.540   4.423 -0.5600  2.3178  0.6877
   40MOL0     H 5363   8.816   8.502   4.593 -0.6168 -0.5361 -0.0911
   40MOL0     H 5364   8.474   8.311   4.509 -4.3341  1.3539  1.3121
   40MOL0     H 5365   8.237   8.266   4.555 -3.5652 -3.5431 -0.5948
   40MOL0     H 5366   8.024   8.209   4.591 -1.9324 -0.6205  0.2186
   40MOL0     H 5367   8.048   8.199   4.415  0.1601  0.0042 -0.6968
   40MOL0     H 5368   7.839   8.040   4.577  2.2120  0.0367  0.6262
   40MOL0     H 5369   7.812   8.175   4.463  0.4201  0.4667  0.0419
   40MOL0     H 5370   7.928   7.906   4.394  0.3295 -0.0454  0.3456
   40MOL0     H 5371   7.906   8.045   4.284 -0.9413  4.6120  1.7146
   40MOL0     H 5372   7.686   7.873   4.420  4.6487 -0.7214  0.9792
   40MOL0     H 5373   7.645   8.030   4.371 -0.4395  0.0678 -0.2951
   40MOL0     H 5374   7.771   7.821   4.190  0.6672  0.4902 -0.6960
   40MOL0     H 5375   7.715   7.978   4.133  1.6695 -0.7550 -0.4326
   40MOL0     H 5376   7.533   7.750   4.252 -0.8241 -0.4762  0.0736
   40MOL0     H 5377   7.477   7.902   4.213  1.2086  1.1383 -0.5746
   40MOL0     H 5378   7.608   7.685   4.051  0.6721  0.2629  1.9244
   40MOL0     H 5379   7.556   7.835   3.963  2.6665 -0.8883 -0.5022
   40MOL0     H 5380   7.373   7.643   4.110  0.7357  1.3651  1.9771
   40MOL0     H 5381   7.402   7.664   3.938 -0.9877 -4.2396  1.6365
   40MOL0     H 5382   8.307   7.846   4.486 -2.1866  0.4875  1.6752
   40MOL0     H 5383   8.539   7.883   4.480  1.1242  0.4122  4.0453
   40MOL0     H 5384   8.917   8.033   4.413  1.0084 -1.1628 -0.7163
   40MOL0     H 5385   9.133   8.060   4.359  3.8571  2.1345  1.4068
   40MOL0     H 5386  10.924   7.101   4.223  0.4243  0.7462 -0.1549
   40MOL0     H 5387  11.124   7.047   4.081  2.8176  3.3754  1.0305
   40MOL0     H 5388  11.293   6.749   3.761 -2.9682  1.2951  0.9848
   40MOL0     H 5389  11.511   6.703   3.657  0.7891  0.5478  1.7978
   40MOL0     H 5390  11.626   6.904   3.321 -0.9193 -4.9073  1.4710
   40MOL0     H 5391  11.728   7.028   3.409  0.0148 -0.1690  0.6119
   40MOL0     H 5392  11.852   6.914   3.225 -1.1515 -0.5948 -0.7994
   40MOL0     H 5393  11.810   6.750   3.298 -0.1665 -0.6070  3.1138
   40MOL0     H 5394  11.940   6.786   3.484  0.6516 -0.2740  0.4719
   40MOL0     H 5395  11.986   6.951   3.451  4.3665 -1.5673  1.9306
   40MOL0     H 5396  12.068   6.863   3.213  1.3859  1.9122  0.5793
   40MOL0     H 5397  12.058   6.699   3.301  0.1800  0.2857  2.2363
   40MOL0     H 5398  12.409   6.883   3.462 -0.7387 -1.3551  2.6394
   40MOL0     H 5399  11.539   7.107   3.518  0.5361  0.5187  1.7173
   40MOL0     H 5400  11.333   7.152   3.635 -1.6300  0.0139 -2.2530
   41MOL0     O 5401   1.227   8.927   7.939 -0.6215  0.5247 -0.4358
   41MOL0     C 5402   1.265   8.834   8.008 -0.2250 -0.1689  0.8025
   41MOL0     O 5403   1.187   8.724   8.041 -0.2356  0.2587  0.7312
   41MOL0     C 5404   1.048   8.728   8.021  0.0298 -0.5041  0.8962
   41MOL0     C 5405   0.954   8.701   8.127 -0.2489 -0.3593  0.5338
   41MOL0     C 5406   0.822   8.725   8.096  0.6042  0.5630 -0.3837
   41MOL0     C 5407   0.772   8.769   7.972 -0.4140  0.0223  0.5590
   41MOL0     O 5408   0.635   8.783   7.968 -0.0061 -1.0763  0.2124
   41MOL0     C 5409   0.583   8.857   7.851 -0.0669 -0.0914  0.6261
   41MOL0     C 5410   0.431   8.836   7.848 -0.1935  0.3816 -0.6255
   41MOL0     C 5411   0.385   8.689   7.855 -0.1883  0.6968 -0.1867
   41MOL0     C 5412   0.339   8.635   7.993  0.8283  0.1968  0.1922
   41MOL0     C 5413   0.447   8.590   8.097  0.1362  0.1792  0.8291
   41MOL0     C 5414   0.404   8.474   8.188 -0.1517 -0.3130 -0.4768
   41MOL0     C 5415   0.272   8.503   8.262 -0.5631 -0.3616  0.8668
   41MOL0     C 5416   0.289   8.590   8.390  0.0022  0.8451 -0.3101
   41MOL0     N 5417   0.154   8.630   8.433 -1.0042 -0.2663 -0.2093
   41MOL0     C 5418   0.049   8.675   8.354 -0.4115  0.5429 -0.9144
   41MOL0     C 5419  -0.037   8.739   8.438 -0.0300 -0.2716 -0.5572
   41MOL0     C 5420  -0.166   8.808   8.410  0.6285  1.3418 -0.3084
   41MOL0     C 5421  -0.290   8.714   8.446  0.2472 -0.5550  0.2316
   41MOL0     C 5422  -0.415   8.789   8.452  0.7010  0.2188  0.8581
   41MOL0     C 5423  -0.545   8.702   8.434 -1.2136  0.4440  0.1867
   41MOL0     O 5424  -0.539   8.598   8.534  0.1685 -0.2979  0.3197
   41MOL0     C 5425  -0.637   8.501   8.532 -0.4075  0.5852  0.4877
   41MOL0     C 5426  -0.757   8.512   8.466  0.4887 -0.3029 -0.2123
   41MOL0     C 5427  -0.864   8.418   8.481  0.8416  0.2187  1.0934
   41MOL0     C 5428  -0.988   8.449   8.408  0.7384  0.2081 -0.2725
   41MOL0     C 5429  -0.851   8.313   8.571  0.5510  0.4621  0.1228
   41MOL0     C 5430  -0.964   8.219   8.605  0.0141 -0.0662 -0.7266
   41MOL0     O 5431  -1.046   8.173   8.512 -0.3959 -0.6985  0.2816
   41MOL0     C 5432  -1.155   8.096   8.524  0.1557  0.3977  0.4504
   41MOL0     C 5433  -1.154   7.969   8.562  0.4594 -0.3893  0.1024
   41MOL0     C 5434  -1.268   7.887   8.567 -0.3343  0.3014  0.9324
   41MOL0     C 5435  -1.394   7.949   8.537 -0.3529  0.5423  0.8097
   41MOL0     O 5436  -1.517   7.889   8.534 -0.9433 -0.3332 -0.2943
   41MOL0     C 5437  -1.528   7.749   8.497 -0.1737  0.2035 -0.1330
   41MOL0     C 5438  -1.670   7.704   8.509  0.4521  0.9773 -0.5039
   41MOL0     C 5439  -1.713   7.584   8.426 -1.1729  0.5887 -0.6843
   41MOL0     C 5440  -1.713   7.608   8.276  0.7641 -0.4231 -0.5956
   41MOL0     C 5441  -1.786   7.495   8.199  0.5485  0.0575 -0.6087
   41MOL0     C 5442  -1.679   7.425   8.122 -0.4182 -0.1659 -0.5652
   41MOL0     C 5443  -1.731   7.288   8.061 -0.4203 -0.5317 -0.3042
   41MOL0     C 5444  -1.837   7.306   7.958  0.6649  0.5302  0.5525
   41MOL0    Cl 5445  -1.794   7.435   7.838 -0.1611  0.1127  0.2402
   41MOL0     C 5446  -1.397   8.076   8.484 -0.7276  0.1013  0.2332
   41MOL0     C 5447  -1.280   8.158   8.480  0.0373  0.3142 -0.7350
   41MOL0     O 5448  -0.974   8.183   8.721 -0.3805  0.6061  0.2908
   41MOL0     C 5449  -0.740   8.305   8.648  0.1354 -0.1167  0.5245
   41MOL0     C 5450  -0.636   8.397   8.629  0.1539  0.3192 -0.4302
   41MOL0     N 5451   0.025   8.746   8.564 -0.4398  0.9383 -0.3013
   41MOL0     N 5452   0.137   8.690   8.558  0.1389 -0.3300 -0.1959
   41MOL0     C 5453   0.865   8.785   7.871  0.4674  1.1619  0.3471
   41MOL0     C 5454   0.998   8.770   7.895 -0.8656 -0.5029 -0.0703
   41MOL0     C 5455   1.411   8.827   8.038  0.2337 -0.6840 -1.1594
   41MOL0     C 5456   1.494   8.915   7.965  0.3691  0.1606 -0.1167
   41MOL0     C 5457   1.631   8.907   7.983  0.3214 -0.4602  0.4791
   41MOL0     C 5458   1.691   8.818   8.070 -0.2943  0.1449 -0.6785
   41MOL0     O 5459   1.826   8.812   8.090 -0.5263 -0.0647  0.0289
   41MOL0     C 5460   1.886   8.724   8.184 -0.0687 -0.6972  0.2682
   41MOL0     C 5461   2.036   8.746   8.177 -0.6434 -0.0307 -1.0727
   41MOL0     C 5462   2.091   8.889   8.200  0.0355  0.5866  0.6126
   41MOL0     C 5463   2.234   8.899   8.239 -0.2702  0.2996 -0.0019
   41MOL0     C 5464   2.275   9.036   8.286 -0.1776  0.6646  0.2543
   41MOL0     C 5465   2.310   9.145   8.324 -0.5545 -0.2801 -0.4607
   41MOL0     C 5466   1.605   8.744   8.154 -0.1279 -0.5917 -0.1341
   41MOL0     C 5467   1.466   8.750   8.140 -0.2798  0.1035 -0.2350
   41MOL0     H 5468   0.992   8.684   8.227  2.6419 -0.2314 -0.4636
   41MOL0     H 5469   0.750   8.720   8.177 -0.5353  2.1078 -1.2589
   41MOL0     H 5470   0.620   8.959   7.858  2.0363 -0.6984 -0.7856
   41MOL0     H 5471   0.605   8.807   7.756 -2.7428  1.0698 -0.7300
   41MOL0     H 5472   0.388   8.892   7.931  3.0633  1.9144  0.2205
   41MOL0     H 5473   0.391   8.878   7.755 -2.1386 -1.6826 -0.8090
   41MOL0     H 5474   0.301   8.676   7.786  1.1767 -2.9142 -1.3790
   41MOL0     H 5475   0.457   8.613   7.824  0.5087  1.1493  0.2941
   41MOL0     H 5476   0.278   8.708   8.047 -0.6775 -2.3369  2.1429
   41MOL0     H 5477   0.278   8.545   7.983  1.4239 -0.0758 -1.2567
   41MOL0     H 5478   0.546   8.572   8.052 -0.0760  0.5784  0.1905
   41MOL0     H 5479   0.458   8.670   8.171  2.6195 -1.6036  2.5463
   41MOL0     H 5480   0.404   8.382   8.129  4.0327 -0.2042 -0.9577
   41MOL0     H 5481   0.484   8.455   8.260  1.1354  1.6156 -1.3311
   41MOL0     H 5482   0.201   8.544   8.190  0.1196  2.0879  1.5018
   41MOL0     H 5483   0.230   8.406   8.292  3.0592 -2.6772 -0.8706
   41MOL0     H 5484   0.345   8.683   8.378  2.1722  0.3470  4.0288
   41MOL0     H 5485   0.333   8.527   8.468 -3.4672  1.5789  2.5410
   41MOL0     H 5486   0.036   8.673   8.247 -1.6732  0.7469 -0.7781
   41MOL0     H 5487  -0.172   8.901   8.468 -0.0296  1.6322 -0.8307
   41MOL0     H 5488  -0.178   8.836   8.306 -0.7158 -1.1923 -0.9370
   41MOL0     H 5489  -0.277   8.668   8.545  0.7564  0.3869  0.6155
   41MOL0     H 5490  -0.293   8.641   8.365 -0.2266 -0.1370 -0.1370
   41MOL0     H 5491  -0.415   8.870   8.379 -1.9237  1.2059  1.8373
   41MOL0     H 5492  -0.419   8.829   8.554  0.3020  2.3622  0.0405
   41MOL0     H 5493  -0.524   8.659   8.335  1.0202  0.0627  0.7724
   41MOL0     H 5494  -0.640   8.755   8.437 -2.7893 -2.2064  0.1369
   41MOL0     H 5495  -0.775   8.594   8.397 -0.7661  0.4808  1.0010
   41MOL0     H 5496  -0.982   8.533   8.338  0.1299  0.9194  0.5147
   41MOL0     H 5497  -1.029   8.356   8.370 -3.3462  0.8703  1.9444
   41MOL0     H 5498  -1.068   8.480   8.476  0.1487  4.1325 -2.4114
   41MOL0     H 5499  -1.052   7.932   8.573  0.7127 -0.8502 -2.8369
   41MOL0     H 5500  -1.264   7.784   8.602 -0.1781 -0.1484 -0.3713
   41MOL0     H 5501  -1.495   7.726   8.395  1.4331  2.0907 -0.1152
   41MOL0     H 5502  -1.461   7.696   8.566  0.4386  1.8818  0.6297
   41MOL0     H 5503  -1.695   7.679   8.612 -1.4427  0.2025 -1.1097
   41MOL0     H 5504  -1.743   7.781   8.483  1.1895  1.7394 -0.3691
   41MOL0     H 5505  -1.813   7.553   8.457 -0.1752 -2.6575 -0.3809
   41MOL0     H 5506  -1.651   7.500   8.456 -1.0522  1.4691  1.7641
   41MOL0     H 5507  -1.768   7.702   8.266 -0.0153 -0.6746  1.0587
   41MOL0     H 5508  -1.613   7.617   8.232 -0.7436  2.5909 -4.0421
   41MOL0     H 5509  -1.871   7.539   8.146  0.9929  5.3834  2.4361
   41MOL0     H 5510  -1.834   7.424   8.267  1.2911  0.8638  0.8016
   41MOL0     H 5511  -1.632   7.485   8.044  0.9139 -1.6627 -0.9737
   41MOL0     H 5512  -1.600   7.394   8.191 -1.0379  0.4751  0.4566
   41MOL0     H 5513  -1.767   7.224   8.142 -1.1292  2.5103  1.9860
   41MOL0     H 5514  -1.651   7.231   8.014  1.9280  1.3538  1.1520
   41MOL0     H 5515  -1.934   7.320   8.006  0.5498 -2.5589  1.4389
   41MOL0     H 5516  -1.844   7.207   7.912  1.5023 -0.0804  1.6770
   41MOL0     H 5517  -1.495   8.106   8.445 -0.8007  0.7622  0.8928
   41MOL0     H 5518  -1.279   8.261   8.445 -0.6317  0.9527  0.9991
   41MOL0     H 5519  -0.728   8.230   8.725 -2.3153 -0.8477  0.2763
   41MOL0     H 5520  -0.549   8.383   8.692 -0.4205  0.8142  0.5095
   41MOL0     H 5521   0.841   8.825   7.773  1.8939 -1.5102 -1.2231
   41MOL0     H 5522   1.061   8.790   7.809 -0.5977  0.5489  0.3502
   41MOL0     H 5523   1.442   8.981   7.896 -2.3851  0.2477  1.8663
   41MOL0     H 5524   1.699   8.983   7.945  0.5876 -1.2861 -0.7711
   41MOL0     H 5525   1.855   8.736   8.288  1.7786 -0.0288  0.7671
   41MOL0     H 5526   1.860   8.620   8.163 -1.0405 -0.9320  2.3918
   41MOL0     H 5527   2.055   8.717   8.073 -1.5595 -4.6146 -0.1613
   41MOL0     H 5528   2.080   8.680   8.252 -0.0796  1.2092 -0.2827
   41MOL0     H 5529   2.031   8.941   8.275 -1.5361  1.4759 -1.1596
   41MOL0     H 5530   2.084   8.946   8.106  1.7722  2.8494  1.7461
   41MOL0     H 5531   2.294   8.863   8.155 -1.8733 -1.3242 -0.5230
   41MOL0     H 5532   2.248   8.827   8.320 -0.1983 -1.5987 -1.6458
   41MOL0     H 5533   2.342   9.229   8.383 -0.9676  1.2873 -2.3422
   41MOL0     H 5534   1.638   8.672   8.227 -0.2036  0.3533  0.8514
   41MOL0     H 5535   1.404   8.692   8.209  1.3023 -2.3705 -0.7470
   42MOL0     O 5536   7.548   4.877   5.579 -0.0136 -0.1806 -0.7454
   42MOL0     C 5537   7.597   4.987   5.607 -0.5019  0.2720 -0.1051
   42MOL0     O 5538   7.530   5.101   5.619 -1.1533 -0.4409 -0.0629
   42MOL0     C 5539   7.395   5.094   5.626 -0.1612  0.2502  0.6981
   42MOL0     C 5540   7.325   5.169   5.529 -0.6629 -1.1749  0.7989
   42MOL0     C 5541   7.187   5.178   5.534  1.5661 -0.4667 -0.4701
   42MOL0     C 5542   7.115   5.097   5.620  0.6485  0.2427 -0.2562
   42MOL0     O 5543   6.982   5.086   5.632 -0.3413 -0.4023 -0.3567
   42MOL0     C 5544   6.908   5.175   5.536  0.2807  0.9598  0.0177
   42MOL0     C 5545   6.769   5.124   5.566  0.3590 -0.7871  0.9859
   42MOL0     C 5546   6.664   5.197   5.478 -0.1213 -0.3099  0.2835
   42MOL0     C 5547   6.536   5.117   5.500  0.9823  0.4007 -0.7821
   42MOL0     C 5548   6.469   5.156   5.629 -0.0180 -0.0992 -0.3866
   42MOL0     C 5549   6.314   5.120   5.633  0.7959 -0.8182  0.2140
   42MOL0     C 5550   6.297   4.973   5.605  0.4201 -0.2500 -0.1248
   42MOL0     C 5551   6.331   4.886   5.728 -0.7498 -0.1884 -0.3184
   42MOL0     N 5552   6.283   4.752   5.704 -0.0535  0.0951 -0.1960
   42MOL0     C 5553   6.342   4.671   5.612  0.5329 -0.7727  0.1274
   42MOL0     C 5554   6.286   4.550   5.623  0.0970 -0.0407  0.3414
   42MOL0     C 5555   6.343   4.418   5.553  0.2821 -0.4548  0.2077
   42MOL0     C 5556   6.250   4.291   5.558 -0.3886  0.1432  0.0574
   42MOL0     C 5557   6.330   4.175   5.503 -0.0961  0.0942 -0.4432
   42MOL0     C 5558   6.253   4.046   5.548 -0.4590  0.4426  0.2652
   42MOL0     O 5559   6.331   3.938   5.504 -1.0191  0.1521  0.3741
   42MOL0     C 5560   6.435   3.894   5.576 -0.2197 -0.6684 -0.4588
   42MOL0     C 5561   6.502   3.781   5.538  0.3462 -0.3185 -0.5649
   42MOL0     C 5562   6.618   3.723   5.609  0.3174  0.7644  1.0721
   42MOL0     C 5563   6.682   3.611   5.550 -0.8529 -0.5471 -0.6009
   42MOL0     C 5564   6.665   3.792   5.722  0.1652  1.0473  0.3592
   42MOL0     C 5565   6.782   3.752   5.812 -0.0378 -0.4976  0.4391
   42MOL0     O 5566   6.832   3.849   5.889 -0.6927  0.4960 -0.5487
   42MOL0     C 5567   6.913   3.797   5.987  0.5423  0.5174 -0.9584
   42MOL0     C 5568   7.055   3.782   5.970 -0.5665 -0.4930 -1.1731
   42MOL0     C 5569   7.138   3.740   6.076  0.4839 -0.2312  1.0029
   42MOL0     C 5570   7.086   3.715   6.201 -0.2022 -0.8952 -0.3614
   42MOL0     O 5571   7.181   3.672   6.290  0.0516 -0.1625 -0.4194
   42MOL0     C 5572   7.134   3.599   6.407  0.7015 -0.0872  0.0367
   42MOL0     C 5573   7.171   3.452   6.394 -0.6044 -0.6634 -0.2581
   42MOL0     C 5574   7.320   3.433   6.364 -1.3701  0.2924  0.6046
   42MOL0     C 5575   7.428   3.476   6.458  0.3111 -0.2008 -0.3757
   42MOL0     C 5576   7.411   3.438   6.602  0.5019 -0.2075  0.3525
   42MOL0     C 5577   7.521   3.494   6.698  0.0113  0.6079 -0.5815
   42MOL0     C 5578   7.665   3.467   6.658 -0.4031 -0.6900  0.6522
   42MOL0     C 5579   7.761   3.510   6.765 -0.1197 -0.0843  0.0702
   42MOL0    Cl 5580   7.932   3.498   6.721 -0.0555  0.4055 -0.2836
   42MOL0     C 5581   6.943   3.702   6.204 -0.1694  0.0004  0.0217
   42MOL0     C 5582   6.858   3.748   6.103  0.3297 -0.3270 -0.3225
   42MOL0     O 5583   6.824   3.635   5.813 -0.3617 -0.5149 -0.5775
   42MOL0     C 5584   6.589   3.911   5.762 -0.3109  0.4090  0.0449
   42MOL0     C 5585   6.479   3.959   5.693 -0.1037 -0.0677 -0.2907
   42MOL0     N 5586   6.195   4.560   5.721  0.2708 -0.3210  0.0340
   42MOL0     N 5587   6.191   4.676   5.772 -0.3424  0.3812  1.0581
   42MOL0     C 5588   7.187   5.016   5.714 -0.5830 -0.5794  0.4867
   42MOL0     C 5589   7.324   5.012   5.715  0.1125  0.4890 -0.3100
   42MOL0     C 5590   7.746   4.992   5.625 -0.3318 -0.1139  0.1971
   42MOL0     C 5591   7.818   4.874   5.593 -0.1945  0.4392  0.3274
   42MOL0     C 5592   7.952   4.869   5.600 -0.3361  0.1901  0.3249
   42MOL0     C 5593   8.028   4.979   5.632  0.3651  0.9112 -0.4881
   42MOL0     O 5594   8.162   4.984   5.639 -0.4014 -0.2396  0.4439
   42MOL0     C 5595   8.239   4.863   5.651 -0.2395 -0.0989 -0.6907
   42MOL0     C 5596   8.221   4.779   5.777  0.8211 -0.8067  0.1087
   42MOL0     C 5597   8.254   4.877   5.896 -0.0901 -0.5030 -0.0943
   42MOL0     C 5598   8.246   4.809   6.041  0.4068  0.5920  0.7515
   42MOL0     C 5599   8.114   4.765   6.088 -0.3281 -0.0166  0.1754
   42MOL0     C 5600   7.999   4.732   6.122  0.1215 -1.0057  0.4004
   42MOL0     C 5601   7.953   5.099   5.671 -0.6157 -0.6577 -0.5256
   42MOL0     C 5602   7.814   5.100   5.673  0.8422 -0.0962 -0.2991
   42MOL0     H 5603   7.378   5.231   5.458 -2.8896  0.2483  0.3085
   42MOL0     H 5604   7.133   5.243   5.465  1.6167  2.6315  2.2006
   42MOL0     H 5605   6.918   5.281   5.559  1.9724  1.5872 -3.0742
   42MOL0     H 5606   6.938   5.161   5.432 -2.7377 -3.5878 -0.5165
   42MOL0     H 5607   6.763   5.018   5.537  2.5174 -1.0341  1.3238
   42MOL0     H 5608   6.743   5.139   5.671 -1.6514 -1.9967  0.7252
   42MOL0     H 5609   6.659   5.297   5.522  0.9248 -0.1870  0.1345
   42MOL0     H 5610   6.697   5.203   5.374  0.2363 -0.5755  0.3812
   42MOL0     H 5611   6.462   5.148   5.427 -0.2604  1.3630  0.8207
   42MOL0     H 5612   6.562   5.011   5.511  3.5425  1.1856  6.2938
   42MOL0     H 5613   6.522   5.109   5.712  1.3450  3.1366  0.6949
   42MOL0     H 5614   6.480   5.264   5.639  0.5120 -0.2695  1.1623
   42MOL0     H 5615   6.272   5.152   5.729 -0.7648 -0.6143 -0.5048
   42MOL0     H 5616   6.266   5.181   5.556 -0.3696 -0.4773  1.1706
   42MOL0     H 5617   6.197   4.954   5.565  0.4769  2.2286 -1.6663
   42MOL0     H 5618   6.361   4.945   5.521  1.6623  1.4546  0.1771
   42MOL0     H 5619   6.273   4.916   5.815 -1.4339 -1.4348 -0.3241
   42MOL0     H 5620   6.438   4.885   5.754 -0.8303  1.1006  0.1381
   42MOL0     H 5621   6.425   4.702   5.551  0.8189  1.2713  1.4555
   42MOL0     H 5622   6.335   4.439   5.446 -0.2588  3.0002  0.7924
   42MOL0     H 5623   6.446   4.394   5.579  1.2896 -0.2894 -3.2240
   42MOL0     H 5624   6.166   4.313   5.490 -0.4788  2.6305  0.8795
   42MOL0     H 5625   6.219   4.269   5.660 -3.5447  2.9353 -0.1112
   42MOL0     H 5626   6.433   4.171   5.542 -0.2387 -1.8547 -0.1720
   42MOL0     H 5627   6.349   4.189   5.396  1.7298  0.7070 -0.0760
   42MOL0     H 5628   6.164   4.039   5.484 -1.1686 -0.5287  1.3399
   42MOL0     H 5629   6.224   4.030   5.652  2.0174 -6.0796  0.3853
   42MOL0     H 5630   6.468   3.734   5.447 -0.3374  0.2324 -0.6067
   42MOL0     H 5631   6.667   3.529   5.621 -3.8940  1.1570  0.9282
   42MOL0     H 5632   6.647   3.585   5.450 -1.8379 -0.6891 -0.2327
   42MOL0     H 5633   6.788   3.634   5.543 -1.3450  2.1910 -0.0015
   42MOL0     H 5634   7.081   3.803   5.867 -0.5654  0.1010 -1.0568
   42MOL0     H 5635   7.241   3.750   6.043 -0.4025  2.0750 -1.4980
   42MOL0     H 5636   7.179   3.639   6.497  0.3187  0.1561  0.1221
   42MOL0     H 5637   7.026   3.609   6.422  1.0274 -1.0130  4.1041
   42MOL0     H 5638   7.130   3.390   6.475 -1.4890  1.9438  1.4400
   42MOL0     H 5639   7.115   3.407   6.312 -1.7712 -2.0524  1.2330
   42MOL0     H 5640   7.337   3.484   6.269  0.4622 -4.3569 -1.8866
   42MOL0     H 5641   7.337   3.329   6.337  1.1778  0.4469  1.3780
   42MOL0     H 5642   7.524   3.444   6.415  1.8736  1.1754  1.8768
   42MOL0     H 5643   7.438   3.585   6.459 -0.5643 -0.0936  1.8091
   42MOL0     H 5644   7.405   3.329   6.602  0.2996 -0.2028 -0.3558
   42MOL0     H 5645   7.315   3.477   6.638 -0.0860 -0.6296 -0.7026
   42MOL0     H 5646   7.510   3.603   6.701  1.0451  0.7278 -0.8454
   42MOL0     H 5647   7.505   3.456   6.799 -1.5180 -0.0881 -1.0485
   42MOL0     H 5648   7.690   3.513   6.562 -0.1463 -0.6950  0.7168
   42MOL0     H 5649   7.690   3.365   6.627 -4.3920 -1.4735 -0.5820
   42MOL0     H 5650   7.747   3.437   6.846 -1.2814 -0.9701 -0.8829
   42MOL0     H 5651   7.729   3.610   6.794  0.0241 -0.4319  1.5120
   42MOL0     H 5652   6.885   3.667   6.289  0.8405 -0.1517  0.6657
   42MOL0     H 5653   6.750   3.741   6.100  0.3571 -1.3750  0.4674
   42MOL0     H 5654   6.619   3.965   5.851 -1.8391  0.8863  0.2950
   42MOL0     H 5655   6.436   4.055   5.718 -0.0641  0.3463 -1.7732
   42MOL0     H 5656   7.133   4.957   5.788 -1.6935  0.7152  0.7569
   42MOL0     H 5657   7.373   4.938   5.778 -0.2507 -1.9017 -2.6619
   42MOL0     H 5658   7.767   4.782   5.568  1.6015 -0.7409  0.8393
   42MOL0     H 5659   7.996   4.770   5.592 -1.6477 -0.4585  0.7514
   42MOL0     H 5660   8.219   4.799   5.565  0.4851 -1.6183  0.2293
   42MOL0     H 5661   8.340   4.904   5.634 -1.5915  2.9336 -2.3554
   42MOL0     H 5662   8.267   4.681   5.793  1.2968 -0.6717 -0.3952
   42MOL0     H 5663   8.114   4.757   5.771  0.5436  0.7368 -1.4083
   42MOL0     H 5664   8.167   4.943   5.904  0.0913 -0.4711  1.9327
   42MOL0     H 5665   8.345   4.935   5.877 -0.0882 -0.0831  1.1507
   42MOL0     H 5666   8.277   4.893   6.104 -0.7784  2.6910 -1.3298
   42MOL0     H 5667   8.308   4.719   6.033 -2.1943 -1.3173  0.8870
   42MOL0     H 5668   7.902   4.697   6.151 -0.1091  0.1863  1.1293
   42MOL0     H 5669   8.008   5.191   5.684 -3.5007  1.2813 -0.9965
   42MOL0     H 5670   7.755   5.180   5.716  2.3567  1.3649 -0.8656
   43MOL0     O 5671   0.058   3.115   0.519 -0.5133 -0.3111 -0.5483
   43MOL0     C 5672   0.138   3.194   0.467 -0.6696 -0.2206  0.3566
   43MOL0     O 5673   0.112   3.274   0.357 -1.0395 -0.5790 -0.3820
   43MOL0     C 5674  -0.005   3.295   0.294  0.5335  0.4359  0.1233
   43MOL0     C 5675  -0.034   3.421   0.240 -0.7235 -0.1765 -0.2554
   43MOL0     C 5676  -0.149   3.442   0.165  0.7682 -0.4367  0.1942
   43MOL0     C 5677  -0.252   3.344   0.149  0.2605 -0.2097  0.8208
   43MOL0     O 5678  -0.374   3.359   0.088  0.2975  0.5443  0.2778
   43MOL0     C 5679  -0.402   3.476   0.029 -0.8818 -0.0273  0.8822
   43MOL0     C 5680  -0.553   3.497   0.018 -0.8075 -0.6415 -0.0161
   43MOL0     C 5681  -0.599   3.443  -0.114 -0.1931 -0.1562 -0.3348
   43MOL0     C 5682  -0.753   3.424  -0.115  0.8111 -0.0223 -0.1622
   43MOL0     C 5683  -0.808   3.377  -0.249  0.6234  0.3406  0.2517
   43MOL0     C 5684  -0.954   3.345  -0.235  0.3481 -0.9291 -0.1526
   43MOL0     C 5685  -1.011   3.316  -0.369  0.5173 -0.4403  0.0759
   43MOL0     C 5686  -1.161   3.284  -0.378 -0.7625  0.3770 -0.4226
   43MOL0     N 5687  -1.249   3.393  -0.347  0.7665  0.0194  0.0555
   43MOL0     C 5688  -1.278   3.445  -0.222 -0.5428 -0.6619  0.4485
   43MOL0     C 5689  -1.366   3.551  -0.250 -0.3876 -0.2448 -0.4572
   43MOL0     C 5690  -1.442   3.645  -0.152  0.5043 -0.5238 -0.1673
   43MOL0     C 5691  -1.596   3.604  -0.129 -0.3131  0.0922  0.2351
   43MOL0     C 5692  -1.684   3.664  -0.239 -0.3805  0.0640 -0.2457
   43MOL0     C 5693  -1.815   3.588  -0.243  0.1472 -1.1176  1.0453
   43MOL0     O 5694  -1.886   3.648  -0.351 -0.4167  0.2539  0.2071
   43MOL0     C 5695  -1.986   3.737  -0.320 -0.6452 -0.4090 -0.6707
   43MOL0     C 5696  -2.032   3.810  -0.431 -0.4869  0.1755  0.4274
   43MOL0     C 5697  -2.124   3.912  -0.426 -0.4609 -0.2573 -0.6835
   43MOL0     C 5698  -2.178   3.967  -0.554 -0.4973 -0.1731 -0.1298
   43MOL0     C 5699  -2.170   3.956  -0.288  0.0898 -0.0394  0.3101
   43MOL0     C 5700  -2.260   4.072  -0.259  0.4150  0.3217  0.3062
   43MOL0     O 5701  -2.305   4.136  -0.368 -0.0726 -0.2132 -0.2226
   43MOL0     C 5702  -2.403   4.235  -0.361 -1.1109  0.5174 -0.8523
   43MOL0     C 5703  -2.501   4.219  -0.449  0.2285 -0.4510  0.2013
   43MOL0     C 5704  -2.616   4.306  -0.449 -0.4204  0.2978  0.5916
   43MOL0     C 5705  -2.624   4.412  -0.365  0.0918 -0.1088 -0.4037
   43MOL0     O 5706  -2.739   4.497  -0.388 -0.1066 -0.6719  0.0914
   43MOL0     C 5707  -2.767   4.621  -0.308  0.1749  0.5935  0.2173
   43MOL0     C 5708  -2.915   4.642  -0.290 -0.1409  0.9497 -0.5964
   43MOL0     C 5709  -2.999   4.514  -0.242 -0.0589  0.2329  0.8647
   43MOL0     C 5710  -3.139   4.558  -0.216  0.1088  0.1073 -0.4464
   43MOL0     C 5711  -3.221   4.431  -0.175  0.3360 -0.5692 -0.1056
   43MOL0     C 5712  -3.373   4.462  -0.159  1.1342 -0.1020  0.5939
   43MOL0     C 5713  -3.414   4.555  -0.048  0.5399 -0.0563  0.6926
   43MOL0     C 5714  -3.564   4.578  -0.044 -0.4277  0.6094  0.1032
   43MOL0    Cl 5715  -3.651   4.439   0.053 -0.0177 -0.4999  0.3151
   43MOL0     C 5716  -2.529   4.425  -0.262 -0.2548 -0.4970  0.3768
   43MOL0     C 5717  -2.408   4.343  -0.275  0.2424 -0.6977 -0.0474
   43MOL0     O 5718  -2.303   4.090  -0.150  0.5637  0.5568 -0.7429
   43MOL0     C 5719  -2.120   3.882  -0.179  0.6892  0.0212  0.7051
   43MOL0     C 5720  -2.028   3.782  -0.190 -0.2824  0.0831 -0.2874
   43MOL0     N 5721  -1.381   3.556  -0.386 -0.2393 -0.3436 -0.3529
   43MOL0     N 5722  -1.320   3.457  -0.444  0.4045 -0.5185 -0.5405
   43MOL0     C 5723  -0.222   3.224   0.216  1.4631  0.4503 -0.4699
   43MOL0     C 5724  -0.110   3.195   0.286  0.6642 -0.0951  0.1201
   43MOL0     C 5725   0.269   3.210   0.536  0.2517  0.1379  0.5884
   43MOL0     C 5726   0.359   3.314   0.516 -0.0933 -0.6567  0.3742
   43MOL0     C 5727   0.469   3.332   0.594  0.3224  0.0688 -0.7628
   43MOL0     C 5728   0.499   3.235   0.694  0.3496  0.0618 -0.7752
   43MOL0     O 5729   0.617   3.231   0.766 -0.1037 -0.1558  0.3056
   43MOL0     C 5730   0.716   3.336   0.742  0.3964 -0.7856 -0.1410
   43MOL0     C 5731   0.828   3.301   0.845  0.9535 -0.5348 -0.8780
   43MOL0     C 5732   0.789   3.344   0.989 -0.0949  0.1187 -0.2366
   43MOL0     C 5733   0.712   3.235   1.056  1.0710 -0.7539 -0.7070
   43MOL0     C 5734   0.665   3.293   1.191  0.3831  0.8127  0.4396
   43MOL0     C 5735   0.635   3.359   1.288  0.6548 -0.2438 -0.4908
   43MOL0     C 5736   0.418   3.119   0.713  0.0305  0.2870  0.4113
   43MOL0     C 5737   0.309   3.108   0.624  0.3088  0.0023  0.7406
   43MOL0     H 5738   0.039   3.500   0.249  0.2946 -1.2642  1.6367
   43MOL0     H 5739  -0.154   3.544   0.130  0.2543 -0.2091  0.9340
   43MOL0     H 5740  -0.362   3.558   0.090  0.5523 -1.0798  1.3843
   43MOL0     H 5741  -0.354   3.480  -0.069 -1.0117  1.6063  0.8528
   43MOL0     H 5742  -0.591   3.446   0.108 -0.4355  2.2628  1.9394
   43MOL0     H 5743  -0.580   3.602   0.035 -1.7919 -0.9281  0.3037
   43MOL0     H 5744  -0.567   3.514  -0.191  2.4666 -0.0690  0.7671
   43MOL0     H 5745  -0.561   3.346  -0.147  0.7698 -0.1131  0.6195
   43MOL0     H 5746  -0.777   3.371  -0.022  0.2240  1.5434  0.6088
   43MOL0     H 5747  -0.797   3.521  -0.091 -0.4348 -0.8107  0.8380
   43MOL0     H 5748  -0.798   3.453  -0.328 -1.9877  0.1912 -0.3105
   43MOL0     H 5749  -0.753   3.291  -0.288  2.8199  1.5007  0.6110
   43MOL0     H 5750  -0.966   3.260  -0.166  0.5091  0.0582  1.1296
   43MOL0     H 5751  -1.002   3.429  -0.184  1.6814  0.6000 -1.3188
   43MOL0     H 5752  -0.988   3.400  -0.434  0.7112 -2.3652 -2.5237
   43MOL0     H 5753  -0.958   3.228  -0.407  2.9039  0.6685  0.6277
   43MOL0     H 5754  -1.188   3.205  -0.308  0.6556  1.2629  1.1890
   43MOL0     H 5755  -1.180   3.257  -0.483  1.5105  0.5526 -0.9208
   43MOL0     H 5756  -1.231   3.425  -0.126  0.1670  2.4425  0.8838
   43MOL0     H 5757  -1.397   3.628  -0.054 -0.5669 -1.3189  0.2005
   43MOL0     H 5758  -1.446   3.751  -0.180  0.5438  0.9127  4.4661
   43MOL0     H 5759  -1.631   3.644  -0.034  0.4961 -1.7267  1.3518
   43MOL0     H 5760  -1.602   3.495  -0.137 -0.4353  0.1762 -1.1198
   43MOL0     H 5761  -1.637   3.648  -0.337  0.2413  0.1355  0.0375
   43MOL0     H 5762  -1.701   3.772  -0.236  0.3741  0.2162 -1.0371
   43MOL0     H 5763  -1.860   3.576  -0.144 -1.7387  1.4114  0.5810
   43MOL0     H 5764  -1.799   3.485  -0.276  1.0553 -0.4998 -0.5872
   43MOL0     H 5765  -1.998   3.782  -0.531 -4.4396 -2.2765 -0.4438
   43MOL0     H 5766  -2.162   4.075  -0.547  3.7486 -0.6185 -0.0789
   43MOL0     H 5767  -2.121   3.941  -0.643  0.1477 -3.1482  1.0367
   43MOL0     H 5768  -2.285   3.944  -0.555 -0.2924 -1.2469  0.8142
   43MOL0     H 5769  -2.497   4.139  -0.522  0.8107 -0.9939  0.8079
   43MOL0     H 5770  -2.705   4.302  -0.511  0.5010 -1.2306 -0.7183
   43MOL0     H 5771  -2.723   4.613  -0.208  0.2230 -1.4345  0.0831
   43MOL0     H 5772  -2.727   4.708  -0.362  0.1793 -0.3202 -1.3248
   43MOL0     H 5773  -2.936   4.721  -0.218 -2.7886 -0.6781  0.5767
   43MOL0     H 5774  -2.956   4.671  -0.387 -2.2917 -1.4700 -0.5274
   43MOL0     H 5775  -2.948   4.481  -0.151 -0.7810 -0.6827  0.9567
   43MOL0     H 5776  -3.004   4.438  -0.321  0.6602  1.3489 -0.2866
   43MOL0     H 5777  -3.140   4.621  -0.127 -1.3180 -0.4575 -0.0365
   43MOL0     H 5778  -3.186   4.609  -0.301  0.3408  0.1396 -0.5554
   43MOL0     H 5779  -3.183   4.400  -0.078  0.0636  3.7334  1.5743
   43MOL0     H 5780  -3.213   4.340  -0.235 -2.5931 -2.6149  2.3434
   43MOL0     H 5781  -3.407   4.505  -0.254  0.4092 -1.9829 -0.0603
   43MOL0     H 5782  -3.433   4.371  -0.148  0.1713  0.6446  1.7752
   43MOL0     H 5783  -3.358   4.647  -0.069 -0.5295  0.0678 -2.0909
   43MOL0     H 5784  -3.385   4.507   0.046  1.5828 -1.0269 -0.0906
   43MOL0     H 5785  -3.598   4.584  -0.148 -3.1166 -0.1860  0.8386
   43MOL0     H 5786  -3.577   4.675   0.006 -2.5040 -1.4909  4.2097
   43MOL0     H 5787  -2.536   4.512  -0.197 -1.0277 -1.2351  1.3008
   43MOL0     H 5788  -2.337   4.360  -0.195 -1.2384  0.3849  1.0978
   43MOL0     H 5789  -2.160   3.907  -0.081  0.9670  2.6859  0.2372
   43MOL0     H 5790  -1.976   3.752  -0.100  1.2383  2.3874 -0.3025
   43MOL0     H 5791  -0.288   3.138   0.209  2.4928 -0.2423 -2.2621
   43MOL0     H 5792  -0.103   3.106   0.347 -2.7480  1.8455  3.8539
   43MOL0     H 5793   0.353   3.394   0.443  3.2411 -1.9079 -1.4851
   43MOL0     H 5794   0.532   3.416   0.568 -0.4034  1.7802  2.5271
   43MOL0     H 5795   0.771   3.328   0.648  2.1675  0.9956  0.6615
   43MOL0     H 5796   0.681   3.439   0.749 -0.5748 -1.2116  2.4321
   43MOL0     H 5797   0.921   3.350   0.815  0.1963  0.1190 -2.2873
   43MOL0     H 5798   0.837   3.192   0.842  0.9288 -0.5857  0.4847
   43MOL0     H 5799   0.734   3.438   0.990 -1.7342 -0.7991  0.8709
   43MOL0     H 5800   0.875   3.364   1.053 -0.4949  4.0397 -0.6919
   43MOL0     H 5801   0.780   3.151   1.071 -1.8370 -3.1902 -0.0054
   43MOL0     H 5802   0.621   3.199   1.006  0.1199 -1.9221  1.7191
   43MOL0     H 5803   0.610   3.419   1.374  0.8435  0.8278 -1.1707
   43MOL0     H 5804   0.438   3.044   0.789 -1.6272 -0.5827  0.0381
   43MOL0     H 5805   0.240   3.026   0.641  0.1483  0.0792  0.4700
   44MOL0     O 5806   0.134   0.117   0.428  0.0660 -1.1592 -0.3007
   44MOL0     C 5807   0.129   0.155   0.550  0.1028 -0.0468  0.7050
   44MOL0     O 5808   0.010   0.183   0.618 -0.1361  0.1236  0.4694
   44MOL0     C 5809  -0.110   0.156   0.559 -0.3298  0.4664  0.2422
   44MOL0     C 5810  -0.152   0.051   0.481 -0.4481 -0.1719 -0.4061
   44MOL0     C 5811  -0.284   0.039   0.436  0.6079  0.2016 -0.5315
   44MOL0     C 5812  -0.378   0.133   0.476  1.1384  0.2163 -0.3588
   44MOL0     O 5813  -0.501   0.128   0.418  0.4820  0.1056 -0.7983
   44MOL0     C 5814  -0.621   0.147   0.505 -0.4543 -0.4052 -0.4010
   44MOL0     C 5815  -0.669   0.015   0.551 -0.7279  0.5473 -0.2300
   44MOL0     C 5816  -0.684  -0.071   0.421 -0.3010 -0.9816 -0.3913
   44MOL0     C 5817  -0.770  -0.195   0.443  0.0168 -0.5471 -0.7204
   44MOL0     C 5818  -0.917  -0.167   0.486 -0.0296 -0.1778  0.1771
   44MOL0     C 5819  -0.992  -0.295   0.505  1.3733  0.4540 -0.4484
   44MOL0     C 5820  -1.135  -0.284   0.556  0.0380  1.2239 -1.2248
   44MOL0     C 5821  -1.171  -0.405   0.642 -0.0420  0.1709 -0.1957
   44MOL0     N 5822  -1.184  -0.521   0.559  0.5693  0.1245  0.2276
   44MOL0     C 5823  -1.236  -0.537   0.425 -0.8580  0.4538 -0.2717
   44MOL0     C 5824  -1.220  -0.667   0.399 -0.1091 -0.5688 -0.9891
   44MOL0     C 5825  -1.266  -0.735   0.270 -0.2606  0.0061 -0.4766
   44MOL0     C 5826  -1.182  -0.849   0.208 -0.2825 -0.5287 -1.0581
   44MOL0     C 5827  -1.053  -0.802   0.130 -0.9716  0.4741 -0.4076
   44MOL0     C 5828  -0.939  -0.757   0.216  0.0847 -0.5255 -0.8441
   44MOL0     O 5829  -0.833  -0.713   0.140 -0.4994 -0.3507 -0.4759
   44MOL0     C 5830  -0.723  -0.661   0.199 -0.0857  0.6715  0.0204
   44MOL0     C 5831  -0.682  -0.663   0.339 -0.0419  0.3865  0.1519
   44MOL0     C 5832  -0.563  -0.598   0.381  0.9235 -0.1045 -0.5116
   44MOL0     C 5833  -0.533  -0.600   0.528 -0.2166  0.7758  1.0091
   44MOL0     C 5834  -0.486  -0.538   0.280  0.6377 -0.3520 -0.6928
   44MOL0     C 5835  -0.349  -0.481   0.305 -0.1513  0.3985 -0.1753
   44MOL0     O 5836  -0.235  -0.520   0.237  0.7319  0.0819  0.0661
   44MOL0     C 5837  -0.111  -0.482   0.283 -0.2611 -0.2783 -0.4536
   44MOL0     C 5838  -0.068  -0.527   0.405  0.6982 -0.6089 -1.6845
   44MOL0     C 5839   0.059  -0.491   0.456  0.5411 -0.3471  0.2089
   44MOL0     C 5840   0.143  -0.405   0.378  0.5267 -0.3254 -0.1924
   44MOL0     O 5841   0.261  -0.374   0.438  1.2593 -0.2444 -0.1410
   44MOL0     C 5842   0.353  -0.283   0.372 -0.2197 -0.1980  0.1951
   44MOL0     C 5843   0.477  -0.258   0.458 -1.0694  0.1363 -1.2381
   44MOL0     C 5844   0.575  -0.376   0.460 -0.1899  0.2741 -0.0011
   44MOL0     C 5845   0.703  -0.335   0.539  0.4486 -0.6547  0.5284
   44MOL0     C 5846   0.830  -0.410   0.488 -0.7560 -1.1170  0.0924
   44MOL0     C 5847   0.968  -0.374   0.535 -0.3009 -1.0836 -0.0216
   44MOL0     C 5848   1.067  -0.454   0.447  0.0890  0.5969  0.7732
   44MOL0     C 5849   1.211  -0.419   0.486  0.3046  0.3828  0.5281
   44MOL0    Cl 5850   1.241  -0.438   0.658 -0.1434 -0.0764  0.0729
   44MOL0     C 5851   0.091  -0.362   0.256 -0.0653  0.4002  0.7500
   44MOL0     C 5852  -0.034  -0.398   0.204  0.9578 -0.5501 -0.2817
   44MOL0     O 5853  -0.347  -0.391   0.397  0.2055  0.5737  0.5165
   44MOL0     C 5854  -0.524  -0.542   0.149  0.4666 -0.7726  0.1452
   44MOL0     C 5855  -0.636  -0.607   0.111  0.1821 -0.3642  0.1623
   44MOL0     N 5856  -1.144  -0.721   0.504 -0.9042 -0.7014  0.5812
   44MOL0     N 5857  -1.130  -0.637   0.594  0.3193 -0.0767  0.5082
   44MOL0     C 5858  -0.339   0.245   0.552  0.0786  0.9306 -0.2435
   44MOL0     C 5859  -0.207   0.245   0.597  0.1012  0.4640 -0.6838
   44MOL0     C 5860   0.257   0.156   0.626  0.4153 -0.1626 -0.0871
   44MOL0     C 5861   0.376   0.169   0.563  0.2415  0.5033  0.2941
   44MOL0     C 5862   0.498   0.159   0.632 -0.2172  0.2874 -0.3216
   44MOL0     C 5863   0.503   0.162   0.769 -0.2199  0.0829  0.3458
   44MOL0     O 5864   0.606   0.159   0.851 -0.6955  0.5865  0.0837
   44MOL0     C 5865   0.697   0.049   0.822 -0.3762 -0.6367 -0.5319
   44MOL0     C 5866   0.824   0.067   0.903 -0.2254  0.0195  0.1634
   44MOL0     C 5867   0.792   0.079   1.056 -0.2572 -0.6589  0.0669
   44MOL0     C 5868   0.911   0.042   1.143 -0.2706  0.0019 -0.0289
   44MOL0     C 5869   1.026   0.131   1.106 -0.1828  0.4313 -0.3577
   44MOL0     C 5870   1.126   0.195   1.081  0.7101  0.3380  0.0468
   44MOL0     C 5871   0.379   0.177   0.830  0.6771 -0.2926  0.0939
   44MOL0     C 5872   0.255   0.167   0.763 -0.5288 -0.5113  0.4340
   44MOL0     H 5873  -0.081  -0.026   0.454 -1.0802 -1.6478  1.8944
   44MOL0     H 5874  -0.313  -0.040   0.368 -1.6279 -1.1865  1.8421
   44MOL0     H 5875  -0.608   0.218   0.587  0.0093 -0.1935 -0.6574
   44MOL0     H 5876  -0.698   0.192   0.442 -0.8223  0.3409  0.5427
   44MOL0     H 5877  -0.596  -0.027   0.620 -0.2430  2.6216  0.5731
   44MOL0     H 5878  -0.761   0.039   0.604 -0.9319 -1.0066  0.1724
   44MOL0     H 5879  -0.737  -0.018   0.342 -0.3537 -2.4634 -1.3809
   44MOL0     H 5880  -0.585  -0.088   0.377  0.5588  1.2726  0.5320
   44MOL0     H 5881  -0.774  -0.253   0.351  2.0341 -2.2921  0.2131
   44MOL0     H 5882  -0.715  -0.250   0.520 -1.0317 -0.1938  0.3184
   44MOL0     H 5883  -0.904  -0.115   0.581  0.7376  1.4270 -0.7578
   44MOL0     H 5884  -0.973  -0.109   0.412  0.6767 -0.5327 -0.6510
   44MOL0     H 5885  -0.988  -0.356   0.415 -0.0257  0.1994 -0.3528
   44MOL0     H 5886  -0.936  -0.361   0.573 -0.0140  0.7321  1.0283
   44MOL0     H 5887  -1.139  -0.208   0.634  1.3910  0.3930 -0.3043
   44MOL0     H 5888  -1.212  -0.258   0.482  1.3247  1.4762 -2.5040
   44MOL0     H 5889  -1.258  -0.380   0.704  0.4016 -1.4517  1.1572
   44MOL0     H 5890  -1.094  -0.424   0.717  0.6576  3.0291 -0.0483
   44MOL0     H 5891  -1.270  -0.461   0.354  2.0020  2.5568  0.4321
   44MOL0     H 5892  -1.368  -0.772   0.282 -0.2147  0.2268  0.8131
   44MOL0     H 5893  -1.282  -0.656   0.196 -4.1159 -1.0674 -0.9697
   44MOL0     H 5894  -1.247  -0.902   0.138 -1.3708 -2.3245  1.1623
   44MOL0     H 5895  -1.162  -0.923   0.287 -1.9030 -1.0311 -1.0848
   44MOL0     H 5896  -1.079  -0.718   0.065  2.6138  2.1033  0.0687
   44MOL0     H 5897  -1.009  -0.876   0.063  1.3281  0.6069  0.8763
   44MOL0     H 5898  -0.907  -0.845   0.272 -0.0013 -1.1748 -1.7857
   44MOL0     H 5899  -0.973  -0.681   0.287  0.7872 -0.3891 -0.6470
   44MOL0     H 5900  -0.748  -0.707   0.413  0.7634  0.7056  1.0872
   44MOL0     H 5901  -0.514  -0.705   0.549  3.0803  1.0980  0.1361
   44MOL0     H 5902  -0.442  -0.544   0.550  1.9473 -2.2005  0.1338
   44MOL0     H 5903  -0.619  -0.569   0.590  0.7669  2.2492  1.6968
   44MOL0     H 5904  -0.124  -0.593   0.470  2.8654 -0.2142  0.7496
   44MOL0     H 5905   0.097  -0.535   0.548 -0.7855  2.6086  2.3205
   44MOL0     H 5906   0.372  -0.319   0.270 -1.7165  2.4119 -1.1212
   44MOL0     H 5907   0.285  -0.197   0.368 -2.2246 -1.6802  0.8227
   44MOL0     H 5908   0.528  -0.166   0.425 -1.1167  0.2870 -0.8965
   44MOL0     H 5909   0.451  -0.246   0.563  0.5664  1.7940 -0.9620
   44MOL0     H 5910   0.613  -0.378   0.357  0.4818  1.8416  0.1929
   44MOL0     H 5911   0.523  -0.470   0.484 -3.5335  2.3972  1.8342
   44MOL0     H 5912   0.726  -0.228   0.531 -1.6467 -0.2790 -1.3819
   44MOL0     H 5913   0.690  -0.370   0.641  1.8837 -2.8932  0.0259
   44MOL0     H 5914   0.837  -0.393   0.380  2.3116 -3.2860 -0.1615
   44MOL0     H 5915   0.818  -0.517   0.507 -1.3879 -1.3847 -1.6604
   44MOL0     H 5916   0.991  -0.269   0.516 -1.0992 -1.0484 -0.8248
   44MOL0     H 5917   0.970  -0.387   0.644 -2.0946  3.0062  0.6650
   44MOL0     H 5918   1.048  -0.438   0.341  1.2825 -0.7786  0.3254
   44MOL0     H 5919   1.047  -0.555   0.483  2.1718 -0.0977  0.1048
   44MOL0     H 5920   1.230  -0.315   0.456  1.0400 -0.7525 -3.6982
   44MOL0     H 5921   1.277  -0.480   0.422  2.4836  3.9632 -0.9719
   44MOL0     H 5922   0.151  -0.291   0.200 -3.0515  2.6040  0.1283
   44MOL0     H 5923  -0.064  -0.365   0.105 -0.9720  2.2064  1.1099
   44MOL0     H 5924  -0.457  -0.497   0.076 -1.4011 -0.9732 -1.8279
   44MOL0     H 5925  -0.668  -0.610   0.007 -1.7467 -1.2831  0.7189
   44MOL0     H 5926  -0.400   0.329   0.584  0.9240  1.6718 -0.5326
   44MOL0     H 5927  -0.183   0.330   0.660 -0.0736  0.7662 -1.0187
   44MOL0     H 5928   0.381   0.186   0.456  1.2134  3.2306  0.6890
   44MOL0     H 5929   0.596   0.164   0.586  0.9212 -3.2239  1.3722
   44MOL0     H 5930   0.663  -0.050   0.855 -0.2702 -0.4147  0.2591
   44MOL0     H 5931   0.713   0.036   0.715 -1.2415 -1.4441 -0.5766
   44MOL0     H 5932   0.874   0.156   0.866  1.0906 -0.3079  1.0881
   44MOL0     H 5933   0.879  -0.026   0.884 -0.1133 -0.0743  0.9102
   44MOL0     H 5934   0.714   0.007   1.083 -1.1796  0.3294  0.0718
   44MOL0     H 5935   0.751   0.175   1.086 -1.1423 -0.7489 -0.7956
   44MOL0     H 5936   0.954  -0.056   1.123  2.1589  0.6676  1.5132
   44MOL0     H 5937   0.890   0.045   1.250  0.0054 -0.2854  0.0331
   44MOL0     H 5938   1.222   0.231   1.050  1.9699  1.3380  4.3171
   44MOL0     H 5939   0.379   0.197   0.937 -1.7001  0.7655 -0.0375
   44MOL0     H 5940   0.169   0.201   0.819  1.1849  1.4121  2.0579
   45MOL0     O 5941   1.283   3.012   7.875 -0.2125  0.3314  0.3708
   45MOL0     C 5942   1.232   2.955   7.971 -0.5612 -0.5338  0.1057
   45MOL0     O 5943   1.101   2.939   7.992 -0.3357 -0.5218 -1.2231
   45MOL0     C 5944   1.020   2.982   7.892 -0.1616 -0.1141  0.2383
   45MOL0     C 5945   1.003   3.122   7.876 -0.1132  0.0990  0.0703
   45MOL0     C 5946   0.929   3.172   7.769 -0.1159 -0.6007  0.4004
   45MOL0     C 5947   0.873   3.082   7.676  0.0785  0.8472 -0.1124
   45MOL0     O 5948   0.812   3.140   7.563 -0.4542  0.5204 -0.2501
   45MOL0     C 5949   0.762   3.057   7.462  0.1621  0.1877 -0.0731
   45MOL0     C 5950   0.708   3.148   7.356 -0.1483  0.3371  0.7127
   45MOL0     C 5951   0.643   3.055   7.246 -0.3386 -0.3343 -0.7967
   45MOL0     C 5952   0.588   3.132   7.124 -0.3648 -0.1231  1.0200
   45MOL0     C 5953   0.551   3.050   6.999  0.5021  0.2291 -0.9299
   45MOL0     C 5954   0.427   2.957   7.011  0.2190  0.4171  0.6705
   45MOL0     C 5955   0.302   3.010   7.086  0.6364  0.0253 -0.5127
   45MOL0     C 5956   0.223   3.115   7.010 -0.1916  0.3054  0.4310
   45MOL0     N 5957   0.096   3.065   6.947  0.1805  0.5830 -0.2526
   45MOL0     C 5958   0.110   3.015   6.818 -0.0594  0.1854 -0.8967
   45MOL0     C 5959  -0.011   2.961   6.800  0.3497  0.3537  0.5631
   45MOL0     C 5960  -0.064   2.921   6.666 -0.0537  0.6185 -0.4665
   45MOL0     C 5961  -0.034   3.005   6.545 -0.3535 -0.9009 -0.3508
   45MOL0     C 5962  -0.124   3.141   6.532  0.2090  0.2315  0.4890
   45MOL0     C 5963  -0.285   3.115   6.511  0.2399 -0.5385  0.1825
   45MOL0     O 5964  -0.325   3.011   6.418  0.0251 -0.0952  0.2327
   45MOL0     C 5965  -0.432   3.023   6.343 -0.2788 -0.2250 -0.6641
   45MOL0     C 5966  -0.450   2.957   6.224 -1.0023  0.6290  0.2679
   45MOL0     C 5967  -0.571   2.959   6.152 -0.2107  0.3285  0.3436
   45MOL0     C 5968  -0.579   2.872   6.031  0.0056  0.8939  0.1867
   45MOL0     C 5969  -0.683   3.036   6.190 -0.3959 -0.3663 -0.6030
   45MOL0     C 5970  -0.821   3.025   6.141  0.2941  1.6176  0.9122
   45MOL0     O 5971  -0.899   3.133   6.174 -0.3819  0.0763  0.5495
   45MOL0     C 5972  -1.024   3.135   6.108 -0.1119  0.3081 -0.2915
   45MOL0     C 5973  -1.141   3.074   6.162  0.1889  0.3865 -0.8347
   45MOL0     C 5974  -1.264   3.086   6.095 -0.1934  0.7754 -0.3151
   45MOL0     C 5975  -1.271   3.159   5.970  0.0411  0.3498 -0.5236
   45MOL0     O 5976  -1.388   3.182   5.893 -0.3486  0.1511 -0.1420
   45MOL0     C 5977  -1.511   3.125   5.939 -0.9755 -0.4448 -0.3310
   45MOL0     C 5978  -1.627   3.165   5.846 -0.6847 -0.7725 -0.4133
   45MOL0     C 5979  -1.747   3.225   5.911  0.5399  0.1357  0.3239
   45MOL0     C 5980  -1.739   3.374   5.924  0.6231  1.0437 -0.2434
   45MOL0     C 5981  -1.859   3.423   6.001  0.1836  0.5047 -0.3515
   45MOL0     C 5982  -1.883   3.571   5.999 -0.1830 -0.4754 -0.2082
   45MOL0     C 5983  -2.005   3.618   6.101 -0.2732  0.2878  0.7612
   45MOL0     C 5984  -2.135   3.631   6.024 -0.1834  0.1102  0.6062
   45MOL0    Cl 5985  -2.271   3.611   6.137 -0.0774 -0.3692 -0.2567
   45MOL0     C 5986  -1.156   3.215   5.927  1.0052  0.5353  0.2527
   45MOL0     C 5987  -1.035   3.206   5.989 -0.1528  0.1115  0.3766
   45MOL0     O 5988  -0.862   2.920   6.077  0.5502 -0.3250  0.1156
   45MOL0     C 5989  -0.660   3.119   6.307 -0.2551 -0.2895  0.3881
   45MOL0     C 5990  -0.543   3.111   6.380  1.2209  0.5326 -0.3454
   45MOL0     N 5991  -0.087   2.967   6.911  0.0255  0.4329  0.2868
   45MOL0     N 5992  -0.018   3.022   7.006 -0.0705  0.6924  0.2973
   45MOL0     C 5993   0.885   2.942   7.695 -0.6761 -0.6250 -0.4865
   45MOL0     C 5994   0.958   2.895   7.803  0.3356  0.0155  0.2401
   45MOL0     C 5995   1.331   2.930   8.086 -0.4484 -0.3867 -0.3085
   45MOL0     C 5996   1.270   2.911   8.208  0.6114 -0.0473  0.1436
   45MOL0     C 5997   1.347   2.891   8.321  0.5005 -0.3945  0.0017
   45MOL0     C 5998   1.492   2.902   8.320  1.6461 -0.4764  0.7190
   45MOL0     O 5999   1.575   2.912   8.424 -0.3367  0.4610 -0.3789
   45MOL0     C 6000   1.538   2.848   8.552 -0.7925 -0.2394  1.2593
   45MOL0     C 6001   1.662   2.794   8.628  0.5646 -0.3115 -0.7233
   45MOL0     C 6002   1.760   2.908   8.641  0.2364 -0.3011 -0.3014
   45MOL0     C 6003   1.875   2.853   8.739  0.3742  0.3586  0.4511
   45MOL0     C 6004   1.976   2.958   8.760 -0.2481  0.8808 -1.2269
   45MOL0     C 6005   2.052   3.042   8.807  0.2694 -0.7825  0.1141
   45MOL0     C 6006   1.544   2.926   8.190 -0.2400 -0.1261 -0.3381
   45MOL0     C 6007   1.471   2.942   8.074  1.1191 -0.3694 -0.4603
   45MOL0     H 6008   1.048   3.183   7.955  2.6551  2.6053 -3.1352
   45MOL0     H 6009   0.922   3.274   7.735 -0.2921 -0.8206 -0.2394
   45MOL0     H 6010   0.843   2.990   7.431 -0.4087 -1.6706  2.2013
   45MOL0     H 6011   0.682   2.997   7.507  0.7459 -1.1534 -0.7660
   45MOL0     H 6012   0.635   3.217   7.399 -3.0800 -0.7104 -2.1103
   45MOL0     H 6013   0.784   3.208   7.304 -0.7352 -0.2138 -0.8331
   45MOL0     H 6014   0.719   2.978   7.228  1.2400 -0.0601  3.6169
   45MOL0     H 6015   0.556   3.002   7.286  1.2204 -1.9338  0.6022
   45MOL0     H 6016   0.499   3.185   7.157 -1.4768 -0.0872 -1.7276
   45MOL0     H 6017   0.658   3.208   7.088 -2.7319  1.7275  0.1233
   45MOL0     H 6018   0.538   3.117   6.913  0.2846 -0.7020 -1.6410
   45MOL0     H 6019   0.636   2.986   6.974 -1.6373 -2.6981 -1.1775
   45MOL0     H 6020   0.396   2.927   6.911 -0.0253 -0.5854  1.0319
   45MOL0     H 6021   0.463   2.870   7.067  0.9053  0.4193  0.2435
   45MOL0     H 6022   0.237   2.924   7.104  0.5763  0.7202  3.2206
   45MOL0     H 6023   0.334   3.049   7.183  0.5776  0.6330 -0.7333
   45MOL0     H 6024   0.295   3.156   6.938  0.4143 -0.8418  0.3640
   45MOL0     H 6025   0.197   3.190   7.085  4.5272  1.3423  1.4015
   45MOL0     H 6026   0.194   3.025   6.750  0.8475  1.9348  0.4337
   45MOL0     H 6027  -0.020   2.825   6.637  0.2161  0.4465  0.4722
   45MOL0     H 6028  -0.168   2.889   6.669 -0.7117  2.6868  1.2561
   45MOL0     H 6029  -0.065   2.955   6.453 -2.0633  2.6686 -1.9438
   45MOL0     H 6030   0.072   3.029   6.536 -0.1057 -2.0654 -0.6731
   45MOL0     H 6031  -0.096   3.190   6.438 -2.0094 -2.1726 -1.6127
   45MOL0     H 6032  -0.103   3.212   6.612  3.3739 -1.2455  1.1276
   45MOL0     H 6033  -0.318   3.213   6.476 -0.8160 -1.2779 -1.0189
   45MOL0     H 6034  -0.332   3.107   6.609  1.6834  0.2349  0.9569
   45MOL0     H 6035  -0.373   2.893   6.182 -2.0732  0.0556 -0.9035
   45MOL0     H 6036  -0.648   2.917   5.959  1.0952  0.5926 -1.0613
   45MOL0     H 6037  -0.481   2.858   5.986 -0.2421 -0.8042  0.1180
   45MOL0     H 6038  -0.624   2.777   6.061 -0.9391  1.9813  2.5128
   45MOL0     H 6039  -1.133   3.028   6.260 -2.5453  1.5298  0.0167
   45MOL0     H 6040  -1.350   3.043   6.146 -1.0285  0.5713 -1.8161
   45MOL0     H 6041  -1.499   3.016   5.946  0.0038 -0.2435  3.8718
   45MOL0     H 6042  -1.546   3.165   6.035 -2.0552 -2.3267  0.1122
   45MOL0     H 6043  -1.583   3.232   5.772 -1.5156  0.2921  0.0379
   45MOL0     H 6044  -1.657   3.078   5.786 -2.0383  2.0151 -4.1281
   45MOL0     H 6045  -1.759   3.182   6.011  1.4936  2.8177  1.6796
   45MOL0     H 6046  -1.838   3.195   5.858  1.5813 -1.8961 -0.4334
   45MOL0     H 6047  -1.654   3.404   5.987  1.6738 -0.8358 -0.6988
   45MOL0     H 6048  -1.748   3.420   5.825 -3.6942  0.9726 -0.0852
   45MOL0     H 6049  -1.848   3.388   6.104  0.3773 -2.0483 -1.1844
   45MOL0     H 6050  -1.949   3.383   5.955  0.6785  1.9307 -2.7917
   45MOL0     H 6051  -1.797   3.627   6.038 -0.3965 -0.4741  0.2748
   45MOL0     H 6052  -1.892   3.611   5.898  2.1946  4.1341  1.1113
   45MOL0     H 6053  -1.981   3.713   6.149  2.9868  1.2066 -2.2812
   45MOL0     H 6054  -2.023   3.539   6.175 -1.8449  1.8111  2.0895
   45MOL0     H 6055  -2.144   3.544   5.958  0.6517 -0.9427  1.8323
   45MOL0     H 6056  -2.155   3.722   5.967 -0.8998  0.0933  0.8172
   45MOL0     H 6057  -1.168   3.274   5.837 -1.8561 -1.1468 -0.5933
   45MOL0     H 6058  -0.946   3.251   5.946  0.6437 -2.1006 -0.4310
   45MOL0     H 6059  -0.736   3.183   6.351 -1.0473 -0.7119 -0.3358
   45MOL0     H 6060  -0.542   3.169   6.471 -1.6456 -0.5748  0.4913
   45MOL0     H 6061   0.839   2.863   7.636 -1.0869 -1.2508  0.6413
   45MOL0     H 6062   0.970   2.788   7.819 -0.7238  0.1166  1.9720
   45MOL0     H 6063   1.163   2.915   8.224  0.8994 -0.3160  2.6027
   45MOL0     H 6064   1.302   2.880   8.420  1.6356  3.6931  1.1867
   45MOL0     H 6065   1.506   2.931   8.615  2.4171  1.9991  0.2039
   45MOL0     H 6066   1.463   2.769   8.542  2.4825 -3.4937  0.2053
   45MOL0     H 6067   1.709   2.716   8.567 -0.2427  1.0284 -3.2116
   45MOL0     H 6068   1.623   2.756   8.722  0.1677 -0.6124 -1.0058
   45MOL0     H 6069   1.720   2.999   8.687  0.6919 -1.7086  3.1819
   45MOL0     H 6070   1.799   2.920   8.539  1.9506 -0.8461  0.2554
   45MOL0     H 6071   1.921   2.762   8.699 -0.7447  0.1557 -0.4082
   45MOL0     H 6072   1.816   2.831   8.829 -1.4103  2.9183  0.0083
   45MOL0     H 6073   2.128   3.113   8.832 -1.7990  1.9127 -0.7715
   45MOL0     H 6074   1.650   2.948   8.190 -0.2698  0.0346 -0.9488
   45MOL0     H 6075   1.520   2.965   7.980  2.3655 -0.1815  0.2242
   46MOL0     O 6076   8.557   2.299   3.757 -0.0103 -0.3273 -0.1086
   46MOL0     C 6077   8.607   2.363   3.662 -0.0217 -0.0866  0.7410
   46MOL0     O 6078   8.552   2.385   3.537 -0.1779  0.9902  0.5741
   46MOL0     C 6079   8.438   2.317   3.496  0.4948 -0.3720 -0.2412
   46MOL0     C 6080   8.434   2.272   3.364 -0.9061  1.1531 -0.2585
   46MOL0     C 6081   8.326   2.198   3.326 -0.5334 -0.5094  0.1451
   46MOL0     C 6082   8.212   2.181   3.407  0.2878 -0.3124  0.3591
   46MOL0     O 6083   8.120   2.091   3.368 -0.0048 -0.3815  0.4944
   46MOL0     C 6084   8.027   2.144   3.271 -0.2425  0.6787 -0.8277
   46MOL0     C 6085   7.890   2.072   3.267  0.2420  0.4647  0.6417
   46MOL0     C 6086   7.799   2.144   3.158 -0.3061 -0.0716 -0.9223
   46MOL0     C 6087   7.654   2.090   3.167  0.2466 -0.3283  0.0057
   46MOL0     C 6088   7.641   1.948   3.127  0.3260  0.0551 -0.4112
   46MOL0     C 6089   7.490   1.922   3.118 -0.3075 -0.2883 -0.8370
   46MOL0     C 6090   7.476   1.781   3.065  0.1922 -0.3634  0.2618
   46MOL0     C 6091   7.477   1.684   3.188 -0.1743 -0.2237  0.2396
   46MOL0     N 6092   7.439   1.550   3.131 -0.2173 -0.0273 -0.3889
   46MOL0     C 6093   7.310   1.515   3.103  0.7769 -0.4492  0.4734
   46MOL0     C 6094   7.328   1.392   3.061  0.2118  0.2520 -0.2713
   46MOL0     C 6095   7.230   1.283   3.036 -1.2923  0.1449 -1.0461
   46MOL0     C 6096   7.118   1.337   2.949 -0.4682 -0.4615 -0.3886
   46MOL0     C 6097   7.020   1.223   2.908  0.1310 -0.4698 -0.0588
   46MOL0     C 6098   6.929   1.263   2.792  0.5437 -0.6691  0.4343
   46MOL0     O 6099   6.838   1.366   2.838  0.2808  0.5457 -0.4646
   46MOL0     C 6100   6.731   1.404   2.768  0.0492 -0.7149  0.7334
   46MOL0     C 6101   6.741   1.445   2.638  0.5224 -0.3716  0.1174
   46MOL0     C 6102   6.631   1.506   2.576 -0.5072  0.4580  0.2304
   46MOL0     C 6103   6.648   1.538   2.427 -0.5920  0.7661 -0.4651
   46MOL0     C 6104   6.504   1.507   2.634 -0.2058 -1.0862  0.1530
   46MOL0     C 6105   6.380   1.549   2.564 -0.0316  0.3726 -0.5291
   46MOL0     O 6106   6.266   1.497   2.628 -0.2950 -1.0869 -0.2271
   46MOL0     C 6107   6.138   1.517   2.583 -0.5929  0.5831 -0.6038
   46MOL0     C 6108   6.100   1.531   2.451 -1.7772 -0.0309 -0.3620
   46MOL0     C 6109   5.973   1.543   2.415  0.7945 -0.1096 -0.7920
   46MOL0     C 6110   5.868   1.549   2.512 -0.1045  0.3124  0.0925
   46MOL0     O 6111   5.744   1.570   2.460 -0.1952  0.3474  0.8274
   46MOL0     C 6112   5.655   1.646   2.540 -0.3239  0.0174 -0.0895
   46MOL0     C 6113   5.533   1.696   2.458  0.3608 -0.1506  0.4063
   46MOL0     C 6114   5.596   1.790   2.352  0.2330  0.5343  0.7397
   46MOL0     C 6115   5.485   1.822   2.253 -0.0625 -0.4239  1.1768
   46MOL0     C 6116   5.378   1.907   2.303 -0.4518  0.0106  0.3300
   46MOL0     C 6117   5.282   1.936   2.190 -0.2656  0.2257 -0.4520
   46MOL0     C 6118   5.162   1.980   2.252 -0.2278  1.3151  0.2871
   46MOL0     C 6119   5.039   2.010   2.169 -0.2152  0.5941 -0.1766
   46MOL0    Cl 6120   4.911   2.056   2.285 -0.1456  0.2117  0.1519
   46MOL0     C 6121   5.908   1.527   2.644  0.4039 -0.1850 -0.7603
   46MOL0     C 6122   6.041   1.504   2.683 -0.2993  0.3612 -0.0298
   46MOL0     O 6123   6.384   1.603   2.452  0.1438 -0.2552  1.2482
   46MOL0     C 6124   6.497   1.465   2.770  0.2542  0.6597 -0.0722
   46MOL0     C 6125   6.616   1.418   2.834 -0.9920  0.7792  0.4708
   46MOL0     N 6126   7.464   1.358   3.052 -0.6275  0.3293 -0.3591
   46MOL0     N 6127   7.526   1.451   3.113  0.0108 -0.2250  0.1588
   46MOL0     C 6128   8.205   2.241   3.530 -0.4158 -0.5391  0.6420
   46MOL0     C 6129   8.317   2.309   3.577 -0.3048  0.0454  0.0383
   46MOL0     C 6130   8.753   2.401   3.689  0.0770 -0.1478 -1.1390
   46MOL0     C 6131   8.813   2.481   3.595 -0.0169  0.0503  0.1592
   46MOL0     C 6132   8.945   2.519   3.617  0.1608  0.9768  0.3460
   46MOL0     C 6133   9.018   2.484   3.735 -0.0045  0.1474  0.7613
   46MOL0     O 6134   9.156   2.510   3.749  0.3122  0.0372  0.1114
   46MOL0     C 6135   9.232   2.540   3.630 -0.3690  0.4770 -0.9255
   46MOL0     C 6136   9.372   2.558   3.673  0.3690 -0.0004  0.0288
   46MOL0     C 6137   9.387   2.654   3.795  0.6002  0.5853 -0.2917
   46MOL0     C 6138   9.525   2.709   3.798  0.0960  0.3920  0.4556
   46MOL0     C 6139   9.627   2.610   3.801  0.1692  0.2494  0.4432
   46MOL0     C 6140   9.715   2.530   3.795  0.4225 -0.4320 -0.1673
   46MOL0     C 6141   8.953   2.401   3.827  0.2567  0.0438  0.3887
   46MOL0     C 6142   8.825   2.366   3.804 -0.2040 -0.6553  1.0619
   46MOL0     H 6143   8.529   2.283   3.312  0.4027  1.0312  1.9862
   46MOL0     H 6144   8.333   2.155   3.226 -2.9024 -0.7966  0.0386
   46MOL0     H 6145   8.005   2.248   3.294  1.1166  0.9549 -0.6755
   46MOL0     H 6146   8.071   2.146   3.171 -0.0442  0.2627 -0.7512
   46MOL0     H 6147   7.906   1.969   3.234  1.9470  1.1555 -0.8674
   46MOL0     H 6148   7.846   2.063   3.367  0.1203 -2.5482  0.3919
   46MOL0     H 6149   7.797   2.250   3.186  1.3792 -0.5027  1.0155
   46MOL0     H 6150   7.843   2.130   3.059  0.4841  1.0811 -0.7572
   46MOL0     H 6151   7.633   2.094   3.275 -2.4774  0.3739 -0.4721
   46MOL0     H 6152   7.587   2.151   3.106 -1.2120 -2.4052 -0.6027
   46MOL0     H 6153   7.683   1.928   3.028 -1.0022 -0.0626 -0.9726
   46MOL0     H 6154   7.689   1.876   3.194 -1.6445 -0.3585  0.6343
   46MOL0     H 6155   7.454   1.941   3.220  3.7104  4.0757  0.0952
   46MOL0     H 6156   7.436   1.988   3.051 -2.4078 -2.1442 -1.0917
   46MOL0     H 6157   7.384   1.769   3.006  0.3169  2.4576 -0.6454
   46MOL0     H 6158   7.555   1.765   2.991  2.0477  1.4897  1.7150
   46MOL0     H 6159   7.418   1.717   3.274  0.7513  0.1508  0.7558
   46MOL0     H 6160   7.581   1.674   3.220 -0.9818 -1.2561  2.8449
   46MOL0     H 6161   7.224   1.579   3.122  1.9465  1.8814 -1.5170
   46MOL0     H 6162   7.279   1.202   2.981  2.3002  0.8037  0.8303
   46MOL0     H 6163   7.194   1.233   3.126  1.7532  0.6130  0.5895
   46MOL0     H 6164   7.157   1.368   2.852 -3.4308  1.7659 -1.0078
   46MOL0     H 6165   7.065   1.427   2.982  0.1690  0.2312 -1.2107
   46MOL0     H 6166   6.946   1.207   2.987  0.1649  1.0537  0.3186
   46MOL0     H 6167   7.072   1.130   2.883  0.3982 -1.4414  3.5483
   46MOL0     H 6168   6.873   1.175   2.759 -0.0474 -0.2784  0.3837
   46MOL0     H 6169   6.983   1.292   2.701 -1.8037 -0.3954 -0.9572
   46MOL0     H 6170   6.831   1.422   2.581  0.0660 -1.9830  0.0058
   46MOL0     H 6171   6.750   1.513   2.399 -1.0579  0.0304 -1.5552
   46MOL0     H 6172   6.577   1.492   2.358  0.9553  0.1378 -1.6765
   46MOL0     H 6173   6.642   1.646   2.409 -0.9432  0.9373  0.6055
   46MOL0     H 6174   6.181   1.530   2.378 -3.8676 -0.8754 -2.8076
   46MOL0     H 6175   5.958   1.576   2.312 -0.3361  0.4376 -0.4583
   46MOL0     H 6176   5.621   1.583   2.623  1.0090 -1.9201 -0.9655
   46MOL0     H 6177   5.704   1.733   2.585  0.4009 -1.1329  1.4441
   46MOL0     H 6178   5.473   1.620   2.406 -2.2828  0.9335  1.6999
   46MOL0     H 6179   5.456   1.742   2.521  1.7842  0.3303  1.8588
   46MOL0     H 6180   5.679   1.743   2.298  0.0307 -0.3632  1.2026
   46MOL0     H 6181   5.638   1.879   2.399 -0.0039  0.4318  1.1401
   46MOL0     H 6182   5.535   1.883   2.177 -0.0324  1.5696  2.7162
   46MOL0     H 6183   5.443   1.733   2.206 -1.5364 -0.9866  3.4385
   46MOL0     H 6184   5.432   1.993   2.342  2.4812 -1.5507 -0.0417
   46MOL0     H 6185   5.325   1.855   2.383 -0.7783 -0.4629 -0.1814
   46MOL0     H 6186   5.318   2.015   2.123  1.1419 -1.7250 -2.1503
   46MOL0     H 6187   5.258   1.849   2.128 -2.1413  0.6549 -0.3827
   46MOL0     H 6188   5.182   2.065   2.319  4.4606 -0.8396  1.9977
   46MOL0     H 6189   5.124   1.893   2.306 -1.8020  1.2523 -0.8472
   46MOL0     H 6190   5.017   1.921   2.108  2.8341 -1.1645  1.0308
   46MOL0     H 6191   5.054   2.093   2.099  0.9482  0.3743 -0.2197
   46MOL0     H 6192   5.818   1.535   2.705  0.5570  2.6981 -0.7696
   46MOL0     H 6193   6.064   1.483   2.787 -0.8034  0.0456  0.0194
   46MOL0     H 6194   6.406   1.460   2.828 -0.6421  2.4364 -1.2280
   46MOL0     H 6195   6.609   1.385   2.937 -2.2568  1.2679  0.5488
   46MOL0     H 6196   8.116   2.228   3.591 -1.4910  0.9408 -0.5584
   46MOL0     H 6197   8.317   2.363   3.671 -3.8893  0.1134  0.1609
   46MOL0     H 6198   8.766   2.511   3.502 -1.8198  1.1115  1.3541
   46MOL0     H 6199   8.981   2.578   3.533 -3.9154  0.8552 -1.7374
   46MOL0     H 6200   9.228   2.460   3.555  2.5592 -0.5149 -0.1652
   46MOL0     H 6201   9.191   2.631   3.585  1.1557  0.0724 -3.3010
   46MOL0     H 6202   9.422   2.591   3.582  0.1071 -2.2601 -0.9974
   46MOL0     H 6203   9.408   2.459   3.702 -0.8580 -0.8499 -1.2258
   46MOL0     H 6204   9.379   2.594   3.886  0.5493  0.7823 -0.1677
   46MOL0     H 6205   9.309   2.731   3.801  1.7208  1.6661  1.0410
   46MOL0     H 6206   9.530   2.775   3.885 -0.8821 -2.6913  3.0421
   46MOL0     H 6207   9.539   2.760   3.703  3.3199 -1.0003  0.0599
   46MOL0     H 6208   9.804   2.471   3.782  2.6206  1.9285  2.7599
   46MOL0     H 6209   9.007   2.374   3.916 -1.6431 -3.4062  0.6481
   46MOL0     H 6210   8.787   2.302   3.883  0.9667 -1.4500  0.9982
   47MOL0     O 6211   5.073   2.163   0.889 -0.6660 -0.2807  0.2241
   47MOL0     C 6212   5.071   2.042   0.876 -0.3805  0.4880  0.2219
   47MOL0     O 6213   4.960   1.961   0.873  0.2945 -0.6148 -0.0744
   47MOL0     C 6214   4.838   2.019   0.870 -0.5165  0.4252  0.6533
   47MOL0     C 6215   4.734   1.984   0.954  0.2815  0.4771  0.0297
   47MOL0     C 6216   4.609   2.056   0.953 -0.3029  0.3206 -0.5053
   47MOL0     C 6217   4.579   2.161   0.874 -0.2463  0.1246 -0.1597
   47MOL0     O 6218   4.466   2.235   0.879  0.2944  0.2133 -0.6891
   47MOL0     C 6219   4.365   2.200   0.968 -1.0973 -0.4220 -0.5296
   47MOL0     C 6220   4.272   2.321   0.955  0.7845 -0.0254  0.3893
   47MOL0     C 6221   4.154   2.294   1.046 -0.1352  0.3629  1.1807
   47MOL0     C 6222   4.073   2.417   1.077 -0.8548 -0.4247 -0.3738
   47MOL0     C 6223   3.951   2.372   1.158 -0.9248 -0.0267  0.9605
   47MOL0     C 6224   3.866   2.487   1.227  0.4085 -0.1882 -0.1503
   47MOL0     C 6225   3.764   2.423   1.321  0.5950 -0.0624 -0.4253
   47MOL0     C 6226   3.671   2.325   1.244 -0.0735 -0.6572  0.4245
   47MOL0     N 6227   3.543   2.386   1.189 -0.0087 -0.3867  0.1906
   47MOL0     C 6228   3.421   2.382   1.253 -1.1239  0.2192  0.4146
   47MOL0     C 6229   3.336   2.394   1.153  0.4015 -0.1989  0.2008
   47MOL0     C 6230   3.188   2.415   1.174 -0.2019  0.4356  0.2503
   47MOL0     C 6231   3.133   2.523   1.081  0.1657 -0.0509 -0.8175
   47MOL0     C 6232   2.978   2.549   1.106 -0.3049 -0.2682  0.0726
   47MOL0     C 6233   2.894   2.418   1.087 -0.3773 -0.3419 -0.2800
   47MOL0     O 6234   2.757   2.449   1.067 -0.1025  0.3496  0.0578
   47MOL0     C 6235   2.677   2.500   1.167 -0.2566 -0.0689  0.2844
   47MOL0     C 6236   2.555   2.534   1.131  0.8940 -0.7140 -0.7779
   47MOL0     C 6237   2.457   2.575   1.225 -0.8162 -0.6551  0.4498
   47MOL0     C 6238   2.315   2.588   1.174  0.0344  0.7514 -0.9144
   47MOL0     C 6239   2.498   2.597   1.358  0.2535  0.5782  0.2672
   47MOL0     C 6240   2.400   2.640   1.461 -1.0786 -0.5332 -0.5393
   47MOL0     O 6241   2.404   2.583   1.581 -1.2248  0.5597  0.6605
   47MOL0     C 6242   2.352   2.663   1.676  0.2858 -0.4676  0.2459
   47MOL0     C 6243   2.426   2.757   1.742 -0.6291 -0.2043 -0.4988
   47MOL0     C 6244   2.373   2.832   1.846 -0.0257  0.1007 -0.2650
   47MOL0     C 6245   2.242   2.809   1.888 -0.1685  0.4093 -0.1910
   47MOL0     O 6246   2.174   2.883   1.987  0.4541 -0.5643 -0.1768
   47MOL0     C 6247   2.207   3.021   1.979  0.5835 -0.0794 -0.0620
   47MOL0     C 6248   2.142   3.117   2.078  0.1293  0.0312  0.2198
   47MOL0     C 6249   1.984   3.113   2.074 -0.2968  0.5509 -0.3961
   47MOL0     C 6250   1.915   3.161   2.203 -0.9146 -1.0133 -0.0947
   47MOL0     C 6251   1.764   3.159   2.188  0.5588 -0.0142 -0.3676
   47MOL0     C 6252   1.691   3.219   2.309 -0.3159  0.1266  0.4998
   47MOL0     C 6253   1.530   3.204   2.298 -1.5346 -0.0878 -1.3018
   47MOL0     C 6254   1.467   3.242   2.426 -0.5101 -0.4533 -0.9252
   47MOL0    Cl 6255   1.298   3.291   2.404  0.1862 -0.1098  0.2006
   47MOL0     C 6256   2.170   2.706   1.828 -0.3218  0.0150 -1.2658
   47MOL0     C 6257   2.223   2.637   1.723  0.2742  0.2387  0.3221
   47MOL0     O 6258   2.328   2.741   1.433 -0.8654 -0.2881 -0.2509
   47MOL0     C 6259   2.621   2.550   1.398 -0.1935 -0.5032 -0.5511
   47MOL0     C 6260   2.709   2.502   1.301 -0.9641  0.1576  0.2620
   47MOL0     N 6261   3.403   2.417   1.031  0.4170 -0.1096  0.1833
   47MOL0     N 6262   3.534   2.416   1.058  0.6296 -0.3435  0.3787
   47MOL0     C 6263   4.681   2.194   0.778  0.1304  1.2904 -0.7639
   47MOL0     C 6264   4.807   2.125   0.783  0.4371  0.3333  0.1083
   47MOL0     C 6265   5.200   1.980   0.881  0.7252  0.9676  0.4763
   47MOL0     C 6266   5.316   2.055   0.887 -0.4397 -0.1792  0.2549
   47MOL0     C 6267   5.445   2.001   0.902  0.2729  0.2940 -0.1497
   47MOL0     C 6268   5.458   1.862   0.915 -0.7886 -0.2449  0.3811
   47MOL0     O 6269   5.579   1.794   0.930  0.8201  0.8375 -0.0142
   47MOL0     C 6270   5.703   1.872   0.909  1.2005  0.2806  0.2141
   47MOL0     C 6271   5.813   1.802   0.978  0.6892 -0.3274 -0.2312
   47MOL0     C 6272   5.949   1.878   0.979 -1.1494 -0.4816 -0.0869
   47MOL0     C 6273   6.066   1.785   1.025 -0.1488  0.0804 -0.7050
   47MOL0     C 6274   6.087   1.674   0.929  0.3298 -0.3032 -0.2654
   47MOL0     C 6275   6.104   1.581   0.851 -0.6937  0.4763 -0.4882
   47MOL0     C 6276   5.346   1.784   0.903 -0.1306  0.0851  0.2222
   47MOL0     C 6277   5.217   1.843   0.875 -0.6293  0.9483  0.6096
   47MOL0     H 6278   4.751   1.907   1.028  0.0318 -1.1735 -1.5515
   47MOL0     H 6279   4.541   2.021   1.030  0.2987  1.0105  0.3656
   47MOL0     H 6280   4.306   2.113   0.937 -1.0123 -1.6915  2.4530
   47MOL0     H 6281   4.399   2.180   1.070 -1.3539 -0.5035 -0.4589
   47MOL0     H 6282   4.323   2.406   1.002 -0.8778  0.6806  0.9698
   47MOL0     H 6283   4.230   2.348   0.858 -1.4231  0.0601  1.3076
   47MOL0     H 6284   4.098   2.208   1.010  0.2416 -0.7354  3.0939
   47MOL0     H 6285   4.201   2.262   1.140 -0.9541  0.9599  1.8111
   47MOL0     H 6286   4.137   2.489   1.129 -0.0752 -2.5573  1.8054
   47MOL0     H 6287   4.038   2.456   0.981 -0.7014 -0.5521 -0.4828
   47MOL0     H 6288   3.893   2.317   1.083  1.0794  2.9245 -3.2279
   47MOL0     H 6289   3.986   2.309   1.240 -1.7535 -2.6618 -0.5789
   47MOL0     H 6290   3.936   2.547   1.285  0.0607  0.9230 -0.8426
   47MOL0     H 6291   3.821   2.543   1.145  0.8393  0.1264 -0.1761
   47MOL0     H 6292   3.820   2.367   1.396 -0.3099  0.0564  0.3506
   47MOL0     H 6293   3.717   2.501   1.381  1.6373 -1.1819  1.9963
   47MOL0     H 6294   3.641   2.247   1.313 -0.8967 -0.5151  0.2377
   47MOL0     H 6295   3.729   2.271   1.169  1.5521  1.7049 -0.1372
   47MOL0     H 6296   3.409   2.379   1.360  1.3014  1.0252  0.7759
   47MOL0     H 6297   3.140   2.317   1.167 -0.4978  0.5469  0.7077
   47MOL0     H 6298   3.178   2.437   1.281  0.1224  1.7693  0.0202
   47MOL0     H 6299   3.142   2.487   0.979  0.0932 -0.9478 -0.5156
   47MOL0     H 6300   3.191   2.613   1.102  0.2567 -0.5275  1.2482
   47MOL0     H 6301   2.945   2.631   1.041 -2.3635  0.5036  1.9619
   47MOL0     H 6302   2.973   2.589   1.208  0.5410  0.7872 -0.2707
   47MOL0     H 6303   2.913   2.356   1.175 -0.1812 -1.3865 -1.0330
   47MOL0     H 6304   2.931   2.356   1.004  2.6609  0.1256  0.6035
   47MOL0     H 6305   2.531   2.518   1.026  1.5065 -2.1504 -0.7202
   47MOL0     H 6306   2.309   2.534   1.079 -4.2616  1.7403 -1.4100
   47MOL0     H 6307   2.250   2.552   1.254  0.5604  0.5745 -0.5632
   47MOL0     H 6308   2.291   2.695   1.167 -0.3702  0.6179 -1.7793
   47MOL0     H 6309   2.531   2.768   1.718 -0.8652 -0.4796 -1.7175
   47MOL0     H 6310   2.442   2.900   1.896  1.4354 -1.5138  0.0047
   47MOL0     H 6311   2.311   3.037   2.010  1.4468 -3.5252 -0.7595
   47MOL0     H 6312   2.177   3.055   1.880  0.4120 -2.9970 -1.1066
   47MOL0     H 6313   2.194   3.096   2.172  1.7515 -1.2841 -0.8914
   47MOL0     H 6314   2.177   3.217   2.052  4.3291 -1.0719  0.8535
   47MOL0     H 6315   1.938   3.016   2.051 -1.0790  1.2253 -1.7565
   47MOL0     H 6316   1.965   3.181   1.990  2.8068  1.1322 -0.7293
   47MOL0     H 6317   1.939   3.093   2.285  1.3395  0.4233  0.5267
   47MOL0     H 6318   1.952   3.261   2.230 -0.3201 -0.3849 -2.9036
   47MOL0     H 6319   1.720   3.061   2.167 -1.1070  0.9553 -1.6382
   47MOL0     H 6320   1.725   3.210   2.099 -1.6864 -1.8058 -0.5041
   47MOL0     H 6321   1.735   3.176   2.399 -0.0391  1.7304  1.1747
   47MOL0     H 6322   1.719   3.325   2.319  0.3260  0.0183 -0.0882
   47MOL0     H 6323   1.515   3.096   2.285 -2.8206  0.0284 -0.9747
   47MOL0     H 6324   1.494   3.258   2.210 -0.0076  1.1212 -1.2188
   47MOL0     H 6325   1.510   3.326   2.481  1.2741  0.0692 -3.0030
   47MOL0     H 6326   1.469   3.166   2.505  2.7642 -0.6054 -1.0318
   47MOL0     H 6327   2.070   2.701   1.868  0.9603  0.5388  2.3610
   47MOL0     H 6328   2.150   2.571   1.678  0.7800  0.0901 -0.3006
   47MOL0     H 6329   2.663   2.549   1.498 -2.2107 -1.5651  0.3313
   47MOL0     H 6330   2.804   2.465   1.336  0.0799  1.7472 -0.7893
   47MOL0     H 6331   4.674   2.279   0.712  0.5621  0.2216 -2.2390
   47MOL0     H 6332   4.883   2.167   0.718 -2.0111  0.9965 -2.5229
   47MOL0     H 6333   5.306   2.161   0.870 -3.2751 -0.0517  2.1218
   47MOL0     H 6334   5.528   2.070   0.907 -0.0428  0.6196  0.8298
   47MOL0     H 6335   5.713   1.865   0.800 -3.2726 -0.6418 -0.3328
   47MOL0     H 6336   5.693   1.973   0.951 -1.5420 -0.7633  2.3913
   47MOL0     H 6337   5.825   1.716   0.912 -0.4433  0.0633 -0.9868
   47MOL0     H 6338   5.778   1.768   1.076 -2.2029 -0.6803 -1.2989
   47MOL0     H 6339   5.951   1.960   1.051 -3.1687 -0.0291 -0.4871
   47MOL0     H 6340   5.980   1.935   0.891 -1.2612  2.9473  1.9582
   47MOL0     H 6341   6.038   1.740   1.121  1.4968  0.1246 -0.1859
   47MOL0     H 6342   6.157   1.844   1.028  0.2782 -0.5910  1.3504
   47MOL0     H 6343   6.134   1.501   0.787 -1.0012  0.0126 -0.0663
   47MOL0     H 6344   5.376   1.683   0.930  0.3310  0.2067  0.1709
   47MOL0     H 6345   5.135   1.772   0.871 -1.1230  1.5355  0.0939
   48MOL0     O 6346   8.560   5.090   8.187 -0.3518 -0.2989  0.2467
   48MOL0     C 6347   8.614   5.153   8.282 -0.0301  0.4146  0.0238
   48MOL0     O 6348   8.551   5.220   8.388 -0.0034 -0.2220  0.3886
   48MOL0     C 6349   8.423   5.266   8.380 -0.1038  0.2856 -0.1841
   48MOL0     C 6350   8.348   5.278   8.266  0.6610 -0.1705 -0.4492
   48MOL0     C 6351   8.219   5.335   8.271 -0.0657 -0.7076  0.6090
   48MOL0     C 6352   8.168   5.405   8.387 -0.5111  0.1968  0.4073
   48MOL0     O 6353   8.049   5.472   8.407 -0.6764 -0.6347 -0.8362
   48MOL0     C 6354   7.957   5.473   8.294  0.5608  0.1119 -0.1207
   48MOL0     C 6355   7.819   5.524   8.339 -1.0880  0.4913  0.3517
   48MOL0     C 6356   7.796   5.663   8.281 -0.1564  0.0732  0.1160
   48MOL0     C 6357   7.660   5.725   8.308  0.9586 -0.6485 -0.2803
   48MOL0     C 6358   7.608   5.732   8.455  0.1562  0.6571 -0.4113
   48MOL0     C 6359   7.455   5.757   8.468  0.3902  0.3297 -0.1102
   48MOL0     C 6360   7.417   5.853   8.361  0.1193  0.3465 -0.9872
   48MOL0     C 6361   7.283   5.919   8.392 -0.8994  0.6514 -0.4155
   48MOL0     N 6362   7.294   6.019   8.500  0.4380  0.4979 -0.0286
   48MOL0     C 6363   7.277   6.012   8.636  0.1068 -0.4437 -0.7493
   48MOL0     C 6364   7.264   6.139   8.673  0.5522 -0.9168 -0.4772
   48MOL0     C 6365   7.250   6.183   8.818  0.6389  0.3331  0.1931
   48MOL0     C 6366   7.113   6.182   8.870  0.7135  0.7883 -0.2666
   48MOL0     C 6367   7.102   6.148   9.022 -0.0855  0.5207  0.1840
   48MOL0     C 6368   6.961   6.137   9.069  1.4191  0.8086 -0.4976
   48MOL0     O 6369   6.886   6.040   8.986 -1.1707  0.1333  0.3662
   48MOL0     C 6370   6.756   6.032   9.010 -0.2439  0.4252 -0.4609
   48MOL0     C 6371   6.678   5.977   8.911 -0.0830 -0.1002 -0.1966
   48MOL0     C 6372   6.544   5.953   8.922 -0.7750 -0.2123  0.4220
   48MOL0     C 6373   6.489   5.901   8.794  0.0233  0.8661  0.2219
   48MOL0     C 6374   6.489   5.977   9.051  0.9036  0.2697  0.1549
   48MOL0     C 6375   6.352   5.918   9.089 -0.6140 -0.4852 -0.9507
   48MOL0     O 6376   6.321   5.933   9.224 -0.4285 -1.2791 -0.2763
   48MOL0     C 6377   6.192   5.906   9.281 -0.3349 -0.5368 -0.2266
   48MOL0     C 6378   6.068   5.943   9.233  0.1256 -0.9905 -0.5010
   48MOL0     C 6379   5.941   5.910   9.300 -0.2128 -0.2989 -0.3694
   48MOL0     C 6380   5.947   5.842   9.426 -0.0883 -0.5187 -0.0288
   48MOL0     O 6381   5.827   5.826   9.492 -0.6668 -0.3334 -0.3298
   48MOL0     C 6382   5.710   5.787   9.421 -0.0531 -1.2162  0.0764
   48MOL0     C 6383   5.604   5.904   9.409 -1.2307 -0.9815 -0.0662
   48MOL0     C 6384   5.489   5.846   9.335 -0.5635 -0.0067  0.0667
   48MOL0     C 6385   5.377   5.949   9.312  0.1407 -0.1508 -0.1934
   48MOL0     C 6386   5.244   5.872   9.296  0.0630 -0.4084  0.4052
   48MOL0     C 6387   5.119   5.971   9.283  0.1684  1.1199  0.4542
   48MOL0     C 6388   4.984   5.894   9.282  1.1534  0.0733  0.4529
   48MOL0     C 6389   4.911   5.883   9.154 -0.0060 -0.0659 -0.3880
   48MOL0    Cl 6390   4.800   5.748   9.147  0.0106  0.1095 -0.2562
   48MOL0     C 6391   6.072   5.827   9.488 -0.1012 -0.2430  0.1245
   48MOL0     C 6392   6.189   5.846   9.407  0.3996 -0.0136 -0.1781
   48MOL0     O 6393   6.275   5.888   9.000 -0.2873  0.2410  0.3751
   48MOL0     C 6394   6.572   6.023   9.154 -0.4528 -1.1153 -0.6987
   48MOL0     C 6395   6.706   6.046   9.133 -0.2325  0.8934  0.2114
   48MOL0     N 6396   7.282   6.221   8.565 -0.1153 -0.1677  0.5529
   48MOL0     N 6397   7.300   6.150   8.462 -0.5622  0.4454 -1.0161
   48MOL0     C 6398   8.251   5.402   8.499  0.5737  0.0650  0.3462
   48MOL0     C 6399   8.366   5.326   8.496 -0.3731 -0.0040 -0.5515
   48MOL0     C 6400   8.766   5.147   8.280  0.2351  0.0067  0.0924
   48MOL0     C 6401   8.835   5.225   8.375  0.3156  0.1005  0.1190
   48MOL0     C 6402   8.973   5.221   8.370 -0.3237  0.2249  0.6394
   48MOL0     C 6403   9.043   5.154   8.269 -0.0752 -0.1880 -0.2385
   48MOL0     O 6404   9.177   5.151   8.257  0.6361  0.7758  0.3600
   48MOL0     C 6405   9.262   5.190   8.361 -0.0728  0.4853 -0.3435
   48MOL0     C 6406   9.409   5.185   8.313 -0.8583  0.6421 -0.0882
   48MOL0     C 6407   9.506   5.230   8.417 -0.5060 -0.3440  0.1072
   48MOL0     C 6408   9.645   5.197   8.366  0.1232  0.2599 -0.6073
   48MOL0     C 6409   9.752   5.285   8.420  0.7109  1.1007  0.0592
   48MOL0     C 6410   9.848   5.348   8.456 -0.5416  0.1100  0.4525
   48MOL0     C 6411   8.969   5.087   8.174  0.2369 -0.5281 -0.1702
   48MOL0     C 6412   8.828   5.077   8.183  0.2023  0.6455 -0.2506
   48MOL0     H 6413   8.394   5.253   8.171  0.0555 -1.1183 -0.5101
   48MOL0     H 6414   8.157   5.334   8.182 -0.6747 -2.0631  1.0318
   48MOL0     H 6415   8.004   5.522   8.208 -0.1529 -0.6342 -0.9514
   48MOL0     H 6416   7.929   5.369   8.277 -1.7855  0.4081  1.5373
   48MOL0     H 6417   7.744   5.457   8.295 -1.8313  2.2515 -1.2505
   48MOL0     H 6418   7.808   5.539   8.446  1.5998  1.2501  0.5718
   48MOL0     H 6419   7.868   5.733   8.324 -3.3593  1.8629  3.0263
   48MOL0     H 6420   7.812   5.664   8.173 -2.7526 -2.2472 -0.4063
   48MOL0     H 6421   7.649   5.819   8.252 -0.4773 -0.6793 -0.0780
   48MOL0     H 6422   7.601   5.647   8.259  1.2082 -0.2982 -1.1782
   48MOL0     H 6423   7.625   5.634   8.500 -0.0437  0.8186  0.0190
   48MOL0     H 6424   7.665   5.806   8.511  2.3876 -0.8746 -0.5295
   48MOL0     H 6425   7.417   5.655   8.462 -2.2252  1.0951  1.6269
   48MOL0     H 6426   7.423   5.780   8.570  2.5155 -3.6369  1.6616
   48MOL0     H 6427   7.484   5.939   8.351 -1.0718  1.3757 -0.4592
   48MOL0     H 6428   7.411   5.799   8.266 -1.3324  0.3592 -0.9173
   48MOL0     H 6429   7.207   5.848   8.428 -2.5157  2.1486 -0.7374
   48MOL0     H 6430   7.243   5.966   8.302  0.0864 -0.0644 -1.2533
   48MOL0     H 6431   7.272   5.916   8.687  2.7843 -0.7267 -0.8586
   48MOL0     H 6432   7.316   6.113   8.869  0.4280 -0.0697 -0.0812
   48MOL0     H 6433   7.278   6.288   8.835 -2.4632  1.1657  0.7803
   48MOL0     H 6434   7.060   6.110   8.807  2.1470  0.5600 -1.2591
   48MOL0     H 6435   7.054   6.269   8.842 -2.4318 -0.6609  1.3132
   48MOL0     H 6436   7.159   6.222   9.078  0.5593 -1.7183  2.6653
   48MOL0     H 6437   7.140   6.046   9.030 -1.6428 -0.2153 -1.1642
   48MOL0     H 6438   6.925   6.240   9.065  0.0024  0.3917  0.7137
   48MOL0     H 6439   6.968   6.100   9.172  1.1000  0.4732 -0.5944
   48MOL0     H 6440   6.737   5.951   8.823  1.1597 -0.1652  0.6257
   48MOL0     H 6441   6.394   5.952   8.774  0.3312  0.4811 -2.7512
   48MOL0     H 6442   6.552   5.926   8.708 -1.1430  1.4359 -0.5043
   48MOL0     H 6443   6.468   5.794   8.799  1.7900  0.1993 -3.3789
   48MOL0     H 6444   6.057   5.992   9.137 -2.3784 -2.6754 -1.1794
   48MOL0     H 6445   5.847   5.943   9.257  0.4182  0.4228 -1.2547
   48MOL0     H 6446   5.720   5.741   9.322 -1.2493 -1.2922 -0.0302
   48MOL0     H 6447   5.662   5.715   9.487  1.8402  0.3792  3.4219
   48MOL0     H 6448   5.578   5.934   9.512  0.0309 -2.5814  0.7632
   48MOL0     H 6449   5.658   5.981   9.355 -1.8410  2.6439  3.9321
   48MOL0     H 6450   5.457   5.760   9.394  0.9029  0.4656  1.6135
   48MOL0     H 6451   5.515   5.802   9.238  1.9450  0.7164  0.3264
   48MOL0     H 6452   5.373   6.009   9.403 -0.8697  2.3785 -1.7848
   48MOL0     H 6453   5.407   6.005   9.223  0.2499 -1.6265 -1.1077
   48MOL0     H 6454   5.241   5.804   9.382  0.1865 -1.4693 -0.3994
   48MOL0     H 6455   5.245   5.802   9.212 -3.8313  0.1618 -0.2810
   48MOL0     H 6456   5.118   6.040   9.368 -1.0454  1.6807  0.0079
   48MOL0     H 6457   5.135   6.031   9.192  1.3560 -0.3449 -0.3564
   48MOL0     H 6458   4.917   5.951   9.348  1.0324  0.0910  0.3149
   48MOL0     H 6459   5.001   5.792   9.319  2.7119 -0.4934 -1.6680
   48MOL0     H 6460   4.981   5.874   9.070  2.1769  0.3003  1.3133
   48MOL0     H 6461   4.851   5.974   9.138 -1.5472 -0.5086  2.2576
   48MOL0     H 6462   6.098   5.782   9.584 -1.0161 -2.5278 -0.6152
   48MOL0     H 6463   6.283   5.831   9.459  1.9150  1.4471 -2.3105
   48MOL0     H 6464   6.534   6.037   9.255  0.6669 -0.5602 -0.3281
   48MOL0     H 6465   6.768   6.058   9.221 -0.5062  2.4129  0.2179
   48MOL0     H 6466   8.218   5.454   8.588 -0.6793  0.2802 -0.2290
   48MOL0     H 6467   8.423   5.317   8.588 -1.9155 -3.3124  0.2636
   48MOL0     H 6468   8.783   5.287   8.447  2.1342  0.3523  1.2817
   48MOL0     H 6469   9.016   5.286   8.446 -1.8745 -0.2481  1.9594
   48MOL0     H 6470   9.242   5.295   8.384 -0.1584  0.7528 -1.5897
   48MOL0     H 6471   9.238   5.110   8.431 -0.4210 -0.5966 -1.6459
   48MOL0     H 6472   9.424   5.252   8.227  0.7940 -1.0327 -1.1785
   48MOL0     H 6473   9.442   5.083   8.292  1.0056  1.2650 -0.4040
   48MOL0     H 6474   9.499   5.176   8.512 -1.7086  0.1597  0.3197
   48MOL0     H 6475   9.499   5.337   8.438  0.6417 -0.6834  2.5865
   48MOL0     H 6476   9.641   5.213   8.258  0.6529  1.5849 -0.4535
   48MOL0     H 6477   9.671   5.094   8.393  1.1762  0.7689  0.4605
   48MOL0     H 6478   9.928   5.419   8.461  0.6424 -0.7502 -3.2242
   48MOL0     H 6479   9.025   5.022   8.106  3.0798 -0.1437  1.6221
   48MOL0     H 6480   8.780   5.025   8.101  2.7535  0.3924 -1.6863
   49MOL0     O 6481   9.622  11.268   3.451 -0.1122  0.1054 -0.1633
   49MOL0     C 6482   9.684  11.343   3.369 -0.5908  0.2392  0.4926
   49MOL0     O 6483   9.634  11.415   3.265  0.0085 -0.7653 -0.8172
   49MOL0     C 6484   9.506  11.394   3.234 -0.7159 -0.2402  0.7091
   49MOL0     C 6485   9.398  11.423   3.310  0.1093  0.4349  0.1066
   49MOL0     C 6486   9.270  11.395   3.264  0.1028  0.0026  0.4128
   49MOL0     C 6487   9.245  11.366   3.131 -0.0506  0.3866 -0.8045
   49MOL0     O 6488   9.114  11.374   3.096 -0.2378  0.1256  0.0692
   49MOL0     C 6489   9.093  11.385   2.958  1.1577 -0.5443  0.1708
   49MOL0     C 6490   8.940  11.384   2.939  0.2391  0.1407  0.2248
   49MOL0     C 6491   8.914  11.365   2.784 -1.3706  0.7656 -0.6252
   49MOL0     C 6492   8.762  11.385   2.755  0.1089  0.4890 -1.1315
   49MOL0     C 6493   8.686  11.262   2.812  0.1731 -0.4095  0.5338
   49MOL0     C 6494   8.531  11.279   2.823  0.5196 -0.1361 -0.0419
   49MOL0     C 6495   8.483  11.359   2.948 -0.0663  0.5576  0.4098
   49MOL0     C 6496   8.353  11.313   2.995 -0.8578 -0.5751  0.7333
   49MOL0     N 6497   8.234  11.347   2.911 -0.3978  0.2761  0.1942
   49MOL0     C 6498   8.156  11.461   2.916  1.0632  0.0375 -0.7285
   49MOL0     C 6499   8.082  11.453   2.803 -0.7746 -0.7200  0.4564
   49MOL0     C 6500   7.979  11.555   2.768  0.4658 -0.6154 -0.1733
   49MOL0     C 6501   8.040  11.681   2.733 -0.8184 -1.2330 -1.2033
   49MOL0     C 6502   7.925  11.783   2.735 -0.0004 -0.3885 -0.5516
   49MOL0     C 6503   7.828  11.766   2.614  0.0922 -0.9321 -1.5739
   49MOL0     O 6504   7.715  11.852   2.618 -0.6177 -0.1494 -0.1288
   49MOL0     C 6505   7.607  11.832   2.537 -0.3682  1.0579 -0.0749
   49MOL0     C 6506   7.487  11.889   2.562  0.2684 -0.0686 -0.4357
   49MOL0     C 6507   7.378  11.881   2.479  0.0208  0.4687  0.2305
   49MOL0     C 6508   7.255  11.960   2.523 -0.6119  0.0618 -0.0078
   49MOL0     C 6509   7.385  11.812   2.352  0.4968  0.2134 -0.1424
   49MOL0     C 6510   7.265  11.778   2.279  0.1581  0.5818 -0.5229
   49MOL0     O 6511   7.270  11.750   2.143  0.2568 -0.6409 -0.0179
   49MOL0     C 6512   7.145  11.726   2.087 -0.0033  0.1291  0.5152
   49MOL0     C 6513   7.102  11.609   2.018 -0.3462 -0.0971  0.5944
   49MOL0     C 6514   6.967  11.611   1.972 -0.4005  0.5617 -0.6347
   49MOL0     C 6515   6.890  11.727   1.982  0.0637  0.4479 -0.5890
   49MOL0     O 6516   6.764  11.716   1.932 -0.0457 -0.5733  0.7654
   49MOL0     C 6517   6.654  11.733   2.025  0.5214  0.8151 -0.3466
   49MOL0     C 6518   6.528  11.804   1.960 -0.9842  0.5028 -0.3332
   49MOL0     C 6519   6.476  11.719   1.844  0.3220 -0.0497 -0.2629
   49MOL0     C 6520   6.343  11.781   1.791 -0.5602  0.3008  0.7633
   49MOL0     C 6521   6.288  11.708   1.672 -0.5177  0.7498  0.6461
   49MOL0     C 6522   6.356  11.765   1.541 -0.6487 -0.0687 -0.2143
   49MOL0     C 6523   6.277  11.711   1.410  1.3882  0.0649 -0.2193
   49MOL0     C 6524   6.327  11.791   1.292 -0.1650 -0.5079 -0.7849
   49MOL0    Cl 6525   6.505  11.783   1.283  0.2231 -0.0247 -0.2997
   49MOL0     C 6526   6.937  11.847   2.039  0.4268  0.9006 -0.2093
   49MOL0     C 6527   7.065  11.842   2.096  0.0228  0.6852  0.4486
   49MOL0     O 6528   7.159  11.785   2.345  0.3065 -0.3057 -0.8091
   49MOL0     C 6529   7.516  11.770   2.310  0.8494 -0.0647 -0.2572
   49MOL0     C 6530   7.627  11.783   2.396  0.7200 -0.0027 -0.3291
   49MOL0     N 6531   8.100  11.331   2.744  0.4998 -0.6199 -0.1198
   49MOL0     N 6532   8.193  11.264   2.807 -0.5360 -0.8744 -0.2238
   49MOL0     C 6533   9.355  11.347   3.047 -0.0525 -0.8858 -0.1040
   49MOL0     C 6534   9.488  11.356   3.100  0.7161 -0.5437 -0.7112
   49MOL0     C 6535   9.837  11.354   3.392  0.7002 -0.3093  0.6680
   49MOL0     C 6536   9.892  11.289   3.505  0.2219  0.0892 -0.3071
   49MOL0     C 6537  10.025  11.308   3.544  0.9825  0.1872 -0.0659
   49MOL0     C 6538  10.102  11.397   3.470  0.4816  0.4355  0.2427
   49MOL0     O 6539  10.227  11.414   3.521 -0.1598  0.5230 -0.3722
   49MOL0     C 6540  10.333  11.346   3.452  0.8332 -0.4914 -0.1162
   49MOL0     C 6541  10.454  11.431   3.414 -0.3878 -0.0953 -0.2301
   49MOL0     C 6542  10.573  11.344   3.381  0.2023  0.6302  0.6875
   49MOL0     C 6543  10.653  11.294   3.509  0.3017 -0.7639 -0.4065
   49MOL0     C 6544  10.715  11.406   3.590  0.7398  0.0589 -0.4276
   49MOL0     C 6545  10.792  11.476   3.664  0.6930  0.3708  0.2859
   49MOL0     C 6546  10.057  11.464   3.355 -0.3313  0.1489  0.0499
   49MOL0     C 6547   9.919  11.443   3.317 -0.4857 -0.6102 -0.3578
   49MOL0     H 6548   9.419  11.454   3.412  0.5614  0.9646 -0.1380
   49MOL0     H 6549   9.184  11.422   3.325  0.8565 -1.4054  2.1659
   49MOL0     H 6550   9.149  11.471   2.922  2.2320 -1.0016  0.6993
   49MOL0     H 6551   9.132  11.306   2.894 -0.8195  0.1526 -2.0213
   49MOL0     H 6552   8.902  11.298   2.995  0.3691 -1.2539 -1.7193
   49MOL0     H 6553   8.887  11.475   2.970 -3.3875 -1.7544  0.1404
   49MOL0     H 6554   8.960  11.454   2.740 -0.0084  1.7484  2.5020
   49MOL0     H 6555   8.950  11.272   2.739  0.9446  0.9835  0.6046
   49MOL0     H 6556   8.735  11.476   2.809  1.7282  1.0538 -1.2240
   49MOL0     H 6557   8.750  11.404   2.648  1.6567  2.1070 -1.0655
   49MOL0     H 6558   8.709  11.168   2.760 -1.4528 -0.8776  0.6232
   49MOL0     H 6559   8.713  11.242   2.916 -1.8962 -2.4361  0.7578
   49MOL0     H 6560   8.507  11.320   2.724  2.0168 -1.0492 -0.8208
   49MOL0     H 6561   8.482  11.181   2.824  2.8851 -1.3915  0.6559
   49MOL0     H 6562   8.556  11.344   3.029 -0.7939 -2.5869  0.6142
   49MOL0     H 6563   8.493  11.462   2.914  1.4015  0.3408  0.1095
   49MOL0     H 6564   8.337  11.343   3.099 -2.7195 -2.3754  1.0385
   49MOL0     H 6565   8.355  11.203   3.000 -0.6659 -0.6910 -1.1606
   49MOL0     H 6566   8.152  11.543   2.987 -2.6918  1.4784 -2.3029
   49MOL0     H 6567   7.924  11.519   2.681 -0.1057  0.9345 -0.4916
   49MOL0     H 6568   7.913  11.566   2.854  1.2429 -3.4483  0.9144
   49MOL0     H 6569   8.080  11.667   2.632 -0.7055 -2.6753 -0.9751
   49MOL0     H 6570   8.114  11.711   2.808 -0.1311 -2.3274 -1.4327
   49MOL0     H 6571   7.975  11.880   2.730 -0.5448 -0.1165 -0.7433
   49MOL0     H 6572   7.868  11.786   2.828 -0.1684 -0.3087 -0.6582
   49MOL0     H 6573   7.789  11.664   2.609 -2.8177  0.1468 -3.4975
   49MOL0     H 6574   7.876  11.785   2.517 -1.8534  0.6270 -2.3141
   49MOL0     H 6575   7.472  11.943   2.655 -3.5496  1.3533 -1.6775
   49MOL0     H 6576   7.286  12.042   2.589  2.4601 -2.4551  2.0123
   49MOL0     H 6577   7.208  12.007   2.436  0.9642  2.2867  0.2386
   49MOL0     H 6578   7.184  11.896   2.574 -1.0639  1.4642  1.1969
   49MOL0     H 6579   7.169  11.525   2.000  0.6382  1.0476 -1.4510
   49MOL0     H 6580   6.933  11.531   1.906 -1.2321 -0.7502  1.2827
   49MOL0     H 6581   6.623  11.632   2.052 -0.1230  0.6297 -1.6934
   49MOL0     H 6582   6.685  11.805   2.101 -2.3997  1.8077  0.0293
   49MOL0     H 6583   6.458  11.819   2.043  0.8149  1.5504  1.0760
   49MOL0     H 6584   6.553  11.900   1.914 -3.3155  1.0747 -0.5423
   49MOL0     H 6585   6.456  11.618   1.882  0.8723  0.4841  1.5067
   49MOL0     H 6586   6.558  11.721   1.771 -0.3937  0.4593 -1.0790
   49MOL0     H 6587   6.264  11.791   1.866 -1.5521 -1.1404 -0.0303
   49MOL0     H 6588   6.369  11.884   1.763 -0.9381  0.3637  0.6365
   49MOL0     H 6589   6.184  11.741   1.665 -0.8239 -0.2353  0.4220
   49MOL0     H 6590   6.294  11.600   1.681 -1.0198  0.4971 -1.4582
   49MOL0     H 6591   6.362  11.874   1.552  0.6851 -0.1573  0.0346
   49MOL0     H 6592   6.461  11.736   1.536 -0.3862  1.0914 -2.1576
   49MOL0     H 6593   6.172  11.725   1.434  2.0710 -0.8905  4.1900
   49MOL0     H 6594   6.290  11.603   1.400  0.5181 -0.0958  0.3135
   49MOL0     H 6595   6.310  11.899   1.296 -1.4307 -0.6774 -1.2497
   49MOL0     H 6596   6.285  11.742   1.204 -2.5046 -0.4863  0.2505
   49MOL0     H 6597   6.875  11.936   2.031 -1.0433  0.0312  0.8955
   49MOL0     H 6598   7.109  11.929   2.142 -0.5875  2.5981 -2.3047
   49MOL0     H 6599   7.528  11.720   2.214  1.3521  0.5250 -0.5047
   49MOL0     H 6600   7.723  11.750   2.358 -0.9178 -4.1336 -1.3792
   49MOL0     H 6601   9.342  11.315   2.944  2.0448 -3.3224  0.2805
   49MOL0     H 6602   9.570  11.326   3.037  0.2899 -1.2635 -0.9335
   49MOL0     H 6603   9.829  11.224   3.564  1.9175  0.4499  2.0214
   49MOL0     H 6604  10.070  11.268   3.635  0.3231  1.8648  1.0302
   49MOL0     H 6605  10.357  11.263   3.520  4.5313  0.6052  0.1739
   49MOL0     H 6606  10.301  11.296   3.360 -1.1721  0.0858  0.2183
   49MOL0     H 6607  10.462  11.485   3.509  3.9388 -1.2702  0.2898
   49MOL0     H 6608  10.435  11.508   3.339  0.3998  1.7005  1.3218
   49MOL0     H 6609  10.640  11.393   3.310 -1.3777  0.6088 -0.8859
   49MOL0     H 6610  10.541  11.264   3.315  1.3958  0.3317  0.4423
   49MOL0     H 6611  10.737  11.232   3.476  3.2942  0.6034  3.6935
   49MOL0     H 6612  10.589  11.237   3.578  2.9383 -1.1017  1.9567
   49MOL0     H 6613  10.851  11.533   3.733  2.4265 -2.5270  1.3401
   49MOL0     H 6614  10.118  11.529   3.293 -2.0200 -0.4026 -2.3414
   49MOL0     H 6615   9.871  11.502   3.240 -1.9566  0.4259  1.2483
   50MOL0     O 6616   8.506  10.219   4.116 -0.2034  0.1475 -0.2155
   50MOL0     C 6617   8.485  10.110   4.169  0.3565  1.0218  0.3375
   50MOL0     O 6618   8.361  10.050   4.174  0.0635 -0.3080  0.1406
   50MOL0     C 6619   8.252  10.088   4.097 -0.5023 -0.9512 -0.5652
   50MOL0     C 6620   8.195   9.992   4.016  0.8774  0.6356 -0.7243
   50MOL0     C 6621   8.063  10.020   3.967 -1.0090 -0.8894 -0.5802
   50MOL0     C 6622   8.005  10.146   3.977  0.7781 -0.7542 -0.2531
   50MOL0     O 6623   7.882  10.160   3.918 -0.7610 -0.6480 -0.9708
   50MOL0     C 6624   7.779  10.212   3.991 -0.5037 -0.9990  0.2966
   50MOL0     C 6625   7.663  10.231   3.898 -0.4361 -0.2056 -0.0286
   50MOL0     C 6626   7.589  10.107   3.858  0.5209  0.2880  0.5182
   50MOL0     C 6627   7.473  10.137   3.770 -0.9761 -0.2862 -0.7001
   50MOL0     C 6628   7.364  10.226   3.839 -0.1971 -0.8362  0.5365
   50MOL0     C 6629   7.233  10.222   3.748 -0.8060  0.6978 -0.0858
   50MOL0     C 6630   7.104  10.257   3.831 -0.2777 -0.4043  0.3643
   50MOL0     C 6631   6.970  10.221   3.761  0.0308  0.5512  0.3219
   50MOL0     N 6632   6.861  10.260   3.855  0.1467  0.1574  0.1995
   50MOL0     C 6633   6.728  10.279   3.813  0.2487  0.0072 -0.5517
   50MOL0     C 6634   6.660  10.295   3.928  0.3327  0.3085  0.1716
   50MOL0     C 6635   6.517  10.349   3.925  1.4767 -0.5253  0.0089
   50MOL0     C 6636   6.404  10.253   3.981  0.2873  0.3184  0.0871
   50MOL0     C 6637   6.273  10.338   3.986  0.5200 -0.5884 -0.2946
   50MOL0     C 6638   6.169  10.247   4.050  0.9089  0.1250 -0.2832
   50MOL0     O 6639   6.033  10.289   4.003 -0.6578  0.6490 -0.5825
   50MOL0     C 6640   5.922  10.226   4.051  0.1582 -0.1567  0.2148
   50MOL0     C 6641   5.801  10.244   3.978 -0.3267 -0.0073 -0.5601
   50MOL0     C 6642   5.671  10.208   4.029 -0.3682 -0.2198 -0.1099
   50MOL0     C 6643   5.547  10.285   3.974 -0.3044 -0.1968 -0.7092
   50MOL0     C 6644   5.668  10.130   4.143  0.0659 -0.9128 -0.1208
   50MOL0     C 6645   5.541  10.092   4.208  0.3026  0.9668  1.3773
   50MOL0     O 6646   5.443  10.032   4.123 -0.2033 -0.3163 -0.5229
   50MOL0     C 6647   5.316  10.035   4.167 -0.3215 -0.1332  0.1261
   50MOL0     C 6648   5.257  10.156   4.210  0.1325  0.2680 -0.2613
   50MOL0     C 6649   5.117  10.155   4.253  0.0836 -0.1646 -0.2459
   50MOL0     C 6650   5.048  10.028   4.238  0.4616 -0.3348  0.2085
   50MOL0     O 6651   4.911  10.015   4.259 -0.7917 -0.1138  0.3796
   50MOL0     C 6652   4.834  10.124   4.221 -0.2710 -0.6237 -0.7125
   50MOL0     C 6653   4.690  10.092   4.193  0.3938 -0.5782  0.7173
   50MOL0     C 6654   4.603  10.219   4.163  0.2025 -0.8082 -0.5247
   50MOL0     C 6655   4.450  10.184   4.159  0.1758  0.4288  0.1384
   50MOL0     C 6656   4.359  10.306   4.189  0.2263  0.1672  0.0441
   50MOL0     C 6657   4.213  10.265   4.182 -0.2188  0.6032  0.7423
   50MOL0     C 6658   4.123  10.376   4.241 -0.2318  0.4512 -0.2189
   50MOL0     C 6659   3.978  10.354   4.195 -0.1026 -0.3002 -0.1867
   50MOL0    Cl 6660   3.911  10.177   4.218  0.2973  0.0140 -0.3838
   50MOL0     C 6661   5.115   9.918   4.183 -0.2571  0.0446 -0.1868
   50MOL0     C 6662   5.249   9.920   4.145 -0.4345 -1.2320 -0.0713
   50MOL0     O 6663   5.520  10.115   4.326 -0.1509 -0.0586 -0.0152
   50MOL0     C 6664   5.783  10.096   4.204 -0.3433  0.5046 -0.0958
   50MOL0     C 6665   5.906  10.145   4.165 -0.4233 -0.1899 -0.4829
   50MOL0     N 6666   6.740  10.282   4.038 -0.2852 -0.2278  0.1632
   50MOL0     N 6667   6.854  10.263   3.993  0.2594  0.5762  0.1258
   50MOL0     C 6668   8.072  10.252   4.046 -0.2102  0.0193 -0.0721
   50MOL0     C 6669   8.195  10.213   4.107  0.3947  0.7920 -0.5996
   50MOL0     C 6670   8.608  10.050   4.240  0.3971 -0.4123  0.9296
   50MOL0     C 6671   8.581   9.931   4.310 -0.0131 -0.0306 -0.2006
   50MOL0     C 6672   8.680   9.887   4.394  0.7706 -0.5876 -0.5941
   50MOL0     C 6673   8.807   9.946   4.396 -0.1877  0.2801 -0.1784
   50MOL0     O 6674   8.921   9.901   4.460  0.0343  0.2342 -0.1105
   50MOL0     C 6675   8.906   9.785   4.551  0.2324 -0.6818 -0.6016
   50MOL0     C 6676   9.016   9.796   4.655  0.1183  0.3265 -0.0923
   50MOL0     C 6677   9.155   9.772   4.591 -0.6242  0.5166 -0.6058
   50MOL0     C 6678   9.264   9.813   4.688 -0.0281  0.0098  0.2938
   50MOL0     C 6679   9.407   9.806   4.639 -0.2944 -0.0668 -0.2655
   50MOL0     C 6680   9.518   9.805   4.594 -0.0404 -0.1461  0.1018
   50MOL0     C 6681   8.829  10.069   4.322 -0.1342  0.1563 -0.4731
   50MOL0     C 6682   8.732  10.125   4.257 -0.2455  0.4405  0.0209
   50MOL0     H 6683   8.238   9.892   4.010  1.9327  1.1527 -3.9348
   50MOL0     H 6684   8.006   9.940   3.921  0.4471 -2.3939  0.1192
   50MOL0     H 6685   7.743  10.140   4.065 -0.8496 -1.9698 -0.7709
   50MOL0     H 6686   7.810  10.308   4.033 -0.5660  0.5623 -2.8624
   50MOL0     H 6687   7.590  10.294   3.949 -0.2700 -2.8113  3.8645
   50MOL0     H 6688   7.706  10.286   3.814  0.3374  2.1704  1.7869
   50MOL0     H 6689   7.661  10.048   3.801 -0.9065 -1.8535  0.8328
   50MOL0     H 6690   7.551  10.052   3.944  0.4995 -2.8970 -1.3942
   50MOL0     H 6691   7.518  10.173   3.677  1.4314 -1.9482 -0.2474
   50MOL0     H 6692   7.429  10.042   3.737  0.0502 -1.2158  0.5413
   50MOL0     H 6693   7.341  10.186   3.938 -0.8255 -1.1138  0.2842
   50MOL0     H 6694   7.404  10.326   3.854  0.3171 -0.7946 -0.8630
   50MOL0     H 6695   7.246  10.290   3.664 -0.5677 -0.8053 -1.3186
   50MOL0     H 6696   7.209  10.125   3.704 -1.3483  1.3323 -1.2349
   50MOL0     H 6697   7.099  10.199   3.924 -0.7794  1.5644  1.6228
   50MOL0     H 6698   7.095  10.361   3.865 -5.1738 -0.9636  1.5316
   50MOL0     H 6699   6.955  10.114   3.741 -0.9560 -0.1224  4.0265
   50MOL0     H 6700   6.962  10.281   3.670  1.2761  0.3809  0.0711
   50MOL0     H 6701   6.686  10.278   3.713 -1.0334  2.1191 -0.0909
   50MOL0     H 6702   6.527  10.447   3.972  2.9430 -1.3931  1.6086
   50MOL0     H 6703   6.489  10.381   3.824  1.2855  2.2780  0.8819
   50MOL0     H 6704   6.429  10.229   4.085  1.7052  0.7171 -0.1392
   50MOL0     H 6705   6.383  10.167   3.917 -2.5280  2.9643 -2.8625
   50MOL0     H 6706   6.251  10.365   3.883  2.7012 -2.2399 -1.2688
   50MOL0     H 6707   6.290  10.436   4.032 -2.3545 -0.9268  1.7326
   50MOL0     H 6708   6.169  10.254   4.159  2.4681 -1.5412 -0.1442
   50MOL0     H 6709   6.178  10.139   4.033 -1.4578 -0.1884  0.0748
   50MOL0     H 6710   5.810  10.309   3.892  1.0757  1.4249  0.6181
   50MOL0     H 6711   5.512  10.358   4.048  2.7298 -0.0881  0.7971
   50MOL0     H 6712   5.563  10.342   3.882 -1.9824 -1.4718 -1.8423
   50MOL0     H 6713   5.462  10.219   3.959 -0.9213  0.4305 -0.0814
   50MOL0     H 6714   5.309  10.252   4.205 -0.1153  0.5185  1.3587
   50MOL0     H 6715   5.068  10.250   4.274  0.4165 -0.0246 -0.0850
   50MOL0     H 6716   4.847  10.202   4.297  0.0101 -1.2703 -0.0761
   50MOL0     H 6717   4.877  10.174   4.134  1.8804  0.9147  1.1087
   50MOL0     H 6718   4.688  10.030   4.103  0.3049 -0.9256  0.9590
   50MOL0     H 6719   4.634  10.040   4.271 -0.2434 -2.8080 -1.1234
   50MOL0     H 6720   4.633  10.266   4.069 -1.4590  1.0155 -0.2000
   50MOL0     H 6721   4.610  10.286   4.249 -3.5471 -0.8701  0.0115
   50MOL0     H 6722   4.429  10.144   4.059  0.9292  4.0810 -1.6480
   50MOL0     H 6723   4.427  10.108   4.234  1.0689  0.8318  0.8476
   50MOL0     H 6724   4.384  10.380   4.112 -3.8280  1.3600 -0.3592
   50MOL0     H 6725   4.384  10.334   4.292 -0.6429  1.2696 -0.0324
   50MOL0     H 6726   4.197  10.253   4.074 -0.8216  0.0905  0.8849
   50MOL0     H 6727   4.204  10.169   4.232  1.0264 -0.1015 -0.3027
   50MOL0     H 6728   4.150  10.479   4.214 -4.0297  2.2439  2.0590
   50MOL0     H 6729   4.128  10.360   4.349 -0.5885 -0.2119 -0.3009
   50MOL0     H 6730   3.971  10.383   4.090 -2.7560 -1.5648 -0.4395
   50MOL0     H 6731   3.913  10.425   4.247 -0.6995 -1.6097  0.9262
   50MOL0     H 6732   5.050   9.832   4.172 -0.7207  0.4508 -0.7201
   50MOL0     H 6733   5.316   9.849   4.097  1.7019 -0.0235  0.9531
   50MOL0     H 6734   5.782  10.029   4.290  0.6322  0.3864 -0.1650
   50MOL0     H 6735   5.990  10.114   4.226 -2.1541 -0.9323  1.6490
   50MOL0     H 6736   8.034  10.351   4.071  0.9673 -0.4215  4.2904
   50MOL0     H 6737   8.240  10.288   4.171  3.2862 -1.8823  0.7887
   50MOL0     H 6738   8.485   9.882   4.300 -1.5919  3.1349 -1.9950
   50MOL0     H 6739   8.654   9.793   4.442  1.0140 -0.3226  0.0554
   50MOL0     H 6740   8.804   9.782   4.591 -0.8636 -1.2074 -3.2428
   50MOL0     H 6741   8.923   9.689   4.501  2.5653 -0.9245  0.5293
   50MOL0     H 6742   9.005   9.726   4.739  0.6270  2.5152  1.8973
   50MOL0     H 6743   9.005   9.893   4.705 -1.7110 -0.5240  1.3289
   50MOL0     H 6744   9.168   9.819   4.492  1.1424  1.4003 -0.0110
   50MOL0     H 6745   9.174   9.668   4.565  1.3115  0.4568  0.8716
   50MOL0     H 6746   9.273   9.752   4.779  2.0052 -1.1761 -0.6377
   50MOL0     H 6747   9.236   9.915   4.716 -2.8695 -0.6626  0.2226
   50MOL0     H 6748   9.608   9.798   4.538 -1.8285  0.6158 -3.0886
   50MOL0     H 6749   8.924  10.121   4.318  0.0799  0.1432  2.4389
   50MOL0     H 6750   8.748  10.220   4.208  1.4719  0.4865  0.5976
   51MOL0     O 6751   2.094   4.590   7.046 -1.5078  0.6051 -0.0128
   51MOL0     C 6752   2.164   4.495   6.999  0.1985  0.4015  1.3669
   51MOL0     O 6753   2.128   4.364   7.002  0.9161  0.3318  0.1484
   51MOL0     C 6754   1.999   4.334   7.053 -0.7202  0.1680  0.6753
   51MOL0     C 6755   1.990   4.233   7.145  0.5011 -0.4780 -0.8002
   51MOL0     C 6756   1.871   4.215   7.208  0.4202  0.4269  0.3006
   51MOL0     C 6757   1.756   4.274   7.159  0.0870 -0.0507  0.6981
   51MOL0     O 6758   1.642   4.245   7.225 -0.4461 -0.8921 -0.3513
   51MOL0     C 6759   1.544   4.349   7.238 -0.2263 -0.2646  0.2591
   51MOL0     C 6760   1.455   4.337   7.363  0.0166  0.2654 -0.6674
   51MOL0     C 6761   1.413   4.473   7.423 -0.1728 -0.9433 -0.2601
   51MOL0     C 6762   1.313   4.558   7.344  1.1220  0.6506 -0.1310
   51MOL0     C 6763   1.275   4.684   7.413  0.8924 -0.5961  0.1549
   51MOL0     C 6764   1.168   4.784   7.337  0.2664  0.0689 -0.7632
   51MOL0     C 6765   1.033   4.717   7.299  0.2916 -0.5607 -1.3043
   51MOL0     C 6766   0.956   4.662   7.417 -1.0691 -0.4996  0.1573
   51MOL0     N 6767   0.819   4.624   7.377  0.9586  0.2446  0.6918
   51MOL0     C 6768   0.771   4.497   7.359  0.0066  0.0739  0.6846
   51MOL0     C 6769   0.632   4.511   7.348 -0.0105 -0.7731 -0.1365
   51MOL0     C 6770   0.527   4.408   7.332  0.4310 -0.5247  0.1123
   51MOL0     C 6771   0.394   4.473   7.308 -0.2281 -0.4804 -0.0722
   51MOL0     C 6772   0.297   4.363   7.283  0.3739  0.4344 -0.4640
   51MOL0     C 6773   0.161   4.413   7.324  1.0475  0.0556 -0.5244
   51MOL0     O 6774   0.076   4.311   7.274 -0.0812 -0.3328  0.8674
   51MOL0     C 6775  -0.053   4.309   7.302 -0.5778  0.0037  0.4069
   51MOL0     C 6776  -0.109   4.391   7.403  0.2750 -0.1198  0.4556
   51MOL0     C 6777  -0.246   4.377   7.433  0.5025 -0.9633  0.1374
   51MOL0     C 6778  -0.296   4.470   7.544 -0.0394 -0.1318  0.3479
   51MOL0     C 6779  -0.326   4.279   7.370 -0.2355 -0.9087 -0.5819
   51MOL0     C 6780  -0.459   4.232   7.413 -0.3921 -0.5727 -0.0569
   51MOL0     O 6781  -0.530   4.178   7.316  0.1246 -0.2947 -0.6041
   51MOL0     C 6782  -0.666   4.150   7.334  0.4097 -0.0388 -0.3932
   51MOL0     C 6783  -0.718   4.069   7.436 -0.5016  1.2881 -0.6358
   51MOL0     C 6784  -0.853   4.039   7.445  0.1304 -0.1750  0.6742
   51MOL0     C 6785  -0.936   4.086   7.348 -0.1175  0.3589  0.7687
   51MOL0     O 6786  -1.062   4.052   7.359 -1.0555 -1.0036 -0.2567
   51MOL0     C 6787  -1.146   4.075   7.246  0.4625  0.2648  0.4794
   51MOL0     C 6788  -1.279   4.004   7.262 -0.2140  1.4095 -0.2734
   51MOL0     C 6789  -1.276   3.852   7.217 -0.2083  0.9315  0.5022
   51MOL0     C 6790  -1.224   3.753   7.321  0.2345 -0.1875  0.1397
   51MOL0     C 6791  -1.274   3.605   7.299  0.4856  0.4609 -0.6496
   51MOL0     C 6792  -1.420   3.591   7.342 -0.5751  0.1394  0.3960
   51MOL0     C 6793  -1.479   3.449   7.308  0.0362  0.7673  0.1483
   51MOL0     C 6794  -1.622   3.451   7.323  0.4380  0.9010 -0.6622
   51MOL0    Cl 6795  -1.697   3.295   7.277 -0.2418 -0.6822  0.1286
   51MOL0     C 6796  -0.889   4.168   7.246 -0.5372  1.2461 -0.9488
   51MOL0     C 6797  -0.752   4.194   7.229  0.5201  0.6467 -0.5977
   51MOL0     O 6798  -0.487   4.262   7.527  0.5419  0.0821  0.3419
   51MOL0     C 6799  -0.266   4.216   7.259 -0.5737 -0.3002 -0.9192
   51MOL0     C 6800  -0.133   4.232   7.224  0.1816  0.1592 -0.1614
   51MOL0     N 6801   0.607   4.645   7.371  1.1010  0.1590 -0.4575
   51MOL0     N 6802   0.718   4.713   7.388  0.6100 -0.5057 -0.7488
   51MOL0     C 6803   1.756   4.366   7.049 -0.0644 -0.3572 -0.0238
   51MOL0     C 6804   1.884   4.391   6.994 -0.3229 -0.0703  0.2846
   51MOL0     C 6805   2.302   4.533   6.961 -0.3738 -0.6682  0.6811
   51MOL0     C 6806   2.367   4.451   6.873  0.2379 -0.4533  0.4635
   51MOL0     C 6807   2.492   4.495   6.832 -0.3632  0.1128  0.1587
   51MOL0     C 6808   2.554   4.609   6.871  0.0447 -0.6816 -0.8733
   51MOL0     O 6809   2.685   4.622   6.832  0.0498 -0.0103 -0.4487
   51MOL0     C 6810   2.776   4.703   6.914  0.2767 -0.1478  0.4196
   51MOL0     C 6811   2.918   4.649   6.915  0.7482 -0.3262 -0.0412
   51MOL0     C 6812   3.007   4.672   6.781  1.2578 -0.2792 -0.3231
   51MOL0     C 6813   2.945   4.576   6.677 -0.0270 -0.2523 -1.2844
   51MOL0     C 6814   3.040   4.558   6.568 -0.1536 -0.1015  0.2578
   51MOL0     C 6815   3.112   4.571   6.470  0.1414  0.8494  0.5173
   51MOL0     C 6816   2.483   4.694   6.955 -0.0684  0.4635  0.1155
   51MOL0     C 6817   2.357   4.659   6.997  0.0647  0.1664 -0.0197
   51MOL0     H 6818   2.083   4.192   7.183  0.7346 -0.8570 -1.7418
   51MOL0     H 6819   1.858   4.151   7.295 -2.4344  1.2812  0.6257
   51MOL0     H 6820   1.591   4.448   7.238 -0.4800 -0.1415 -0.5671
   51MOL0     H 6821   1.470   4.330   7.161 -2.1167 -2.2217  2.4143
   51MOL0     H 6822   1.368   4.288   7.318 -1.2131  1.8434 -0.1109
   51MOL0     H 6823   1.505   4.269   7.432  0.2144  2.0948  1.0731
   51MOL0     H 6824   1.376   4.454   7.524  1.7338 -1.0319  0.4671
   51MOL0     H 6825   1.503   4.533   7.444  0.1560 -1.7154  0.5849
   51MOL0     H 6826   1.344   4.583   7.242 -3.9330  0.7365 -1.8973
   51MOL0     H 6827   1.222   4.498   7.342  0.6921  1.2452  0.7298
   51MOL0     H 6828   1.249   4.667   7.518  3.1781 -0.1176  0.8601
   51MOL0     H 6829   1.360   4.754   7.413 -1.1796  2.2038 -2.7434
   51MOL0     H 6830   1.164   4.871   7.404  0.7165  0.5010 -1.2903
   51MOL0     H 6831   1.217   4.819   7.246  0.7582 -0.5923 -0.7599
   51MOL0     H 6832   0.972   4.796   7.253 -1.7353  0.7463  3.1070
   51MOL0     H 6833   1.048   4.631   7.233 -2.0412 -1.8264 -0.3088
   51MOL0     H 6834   0.953   4.742   7.492 -1.3348  0.3618 -0.7537
   51MOL0     H 6835   1.001   4.573   7.462  1.7084  0.3770 -0.7182
   51MOL0     H 6836   0.827   4.404   7.371 -2.7287 -1.4170  3.1750
   51MOL0     H 6837   0.561   4.343   7.250 -0.7081  0.5146 -1.2527
   51MOL0     H 6838   0.525   4.365   7.432 -2.0022  2.9897  1.7537
   51MOL0     H 6839   0.401   4.538   7.220  1.2984 -3.6280 -2.4380
   51MOL0     H 6840   0.371   4.525   7.402  2.8929 -2.2268  1.8198
   51MOL0     H 6841   0.314   4.275   7.346  2.1450 -0.5685 -2.2156
   51MOL0     H 6842   0.295   4.338   7.176  0.5976  0.4859 -0.4800
   51MOL0     H 6843   0.143   4.509   7.275  0.1604 -0.2313 -0.7801
   51MOL0     H 6844   0.152   4.416   7.433 -3.3851  1.8658 -0.7011
   51MOL0     H 6845  -0.054   4.477   7.440 -0.7050  1.3081 -1.2057
   51MOL0     H 6846  -0.294   4.422   7.642 -1.7316  0.5351  0.7593
   51MOL0     H 6847  -0.245   4.566   7.555  0.1241 -0.1833  0.0545
   51MOL0     H 6848  -0.402   4.495   7.530 -0.7051 -0.5329  3.7855
   51MOL0     H 6849  -0.663   4.021   7.516 -3.5945 -0.9072  0.3779
   51MOL0     H 6850  -0.901   3.977   7.521 -0.1616  0.4586  1.0147
   51MOL0     H 6851  -1.169   4.182   7.240  0.2646  0.1556 -1.1624
   51MOL0     H 6852  -1.106   4.034   7.152 -2.7792 -1.4439 -0.2804
   51MOL0     H 6853  -1.304   4.007   7.369 -2.3667  2.2202 -0.7502
   51MOL0     H 6854  -1.358   4.057   7.208 -1.5489  0.5732  0.7882
   51MOL0     H 6855  -1.216   3.837   7.127 -0.0947  0.0512  0.7176
   51MOL0     H 6856  -1.379   3.831   7.184  0.0105 -0.7010  0.7928
   51MOL0     H 6857  -1.115   3.758   7.327  0.2673  0.8938 -0.9186
   51MOL0     H 6858  -1.257   3.787   7.420  0.5872  1.9170 -0.4244
   51MOL0     H 6859  -1.214   3.536   7.358  2.7260  2.8915  0.1285
   51MOL0     H 6860  -1.272   3.575   7.194  1.6167  1.1412 -0.8399
   51MOL0     H 6861  -1.440   3.620   7.446 -6.2470 -0.9189 -0.0952
   51MOL0     H 6862  -1.469   3.663   7.276  0.7387  0.7121  0.0158
   51MOL0     H 6863  -1.444   3.366   7.371 -0.1522 -2.0987 -3.2176
   51MOL0     H 6864  -1.441   3.406   7.215  2.5250  1.4757  0.7520
   51MOL0     H 6865  -1.664   3.534   7.265  1.3364  0.8831 -1.3559
   51MOL0     H 6866  -1.645   3.475   7.427 -0.8941  0.7900 -0.9195
   51MOL0     H 6867  -0.952   4.207   7.167 -3.0045  1.1360  0.8418
   51MOL0     H 6868  -0.722   4.251   7.142  0.1826 -0.2075 -1.2940
   51MOL0     H 6869  -0.309   4.132   7.205 -0.7217  0.2588 -1.6769
   51MOL0     H 6870  -0.080   4.179   7.147 -0.8139 -1.3559  0.1466
   51MOL0     H 6871   1.667   4.418   7.015 -0.1146 -1.3064 -1.4143
   51MOL0     H 6872   1.891   4.472   6.922  1.2117 -0.0513  0.4394
   51MOL0     H 6873   2.319   4.358   6.842 -0.9337 -0.2132  1.4918
   51MOL0     H 6874   2.545   4.420   6.774  2.2692  1.2421  0.9764
   51MOL0     H 6875   2.783   4.799   6.862  0.5841 -2.0539 -3.3819
   51MOL0     H 6876   2.743   4.711   7.018 -0.4089 -1.3151  0.3084
   51MOL0     H 6877   2.911   4.546   6.951  0.3670 -0.6580 -1.0323
   51MOL0     H 6878   2.977   4.696   6.994  0.0369 -2.5475  1.9053
   51MOL0     H 6879   3.104   4.638   6.819 -0.2017 -0.1580  4.1286
   51MOL0     H 6880   3.002   4.777   6.751 -2.8344 -0.2637 -0.1720
   51MOL0     H 6881   2.845   4.603   6.643 -0.6733 -1.1518 -0.1863
   51MOL0     H 6882   2.931   4.478   6.724 -0.0121  1.8313  3.6151
   51MOL0     H 6883   3.176   4.592   6.386  0.9920  1.2180  1.2338
   51MOL0     H 6884   2.528   4.784   6.995  1.3340 -0.1711  0.0141
   51MOL0     H 6885   2.306   4.719   7.071  1.0813  0.0834  0.7670
   52MOL0     O 6886   1.806   2.455   2.631 -0.0494 -0.4745  0.0275
   52MOL0     C 6887   1.855   2.440   2.740  0.3079  0.1622 -1.3492
   52MOL0     O 6888   1.786   2.408   2.856 -0.0738 -0.3579  0.0757
   52MOL0     C 6889   1.656   2.366   2.851  0.1955 -0.3697  0.0958
   52MOL0     C 6890   1.563   2.401   2.948 -0.2924  0.0795  0.4082
   52MOL0     C 6891   1.438   2.337   2.952 -0.6271 -0.2596  0.3962
   52MOL0     C 6892   1.411   2.238   2.859 -0.2169  0.2598  0.5715
   52MOL0     O 6893   1.289   2.180   2.855 -0.1206  0.7271  0.0720
   52MOL0     C 6894   1.181   2.241   2.934  0.0537  0.2537 -0.9538
   52MOL0     C 6895   1.067   2.134   2.939 -0.9532  1.1224  0.4364
   52MOL0     C 6896   1.006   2.105   2.806  1.1021 -0.7144 -0.7194
   52MOL0     C 6897   1.062   1.999   2.718  0.6647  0.0749  1.1702
   52MOL0     C 6898   0.969   1.950   2.609  0.1121  0.0743  0.5435
   52MOL0     C 6899   1.025   1.837   2.540 -0.3277 -0.3986 -0.6890
   52MOL0     C 6900   0.927   1.791   2.432 -0.1067 -0.5970  0.1556
   52MOL0     C 6901   0.813   1.695   2.473  0.8803  0.1254 -0.2169
   52MOL0     N 6902   0.683   1.765   2.496 -0.5757 -0.7979 -0.2522
   52MOL0     C 6903   0.630   1.807   2.612  0.6321 -0.5349 -0.3550
   52MOL0     C 6904   0.517   1.875   2.582  0.4883  0.0156 -0.1021
   52MOL0     C 6905   0.419   1.944   2.678 -0.1895  0.5683  0.6445
   52MOL0     C 6906   0.453   2.078   2.694 -0.5366 -0.6336  0.3992
   52MOL0     C 6907   0.378   2.150   2.812 -0.2264 -0.2034 -0.1404
   52MOL0     C 6908   0.231   2.168   2.782  1.6368 -0.6472  0.6476
   52MOL0     O 6909   0.212   2.198   2.645  0.5789  0.2306 -0.3244
   52MOL0     C 6910   0.244   2.324   2.601  0.1539 -0.2169  0.1688
   52MOL0     C 6911   0.315   2.332   2.478 -0.3065 -0.4371  0.9182
   52MOL0     C 6912   0.328   2.467   2.429 -0.0070  0.1043 -0.1057
   52MOL0     C 6913   0.402   2.465   2.293  0.9082 -0.6478  0.0355
   52MOL0     C 6914   0.283   2.589   2.492 -0.3553 -0.4865 -0.8765
   52MOL0     C 6915   0.330   2.733   2.450  0.5116  0.4512  0.1054
   52MOL0     O 6916   0.436   2.754   2.364  0.3095  0.1522 -0.2275
   52MOL0     C 6917   0.518   2.860   2.386  0.1512 -1.0864  0.3197
   52MOL0     C 6918   0.651   2.827   2.404 -0.4084  0.8261 -0.3406
   52MOL0     C 6919   0.739   2.917   2.462  0.6025 -0.1407 -0.5592
   52MOL0     C 6920   0.702   3.049   2.480  0.7073 -0.3947 -0.2549
   52MOL0     O 6921   0.784   3.125   2.549 -0.4954  0.0738  0.3342
   52MOL0     C 6922   0.824   3.242   2.476 -0.4481 -0.0324  0.2523
   52MOL0     C 6923   0.927   3.318   2.552 -0.4476  0.5072  0.5121
   52MOL0     C 6924   1.022   3.234   2.651  0.5492 -0.1134  0.1492
   52MOL0     C 6925   1.102   3.318   2.751  0.0577 -0.3301  0.2340
   52MOL0     C 6926   1.186   3.241   2.840  0.9746  0.7751 -0.3042
   52MOL0     C 6927   1.219   3.310   2.970 -0.0441  0.0297 -0.3147
   52MOL0     C 6928   1.312   3.423   2.957  0.0640  0.3669  0.4931
   52MOL0     C 6929   1.443   3.370   2.910 -0.2050 -0.8927 -0.4270
   52MOL0    Cl 6930   1.533   3.301   3.042  0.1395  0.5025 -0.1585
   52MOL0     C 6931   0.572   3.087   2.458  0.9982 -0.5183 -0.2159
   52MOL0     C 6932   0.481   2.995   2.409  0.3408 -0.0707  0.2761
   52MOL0     O 6933   0.268   2.821   2.505 -0.1943 -0.4633 -1.0079
   52MOL0     C 6934   0.213   2.569   2.611  0.4570 -0.5169  0.0824
   52MOL0     C 6935   0.188   2.443   2.663 -0.8176 -0.4541  0.9977
   52MOL0     N 6936   0.502   1.857   2.441 -0.6996 -0.2775  1.2151
   52MOL0     N 6937   0.602   1.786   2.395 -0.4913 -0.4515 -0.7282
   52MOL0     C 6938   1.501   2.208   2.763  0.3251 -0.6153 -0.4354
   52MOL0     C 6939   1.622   2.266   2.768  0.1694 -0.6296  0.2944
   52MOL0     C 6940   2.004   2.462   2.768  0.9315 -0.4438  0.7796
   52MOL0     C 6941   2.067   2.389   2.871  0.6815 -0.5976  0.1212
   52MOL0     C 6942   2.197   2.418   2.909 -0.2458 -0.3963  0.0983
   52MOL0     C 6943   2.272   2.516   2.842 -0.3138  0.5745 -0.1430
   52MOL0     O 6944   2.402   2.545   2.864  0.2939 -0.3311  0.2462
   52MOL0     C 6945   2.445   2.536   2.997  0.8948 -1.1639  0.6274
   52MOL0     C 6946   2.592   2.579   2.996  0.1858 -0.1531 -0.2898
   52MOL0     C 6947   2.603   2.729   2.993 -0.1019  0.0008  0.2532
   52MOL0     C 6948   2.612   2.786   2.847  1.0755 -0.1509 -0.2978
   52MOL0     C 6949   2.739   2.767   2.778 -0.4120  0.2277  1.0967
   52MOL0     C 6950   2.850   2.798   2.739  0.1350  0.6398  0.2966
   52MOL0     C 6951   2.213   2.578   2.728 -0.7886 -0.7099  0.3279
   52MOL0     C 6952   2.078   2.552   2.697 -0.0777 -0.0545  0.8143
   52MOL0     H 6953   1.592   2.475   3.022 -0.1384 -0.4485  0.8818
   52MOL0     H 6954   1.371   2.372   3.029  1.5185  1.2101  1.7062
   52MOL0     H 6955   1.212   2.263   3.036 -0.5179  0.2376 -0.7732
   52MOL0     H 6956   1.135   2.323   2.878  0.7384  0.7304 -0.8158
   52MOL0     H 6957   1.099   2.049   2.999 -0.7377  2.0081  1.6123
   52MOL0     H 6958   0.983   2.170   2.998 -0.3892  4.0112 -0.3585
   52MOL0     H 6959   0.899   2.089   2.824 -0.1218  4.0487 -2.0897
   52MOL0     H 6960   1.006   2.201   2.753 -1.9413  0.0957  0.5009
   52MOL0     H 6961   1.157   2.022   2.668  0.0646 -0.7380 -0.4358
   52MOL0     H 6962   1.073   1.912   2.784 -0.8401 -1.3218 -0.2873
   52MOL0     H 6963   0.872   1.928   2.655 -0.9669  0.5109 -1.4381
   52MOL0     H 6964   0.955   2.027   2.533 -1.2650 -1.1355 -0.5022
   52MOL0     H 6965   1.117   1.861   2.487  0.4981 -0.4911  0.6734
   52MOL0     H 6966   1.050   1.750   2.602  0.7381 -1.0012 -1.9190
   52MOL0     H 6967   0.881   1.873   2.376 -0.8383 -0.9482  0.2349
   52MOL0     H 6968   0.987   1.741   2.356  1.4053  3.5542 -1.6988
   52MOL0     H 6969   0.849   1.641   2.561 -1.0404 -3.8294 -1.6292
   52MOL0     H 6970   0.791   1.616   2.401 -2.6359  2.6421 -2.2603
   52MOL0     H 6971   0.677   1.811   2.710 -3.5330 -0.3001  1.8503
   52MOL0     H 6972   0.317   1.946   2.639 -0.1728  3.2692  0.5254
   52MOL0     H 6973   0.419   1.893   2.774  0.0340  0.2937  0.4995
   52MOL0     H 6974   0.461   2.122   2.594  1.1586 -1.2435  0.2329
   52MOL0     H 6975   0.559   2.074   2.723 -0.9243 -1.7767  1.7571
   52MOL0     H 6976   0.425   2.248   2.826  2.5128 -1.3605 -0.4952
   52MOL0     H 6977   0.399   2.090   2.902  1.3614 -2.1407 -1.6910
   52MOL0     H 6978   0.188   2.243   2.850 -0.7225  3.2300 -4.4436
   52MOL0     H 6979   0.177   2.074   2.792  1.4673 -0.3987  2.5732
   52MOL0     H 6980   0.364   2.244   2.438 -0.4583 -0.0633 -0.1280
   52MOL0     H 6981   0.511   2.467   2.298  0.9720  1.3270 -1.0842
   52MOL0     H 6982   0.364   2.382   2.232 -3.5882 -0.5102  2.1823
   52MOL0     H 6983   0.372   2.557   2.242 -0.4055 -1.7634 -1.2874
   52MOL0     H 6984   0.686   2.727   2.381 -0.8792  0.9353 -1.5813
   52MOL0     H 6985   0.846   2.897   2.467  0.9944  1.5243 -1.5397
   52MOL0     H 6986   0.861   3.216   2.376 -1.7265 -0.4004 -0.1435
   52MOL0     H 6987   0.733   3.298   2.451 -1.3279 -3.1490 -5.0997
   52MOL0     H 6988   0.989   3.373   2.481 -1.2183  1.4588  0.5552
   52MOL0     H 6989   0.876   3.391   2.616 -0.5266  0.3902  0.5840
   52MOL0     H 6990   1.098   3.183   2.592  0.9638  0.5523  0.0897
   52MOL0     H 6991   0.961   3.163   2.708 -0.3853  1.9982  1.9395
   52MOL0     H 6992   1.171   3.383   2.695 -0.8443  1.4047  1.0461
   52MOL0     H 6993   1.031   3.377   2.810  0.8643  1.4407 -0.4733
   52MOL0     H 6994   1.276   3.206   2.788 -0.9000 -1.9639 -1.9321
   52MOL0     H 6995   1.135   3.152   2.878  3.5323  0.1636  2.0833
   52MOL0     H 6996   1.136   3.358   3.023  0.7291  0.7761  0.2536
   52MOL0     H 6997   1.253   3.232   3.038 -3.0226 -1.8561 -0.8084
   52MOL0     H 6998   1.336   3.460   3.057 -1.2430 -0.9877  1.3691
   52MOL0     H 6999   1.270   3.493   2.884  3.5455  3.1808  0.9333
   52MOL0     H 7000   1.499   3.457   2.874 -0.0882 -0.0881  1.5706
   52MOL0     H 7001   1.438   3.304   2.823 -2.6489  0.9608 -1.8258
   52MOL0     H 7002   0.529   3.185   2.476  0.1981 -1.2601  2.3010
   52MOL0     H 7003   0.378   3.013   2.380 -0.2032  0.2236  2.2449
   52MOL0     H 7004   0.181   2.656   2.667 -1.6653 -1.3976  0.3370
   52MOL0     H 7005   0.128   2.431   2.753  0.2583 -0.3915  1.7429
   52MOL0     H 7006   1.467   2.130   2.696  1.1052 -0.3917 -1.1158
   52MOL0     H 7007   1.697   2.233   2.697  1.7325  1.9867  0.5665
   52MOL0     H 7008   2.008   2.319   2.930  0.8272  0.0052  1.0062
   52MOL0     H 7009   2.236   2.369   2.998  0.1121  0.0705  0.2028
   52MOL0     H 7010   2.385   2.605   3.057  0.6441 -1.5522  0.8216
   52MOL0     H 7011   2.440   2.431   3.024  2.1077 -1.2159  0.7124
   52MOL0     H 7012   2.641   2.532   2.910  3.1794  0.6240  0.8632
   52MOL0     H 7013   2.637   2.540   3.088 -0.2796 -2.6122 -1.0328
   52MOL0     H 7014   2.687   2.760   3.056 -0.7353 -1.8533  2.1276
   52MOL0     H 7015   2.517   2.783   3.033 -0.1081  2.1416 -2.3934
   52MOL0     H 7016   2.594   2.894   2.849 -0.1933 -0.3484 -0.0747
   52MOL0     H 7017   2.532   2.751   2.781 -0.0782 -1.2333  1.5775
   52MOL0     H 7018   2.943   2.839   2.704  0.5070 -1.6444 -1.6127
   52MOL0     H 7019   2.262   2.660   2.677 -2.0772  0.3005  0.6574
   52MOL0     H 7020   2.025   2.599   2.616 -0.4841  0.4573  1.3682
   53MOL0     O 7021   6.913  10.894   4.491  0.3262 -0.1890  0.5496
   53MOL0     C 7022   6.943  11.003   4.542  0.1121  0.3337 -0.7692
   53MOL0     O 7023   6.876  11.070   4.646 -0.0526  0.1611 -0.3574
   53MOL0     C 7024   6.753  11.019   4.680 -0.0176  0.1839  0.3513
   53MOL0     C 7025   6.662  10.965   4.593 -0.1168 -0.5284 -0.0705
   53MOL0     C 7026   6.532  10.925   4.624  0.4153 -0.2522 -0.6518
   53MOL0     C 7027   6.490  10.932   4.759 -0.1841 -0.6842  0.1481
   53MOL0     O 7028   6.363  10.898   4.797  0.2377 -0.7335  0.2904
   53MOL0     C 7029   6.254  10.853   4.709 -0.4675 -0.3011 -0.1385
   53MOL0     C 7030   6.134  10.934   4.752  0.1271 -0.7191 -0.5830
   53MOL0     C 7031   5.998  10.869   4.716 -0.3498  0.3927 -1.3234
   53MOL0     C 7032   5.883  10.943   4.765  0.8943 -0.7642  0.2854
   53MOL0     C 7033   5.751  10.883   4.705  0.1131 -0.1006  0.0386
   53MOL0     C 7034   5.722  10.912   4.557 -0.6279 -0.0200  1.3038
   53MOL0     C 7035   5.591  10.884   4.519 -0.7200  0.1386  0.0777
   53MOL0     C 7036   5.550  10.968   4.399  0.3425 -0.4815 -0.9952
   53MOL0     N 7037   5.430  10.911   4.333 -1.1683 -0.5157  0.2782
   53MOL0     C 7038   5.436  10.797   4.249  0.2162  0.7668  0.3139
   53MOL0     C 7039   5.322  10.800   4.177  1.2355  0.0951 -0.0231
   53MOL0     C 7040   5.282  10.688   4.090  0.3287  0.1001  0.2519
   53MOL0     C 7041   5.208  10.576   4.165 -0.4413 -0.0363 -0.7176
   53MOL0     C 7042   5.079  10.633   4.223  0.5765  0.2199 -0.7643
   53MOL0     C 7043   5.010  10.512   4.288 -0.2892 -0.0292  0.1657
   53MOL0     O 7044   4.937  10.432   4.188  0.4506 -0.0651  0.2018
   53MOL0     C 7045   4.824  10.498   4.145  0.5822 -0.5290  0.1919
   53MOL0     C 7046   4.828  10.530   4.004  0.2844 -0.1242 -0.1067
   53MOL0     C 7047   4.725  10.599   3.944  0.1742 -0.5588 -0.4026
   53MOL0     C 7048   4.759  10.654   3.812 -0.8664 -0.0195 -0.0966
   53MOL0     C 7049   4.606  10.626   4.027  0.1782 -0.3345 -0.3755
   53MOL0     C 7050   4.484  10.692   3.974  0.1987 -0.1950  0.3547
   53MOL0     O 7051   4.381  10.697   4.061  0.0628  0.4154  0.2895
   53MOL0     C 7052   4.259  10.743   4.014  0.3638  0.2851 -0.1142
   53MOL0     C 7053   4.225  10.877   4.039 -0.1210 -0.8108 -0.4510
   53MOL0     C 7054   4.093  10.911   4.009  0.0072  0.2388 -0.0682
   53MOL0     C 7055   3.997  10.816   3.960 -1.3140 -0.8452 -0.1254
   53MOL0     O 7056   3.868  10.858   3.938  0.6875 -0.6472 -0.3911
   53MOL0     C 7057   3.793  10.791   3.843 -0.5354 -0.0040  0.1951
   53MOL0     C 7058   3.657  10.862   3.820 -0.7950 -0.3247 -0.3130
   53MOL0     C 7059   3.657  10.984   3.728 -0.8508 -0.3415 -0.4733
   53MOL0     C 7060   3.513  11.033   3.692  0.2211 -0.4341  0.5955
   53MOL0     C 7061   3.446  11.091   3.819  0.2858  0.4399  0.1314
   53MOL0     C 7062   3.303  11.134   3.794 -0.3942 -0.3657 -0.5627
   53MOL0     C 7063   3.235  11.201   3.915  0.6222  0.4174 -0.6984
   53MOL0     C 7064   3.116  11.287   3.866  0.4669 -0.3708 -0.3361
   53MOL0    Cl 7065   3.032  11.357   4.010 -0.4655 -0.1708 -0.3278
   53MOL0     C 7066   4.046  10.692   3.922  0.3352  0.0025  0.2801
   53MOL0     C 7067   4.168  10.652   3.959  0.2502 -0.1804  0.0449
   53MOL0     O 7068   4.476  10.720   3.855 -0.2184 -0.8743  0.2962
   53MOL0     C 7069   4.611  10.599   4.169  0.2931 -0.3491 -0.6275
   53MOL0     C 7070   4.720  10.544   4.240  0.9585  0.4675  0.3168
   53MOL0     N 7071   5.254  10.913   4.212  0.3677  0.3051 -0.3081
   53MOL0     N 7072   5.314  10.974   4.308  0.3808 -0.5245 -1.0032
   53MOL0     C 7073   6.584  10.992   4.854  0.1321  0.0247  0.6851
   53MOL0     C 7074   6.712  11.029   4.808 -0.2666 -0.5951 -0.1191
   53MOL0     C 7075   7.052  11.081   4.482  1.0919 -0.8509  1.2374
   53MOL0     C 7076   7.083  11.071   4.341  1.1807  1.0595  0.4294
   53MOL0     C 7077   7.182  11.149   4.283  0.6692  0.0852 -0.4616
   53MOL0     C 7078   7.236  11.259   4.362 -0.1861 -0.4354  0.0605
   53MOL0     O 7079   7.327  11.338   4.299  0.1201 -0.2433 -0.3805
   53MOL0     C 7080   7.395  11.440   4.384 -0.5020 -0.7633 -0.8581
   53MOL0     C 7081   7.506  11.385   4.471 -0.0927  0.7216  0.5129
   53MOL0     C 7082   7.613  11.339   4.377  0.7005  0.1409 -0.1112
   53MOL0     C 7083   7.727  11.436   4.372 -0.1765  0.9572  0.5042
   53MOL0     C 7084   7.842  11.375   4.302 -0.3800  0.1711  0.0770
   53MOL0     C 7085   7.936  11.327   4.250 -0.4972 -0.2129 -0.5031
   53MOL0     C 7086   7.207  11.267   4.503 -0.6543  0.2660 -0.6303
   53MOL0     C 7087   7.113  11.180   4.558  0.4009 -0.5362 -0.2414
   53MOL0     H 7088   6.682  10.964   4.486 -2.8419  3.9035 -0.9260
   53MOL0     H 7089   6.476  10.879   4.544 -0.1186  0.4546 -0.6877
   53MOL0     H 7090   6.266  10.871   4.602 -3.2654  0.8029 -0.3280
   53MOL0     H 7091   6.227  10.748   4.728  1.1902 -1.2374 -2.4802
   53MOL0     H 7092   6.146  10.953   4.859  1.0714  1.9784 -1.1008
   53MOL0     H 7093   6.141  11.028   4.697  0.3204  0.5294  1.4584
   53MOL0     H 7094   5.995  10.837   4.611 -4.2834  1.2739 -1.6223
   53MOL0     H 7095   5.991  10.779   4.777 -2.1690 -0.1645 -2.3039
   53MOL0     H 7096   5.877  10.941   4.874 -0.7527 -1.4318  0.2071
   53MOL0     H 7097   5.885  11.046   4.729 -0.5570 -0.9241 -0.3267
   53MOL0     H 7098   5.759  10.776   4.722  2.5986 -0.0054 -0.1803
   53MOL0     H 7099   5.669  10.929   4.761  0.3961  3.0264 -1.8779
   53MOL0     H 7100   5.737  11.019   4.542  1.7015 -0.3585  0.8404
   53MOL0     H 7101   5.793  10.859   4.494 -0.4542 -0.5327  1.9187
   53MOL0     H 7102   5.590  10.777   4.497  3.7527  0.3943 -2.3340
   53MOL0     H 7103   5.512  10.896   4.594 -2.3294 -2.4098 -1.0719
   53MOL0     H 7104   5.630  10.985   4.327 -0.5135  1.0479 -1.6123
   53MOL0     H 7105   5.531  11.068   4.438  3.7335 -0.3311  0.6926
   53MOL0     H 7106   5.512  10.720   4.239  1.4740  2.0122  0.1403
   53MOL0     H 7107   5.221  10.726   4.008  0.0298  0.4067  0.6172
   53MOL0     H 7108   5.370  10.645   4.041  1.0678  0.0171  1.6130
   53MOL0     H 7109   5.273  10.538   4.244 -0.9793  1.8537  0.7127
   53MOL0     H 7110   5.183  10.497   4.093 -0.3140 -0.6517 -0.0941
   53MOL0     H 7111   5.021  10.678   4.142  0.0084  2.4266  0.7695
   53MOL0     H 7112   5.096  10.704   4.304 -1.9496 -1.2129  1.1348
   53MOL0     H 7113   4.942  10.550   4.365 -3.7074  0.0656 -2.6675
   53MOL0     H 7114   5.082  10.447   4.339  1.4721  1.0057 -0.8722
   53MOL0     H 7115   4.912  10.503   3.941  1.2930 -1.9247  1.8634
   53MOL0     H 7116   4.866  10.656   3.788 -1.3650  0.4605 -2.5877
   53MOL0     H 7117   4.709  10.596   3.734  0.7233  0.5244 -1.6163
   53MOL0     H 7118   4.729  10.759   3.810 -1.9010 -0.2886  0.8065
   53MOL0     H 7119   4.298  10.940   4.088 -1.1456  1.4710 -1.6714
   53MOL0     H 7120   4.064  11.015   4.021  1.2151  0.5072  0.6403
   53MOL0     H 7121   3.857  10.789   3.754 -0.6762  0.7786  0.0736
   53MOL0     H 7122   3.785  10.692   3.889  0.3916 -0.3897 -0.4370
   53MOL0     H 7123   3.592  10.799   3.758  0.6105  0.8671 -3.1645
   53MOL0     H 7124   3.601  10.879   3.912  0.6095  2.9374  0.0835
   53MOL0     H 7125   3.708  10.946   3.640 -2.1011 -0.9311 -0.9625
   53MOL0     H 7126   3.714  11.069   3.768 -1.5400  0.0836 -0.3588
   53MOL0     H 7127   3.528  11.101   3.608  2.0865  1.7322  2.5319
   53MOL0     H 7128   3.448  10.957   3.650 -0.3255  1.2770 -1.8305
   53MOL0     H 7129   3.504  11.169   3.869 -1.3646  0.8274  1.5564
   53MOL0     H 7130   3.441  11.007   3.889 -0.7912 -1.6071 -2.2423
   53MOL0     H 7131   3.314  11.205   3.711  0.3228  2.4537  1.7783
   53MOL0     H 7132   3.241  11.053   3.755 -1.3510  1.3470 -2.8139
   53MOL0     H 7133   3.307  11.267   3.963 -1.3652  0.2008  2.8995
   53MOL0     H 7134   3.198  11.124   3.984 -3.2843  1.1522 -1.7515
   53MOL0     H 7135   3.034  11.233   3.819  0.5829 -0.7418 -0.1175
   53MOL0     H 7136   3.144  11.366   3.796 -3.1661  0.5305 -0.9749
   53MOL0     H 7137   3.977  10.622   3.874  0.1833 -0.9101  1.7552
   53MOL0     H 7138   4.223  10.559   3.945  0.8450  0.3865 -1.6127
   53MOL0     H 7139   4.537  10.650   4.230  0.8235 -2.8269  2.3228
   53MOL0     H 7140   4.723  10.519   4.345  5.6043  1.8312  0.7677
   53MOL0     H 7141   6.551  11.001   4.957  1.8393  1.3988  1.1463
   53MOL0     H 7142   6.783  11.080   4.872  0.4158  0.1151 -1.4082
   53MOL0     H 7143   7.024  11.001   4.282  0.4437 -1.2442  3.6251
   53MOL0     H 7144   7.213  11.128   4.181  0.0296 -0.0705 -0.6348
   53MOL0     H 7145   7.442  11.513   4.318 -0.6730  0.5336  0.3978
   53MOL0     H 7146   7.319  11.491   4.444  0.9352 -0.1758  0.5359
   53MOL0     H 7147   7.475  11.293   4.522  1.5432  0.6938  1.5379
   53MOL0     H 7148   7.543  11.453   4.549 -1.8117 -0.9700  2.9420
   53MOL0     H 7149   7.578  11.322   4.274  0.9514 -2.2907  0.1548
   53MOL0     H 7150   7.655  11.248   4.420  0.2799  0.4635  0.9964
   53MOL0     H 7151   7.764  11.471   4.469  2.4527 -1.9224  0.7040
   53MOL0     H 7152   7.709  11.521   4.306  0.9780  0.4467 -0.5293
   53MOL0     H 7153   8.024  11.286   4.205  0.5696  0.2667  1.0625
   53MOL0     H 7154   7.259  11.330   4.574 -0.1689  0.4109 -1.1016
   53MOL0     H 7155   7.097  11.191   4.665 -2.6465 -0.4377 -0.6148
   54MOL0     O 7156   9.199   1.619   5.531 -0.2149  0.1637 -0.2344
   54MOL0     C 7157   9.275   1.716   5.535  0.1343  0.1647  0.2558
   54MOL0     O 7158   9.238   1.845   5.516  0.0332  0.0084 -0.4166
   54MOL0     C 7159   9.104   1.864   5.494 -0.2591 -0.1321 -0.7310
   54MOL0     C 7160   9.026   1.923   5.586 -1.0864 -0.1005 -0.4321
   54MOL0     C 7161   8.891   1.946   5.573 -0.2485  0.0884  0.5794
   54MOL0     C 7162   8.824   1.897   5.456 -0.6433  0.2925 -0.1400
   54MOL0     O 7163   8.695   1.909   5.438 -0.0032  0.1736  0.4269
   54MOL0     C 7164   8.616   1.877   5.550  0.1700 -0.0866  0.1123
   54MOL0     C 7165   8.470   1.874   5.509 -0.3556 -0.0506  0.0449
   54MOL0     C 7166   8.433   2.014   5.450  0.1062  0.3484  0.0882
   54MOL0     C 7167   8.289   2.009   5.398  0.2088  0.7666  0.0689
   54MOL0     C 7168   8.223   2.144   5.379  0.1137 -0.3430  0.0445
   54MOL0     C 7169   8.080   2.129   5.333  1.0685 -0.8134 -0.0785
   54MOL0     C 7170   7.979   2.063   5.427  1.5534  0.0368 -0.6724
   54MOL0     C 7171   7.837   2.084   5.362 -0.2319  0.2690  0.2716
   54MOL0     N 7172   7.771   2.216   5.358 -0.7369 -0.0401 -0.8487
   54MOL0     C 7173   7.721   2.286   5.464 -0.1296 -0.7761  0.7324
   54MOL0     C 7174   7.667   2.397   5.400 -0.0883 -0.2587  0.2862
   54MOL0     C 7175   7.596   2.516   5.451  0.0443  0.1669 -0.1969
   54MOL0     C 7176   7.540   2.486   5.595  0.1038 -0.3433  0.2574
   54MOL0     C 7177   7.464   2.599   5.662  0.6861 -0.4451 -0.1193
   54MOL0     C 7178   7.312   2.592   5.625 -0.7357 -0.5722  0.7639
   54MOL0     O 7179   7.257   2.460   5.661 -0.2523  0.5003  0.1918
   54MOL0     C 7180   7.143   2.411   5.600 -0.2325  0.0954 -0.8950
   54MOL0     C 7181   7.121   2.276   5.592 -0.3265  0.5813 -0.3281
   54MOL0     C 7182   6.998   2.219   5.558 -0.8164  0.6933  0.0990
   54MOL0     C 7183   6.983   2.070   5.572  0.0906 -0.7110 -0.2202
   54MOL0     C 7184   6.896   2.299   5.500 -0.6950 -0.2594  0.3388
   54MOL0     C 7185   6.754   2.257   5.472  0.4631  0.1213  0.3741
   54MOL0     O 7186   6.679   2.349   5.400  0.9743  0.4584  0.3223
   54MOL0     C 7187   6.541   2.338   5.390  0.3708 -0.5575  0.0677
   54MOL0     C 7188   6.490   2.390   5.276  0.2579 -0.9710  0.3628
   54MOL0     C 7189   6.352   2.384   5.250 -0.9193 -0.3713 -0.3655
   54MOL0     C 7190   6.269   2.307   5.337  1.2211  0.8855 -0.9836
   54MOL0     O 7191   6.136   2.296   5.304 -0.3948 -0.2183  0.0749
   54MOL0     C 7192   6.042   2.238   5.391  0.0634  0.2593 -0.0687
   54MOL0     C 7193   5.906   2.226   5.320  1.1868  0.1636  0.1787
   54MOL0     C 7194   5.849   2.350   5.252  0.4412 -0.4484  0.4795
   54MOL0     C 7195   5.876   2.367   5.097 -0.4595  0.1415 -0.0660
   54MOL0     C 7196   5.785   2.477   5.023 -0.9918  0.4167  0.5396
   54MOL0     C 7197   5.636   2.436   5.035  0.0457 -0.0736  0.2935
   54MOL0     C 7198   5.558   2.479   4.919 -0.2476 -0.1412  0.1099
   54MOL0     C 7199   5.543   2.622   4.905 -0.5999  0.3370 -0.4144
   54MOL0    Cl 7200   5.401   2.670   4.804 -0.4393 -0.2461 -0.1842
   54MOL0     C 7201   6.318   2.275   5.471  0.2351 -0.0762  0.3554
   54MOL0     C 7202   6.456   2.281   5.485  0.2465 -0.7138  0.2894
   54MOL0     O 7203   6.722   2.142   5.500 -0.4583 -0.3787 -0.4011
   54MOL0     C 7204   6.925   2.439   5.490 -0.3400 -0.9498 -0.2702
   54MOL0     C 7205   7.047   2.492   5.540 -0.3198 -0.3334  0.8443
   54MOL0     N 7206   7.700   2.386   5.266  0.2710  0.5515  0.5432
   54MOL0     N 7207   7.762   2.279   5.245 -0.0775  0.3541 -0.3500
   54MOL0     C 7208   8.898   1.819   5.372  0.0488  0.2577 -0.2736
   54MOL0     C 7209   9.039   1.815   5.387 -0.0010  0.2166  0.2219
   54MOL0     C 7210   9.416   1.685   5.553  0.8927  0.6762 -0.8866
   54MOL0     C 7211   9.461   1.556   5.584  0.0543  0.4631 -0.8875
   54MOL0     C 7212   9.596   1.519   5.596  0.3304  0.0258  0.1814
   54MOL0     C 7213   9.695   1.616   5.592  0.6129 -0.2578  0.3241
   54MOL0     O 7214   9.824   1.574   5.599 -0.6014  0.2527 -0.3706
   54MOL0     C 7215   9.929   1.659   5.558  0.5264 -0.8188  0.6961
   54MOL0     C 7216  10.073   1.601   5.587  0.1309  0.1749  0.0766
   54MOL0     C 7217  10.179   1.705   5.593  0.0803  0.0722  0.3632
   54MOL0     C 7218  10.312   1.630   5.592  0.9081 -0.2284 -0.7706
   54MOL0     C 7219  10.424   1.722   5.600  0.1347  0.5393  0.0154
   54MOL0     C 7220  10.519   1.798   5.605 -0.8285  0.5975 -0.4726
   54MOL0     C 7221   9.656   1.749   5.564  0.2422  0.1706  0.4989
   54MOL0     C 7222   9.521   1.776   5.541  0.0745 -0.4404  1.1032
   54MOL0     H 7223   9.074   1.963   5.676  0.8589  0.5310 -1.6785
   54MOL0     H 7224   8.843   2.000   5.654 -0.8145  2.3300 -1.1548
   54MOL0     H 7225   8.658   1.782   5.585  2.2503  0.6420 -0.2490
   54MOL0     H 7226   8.627   1.951   5.630  0.3086  0.2018 -0.1719
   54MOL0     H 7227   8.451   1.787   5.445 -0.0871 -1.0863  1.3075
   54MOL0     H 7228   8.409   1.862   5.600  0.6272  0.5792  0.8137
   54MOL0     H 7229   8.449   2.090   5.527 -1.5182  1.6577 -0.8266
   54MOL0     H 7230   8.500   2.038   5.367  0.6764 -1.2235  0.0506
   54MOL0     H 7231   8.289   1.948   5.308 -1.9024 -2.3431  1.9726
   54MOL0     H 7232   8.233   1.952   5.473  1.9258 -0.7373  0.2861
   54MOL0     H 7233   8.225   2.199   5.474  1.5280 -0.5109  0.1319
   54MOL0     H 7234   8.289   2.192   5.306  1.1652  0.1957  1.3057
   54MOL0     H 7235   8.040   2.230   5.329  0.3606 -1.1217 -1.3495
   54MOL0     H 7236   8.076   2.078   5.236 -0.7208 -1.2853  0.1986
   54MOL0     H 7237   8.000   1.956   5.438  3.1109  0.3988  0.2062
   54MOL0     H 7238   7.975   2.111   5.525  2.3176  2.0486 -1.5786
   54MOL0     H 7239   7.774   2.018   5.422  2.4206 -0.0917  2.9123
   54MOL0     H 7240   7.844   2.050   5.258 -0.1188  0.9996  0.0362
   54MOL0     H 7241   7.722   2.243   5.564 -0.6365 -5.2454 -0.9384
   54MOL0     H 7242   7.671   2.593   5.469  0.9232 -0.8399  0.6107
   54MOL0     H 7243   7.523   2.559   5.383  2.0393  1.6582 -1.5257
   54MOL0     H 7244   7.624   2.460   5.660 -0.8271 -1.0668  1.2143
   54MOL0     H 7245   7.483   2.393   5.582  0.5159 -0.7680  1.4189
   54MOL0     H 7246   7.504   2.698   5.640 -0.4054  0.0518  0.1030
   54MOL0     H 7247   7.464   2.585   5.771 -2.0070 -1.6132 -0.2021
   54MOL0     H 7248   7.316   2.613   5.517  1.3704  1.3446  1.1357
   54MOL0     H 7249   7.252   2.673   5.668 -0.2832 -0.7060  1.6615
   54MOL0     H 7250   7.202   2.223   5.641 -0.7041 -2.1833 -2.4703
   54MOL0     H 7251   6.963   2.011   5.482  0.1869 -0.7907 -0.1895
   54MOL0     H 7252   7.072   2.032   5.623  0.1227  0.1184  0.3513
   54MOL0     H 7253   6.905   2.048   5.646  0.2413  2.5604  1.0603
   54MOL0     H 7254   6.573   2.431   5.219 -1.3128  1.8619 -0.1122
   54MOL0     H 7255   6.323   2.433   5.158  1.2505 -1.6177 -1.8304
   54MOL0     H 7256   6.078   2.139   5.423  1.0995  1.0477  1.2812
   54MOL0     H 7257   6.030   2.301   5.479 -0.4249 -0.0140  0.0623
   54MOL0     H 7258   5.915   2.147   5.245  0.2625 -1.4772  1.7042
   54MOL0     H 7259   5.833   2.196   5.396  0.7646 -1.4891 -0.8212
   54MOL0     H 7260   5.883   2.440   5.305 -0.7285  0.9893 -1.0912
   54MOL0     H 7261   5.746   2.326   5.279  0.7112 -0.2222  1.7978
   54MOL0     H 7262   5.979   2.401   5.084  0.5233 -1.8276  1.8938
   54MOL0     H 7263   5.873   2.265   5.056 -1.4715 -1.7359  4.1596
   54MOL0     H 7264   5.809   2.488   4.918 -2.5579  1.3176  0.2376
   54MOL0     H 7265   5.802   2.573   5.074  0.8278  0.3434  0.1229
   54MOL0     H 7266   5.623   2.327   5.042  2.5033 -0.7227 -2.7802
   54MOL0     H 7267   5.610   2.480   5.132  2.1369  1.0347  0.4042
   54MOL0     H 7268   5.460   2.432   4.925 -0.7021  0.8429  0.5074
   54MOL0     H 7269   5.609   2.455   4.825 -0.5426  0.6871 -0.2659
   54MOL0     H 7270   5.634   2.666   4.864 -0.1567 -0.0327  0.1550
   54MOL0     H 7271   5.546   2.662   5.006  0.4427 -2.9795  1.0128
   54MOL0     H 7272   6.257   2.236   5.552 -1.7090  1.9063 -0.0703
   54MOL0     H 7273   6.513   2.233   5.564  2.3142 -1.5166 -1.5538
   54MOL0     H 7274   6.849   2.505   5.448 -3.6010 -3.1400  1.7826
   54MOL0     H 7275   7.050   2.600   5.535 -3.8756 -0.1508 -1.4804
   54MOL0     H 7276   8.850   1.782   5.282 -1.4514  0.0370  0.5842
   54MOL0     H 7277   9.090   1.764   5.306 -1.4516 -2.4783  0.8894
   54MOL0     H 7278   9.391   1.474   5.597  1.2813 -0.2970  1.3759
   54MOL0     H 7279   9.626   1.419   5.625  1.0703  0.3312  0.5189
   54MOL0     H 7280   9.921   1.677   5.451 -0.8062  0.9462  1.0668
   54MOL0     H 7281   9.921   1.753   5.613 -0.5509  0.1774 -1.0841
   54MOL0     H 7282  10.086   1.524   5.510 -2.5974  0.0680 -0.3834
   54MOL0     H 7283  10.074   1.548   5.683  0.7709 -1.2794 -0.7081
   54MOL0     H 7284  10.174   1.763   5.685 -1.6136 -0.9495  0.9593
   54MOL0     H 7285  10.169   1.770   5.505 -2.4532  2.0031  1.9650
   54MOL0     H 7286  10.318   1.580   5.495 -1.5100 -0.7945 -0.6964
   54MOL0     H 7287  10.320   1.556   5.672 -1.8092 -0.9122 -1.0362
   54MOL0     H 7288  10.599   1.868   5.613 -0.9597  0.5487  2.4598
   54MOL0     H 7289   9.737   1.821   5.553  0.5053 -0.1323  0.4258
   54MOL0     H 7290   9.497   1.878   5.511 -2.6172 -0.7693  1.8502
   55MOL0     O 7291   1.162   4.884   4.961  0.4326  0.1223  0.8008
   55MOL0     C 7292   1.231   4.865   4.855  0.7051 -0.0367 -0.0985
   55MOL0     O 7293   1.185   4.826   4.736 -0.1694  0.4072  0.6287
   55MOL0     C 7294   1.058   4.783   4.725 -0.1716  0.7887  0.2411
   55MOL0     C 7295   1.046   4.653   4.683  0.1950  0.0384  0.9405
   55MOL0     C 7296   0.921   4.591   4.660 -0.6080 -0.3434  0.0935
   55MOL0     C 7297   0.805   4.668   4.686 -0.0979  0.2932 -0.3542
   55MOL0     O 7298   0.684   4.613   4.660 -0.4714 -0.1162 -0.5184
   55MOL0     C 7299   0.572   4.698   4.668 -0.4052  0.4202  0.2751
   55MOL0     C 7300   0.463   4.608   4.631 -0.2782 -0.2555 -0.0877
   55MOL0     C 7301   0.333   4.677   4.627 -0.3744 -0.9347  0.7908
   55MOL0     C 7302   0.218   4.576   4.596 -0.2837 -0.1213 -0.5826
   55MOL0     C 7303   0.086   4.640   4.627 -1.2186 -0.4390 -0.2368
   55MOL0     C 7304  -0.038   4.548   4.603  0.3706 -0.2701 -0.1332
   55MOL0     C 7305  -0.164   4.629   4.595  0.5945  0.0572 -0.0300
   55MOL0     C 7306  -0.193   4.704   4.725 -0.1721  0.4920  0.4813
   55MOL0     N 7307  -0.341   4.721   4.738 -0.0811 -1.1473  0.6418
   55MOL0     C 7308  -0.428   4.637   4.797  0.2158  0.0487  0.5990
   55MOL0     C 7309  -0.556   4.701   4.791 -0.3175 -0.2166  0.6248
   55MOL0     C 7310  -0.673   4.644   4.850  0.0441 -0.0722  0.0052
   55MOL0     C 7311  -0.793   4.620   4.751  0.3271 -0.2986 -0.1371
   55MOL0     C 7312  -0.915   4.545   4.810  0.3311  0.2143 -0.3397
   55MOL0     C 7313  -0.893   4.392   4.832  0.5630  0.0520 -0.5426
   55MOL0     O 7314  -1.001   4.339   4.906  0.2156  0.2517  0.7150
   55MOL0     C 7315  -1.010   4.204   4.930 -0.1381 -0.6705 -0.5193
   55MOL0     C 7316  -0.910   4.120   4.919 -0.1725  0.9923 -0.4561
   55MOL0     C 7317  -0.909   3.989   4.960 -0.2378  0.0763  0.4305
   55MOL0     C 7318  -0.779   3.917   4.966  0.0090  0.3480  0.1140
   55MOL0     C 7319  -1.033   3.934   5.007 -0.1735 -0.4488  0.4241
   55MOL0     C 7320  -1.040   3.799   5.066  1.5974  1.0493  0.5840
   55MOL0     O 7321  -1.150   3.774   5.145 -0.5688 -0.9101 -0.4770
   55MOL0     C 7322  -1.146   3.655   5.212 -0.3363 -1.1622  0.0467
   55MOL0     C 7323  -1.255   3.572   5.203  0.5530  0.1761  0.4063
   55MOL0     C 7324  -1.250   3.451   5.272 -0.0314  0.3074 -0.2206
   55MOL0     C 7325  -1.134   3.410   5.350  0.0195 -0.3083  0.4788
   55MOL0     O 7326  -1.126   3.286   5.405  0.8395  0.7614 -1.0135
   55MOL0     C 7327  -1.248   3.198   5.417 -1.2271 -0.2578 -0.2384
   55MOL0     C 7328  -1.228   3.072   5.499  0.3018  0.5474 -1.0075
   55MOL0     C 7329  -1.340   2.969   5.497 -0.4917 -0.0699 -0.1227
   55MOL0     C 7330  -1.481   3.027   5.525 -0.2161  0.1843  0.0157
   55MOL0     C 7331  -1.588   2.924   5.506 -0.2127  0.2792 -0.2071
   55MOL0     C 7332  -1.564   2.800   5.595  0.4998 -0.1575  0.1399
   55MOL0     C 7333  -1.682   2.711   5.614  0.0945  1.2740 -0.3861
   55MOL0     C 7334  -1.701   2.625   5.487 -0.3127  0.3154 -0.6934
   55MOL0    Cl 7335  -1.560   2.518   5.446  0.1248 -0.4098  0.1544
   55MOL0     C 7336  -1.019   3.492   5.351  0.4209  1.0188  0.4316
   55MOL0     C 7337  -1.034   3.614   5.289  0.5297  0.8006  0.3239
   55MOL0     O 7338  -0.963   3.705   5.029  0.4845  0.4659 -0.1677
   55MOL0     C 7339  -1.143   4.021   5.007  0.7587 -0.4815  0.2412
   55MOL0     C 7340  -1.128   4.151   4.971 -0.2867 -0.8662 -0.0512
   55MOL0     N 7341  -0.533   4.822   4.726 -0.7781 -0.3833  1.3468
   55MOL0     N 7342  -0.404   4.837   4.702 -0.0545 -0.1615 -0.3369
   55MOL0     C 7343   0.828   4.795   4.739  0.1558 -0.5212  0.1474
   55MOL0     C 7344   0.953   4.855   4.756 -1.0395  0.3313 -0.3246
   55MOL0     C 7345   1.372   4.906   4.850 -0.3218  0.1927 -0.0264
   55MOL0     C 7346   1.404   5.032   4.893 -0.5301 -0.0862 -0.0360
   55MOL0     C 7347   1.537   5.071   4.887 -0.3878  0.5168  0.3767
   55MOL0     C 7348   1.637   4.989   4.828 -0.2054 -0.4492  0.0898
   55MOL0     O 7349   1.770   5.027   4.832  0.5694 -0.4025  0.8142
   55MOL0     C 7350   1.823   5.147   4.890 -0.2290 -0.6960  0.6155
   55MOL0     C 7351   1.835   5.265   4.790  0.3222 -0.1740 -0.3871
   55MOL0     C 7352   1.901   5.233   4.658  0.3320  0.0776 -0.0277
   55MOL0     C 7353   1.944   5.364   4.588  0.2933 -0.5097  0.5938
   55MOL0     C 7354   1.830   5.466   4.585 -1.3361 -0.1866 -0.3308
   55MOL0     C 7355   1.753   5.561   4.582  0.7911 -0.0534 -0.1595
   55MOL0     C 7356   1.601   4.870   4.774 -0.7202 -0.4073 -0.3956
   55MOL0     C 7357   1.468   4.822   4.778 -0.0690 -0.2633 -0.0161
   55MOL0     H 7358   1.138   4.602   4.656  0.0749 -0.0806  0.7558
   55MOL0     H 7359   0.914   4.488   4.625  0.3499 -0.1460 -0.7271
   55MOL0     H 7360   0.545   4.730   4.769 -2.6070 -1.3728  0.3287
   55MOL0     H 7361   0.581   4.790   4.609 -1.9044 -0.7516 -1.9389
   55MOL0     H 7362   0.488   4.560   4.536  0.7165  1.2546 -0.6110
   55MOL0     H 7363   0.458   4.524   4.702  1.1596 -1.1991 -1.0397
   55MOL0     H 7364   0.313   4.716   4.727 -1.4655  2.1766 -0.5077
   55MOL0     H 7365   0.334   4.769   4.566  2.9751 -1.3879 -0.0473
   55MOL0     H 7366   0.222   4.551   4.490  2.4229  3.5338 -1.5707
   55MOL0     H 7367   0.229   4.486   4.656 -2.2756  0.4416  0.7199
   55MOL0     H 7368   0.091   4.664   4.734  0.2403  2.4394 -0.8553
   55MOL0     H 7369   0.065   4.729   4.567 -2.6593 -0.6123 -0.0152
   55MOL0     H 7370  -0.018   4.506   4.504 -2.4256  0.1978 -0.9732
   55MOL0     H 7371  -0.041   4.465   4.675  1.1833 -1.1480 -1.0749
   55MOL0     H 7372  -0.158   4.693   4.506 -4.0849 -1.5162 -1.8223
   55MOL0     H 7373  -0.243   4.557   4.570 -1.7767  2.2628  0.6845
   55MOL0     H 7374  -0.152   4.805   4.714 -2.2704  1.3669  0.1370
   55MOL0     H 7375  -0.159   4.641   4.808 -0.4231 -2.3910 -1.4412
   55MOL0     H 7376  -0.389   4.546   4.841 -0.5994 -0.9459 -0.6599
   55MOL0     H 7377  -0.643   4.549   4.895  0.4715 -0.3217 -0.7940
   55MOL0     H 7378  -0.701   4.711   4.932  0.6709 -0.7997  0.8276
   55MOL0     H 7379  -0.754   4.576   4.659  0.4006  1.7651 -1.1383
   55MOL0     H 7380  -0.827   4.719   4.721 -1.2967 -0.7711  0.0628
   55MOL0     H 7381  -1.005   4.573   4.755 -0.6526 -0.1058  1.0563
   55MOL0     H 7382  -0.940   4.585   4.909 -0.6574  0.5805 -0.7246
   55MOL0     H 7383  -0.797   4.361   4.876  0.6108 -0.1439 -0.7833
   55MOL0     H 7384  -0.881   4.356   4.730  0.7657 -0.8635 -0.2011
   55MOL0     H 7385  -0.824   4.160   4.865 -1.8805  1.9382 -2.6490
   55MOL0     H 7386  -0.764   3.857   4.876  0.7990 -1.5398  1.4541
   55MOL0     H 7387  -0.702   3.995   4.977 -3.0275  3.5643  0.4671
   55MOL0     H 7388  -0.777   3.859   5.059 -0.2823  0.2136  0.0368
   55MOL0     H 7389  -1.342   3.588   5.139 -0.7980 -3.0846  1.2374
   55MOL0     H 7390  -1.335   3.383   5.268  2.0650 -2.4407 -3.2106
   55MOL0     H 7391  -1.332   3.257   5.455  0.2918  1.0364  1.2743
   55MOL0     H 7392  -1.273   3.169   5.314  0.2570  3.2865 -1.7382
   55MOL0     H 7393  -1.140   3.024   5.456  0.2140 -1.8923  1.2564
   55MOL0     H 7394  -1.195   3.089   5.602  0.3247  1.1543 -1.1114
   55MOL0     H 7395  -1.317   2.878   5.554  0.8727  0.3368  0.0275
   55MOL0     H 7396  -1.342   2.925   5.397 -0.3536 -0.6987  0.1427
   55MOL0     H 7397  -1.478   3.073   5.624  3.4955  0.2673  0.0171
   55MOL0     H 7398  -1.507   3.106   5.453 -2.1802  0.5189  1.0150
   55MOL0     H 7399  -1.588   2.896   5.400 -0.2113  1.3184 -0.4962
   55MOL0     H 7400  -1.685   2.972   5.521 -1.2362 -0.9302 -2.3574
   55MOL0     H 7401  -1.476   2.757   5.548  1.5696  1.6611  0.3800
   55MOL0     H 7402  -1.539   2.837   5.695 -2.5464  0.8180  0.6455
   55MOL0     H 7403  -1.778   2.760   5.630 -1.5686 -1.7691 -0.5292
   55MOL0     H 7404  -1.662   2.657   5.706 -0.1514  0.3211 -0.8789
   55MOL0     H 7405  -1.713   2.685   5.397  2.6573 -0.3768 -1.6556
   55MOL0     H 7406  -1.785   2.558   5.511 -2.4448  3.4858  1.5271
   55MOL0     H 7407  -0.928   3.472   5.407  0.2247  3.6347  1.8509
   55MOL0     H 7408  -0.952   3.685   5.293  0.7534  0.4814  2.5145
   55MOL0     H 7409  -1.245   3.994   5.032  1.2949 -0.6459  2.4802
   55MOL0     H 7410  -1.213   4.218   4.963  0.2738 -0.1111  0.1153
   55MOL0     H 7411   0.742   4.858   4.760  1.1293  1.3346 -1.1536
   55MOL0     H 7412   0.961   4.957   4.794 -2.2134  1.1952 -2.2070
   55MOL0     H 7413   1.333   5.097   4.943  2.8870  1.1393  3.7179
   55MOL0     H 7414   1.572   5.171   4.910  2.9979  0.0571 -2.1100
   55MOL0     H 7415   1.758   5.174   4.973  0.9677  0.5784  1.1852
   55MOL0     H 7416   1.916   5.132   4.947  0.7530  2.9957  0.2714
   55MOL0     H 7417   1.897   5.341   4.838  1.7932 -0.6856 -1.4163
   55MOL0     H 7418   1.737   5.307   4.764  1.0134  1.1899 -0.9276
   55MOL0     H 7419   1.826   5.190   4.590  0.3679  1.8223 -1.2194
   55MOL0     H 7420   1.981   5.160   4.674 -0.2315 -1.2498 -2.7733
   55MOL0     H 7421   1.976   5.342   4.486 -0.2006 -1.2135  0.5884
   55MOL0     H 7422   2.034   5.399   4.639  0.4350 -1.4685  1.0279
   55MOL0     H 7423   1.689   5.646   4.570  1.2793  0.4357  0.6339
   55MOL0     H 7424   1.682   4.815   4.727 -1.4958 -1.4697 -0.5171
   55MOL0     H 7425   1.417   4.735   4.736 -4.0056  1.1403  1.3476
   56MOL0     O 7426   0.283   3.681   0.504  0.2159  0.1645  0.8076
   56MOL0     C 7427   0.347   3.733   0.409  0.5397 -0.3003  0.4014
   56MOL0     O 7428   0.291   3.765   0.287 -0.0774 -0.0355 -0.0502
   56MOL0     C 7429   0.158   3.798   0.271 -0.4996  0.0319  0.0359
   56MOL0     C 7430   0.111   3.776   0.144 -0.0228 -0.1429  0.4636
   56MOL0     C 7431  -0.023   3.808   0.103  0.5476 -0.0212 -0.7675
   56MOL0     C 7432  -0.100   3.880   0.188 -1.1698  0.6882  0.6991
   56MOL0     O 7433  -0.231   3.907   0.165 -0.5796 -0.5911 -0.0552
   56MOL0     C 7434  -0.279   3.891   0.037 -0.1694  0.4135  1.1540
   56MOL0     C 7435  -0.434   3.924   0.025 -0.4371  0.2296 -0.2986
   56MOL0     C 7436  -0.490   3.884  -0.110  0.3823 -0.6694 -0.1859
   56MOL0     C 7437  -0.589   3.993  -0.172 -0.6451 -0.0496 -0.5547
   56MOL0     C 7438  -0.655   3.938  -0.297 -0.6885  0.0821 -0.1851
   56MOL0     C 7439  -0.758   3.830  -0.272  1.1685 -0.3494  1.1264
   56MOL0     C 7440  -0.858   3.826  -0.386  0.4576  0.5996  0.0296
   56MOL0     C 7441  -0.982   3.914  -0.353  0.4143  0.7948  0.3305
   56MOL0     N 7442  -1.078   3.915  -0.467  0.0677  0.0818  0.3301
   56MOL0     C 7443  -1.184   3.828  -0.471 -0.4421  0.6731 -0.4670
   56MOL0     C 7444  -1.248   3.867  -0.582  0.3678  0.6081  0.1285
   56MOL0     C 7445  -1.388   3.815  -0.625 -0.3257  0.1211  0.6124
   56MOL0     C 7446  -1.493   3.900  -0.556 -0.5037  0.9525  0.1161
   56MOL0     C 7447  -1.639   3.860  -0.583  0.0355 -0.6637  0.1463
   56MOL0     C 7448  -1.744   3.970  -0.566 -0.8098  0.7800 -0.3616
   56MOL0     O 7449  -1.766   4.004  -0.422  0.3277 -0.1126 -0.1693
   56MOL0     C 7450  -1.847   4.103  -0.389 -0.0664 -1.3077 -0.4092
   56MOL0     C 7451  -1.854   4.136  -0.258 -0.0219 -0.0071 -0.0142
   56MOL0     C 7452  -1.937   4.235  -0.211 -0.5855 -0.1584 -0.9986
   56MOL0     C 7453  -1.943   4.247  -0.066 -0.3003 -0.2370 -0.4755
   56MOL0     C 7454  -1.994   4.326  -0.304 -0.3319 -0.4264 -0.9554
   56MOL0     C 7455  -2.075   4.431  -0.252  0.6283  0.9379 -0.1260
   56MOL0     O 7456  -2.065   4.479  -0.128 -0.5033 -0.2377 -0.2026
   56MOL0     C 7457  -2.134   4.597  -0.082 -0.6587 -0.2030 -1.1954
   56MOL0     C 7458  -2.223   4.673  -0.152  0.4182  0.1233  0.2997
   56MOL0     C 7459  -2.298   4.770  -0.084 -0.1833  0.4515 -0.0734
   56MOL0     C 7460  -2.276   4.802   0.050  0.2304 -0.0591 -0.9446
   56MOL0     O 7461  -2.351   4.889   0.123  0.0150 -0.0372 -0.1628
   56MOL0     C 7462  -2.360   5.016   0.067  0.3836  0.6724  0.1954
   56MOL0     C 7463  -2.419   5.117   0.170  0.4052  0.1289 -0.0118
   56MOL0     C 7464  -2.564   5.090   0.205 -0.9550  0.5297 -0.0199
   56MOL0     C 7465  -2.628   5.212   0.272  0.4458  0.0437 -0.8375
   56MOL0     C 7466  -2.773   5.174   0.317  1.0679 -0.1367 -0.7000
   56MOL0     C 7467  -2.854   5.287   0.392  0.1735  0.0326 -0.1546
   56MOL0     C 7468  -2.779   5.338   0.526 -0.4663 -0.3831 -0.0089
   56MOL0     C 7469  -2.844   5.469   0.583 -0.4000  0.3765 -1.0743
   56MOL0    Cl 7470  -2.827   5.610   0.474 -0.2272  0.4415 -0.1277
   56MOL0     C 7471  -2.177   4.727   0.116 -0.0381 -0.2969 -0.3024
   56MOL0     C 7472  -2.101   4.629   0.052  0.8667  0.0891  0.3050
   56MOL0     O 7473  -2.158   4.465  -0.336 -0.1667 -0.4743  0.1789
   56MOL0     C 7474  -1.983   4.293  -0.445  0.5006  0.0070 -0.2167
   56MOL0     C 7475  -1.908   4.189  -0.484  0.2413 -0.1260  0.8075
   56MOL0     N 7476  -1.176   3.952  -0.658 -0.4497 -0.4560 -0.2088
   56MOL0     N 7477  -1.076   3.986  -0.584 -0.4577  0.2317  0.4063
   56MOL0     C 7478  -0.052   3.901   0.319  0.2325  0.5184 -0.3154
   56MOL0     C 7479   0.070   3.851   0.363  0.0506  0.3172 -0.0595
   56MOL0     C 7480   0.492   3.728   0.432  0.8530  0.8538 -0.3306
   56MOL0     C 7481   0.556   3.681   0.546  0.6293  0.5795 -0.7392
   56MOL0     C 7482   0.692   3.695   0.549  0.3404 -0.7306 -0.1431
   56MOL0     C 7483   0.769   3.762   0.459  0.2131 -0.1695 -0.3004
   56MOL0     O 7484   0.906   3.774   0.477  0.5677 -0.2478 -0.1595
   56MOL0     C 7485   0.981   3.872   0.393 -0.1171 -0.1040  0.4138
   56MOL0     C 7486   1.126   3.858   0.439  0.3816 -0.2124  0.5362
   56MOL0     C 7487   1.219   3.927   0.338  0.2308  0.5933  0.1363
   56MOL0     C 7488   1.365   3.893   0.385  0.3275  0.2363 -0.3101
   56MOL0     C 7489   1.462   3.964   0.307  0.1914 -0.5058 -0.0263
   56MOL0     C 7490   1.549   4.013   0.236 -0.0450 -0.2083  0.0288
   56MOL0     C 7491   0.704   3.799   0.340  0.2065  0.3244  0.1381
   56MOL0     C 7492   0.571   3.780   0.327 -0.3146 -0.3007 -0.4532
   56MOL0     H 7493   0.175   3.717   0.079  2.6895  0.7208  2.1961
   56MOL0     H 7494  -0.053   3.788   0.001 -0.7461 -6.9121  0.4912
   56MOL0     H 7495  -0.234   3.956  -0.038  0.3101  0.6619  1.6492
   56MOL0     H 7496  -0.275   3.785   0.011 -2.0438  0.6631 -0.3718
   56MOL0     H 7497  -0.498   3.865   0.092 -2.2950 -1.2917 -3.2235
   56MOL0     H 7498  -0.437   4.032   0.044  2.7894  0.7890 -2.3068
   56MOL0     H 7499  -0.419   3.860  -0.189 -1.0415 -2.3471 -1.0248
   56MOL0     H 7500  -0.538   3.787  -0.095 -0.5863 -0.2255 -0.3182
   56MOL0     H 7501  -0.673   4.028  -0.111 -0.8057  0.5920 -1.1375
   56MOL0     H 7502  -0.533   4.083  -0.198  1.6812 -1.0072  0.8204
   56MOL0     H 7503  -0.700   4.022  -0.351 -0.2512  1.0648  0.9330
   56MOL0     H 7504  -0.578   3.893  -0.360  0.6887  0.5066  1.1293
   56MOL0     H 7505  -0.703   3.736  -0.262  1.2720 -0.4921 -0.5010
   56MOL0     H 7506  -0.806   3.836  -0.174  0.3355 -2.1438  0.8655
   56MOL0     H 7507  -0.811   3.862  -0.477  2.9407 -2.0558  0.0789
   56MOL0     H 7508  -0.901   3.727  -0.403 -0.5159  1.3877 -2.4658
   56MOL0     H 7509  -0.947   4.016  -0.331 -1.3364  1.1344  1.6788
   56MOL0     H 7510  -1.029   3.869  -0.265 -0.6850 -0.9352 -1.0707
   56MOL0     H 7511  -1.208   3.755  -0.394  3.9657  0.1101  0.6093
   56MOL0     H 7512  -1.396   3.823  -0.734  0.0102 -3.3507  0.2311
   56MOL0     H 7513  -1.399   3.710  -0.596 -1.7133  1.1211  4.2603
   56MOL0     H 7514  -1.490   4.001  -0.599 -2.4233  0.3715 -1.5423
   56MOL0     H 7515  -1.478   3.901  -0.448 -0.2184 -3.9498  0.3192
   56MOL0     H 7516  -1.677   3.782  -0.517 -0.0111  2.9854  4.9965
   56MOL0     H 7517  -1.644   3.822  -0.685 -1.6986 -1.3299  0.4428
   56MOL0     H 7518  -1.838   3.934  -0.609 -0.9530 -1.1689  1.4171
   56MOL0     H 7519  -1.704   4.056  -0.620  1.7529 -0.2350 -0.2152
   56MOL0     H 7520  -1.798   4.072  -0.191  0.6487  3.3585  2.9467
   56MOL0     H 7521  -2.050   4.245  -0.044 -0.4644 -1.2473 -1.2901
   56MOL0     H 7522  -1.911   4.156  -0.016 -1.0138 -0.1006  0.2523
   56MOL0     H 7523  -1.889   4.334  -0.028  1.0009  0.7439 -4.1078
   56MOL0     H 7524  -2.238   4.653  -0.258  0.7000  1.6199 -0.0473
   56MOL0     H 7525  -2.381   4.816  -0.137  0.2078 -0.5719 -1.6584
   56MOL0     H 7526  -2.259   5.032   0.026  2.0987 -3.8769  2.0717
   56MOL0     H 7527  -2.432   5.014  -0.015  0.4441  1.5175  0.1058
   56MOL0     H 7528  -2.353   5.116   0.258 -1.1244  2.8578  1.3143
   56MOL0     H 7529  -2.412   5.218   0.129  0.8494 -0.0683 -0.4251
   56MOL0     H 7530  -2.571   4.999   0.265  1.2636  0.4357  0.2000
   56MOL0     H 7531  -2.614   5.068   0.110  1.2528 -0.1168 -1.1041
   56MOL0     H 7532  -2.570   5.252   0.356 -2.3415  0.9098  0.8325
   56MOL0     H 7533  -2.644   5.294   0.202  2.1552  2.4597  1.4159
   56MOL0     H 7534  -2.769   5.089   0.385 -1.8444  0.3211  0.1813
   56MOL0     H 7535  -2.841   5.153   0.234 -0.1907 -0.0173  0.2716
   56MOL0     H 7536  -2.878   5.371   0.326  1.6560  2.0839  1.7745
   56MOL0     H 7537  -2.952   5.243   0.413 -0.0963 -1.4228 -3.6975
   56MOL0     H 7538  -2.679   5.367   0.493 -0.4575 -1.8274 -1.3913
   56MOL0     H 7539  -2.771   5.266   0.608  0.5050  0.5219  0.7139
   56MOL0     H 7540  -2.797   5.501   0.677  0.8401  0.1162 -1.6009
   56MOL0     H 7541  -2.943   5.440   0.621 -0.0180 -2.9339 -2.2568
   56MOL0     H 7542  -2.150   4.746   0.219 -0.3518  2.3319 -0.6367
   56MOL0     H 7543  -2.025   4.569   0.102  1.0489 -0.7621 -0.9454
   56MOL0     H 7544  -2.023   4.346  -0.531  1.1263 -0.4748 -0.8191
   56MOL0     H 7545  -1.907   4.169  -0.591  0.4140  1.7006  0.4211
   56MOL0     H 7546  -0.123   3.947   0.387  0.5293  3.9155 -2.0900
   56MOL0     H 7547   0.092   3.863   0.469 -0.0311  0.3630 -0.0480
   56MOL0     H 7548   0.509   3.631   0.629  0.2876 -0.6438 -1.6475
   56MOL0     H 7549   0.751   3.666   0.636  1.5723  0.3323 -0.5955
   56MOL0     H 7550   0.963   3.838   0.290 -1.4573  0.3172  0.4904
   56MOL0     H 7551   0.948   3.976   0.401  0.5168  0.5264 -3.1984
   56MOL0     H 7552   1.152   3.752   0.437  0.1561 -0.2565 -0.6356
   56MOL0     H 7553   1.134   3.889   0.544  0.2462 -1.0595  0.8048
   56MOL0     H 7554   1.217   4.035   0.353  0.0188  0.4250  1.4519
   56MOL0     H 7555   1.194   3.906   0.234  0.4512 -1.7727  0.5010
   56MOL0     H 7556   1.375   3.785   0.370 -0.9409  0.0725 -0.0956
   56MOL0     H 7557   1.372   3.919   0.491 -3.0340  1.2500 -0.2259
   56MOL0     H 7558   1.619   4.062   0.171  2.9884 -1.2754  2.2350
   56MOL0     H 7559   0.756   3.855   0.262  2.8760 -2.7133 -0.4641
   56MOL0     H 7560   0.524   3.818   0.238  0.1942 -1.3967 -1.2100
   57MOL0     O 7561   6.023   3.178   2.494  0.8976  0.2983 -0.0524
   57MOL0     C 7562   6.039   3.061   2.461 -0.1381 -0.0544  0.7455
   57MOL0     O 7563   5.951   2.982   2.405  0.5609 -0.2721 -0.5648
   57MOL0     C 7564   5.820   3.018   2.400 -0.0518 -0.5590  0.2340
   57MOL0     C 7565   5.724   2.932   2.453  0.7467 -0.1469 -0.7711
   57MOL0     C 7566   5.588   2.952   2.443  0.4134 -0.4229 -0.3864
   57MOL0     C 7567   5.532   3.055   2.365  0.5264  0.3254  0.8576
   57MOL0     O 7568   5.401   3.083   2.345 -0.1765  0.5120  0.4334
   57MOL0     C 7569   5.299   2.994   2.394 -0.6093 -0.4924 -0.4933
   57MOL0     C 7570   5.175   3.084   2.400  0.6703 -0.6699  1.3501
   57MOL0     C 7571   5.063   3.021   2.497  0.5033  0.2677  0.3203
   57MOL0     C 7572   4.949   3.117   2.517  0.4789  0.3863 -0.7587
   57MOL0     C 7573   4.846   3.078   2.619 -0.1226  0.3261 -0.0578
   57MOL0     C 7574   4.740   3.190   2.639 -0.5900 -0.1466  0.1893
   57MOL0     C 7575   4.620   3.166   2.729 -0.0405  0.4265  0.7034
   57MOL0     C 7576   4.669   3.104   2.854 -0.1560  0.1871 -0.4034
   57MOL0     N 7577   4.564   3.101   2.959 -0.4289 -0.3424 -0.4805
   57MOL0     C 7578   4.454   3.021   2.980 -0.2013 -0.3234 -0.4495
   57MOL0     C 7579   4.388   3.072   3.084  1.2721 -0.3046 -0.2850
   57MOL0     C 7580   4.279   2.990   3.137  0.6215  0.0795 -0.3864
   57MOL0     C 7581   4.348   2.904   3.250  1.0919  0.1996  0.1317
   57MOL0     C 7582   4.240   2.818   3.323 -0.2601  0.4201 -1.0653
   57MOL0     C 7583   4.196   2.880   3.464 -0.3708  0.6963 -0.0954
   57MOL0     O 7584   4.086   2.806   3.524  0.0097 -0.1127 -0.4261
   57MOL0     C 7585   3.953   2.818   3.474 -0.7602 -0.1703 -0.4351
   57MOL0     C 7586   3.865   2.754   3.550  1.6197 -0.1715 -0.2317
   57MOL0     C 7587   3.725   2.747   3.519  0.0621 -1.0476 -0.2355
   57MOL0     C 7588   3.640   2.667   3.612 -0.4646  0.0169 -0.1161
   57MOL0     C 7589   3.673   2.825   3.408 -0.2107  0.9158 -0.0339
   57MOL0     C 7590   3.532   2.833   3.355  0.3078  1.3494 -0.5282
   57MOL0     O 7591   3.524   2.904   3.237  0.1360  0.6616 -0.4755
   57MOL0     C 7592   3.410   2.905   3.158 -0.2363  0.3040  0.6736
   57MOL0     C 7593   3.277   2.882   3.197 -0.2257 -0.3467  0.0264
   57MOL0     C 7594   3.168   2.889   3.111  0.2159 -0.3357  0.1172
   57MOL0     C 7595   3.189   2.937   2.975 -0.0861 -0.1387 -0.4989
   57MOL0     O 7596   3.095   2.954   2.877  0.6531  0.3838 -0.7965
   57MOL0     C 7597   3.090   3.065   2.786  0.9114 -0.6722 -0.6673
   57MOL0     C 7598   3.055   3.191   2.856  0.5076  0.1332 -0.2121
   57MOL0     C 7599   2.902   3.196   2.896 -0.8978  0.7449  0.0790
   57MOL0     C 7600   2.882   3.259   3.031 -0.4291 -0.1036  0.1714
   57MOL0     C 7601   2.735   3.250   3.077  1.2741 -0.2676  0.1731
   57MOL0     C 7602   2.697   3.108   3.122 -0.2018 -0.3182  0.6583
   57MOL0     C 7603   2.562   3.105   3.200 -0.2161  0.0527 -0.7247
   57MOL0     C 7604   2.576   2.991   3.303 -0.1813 -0.0272  0.0082
   57MOL0    Cl 7605   2.424   2.905   3.338  0.3200  0.1584  0.0386
   57MOL0     C 7606   3.322   2.964   2.936 -0.3668  0.2652  0.7733
   57MOL0     C 7607   3.432   2.948   3.024 -0.3944 -0.3097  0.0876
   57MOL0     O 7608   3.434   2.768   3.400  0.6275  0.0371 -0.5995
   57MOL0     C 7609   3.773   2.889   3.326  0.4437  0.9392 -0.4243
   57MOL0     C 7610   3.909   2.889   3.358 -0.2393 -0.5550 -1.0483
   57MOL0     N 7611   4.455   3.177   3.132  0.8096  0.2623  0.4710
   57MOL0     N 7612   4.556   3.198   3.057  0.5176 -0.6960  0.4368
   57MOL0     C 7613   5.627   3.141   2.307 -0.6393 -0.0093  0.8649
   57MOL0     C 7614   5.767   3.121   2.316  0.1896 -0.8808  0.0330
   57MOL0     C 7615   6.186   3.017   2.473  0.8058 -0.3600 -0.2614
   57MOL0     C 7616   6.278   3.088   2.548 -1.2147 -0.9730 -0.9847
   57MOL0     C 7617   6.411   3.048   2.551  0.2305  0.6948 -0.5605
   57MOL0     C 7618   6.459   2.929   2.495  0.8877 -0.2224 -0.9828
   57MOL0     O 7619   6.588   2.889   2.490 -0.1844  0.2337  0.3840
   57MOL0     C 7620   6.684   2.986   2.540  0.2883  0.4001  0.2027
   57MOL0     C 7621   6.824   2.936   2.536 -0.2477  0.3855 -0.4553
   57MOL0     C 7622   6.843   2.793   2.597  0.3035  0.1569 -0.2000
   57MOL0     C 7623   6.974   2.758   2.650  0.1427  0.1738  0.0163
   57MOL0     C 7624   6.977   2.618   2.704 -0.5629 -0.3112  0.4991
   57MOL0     C 7625   6.981   2.501   2.748  0.3542  0.3375  0.5370
   57MOL0     C 7626   6.363   2.856   2.425  0.3574  1.2157  0.3516
   57MOL0     C 7627   6.230   2.903   2.411 -0.3946  0.2416 -0.3405
   57MOL0     H 7628   5.768   2.851   2.510  0.8847  1.1666  1.0735
   57MOL0     H 7629   5.531   2.881   2.502 -2.1531  2.8651  1.4991
   57MOL0     H 7630   5.284   2.917   2.318 -1.5347 -0.1973 -0.6260
   57MOL0     H 7631   5.321   2.954   2.493  4.0107  0.6098 -0.8738
   57MOL0     H 7632   5.212   3.177   2.445  1.8307 -0.4477 -0.0006
   57MOL0     H 7633   5.133   3.106   2.301 -0.5013  0.0678  1.9876
   57MOL0     H 7634   5.035   2.919   2.468  0.2863 -0.4592  2.8237
   57MOL0     H 7635   5.101   3.003   2.598  0.4767 -0.2621  0.2430
   57MOL0     H 7636   5.002   3.210   2.540 -1.4138  0.8370  2.4163
   57MOL0     H 7637   4.897   3.118   2.421  1.8340 -2.4661 -1.6249
   57MOL0     H 7638   4.794   2.997   2.568 -0.0678  2.2387 -3.4534
   57MOL0     H 7639   4.890   3.041   2.712  1.5535 -1.0967 -1.3532
   57MOL0     H 7640   4.800   3.278   2.662  1.7386 -2.5473  4.5187
   57MOL0     H 7641   4.699   3.216   2.541 -1.3035 -0.9824  0.2552
   57MOL0     H 7642   4.563   3.256   2.754  0.6959  1.5570 -1.4239
   57MOL0     H 7643   4.551   3.103   2.672  1.7372  2.3596 -4.0776
   57MOL0     H 7644   4.745   3.174   2.889  1.4430 -1.0299 -1.2913
   57MOL0     H 7645   4.728   3.012   2.849  3.1755  1.8930  2.7953
   57MOL0     H 7646   4.432   2.929   2.926  0.1451 -1.1486  0.7655
   57MOL0     H 7647   4.202   3.055   3.180  1.5527  0.7511  0.3326
   57MOL0     H 7648   4.234   2.929   3.058  1.1936  0.7887 -1.2863
   57MOL0     H 7649   4.412   2.970   3.310  1.4171  1.2630 -1.3098
   57MOL0     H 7650   4.415   2.835   3.198 -1.5330 -1.0123 -1.8997
   57MOL0     H 7651   4.294   2.730   3.359  2.1428  2.8130  1.7239
   57MOL0     H 7652   4.157   2.796   3.256  0.1695 -0.9835 -1.1720
   57MOL0     H 7653   4.161   2.982   3.445  0.2605  0.6910 -1.4314
   57MOL0     H 7654   4.282   2.882   3.530 -0.1058 -0.3517 -0.3799
   57MOL0     H 7655   3.906   2.708   3.640  1.8983  2.8136  1.2811
   57MOL0     H 7656   3.569   2.605   3.556 -1.5804 -0.8234  2.1188
   57MOL0     H 7657   3.687   2.602   3.686 -1.9090  0.4007  1.1986
   57MOL0     H 7658   3.584   2.746   3.663  0.3197  0.6347 -0.1966
   57MOL0     H 7659   3.237   2.857   3.295  0.6312  1.0862  0.7894
   57MOL0     H 7660   3.070   2.860   3.146  0.4159  1.3414  2.2197
   57MOL0     H 7661   3.178   3.081   2.724  2.8310  2.6176  2.5008
   57MOL0     H 7662   3.013   3.048   2.711  0.8062  0.9182 -0.9329
   57MOL0     H 7663   3.105   3.203   2.952  2.8332  0.2824 -1.3662
   57MOL0     H 7664   3.069   3.276   2.788 -0.2956 -1.6333 -2.7218
   57MOL0     H 7665   2.864   3.093   2.891 -1.6121  1.0550 -1.2498
   57MOL0     H 7666   2.843   3.250   2.822 -0.5024  2.2134  0.8110
   57MOL0     H 7667   2.948   3.211   3.104  1.6449  3.0130  0.5297
   57MOL0     H 7668   2.905   3.366   3.027 -1.3131  0.0801 -0.2545
   57MOL0     H 7669   2.670   3.285   2.996  0.7255 -5.2626 -1.8906
   57MOL0     H 7670   2.720   3.310   3.167 -0.0306  1.8982 -1.3653
   57MOL0     H 7671   2.688   3.049   3.030 -0.0371  1.6339 -0.6580
   57MOL0     H 7672   2.779   3.083   3.191  0.6521  0.8444  0.1003
   57MOL0     H 7673   2.480   3.078   3.134 -0.2519 -1.5801 -0.0572
   57MOL0     H 7674   2.542   3.196   3.256 -3.9392 -1.0827  0.0569
   57MOL0     H 7675   2.622   3.032   3.394 -2.7745 -0.7183  1.7594
   57MOL0     H 7676   2.655   2.920   3.275  0.8941  1.0531  0.2380
   57MOL0     H 7677   3.345   3.000   2.837  0.8651 -0.7652  0.6504
   57MOL0     H 7678   3.537   2.972   3.009 -0.0354  1.6619  4.4606
   57MOL0     H 7679   3.761   2.947   3.235 -0.7567  0.8435 -0.3393
   57MOL0     H 7680   3.972   2.953   3.296  0.1531  0.6476  0.5146
   57MOL0     H 7681   5.585   3.223   2.249 -3.0789  0.0202  2.5526
   57MOL0     H 7682   5.837   3.191   2.272 -0.7859  0.2825  0.2753
   57MOL0     H 7683   6.257   3.185   2.592 -1.0963 -0.8639 -1.1671
   57MOL0     H 7684   6.475   3.121   2.598  2.5056 -0.9661 -0.8978
   57MOL0     H 7685   6.670   3.080   2.485  0.0168  0.2433  0.0030
   57MOL0     H 7686   6.668   3.000   2.648  2.5580 -1.6751  0.8711
   57MOL0     H 7687   6.893   3.000   2.593 -1.5831 -1.5315  3.6885
   57MOL0     H 7688   6.856   2.942   2.431 -0.1018  3.3136 -0.3364
   57MOL0     H 7689   6.805   2.715   2.530  0.7783  0.5220 -0.9113
   57MOL0     H 7690   6.775   2.808   2.680 -1.8134 -4.4485 -0.7688
   57MOL0     H 7691   7.017   2.832   2.718 -0.4871  1.3122 -0.7901
   57MOL0     H 7692   7.040   2.772   2.563 -0.1890  2.7392  0.1243
   57MOL0     H 7693   6.969   2.399   2.777  0.4364  0.2382  0.2218
   57MOL0     H 7694   6.409   2.764   2.389  1.6066  2.6075 -1.8448
   57MOL0     H 7695   6.158   2.845   2.354  2.4721 -2.3517 -1.6246
   58MOL0     O 7696   2.673   9.915   2.457  0.6992 -0.1802  0.0758
   58MOL0     C 7697   2.759   9.968   2.527 -0.0835 -0.6058  0.8228
   58MOL0     O 7698   2.754   9.977   2.656 -0.4062  0.1922 -0.4911
   58MOL0     C 7699   2.633   9.968   2.712  0.2256 -0.5416  0.3853
   58MOL0     C 7700   2.549  10.075   2.748 -0.4568 -0.7598  0.8392
   58MOL0     C 7701   2.439  10.060   2.819  1.0444 -0.0869  0.3584
   58MOL0     C 7702   2.389   9.931   2.861 -0.3149  1.1273 -0.0338
   58MOL0     O 7703   2.278   9.904   2.934  0.3407 -0.0802 -0.1528
   58MOL0     C 7704   2.159   9.966   2.901 -0.3984  0.1512  0.8916
   58MOL0     C 7705   2.066   9.858   2.839  0.7664 -0.8429 -0.1281
   58MOL0     C 7706   2.027   9.747   2.939 -0.4059  0.1687 -0.8232
   58MOL0     C 7707   1.989   9.618   2.873  0.2360 -0.2291 -0.0849
   58MOL0     C 7708   1.891   9.529   2.964  0.1418 -0.1549 -0.0260
   58MOL0     C 7709   1.742   9.573   2.946 -0.3472  0.1500  0.4351
   58MOL0     C 7710   1.657   9.499   3.039  0.1860  0.3387 -0.3049
   58MOL0     C 7711   1.640   9.345   2.997 -0.2273  0.3373  0.5774
   58MOL0     N 7712   1.533   9.271   3.060  1.1509  0.1788  1.0910
   58MOL0     C 7713   1.523   9.255   3.195  1.0508  0.2192  0.3165
   58MOL0     C 7714   1.409   9.179   3.201 -0.3558  0.4475 -0.1031
   58MOL0     C 7715   1.350   9.155   3.338  0.8810  1.0256 -0.7436
   58MOL0     C 7716   1.201   9.202   3.360  0.0769 -0.0003  0.0089
   58MOL0     C 7717   1.150   9.119   3.484  1.3895 -1.2303 -0.6884
   58MOL0     C 7718   1.149   8.968   3.471 -0.2399  0.8435 -0.4633
   58MOL0     O 7719   1.075   8.936   3.359  0.0855  0.2489  0.7038
   58MOL0     C 7720   0.940   8.918   3.367 -0.4085 -0.6826 -0.3167
   58MOL0     C 7721   0.856   8.922   3.474  0.6628  0.1252  0.1418
   58MOL0     C 7722   0.732   8.866   3.472 -0.0489 -0.2811  0.3246
   58MOL0     C 7723   0.655   8.845   3.603  0.3125 -0.5900 -0.3904
   58MOL0     C 7724   0.681   8.821   3.339  0.2198 -0.8081 -0.6263
   58MOL0     C 7725   0.543   8.774   3.320  0.3719  0.6261  0.4131
   58MOL0     O 7726   0.518   8.693   3.214  0.6164 -0.4200  0.1721
   58MOL0     C 7727   0.385   8.687   3.174  0.4925 -0.2736  0.0868
   58MOL0     C 7728   0.307   8.806   3.150 -0.7254  0.2915 -0.5872
   58MOL0     C 7729   0.169   8.793   3.106  0.5968 -0.1322  0.1666
   58MOL0     C 7730   0.114   8.662   3.072 -0.1990 -1.1085  0.2185
   58MOL0     O 7731  -0.019   8.664   3.032  0.6984 -0.3855 -0.7710
   58MOL0     C 7732  -0.063   8.544   2.973 -0.4011  0.0304  0.2515
   58MOL0     C 7733  -0.135   8.446   3.070 -0.2461 -0.1205 -1.1893
   58MOL0     C 7734  -0.265   8.507   3.122  0.2541  0.0719  0.7679
   58MOL0     C 7735  -0.372   8.519   3.006  0.3005  0.7634 -0.4336
   58MOL0     C 7736  -0.474   8.635   3.049 -0.7104 -0.0510  0.0297
   58MOL0     C 7737  -0.587   8.649   2.943  0.0170  0.1605 -0.6313
   58MOL0     C 7738  -0.668   8.778   2.971 -0.5195 -0.2297 -0.0287
   58MOL0     C 7739  -0.794   8.785   2.886  0.7884 -1.0725 -0.0079
   58MOL0    Cl 7740  -0.876   8.947   2.921  0.3606 -0.3393 -0.4310
   58MOL0     C 7741   0.197   8.550   3.098 -0.7570  0.4407  0.5332
   58MOL0     C 7742   0.329   8.561   3.150  0.7318 -0.5994 -0.0487
   58MOL0     O 7743   0.461   8.820   3.395  0.0674 -0.2284  0.2697
   58MOL0     C 7744   0.771   8.828   3.235 -0.7700  0.1347  0.3834
   58MOL0     C 7745   0.895   8.874   3.248 -0.1384 -0.2551  0.5779
   58MOL0     N 7746   1.358   9.142   3.083 -0.1224  0.0075  0.4607
   58MOL0     N 7747   1.442   9.191   2.995 -0.1045 -0.0267  0.0665
   58MOL0     C 7748   2.463   9.818   2.822 -0.6773  0.2766 -0.0489
   58MOL0     C 7749   2.580   9.838   2.753 -0.0775  0.3928  0.6288
   58MOL0     C 7750   2.889   9.984   2.457 -0.2963 -0.3806  0.3363
   58MOL0     C 7751   3.000  10.043   2.521 -0.2506 -0.3293 -0.1005
   58MOL0     C 7752   3.124  10.064   2.450 -0.3768  1.1902  0.2751
   58MOL0     C 7753   3.139  10.019   2.320  0.4809  0.5430 -0.0861
   58MOL0     O 7754   3.258  10.051   2.260 -0.3398 -0.5517  0.3534
   58MOL0     C 7755   3.280  10.002   2.126 -0.9543 -0.4401 -0.7067
   58MOL0     C 7756   3.431  10.022   2.081  0.7675 -0.8994 -0.4361
   58MOL0     C 7757   3.525   9.967   2.194  0.0901 -0.6248 -0.2288
   58MOL0     C 7758   3.508   9.822   2.231 -1.1735 -0.4720  0.2538
   58MOL0     C 7759   3.510   9.746   2.101  0.0309  0.2416  0.2517
   58MOL0     C 7760   3.521   9.671   2.005  0.4722 -0.3807  0.4102
   58MOL0     C 7761   3.026   9.950   2.258  0.3259  0.3377  0.1682
   58MOL0     C 7762   2.905   9.937   2.325  0.1767 -0.1687  0.2934
   58MOL0     H 7763   2.576  10.180   2.746  0.4694 -0.9825  1.1447
   58MOL0     H 7764   2.381  10.147   2.848  0.0365 -0.9858  1.1018
   58MOL0     H 7765   2.110  10.007   2.990  0.9187  0.2903  1.5839
   58MOL0     H 7766   2.176  10.050   2.834 -1.8410  1.5146  2.1437
   58MOL0     H 7767   1.980   9.921   2.818  2.6162  1.4714 -1.3378
   58MOL0     H 7768   2.107   9.818   2.746  2.7857 -1.6065  1.0169
   58MOL0     H 7769   2.108   9.727   3.010 -1.3496 -1.7384 -0.2267
   58MOL0     H 7770   1.946   9.779   3.005  0.4474  1.9418 -0.5795
   58MOL0     H 7771   1.939   9.630   2.776 -0.6713 -1.5846  0.1973
   58MOL0     H 7772   2.084   9.566   2.857  0.5097 -0.2489  1.4682
   58MOL0     H 7773   1.901   9.422   2.944 -3.2010 -0.2436 -1.9633
   58MOL0     H 7774   1.925   9.541   3.067  0.5900 -1.1952 -0.0378
   58MOL0     H 7775   1.736   9.679   2.973  0.6376 -0.2445  2.4040
   58MOL0     H 7776   1.699   9.562   2.846  0.1773 -3.4642  0.4870
   58MOL0     H 7777   1.690   9.505   3.144  2.3127  2.0371 -0.9868
   58MOL0     H 7778   1.557   9.541   3.027  0.0210  0.0948  0.1975
   58MOL0     H 7779   1.732   9.288   3.013 -0.8438 -0.6007  0.8729
   58MOL0     H 7780   1.624   9.342   2.888 -0.6869  1.8523  0.5827
   58MOL0     H 7781   1.585   9.297   3.274  1.5773 -0.8205  0.4666
   58MOL0     H 7782   1.365   9.047   3.347 -1.0770  0.6915 -1.0416
   58MOL0     H 7783   1.408   9.189   3.424  0.7389 -0.7084  0.0791
   58MOL0     H 7784   1.140   9.174   3.274  1.3428  1.5457 -1.4721
   58MOL0     H 7785   1.221   9.310   3.363  2.6537 -0.4244  0.4347
   58MOL0     H 7786   1.048   9.151   3.506  2.2075 -0.1289  1.9226
   58MOL0     H 7787   1.211   9.145   3.572  1.0483  1.3178 -1.1204
   58MOL0     H 7788   1.104   8.927   3.561  1.4844  3.2684  1.6589
   58MOL0     H 7789   1.253   8.934   3.464  0.3442  2.1558  1.1063
   58MOL0     H 7790   0.881   8.962   3.571  0.1701  0.4092  0.1579
   58MOL0     H 7791   0.722   8.845   3.689 -0.2814 -0.1260  0.0828
   58MOL0     H 7792   0.585   8.925   3.627  0.0056 -1.6742  2.8589
   58MOL0     H 7793   0.593   8.755   3.602 -1.8250  0.7896  1.0434
   58MOL0     H 7794   0.345   8.904   3.177  1.4126 -1.1046  1.9032
   58MOL0     H 7795   0.108   8.881   3.084  0.3222 -0.2497  0.4635
   58MOL0     H 7796  -0.131   8.576   2.893  2.0029  2.3611 -1.0391
   58MOL0     H 7797   0.017   8.489   2.924  0.4192 -1.3557  2.9324
   58MOL0     H 7798  -0.141   8.343   3.035 -0.2586 -1.2309  1.7818
   58MOL0     H 7799  -0.075   8.436   3.161 -1.4139 -0.4694 -0.4485
   58MOL0     H 7800  -0.243   8.606   3.162 -1.3318  0.8114 -0.1252
   58MOL0     H 7801  -0.292   8.434   3.200  2.5052 -1.6317  0.0626
   58MOL0     H 7802  -0.342   8.543   2.904  2.1748 -0.0343 -0.1097
   58MOL0     H 7803  -0.430   8.426   3.011  1.5153  0.0269  0.2693
   58MOL0     H 7804  -0.418   8.729   3.055  1.4527 -1.3159  0.7965
   58MOL0     H 7805  -0.506   8.628   3.153 -1.4663  2.0500 -0.0094
   58MOL0     H 7806  -0.550   8.650   2.840 -0.9518  0.4070 -0.9821
   58MOL0     H 7807  -0.658   8.566   2.941  0.4273 -0.2215 -3.1771
   58MOL0     H 7808  -0.602   8.864   2.954 -0.1687 -0.1304  1.6889
   58MOL0     H 7809  -0.693   8.782   3.077  1.1275  0.5569  0.3664
   58MOL0     H 7810  -0.866   8.704   2.906  2.9182 -2.9674  0.3897
   58MOL0     H 7811  -0.775   8.774   2.779 -1.8030  1.1264 -0.8084
   58MOL0     H 7812   0.161   8.449   3.080 -0.8676  0.4849  0.5096
   58MOL0     H 7813   0.377   8.467   3.175 -1.5318 -2.0029 -0.6775
   58MOL0     H 7814   0.730   8.804   3.138 -0.0181  0.5449 -0.0449
   58MOL0     H 7815   0.961   8.880   3.162 -0.2941 -1.2505  0.3867
   58MOL0     H 7816   2.418   9.721   2.842 -1.4840  0.0031 -2.7530
   58MOL0     H 7817   2.633   9.758   2.703 -2.5461  0.0262 -1.6103
   58MOL0     H 7818   2.994  10.061   2.628 -0.3770 -0.9172 -0.0073
   58MOL0     H 7819   3.213  10.105   2.497  0.6719  1.6020 -1.9202
   58MOL0     H 7820   3.250   9.897   2.129  1.9727 -1.3763  2.6373
   58MOL0     H 7821   3.214  10.062   2.062 -2.1980  1.0096  1.7546
   58MOL0     H 7822   3.459  10.128   2.083 -1.2148 -0.3342 -0.9910
   58MOL0     H 7823   3.435   9.973   1.983  0.6541 -1.4708 -0.1631
   58MOL0     H 7824   3.511  10.024   2.286  0.9620 -1.9406  0.7610
   58MOL0     H 7825   3.628   9.975   2.157  0.2838 -1.1788  0.1739
   58MOL0     H 7826   3.413   9.811   2.284 -1.5319  2.1898  0.2948
   58MOL0     H 7827   3.584   9.792   2.304  0.2361 -0.3863 -1.1352
   58MOL0     H 7828   3.514   9.634   1.905 -2.0207  1.6083 -0.2541
   58MOL0     H 7829   3.027   9.909   2.158  0.0199 -0.3756  0.4567
   58MOL0     H 7830   2.819   9.893   2.275  1.0730  0.0571 -1.5037
   59MOL0     O 7831  11.291   1.053   1.339 -0.2381 -0.4510  0.4017
   59MOL0     C 7832  11.383   0.992   1.280  0.3572 -0.4918 -0.3299
   59MOL0     O 7833  11.372   0.878   1.198  1.0218 -0.0529 -0.5972
   59MOL0     C 7834  11.240   0.855   1.173  0.1952  0.2192  0.3614
   59MOL0     C 7835  11.173   0.764   1.255 -0.0725  0.6015 -0.5267
   59MOL0     C 7836  11.041   0.723   1.237 -0.4398  0.3791  0.5644
   59MOL0     C 7837  10.972   0.771   1.121 -0.3005 -0.2423 -0.2718
   59MOL0     O 7838  10.851   0.717   1.105  0.1610  0.9480 -0.0107
   59MOL0     C 7839  10.768   0.806   1.032  0.3228 -0.1845 -0.4380
   59MOL0     C 7840  10.616   0.763   1.044 -0.9971  0.6886 -0.3392
   59MOL0     C 7841  10.540   0.844   0.955  0.2781  0.0287  0.1465
   59MOL0     C 7842  10.404   0.775   0.925  0.6970  0.4112 -0.4072
   59MOL0     C 7843  10.299   0.878   0.862  0.3005  1.0722  0.2867
   59MOL0     C 7844  10.170   0.808   0.797 -0.3723 -0.2078 -0.2839
   59MOL0     C 7845  10.091   0.709   0.884 -0.1049  0.8483  0.3685
   59MOL0     C 7846   9.980   0.643   0.804  0.0194 -0.0770 -0.0280
   59MOL0     N 7847   9.856   0.717   0.813  0.0516  0.0350 -0.0210
   59MOL0     C 7848   9.810   0.799   0.712  0.0705 -0.0893 -0.0569
   59MOL0     C 7849   9.681   0.823   0.745 -0.2631 -0.7021 -0.3635
   59MOL0     C 7850   9.584   0.933   0.708  0.4741 -0.8806 -0.4641
   59MOL0     C 7851   9.654   1.070   0.696 -0.8278  0.0623 -0.2793
   59MOL0     C 7852   9.722   1.125   0.826  0.0094  0.5544  0.0096
   59MOL0     C 7853   9.774   1.269   0.803 -0.2244  1.5167  0.0647
   59MOL0     O 7854   9.859   1.276   0.690 -0.3339  0.0981 -0.2439
   59MOL0     C 7855   9.991   1.257   0.698  0.5375 -0.2087  0.2770
   59MOL0     C 7856  10.066   1.281   0.579 -0.2785 -0.4770 -0.2780
   59MOL0     C 7857  10.206   1.273   0.574  0.7145 -0.2700  0.0439
   59MOL0     C 7858  10.286   1.314   0.453 -0.6555  0.4178  0.0857
   59MOL0     C 7859  10.271   1.239   0.700  0.4352  0.3926  0.2410
   59MOL0     C 7860  10.416   1.228   0.708  0.4105  0.1625 -0.4324
   59MOL0     O 7861  10.465   1.227   0.845 -0.3008  0.1439  1.2969
   59MOL0     C 7862  10.601   1.223   0.874 -0.2429 -0.2668  0.3212
   59MOL0     C 7863  10.695   1.160   0.798 -0.0801 -0.0005 -1.1264
   59MOL0     C 7864  10.825   1.131   0.847 -0.4706  0.4462 -0.4365
   59MOL0     C 7865  10.862   1.192   0.967 -0.3291  0.2584 -0.6344
   59MOL0     O 7866  10.991   1.191   1.013 -0.0465  0.2136 -0.3754
   59MOL0     C 7867  11.035   1.292   1.107 -0.1407 -0.1961  0.0122
   59MOL0     C 7868  11.187   1.303   1.107 -0.5485 -0.0338  0.7403
   59MOL0     C 7869  11.246   1.392   1.216  0.1501 -0.0084 -0.4919
   59MOL0     C 7870  11.394   1.391   1.218 -0.5913 -0.8272  0.4877
   59MOL0     C 7871  11.453   1.436   1.349  0.1856  0.4724  0.2350
   59MOL0     C 7872  11.599   1.459   1.346 -0.5587 -0.0197 -0.1622
   59MOL0     C 7873  11.653   1.507   1.476 -0.0806  0.0002 -0.8519
   59MOL0     C 7874  11.789   1.574   1.462  0.1054 -0.0686 -0.2011
   59MOL0    Cl 7875  11.894   1.466   1.354  0.0159 -0.6300  0.2223
   59MOL0     C 7876  10.767   1.262   1.045  0.2055 -0.7026 -0.4542
   59MOL0     C 7877  10.641   1.282   0.998  0.2875 -0.0730 -0.1401
   59MOL0     O 7878  10.488   1.212   0.613 -0.6098  0.0708 -0.1189
   59MOL0     C 7879  10.196   1.209   0.810  0.2375  0.0799 -0.7379
   59MOL0     C 7880  10.055   1.214   0.812  0.0429  0.5154 -1.1057
   59MOL0     N 7881   9.650   0.742   0.852  0.0071 -0.3538  0.7170
   59MOL0     N 7882   9.760   0.667   0.889  0.4373 -0.2117 -0.6142
   59MOL0     C 7883  11.038   0.877   1.043 -0.6163  0.7164  0.0528
   59MOL0     C 7884  11.168   0.916   1.076 -0.7140 -0.0260  0.2343
   59MOL0     C 7885  11.517   1.046   1.315  0.7549  0.5508 -1.2660
   59MOL0     C 7886  11.630   1.015   1.242 -0.1802 -0.1652 -0.9146
   59MOL0     C 7887  11.761   1.051   1.272 -0.1201  0.4712 -0.5549
   59MOL0     C 7888  11.785   1.103   1.395 -0.2305  0.2186 -0.4905
   59MOL0     O 7889  11.909   1.137   1.455  0.4320 -0.2320  0.2596
   59MOL0     C 7890  12.019   1.065   1.407 -0.1671 -0.3736  0.2626
   59MOL0     C 7891  12.145   1.078   1.498  0.4624  0.3011 -0.2383
   59MOL0     C 7892  12.188   1.226   1.503  0.5438  0.9062 -0.6596
   59MOL0     C 7893  12.333   1.239   1.571  0.4145  0.3258  0.0500
   59MOL0     C 7894  12.363   1.381   1.576 -0.3666 -0.1339 -0.4178
   59MOL0     C 7895  12.394   1.496   1.586  0.2732 -0.3827 -0.2002
   59MOL0     C 7896  11.677   1.130   1.482 -0.2806 -0.1995 -0.4626
   59MOL0     C 7897  11.546   1.103   1.445 -0.0181 -0.0702  0.3293
   59MOL0     H 7898  11.242   0.731   1.332  1.9275  0.7339 -2.1726
   59MOL0     H 7899  11.006   0.644   1.302  3.2334 -1.5625  0.4149
   59MOL0     H 7900  10.790   0.907   1.068 -1.0581  0.0084 -0.0623
   59MOL0     H 7901  10.791   0.793   0.926 -0.5298 -2.5335 -0.3998
   59MOL0     H 7902  10.607   0.658   1.016  2.5627  0.2670 -0.3827
   59MOL0     H 7903  10.590   0.787   1.148  0.3443 -0.2836  0.2443
   59MOL0     H 7904  10.520   0.937   1.009  0.7719  1.4683 -2.0269
   59MOL0     H 7905  10.594   0.863   0.863 -0.1186 -1.0022 -0.3191
   59MOL0     H 7906  10.407   0.694   0.852 -2.6820  1.0659 -1.4654
   59MOL0     H 7907  10.372   0.745   1.025  2.5059 -1.9926 -0.4730
   59MOL0     H 7908  10.270   0.953   0.936 -0.1196  1.4820 -0.2872
   59MOL0     H 7909  10.346   0.920   0.773  2.3477 -0.3154  0.6446
   59MOL0     H 7910  10.104   0.887   0.761 -0.7987  0.1112  1.1403
   59MOL0     H 7911  10.203   0.747   0.712 -0.2074 -1.5958  0.7390
   59MOL0     H 7912  10.154   0.628   0.923  0.1476  1.3314  0.9818
   59MOL0     H 7913  10.056   0.777   0.961  0.8282  4.0583 -1.8427
   59MOL0     H 7914   9.972   0.541   0.844 -0.8039 -0.2721 -0.6555
   59MOL0     H 7915  10.000   0.649   0.697 -0.8118  0.0261 -0.1905
   59MOL0     H 7916   9.863   0.844   0.629 -1.9333  3.6460  0.4365
   59MOL0     H 7917   9.534   0.915   0.612  0.7087 -3.2017 -0.2039
   59MOL0     H 7918   9.500   0.940   0.778 -0.1258  1.6951 -1.3223
   59MOL0     H 7919   9.578   1.144   0.670  1.0882  2.1673 -0.1774
   59MOL0     H 7920   9.721   1.076   0.609 -0.6580  1.0813 -0.0807
   59MOL0     H 7921   9.808   1.064   0.854 -0.9178 -0.2939  1.1116
   59MOL0     H 7922   9.645   1.123   0.904 -1.4935 -0.7174 -1.4273
   59MOL0     H 7923   9.826   1.315   0.888  0.8683 -0.5983  0.6006
   59MOL0     H 7924   9.687   1.329   0.775 -1.2485  0.5754  1.1378
   59MOL0     H 7925  10.007   1.317   0.495  0.9533 -0.3638 -1.1165
   59MOL0     H 7926  10.345   1.234   0.408  0.1060  1.4661 -0.8333
   59MOL0     H 7927  10.214   1.330   0.372  0.3463 -2.4373 -1.5139
   59MOL0     H 7928  10.350   1.401   0.468 -0.0083 -0.2985  1.7319
   59MOL0     H 7929  10.657   1.114   0.707 -0.0489  3.8381 -3.3219
   59MOL0     H 7930  10.887   1.052   0.804 -0.6962  0.3990 -0.6820
   59MOL0     H 7931  11.002   1.395   1.090  0.2081 -0.0293  0.3265
   59MOL0     H 7932  10.999   1.279   1.209  0.8974  0.8758  0.5328
   59MOL0     H 7933  11.220   1.200   1.127 -3.7929 -1.3201  0.1231
   59MOL0     H 7934  11.229   1.331   1.010  3.8779 -1.4207  2.0119
   59MOL0     H 7935  11.206   1.366   1.315  1.9573  0.8961  0.5505
   59MOL0     H 7936  11.213   1.496   1.206  1.0839  0.2557 -0.9441
   59MOL0     H 7937  11.432   1.289   1.202  0.5605 -0.0252 -2.4928
   59MOL0     H 7938  11.428   1.459   1.140 -3.1281  0.0447  0.0452
   59MOL0     H 7939  11.424   1.357   1.418 -1.1344 -2.3652 -3.2499
   59MOL0     H 7940  11.394   1.525   1.371 -3.4606 -1.6884  0.1195
   59MOL0     H 7941  11.658   1.370   1.326  2.4431  1.6390  0.6093
   59MOL0     H 7942  11.634   1.531   1.271 -1.0898 -0.3832 -0.7674
   59MOL0     H 7943  11.659   1.422   1.545 -0.2666  1.9784  1.7625
   59MOL0     H 7944  11.589   1.581   1.525  1.6672 -0.2617  2.0478
   59MOL0     H 7945  11.844   1.590   1.555  2.0580 -0.7773 -1.1625
   59MOL0     H 7946  11.783   1.672   1.414  2.6627  0.7132  0.8751
   59MOL0     H 7947  10.790   1.303   1.143 -1.4086 -0.2195 -0.2511
   59MOL0     H 7948  10.560   1.316   1.063 -0.8622  1.4768 -2.2635
   59MOL0     H 7949  10.253   1.169   0.892 -0.8009  0.0736 -0.0027
   59MOL0     H 7950  10.001   1.188   0.902  1.5468 -0.1801 -0.3736
   59MOL0     H 7951  10.978   0.937   0.975 -1.6825  0.0547  0.3763
   59MOL0     H 7952  11.215   0.995   1.018 -2.5533  1.9180  1.2159
   59MOL0     H 7953  11.623   0.967   1.145  0.3219  1.0715 -1.5871
   59MOL0     H 7954  11.842   1.029   1.203  0.1580  0.6242 -0.2799
   59MOL0     H 7955  11.988   0.961   1.414  0.5972 -0.6300 -0.0457
   59MOL0     H 7956  12.043   1.087   1.303 -2.3633 -2.1572 -0.6994
   59MOL0     H 7957  12.219   1.011   1.455 -1.8277  0.0747 -4.3445
   59MOL0     H 7958  12.128   1.050   1.603  0.4675 -1.6502 -0.7276
   59MOL0     H 7959  12.120   1.285   1.565 -0.3980 -2.7679  2.1182
   59MOL0     H 7960  12.185   1.260   1.399  0.3295 -0.4017 -1.0943
   59MOL0     H 7961  12.413   1.190   1.515  1.6988  3.0854 -0.7141
   59MOL0     H 7962  12.334   1.199   1.673 -2.1908 -1.5404 -0.5565
   59MOL0     H 7963  12.418   1.600   1.589  2.0804 -0.7108 -1.5349
   59MOL0     H 7964  11.691   1.160   1.586 -1.5288 -1.7487  0.1936
   59MOL0     H 7965  11.464   1.106   1.515 -1.7906 -1.7663 -1.5404
   60MOL0     O 7966   6.885   6.864   4.566  0.3786  0.5587 -0.4353
   60MOL0     C 7967   6.937   6.751   4.561  0.4906  0.2093 -0.1928
   60MOL0     O 7968   6.878   6.631   4.526 -0.6795 -0.1562  0.2766
   60MOL0     C 7969   6.749   6.629   4.499  0.8628 -0.3161  0.0676
   60MOL0     C 7970   6.681   6.518   4.552  0.2279  0.2082 -0.1661
   60MOL0     C 7971   6.549   6.495   4.526 -0.2459  0.0660  0.1144
   60MOL0     C 7972   6.477   6.582   4.441  0.2542 -0.1563 -0.5287
   60MOL0     O 7973   6.345   6.557   4.420 -0.1320  0.2046 -0.2757
   60MOL0     C 7974   6.296   6.577   4.288  0.0141 -0.7779 -0.1516
   60MOL0     C 7975   6.154   6.535   4.284 -0.3788 -0.2806  0.1900
   60MOL0     C 7976   6.129   6.389   4.304  1.0886 -0.3761 -0.4097
   60MOL0     C 7977   6.185   6.290   4.188  0.2120 -0.9704 -0.1479
   60MOL0     C 7978   6.120   6.315   4.051  0.2062  0.5243  0.9357
   60MOL0     C 7979   6.145   6.184   3.978  0.8316 -0.0529  0.1622
   60MOL0     C 7980   6.294   6.174   3.948  0.2168  0.0146 -0.1236
   60MOL0     C 7981   6.329   6.103   3.815  0.1936  0.6424  0.2035
   60MOL0     N 7982   6.298   6.190   3.702  0.3844 -0.3129 -0.3931
   60MOL0     C 7983   6.242   6.159   3.580  0.2518 -0.1804 -0.8792
   60MOL0     C 7984   6.249   6.277   3.517 -0.2495  0.0023 -0.1860
   60MOL0     C 7985   6.193   6.302   3.386 -0.0065  0.6692 -0.2024
   60MOL0     C 7986   6.042   6.279   3.380  0.6269  0.4168 -0.1562
   60MOL0     C 7987   5.993   6.231   3.239 -0.7073 -1.0363  0.6417
   60MOL0     C 7988   6.063   6.330   3.125  0.2138  0.3929 -0.2321
   60MOL0     O 7989   6.024   6.283   2.995 -0.4306 -0.5621  0.7437
   60MOL0     C 7990   5.892   6.298   2.959 -0.7625  0.5098  0.0598
   60MOL0     C 7991   5.800   6.383   3.022 -0.3723  0.0372  0.6633
   60MOL0     C 7992   5.672   6.387   2.970  0.0256 -0.2625 -0.5042
   60MOL0     C 7993   5.581   6.503   3.019 -0.1168  0.0215  0.5985
   60MOL0     C 7994   5.624   6.302   2.858 -0.5896  0.2923 -0.3808
   60MOL0     C 7995   5.490   6.305   2.786  0.0405 -0.4645 -0.2760
   60MOL0     O 7996   5.498   6.266   2.662  0.0974  0.2629 -0.0447
   60MOL0     C 7997   5.381   6.251   2.596  0.0847 -0.5626  0.8778
   60MOL0     C 7998   5.246   6.286   2.624 -0.2037 -0.0871  0.2816
   60MOL0     C 7999   5.153   6.284   2.525  0.8345  0.8538  0.5972
   60MOL0     C 8000   5.177   6.238   2.401  0.7599 -0.4126  0.0475
   60MOL0     O 8001   5.074   6.230   2.320  0.7079 -0.0121  0.1679
   60MOL0     C 8002   5.098   6.206   2.182  1.3410 -0.4012  0.0285
   60MOL0     C 8003   4.958   6.212   2.101 -0.1001  0.4974 -0.4848
   60MOL0     C 8004   4.864   6.099   2.157  0.0319  0.6456 -0.6882
   60MOL0     C 8005   4.908   5.955   2.120 -0.0933  0.0524  0.0296
   60MOL0     C 8006   4.814   5.848   2.168 -0.2868 -0.1089  0.8783
   60MOL0     C 8007   4.871   5.713   2.139  0.0933 -0.1301  0.3549
   60MOL0     C 8008   4.755   5.616   2.142  0.1736  1.1665 -0.0616
   60MOL0     C 8009   4.821   5.474   2.142  0.2712  0.6445 -0.2286
   60MOL0    Cl 8010   4.685   5.364   2.143  0.0066  0.0289 -0.1241
   60MOL0     C 8011   5.308   6.182   2.378 -0.0653 -0.1508 -0.0678
   60MOL0     C 8012   5.408   6.204   2.466  0.3386 -0.2460 -0.3476
   60MOL0     O 8013   5.397   6.359   2.845 -0.3934  0.5343 -0.1305
   60MOL0     C 8014   5.729   6.216   2.810  0.9808  0.1633  0.0877
   60MOL0     C 8015   5.858   6.214   2.857  0.4111 -0.5088  0.2627
   60MOL0     N 8016   6.325   6.362   3.584 -0.3458 -0.3317 -0.0162
   60MOL0     N 8017   6.362   6.309   3.697  0.2796  0.1604  0.3517
   60MOL0     C 8018   6.548   6.683   4.381  0.1669 -0.4709  0.8129
   60MOL0     C 8019   6.682   6.704   4.405 -1.3422  1.2428  0.2332
   60MOL0     C 8020   7.077   6.749   4.604  0.3562  0.2997 -0.6964
   60MOL0     C 8021   7.135   6.625   4.629  0.5132 -0.2970  0.0919
   60MOL0     C 8022   7.259   6.620   4.695 -0.5469 -0.3754  0.1403
   60MOL0     C 8023   7.334   6.739   4.717 -0.8606  0.0201  0.1922
   60MOL0     O 8024   7.459   6.719   4.776 -0.2315  0.2164  0.0768
   60MOL0     C 8025   7.562   6.823   4.786  0.3870  0.8970 -0.0916
   60MOL0     C 8026   7.598   6.860   4.639 -0.3852  0.2791  0.8738
   60MOL0     C 8027   7.735   6.910   4.631 -0.3712 -0.1342 -0.0888
   60MOL0     C 8028   7.768   7.005   4.522 -0.5949 -0.2677 -0.4801
   60MOL0     C 8029   7.916   6.996   4.511  0.1170  0.4874  0.9495
   60MOL0     C 8030   8.037   6.983   4.489  0.7026 -0.5797 -1.2979
   60MOL0     C 8031   7.279   6.861   4.688  0.5462  0.1513 -0.5465
   60MOL0     C 8032   7.150   6.862   4.630 -0.2525  0.1838  0.1754
   60MOL0     H 8033   6.746   6.449   4.606  0.0235  1.9992  2.5419
   60MOL0     H 8034   6.507   6.400   4.559  1.7291 -1.5628 -1.7334
   60MOL0     H 8035   6.303   6.685   4.269 -0.0224 -0.2478  2.5683
   60MOL0     H 8036   6.352   6.525   4.209 -0.4917 -1.0009 -0.3689
   60MOL0     H 8037   6.099   6.583   4.366 -2.2294 -1.8598 -0.0578
   60MOL0     H 8038   6.103   6.551   4.189  0.7028  0.3990 -0.2970
   60MOL0     H 8039   6.157   6.355   4.404  0.8912 -0.8792 -0.5219
   60MOL0     H 8040   6.022   6.368   4.294  1.5968 -2.0436 -3.4578
   60MOL0     H 8041   6.293   6.307   4.187 -0.3555  4.5776 -1.2028
   60MOL0     H 8042   6.171   6.191   4.232  0.1953 -0.0588  2.0742
   60MOL0     H 8043   6.011   6.319   4.060 -0.3332  1.2074 -3.5379
   60MOL0     H 8044   6.143   6.407   3.997  0.7310  0.1713  0.5569
   60MOL0     H 8045   6.112   6.096   4.034  1.9086 -0.4041  0.2811
   60MOL0     H 8046   6.080   6.185   3.890  0.2471  0.1801  0.5940
   60MOL0     H 8047   6.325   6.279   3.944 -0.7431  0.2966 -0.5804
   60MOL0     H 8048   6.337   6.135   4.040  0.1129  0.3203  0.0555
   60MOL0     H 8049   6.281   6.004   3.814 -1.9387  1.5125  3.1295
   60MOL0     H 8050   6.436   6.081   3.819  0.0447  0.0764  2.0399
   60MOL0     H 8051   6.179   6.071   3.564  0.2688 -0.2420 -0.6270
   60MOL0     H 8052   6.211   6.405   3.354 -0.1449  0.4709 -0.9364
   60MOL0     H 8053   6.244   6.229   3.322 -1.4507 -2.2647  1.7458
   60MOL0     H 8054   5.994   6.371   3.415 -1.0186 -0.8125  0.9445
   60MOL0     H 8055   6.013   6.205   3.455  0.5951  0.2739 -0.3092
   60MOL0     H 8056   5.884   6.229   3.232 -0.6419  0.7232 -2.4052
   60MOL0     H 8057   6.046   6.138   3.218  3.6256  1.2185  0.4660
   60MOL0     H 8058   6.172   6.322   3.130  0.2041 -1.1221 -1.8751
   60MOL0     H 8059   6.030   6.431   3.153 -0.2322  0.8086 -2.1272
   60MOL0     H 8060   5.844   6.446   3.099  1.5043 -1.6652  1.1069
   60MOL0     H 8061   5.642   6.586   3.057  0.5945 -0.4841  0.5675
   60MOL0     H 8062   5.534   6.548   2.931  2.5166  0.7117 -0.5598
   60MOL0     H 8063   5.505   6.483   3.095 -2.1254  2.5389 -0.5989
   60MOL0     H 8064   5.215   6.317   2.724 -0.5573  0.8978 -0.1248
   60MOL0     H 8065   5.056   6.323   2.555 -1.3188 -2.1008 -1.8441
   60MOL0     H 8066   5.169   6.280   2.143  1.7449 -1.0636 -0.5059
   60MOL0     H 8067   5.140   6.107   2.163 -0.8128 -1.0002 -1.9904
   60MOL0     H 8068   4.907   6.308   2.111  0.9149  1.0217 -0.2381
   60MOL0     H 8069   4.976   6.187   1.996  0.3694 -1.9315  0.1069
   60MOL0     H 8070   4.768   6.106   2.106  0.3761  0.4543 -1.3812
   60MOL0     H 8071   4.846   6.102   2.265 -2.6067 -2.9216 -0.8364
   60MOL0     H 8072   4.916   5.943   2.011  1.3161 -0.0224  0.1172
   60MOL0     H 8073   5.009   5.930   2.154  0.2630  0.2286 -0.8540
   60MOL0     H 8074   4.718   5.867   2.118 -0.2817  0.0694  0.9357
   60MOL0     H 8075   4.801   5.859   2.276  0.1043 -0.5216  0.9718
   60MOL0     H 8076   4.920   5.698   2.042 -2.9604 -0.5672 -1.2461
   60MOL0     H 8077   4.945   5.696   2.217  1.6048 -1.0417 -1.2146
   60MOL0     H 8078   4.695   5.630   2.052 -0.2850 -2.6769 -0.4958
   60MOL0     H 8079   4.685   5.628   2.226 -0.6187 -0.4347 -0.4551
   60MOL0     H 8080   4.863   5.468   2.242 -3.6410  0.9829  1.6236
   60MOL0     H 8081   4.894   5.451   2.064  0.4475 -0.3353  0.2112
   60MOL0     H 8082   5.324   6.124   2.289  0.2596 -0.4962  0.2126
   60MOL0     H 8083   5.508   6.167   2.444 -0.0080 -0.8090 -1.0313
   60MOL0     H 8084   5.715   6.133   2.741  1.2870 -0.1470  0.3940
   60MOL0     H 8085   5.922   6.142   2.808 -1.3712 -2.3871  0.5141
   60MOL0     H 8086   6.510   6.754   4.307  0.5461  0.5785  1.5916
   60MOL0     H 8087   6.733   6.783   4.353  0.7446 -0.7093 -0.8663
   60MOL0     H 8088   7.093   6.525   4.616 -0.8931  0.2239  0.3802
   60MOL0     H 8089   7.304   6.530   4.735  0.1238  1.1326  3.0461
   60MOL0     H 8090   7.524   6.910   4.840 -0.6243  1.4901 -1.6788
   60MOL0     H 8091   7.651   6.788   4.840 -0.4903 -2.0075 -0.3494
   60MOL0     H 8092   7.521   6.922   4.594 -2.8629 -2.8004  0.4694
   60MOL0     H 8093   7.587   6.771   4.577 -1.4681  1.1951 -0.2926
   60MOL0     H 8094   7.798   6.823   4.612  0.2427  0.7494 -2.4504
   60MOL0     H 8095   7.763   6.946   4.731 -3.3655  3.0200 -0.1753
   60MOL0     H 8096   7.743   7.109   4.544 -0.4549 -0.7756  2.4586
   60MOL0     H 8097   7.714   6.977   4.431  1.1932 -1.7474 -1.1487
   60MOL0     H 8098   8.142   6.968   4.471  1.3416  0.1114  1.3782
   60MOL0     H 8099   7.331   6.953   4.713  0.3808  1.4377 -4.3103
   60MOL0     H 8100   7.111   6.962   4.613  1.3039  1.2729  2.4319
   61MOL0     O 8101   7.597   9.238   1.206  0.2777 -0.7772  0.1115
   61MOL0     C 8102   7.667   9.185   1.288 -1.0331 -0.2505 -0.0510
   61MOL0     O 8103   7.618   9.099   1.389 -0.3731  0.5435  0.0380
   61MOL0     C 8104   7.484   9.099   1.408  0.2468 -0.3076  0.4729
   61MOL0     C 8105   7.407   9.209   1.457  0.3098  0.1767  1.2204
   61MOL0     C 8106   7.273   9.202   1.495 -0.7554  0.2341  0.1888
   61MOL0     C 8107   7.217   9.075   1.481 -0.0374 -0.4332  0.9529
   61MOL0     O 8108   7.078   9.051   1.501  0.1302 -0.4046 -0.4503
   61MOL0     C 8109   6.986   9.137   1.434  0.6027  0.3405  0.2971
   61MOL0     C 8110   6.974   9.080   1.300  0.3371 -0.8615  1.3670
   61MOL0     C 8111   6.848   9.133   1.216 -0.3853  0.9096 -0.6456
   61MOL0     C 8112   6.842   9.072   1.079 -0.4639 -0.5971  0.3161
   61MOL0     C 8113   6.699   9.093   1.018 -0.9582  0.6674  0.5135
   61MOL0     C 8114   6.669   9.064   0.874 -0.2095  0.8618 -0.4506
   61MOL0     C 8115   6.790   9.080   0.787 -0.4154  0.0762  0.0241
   61MOL0     C 8116   6.752   9.081   0.643 -0.2023  0.3252  0.8388
   61MOL0     N 8117   6.854   9.048   0.543 -0.5629  0.0839  0.7581
   61MOL0     C 8118   6.933   8.942   0.540 -0.9043  0.2044  1.0406
   61MOL0     C 8119   7.001   8.943   0.423  0.9462 -0.0740 -0.1964
   61MOL0     C 8120   7.100   8.836   0.387  0.1361 -0.6740 -0.2423
   61MOL0     C 8121   7.200   8.780   0.497  0.0329 -0.3407 -0.0444
   61MOL0     C 8122   7.304   8.873   0.556 -0.4241 -0.7314  0.0031
   61MOL0     C 8123   7.373   8.959   0.446 -0.3610 -0.6688 -0.3038
   61MOL0     O 8124   7.460   8.872   0.363  0.3192 -0.9023  0.0490
   61MOL0     C 8125   7.567   8.932   0.321  0.0146 -0.0447  0.1303
   61MOL0     C 8126   7.682   8.859   0.311 -0.0230 -0.3615 -0.1246
   61MOL0     C 8127   7.798   8.915   0.274  0.4126  0.2999  0.1887
   61MOL0     C 8128   7.917   8.826   0.281  1.0344  0.2509  0.3821
   61MOL0     C 8129   7.799   9.049   0.230  0.1154  0.4918  0.5047
   61MOL0     C 8130   7.918   9.125   0.181  0.1563 -0.1465 -0.7516
   61MOL0     O 8131   8.027   9.125   0.258 -0.1489  0.3297  0.3794
   61MOL0     C 8132   8.150   9.184   0.232  0.2221 -0.8686 -0.1541
   61MOL0     C 8133   8.197   9.196   0.106 -0.4886  0.0223  0.1079
   61MOL0     C 8134   8.315   9.260   0.075 -0.2569 -0.5222 -0.7802
   61MOL0     C 8135   8.396   9.303   0.185  0.5492 -0.2854  0.8214
   61MOL0     O 8136   8.518   9.357   0.142  1.4493  0.1328  0.2270
   61MOL0     C 8137   8.619   9.378   0.237  0.2167 -0.3006 -0.4309
   61MOL0     C 8138   8.745   9.430   0.155  0.8408  0.3304  0.5464
   61MOL0     C 8139   8.829   9.314   0.088 -0.0185  2.3688 -0.2085
   61MOL0     C 8140   8.965   9.362   0.034 -1.2386  0.3557 -0.2359
   61MOL0     C 8141   9.031   9.268  -0.066 -0.2988 -0.2002 -0.2505
   61MOL0     C 8142   9.166   9.327  -0.124  0.0481  0.0847 -0.9356
   61MOL0     C 8143   9.262   9.226  -0.175  0.1125  0.0467  0.3772
   61MOL0     C 8144   9.399   9.272  -0.221  0.0247  0.2168 -0.2760
   61MOL0    Cl 8145   9.486   9.124  -0.274  0.2468 -0.0767  0.1745
   61MOL0     C 8146   8.345   9.309   0.315  0.8566 -0.5585 -0.1888
   61MOL0     C 8147   8.222   9.239   0.338 -0.5143 -0.1143 -1.0417
   61MOL0     O 8148   7.913   9.180   0.077 -0.3899 -0.8427  0.3775
   61MOL0     C 8149   7.679   9.121   0.234  0.0492  0.0561 -0.8511
   61MOL0     C 8150   7.561   9.067   0.270 -0.6034 -0.0119  0.6192
   61MOL0     N 8151   6.971   9.068   0.366 -0.5221 -0.6427  0.7928
   61MOL0     N 8152   6.888   9.130   0.443 -0.1430 -0.3068 -0.0469
   61MOL0     C 8153   7.292   8.968   1.435 -0.0444  0.5311  0.9364
   61MOL0     C 8154   7.419   8.976   1.390  0.0171 -0.0695  0.1680
   61MOL0     C 8155   7.809   9.230   1.299 -0.2811  0.2522 -0.7488
   61MOL0     C 8156   7.901   9.162   1.381 -0.0391 -0.4815 -0.3760
   61MOL0     C 8157   8.035   9.175   1.341 -0.4864  0.7811  0.4568
   61MOL0     C 8158   8.081   9.277   1.253 -0.0607 -0.3225 -0.2559
   61MOL0     O 8159   8.214   9.304   1.224  0.2289  0.2585 -0.3925
   61MOL0     C 8160   8.310   9.231   1.288  0.3884 -0.5951 -0.4815
   61MOL0     C 8161   8.451   9.280   1.265  0.2120  0.8355 -0.3183
   61MOL0     C 8162   8.554   9.166   1.235  0.1997  0.1094 -0.0325
   61MOL0     C 8163   8.689   9.221   1.182 -0.6764 -0.3633  0.8670
   61MOL0     C 8164   8.759   9.308   1.288  0.5243 -0.1972  0.9804
   61MOL0     C 8165   8.802   9.374   1.386  0.5012 -0.1225  0.2040
   61MOL0     C 8166   7.982   9.364   1.206 -0.2177  0.0096  0.9654
   61MOL0     C 8167   7.848   9.341   1.217 -0.5068  0.1207  0.2837
   61MOL0     H 8168   7.451   9.307   1.475  0.5708  0.2052  0.4626
   61MOL0     H 8169   7.227   9.298   1.519 -1.6620  0.2338 -1.4674
   61MOL0     H 8170   6.893   9.123   1.490  0.5220  1.8968  0.6152
   61MOL0     H 8171   7.019   9.242   1.433  1.8284  0.0062  1.8840
   61MOL0     H 8172   7.057   9.094   1.230  0.1301  1.8860  1.5637
   61MOL0     H 8173   6.967   8.971   1.314 -2.4682 -1.2121 -1.4366
   61MOL0     H 8174   6.765   9.102   1.280  0.1502  0.8669  0.0477
   61MOL0     H 8175   6.843   9.242   1.204  1.4039  1.0700 -0.1941
   61MOL0     H 8176   6.924   9.116   1.021  0.6498 -3.8701 -0.8147
   61MOL0     H 8177   6.874   8.969   1.095  1.4793 -0.0324  0.3918
   61MOL0     H 8178   6.621   9.040   1.073 -2.1298  0.5791 -1.1595
   61MOL0     H 8179   6.672   9.199   1.030  0.7208  1.2098 -0.1271
   61MOL0     H 8180   6.638   8.960   0.867  2.1402  0.1060 -0.5078
   61MOL0     H 8181   6.594   9.140   0.852  0.0783  1.0136 -0.9244
   61MOL0     H 8182   6.839   9.178   0.797 -0.3970  0.0595  0.1056
   61MOL0     H 8183   6.851   8.992   0.809 -0.7967 -0.7026 -1.8335
   61MOL0     H 8184   6.721   9.183   0.618 -1.9607 -0.1004  1.1310
   61MOL0     H 8185   6.667   9.015   0.628  0.0881  0.0006  0.6175
   61MOL0     H 8186   6.931   8.856   0.606  0.2591  0.3177  1.2323
   61MOL0     H 8187   7.041   8.747   0.365  1.4048 -1.4120 -0.7649
   61MOL0     H 8188   7.148   8.871   0.295 -0.4683  1.6346  0.2573
   61MOL0     H 8189   7.251   8.701   0.442  2.3309  0.6957  0.4678
   61MOL0     H 8190   7.137   8.738   0.576 -2.3846  0.7956 -1.2297
   61MOL0     H 8191   7.376   8.820   0.619  2.6273  1.2408 -1.6047
   61MOL0     H 8192   7.261   8.948   0.623  1.7373 -0.2044  0.8827
   61MOL0     H 8193   7.435   9.035   0.495  1.0542 -1.8304 -0.1928
   61MOL0     H 8194   7.296   9.009   0.388  0.5519 -1.2474 -2.0788
   61MOL0     H 8195   7.677   8.752   0.324 -0.0273 -0.1417  2.0291
   61MOL0     H 8196   7.887   8.731   0.325 -5.1623  0.6788 -1.9853
   61MOL0     H 8197   7.956   8.812   0.180 -0.6574 -0.1088 -0.2495
   61MOL0     H 8198   7.993   8.872   0.346  0.2832  0.1221  1.3817
   61MOL0     H 8199   8.145   9.164   0.016  0.7481  1.0559 -1.0293
   61MOL0     H 8200   8.350   9.254  -0.027  2.5409 -2.4359  0.1471
   61MOL0     H 8201   8.586   9.453   0.310  0.8326  0.2272 -0.6864
   61MOL0     H 8202   8.642   9.284   0.288  4.6995  0.5245 -0.5356
   61MOL0     H 8203   8.717   9.503   0.078 -1.0057 -1.4935 -0.6082
   61MOL0     H 8204   8.796   9.482   0.236 -0.2731 -0.0150  1.5060
   61MOL0     H 8205   8.771   9.270   0.006  2.2378 -0.8485 -0.2969
   61MOL0     H 8206   8.844   9.234   0.162  1.0799  2.2250 -0.5628
   61MOL0     H 8207   8.962   9.463  -0.009  0.2553 -0.1647 -1.6769
   61MOL0     H 8208   9.037   9.366   0.117 -0.8156 -1.0622 -0.5182
   61MOL0     H 8209   8.964   9.262  -0.152  1.3133  2.6252 -1.8382
   61MOL0     H 8210   9.039   9.166  -0.026 -0.8409  0.0526  0.5420
   61MOL0     H 8211   9.145   9.412  -0.189  0.6376  0.7801 -0.2428
   61MOL0     H 8212   9.223   9.376  -0.044 -1.3681 -1.1742  0.9604
   61MOL0     H 8213   9.207   9.184  -0.260 -1.8863  1.6553  0.8102
   61MOL0     H 8214   9.273   9.146  -0.102  1.8964  0.0816  0.1949
   61MOL0     H 8215   9.459   9.309  -0.137  1.1922 -2.5658  0.2450
   61MOL0     H 8216   9.396   9.357  -0.289 -0.5492  1.7637  1.5694
   61MOL0     H 8217   8.396   9.370   0.388 -0.8424  0.4798  0.1972
   61MOL0     H 8218   8.177   9.242   0.436 -0.0683  1.5954 -0.8602
   61MOL0     H 8219   7.683   9.229   0.223 -1.8136  0.1796 -0.5721
   61MOL0     H 8220   7.472   9.129   0.273  0.5118  1.5929  2.0526
   61MOL0     H 8221   7.235   8.876   1.425  0.6518  0.2560 -1.1629
   61MOL0     H 8222   7.480   8.894   1.353 -0.3405 -0.0652 -0.4478
   61MOL0     H 8223   7.866   9.076   1.436 -2.3345  0.2705 -0.5439
   61MOL0     H 8224   8.108   9.106   1.383 -0.1768  1.8123  1.6855
   61MOL0     H 8225   8.286   9.221   1.394  3.6476  1.7244  0.6418
   61MOL0     H 8226   8.303   9.130   1.247  4.0339 -1.5255  0.7567
   61MOL0     H 8227   8.469   9.339   1.355 -2.4141  0.5423  0.4744
   61MOL0     H 8228   8.447   9.345   1.177 -0.2293  0.0764 -0.8698
   61MOL0     H 8229   8.508   9.111   1.153 -1.2165  2.0447 -0.6226
   61MOL0     H 8230   8.570   9.096   1.318  1.0695 -0.3031 -0.5362
   61MOL0     H 8231   8.665   9.294   1.105  1.0824  1.7812  2.2186
   61MOL0     H 8232   8.757   9.144   1.147 -1.5887 -0.2993 -1.1714
   61MOL0     H 8233   8.826   9.432   1.472  1.0449  0.1314 -0.1124
   61MOL0     H 8234   8.017   9.447   1.145  1.4265 -3.2262 -2.9851
   61MOL0     H 8235   7.776   9.403   1.164 -0.4173 -0.3345 -0.3851
   62MOL0     O 8236   1.310   4.218   7.970  0.1193 -0.2726  0.5851
   62MOL0     C 8237   1.367   4.238   7.862 -0.1739  0.6969 -0.0959
   62MOL0     O 8238   1.311   4.310   7.757  0.0742 -0.1741  0.0319
   62MOL0     C 8239   1.194   4.382   7.766 -0.2409  0.3824  0.5327
   62MOL0     C 8240   1.091   4.331   7.683 -0.2235  0.0816 -0.1448
   62MOL0     C 8241   0.974   4.400   7.678  0.2820  0.1977 -0.1255
   62MOL0     C 8242   0.959   4.524   7.731 -0.6107 -0.9503 -0.8714
   62MOL0     O 8243   0.848   4.602   7.712  0.1431  0.3619  0.2081
   62MOL0     C 8244   0.728   4.530   7.719  0.5681  0.4092 -0.5532
   62MOL0     C 8245   0.604   4.618   7.748  0.1520 -0.4122  0.3389
   62MOL0     C 8246   0.471   4.541   7.739 -1.0865  0.2246  0.3016
   62MOL0     C 8247   0.383   4.548   7.866 -0.5518  0.2168 -0.1478
   62MOL0     C 8248   0.263   4.460   7.850  1.0223  0.3068 -0.3879
   62MOL0     C 8249   0.154   4.475   7.964  0.3873 -0.1655  0.0707
   62MOL0     C 8250   0.029   4.375   7.933 -0.1570 -0.4263  0.1022
   62MOL0     C 8251   0.020   4.250   8.014 -1.4126 -0.0851 -0.5676
   62MOL0     N 8252   0.138   4.166   8.012 -0.9564  0.0500 -0.5102
   62MOL0     C 8253   0.254   4.182   8.087 -0.1947  0.0547 -0.3675
   62MOL0     C 8254   0.325   4.068   8.065 -0.2320 -0.2521 -0.5355
   62MOL0     C 8255   0.467   4.047   8.113 -0.7293  0.3204  0.4819
   62MOL0     C 8256   0.509   3.897   8.108  0.5904 -0.9268 -0.0976
   62MOL0     C 8257   0.441   3.806   8.212  1.0359  0.7237 -0.2987
   62MOL0     C 8258   0.413   3.887   8.341  0.3981  0.1014  0.2800
   62MOL0     O 8259   0.349   3.807   8.434  0.7783 -0.3823  0.1979
   62MOL0     C 8260   0.219   3.768   8.399 -0.3252 -0.2587 -0.3508
   62MOL0     C 8261   0.121   3.856   8.360  0.7675 -0.1622  0.4424
   62MOL0     C 8262  -0.005   3.804   8.316 -0.5640 -0.2459 -0.4722
   62MOL0     C 8263  -0.091   3.900   8.226  0.1046 -0.3876 -0.1037
   62MOL0     C 8264  -0.037   3.667   8.338 -0.0762 -0.5450 -0.4736
   62MOL0     C 8265  -0.174   3.611   8.317 -0.0526  0.9750 -0.3166
   62MOL0     O 8266  -0.195   3.474   8.317  0.0914 -0.5164  0.7146
   62MOL0     C 8267  -0.324   3.443   8.299  0.3109  0.0549  0.7672
   62MOL0     C 8268  -0.400   3.401   8.401  0.2133  0.6063 -0.5282
   62MOL0     C 8269  -0.532   3.359   8.374 -0.1795  0.5507 -0.4441
   62MOL0     C 8270  -0.584   3.365   8.250 -0.1560 -0.3015  0.0077
   62MOL0     O 8271  -0.715   3.331   8.211  0.3670 -0.1749 -0.3065
   62MOL0     C 8272  -0.818   3.353   8.316 -0.4361 -0.7384 -0.1080
   62MOL0     C 8273  -0.947   3.366   8.242 -0.4658 -0.2954 -0.1064
   62MOL0     C 8274  -1.065   3.387   8.332 -0.2645 -0.4447  0.5722
   62MOL0     C 8275  -1.129   3.254   8.388 -0.9536 -0.6839 -0.2049
   62MOL0     C 8276  -1.202   3.177   8.285 -0.3142 -0.7000 -0.5175
   62MOL0     C 8277  -1.342   3.218   8.268 -0.0255  0.0976  0.8733
   62MOL0     C 8278  -1.409   3.141   8.160 -0.2065 -0.0084 -0.6835
   62MOL0     C 8279  -1.564   3.158   8.156 -0.2675  0.1823  0.4189
   62MOL0    Cl 8280  -1.638   3.017   8.065 -0.0775  0.3657 -0.4359
   62MOL0     C 8281  -0.515   3.417   8.145 -0.0829 -0.4998  0.0215
   62MOL0     C 8282  -0.380   3.462   8.172 -1.0271  1.2079  0.1236
   62MOL0     O 8283  -0.269   3.694   8.310 -0.4299 -0.0154 -0.0686
   62MOL0     C 8284   0.066   3.584   8.377  0.1274  0.0020 -0.5405
   62MOL0     C 8285   0.184   3.636   8.409 -0.6929 -0.2789 -0.5105
   62MOL0     N 8286   0.249   3.982   7.987  0.9473 -0.4702 -0.0805
   62MOL0     N 8287   0.134   4.045   7.952 -0.3582 -0.0721 -1.0517
   62MOL0     C 8288   1.074   4.584   7.799 -0.3821  0.0254 -0.7129
   62MOL0     C 8289   1.186   4.503   7.821  0.2770  0.1537 -0.1679
   62MOL0     C 8290   1.502   4.167   7.843  0.5554 -0.0282  0.3381
   62MOL0     C 8291   1.584   4.168   7.728 -1.1712 -0.4142  0.3455
   62MOL0     C 8292   1.706   4.090   7.707 -1.1549  0.0339 -0.8362
   62MOL0     C 8293   1.747   4.002   7.806 -0.9717 -0.2904  0.6063
   62MOL0     O 8294   1.866   3.925   7.791  0.6127  0.2834  0.2605
   62MOL0     C 8295   1.901   3.834   7.890 -0.1923  0.2219  0.1816
   62MOL0     C 8296   2.004   3.734   7.834  0.3502 -1.2531 -0.2834
   62MOL0     C 8297   2.136   3.798   7.786 -0.3756 -0.0460  0.7636
   62MOL0     C 8298   2.248   3.709   7.741 -0.7907  0.2853  0.3475
   62MOL0     C 8299   2.210   3.630   7.623  0.0953 -0.3325 -0.7888
   62MOL0     C 8300   2.166   3.573   7.531  0.3750  0.3822 -0.4080
   62MOL0     C 8301   1.667   4.000   7.927 -0.6756 -0.2026 -1.0608
   62MOL0     C 8302   1.552   4.085   7.942 -0.5726  0.3300 -0.1137
   62MOL0     H 8303   1.121   4.238   7.637  0.6980  0.5157 -0.4468
   62MOL0     H 8304   0.892   4.351   7.626 -2.0877  0.8571  2.7043
   62MOL0     H 8305   0.707   4.486   7.621 -0.7016  3.0072 -1.5523
   62MOL0     H 8306   0.726   4.461   7.804 -1.2090 -0.8144 -1.5107
   62MOL0     H 8307   0.614   4.660   7.848 -1.0847 -2.8628  1.5625
   62MOL0     H 8308   0.601   4.693   7.668 -1.1663 -2.0697 -1.2553
   62MOL0     H 8309   0.414   4.584   7.656  0.8202 -0.1604 -1.2810
   62MOL0     H 8310   0.495   4.436   7.718 -1.1392  0.5617 -1.7091
   62MOL0     H 8311   0.447   4.504   7.943 -2.1993 -0.7779  0.6886
   62MOL0     H 8312   0.360   4.653   7.887 -0.0540  0.1586  0.7350
   62MOL0     H 8313   0.211   4.493   7.760 -0.1017 -3.0773 -1.1467
   62MOL0     H 8314   0.279   4.353   7.838  0.1343  0.5084 -5.4909
   62MOL0     H 8315   0.210   4.463   8.057  0.4723 -1.6704 -0.1451
   62MOL0     H 8316   0.113   4.576   7.957 -0.0485 -0.1345  2.2818
   62MOL0     H 8317  -0.058   4.436   7.960 -0.2192 -0.1115 -0.7799
   62MOL0     H 8318   0.019   4.364   7.825 -1.4346 -0.1876  0.1725
   62MOL0     H 8319  -0.066   4.197   7.971  0.1298 -2.5905 -0.7575
   62MOL0     H 8320  -0.004   4.282   8.116 -0.3382  2.3295 -0.9980
   62MOL0     H 8321   0.289   4.271   8.138 -2.6505  0.5346  0.5905
   62MOL0     H 8322   0.521   4.103   8.036 -1.0219  1.1180  0.8564
   62MOL0     H 8323   0.497   4.098   8.205  1.2585  0.5474 -0.2271
   62MOL0     H 8324   0.618   3.883   8.105  0.6374 -0.7170  0.6038
   62MOL0     H 8325   0.481   3.858   8.009  1.8539 -0.2692 -0.7510
   62MOL0     H 8326   0.514   3.726   8.231  1.5901  1.6643  1.8384
   62MOL0     H 8327   0.341   3.774   8.183 -0.6313 -0.2666  5.3302
   62MOL0     H 8328   0.354   3.977   8.322 -0.8746 -0.3618  1.8239
   62MOL0     H 8329   0.510   3.915   8.381 -0.0454  2.3880 -0.0918
   62MOL0     H 8330   0.138   3.962   8.347  0.7870 -0.4364 -2.3742
   62MOL0     H 8331  -0.162   3.958   8.286 -0.7417 -1.6271  0.1132
   62MOL0     H 8332  -0.032   3.973   8.169 -0.1680  1.6058  2.0344
   62MOL0     H 8333  -0.154   3.844   8.157 -0.4162  0.1045 -0.0387
   62MOL0     H 8334  -0.369   3.394   8.505 -0.3509  1.2184 -0.3169
   62MOL0     H 8335  -0.588   3.326   8.461 -1.3582  1.4468 -0.8328
   62MOL0     H 8336  -0.809   3.275   8.393  1.2612  2.8883  3.7225
   62MOL0     H 8337  -0.794   3.450   8.360 -1.7765 -1.0021  1.2695
   62MOL0     H 8338  -0.953   3.445   8.167 -1.2373  1.8865  2.1172
   62MOL0     H 8339  -0.955   3.270   8.191 -1.8852  0.0523 -0.5945
   62MOL0     H 8340  -1.137   3.449   8.277  2.1269  0.9491 -1.1842
   62MOL0     H 8341  -1.044   3.441   8.425 -3.6705 -1.1026  1.8875
   62MOL0     H 8342  -1.041   3.193   8.412 -1.6750 -1.8864 -0.5312
   62MOL0     H 8343  -1.182   3.265   8.482 -3.2995  1.0513 -1.6241
   62MOL0     H 8344  -1.210   3.072   8.316  1.0051 -0.3889  0.9891
   62MOL0     H 8345  -1.152   3.189   8.189 -0.6987  3.1868 -0.3916
   62MOL0     H 8346  -1.398   3.211   8.362 -2.8716 -1.0831 -0.7985
   62MOL0     H 8347  -1.349   3.326   8.246 -0.2843  0.3692  2.2091
   62MOL0     H 8348  -1.379   3.038   8.180  0.3303  0.4291  0.9897
   62MOL0     H 8349  -1.373   3.165   8.060 -0.8265 -2.7595 -1.6577
   62MOL0     H 8350  -1.596   3.248   8.103 -3.4339 -1.0468  0.0273
   62MOL0     H 8351  -1.606   3.171   8.256 -0.6544  1.4680  0.0990
   62MOL0     H 8352  -0.559   3.427   8.046  1.5284  1.4780 -0.5400
   62MOL0     H 8353  -0.321   3.497   8.089 -2.2914 -1.3260 -2.0180
   62MOL0     H 8354   0.052   3.477   8.388 -0.3045 -0.0300 -1.3045
   62MOL0     H 8355   0.263   3.563   8.426 -0.8985 -0.5309 -0.6188
   62MOL0     H 8356   1.058   4.682   7.845  1.5147 -0.8113  1.9129
   62MOL0     H 8357   1.270   4.548   7.872  0.6868 -1.8325  0.9702
   62MOL0     H 8358   1.577   4.258   7.668  4.0337  1.6162  2.2302
   62MOL0     H 8359   1.780   4.113   7.630  0.7018  0.1567  0.9062
   62MOL0     H 8360   1.944   3.879   7.980  3.5259 -0.0284 -1.3132
   62MOL0     H 8361   1.815   3.774   7.924  1.0755 -1.1544  1.0755
   62MOL0     H 8362   1.950   3.685   7.752 -2.5817  2.0719 -0.5563
   62MOL0     H 8363   2.022   3.657   7.910 -0.9063 -0.2833  1.0603
   62MOL0     H 8364   2.178   3.846   7.875  2.5024 -1.3986  0.2476
   62MOL0     H 8365   2.114   3.870   7.706  0.0091 -0.9930 -0.2195
   62MOL0     H 8366   2.263   3.643   7.826 -2.8556 -1.0891 -0.2850
   62MOL0     H 8367   2.340   3.767   7.728 -0.3814 -0.1344  1.3052
   62MOL0     H 8368   2.131   3.525   7.442  0.9252 -0.6484 -0.0903
   62MOL0     H 8369   1.697   3.938   8.011  1.0360  1.8253 -0.0661
   62MOL0     H 8370   1.497   4.067   8.034  1.3122 -0.6257  0.8865
   63MOL0     O 8371   0.275   5.167  10.799 -0.2554  0.1074 -0.0425
   63MOL0     C 8372   0.285   5.047  10.779 -0.7941  0.4839 -0.2591
   63MOL0     O 8373   0.246   4.983  10.660  0.0524 -0.8850 -0.2354
   63MOL0     C 8374   0.199   5.055  10.553  0.0707 -0.6244  0.4263
   63MOL0     C 8375   0.269   5.172  10.520 -0.9522 -0.1515 -0.0453
   63MOL0     C 8376   0.228   5.263  10.412  0.4559 -0.1768 -0.3776
   63MOL0     C 8377   0.141   5.207  10.307 -0.6194 -0.2719  0.1752
   63MOL0     O 8378   0.111   5.267  10.192 -0.1303  0.4980  0.0166
   63MOL0     C 8379   0.180   5.397  10.179 -0.6246  0.0109 -0.4117
   63MOL0     C 8380   0.145   5.454  10.046  1.2406  0.3157  0.5835
   63MOL0     C 8381   0.219   5.378   9.936 -0.6263 -0.9664  0.5205
   63MOL0     C 8382   0.177   5.410   9.784 -0.0920  0.0185 -0.5232
   63MOL0     C 8383   0.223   5.556   9.754  0.1565  0.4101  0.4221
   63MOL0     C 8384   0.174   5.621   9.619  0.0737  0.6676 -0.8608
   63MOL0     C 8385   0.211   5.549   9.482  0.1573  0.4788 -0.1796
   63MOL0     C 8386   0.362   5.559   9.464 -1.0642 -0.1356  0.6138
   63MOL0     N 8387   0.419   5.499   9.341  0.3904 -0.3780 -0.9387
   63MOL0     C 8388   0.407   5.549   9.219  0.4835 -0.6695  0.3361
   63MOL0     C 8389   0.456   5.444   9.147 -0.4707 -0.0118  0.6236
   63MOL0     C 8390   0.445   5.442   9.000  0.7188  0.5281  1.1300
   63MOL0     C 8391   0.330   5.522   8.944 -0.1486  0.0563  0.0522
   63MOL0     C 8392   0.317   5.514   8.788  0.1046 -0.4380  0.2294
   63MOL0     C 8393   0.208   5.612   8.731  0.0999  0.0910 -0.5476
   63MOL0     O 8394   0.144   5.557   8.615  0.7163 -0.6519 -0.3221
   63MOL0     C 8395   0.008   5.578   8.612 -0.2939  0.3670  1.0795
   63MOL0     C 8396  -0.069   5.482   8.559  0.1640 -0.0736 -0.9005
   63MOL0     C 8397  -0.212   5.479   8.569 -0.1651  0.1907 -0.1595
   63MOL0     C 8398  -0.274   5.347   8.521 -0.2282 -0.2114  0.3724
   63MOL0     C 8399  -0.280   5.598   8.615 -0.4284  0.2678  0.0543
   63MOL0     C 8400  -0.425   5.612   8.608 -0.3196 -0.4574  0.5991
   63MOL0     O 8401  -0.484   5.546   8.506  0.2034  0.5821  0.0660
   63MOL0     C 8402  -0.613   5.507   8.516  0.1013 -0.7430  0.2564
   63MOL0     C 8403  -0.671   5.476   8.641  0.1300  0.3357 -0.4001
   63MOL0     C 8404  -0.805   5.448   8.656 -0.0393  1.5252 -0.1481
   63MOL0     C 8405  -0.879   5.441   8.535  0.0467 -0.0946  0.1498
   63MOL0     O 8406  -1.014   5.419   8.545 -0.4964 -0.7099 -0.6416
   63MOL0     C 8407  -1.057   5.291   8.596 -0.5395 -0.3742 -0.2349
   63MOL0     C 8408  -1.032   5.196   8.479 -0.2958 -0.4568  1.0931
   63MOL0     C 8409  -1.106   5.231   8.344 -1.1846  0.3499 -0.4811
   63MOL0     C 8410  -1.078   5.136   8.224  0.5999  0.1380 -0.1852
   63MOL0     C 8411  -0.941   5.178   8.170  0.0125  0.1489 -1.1033
   63MOL0     C 8412  -0.908   5.110   8.036 -0.0986  0.8883  0.4635
   63MOL0     C 8413  -0.922   4.957   8.056  0.4233 -0.3828  0.6059
   63MOL0     C 8414  -0.891   4.888   7.922  0.0235 -0.2165 -0.1353
   63MOL0    Cl 8415  -0.911   4.717   7.980  0.2704  0.2937  0.1727
   63MOL0     C 8416  -0.826   5.477   8.416 -0.2502  0.7766 -0.0110
   63MOL0     C 8417  -0.691   5.501   8.399 -0.2768 -0.6608 -0.6716
   63MOL0     O 8418  -0.485   5.692   8.683  0.5201  0.6287 -0.2193
   63MOL0     C 8419  -0.202   5.713   8.654  0.3301 -0.4663  0.2703
   63MOL0     C 8420  -0.057   5.692   8.659  0.5444 -0.1963  0.5146
   63MOL0     N 8421   0.498   5.344   9.225  0.1423  0.0355  1.2285
   63MOL0     N 8422   0.477   5.377   9.341  0.5436  0.8527 -0.4574
   63MOL0     C 8423   0.077   5.089  10.333 -0.7272  0.3399 -0.2850
   63MOL0     C 8424   0.108   5.008  10.456  0.5417 -0.4172  0.0684
   63MOL0     C 8425   0.360   4.963  10.874  0.1442 -0.0548 -0.3991
   63MOL0     C 8426   0.435   5.025  10.977 -0.0125  0.0027 -0.1997
   63MOL0     C 8427   0.478   4.944  11.081  0.6338 -0.2940 -0.6088
   63MOL0     C 8428   0.463   4.803  11.084 -0.3639 -0.9101 -0.3465
   63MOL0     O 8429   0.529   4.727  11.173  0.5264 -0.3561  0.5459
   63MOL0     C 8430   0.656   4.767  11.227  0.2176 -0.6005 -0.4433
   63MOL0     C 8431   0.623   4.814  11.377  0.1188  0.0616 -0.4127
   63MOL0     C 8432   0.591   4.704  11.484  0.6066  0.5147  1.2384
   63MOL0     C 8433   0.441   4.678  11.497  0.0485 -0.0347 -0.2022
   63MOL0     C 8434   0.426   4.575  11.594 -0.1343  0.4465 -0.6771
   63MOL0     C 8435   0.434   4.484  11.678  0.5907 -0.6890  0.0625
   63MOL0     C 8436   0.391   4.745  10.978  0.7738  1.1922  0.4331
   63MOL0     C 8437   0.345   4.829  10.871  0.0377  0.5683  0.8836
   63MOL0     H 8438   0.337   5.213  10.594 -0.3392  1.1180 -1.2869
   63MOL0     H 8439   0.270   5.363  10.409  0.7609 -0.2323  1.0807
   63MOL0     H 8440   0.139   5.462  10.257  0.0595  0.8856 -0.7728
   63MOL0     H 8441   0.288   5.402  10.192 -0.6506  3.0228 -0.6572
   63MOL0     H 8442   0.037   5.463  10.030  1.5617  2.8132 -0.4535
   63MOL0     H 8443   0.175   5.559  10.044  0.8716  0.4177  0.2043
   63MOL0     H 8444   0.325   5.402   9.942 -0.4068 -1.3338 -1.4658
   63MOL0     H 8445   0.204   5.272   9.957 -2.6702 -1.0125 -0.8301
   63MOL0     H 8446   0.223   5.336   9.717 -1.5615 -1.4108 -0.0367
   63MOL0     H 8447   0.069   5.393   9.771 -0.4568 -1.4897  3.1026
   63MOL0     H 8448   0.174   5.610   9.836  0.2617  0.1580  0.6515
   63MOL0     H 8449   0.330   5.575   9.767  0.4392 -1.8992  1.9688
   63MOL0     H 8450   0.066   5.615   9.636  0.3964 -0.6176  0.9540
   63MOL0     H 8451   0.209   5.725   9.618  0.7923  0.4312 -1.5475
   63MOL0     H 8452   0.176   5.446   9.476 -1.8066  1.1727 -1.8243
   63MOL0     H 8453   0.170   5.605   9.397  1.5456 -1.6537 -2.3880
   63MOL0     H 8454   0.425   5.520   9.544  0.8870  1.2105 -0.2008
   63MOL0     H 8455   0.377   5.668   9.465 -2.5148  0.1452  4.0847
   63MOL0     H 8456   0.371   5.645   9.185  2.0029 -0.9497 -2.3220
   63MOL0     H 8457   0.527   5.491   8.948  0.2545  2.6334  2.2422
   63MOL0     H 8458   0.430   5.340   8.963  0.7021  1.6172 -2.1689
   63MOL0     H 8459   0.346   5.629   8.960  0.1320 -0.0074  0.2083
   63MOL0     H 8460   0.237   5.492   8.993  1.0566 -1.1522  1.7400
   63MOL0     H 8461   0.286   5.414   8.757 -0.3315 -0.8024  1.7151
   63MOL0     H 8462   0.415   5.533   8.744  1.1455 -0.5438  2.3772
   63MOL0     H 8463   0.257   5.708   8.713 -0.8482  1.1346  2.0160
   63MOL0     H 8464   0.139   5.624   8.815  1.9860  2.5663  0.8069
   63MOL0     H 8465  -0.016   5.394   8.522 -0.0653 -1.8238  2.5165
   63MOL0     H 8466  -0.196   5.270   8.522 -0.2762 -0.3151 -1.4018
   63MOL0     H 8467  -0.361   5.314   8.579  0.1827 -0.0272  1.1010
   63MOL0     H 8468  -0.299   5.360   8.416  1.4567  0.6288  0.0406
   63MOL0     H 8469  -0.609   5.457   8.728  1.5466 -0.6556 -1.5693
   63MOL0     H 8470  -0.852   5.429   8.753  0.4178  0.3943 -0.1336
   63MOL0     H 8471  -1.006   5.264   8.690  0.7467  0.6608 -0.6108
   63MOL0     H 8472  -1.165   5.297   8.611 -0.1770 -0.5004  3.6549
   63MOL0     H 8473  -0.925   5.198   8.455 -0.5343  1.9001 -0.0354
   63MOL0     H 8474  -1.069   5.096   8.503  1.6001 -1.6953 -0.7764
   63MOL0     H 8475  -1.081   5.335   8.322 -0.6233  0.4481  0.5526
   63MOL0     H 8476  -1.213   5.220   8.365 -1.2540  1.2468 -0.3005
   63MOL0     H 8477  -1.084   5.032   8.257 -2.4617 -0.1918 -1.4712
   63MOL0     H 8478  -1.151   5.156   8.146  0.8497  1.2573 -0.1564
   63MOL0     H 8479  -0.861   5.166   8.244 -0.4204  2.7209 -0.1125
   63MOL0     H 8480  -0.946   5.284   8.147 -1.1732  0.2637 -0.3582
   63MOL0     H 8481  -0.985   5.136   7.963 -1.8899 -1.1161  1.5163
   63MOL0     H 8482  -0.805   5.128   8.003 -0.5849  2.7388 -0.1650
   63MOL0     H 8483  -1.023   4.934   8.089  0.5221 -1.5975  0.1258
   63MOL0     H 8484  -0.845   4.929   8.129  2.2243 -1.2529 -1.5198
   63MOL0     H 8485  -0.791   4.909   7.884 -0.6122 -1.3785 -2.6825
   63MOL0     H 8486  -0.966   4.918   7.849 -0.6799 -1.7659 -0.1027
   63MOL0     H 8487  -0.892   5.475   8.330  1.2985  1.0137 -1.2655
   63MOL0     H 8488  -0.653   5.515   8.298  1.4727 -2.0006 -0.2557
   63MOL0     H 8489  -0.256   5.803   8.681  1.1083  0.6496 -1.7121
   63MOL0     H 8490   0.005   5.772   8.698 -0.4369  1.8708 -1.8283
   63MOL0     H 8491   0.000   5.049  10.268 -0.1866  1.6785 -1.7803
   63MOL0     H 8492   0.075   4.906  10.472  2.6808 -1.1260  0.3286
   63MOL0     H 8493   0.434   5.132  10.994 -2.3693  0.1510 -0.7785
   63MOL0     H 8494   0.525   4.996  11.164 -0.4338  0.7841 -0.6689
   63MOL0     H 8495   0.736   4.693  11.228  0.8160 -0.0227  2.1600
   63MOL0     H 8496   0.705   4.846  11.169  1.4142 -0.7974  0.2619
   63MOL0     H 8497   0.538   4.883  11.374 -1.3428 -1.5214  1.7135
   63MOL0     H 8498   0.713   4.859  11.421 -0.6172 -0.0352  1.2551
   63MOL0     H 8499   0.636   4.712  11.584  0.4058 -2.7085  1.7090
   63MOL0     H 8500   0.625   4.607  11.448 -0.9034  0.6372 -0.7078
   63MOL0     H 8501   0.406   4.642  11.400 -0.2467 -1.9916  0.5890
   63MOL0     H 8502   0.386   4.764  11.536 -2.1809 -2.8137  3.4836
   63MOL0     H 8503   0.467   4.417  11.755  1.5465 -0.4343 -0.1033
   63MOL0     H 8504   0.377   4.638  10.986 -1.3810  1.5459  3.7764
   63MOL0     H 8505   0.290   4.790  10.786  2.4454  0.0607 -0.5446
   64MOL0     O 8506   5.684   6.345   7.780  0.2017 -0.3074 -0.7441
   64MOL0     C 8507   5.701   6.299   7.892 -0.7163 -0.7411 -0.7157
   64MOL0     O 8508   5.608   6.282   7.986 -0.1478 -0.4522 -0.3750
   64MOL0     C 8509   5.478   6.299   7.950 -0.2152 -0.0176  0.0270
   64MOL0     C 8510   5.398   6.374   8.032  0.0737  0.5471 -0.3320
   64MOL0     C 8511   5.265   6.399   8.008  0.2087 -0.0398  0.3309
   64MOL0     C 8512   5.214   6.350   7.886  0.3059 -0.5089 -0.0708
   64MOL0     O 8513   5.083   6.372   7.850  0.5250 -0.3584  0.8971
   64MOL0     C 8514   5.019   6.499   7.884 -0.4854  0.3810  0.6518
   64MOL0     C 8515   4.897   6.512   7.778 -0.7948  0.9562 -0.7031
   64MOL0     C 8516   4.801   6.620   7.829 -0.6251  0.5563 -0.1513
   64MOL0     C 8517   4.676   6.623   7.737  1.0750 -0.0518 -0.7985
   64MOL0     C 8518   4.563   6.710   7.799 -0.0522 -0.0807 -0.3447
   64MOL0     C 8519   4.461   6.733   7.692  0.1187  0.0587  0.0448
   64MOL0     C 8520   4.327   6.798   7.741 -0.1845 -0.8091 -0.4038
   64MOL0     C 8521   4.355   6.934   7.819  0.1060 -1.1436  0.3415
   64MOL0     N 8522   4.235   7.006   7.832  0.4327 -1.3104 -0.3648
   64MOL0     C 8523   4.145   6.985   7.929  0.3512  0.7974 -1.1594
   64MOL0     C 8524   4.055   7.081   7.913 -0.0824 -0.0586 -0.7347
   64MOL0     C 8525   3.923   7.105   7.996  0.1728 -0.4446  0.9980
   64MOL0     C 8526   3.809   6.988   7.978  0.3024 -0.8730 -0.0484
   64MOL0     C 8527   3.775   6.962   7.831 -0.0158  0.1614  0.4964
   64MOL0     C 8528   3.643   6.894   7.815 -0.6800 -0.6037  0.0069
   64MOL0     O 8529   3.653   6.769   7.875  0.6279  0.1036  0.4430
   64MOL0     C 8530   3.537   6.693   7.894  0.2485  0.0948  0.8225
   64MOL0     C 8531   3.544   6.570   7.954  0.2177  0.1605  0.0557
   64MOL0     C 8532   3.433   6.482   7.961  0.4946  0.1600 -0.1791
   64MOL0     C 8533   3.474   6.344   8.010 -0.0819  0.0160 -0.8190
   64MOL0     C 8534   3.304   6.532   7.923 -0.1024 -0.6735 -0.0641
   64MOL0     C 8535   3.185   6.436   7.908  0.6844 -0.4196 -0.4538
   64MOL0     O 8536   3.104   6.465   7.803 -0.4353  0.0753 -0.0333
   64MOL0     C 8537   2.976   6.421   7.816 -0.4206  0.1025  0.2199
   64MOL0     C 8538   2.872   6.515   7.835 -0.3204 -0.2079 -0.3645
   64MOL0     C 8539   2.741   6.481   7.826 -0.4830  0.1956 -0.8628
   64MOL0     C 8540   2.702   6.348   7.808 -0.0651 -0.5475  0.7021
   64MOL0     O 8541   2.570   6.318   7.790  0.0721 -0.0159 -0.0083
   64MOL0     C 8542   2.534   6.192   7.846 -0.3374  0.0155 -0.0610
   64MOL0     C 8543   2.400   6.132   7.790  0.5050 -0.1150 -0.7210
   64MOL0     C 8544   2.287   6.230   7.806  1.0569 -0.0083 -0.5988
   64MOL0     C 8545   2.163   6.168   7.743  0.2502  0.1374 -0.3046
   64MOL0     C 8546   2.054   6.272   7.767 -0.8591  0.2298 -0.9582
   64MOL0     C 8547   1.924   6.207   7.724 -0.1578 -0.0119 -0.1020
   64MOL0     C 8548   1.808   6.297   7.773  0.1331  0.1212  0.0527
   64MOL0     C 8549   1.773   6.279   7.917 -0.5491 -0.5997  0.1969
   64MOL0    Cl 8550   1.652   6.404   7.965  0.4112  0.1558  0.3511
   64MOL0     C 8551   2.808   6.259   7.782  0.1306  0.3102 -0.0760
   64MOL0     C 8552   2.949   6.287   7.789 -0.5328  0.2312 -0.4540
   64MOL0     O 8553   3.177   6.341   7.988  0.8378 -0.2498 -0.0142
   64MOL0     C 8554   3.290   6.670   7.896 -0.1616  0.3549  0.4440
   64MOL0     C 8555   3.405   6.744   7.882 -0.1907 -0.1151  0.7413
   64MOL0     N 8556   4.093   7.168   7.811 -0.2635 -0.0462  0.4500
   64MOL0     N 8557   4.199   7.119   7.768 -0.0480 -0.9871 -0.1156
   64MOL0     C 8558   5.295   6.279   7.798 -0.7109  0.3940  0.3603
   64MOL0     C 8559   5.428   6.249   7.825 -0.1652 -0.7170 -0.5368
   64MOL0     C 8560   5.840   6.272   7.934 -0.7544 -0.2645  0.0471
   64MOL0     C 8561   5.936   6.240   7.839  0.2855 -0.3877 -0.5838
   64MOL0     C 8562   6.061   6.191   7.882 -1.0050  0.0530  0.2267
   64MOL0     C 8563   6.103   6.191   8.014 -0.1598  0.9591 -0.4250
   64MOL0     O 8564   6.214   6.139   8.073  0.1391  0.2340  0.0942
   64MOL0     C 8565   6.277   6.024   8.019  0.5192  0.2031  0.7620
   64MOL0     C 8566   6.414   5.999   8.081  0.5081  0.2048 -0.1824
   64MOL0     C 8567   6.513   5.939   7.969  0.2891  0.2276 -0.5030
   64MOL0     C 8568   6.656   5.949   8.017  0.6679  0.6445 -0.1163
   64MOL0     C 8569   6.712   6.083   7.998  0.5978 -0.9842  1.1970
   64MOL0     C 8570   6.766   6.191   7.972 -0.0304  0.2159 -0.2151
   64MOL0     C 8571   6.007   6.237   8.105  0.4196 -0.2095 -0.3644
   64MOL0     C 8572   5.877   6.273   8.067 -0.4869 -0.1491  0.8742
   64MOL0     H 8573   5.440   6.410   8.126 -0.5550 -3.6686  1.8146
   64MOL0     H 8574   5.201   6.449   8.080 -0.5347 -0.3251 -0.1154
   64MOL0     H 8575   4.982   6.485   7.986 -1.2888 -3.9027 -0.0453
   64MOL0     H 8576   5.097   6.576   7.880 -1.1038  1.1783  2.7581
   64MOL0     H 8577   4.945   6.538   7.683  3.4807  1.4998  1.3361
   64MOL0     H 8578   4.844   6.420   7.753 -0.2653  0.7814 -1.2153
   64MOL0     H 8579   4.768   6.606   7.932 -0.2959  0.7183 -0.0224
   64MOL0     H 8580   4.856   6.714   7.825  1.2466 -0.5036 -1.0757
   64MOL0     H 8581   4.714   6.657   7.640 -0.1870 -1.7330 -1.9448
   64MOL0     H 8582   4.632   6.524   7.726 -0.8534  0.8553 -1.7740
   64MOL0     H 8583   4.525   6.657   7.887 -0.1946 -1.5186 -1.2473
   64MOL0     H 8584   4.603   6.808   7.827  3.2410 -1.5544  0.5720
   64MOL0     H 8585   4.496   6.802   7.615 -0.0098 -1.5545 -1.5520
   64MOL0     H 8586   4.437   6.640   7.639 -1.4892  0.6650 -0.3474
   64MOL0     H 8587   4.279   6.821   7.645 -0.8486  1.3910  0.4119
   64MOL0     H 8588   4.260   6.744   7.808 -1.6979  2.8063  1.2033
   64MOL0     H 8589   4.424   6.986   7.752 -1.5278  0.5225 -0.1264
   64MOL0     H 8590   4.395   6.913   7.919  1.7839 -0.4465 -0.1463
   64MOL0     H 8591   4.142   6.898   7.994  0.8172  1.1510 -0.6523
   64MOL0     H 8592   3.948   7.115   8.102  0.2907  1.0946  0.8414
   64MOL0     H 8593   3.876   7.197   7.961  0.0062 -1.9423 -3.2069
   64MOL0     H 8594   3.714   7.013   8.026 -0.5218 -0.3638 -1.8593
   64MOL0     H 8595   3.849   6.894   8.019 -2.2243 -2.9333 -1.9438
   64MOL0     H 8596   3.855   6.902   7.788 -1.4109 -1.4533  0.0167
   64MOL0     H 8597   3.762   7.062   7.788 -0.2426  0.6415  1.6345
   64MOL0     H 8598   3.619   6.884   7.709  2.4204  0.1224 -0.8741
   64MOL0     H 8599   3.566   6.962   7.855 -1.5649 -1.8502  0.4851
   64MOL0     H 8600   3.643   6.530   7.972  0.8672  0.6314 -2.1855
   64MOL0     H 8601   3.476   6.338   8.119  1.0688  1.2045 -0.7594
   64MOL0     H 8602   3.417   6.258   7.974  1.8079 -0.6698 -2.2957
   64MOL0     H 8603   3.575   6.314   7.982 -0.7167 -2.2734 -0.8288
   64MOL0     H 8604   2.902   6.618   7.851  1.6698 -1.2312  3.7741
   64MOL0     H 8605   2.661   6.549   7.854 -2.1115 -2.0501  0.2567
   64MOL0     H 8606   2.608   6.111   7.845  0.0884  0.3593 -2.4853
   64MOL0     H 8607   2.513   6.217   7.950  0.2232 -3.9121  1.1474
   64MOL0     H 8608   2.429   6.118   7.686  3.0201  3.8332 -0.7424
   64MOL0     H 8609   2.378   6.033   7.831  1.3055 -1.1497 -2.6752
   64MOL0     H 8610   2.297   6.331   7.766 -1.1176  0.4771 -0.0273
   64MOL0     H 8611   2.270   6.249   7.912 -2.6861 -0.2412 -1.0145
   64MOL0     H 8612   2.166   6.142   7.637 -0.9957 -0.1880 -0.2754
   64MOL0     H 8613   2.144   6.072   7.791 -0.5365 -0.8047 -2.3939
   64MOL0     H 8614   2.068   6.371   7.723 -0.1148  0.1008 -1.0292
   64MOL0     H 8615   2.052   6.297   7.874 -0.9654  2.6153 -1.4623
   64MOL0     H 8616   1.923   6.189   7.616  1.5130 -0.6299 -0.0353
   64MOL0     H 8617   1.930   6.109   7.771  1.4065 -0.2219 -0.6860
   64MOL0     H 8618   1.725   6.272   7.706  1.6149  0.4657 -2.0174
   64MOL0     H 8619   1.833   6.401   7.751  0.5605 -0.1941 -0.9886
   64MOL0     H 8620   1.868   6.297   7.970  1.3179 -0.5006 -2.9194
   64MOL0     H 8621   1.747   6.177   7.945 -0.4895 -0.5606  0.4008
   64MOL0     H 8622   2.782   6.161   7.742 -0.9909  0.4567  0.2820
   64MOL0     H 8623   3.026   6.212   7.776 -0.1891 -0.0356  2.4055
   64MOL0     H 8624   3.194   6.720   7.893  0.2320  1.2176  1.5619
   64MOL0     H 8625   3.379   6.846   7.857 -0.1911 -0.0912  0.8381
   64MOL0     H 8626   5.247   6.262   7.703  3.0678  0.7096 -1.7890
   64MOL0     H 8627   5.498   6.193   7.765  0.0469  0.0460 -1.0085
   64MOL0     H 8628   5.900   6.242   7.737 -2.2113  2.4180  0.2119
   64MOL0     H 8629   6.133   6.155   7.809  0.6282  1.0775  1.2861
   64MOL0     H 8630   6.220   5.930   8.022  0.4995  0.1335 -1.0406
   64MOL0     H 8631   6.295   6.034   7.912 -1.0392 -1.9343  0.2290
   64MOL0     H 8632   6.405   5.927   8.163  4.4585 -1.2905 -0.8138
   64MOL0     H 8633   6.455   6.093   8.118 -0.5943  1.7106 -2.5661
   64MOL0     H 8634   6.503   5.998   7.877 -0.8512 -0.5046 -0.8670
   64MOL0     H 8635   6.487   5.836   7.945  0.9399  0.2965 -1.5743
   64MOL0     H 8636   6.718   5.887   7.952  0.7615 -0.0530  0.6239
   64MOL0     H 8637   6.673   5.921   8.121 -1.9151 -0.1614  0.1447
   64MOL0     H 8638   6.807   6.288   7.952  0.6643 -0.2905 -1.2825
   64MOL0     H 8639   6.043   6.243   8.207  2.1045 -1.1769 -0.8658
   64MOL0     H 8640   5.810   6.316   8.141 -0.0737 -2.4119  2.6838
   65MOL0     O 8641   6.930   5.667   0.478  0.6655 -0.2112  0.1097
   65MOL0     C 8642   6.992   5.756   0.529  1.1804  0.3785 -0.1967
   65MOL0     O 8643   6.944   5.876   0.577 -0.3572  0.4946 -0.6452
   65MOL0     C 8644   6.812   5.908   0.569  0.4475  0.8928  0.3893
   65MOL0     C 8645   6.750   5.970   0.678  0.8938  0.6461 -0.4241
   65MOL0     C 8646   6.616   6.004   0.670 -0.2339  0.2656 -0.9888
   65MOL0     C 8647   6.537   5.970   0.559  0.7564  0.8022  0.6040
   65MOL0     O 8648   6.404   5.995   0.550 -0.0452  0.0689 -0.6553
   65MOL0     C 8649   6.330   5.970   0.672  0.2571  0.3055 -0.6840
   65MOL0     C 8650   6.183   5.958   0.657 -0.3659  1.4204  0.7225
   65MOL0     C 8651   6.106   5.948   0.784 -1.1872 -0.2847 -0.6558
   65MOL0     C 8652   5.954   5.956   0.767  0.0674 -0.1334 -1.1900
   65MOL0     C 8653   5.876   5.903   0.882 -0.0672  0.4843 -0.4879
   65MOL0     C 8654   5.726   5.887   0.838  0.6676 -0.0438  0.0492
   65MOL0     C 8655   5.631   5.821   0.949  0.3083 -0.1474  0.2922
   65MOL0     C 8656   5.491   5.791   0.890 -0.4591 -0.1985  0.3480
   65MOL0     N 8657   5.389   5.751   0.984 -0.9033  0.7332  1.2414
   65MOL0     C 8658   5.282   5.831   1.002 -0.3453 -0.3373 -0.8135
   65MOL0     C 8659   5.226   5.766   1.109 -0.1677  0.1794 -0.9742
   65MOL0     C 8660   5.103   5.808   1.183  0.1626 -0.3333 -0.6676
   65MOL0     C 8661   4.977   5.813   1.097 -0.5392 -0.2801 -0.1775
   65MOL0     C 8662   4.871   5.875   1.179  0.2869 -0.2709  0.3879
   65MOL0     C 8663   4.742   5.891   1.100  0.0762  0.6463  0.4748
   65MOL0     O 8664   4.638   5.962   1.180  0.4410 -0.1065  0.0450
   65MOL0     C 8665   4.555   5.903   1.267 -0.5247 -0.4400  0.2604
   65MOL0     C 8666   4.548   5.767   1.293 -0.5858 -0.0721 -0.5448
   65MOL0     C 8667   4.453   5.707   1.380  1.0988  0.2619  0.3602
   65MOL0     C 8668   4.449   5.548   1.402  0.3573 -0.7824  0.6109
   65MOL0     C 8669   4.355   5.787   1.441  0.0385 -0.9133 -0.3187
   65MOL0     C 8670   4.254   5.748   1.533 -0.7393  0.3669 -1.2288
   65MOL0     O 8671   4.147   5.817   1.542  0.6603  0.3353 -0.1103
   65MOL0     C 8672   4.058   5.804   1.653  0.2985 -0.4387 -0.5597
   65MOL0     C 8673   3.922   5.794   1.613 -0.5534  0.6137  0.4726
   65MOL0     C 8674   3.822   5.782   1.710  0.2781 -1.1489 -0.1660
   65MOL0     C 8675   3.852   5.783   1.849 -0.7132  0.1463 -0.7753
   65MOL0     O 8676   3.741   5.780   1.925 -0.0476 -0.0314  0.6883
   65MOL0     C 8677   3.743   5.788   2.070  0.0182  0.2360 -0.0162
   65MOL0     C 8678   3.609   5.841   2.118 -0.2463 -0.3041 -0.1376
   65MOL0     C 8679   3.609   5.870   2.267 -1.3174  0.2666  0.0680
   65MOL0     C 8680   3.648   5.739   2.349  0.9042 -0.7334  0.1403
   65MOL0     C 8681   3.641   5.771   2.492 -0.2434 -0.6181 -0.3799
   65MOL0     C 8682   3.496   5.788   2.537  0.1421  0.5822  0.2063
   65MOL0     C 8683   3.483   5.898   2.647 -0.5011  0.2701  0.0358
   65MOL0     C 8684   3.443   6.035   2.601 -0.8686  0.3622 -0.2775
   65MOL0    Cl 8685   3.566   6.126   2.509 -0.0125  0.2759 -0.0686
   65MOL0     C 8686   3.988   5.779   1.884 -0.3946 -0.8820  0.1207
   65MOL0     C 8687   4.092   5.796   1.787 -0.0510  0.5529  0.0947
   65MOL0     O 8688   4.277   5.646   1.598  0.1612  0.0251 -0.0193
   65MOL0     C 8689   4.372   5.924   1.424  0.5453 -0.7246 -1.1513
   65MOL0     C 8690   4.467   5.983   1.337  0.3641 -0.0667 -0.5089
   65MOL0     N 8691   5.297   5.647   1.136 -0.1885 -1.0970 -0.0098
   65MOL0     N 8692   5.398   5.634   1.053  0.4514  0.4428 -1.1021
   65MOL0     C 8693   6.607   5.922   0.450 -0.3195  0.3711 -0.0785
   65MOL0     C 8694   6.744   5.886   0.445  1.4605 -0.2500  0.3844
   65MOL0     C 8695   7.136   5.736   0.550  0.5359 -0.2794  0.6614
   65MOL0     C 8696   7.211   5.827   0.615 -0.3930  1.1396  0.1204
   65MOL0     C 8697   7.339   5.795   0.654  0.5015  0.2370 -0.1627
   65MOL0     C 8698   7.401   5.677   0.625 -0.3429 -0.5730  0.4735
   65MOL0     O 8699   7.523   5.643   0.652 -0.3326  0.3197 -0.1314
   65MOL0     C 8700   7.632   5.731   0.691 -0.5403  0.0096  0.7118
   65MOL0     C 8701   7.754   5.642   0.734  0.0427 -1.1769 -0.0324
   65MOL0     C 8702   7.709   5.540   0.847 -0.0360  0.3077  0.3487
   65MOL0     C 8703   7.813   5.431   0.879 -0.0380 -0.6374  0.2008
   65MOL0     C 8704   7.763   5.329   0.973  0.3237  0.7262  0.8951
   65MOL0     C 8705   7.702   5.252   1.040  0.7480 -0.0764 -0.1462
   65MOL0     C 8706   7.327   5.580   0.555  0.5794 -0.1126  0.1746
   65MOL0     C 8707   7.191   5.611   0.523 -0.6218  0.2144 -0.0418
   65MOL0     H 8708   6.810   5.988   0.767  1.1631 -2.2608  0.0634
   65MOL0     H 8709   6.563   6.048   0.754 -1.3793 -0.7158 -1.1620
   65MOL0     H 8710   6.367   5.883   0.727  0.1227 -0.8984 -2.4033
   65MOL0     H 8711   6.342   6.055   0.740  0.3113 -1.3185  1.4301
   65MOL0     H 8712   6.152   6.043   0.595  0.9977  0.5235 -1.2934
   65MOL0     H 8713   6.160   5.867   0.600  1.7070  1.2796  0.0409
   65MOL0     H 8714   6.136   5.853   0.830 -0.2616  1.5066  2.7795
   65MOL0     H 8715   6.140   6.020   0.860 -0.8369 -0.7279 -0.3839
   65MOL0     H 8716   5.932   6.061   0.748  0.5261 -0.1100 -1.6446
   65MOL0     H 8717   5.920   5.906   0.675 -1.3607  3.0802 -2.5759
   65MOL0     H 8718   5.910   5.801   0.902  0.1931  0.7452  0.4570
   65MOL0     H 8719   5.873   5.971   0.968 -0.0238  0.0123 -0.1092
   65MOL0     H 8720   5.700   5.991   0.816 -0.7315 -0.8274 -2.2869
   65MOL0     H 8721   5.712   5.824   0.750  1.1810  1.7276 -1.3768
   65MOL0     H 8722   5.676   5.726   0.980 -1.5783 -1.3476 -0.4405
   65MOL0     H 8723   5.632   5.886   1.036  1.6927  2.2728 -1.4180
   65MOL0     H 8724   5.504   5.714   0.813 -1.0936  0.8556 -0.8584
   65MOL0     H 8725   5.470   5.888   0.844  1.3822 -0.0259 -0.2019
   65MOL0     H 8726   5.264   5.925   0.950  2.1068  0.0045 -1.1591
   65MOL0     H 8727   5.091   5.730   1.259 -1.4573 -1.0454 -1.5989
   65MOL0     H 8728   5.123   5.905   1.230  1.2023 -1.0593  0.4509
   65MOL0     H 8729   4.954   5.707   1.081 -0.6041 -0.3710  0.4863
   65MOL0     H 8730   4.985   5.866   1.001 -1.4757  0.0211 -0.0926
   65MOL0     H 8731   4.904   5.973   1.216  2.3112 -0.9911  0.5954
   65MOL0     H 8732   4.852   5.808   1.262  2.7207 -4.1317 -1.8679
   65MOL0     H 8733   4.706   5.801   1.051  1.0811  1.1204 -1.2084
   65MOL0     H 8734   4.768   5.957   1.017 -1.6885  0.8726  0.0684
   65MOL0     H 8735   4.615   5.694   1.249 -0.0695 -1.8458  2.8056
   65MOL0     H 8736   4.519   5.496   1.336  1.5356  0.5169  0.8033
   65MOL0     H 8737   4.488   5.544   1.504  0.1712  1.1211  0.7919
   65MOL0     H 8738   4.346   5.515   1.384  0.2040 -0.4457  0.8712
   65MOL0     H 8739   3.890   5.802   1.509 -0.1922  0.8863  0.3777
   65MOL0     H 8740   3.721   5.776   1.671 -0.1295  0.2719  0.6110
   65MOL0     H 8741   3.750   5.689   2.116 -1.3310 -0.6043 -1.5036
   65MOL0     H 8742   3.801   5.875   2.100 -0.2588  1.0128 -1.6158
   65MOL0     H 8743   3.580   5.929   2.061  1.8007 -0.5439 -1.6460
   65MOL0     H 8744   3.528   5.768   2.105 -1.4895  1.0904 -0.5204
   65MOL0     H 8745   3.513   5.914   2.296 -0.8770 -0.2544  2.5631
   65MOL0     H 8746   3.687   5.943   2.288 -0.3431 -1.2942  2.1679
   65MOL0     H 8747   3.579   5.658   2.322 -0.4334  0.7800 -1.1864
   65MOL0     H 8748   3.751   5.709   2.328  1.3872 -0.5944  2.1211
   65MOL0     H 8749   3.693   5.867   2.498  0.4209 -0.7747 -2.7717
   65MOL0     H 8750   3.694   5.695   2.550 -1.1352 -1.3233 -0.4722
   65MOL0     H 8751   3.421   5.807   2.459 -3.0576 -2.3631  2.2665
   65MOL0     H 8752   3.446   5.702   2.583  1.4668  0.6405  1.8556
   65MOL0     H 8753   3.577   5.907   2.702  0.1128  0.2989 -0.9985
   65MOL0     H 8754   3.414   5.865   2.726  1.2798  3.8307  3.4245
   65MOL0     H 8755   3.431   6.097   2.690  1.1346  0.3383  0.0533
   65MOL0     H 8756   3.344   6.027   2.555 -1.0637  0.3490  0.1373
   65MOL0     H 8757   4.022   5.779   1.987  1.0252  1.3845 -0.2783
   65MOL0     H 8758   4.191   5.798   1.831  0.8518  0.7889 -1.8413
   65MOL0     H 8759   4.308   5.996   1.475  1.4977 -0.8289  0.2336
   65MOL0     H 8760   4.483   6.090   1.332 -0.3263  0.1243  0.8840
   65MOL0     H 8761   6.545   5.898   0.364 -1.3955  0.1625  0.7249
   65MOL0     H 8762   6.798   5.843   0.361 -0.3505  1.6294 -1.9147
   65MOL0     H 8763   7.170   5.914   0.666 -1.8638 -0.2852  1.5257
   65MOL0     H 8764   7.396   5.868   0.711  1.7290  0.3212 -1.4293
   65MOL0     H 8765   7.665   5.790   0.605  0.8521 -2.6885 -0.7557
   65MOL0     H 8766   7.608   5.798   0.773 -1.5742 -0.4271  0.7957
   65MOL0     H 8767   7.837   5.707   0.762 -0.4029  0.5700 -2.4339
   65MOL0     H 8768   7.792   5.588   0.648 -2.0545 -0.3574 -1.5637
   65MOL0     H 8769   7.620   5.486   0.813  1.1863 -0.2640 -2.1890
   65MOL0     H 8770   7.687   5.604   0.933  2.0680  0.0417  1.1603
   65MOL0     H 8771   7.900   5.474   0.929 -1.6979  1.5784  1.3057
   65MOL0     H 8772   7.853   5.385   0.788  1.0536  1.6511 -0.5330
   65MOL0     H 8773   7.651   5.182   1.104  2.4738  0.7592  2.2872
   65MOL0     H 8774   7.357   5.480   0.524 -1.5253 -0.0053 -2.6122
   65MOL0     H 8775   7.130   5.534   0.476 -1.2761  0.0174  1.0824
   66MOL0     O 8776   8.902   5.261   2.705  0.1494 -0.6232  0.4282
   66MOL0     C 8777   8.964   5.171   2.658 -0.0153 -0.1719 -0.1253
   66MOL0     O 8778   8.930   5.098   2.546  0.5690 -0.1422 -0.0718
   66MOL0     C 8779   8.814   5.111   2.486  0.4130 -0.0578 -1.0455
   66MOL0     C 8780   8.691   5.180   2.521 -0.6489  0.2078  0.4320
   66MOL0     C 8781   8.581   5.178   2.447  0.4407  0.2217 -0.2152
   66MOL0     C 8782   8.573   5.094   2.335 -0.0844  0.0528 -0.5897
   66MOL0     O 8783   8.466   5.074   2.253  0.3865  0.0916  1.1274
   66MOL0     C 8784   8.342   5.114   2.313  0.6576 -0.6902  0.1252
   66MOL0     C 8785   8.220   5.059   2.231  0.0909  0.2689  0.2107
   66MOL0     C 8786   8.085   5.067   2.304  0.1241 -1.3248  0.2265
   66MOL0     C 8787   7.970   5.069   2.203 -0.2750 -0.7901  0.3433
   66MOL0     C 8788   7.845   5.127   2.261  0.3006  0.1533  0.3895
   66MOL0     C 8789   7.724   5.075   2.185 -0.4337 -0.6573 -0.3643
   66MOL0     C 8790   7.607   5.137   2.264  0.5952 -0.2654 -0.2207
   66MOL0     C 8791   7.472   5.072   2.226  0.8273 -0.4364  0.2113
   66MOL0     N 8792   7.373   5.075   2.336  0.0611 -0.5432 -0.0170
   66MOL0     C 8793   7.338   4.968   2.424  0.1509  0.1809  0.8480
   66MOL0     C 8794   7.234   5.015   2.495  1.0495  0.5444  0.1614
   66MOL0     C 8795   7.157   4.918   2.589 -0.3527 -0.4251 -0.3515
   66MOL0     C 8796   7.006   4.908   2.567 -0.1604  0.0511 -0.6910
   66MOL0     C 8797   6.955   4.792   2.653  0.8197 -0.7852 -0.0325
   66MOL0     C 8798   6.809   4.791   2.666  0.2521  0.3369  0.3612
   66MOL0     O 8799   6.756   4.663   2.706 -0.2046 -0.6936 -0.0954
   66MOL0     C 8800   6.622   4.648   2.724  0.9311  0.0825 -0.1287
   66MOL0     C 8801   6.579   4.519   2.729  0.3842 -0.8945 -0.2797
   66MOL0     C 8802   6.437   4.490   2.753  0.1664 -0.6594  0.0380
   66MOL0     C 8803   6.406   4.346   2.770 -0.0810  0.7342  0.2450
   66MOL0     C 8804   6.344   4.600   2.752  0.8768  0.8794 -0.8262
   66MOL0     C 8805   6.195   4.586   2.773  0.2137  0.8696 -0.1212
   66MOL0     O 8806   6.125   4.701   2.737  0.1571  0.5323  0.3556
   66MOL0     C 8807   5.995   4.690   2.770  0.5882  0.1496  0.1930
   66MOL0     C 8808   5.947   4.766   2.875 -0.3359 -0.7106 -0.5711
   66MOL0     C 8809   5.813   4.766   2.910 -0.0433  0.4420  0.5634
   66MOL0     C 8810   5.720   4.682   2.848 -0.1684 -0.4239  0.5140
   66MOL0     O 8811   5.593   4.687   2.894 -0.1441 -0.5429 -0.0465
   66MOL0     C 8812   5.494   4.640   2.813  0.4376  0.0200 -0.4004
   66MOL0     C 8813   5.378   4.608   2.900 -0.2183 -0.1622 -0.1532
   66MOL0     C 8814   5.279   4.729   2.891 -0.6140 -0.8986 -0.4154
   66MOL0     C 8815   5.139   4.710   2.953 -0.7506  0.4014  0.4863
   66MOL0     C 8816   5.040   4.789   2.868 -0.7193 -0.3044  0.3761
   66MOL0     C 8817   5.052   4.938   2.889  0.6921  0.3799 -0.5194
   66MOL0     C 8818   4.943   5.023   2.808  0.8428 -0.1812 -0.4385
   66MOL0     C 8819   4.797   4.970   2.823 -0.2255  0.0456 -0.5286
   66MOL0    Cl 8820   4.719   5.042   2.968 -0.7052 -0.5316  0.2983
   66MOL0     C 8821   5.770   4.604   2.733 -0.0561  0.5745  0.1315
   66MOL0     C 8822   5.907   4.614   2.695 -0.1515 -0.5098 -0.8459
   66MOL0     O 8823   6.145   4.479   2.810  0.6861 -0.2188  0.6941
   66MOL0     C 8824   6.394   4.732   2.740 -0.3000  0.2588  0.3664
   66MOL0     C 8825   6.533   4.750   2.723  0.1503  0.1093  0.5306
   66MOL0     N 8826   7.216   5.142   2.465  0.7375  0.0958 -0.0770
   66MOL0     N 8827   7.286   5.175   2.364  0.4083 -0.5715 -0.2446
   66MOL0     C 8828   8.682   5.014   2.309  0.3041  0.1022  0.5044
   66MOL0     C 8829   8.803   5.026   2.378  0.2677  0.0638  0.2103
   66MOL0     C 8830   9.098   5.116   2.720  0.1207  0.1135 -1.1507
   66MOL0     C 8831   9.149   4.994   2.685 -0.3316  0.2541 -2.2371
   66MOL0     C 8832   9.281   4.956   2.736  0.1242 -0.3260  0.4246
   66MOL0     C 8833   9.351   5.043   2.821 -0.0224  0.3016 -0.8242
   66MOL0     O 8834   9.471   5.003   2.877  0.0505 -0.4976  0.0093
   66MOL0     C 8835   9.501   5.024   3.018  0.5349  0.2693 -0.4642
   66MOL0     C 8836   9.581   5.154   3.031  0.2730  0.4943 -1.2647
   66MOL0     C 8837   9.707   5.133   3.122  0.2018 -0.8448 -0.6435
   66MOL0     C 8838   9.791   5.268   3.120 -0.2483 -0.0255  0.0290
   66MOL0     C 8839   9.737   5.379   3.205 -0.2822  0.6870 -0.3203
   66MOL0     C 8840   9.714   5.477   3.273  0.5085 -0.7839  0.1741
   66MOL0     C 8841   9.293   5.159   2.860  0.8651  0.3567  0.3886
   66MOL0     C 8842   9.166   5.195   2.810  0.6281 -0.1703 -0.8134
   66MOL0     H 8843   8.675   5.239   2.611  0.1144  1.9714 -0.5407
   66MOL0     H 8844   8.500   5.244   2.476  0.8374  1.0323 -0.9141
   66MOL0     H 8845   8.327   5.080   2.416  0.6565  0.5190  0.5351
   66MOL0     H 8846   8.338   5.222   2.329 -1.6568 -0.7703  0.4132
   66MOL0     H 8847   8.211   5.107   2.133  2.2447 -0.2528 -0.3039
   66MOL0     H 8848   8.240   4.957   2.198 -0.0568  0.5054 -0.6346
   66MOL0     H 8849   8.076   4.984   2.374  0.0538 -0.2734  1.5028
   66MOL0     H 8850   8.077   5.162   2.358 -0.6645 -1.6477  0.6842
   66MOL0     H 8851   7.985   5.126   2.111  2.1767  0.1222  1.2330
   66MOL0     H 8852   7.946   4.968   2.168 -1.1217 -0.7548  0.7900
   66MOL0     H 8853   7.821   5.097   2.363 -2.9252  4.4152  1.1400
   66MOL0     H 8854   7.855   5.235   2.249 -0.7892  0.2064 -0.1320
   66MOL0     H 8855   7.725   5.117   2.084 -2.2590  1.1119  0.2772
   66MOL0     H 8856   7.720   4.967   2.198 -0.0769 -0.4637  1.7352
   66MOL0     H 8857   7.618   5.115   2.371 -4.1761  1.1460  0.8165
   66MOL0     H 8858   7.594   5.245   2.247 -1.0642 -0.3803  0.1117
   66MOL0     H 8859   7.491   4.967   2.201  0.9006 -0.4017  0.1164
   66MOL0     H 8860   7.429   5.127   2.141 -3.6025 -0.4730  2.1635
   66MOL0     H 8861   7.367   4.863   2.424 -0.5563 -0.0652 -1.4749
   66MOL0     H 8862   7.207   4.821   2.584  0.7234  0.1667 -2.7744
   66MOL0     H 8863   7.167   4.950   2.693 -0.3276  0.5763 -0.6524
   66MOL0     H 8864   6.980   4.878   2.465  1.5702 -1.0810 -0.8452
   66MOL0     H 8865   6.954   5.001   2.591 -1.8354 -1.1232  0.4210
   66MOL0     H 8866   6.989   4.812   2.755 -1.6444  1.9201  0.3910
   66MOL0     H 8867   6.999   4.694   2.631  1.4744 -0.7066  0.8728
   66MOL0     H 8868   6.770   4.810   2.566  1.1586 -2.7748 -0.6947
   66MOL0     H 8869   6.768   4.869   2.731  2.0483 -0.3116  2.3704
   66MOL0     H 8870   6.638   4.429   2.716 -0.1891 -1.0720 -1.9383
   66MOL0     H 8871   6.346   4.340   2.860  1.9450 -1.7094  1.5749
   66MOL0     H 8872   6.351   4.310   2.682 -0.5908  1.3927  0.2859
   66MOL0     H 8873   6.498   4.286   2.775  0.9225  1.9928 -1.6808
   66MOL0     H 8874   6.023   4.824   2.926  0.5936 -1.8498 -0.6303
   66MOL0     H 8875   5.786   4.818   3.002 -0.6374 -0.9358  1.2059
   66MOL0     H 8876   5.462   4.708   2.733 -1.1489  0.1786  0.3323
   66MOL0     H 8877   5.513   4.539   2.774 -0.2782 -0.1971 -0.2039
   66MOL0     H 8878   5.333   4.513   2.871  1.8839 -2.0289  2.1885
   66MOL0     H 8879   5.416   4.603   3.003  0.1264  2.3100 -0.0899
   66MOL0     H 8880   5.273   4.763   2.788 -3.5831 -0.8743 -0.3111
   66MOL0     H 8881   5.330   4.807   2.950 -4.4125  1.0779  0.5739
   66MOL0     H 8882   5.112   4.605   2.954  1.7118 -0.3073  1.1207
   66MOL0     H 8883   5.144   4.745   3.057  1.0221  3.0168 -0.3607
   66MOL0     H 8884   4.938   4.759   2.894 -0.9252 -2.5956 -2.5880
   66MOL0     H 8885   5.051   4.775   2.760 -2.1804  2.0865 -0.1785
   66MOL0     H 8886   5.048   4.966   2.994  4.0048  3.1683 -0.9558
   66MOL0     H 8887   5.151   4.969   2.854  1.3234 -2.6807 -1.7616
   66MOL0     H 8888   4.971   5.022   2.702  0.6273 -1.2254 -0.4956
   66MOL0     H 8889   4.941   5.123   2.852  1.7175 -0.2166 -0.2986
   66MOL0     H 8890   4.784   4.862   2.810 -0.5673  0.3012 -2.6425
   66MOL0     H 8891   4.739   5.010   2.739  2.1824  0.7463 -1.9321
   66MOL0     H 8892   5.709   4.535   2.676 -3.5040  4.4420 -1.4642
   66MOL0     H 8893   5.945   4.560   2.609 -1.4602 -1.5432 -0.8035
   66MOL0     H 8894   6.345   4.828   2.736  0.7617  0.7841 -2.8463
   66MOL0     H 8895   6.561   4.853   2.703  0.7321 -0.2190 -0.4284
   66MOL0     H 8896   8.668   4.953   2.221 -0.8037  3.6456 -1.9908
   66MOL0     H 8897   8.893   4.975   2.348  1.4179  1.6338  0.8653
   66MOL0     H 8898   9.101   4.927   2.614  1.5862 -0.6642 -2.7478
   66MOL0     H 8899   9.332   4.863   2.714  1.9266  0.2273  2.0011
   66MOL0     H 8900   9.417   5.031   3.088  0.9810 -2.1693  0.4208
   66MOL0     H 8901   9.558   4.936   3.049 -1.1746 -1.2735 -1.5316
   66MOL0     H 8902   9.522   5.238   3.068 -2.9337 -1.9906 -0.3032
   66MOL0     H 8903   9.614   5.166   2.927 -0.9344  0.3797 -1.6807
   66MOL0     H 8904   9.776   5.058   3.081  3.3080  0.9211  0.9985
   66MOL0     H 8905   9.682   5.091   3.220 -3.7981  0.8959 -0.7188
   66MOL0     H 8906   9.797   5.294   3.014 -0.4404 -2.0469 -0.5139
   66MOL0     H 8907   9.896   5.245   3.141  0.5339 -0.5484 -3.7349
   66MOL0     H 8908   9.690   5.569   3.321 -0.7900  0.6165 -2.8766
   66MOL0     H 8909   9.352   5.222   2.925 -1.2499  1.2278  1.5739
   66MOL0     H 8910   9.125   5.295   2.820 -3.2934 -1.6782  0.2139
   67MOL0     O 8911  10.291   3.574   2.816 -0.0894  0.6439 -0.1902
   67MOL0     C 8912  10.277   3.478   2.891  1.0700 -1.2236 -0.1331
   67MOL0     O 8913  10.155   3.409   2.911  0.2440  0.5826  0.0056
   67MOL0     C 8914  10.050   3.446   2.827  0.0500  0.3426  0.7496
   67MOL0     C 8915   9.959   3.529   2.883  0.3823  1.3231  0.2308
   67MOL0     C 8916   9.849   3.575   2.810  0.3923  0.1786  0.1248
   67MOL0     C 8917   9.822   3.526   2.680 -0.2408 -0.4927  0.3405
   67MOL0     O 8918   9.713   3.563   2.609  0.3923  0.2598 -0.1933
   67MOL0     C 8919   9.651   3.450   2.553  0.0869 -0.7400 -0.8479
   67MOL0     C 8920   9.519   3.472   2.509  0.6152 -0.3503  1.0772
   67MOL0     C 8921   9.416   3.456   2.622 -0.6684 -0.9748 -0.2008
   67MOL0     C 8922   9.272   3.496   2.577 -0.2822 -0.8958  1.0132
   67MOL0     C 8923   9.164   3.507   2.683 -0.5975 -1.3573  0.0895
   67MOL0     C 8924   9.032   3.503   2.623 -0.1506  0.0908 -0.1430
   67MOL0     C 8925   8.914   3.509   2.723 -0.2481 -0.2831 -0.7051
   67MOL0     C 8926   8.788   3.502   2.626 -0.0278  0.0917  0.0055
   67MOL0     N 8927   8.679   3.540   2.711  0.4317  0.2296  0.2993
   67MOL0     C 8928   8.625   3.661   2.748 -0.9369 -0.5325  0.6144
   67MOL0     C 8929   8.523   3.634   2.834  0.0096  0.0338 -0.2223
   67MOL0     C 8930   8.433   3.729   2.900  0.1180  0.6619 -0.2374
   67MOL0     C 8931   8.323   3.795   2.812 -0.3017 -0.7966  0.2245
   67MOL0     C 8932   8.200   3.713   2.785  0.4514 -0.0515  0.8368
   67MOL0     C 8933   8.135   3.651   2.908  0.3781 -0.3805  0.2302
   67MOL0     O 8934   8.017   3.578   2.876 -0.1888  0.1068 -0.3658
   67MOL0     C 8935   7.888   3.636   2.904  0.3297  0.0794  0.3403
   67MOL0     C 8936   7.779   3.554   2.878  0.6825  0.6861 -0.9257
   67MOL0     C 8937   7.647   3.597   2.869  0.4358  1.0737 -0.9907
   67MOL0     C 8938   7.541   3.496   2.835  0.4877 -0.3437  0.5083
   67MOL0     C 8939   7.626   3.732   2.903  0.0506  0.4388 -0.0559
   67MOL0     C 8940   7.485   3.791   2.925 -0.1407 -0.2157  0.3455
   67MOL0     O 8941   7.388   3.700   2.958  0.0361 -0.2922 -0.7857
   67MOL0     C 8942   7.261   3.747   2.980 -0.1472  0.5501  0.4246
   67MOL0     C 8943   7.169   3.748   2.873  0.6185  0.0162 -0.2647
   67MOL0     C 8944   7.027   3.766   2.903 -0.2616  0.4431  0.3016
   67MOL0     C 8945   6.988   3.769   3.031  0.0517  0.3214 -0.5800
   67MOL0     O 8946   6.853   3.764   3.071  0.3330 -0.2338 -0.8430
   67MOL0     C 8947   6.739   3.743   2.984 -0.5701 -0.0077 -0.4333
   67MOL0     C 8948   6.615   3.750   3.076  0.4089 -0.5851 -0.1123
   67MOL0     C 8949   6.487   3.709   3.003 -0.2932 -0.8505 -0.1198
   67MOL0     C 8950   6.372   3.723   3.095  0.4848  0.2406 -0.1953
   67MOL0     C 8951   6.239   3.709   3.023 -0.3124 -0.0795  0.8025
   67MOL0     C 8952   6.122   3.775   3.106  0.1848 -0.2520 -0.5469
   67MOL0     C 8953   5.978   3.763   3.045  0.0558  0.2616 -0.3744
   67MOL0     C 8954   5.880   3.830   3.132 -0.2196 -0.8828 -0.5443
   67MOL0    Cl 8955   5.870   3.739   3.289 -0.3282  0.0281  0.2741
   67MOL0     C 8956   7.079   3.783   3.131 -0.6316  0.1659  0.1148
   67MOL0     C 8957   7.212   3.769   3.112 -0.5197 -0.7492 -1.7468
   67MOL0     O 8958   7.462   3.905   2.889 -0.1158 -0.3320  0.2485
   67MOL0     C 8959   7.731   3.823   2.932  0.2639  0.4186 -0.3387
   67MOL0     C 8960   7.863   3.771   2.924 -0.9071 -0.4223  0.1386
   67MOL0     N 8961   8.510   3.496   2.839  0.3752 -0.3694 -0.1105
   67MOL0     N 8962   8.602   3.446   2.761 -0.3445 -0.3635 -0.2586
   67MOL0     C 8963   9.922   3.437   2.631  0.7491 -1.0432  0.2550
   67MOL0     C 8964  10.037   3.388   2.700  0.5247 -0.3554 -0.3826
   67MOL0     C 8965  10.393   3.429   2.965 -0.1471 -0.1404 -0.1709
   67MOL0     C 8966  10.509   3.498   2.928 -0.1740  0.1809  0.3826
   67MOL0     C 8967  10.631   3.460   2.977  0.5443  0.0437  0.0654
   67MOL0     C 8968  10.646   3.347   3.066  0.0198 -0.1898 -0.0165
   67MOL0     O 8969  10.767   3.312   3.114  0.6280 -0.1699 -1.0181
   67MOL0     C 8970  10.789   3.375   3.240  0.1329 -0.3954 -0.2134
   67MOL0     C 8971  10.916   3.339   3.312 -0.2059  0.1739  0.6459
   67MOL0     C 8972  10.949   3.193   3.321  0.2139 -0.5548 -0.1155
   67MOL0     C 8973  10.831   3.123   3.390  0.3151  0.3705 -0.1296
   67MOL0     C 8974  10.860   2.974   3.389  0.3335 -0.3066 -0.1308
   67MOL0     C 8975  10.888   2.857   3.369 -0.6147 -0.0637 -0.4873
   67MOL0     C 8976  10.521   3.292   3.113  0.1983  0.1551  0.4907
   67MOL0     C 8977  10.398   3.334   3.068  0.1901 -0.0502  0.0106
   67MOL0     H 8978   9.984   3.544   2.987  0.7766 -1.1041  0.5270
   67MOL0     H 8979   9.777   3.638   2.860  1.3088  0.3714  1.2327
   67MOL0     H 8980   9.707   3.412   2.467  1.3443  2.1321 -1.4201
   67MOL0     H 8981   9.655   3.373   2.630  1.9804 -0.8778 -1.0342
   67MOL0     H 8982   9.512   3.577   2.481 -1.0098 -0.8951 -0.8048
   67MOL0     H 8983   9.501   3.400   2.428 -1.9554 -0.5155  1.7051
   67MOL0     H 8984   9.420   3.352   2.656  2.0652 -0.7345  0.3988
   67MOL0     H 8985   9.438   3.527   2.702  0.7507  1.0400 -2.2363
   67MOL0     H 8986   9.266   3.594   2.529  0.4455 -0.3791  1.9428
   67MOL0     H 8987   9.235   3.415   2.513  0.6168 -2.8702  2.8424
   67MOL0     H 8988   9.179   3.427   2.756  0.4658 -0.6408  0.6762
   67MOL0     H 8989   9.179   3.605   2.729  1.5792 -1.4411 -0.3706
   67MOL0     H 8990   9.023   3.582   2.548 -2.0434 -0.3569 -0.4463
   67MOL0     H 8991   9.008   3.411   2.569 -3.3188 -0.0617  1.3059
   67MOL0     H 8992   8.905   3.428   2.796 -1.8956 -1.0292 -1.6825
   67MOL0     H 8993   8.923   3.605   2.774  3.1601 -1.4604  1.2199
   67MOL0     H 8994   8.779   3.395   2.604  0.1813 -1.1114  4.6629
   67MOL0     H 8995   8.792   3.578   2.548  0.1119  1.0994  0.9623
   67MOL0     H 8996   8.661   3.759   2.717 -1.0774  0.4443  3.2650
   67MOL0     H 8997   8.383   3.654   2.962  2.0939 -2.1409 -1.8068
   67MOL0     H 8998   8.484   3.805   2.960 -0.8582 -0.6348  2.4001
   67MOL0     H 8999   8.366   3.825   2.716  0.2965 -1.7749  0.1714
   67MOL0     H 9000   8.289   3.883   2.867  1.7686  0.1134  0.1215
   67MOL0     H 9001   8.229   3.633   2.716  1.2847  2.4135 -1.8454
   67MOL0     H 9002   8.130   3.769   2.723  0.4152  1.0964  1.8922
   67MOL0     H 9003   8.118   3.727   2.985  1.3572 -1.0953  1.1907
   67MOL0     H 9004   8.208   3.584   2.954  3.2507  1.3459 -1.4313
   67MOL0     H 9005   7.807   3.452   2.857 -2.1608 -0.4219  0.0564
   67MOL0     H 9006   7.480   3.531   2.751  1.8128 -0.8283 -0.7022
   67MOL0     H 9007   7.581   3.399   2.804 -4.2133 -2.6958  1.0230
   67MOL0     H 9008   7.483   3.475   2.924 -0.7318  1.3502  0.1626
   67MOL0     H 9009   7.197   3.743   2.769 -0.1529 -0.2505 -0.4665
   67MOL0     H 9010   6.954   3.783   2.824 -1.7518 -1.0724  1.2793
   67MOL0     H 9011   6.745   3.827   2.914  2.4866  2.6647  2.6628
   67MOL0     H 9012   6.761   3.646   2.939  4.8697  1.5836 -1.9612
   67MOL0     H 9013   6.636   3.674   3.152  0.6224 -1.4321 -1.0017
   67MOL0     H 9014   6.601   3.845   3.129 -0.8883 -0.8999  0.1471
   67MOL0     H 9015   6.495   3.609   2.958 -1.3242 -0.0826 -2.1761
   67MOL0     H 9016   6.469   3.787   2.928  0.2807 -0.8901 -0.3005
   67MOL0     H 9017   6.372   3.678   3.195  0.6038 -0.8193 -0.6617
   67MOL0     H 9018   6.373   3.831   3.114 -0.5607  0.1562  0.4273
   67MOL0     H 9019   6.205   3.605   3.015 -3.6660  1.0427 -2.1836
   67MOL0     H 9020   6.249   3.755   2.924 -0.1204  1.5272  1.5382
   67MOL0     H 9021   6.103   3.730   3.205 -0.7301  1.3972  0.0704
   67MOL0     H 9022   6.137   3.882   3.126  1.0259 -0.2715 -1.0280
   67MOL0     H 9023   5.949   3.660   3.023  2.1958 -0.3800 -0.4724
   67MOL0     H 9024   5.984   3.821   2.952  1.5858  1.5023  0.4460
   67MOL0     H 9025   5.779   3.815   3.092 -0.0935  2.8855 -2.7421
   67MOL0     H 9026   5.903   3.936   3.147 -1.3195 -0.6893 -0.1082
   67MOL0     H 9027   7.040   3.803   3.230  1.0559  0.0130  0.8533
   67MOL0     H 9028   7.273   3.785   3.201 -2.4120 -0.1396 -0.5034
   67MOL0     H 9029   7.712   3.921   2.975 -1.9472 -0.7517  1.5996
   67MOL0     H 9030   7.942   3.843   2.946 -1.1756 -0.2142  0.4303
   67MOL0     H 9031   9.915   3.407   2.526  0.2925  2.6449 -0.9018
   67MOL0     H 9032  10.117   3.327   2.659  1.8806 -0.2051  1.8522
   67MOL0     H 9033  10.511   3.581   2.859  0.0383  0.5167  0.7842
   67MOL0     H 9034  10.721   3.514   2.948 -0.3118  1.1034 -0.6897
   67MOL0     H 9035  10.784   3.484   3.229  0.9778 -0.3764 -0.4017
   67MOL0     H 9036  10.702   3.356   3.304  0.9294 -1.0008  0.7239
   67MOL0     H 9037  10.917   3.385   3.411 -1.6136  0.4423  0.5590
   67MOL0     H 9038  11.002   3.380   3.258 -0.1964  1.9161  1.8862
   67MOL0     H 9039  11.042   3.178   3.377 -1.1265  1.3364  2.9015
   67MOL0     H 9040  10.956   3.164   3.216 -2.1405  2.0462 -1.1097
   67MOL0     H 9041  10.736   3.144   3.340  0.0171  3.0329  1.3651
   67MOL0     H 9042  10.829   3.173   3.488 -1.2920 -1.1514  0.6663
   67MOL0     H 9043  10.920   2.755   3.376 -0.1453 -0.0015  6.8683
   67MOL0     H 9044  10.520   3.206   3.179  5.8702  0.3625  1.3860
   67MOL0     H 9045  10.313   3.272   3.095  0.5928 -0.6723 -0.1545
   68MOL0     O 9046   1.014  10.334   0.151  0.4039 -0.0322  0.2593
   68MOL0     C 9047   1.099  10.248   0.161  0.1214 -0.4827  0.2494
   68MOL0     O 9048   1.077  10.120   0.198 -0.0388 -0.1016  0.1578
   68MOL0     C 9049   0.963  10.072   0.257 -0.0249  0.1551  0.4683
   68MOL0     C 9050   0.932  10.120   0.386  0.6212 -0.9232 -0.1706
   68MOL0     C 9051   0.831  10.071   0.461  0.8441 -0.4014  0.3902
   68MOL0     C 9052   0.756   9.967   0.408 -0.0596 -0.7343 -0.1707
   68MOL0     O 9053   0.647   9.918   0.482 -0.1832 -0.3725  0.9547
   68MOL0     C 9054   0.514   9.919   0.421 -0.5370 -1.0608  0.0852
   68MOL0     C 9055   0.406   9.934   0.526 -0.4627 -0.6084  0.0739
   68MOL0     C 9056   0.405  10.062   0.614 -0.5688 -0.5979  0.4255
   68MOL0     C 9057   0.496  10.041   0.734 -0.4712 -0.5215 -0.4264
   68MOL0     C 9058   0.469  10.143   0.853  0.0063  0.1327 -0.4916
   68MOL0     C 9059   0.544  10.118   0.981 -0.6696 -0.2646  0.2322
   68MOL0     C 9060   0.503   9.983   1.042  0.1201 -0.5995 -0.1753
   68MOL0     C 9061   0.568   9.966   1.183  0.8353 -0.3306 -0.2518
   68MOL0     N 9062   0.515  10.069   1.279  0.1984  0.2835 -0.3516
   68MOL0     C 9063   0.388  10.116   1.291 -0.6621 -0.1755 -0.3018
   68MOL0     C 9064   0.365  10.157   1.421 -0.0889 -0.5816  0.5818
   68MOL0     C 9065   0.253  10.217   1.496  0.0770 -0.4766  0.9943
   68MOL0     C 9066   0.122  10.189   1.438  0.2354  0.5532 -0.0871
   68MOL0     C 9067   0.015  10.274   1.506  0.0319  0.6030  0.0666
   68MOL0     C 9068  -0.121  10.281   1.429  0.0874 -0.1902  0.3393
   68MOL0     O 9069  -0.201  10.163   1.419 -0.0537  0.9338 -0.2870
   68MOL0     C 9070  -0.328  10.172   1.383  0.2872  0.1301 -0.3144
   68MOL0     C 9071  -0.372  10.252   1.280  0.7985  1.3540  0.0897
   68MOL0     C 9072  -0.507  10.282   1.259 -0.5888 -0.6623  0.0500
   68MOL0     C 9073  -0.530  10.393   1.155 -0.2794 -0.2440  0.0013
   68MOL0     C 9074  -0.604  10.222   1.344  0.0123  0.0293  0.6620
   68MOL0     C 9075  -0.751  10.249   1.331  0.1084 -0.3809  0.2825
   68MOL0     O 9076  -0.801  10.273   1.215  0.2331  0.2119 -0.0918
   68MOL0     C 9077  -0.931  10.323   1.197 -0.3310 -0.4397 -0.4430
   68MOL0     C 9078  -0.974  10.311   1.068  1.0157  1.1841  0.1361
   68MOL0     C 9079  -1.105  10.349   1.031 -0.2040  0.2118  0.4447
   68MOL0     C 9080  -1.193  10.412   1.121 -0.1630 -0.4206 -0.0620
   68MOL0     O 9081  -1.321  10.451   1.101  0.1276  0.6234 -0.6773
   68MOL0     C 9082  -1.377  10.429   0.975  0.1021  0.6788 -0.4236
   68MOL0     C 9083  -1.521  10.489   0.970  0.1789  0.2782 -0.4781
   68MOL0     C 9084  -1.609  10.432   1.074  0.3677 -0.7259  0.2752
   68MOL0     C 9085  -1.753  10.489   1.073 -0.3462  0.9322  0.2910
   68MOL0     C 9086  -1.830  10.433   1.196 -0.0511 -0.6435 -1.0222
   68MOL0     C 9087  -1.863  10.281   1.186 -0.7193 -0.2370 -0.1984
   68MOL0     C 9088  -1.975  10.239   1.298  0.2779 -0.2383  0.1240
   68MOL0     C 9089  -2.009  10.085   1.284 -0.4957 -0.6254  0.4622
   68MOL0    Cl 9090  -2.132  10.016   1.392  0.3351 -0.0359 -0.2418
   68MOL0     C 9091  -1.140  10.430   1.255  0.5241 -0.9602  0.6787
   68MOL0     C 9092  -1.009  10.391   1.292 -0.6537 -0.6922  0.5196
   68MOL0     O 9093  -0.822  10.228   1.430  0.2641  0.8489  0.8028
   68MOL0     C 9094  -0.563  10.133   1.446  0.4201 -0.9284  0.6849
   68MOL0     C 9095  -0.424  10.112   1.466 -0.4280 -0.5783  0.0410
   68MOL0     N 9096   0.483  10.126   1.488 -0.4900  0.5630 -0.1773
   68MOL0     N 9097   0.564  10.076   1.407  0.4903 -0.1906  0.7986
   68MOL0     C 9098   0.787   9.911   0.283 -0.5484  0.0987  0.7261
   68MOL0     C 9099   0.894   9.964   0.203 -1.0461  0.4632 -0.0695
   68MOL0     C 9100   1.231  10.281   0.104  0.2437 -0.4901  0.4256
   68MOL0     C 9101   1.337  10.194   0.131 -0.8972 -0.0685  0.7642
   68MOL0     C 9102   1.461  10.216   0.074  0.1136 -0.1618 -0.6850
   68MOL0     C 9103   1.486  10.327  -0.006 -0.4198 -0.1138  0.5105
   68MOL0     O 9104   1.605  10.348  -0.065 -0.3781 -0.3545 -0.6471
   68MOL0     C 9105   1.623  10.283  -0.185 -0.3300  0.2064  0.8352
   68MOL0     C 9106   1.762  10.216  -0.183  0.1920  0.0385 -0.7025
   68MOL0     C 9107   1.776  10.126  -0.303 -0.0746  0.0353 -0.2121
   68MOL0     C 9108   1.912  10.052  -0.300  0.0632 -0.6682  0.0025
   68MOL0     C 9109   2.033  10.133  -0.271  0.1289 -0.0241  0.4094
   68MOL0     C 9110   2.130  10.201  -0.240 -0.3581 -0.2012  0.7716
   68MOL0     C 9111   1.382  10.411  -0.034  0.3479 -0.1501 -0.6098
   68MOL0     C 9112   1.253  10.388   0.013 -0.1681  0.4949  0.1700
   68MOL0     H 9113   0.993  10.201   0.426  2.3552 -2.1056 -0.3120
   68MOL0     H 9114   0.808  10.108   0.561  0.6094  1.1143 -0.1881
   68MOL0     H 9115   0.497   9.993   0.342 -0.7478 -0.2714  0.8649
   68MOL0     H 9116   0.498   9.825   0.366 -2.1604 -0.5303 -0.4308
   68MOL0     H 9117   0.309   9.929   0.475 -1.6933 -0.3481  2.2643
   68MOL0     H 9118   0.428   9.847   0.589 -2.0416  0.3686  2.0982
   68MOL0     H 9119   0.438  10.146   0.552 -1.5296 -1.1675 -0.8910
   68MOL0     H 9120   0.303  10.085   0.646 -1.9404 -0.6124 -3.4700
   68MOL0     H 9121   0.497   9.939   0.772  3.2716 -0.4756 -0.0294
   68MOL0     H 9122   0.602  10.054   0.710  0.1002  0.8495  2.3975
   68MOL0     H 9123   0.490  10.244   0.816  0.4855  0.2361  0.0512
   68MOL0     H 9124   0.363  10.138   0.882 -0.0429  1.9617 -0.2495
   68MOL0     H 9125   0.653  10.131   0.978 -0.3046 -2.9278 -0.7525
   68MOL0     H 9126   0.507  10.194   1.050 -1.1421  1.3001 -1.6577
   68MOL0     H 9127   0.394   9.977   1.049  0.1758 -1.8967 -0.1213
   68MOL0     H 9128   0.535   9.900   0.978  0.5717  0.3943 -1.2664
   68MOL0     H 9129   0.677   9.969   1.178  0.8108 -0.3309 -0.9734
   68MOL0     H 9130   0.549   9.862   1.213  4.3524 -1.2295 -0.6816
   68MOL0     H 9131   0.315  10.119   1.210 -2.5650  3.5706  1.3273
   68MOL0     H 9132   0.259  10.185   1.601 -0.3107 -0.9672  0.8744
   68MOL0     H 9133   0.263  10.325   1.489 -3.4179 -0.1134 -1.4690
   68MOL0     H 9134   0.094  10.084   1.448  0.0764  0.6635  0.7309
   68MOL0     H 9135   0.127  10.212   1.331 -0.2723 -0.8888 -0.4478
   68MOL0     H 9136   0.047  10.379   1.509  1.5991  0.1609 -0.3468
   68MOL0     H 9137  -0.012  10.240   1.607 -2.1705 -1.2536 -1.0584
   68MOL0     H 9138  -0.086  10.310   1.329  0.5321  1.2809  0.8951
   68MOL0     H 9139  -0.185  10.361   1.469  1.0361  0.7645 -0.0194
   68MOL0     H 9140  -0.297  10.279   1.207  0.2210 -1.5507 -1.7512
   68MOL0     H 9141  -0.593  10.355   1.074  1.5036 -1.9199 -0.6802
   68MOL0     H 9142  -0.577  10.482   1.198  1.9016 -0.0510  2.2051
   68MOL0     H 9143  -0.434  10.421   1.112 -0.7062 -1.0729 -1.5599
   68MOL0     H 9144  -0.922  10.255   0.991 -1.5764  0.6803 -1.3570
   68MOL0     H 9145  -1.130  10.316   0.931  2.8782  0.5120 -0.5438
   68MOL0     H 9146  -1.307  10.469   0.902  2.7309 -0.2708  1.4214
   68MOL0     H 9147  -1.380  10.320   0.967 -3.0824  0.5325  1.3116
   68MOL0     H 9148  -1.506  10.598   0.972 -1.0429  0.4563 -0.3459
   68MOL0     H 9149  -1.559  10.460   0.872  1.2151  1.1658 -1.1622
   68MOL0     H 9150  -1.571  10.443   1.176 -0.1914 -1.5753  0.5841
   68MOL0     H 9151  -1.613  10.324   1.063  0.3227 -0.6950 -0.0080
   68MOL0     H 9152  -1.747  10.598   1.081 -0.5772  0.9564  0.1255
   68MOL0     H 9153  -1.799  10.470   0.976 -1.6276  4.0890  0.1616
   68MOL0     H 9154  -1.928  10.481   1.188  1.9126  3.5938 -2.5336
   68MOL0     H 9155  -1.788  10.456   1.294 -1.7299 -2.3184  0.1483
   68MOL0     H 9156  -1.889  10.259   1.082  0.7546 -1.7146 -0.2894
   68MOL0     H 9157  -1.766  10.239   1.214 -0.2843  0.9544  0.1331
   68MOL0     H 9158  -2.065  10.302   1.293  1.2276  1.0710 -1.4389
   68MOL0     H 9159  -1.928  10.250   1.396  0.0449  2.4061 -0.0005
   68MOL0     H 9160  -1.914  10.035   1.309 -0.6736 -0.8696  0.6534
   68MOL0     H 9161  -2.038  10.051   1.184 -1.5118 -0.1493  0.5864
   68MOL0     H 9162  -1.208  10.455   1.336  0.2750 -1.6617  0.6986
   68MOL0     H 9163  -0.964  10.427   1.384 -0.0396 -0.3063  0.0798
   68MOL0     H 9164  -0.637  10.097   1.517 -0.8166  4.1845  2.3979
   68MOL0     H 9165  -0.388  10.064   1.556 -0.3824  3.1248  2.2197
   68MOL0     H 9166   0.728   9.830   0.242 -0.1606  0.1230  0.1087
   68MOL0     H 9167   0.925   9.923   0.107 -0.6242  0.3423  0.1159
   68MOL0     H 9168   1.335  10.106   0.195 -0.8954 -1.2947 -0.8662
   68MOL0     H 9169   1.532  10.136   0.095  0.6049  0.6624  0.9929
   68MOL0     H 9170   1.538  10.223  -0.220  1.2155 -1.3683 -0.3748
   68MOL0     H 9171   1.620  10.355  -0.267 -0.5484  0.1210  0.7646
   68MOL0     H 9172   1.765  10.156  -0.091  2.8395  1.7646  0.4949
   68MOL0     H 9173   1.844  10.289  -0.189 -0.4260  0.8551  0.3852
   68MOL0     H 9174   1.778  10.193  -0.389  1.3732 -0.2172 -0.4038
   68MOL0     H 9175   1.692  10.057  -0.313 -0.9345  1.2349 -1.7728
   68MOL0     H 9176   1.930  10.001  -0.395  2.8689  0.8470 -0.3901
   68MOL0     H 9177   1.908   9.971  -0.227 -0.6188  0.8836  1.7620
   68MOL0     H 9178   2.214  10.265  -0.224 -0.1232  0.1851 -1.5677
   68MOL0     H 9179   1.392  10.501  -0.094  1.6708  0.3619  0.3304
   68MOL0     H 9180   1.177  10.456  -0.022  1.1165  0.8299 -2.2209
   69MOL0     O 9181   3.970   0.074   3.445  0.1829 -0.6769  0.0155
   69MOL0     C 9182   3.984  -0.006   3.541 -0.2499  0.3227 -0.5209
   69MOL0     O 9183   3.895  -0.030   3.638  0.5635  0.1631  0.8520
   69MOL0     C 9184   3.781   0.042   3.652  0.3225 -0.4139 -0.4771
   69MOL0     C 9185   3.690   0.095   3.553 -0.3517  0.1866  0.0927
   69MOL0     C 9186   3.572   0.165   3.589 -0.8114  0.1872  0.1044
   69MOL0     C 9187   3.536   0.170   3.720 -0.4139 -0.7143  0.0446
   69MOL0     O 9188   3.415   0.225   3.741 -0.2263 -0.4175 -0.3902
   69MOL0     C 9189   3.357   0.239   3.872 -0.5646 -0.0975 -0.7948
   69MOL0     C 9190   3.218   0.295   3.850 -0.3665  0.3352 -0.1724
   69MOL0     C 9191   3.224   0.439   3.797 -0.1224  0.4720 -0.3349
   69MOL0     C 9192   3.083   0.505   3.769 -0.0207 -0.7465  0.4822
   69MOL0     C 9193   3.114   0.647   3.716 -0.3318 -0.8531 -0.0811
   69MOL0     C 9194   2.992   0.736   3.697 -0.3887  0.5547  0.4495
   69MOL0     C 9195   3.016   0.864   3.623 -1.2599  0.7494 -0.4228
   69MOL0     C 9196   2.884   0.945   3.647  0.4377  0.4763  0.2077
   69MOL0     N 9197   2.898   1.075   3.579 -0.4690  0.5441  0.0129
   69MOL0     C 9198   2.975   1.181   3.625 -0.0309  0.6406 -0.0820
   69MOL0     C 9199   2.949   1.284   3.539 -0.5360  0.4189  0.0545
   69MOL0     C 9200   3.035   1.414   3.542 -0.8043  0.3047  0.4100
   69MOL0     C 9201   3.143   1.409   3.433 -0.0023 -0.1150 -0.1341
   69MOL0     C 9202   3.243   1.297   3.447 -0.1531  0.3834  0.2206
   69MOL0     C 9203   3.374   1.320   3.376  0.0086  0.1850 -0.9905
   69MOL0     O 9204   3.434   1.425   3.448 -0.2003  0.1317 -0.5896
   69MOL0     C 9205   3.568   1.434   3.414  0.5568 -0.0383 -0.2802
   69MOL0     C 9206   3.610   1.434   3.281  0.2472 -0.1098 -0.1603
   69MOL0     C 9207   3.741   1.448   3.246 -0.5207 -0.2519  0.1532
   69MOL0     C 9208   3.785   1.443   3.108 -0.3477 -0.0776  1.0064
   69MOL0     C 9209   3.841   1.434   3.355  0.0919 -0.0312 -0.0871
   69MOL0     C 9210   3.990   1.457   3.342 -0.0067  0.4553 -0.2527
   69MOL0     O 9211   4.067   1.379   3.428 -0.6515  0.1184 -0.2140
   69MOL0     C 9212   4.201   1.400   3.419 -0.3025 -0.1746  0.5912
   69MOL0     C 9213   4.272   1.285   3.377 -0.5358  0.0182  0.3337
   69MOL0     C 9214   4.405   1.280   3.362 -0.2287 -1.0137  0.5606
   69MOL0     C 9215   4.484   1.390   3.396  0.2631 -0.2583 -0.0051
   69MOL0     O 9216   4.613   1.374   3.425  0.2465  0.3509  0.0725
   69MOL0     C 9217   4.701   1.265   3.382 -0.3029  0.1476 -0.4669
   69MOL0     C 9218   4.838   1.291   3.461  0.3662  0.4031  0.5354
   69MOL0     C 9219   4.963   1.236   3.389 -0.2240  1.2953 -0.2932
   69MOL0     C 9220   5.080   1.216   3.480  0.5272  0.2356  0.4241
   69MOL0     C 9221   5.084   1.080   3.556 -0.7939 -0.4655 -0.2690
   69MOL0     C 9222   5.198   1.088   3.660 -0.0365  0.1578  0.0537
   69MOL0     C 9223   5.195   0.972   3.757  0.9077  0.2093 -1.6401
   69MOL0     C 9224   5.294   0.989   3.874  0.5925 -0.0942  0.3661
   69MOL0    Cl 9225   5.448   0.928   3.817 -0.2404 -0.1891 -0.2731
   69MOL0     C 9226   4.425   1.509   3.433 -0.5556  0.0975 -1.1061
   69MOL0     C 9227   4.283   1.511   3.437  0.0556  0.1602 -0.3206
   69MOL0     O 9228   4.031   1.535   3.254 -0.4037  0.2659 -0.5246
   69MOL0     C 9229   3.794   1.433   3.486 -0.7729  0.8031 -0.4598
   69MOL0     C 9230   3.660   1.435   3.517  1.2498 -0.1863  0.2342
   69MOL0     N 9231   2.854   1.237   3.444 -0.6583  0.4438  0.1057
   69MOL0     N 9232   2.822   1.109   3.466  0.0783 -0.1516  0.5538
   69MOL0     C 9233   3.632   0.131   3.821  0.4304 -0.1573  0.1320
   69MOL0     C 9234   3.740   0.065   3.789 -0.0820 -0.6071  0.2121
   69MOL0     C 9235   4.119  -0.065   3.547 -0.0690 -0.7897  0.3689
   69MOL0     C 9236   4.155  -0.155   3.642 -1.1467  0.2281 -0.7319
   69MOL0     C 9237   4.288  -0.204   3.648  0.3840 -0.5209  0.2319
   69MOL0     C 9238   4.380  -0.175   3.551 -0.5108  0.0823  0.1421
   69MOL0     O 9239   4.514  -0.222   3.563  0.1103 -0.1638 -0.1451
   69MOL0     C 9240   4.620  -0.170   3.480  0.1281 -0.5743 -0.0012
   69MOL0     C 9241   4.754  -0.257   3.487  0.1617 -0.4984  0.0669
   69MOL0     C 9242   4.825  -0.257   3.619 -0.3696  0.8289 -0.3586
   69MOL0     C 9243   4.950  -0.351   3.626 -0.4280  0.3059 -0.3688
   69MOL0     C 9244   4.957  -0.396   3.767  0.0602 -0.2049 -0.4070
   69MOL0     C 9245   4.970  -0.431   3.881 -0.1236  0.5194 -0.1841
   69MOL0     C 9246   4.340  -0.091   3.448  0.5151 -0.8419  0.3523
   69MOL0     C 9247   4.217  -0.033   3.445 -0.2610 -0.6821 -0.4045
   69MOL0     H 9248   3.718   0.077   3.450 -0.0024 -1.3375  0.4225
   69MOL0     H 9249   3.503   0.206   3.516  0.6848 -0.4207 -1.7378
   69MOL0     H 9250   3.349   0.142   3.921  1.3297  1.0063  1.9150
   69MOL0     H 9251   3.421   0.307   3.928  0.5506  0.9115 -3.1425
   69MOL0     H 9252   3.165   0.235   3.775  0.2217  0.2759 -0.5451
   69MOL0     H 9253   3.159   0.274   3.940  1.8974  1.5698  1.6909
   69MOL0     H 9254   3.276   0.502   3.870 -0.0623  0.9834 -0.8101
   69MOL0     H 9255   3.273   0.443   3.699  1.5812  1.3718  0.5059
   69MOL0     H 9256   3.024   0.447   3.698  1.3112 -0.4148 -0.9531
   69MOL0     H 9257   3.028   0.514   3.863 -2.6373  1.8588 -1.1405
   69MOL0     H 9258   3.175   0.690   3.796 -1.8797 -0.0164  0.6912
   69MOL0     H 9259   3.175   0.643   3.625  3.2169 -1.8883  2.1247
   69MOL0     H 9260   2.913   0.674   3.653  0.2533 -1.1452  1.5936
   69MOL0     H 9261   2.950   0.758   3.796 -0.5373 -1.1234  0.7957
   69MOL0     H 9262   3.098   0.918   3.671  3.9048 -3.6290 -3.2276
   69MOL0     H 9263   3.046   0.859   3.518  2.2109  3.6922  0.2075
   69MOL0     H 9264   2.861   0.961   3.752 -2.4958  0.6310 -0.3905
   69MOL0     H 9265   2.802   0.890   3.600  0.5900  2.7561 -3.1094
   69MOL0     H 9266   3.047   1.181   3.706  0.2775  3.8104 -0.2413
   69MOL0     H 9267   2.977   1.503   3.517 -0.7490  0.0822 -0.5284
   69MOL0     H 9268   3.081   1.421   3.641  0.3522 -0.9596 -0.0059
   69MOL0     H 9269   3.183   1.511   3.426  1.9681 -0.8842 -0.8443
   69MOL0     H 9270   3.098   1.394   3.335 -1.6062 -1.5256  0.7643
   69MOL0     H 9271   3.197   1.208   3.404  2.5446 -0.6390 -0.7825
   69MOL0     H 9272   3.246   1.271   3.553 -1.1518  3.5359  1.1086
   69MOL0     H 9273   3.350   1.363   3.278 -0.8068 -0.6500 -1.1710
   69MOL0     H 9274   3.433   1.228   3.365  1.7352  0.9821  0.9106
   69MOL0     H 9275   3.544   1.437   3.195  1.6776  3.8345 -1.3502
   69MOL0     H 9276   3.888   1.409   3.099  1.3792  4.5389  0.4725
   69MOL0     H 9277   3.721   1.369   3.060 -2.5303  0.4036  2.9709
   69MOL0     H 9278   3.786   1.541   3.059  2.1490 -0.2353  0.6413
   69MOL0     H 9279   4.218   1.196   3.346  0.3032 -0.3382 -0.1315
   69MOL0     H 9280   4.453   1.189   3.327 -2.1517 -1.2726 -1.7467
   69MOL0     H 9281   4.665   1.172   3.428 -0.1450 -0.1272 -0.8899
   69MOL0     H 9282   4.702   1.250   3.273 -0.0808 -0.5848 -0.3713
   69MOL0     H 9283   4.855   1.398   3.458  2.1327  0.1172 -1.4790
   69MOL0     H 9284   4.818   1.254   3.563 -0.0585  1.2080  0.7522
   69MOL0     H 9285   4.991   1.304   3.308  0.8376  0.2947 -0.8001
   69MOL0     H 9286   4.935   1.142   3.341 -0.6229  0.3264  1.6988
   69MOL0     H 9287   5.174   1.235   3.427 -0.8516  0.2694 -2.1803
   69MOL0     H 9288   5.077   1.289   3.561  0.5485 -1.0770  1.6628
   69MOL0     H 9289   5.102   0.996   3.490 -1.3184  0.3815 -1.5281
   69MOL0     H 9290   4.986   1.070   3.605 -2.0202  4.1331 -1.2272
   69MOL0     H 9291   5.297   1.089   3.613  0.9295  0.8367  2.0001
   69MOL0     H 9292   5.189   1.179   3.720 -0.2481  0.7929 -0.9036
   69MOL0     H 9293   5.224   0.876   3.715 -1.9819 -0.8336 -1.4737
   69MOL0     H 9294   5.096   0.967   3.804  0.4286  0.0648 -2.6436
   69MOL0     H 9295   5.279   0.931   3.965 -0.0063  3.0614  2.4456
   69MOL0     H 9296   5.293   1.092   3.912  0.7023 -0.2579  0.8230
   69MOL0     H 9297   4.470   1.602   3.464 -0.4045 -0.7111  1.2775
   69MOL0     H 9298   4.235   1.603   3.468  2.1235  0.5143  2.2194
   69MOL0     H 9299   3.861   1.480   3.557 -1.4624  3.2104 -1.3276
   69MOL0     H 9300   3.625   1.419   3.619 -0.4238  1.5602 -0.0035
   69MOL0     H 9301   3.594   0.136   3.923 -0.8139 -0.0477 -0.3202
   69MOL0     H 9302   3.800   0.028   3.872 -0.7511 -0.3919  0.7975
   69MOL0     H 9303   4.088  -0.178   3.724 -4.2194 -0.1812 -3.2041
   69MOL0     H 9304   4.297  -0.273   3.731 -3.3626 -4.0196 -1.9082
   69MOL0     H 9305   4.595  -0.157   3.374  2.2571 -0.8068 -0.5997
   69MOL0     H 9306   4.649  -0.071   3.516 -0.5357 -0.7276  0.9795
   69MOL0     H 9307   4.824  -0.217   3.414  0.8153 -0.7741  0.5291
   69MOL0     H 9308   4.738  -0.359   3.450 -0.2648  1.1303 -4.8481
   69MOL0     H 9309   4.745  -0.267   3.693 -1.6910  1.5097 -1.6647
   69MOL0     H 9310   4.872  -0.161   3.643 -1.2175  0.9826  0.7805
   69MOL0     H 9311   5.043  -0.301   3.596 -0.7854  0.5458 -1.1084
   69MOL0     H 9312   4.940  -0.434   3.555  0.6096  0.0650 -0.2380
   69MOL0     H 9313   4.998  -0.464   3.979  2.1094  0.9328 -0.6207
   69MOL0     H 9314   4.402  -0.071   3.362 -1.3071 -1.6853 -1.2414
   69MOL0     H 9315   4.188   0.027   3.359 -1.0855  1.2355  1.1287
   70MOL0     O 9316   9.018   2.596  11.340  0.3325 -0.0498 -0.2099
   70MOL0     C 9317   9.027   2.485  11.398 -0.1112  0.4695 -0.4466
   70MOL0     O 9318   8.928   2.390  11.409 -0.3810 -0.9007 -0.5985
   70MOL0     C 9319   8.799   2.418  11.370  0.9065  0.6621  0.2488
   70MOL0     C 9320   8.766   2.469  11.238  0.1664  0.0924 -0.6601
   70MOL0     C 9321   8.635   2.507  11.214 -0.2843 -0.7788  0.4500
   70MOL0     C 9322   8.532   2.499  11.313 -0.3317  0.0959 -0.6226
   70MOL0     O 9323   8.403   2.530  11.275  0.4702  0.3325  0.6329
   70MOL0     C 9324   8.290   2.510  11.359 -0.6970  0.4530  0.0686
   70MOL0     C 9325   8.279   2.609  11.470  0.5223 -0.4086 -0.2372
   70MOL0     C 9326   8.178   2.569  11.587 -0.1287 -0.0243  0.1974
   70MOL0     C 9327   8.053   2.668  11.608 -0.1628  0.0642 -0.5358
   70MOL0     C 9328   7.983   2.634  11.735 -0.1789 -0.3448  0.1122
   70MOL0     C 9329   7.862   2.736  11.759  0.1421 -0.5626 -0.0590
   70MOL0     C 9330   7.814   2.723  11.897  0.0128  0.0782  0.0340
   70MOL0     C 9331   7.708   2.825  11.946 -0.3798 -0.1365  1.5485
   70MOL0     N 9332   7.669   2.803  12.089  0.2977  1.1353  0.2683
   70MOL0     C 9333   7.561   2.736  12.132  0.7048 -0.0028  0.7921
   70MOL0     C 9334   7.577   2.726  12.265 -0.4634 -0.0590  0.1921
   70MOL0     C 9335   7.482   2.656  12.353  0.3152  0.3872  0.1726
   70MOL0     C 9336   7.376   2.751  12.416 -0.2096 -0.2693 -0.7260
   70MOL0     C 9337   7.273   2.670  12.494  0.3934  0.2146  0.3015
   70MOL0     C 9338   7.160   2.755  12.555  0.1820 -0.2925 -0.1481
   70MOL0     O 9339   7.062   2.681  12.630  0.3553 -0.2543 -0.3898
   70MOL0     C 9340   6.963   2.619  12.570  0.7777  0.9936 -0.1629
   70MOL0     C 9341   6.876   2.543  12.653  0.5704  0.3036  0.4144
   70MOL0     C 9342   6.769   2.470  12.600  0.2320 -0.4810  0.4143
   70MOL0     C 9343   6.689   2.396  12.702 -0.3942 -0.5670 -0.1933
   70MOL0     C 9344   6.738   2.475  12.465  0.2975  0.1898  0.1065
   70MOL0     C 9345   6.615   2.407  12.411 -0.6499  0.7181 -0.0513
   70MOL0     O 9346   6.498   2.417  12.482 -0.1200 -0.0611 -0.4600
   70MOL0     C 9347   6.384   2.364  12.425 -0.2959 -0.5116 -0.3889
   70MOL0     C 9348   6.324   2.428  12.312  0.2622 -0.4253 -0.3649
   70MOL0     C 9349   6.209   2.371  12.249  0.7050 -0.2155 -0.1168
   70MOL0     C 9350   6.149   2.254  12.300 -0.0630 -0.2814 -0.4900
   70MOL0     O 9351   6.033   2.202  12.246  0.1842 -0.5658 -0.3298
   70MOL0     C 9352   5.933   2.303  12.229 -0.6411  0.3704  0.8357
   70MOL0     C 9353   5.792   2.260  12.268  0.1848 -0.5906 -1.0590
   70MOL0     C 9354   5.773   2.216  12.417 -0.5308 -1.0890 -0.0176
   70MOL0     C 9355   5.690   2.312  12.507  0.1696 -0.3091  0.9952
   70MOL0     C 9356   5.541   2.281  12.493  0.3424 -0.0822 -0.2768
   70MOL0     C 9357   5.443   2.379  12.549  0.8645 -0.6195 -0.9165
   70MOL0     C 9358   5.437   2.520  12.476  0.5019 -0.0916 -0.1924
   70MOL0     C 9359   5.311   2.591  12.496  1.1183 -0.8953 -0.6659
   70MOL0    Cl 9360   5.304   2.718  12.371  0.4359  0.2948 -0.1041
   70MOL0     C 9361   6.215   2.186  12.400 -0.2143 -0.8803  0.1400
   70MOL0     C 9362   6.332   2.241  12.460  0.1327 -0.2385 -0.2087
   70MOL0     O 9363   6.628   2.347  12.303  0.0501 -0.5688 -0.2033
   70MOL0     C 9364   6.819   2.551  12.376  0.2124  0.1965  0.3364
   70MOL0     C 9365   6.929   2.618  12.434  1.0705  0.1941  0.7355
   70MOL0     N 9366   7.697   2.782  12.301  0.1042  0.1985 -0.1905
   70MOL0     N 9367   7.747   2.835  12.194 -0.2907  0.4591 -0.4402
   70MOL0     C 9368   8.569   2.452  11.442  0.7504  0.9213  0.5912
   70MOL0     C 9369   8.696   2.410  11.468 -0.3669  0.3932 -0.4136
   70MOL0     C 9370   9.156   2.478  11.476 -0.1604  0.2139  0.9529
   70MOL0     C 9371   9.218   2.587  11.522 -0.2824 -0.1058 -0.8651
   70MOL0     C 9372   9.336   2.584  11.595 -0.4339 -0.2549  0.1529
   70MOL0     C 9373   9.389   2.461  11.638 -0.5414 -0.9301 -0.5232
   70MOL0     O 9374   9.512   2.456  11.699 -0.2507  0.2001 -0.6756
   70MOL0     C 9375   9.623   2.528  11.635  0.3396  0.6932  0.1782
   70MOL0     C 9376   9.656   2.507  11.485  1.1779 -0.0000 -0.7352
   70MOL0     C 9377   9.764   2.597  11.439 -0.1609  0.2044  0.2051
   70MOL0     C 9378   9.828   2.544  11.312  0.1887  0.0270 -0.5453
   70MOL0     C 9379   9.948   2.619  11.272 -0.4950  1.0850  0.3743
   70MOL0     C 9380  10.049   2.688  11.252 -0.0655  1.1221 -0.6587
   70MOL0     C 9381   9.315   2.345  11.605  0.1553 -0.3710 -0.2005
   70MOL0     C 9382   9.204   2.350  11.515 -0.0041  0.4593  0.4708
   70MOL0     H 9383   8.842   2.462  11.160 -0.2114 -0.0560 -1.0177
   70MOL0     H 9384   8.621   2.536  11.110 -1.9350  0.9899  1.0918
   70MOL0     H 9385   8.196   2.495  11.305  0.0417 -2.8410 -0.5386
   70MOL0     H 9386   8.299   2.411  11.405  0.6902  1.2208  1.5402
   70MOL0     H 9387   8.378   2.630  11.511  1.9707 -1.3265 -3.0117
   70MOL0     H 9388   8.238   2.701  11.425  0.3100 -1.4695 -2.3311
   70MOL0     H 9389   8.137   2.468  11.575 -0.0730 -0.0867  0.5209
   70MOL0     H 9390   8.238   2.564  11.678 -0.2134  1.3441  0.3451
   70MOL0     H 9391   8.086   2.771  11.625 -3.5171  0.8803  2.1027
   70MOL0     H 9392   7.981   2.650  11.528 -1.5953 -2.3541  1.1518
   70MOL0     H 9393   7.951   2.530  11.741  4.0940 -1.9141 -0.9561
   70MOL0     H 9394   8.050   2.642  11.821 -0.7978 -2.4296  0.8389
   70MOL0     H 9395   7.906   2.836  11.755 -0.0004 -0.4566  0.7968
   70MOL0     H 9396   7.778   2.731  11.690  1.1121  2.3956 -1.6398
   70MOL0     H 9397   7.767   2.625  11.909  1.4844 -0.6755 -0.1805
   70MOL0     H 9398   7.898   2.723  11.967 -0.8716  1.3414  1.1353
   70MOL0     H 9399   7.615   2.832  11.888  0.7232  1.4879 -0.1507
   70MOL0     H 9400   7.756   2.923  11.946  2.1080 -1.2445  2.8484
   70MOL0     H 9401   7.487   2.705  12.058  0.3701  0.3454  0.9739
   70MOL0     H 9402   7.434   2.585  12.285 -0.1220  0.8368  0.0056
   70MOL0     H 9403   7.530   2.598  12.432 -0.7889  1.8787  2.0149
   70MOL0     H 9404   7.321   2.799  12.335  0.6418 -2.1860 -2.5054
   70MOL0     H 9405   7.428   2.824  12.479 -0.0740 -1.0172  0.0519
   70MOL0     H 9406   7.318   2.626  12.583 -0.6419 -2.7253 -0.5309
   70MOL0     H 9407   7.230   2.593  12.430 -0.0419  0.1353  0.6809
   70MOL0     H 9408   7.110   2.822  12.485  0.2145  1.5464  1.5093
   70MOL0     H 9409   7.210   2.833  12.613 -1.7735  0.9474 -0.0533
   70MOL0     H 9410   6.893   2.549  12.761  1.3350  0.4990  0.2937
   70MOL0     H 9411   6.747   2.332  12.770 -1.4396 -0.9742  0.3404
   70MOL0     H 9412   6.628   2.469  12.755  2.1380  1.5952 -0.0174
   70MOL0     H 9413   6.617   2.326  12.659 -1.5561 -0.9643  2.2260
   70MOL0     H 9414   6.368   2.520  12.275  0.4642  0.1444  1.2126
   70MOL0     H 9415   6.171   2.413  12.156  0.4139  0.4414  0.2957
   70MOL0     H 9416   5.957   2.400  12.274 -1.6782  0.6764  0.7574
   70MOL0     H 9417   5.940   2.323  12.122 -0.8312 -2.4625  0.2083
   70MOL0     H 9418   5.715   2.332  12.239 -1.0350 -1.7479 -0.7745
   70MOL0     H 9419   5.773   2.179  12.196 -4.0017  0.2387 -1.1275
   70MOL0     H 9420   5.874   2.205  12.459  1.0946 -1.3722 -3.6165
   70MOL0     H 9421   5.734   2.114  12.421  0.2605 -1.4298 -0.7049
   70MOL0     H 9422   5.729   2.304  12.609  0.1946 -0.6080  0.9652
   70MOL0     H 9423   5.723   2.414  12.485 -0.3406 -0.5200 -0.9504
   70MOL0     H 9424   5.510   2.191  12.547 -1.0278  0.5766  0.0887
   70MOL0     H 9425   5.521   2.284  12.385 -0.6665  0.9734 -0.0751
   70MOL0     H 9426   5.339   2.347  12.538  0.5084  0.1988 -0.0417
   70MOL0     H 9427   5.466   2.373  12.656 -1.5576 -0.2276 -0.3203
   70MOL0     H 9428   5.437   2.504  12.368 -0.3852  0.8059 -0.3498
   70MOL0     H 9429   5.525   2.584  12.483  1.1852 -0.9326 -0.9016
   70MOL0     H 9430   5.307   2.629  12.599 -0.1490 -3.3000  0.2562
   70MOL0     H 9431   5.219   2.533  12.479  1.3914 -0.5170 -4.1537
   70MOL0     H 9432   6.187   2.085  12.429  2.9232 -1.7360  0.6048
   70MOL0     H 9433   6.376   2.187  12.544 -1.9136 -1.2736  0.2850
   70MOL0     H 9434   6.787   2.556  12.272 -0.6245  0.7352  0.6030
   70MOL0     H 9435   6.989   2.681  12.368  2.4503  0.7570  2.4497
   70MOL0     H 9436   8.488   2.450  11.514 -0.0040 -0.0278 -0.2437
   70MOL0     H 9437   8.729   2.358  11.557  0.8699 -0.7921 -1.5315
   70MOL0     H 9438   9.176   2.687  11.517  0.5998  0.4997  1.9022
   70MOL0     H 9439   9.374   2.680  11.629  1.7449 -1.0209  0.0634
   70MOL0     H 9440   9.615   2.633  11.667  2.1857  0.6077  1.0992
   70MOL0     H 9441   9.712   2.496  11.691  0.6710 -0.2025 -0.8300
   70MOL0     H 9442   9.565   2.531  11.430  0.0561  0.4665  1.2193
   70MOL0     H 9443   9.684   2.403  11.468  1.6373  0.4716 -3.2417
   70MOL0     H 9444   9.846   2.610  11.511  0.4881  0.0230 -0.4847
   70MOL0     H 9445   9.716   2.693  11.417 -0.2846  0.0925 -0.0173
   70MOL0     H 9446   9.753   2.534  11.233 -1.2447 -0.6590  0.8605
   70MOL0     H 9447   9.854   2.439  11.328  0.7453  0.3879  1.1635
   70MOL0     H 9448  10.143   2.739  11.251  2.1033 -2.5191  0.0685
   70MOL0     H 9449   9.356   2.249  11.634 -1.9247 -0.8761  1.3523
   70MOL0     H 9450   9.148   2.262  11.484 -1.3313  0.9403  1.4083
   71MOL0     O 9451   0.511   1.058   8.006  0.4778 -0.2241 -0.4800
   71MOL0     C 9452   0.592   1.048   8.098  0.4728  0.0619  0.2765
   71MOL0     O 9453   0.560   1.042   8.227 -0.6323  0.5888 -0.3989
   71MOL0     C 9454   0.423   1.052   8.257 -0.0768 -0.2836  0.2770
   71MOL0     C 9455   0.356   0.937   8.306 -0.4949 -0.6413  0.4433
   71MOL0     C 9456   0.222   0.946   8.349 -0.7015  0.0412  0.7967
   71MOL0     C 9457   0.155   1.068   8.354 -0.3170  0.2123 -0.9114
   71MOL0     O 9458   0.028   1.079   8.401 -0.2727  0.3793 -0.0355
   71MOL0     C 9459  -0.031   1.205   8.425 -0.3628 -0.0567 -0.6589
   71MOL0     C 9460  -0.172   1.200   8.496  0.1352  0.3228 -0.0453
   71MOL0     C 9461  -0.173   1.126   8.625  0.5776 -1.0339  0.7700
   71MOL0     C 9462  -0.314   1.132   8.694  0.0415 -0.5679 -0.1304
   71MOL0     C 9463  -0.321   1.047   8.816  0.6030 -0.5828  0.9055
   71MOL0     C 9464  -0.453   1.050   8.897  0.3640 -0.1054  0.0087
   71MOL0     C 9465  -0.524   1.185   8.896 -0.3860  0.5570  0.5577
   71MOL0     C 9466  -0.620   1.205   8.783 -0.9651 -0.1297 -0.3634
   71MOL0     N 9467  -0.626   1.347   8.727 -0.9124  0.6778 -1.0338
   71MOL0     C 9468  -0.542   1.396   8.624 -0.2914  0.4319 -0.2890
   71MOL0     C 9469  -0.614   1.498   8.578  0.4982 -0.0074  0.4507
   71MOL0     C 9470  -0.580   1.578   8.447 -0.3057  0.5583  0.4235
   71MOL0     C 9471  -0.423   1.591   8.438  0.0284  0.1621  0.9635
   71MOL0     C 9472  -0.387   1.696   8.326 -0.2144  0.2878  0.7223
   71MOL0     C 9473  -0.404   1.638   8.178  0.0566 -0.3140 -1.0088
   71MOL0     O 9474  -0.329   1.516   8.164  0.5074 -0.0292  0.4420
   71MOL0     C 9475  -0.196   1.541   8.145 -0.3376  0.1154 -0.4665
   71MOL0     C 9476  -0.110   1.543   8.253 -0.1470  0.4738  0.6067
   71MOL0     C 9477   0.030   1.553   8.247  0.5630  0.9372 -0.0061
   71MOL0     C 9478   0.107   1.566   8.376  0.3445  0.3855 -0.5146
   71MOL0     C 9479   0.087   1.551   8.122 -0.3283 -1.8928  0.2753
   71MOL0     C 9480   0.231   1.546   8.086  0.0176 -0.4162 -0.1512
   71MOL0     O 9481   0.264   1.533   7.953  0.4378 -0.0833  0.1040
   71MOL0     C 9482   0.396   1.562   7.934 -0.8304  0.3319  0.1347
   71MOL0     C 9483   0.491   1.462   7.908  0.0190  0.7755  0.4284
   71MOL0     C 9484   0.625   1.505   7.881  0.8450 -0.0355  0.9552
   71MOL0     C 9485   0.664   1.638   7.878  0.7405  0.2605 -0.9656
   71MOL0     O 9486   0.795   1.672   7.842  0.1239 -1.2565 -0.4227
   71MOL0     C 9487   0.867   1.594   7.743 -0.3319 -0.7764 -0.8410
   71MOL0     C 9488   0.974   1.663   7.662 -0.6737 -0.0555 -0.3810
   71MOL0     C 9489   1.077   1.743   7.748  0.8447 -0.2154 -0.2912
   71MOL0     C 9490   1.065   1.901   7.733  1.0064 -0.2843 -0.4665
   71MOL0     C 9491   1.183   1.957   7.649 -0.1447 -0.0291 -0.4079
   71MOL0     C 9492   1.182   2.108   7.675 -0.4273 -0.4620 -0.4980
   71MOL0     C 9493   1.303   2.175   7.611  0.0646  0.6152  1.0223
   71MOL0     C 9494   1.268   2.320   7.605 -0.0272 -0.7592 -0.1883
   71MOL0    Cl 9495   1.417   2.422   7.577  0.4322 -0.5012 -0.4899
   71MOL0     C 9496   0.580   1.736   7.927  0.1237 -0.2449 -0.1046
   71MOL0     C 9497   0.444   1.708   7.936 -0.2280  1.1213  0.3728
   71MOL0     O 9498   0.314   1.545   8.181  0.1600  0.1481 -0.0163
   71MOL0     C 9499   0.003   1.552   8.004  0.9592 -0.7360  0.6685
   71MOL0     C 9500  -0.134   1.537   8.012  0.3416 -0.1199  0.0110
   71MOL0     N 9501  -0.728   1.516   8.655 -0.2957 -1.2374 -0.0377
   71MOL0     N 9502  -0.729   1.430   8.746 -0.0993 -0.5490 -0.9832
   71MOL0     C 9503   0.224   1.176   8.304 -0.5770 -0.7620 -0.0320
   71MOL0     C 9504   0.345   1.167   8.244 -0.8212 -0.5178  0.6579
   71MOL0     C 9505   0.733   1.020   8.062 -0.5410  0.0021  0.3293
   71MOL0     C 9506   0.775   1.015   7.925  0.5548 -0.1658  0.3255
   71MOL0     C 9507   0.909   1.001   7.894 -0.4170  0.5388  0.7582
   71MOL0     C 9508   1.008   0.992   7.997  0.1930  0.3498  0.1771
   71MOL0     O 9509   1.136   0.973   7.949  0.4727 -0.3252 -0.1225
   71MOL0     C 9510   1.239   0.943   8.044 -0.5053 -1.0161  0.3237
   71MOL0     C 9511   1.366   0.879   7.977  0.2604 -0.3325 -0.2776
   71MOL0     C 9512   1.422   0.771   8.064 -0.5169 -0.2080  0.2227
   71MOL0     C 9513   1.524   0.676   7.994 -0.0140  0.2641  0.0275
   71MOL0     C 9514   1.482   0.617   7.872  0.2083  0.3651  0.2453
   71MOL0     C 9515   1.439   0.545   7.780 -0.8615  0.3346  0.3917
   71MOL0     C 9516   0.968   0.989   8.131 -0.2381 -0.8030 -1.0280
   71MOL0     C 9517   0.830   1.004   8.162 -0.1196 -0.4361 -0.0479
   71MOL0     H 9518   0.391   0.835   8.309  0.5584 -0.3356 -0.5390
   71MOL0     H 9519   0.171   0.859   8.389  1.7660 -1.3926  1.0324
   71MOL0     H 9520   0.031   1.262   8.495  0.2051 -1.7503  0.2767
   71MOL0     H 9521  -0.034   1.253   8.327  3.4414 -0.9767 -1.3715
   71MOL0     H 9522  -0.200   1.305   8.510 -0.3319 -0.0275  2.0271
   71MOL0     H 9523  -0.233   1.155   8.418  1.1367  1.0548 -1.2873
   71MOL0     H 9524  -0.138   1.026   8.601  0.1250 -1.5021  1.9597
   71MOL0     H 9525  -0.096   1.160   8.695 -0.1359  1.4582  0.4372
   71MOL0     H 9526  -0.337   1.234   8.726  1.1434 -1.2876  3.3523
   71MOL0     H 9527  -0.393   1.104   8.624  0.1590 -2.0375  0.3021
   71MOL0     H 9528  -0.301   0.946   8.781 -2.8911 -0.6892 -1.2729
   71MOL0     H 9529  -0.241   1.090   8.878 -1.0098  0.9164  2.0502
   71MOL0     H 9530  -0.528   0.975   8.871 -2.3164  1.7465  1.8367
   71MOL0     H 9531  -0.435   1.021   9.000 -2.0154 -1.3904  0.1330
   71MOL0     H 9532  -0.581   1.201   8.988 -3.5745 -3.2838 -0.4660
   71MOL0     H 9533  -0.442   1.257   8.893 -0.3287  0.4488 -1.9882
   71MOL0     H 9534  -0.717   1.172   8.822 -0.9794  0.1438 -0.1613
   71MOL0     H 9535  -0.576   1.141   8.706 -1.6690 -2.5349  1.1390
   71MOL0     H 9536  -0.462   1.342   8.576 -0.8221  1.1029 -2.0235
   71MOL0     H 9537  -0.620   1.521   8.363 -2.1873 -0.7348  2.1296
   71MOL0     H 9538  -0.619   1.679   8.460 -0.5172  0.1442  4.0824
   71MOL0     H 9539  -0.386   1.489   8.426 -2.6345 -0.7801  0.0790
   71MOL0     H 9540  -0.399   1.632   8.537 -0.8714  1.4368  0.6807
   71MOL0     H 9541  -0.286   1.730   8.351 -0.2346 -0.9418  2.7976
   71MOL0     H 9542  -0.445   1.787   8.341  1.8833  2.0095 -1.0193
   71MOL0     H 9543  -0.371   1.710   8.103 -1.3319 -0.6300 -1.9628
   71MOL0     H 9544  -0.507   1.610   8.156 -0.3293  1.4610 -1.5763
   71MOL0     H 9545  -0.154   1.532   8.352 -1.6787 -1.7074 -0.2481
   71MOL0     H 9546   0.156   1.469   8.389 -1.5854 -0.5332  0.3818
   71MOL0     H 9547   0.172   1.653   8.381 -0.0504  0.7541 -1.5186
   71MOL0     H 9548   0.041   1.579   8.462 -1.3842  3.1193 -2.1189
   71MOL0     H 9549   0.456   1.359   7.915  1.9256  0.2127  2.7477
   71MOL0     H 9550   0.704   1.437   7.849  0.6586 -0.4101  1.2776
   71MOL0     H 9551   0.920   1.525   7.808  0.0104  1.2894  1.2175
   71MOL0     H 9552   0.794   1.552   7.673 -1.0079 -1.1824  0.0919
   71MOL0     H 9553   1.029   1.584   7.612  2.5465  0.1400  2.4382
   71MOL0     H 9554   0.929   1.733   7.591 -2.0209 -1.4052 -0.9153
   71MOL0     H 9555   1.176   1.705   7.724 -0.3216 -1.4921 -3.7871
   71MOL0     H 9556   1.058   1.720   7.853  1.2461 -1.2876 -0.4429
   71MOL0     H 9557   0.962   1.920   7.702  0.0335 -2.2499  1.2550
   71MOL0     H 9558   1.062   1.951   7.830 -1.5760  0.0085 -0.6104
   71MOL0     H 9559   1.167   1.940   7.542 -0.0026 -0.4648 -0.3596
   71MOL0     H 9560   1.278   1.916   7.682  1.1087  2.1560 -1.0810
   71MOL0     H 9561   1.092   2.138   7.621  0.5968  1.3678 -1.2794
   71MOL0     H 9562   1.184   2.132   7.782  2.2151 -0.6629 -0.4383
   71MOL0     H 9563   1.327   2.150   7.507 -2.6783 -0.3966  0.5517
   71MOL0     H 9564   1.390   2.142   7.669 -1.7271 -1.4069  2.7532
   71MOL0     H 9565   1.234   2.351   7.704 -4.6353 -0.8589 -1.5231
   71MOL0     H 9566   1.187   2.344   7.536 -0.5273 -3.6257 -0.7472
   71MOL0     H 9567   0.610   1.840   7.937  0.0623 -0.0355 -1.8815
   71MOL0     H 9568   0.380   1.792   7.960 -0.7972  0.5799  0.8021
   71MOL0     H 9569   0.040   1.557   7.902 -2.3056 -1.0083 -0.6466
   71MOL0     H 9570  -0.197   1.527   7.925  0.8321 -1.1499 -0.2459
   71MOL0     H 9571   0.190   1.279   8.306  1.1604 -0.1531  2.0917
   71MOL0     H 9572   0.382   1.255   8.193 -4.6286  1.2885  0.6180
   71MOL0     H 9573   0.701   1.026   7.846  1.0556 -0.8757 -0.2532
   71MOL0     H 9574   0.939   0.991   7.790  1.5886  3.7002  0.9283
   71MOL0     H 9575   1.271   1.028   8.104 -2.3800 -1.1272  1.5559
   71MOL0     H 9576   1.209   0.857   8.104 -0.8782 -0.0968  1.4938
   71MOL0     H 9577   1.434   0.962   7.951 -0.7484  0.2998 -0.9914
   71MOL0     H 9578   1.335   0.826   7.887  1.1559  1.5485 -1.7858
   71MOL0     H 9579   1.348   0.697   8.096  1.4715 -1.2582  2.8283
   71MOL0     H 9580   1.474   0.822   8.146  1.5813 -2.9448  0.7398
   71MOL0     H 9581   1.557   0.599   8.064  1.6171  0.0742 -0.8831
   71MOL0     H 9582   1.615   0.733   7.973 -0.4470  0.4985 -1.2859
   71MOL0     H 9583   1.401   0.488   7.698  0.3440 -2.0176  1.3916
   71MOL0     H 9584   1.044   0.973   8.208  0.1255  0.9801 -0.9778
   71MOL0     H 9585   0.803   0.999   8.267 -1.9630 -0.6422 -0.4972
   72MOL0     O 9586   2.742  11.082   3.898 -0.1375 -0.6003 -0.1015
   72MOL0     C 9587   2.761  10.971   3.842  0.4093 -0.0982  0.3249
   72MOL0     O 9588   2.674  10.917   3.752 -0.0206  0.1974  0.5542
   72MOL0     C 9589   2.565  10.988   3.708 -1.0524  0.7715 -0.6414
   72MOL0     C 9590   2.572  11.061   3.593  0.3526 -0.5968 -0.7579
   72MOL0     C 9591   2.468  11.145   3.551 -0.7481  0.5743  0.0620
   72MOL0     C 9592   2.349  11.157   3.621 -0.3205 -0.7641  0.3329
   72MOL0     O 9593   2.239  11.229   3.580  0.5103 -0.0841 -0.0563
   72MOL0     C 9594   2.245  11.295   3.455 -0.1827  0.4116  0.4585
   72MOL0     C 9595   2.130  11.388   3.432  0.1251 -1.1205 -0.7222
   72MOL0     C 9596   1.983  11.325   3.445  0.1291  0.0875  0.1229
   72MOL0     C 9597   1.895  11.355   3.325 -0.2747  1.0614  0.9381
   72MOL0     C 9598   1.744  11.324   3.367 -0.9205  0.5626 -0.5263
   72MOL0     C 9599   1.680  11.442   3.434  0.7375  0.1242 -0.5929
   72MOL0     C 9600   1.563  11.392   3.523  0.2801  0.3336 -0.4912
   72MOL0     C 9601   1.452  11.318   3.438  0.3490 -0.0270  0.1287
   72MOL0     N 9602   1.334  11.298   3.516 -0.0941  0.1988  0.6431
   72MOL0     C 9603   1.324  11.208   3.614 -0.0108 -0.4050  0.7379
   72MOL0     C 9604   1.196  11.223   3.656  0.3783  0.7033  0.3498
   72MOL0     C 9605   1.131  11.146   3.777 -1.2730  0.0547 -0.3801
   72MOL0     C 9606   1.129  11.232   3.912  0.4388  0.6623  0.1808
   72MOL0     C 9607   1.257  11.296   3.949  0.0818  0.3467 -0.0615
   72MOL0     C 9608   1.376  11.202   3.987  0.4027 -0.5700 -0.0822
   72MOL0     O 9609   1.432  11.138   3.870 -0.3291 -0.0366 -0.3778
   72MOL0     C 9610   1.564  11.088   3.876  0.6093  0.3049 -0.9462
   72MOL0     C 9611   1.626  11.052   3.997 -0.9274 -0.2759  0.1980
   72MOL0     C 9612   1.752  10.984   4.002 -0.3891  0.5309  0.5445
   72MOL0     C 9613   1.814  10.944   4.143 -0.3946  0.0040  0.6141
   72MOL0     C 9614   1.818  10.947   3.879  0.5003  0.1908 -0.0325
   72MOL0     C 9615   1.946  10.866   3.873 -0.8791 -1.1665 -0.6177
   72MOL0     O 9616   1.977  10.818   3.753 -0.6358 -0.5547 -0.0034
   72MOL0     C 9617   2.039  10.695   3.734 -0.3717 -0.4146  0.4408
   72MOL0     C 9618   2.125  10.692   3.622  0.3615 -0.6434  0.0332
   72MOL0     C 9619   2.187  10.571   3.598  0.3250  0.1140  0.2692
   72MOL0     C 9620   2.157  10.458   3.668 -0.6986  0.2183  0.3410
   72MOL0     O 9621   2.219  10.346   3.626 -0.2509 -0.1493  0.0112
   72MOL0     C 9622   2.282  10.260   3.716  0.2942 -0.8200 -0.5151
   72MOL0     C 9623   2.411  10.220   3.654 -0.1753 -0.4902 -0.2429
   72MOL0     C 9624   2.513  10.143   3.744  0.0757 -0.1539  0.5480
   72MOL0     C 9625   2.639  10.096   3.666 -0.4569 -0.2229 -0.8725
   72MOL0     C 9626   2.762  10.103   3.755 -0.2283 -0.2401 -0.1023
   72MOL0     C 9627   2.886  10.056   3.665 -0.0801 -0.4110  0.0428
   72MOL0     C 9628   3.016  10.047   3.753  0.3388  0.4121  0.2441
   72MOL0     C 9629   3.035   9.897   3.792 -0.1943  0.0504 -0.5414
   72MOL0    Cl 9630   3.207   9.855   3.823 -0.3951 -0.0618 -0.0486
   72MOL0     C 9631   2.074  10.466   3.783 -0.7495 -0.0704 -0.4005
   72MOL0     C 9632   2.012  10.588   3.814  0.5547  0.0711 -0.0745
   72MOL0     O 9633   2.017  10.857   3.971  1.5666  0.0464  0.5732
   72MOL0     C 9634   1.753  10.978   3.763  0.0960 -0.7179 -0.1564
   72MOL0     C 9635   1.629  11.049   3.760 -0.2388 -0.4400  0.8581
   72MOL0     N 9636   1.143  11.335   3.595  0.2486  0.5613  0.2058
   72MOL0     N 9637   1.220  11.376   3.509 -0.1702 -0.7047 -0.5076
   72MOL0     C 9638   2.339  11.073   3.734 -0.2097 -0.5069 -1.4313
   72MOL0     C 9639   2.452  10.991   3.786  0.0379 -0.0129  0.6677
   72MOL0     C 9640   2.886  10.895   3.876 -0.3771  0.2861 -0.1521
   72MOL0     C 9641   2.935  10.797   3.789  0.9452  0.3042 -0.1299
   72MOL0     C 9642   3.055  10.736   3.812  0.6730  0.3808  0.0592
   72MOL0     C 9643   3.139  10.766   3.920  0.2384 -0.7080 -0.8786
   72MOL0     O 9644   3.267  10.721   3.940  0.2952 -0.0153 -0.4275
   72MOL0     C 9645   3.287  10.659   4.062 -0.3745 -0.7756  0.0137
   72MOL0     C 9646   3.434  10.684   4.100 -0.0198  0.1972 -0.6059
   72MOL0     C 9647   3.482  10.586   4.220  0.5140 -0.1003  0.5420
   72MOL0     C 9648   3.451  10.618   4.365  0.5733 -0.1714  0.3842
   72MOL0     C 9649   3.497  10.748   4.409 -0.3160 -0.7306  0.1339
   72MOL0     C 9650   3.555  10.857   4.430  0.1384 -0.0821 -0.0498
   72MOL0     C 9651   3.083  10.867   4.009  0.0648  0.0271  0.0041
   72MOL0     C 9652   2.963  10.935   3.989  1.6822  0.1194 -0.4081
   72MOL0     H 9653   2.665  11.058   3.537  1.0504  2.2989  0.0999
   72MOL0     H 9654   2.489  11.207   3.464  2.0127 -2.0425 -1.3180
   72MOL0     H 9655   2.341  11.347   3.451  1.5088 -2.4502  0.3232
   72MOL0     H 9656   2.235  11.224   3.373  0.1268  0.7299  0.1423
   72MOL0     H 9657   2.150  11.472   3.499  1.6365 -1.1251 -1.1412
   72MOL0     H 9658   2.131  11.435   3.333 -1.0303 -0.4520 -0.4467
   72MOL0     H 9659   1.989  11.216   3.452 -0.7816 -0.1533 -2.1090
   72MOL0     H 9660   1.940  11.361   3.540  0.2026  0.2138  0.1076
   72MOL0     H 9661   1.895  11.459   3.293 -0.9527  1.3844  1.9267
   72MOL0     H 9662   1.925  11.283   3.248 -2.3269 -1.1227  2.0249
   72MOL0     H 9663   1.683  11.295   3.281 -0.0098 -2.1862 -0.3465
   72MOL0     H 9664   1.741  11.230   3.422 -1.1805  0.6239 -0.4323
   72MOL0     H 9665   1.755  11.484   3.503 -0.4192 -0.8380  1.3165
   72MOL0     H 9666   1.651  11.519   3.361  0.8910  0.7885  0.0267
   72MOL0     H 9667   1.602  11.338   3.609 -2.4836  0.7562  1.1490
   72MOL0     H 9668   1.515  11.480   3.565  1.7723  1.4227 -0.9721
   72MOL0     H 9669   1.490  11.220   3.408 -1.6056 -1.4161  1.9257
   72MOL0     H 9670   1.429  11.377   3.349 -2.4011  2.4413  2.2502
   72MOL0     H 9671   1.390  11.127   3.642 -3.1537 -3.6388 -0.4326
   72MOL0     H 9672   1.028  11.132   3.745 -1.7147  2.5198 -0.2101
   72MOL0     H 9673   1.171  11.045   3.792  1.1625  0.8490 -0.9701
   72MOL0     H 9674   1.086  11.166   3.987  1.0851  0.0615  0.0366
   72MOL0     H 9675   1.063  11.317   3.893  0.2227  0.7173  1.1710
   72MOL0     H 9676   1.242  11.353   4.041  0.5517  1.0166 -0.3885
   72MOL0     H 9677   1.283  11.377   3.881 -2.9372  0.0536 -1.7242
   72MOL0     H 9678   1.328  11.135   4.060 -2.0290  0.0464 -1.0199
   72MOL0     H 9679   1.442  11.262   4.050 -1.8903 -0.4357  2.3854
   72MOL0     H 9680   1.585  11.071   4.096  0.9234  2.2075  0.5902
   72MOL0     H 9681   1.756  10.988   4.225 -0.8310  1.7121 -0.5443
   72MOL0     H 9682   1.831  10.837   4.156 -2.3639 -1.1917 -4.4467
   72MOL0     H 9683   1.911  10.996   4.147 -0.1429 -0.4286  0.2601
   72MOL0     H 9684   2.150  10.786   3.575 -1.0485 -0.4183 -0.3201
   72MOL0     H 9685   2.262  10.558   3.521 -0.0854 -1.9726  0.1748
   72MOL0     H 9686   2.309  10.298   3.815  0.2154  0.2169 -0.8834
   72MOL0     H 9687   2.219  10.170   3.724 -0.6409 -0.2753 -1.4561
   72MOL0     H 9688   2.402  10.174   3.555 -0.9988  0.9627 -0.8692
   72MOL0     H 9689   2.467  10.310   3.628 -2.5361  0.8327 -0.9945
   72MOL0     H 9690   2.469  10.050   3.781  1.6043 -1.2846 -0.3360
   72MOL0     H 9691   2.544  10.200   3.832  1.0628 -3.0196  2.1898
   72MOL0     H 9692   2.628  10.002   3.610  3.1473 -1.6909  0.5553
   72MOL0     H 9693   2.646  10.180   3.597 -0.4581 -0.9217 -1.7440
   72MOL0     H 9694   2.753  10.036   3.841 -0.9373 -1.1879 -0.8978
   72MOL0     H 9695   2.770  10.207   3.790 -2.9288  0.5998 -1.7235
   72MOL0     H 9696   2.851   9.962   3.621 -0.2033 -0.0186 -0.7098
   72MOL0     H 9697   2.911  10.118   3.579 -0.3851 -1.6654 -0.9927
   72MOL0     H 9698   3.004  10.098   3.849  1.7124  1.6412 -0.1991
   72MOL0     H 9699   3.098  10.098   3.702  0.0315  1.2476  0.5627
   72MOL0     H 9700   2.993   9.835   3.713 -0.3134 -2.5436  1.4267
   72MOL0     H 9701   2.978   9.880   3.884  1.1692 -1.7957  0.0164
   72MOL0     H 9702   2.058  10.377   3.843  0.9402 -2.2412 -2.8952
   72MOL0     H 9703   1.943  10.596   3.898  0.9703  0.2721  0.2534
   72MOL0     H 9704   1.800  10.950   3.669 -0.4410  0.1507 -0.6945
   72MOL0     H 9705   1.590  11.070   3.661  0.3670 -0.2771  0.6440
   72MOL0     H 9706   2.247  11.072   3.793 -0.3414  3.7538 -1.2193
   72MOL0     H 9707   2.457  10.942   3.882  1.5922 -2.1166 -0.3951
   72MOL0     H 9708   2.862  10.767   3.714 -0.1887 -0.0893  1.0871
   72MOL0     H 9709   3.083  10.660   3.740  0.1631  0.4879 -0.2596
   72MOL0     H 9710   3.228  10.700   4.145  0.6282 -0.7793  0.7372
   72MOL0     H 9711   3.261  10.553   4.058 -0.8573 -0.7325  1.4399
   72MOL0     H 9712   3.442  10.790   4.126  3.8398 -0.0808  0.0557
   72MOL0     H 9713   3.489  10.655   4.010 -1.9036 -2.4949 -1.0260
   72MOL0     H 9714   3.591  10.583   4.209  0.5586  2.4503 -0.3358
   72MOL0     H 9715   3.447  10.484   4.200  0.0818 -0.2422  1.8780
   72MOL0     H 9716   3.503  10.546   4.429  0.1828  0.1672  1.0954
   72MOL0     H 9717   3.344  10.602   4.381  0.2552 -0.2753 -1.5992
   72MOL0     H 9718   3.600  10.943   4.474 -0.1694 -1.1505  2.5519
   72MOL0     H 9719   3.152  10.902   4.084 -0.2027 -1.8316  1.1647
   72MOL0     H 9720   2.919  11.015   4.048 -1.7546 -0.9862 -1.2322
   73MOL0     O 9721   0.110   5.511   1.664 -0.5802 -0.3710 -0.1930
   73MOL0     C 9722   0.073   5.478   1.774  0.4605 -0.1401  0.0125
   73MOL0     O 9723   0.149   5.411   1.868 -0.2287  0.2418  0.3628
   73MOL0     C 9724   0.281   5.439   1.898  0.1889 -0.0636 -0.3204
   73MOL0     C 9725   0.360   5.526   1.821  0.4450  0.1824 -0.3641
   73MOL0     C 9726   0.500   5.533   1.845 -0.0073  0.3189 -0.2946
   73MOL0     C 9727   0.562   5.441   1.935  0.0415 -0.3516  0.0946
   73MOL0     O 9728   0.697   5.447   1.924  0.3142  0.3754 -0.1966
   73MOL0     C 9729   0.769   5.374   2.016  0.1098  0.3967  0.7422
   73MOL0     C 9730   0.913   5.374   1.962 -0.3065 -0.0938 -0.5170
   73MOL0     C 9731   0.972   5.513   1.952  0.2771  0.2538  0.0106
   73MOL0     C 9732   1.113   5.497   1.901  0.1530 -1.3281 -0.2211
   73MOL0     C 9733   1.195   5.625   1.922 -0.1127 -0.0333 -0.3750
   73MOL0     C 9734   1.309   5.637   1.812 -0.1211 -0.0183  0.0962
   73MOL0     C 9735   1.276   5.617   1.664 -0.4996 -0.0243 -0.2677
   73MOL0     C 9736   1.159   5.711   1.621 -0.0941 -0.0090  0.9046
   73MOL0     N 9737   1.127   5.720   1.476  0.4674 -0.0249  0.0427
   73MOL0     C 9738   1.116   5.828   1.393 -0.3438 -0.5934 -0.7106
   73MOL0     C 9739   1.081   5.777   1.273  1.1317  0.0170  0.1883
   73MOL0     C 9740   1.041   5.854   1.149  0.0678 -0.3866  0.0513
   73MOL0     C 9741   0.887   5.813   1.110  0.7503 -0.6116  0.7073
   73MOL0     C 9742   0.872   5.820   0.957 -0.6225 -0.5076 -0.0364
   73MOL0     C 9743   0.724   5.804   0.925 -0.4847  0.4291 -0.1451
   73MOL0     O 9744   0.651   5.696   0.989  0.2193  0.5536 -0.0019
   73MOL0     C 9745   0.517   5.697   0.960 -0.1540  0.2135  0.4862
   73MOL0     C 9746   0.448   5.805   0.898  0.2427  0.1760  0.2649
   73MOL0     C 9747   0.306   5.799   0.876 -0.1950 -1.1507 -0.1039
   73MOL0     C 9748   0.230   5.917   0.809  0.0429 -0.0735 -0.3898
   73MOL0     C 9749   0.245   5.676   0.915 -0.7325 -0.7548  0.0955
   73MOL0     C 9750   0.093   5.659   0.894  0.4887 -0.4607  0.3398
   73MOL0     O 9751  -0.001   5.759   0.927 -0.2561 -0.0925 -0.0523
   73MOL0     C 9752  -0.127   5.762   0.878  0.5725  1.1748  1.3939
   73MOL0     C 9753  -0.215   5.654   0.882 -0.0047 -0.5217  0.4664
   73MOL0     C 9754  -0.353   5.670   0.846  0.0627 -0.2540  0.5680
   73MOL0     C 9755  -0.409   5.788   0.786 -0.8405  0.4693 -0.7227
   73MOL0     O 9756  -0.533   5.782   0.756  0.8340  0.3478  0.7803
   73MOL0     C 9757  -0.593   5.888   0.685 -0.0331  0.4257 -0.2721
   73MOL0     C 9758  -0.716   5.851   0.611 -0.2352  0.1099 -1.2026
   73MOL0     C 9759  -0.808   5.775   0.701  0.1004  0.3655 -0.8107
   73MOL0     C 9760  -0.939   5.738   0.627  1.2238 -0.4787 -0.1333
   73MOL0     C 9761  -1.038   5.651   0.701 -0.1892 -1.2192  0.4008
   73MOL0     C 9762  -1.101   5.735   0.817  0.6025 -0.7857 -1.0867
   73MOL0     C 9763  -1.234   5.675   0.866 -1.0018  0.3377 -0.4706
   73MOL0     C 9764  -1.223   5.519   0.900  0.6766  0.7920 -0.4924
   73MOL0    Cl 9765  -1.363   5.441   0.991  0.4691  0.4887  0.2461
   73MOL0     C 9766  -0.317   5.894   0.787 -0.1028 -0.1033  1.4106
   73MOL0     C 9767  -0.186   5.883   0.843  0.4724 -0.3998 -1.0745
   73MOL0     O 9768   0.073   5.553   0.832  0.2670  1.6858 -0.1143
   73MOL0     C 9769   0.307   5.582   0.980 -0.6791  0.7793  0.3577
   73MOL0     C 9770   0.449   5.584   0.988  0.5592 -0.1415 -0.2848
   73MOL0     N 9771   1.075   5.640   1.282 -0.0150 -0.2026 -0.3775
   73MOL0     N 9772   1.115   5.610   1.406  0.5603  0.6477  0.1964
   73MOL0     C 9773   0.476   5.354   2.006  0.3674  0.9728  0.1734
   73MOL0     C 9774   0.333   5.359   1.991 -0.2085  0.6287 -0.6708
   73MOL0     C 9775  -0.073   5.496   1.801  0.3450 -0.0123  0.2601
   73MOL0     C 9776  -0.128   5.453   1.922  0.0237  1.0818 -0.6626
   73MOL0     C 9777  -0.268   5.466   1.951 -0.6031  0.3174  0.7422
   73MOL0     C 9778  -0.353   5.511   1.843  0.3617  0.2156  0.4078
   73MOL0     O 9779  -0.484   5.515   1.848  0.4059  0.3530  0.3455
   73MOL0     C 9780  -0.551   5.518   1.975 -0.3710  0.3321  0.7285
   73MOL0     C 9781  -0.692   5.586   1.945  0.1151  0.3406 -0.8933
   73MOL0     C 9782  -0.770   5.608   2.076  0.0835  0.5881  0.9212
   73MOL0     C 9783  -0.897   5.690   2.049 -0.5355 -0.2910  0.2632
   73MOL0     C 9784  -0.990   5.588   1.996  0.4551  0.5415  0.3219
   73MOL0     C 9785  -1.080   5.509   1.953 -0.5813  0.0943 -0.8765
   73MOL0     C 9786  -0.289   5.552   1.725  0.1331 -0.9362 -0.1081
   73MOL0     C 9787  -0.154   5.554   1.707 -0.3409 -0.0731 -0.1270
   73MOL0     H 9788   0.323   5.599   1.749  0.0642 -1.5711 -2.0052
   73MOL0     H 9789   0.562   5.607   1.795  2.0553 -0.7914  0.4752
   73MOL0     H 9790   0.763   5.438   2.104  1.5536 -0.4986  1.5284
   73MOL0     H 9791   0.724   5.275   2.030  2.0902 -0.5297  0.9325
   73MOL0     H 9792   0.977   5.323   2.035  3.7414  1.6860 -2.5201
   73MOL0     H 9793   0.898   5.313   1.872 -3.3837  1.6145 -1.3162
   73MOL0     H 9794   0.918   5.579   1.884  3.4373  1.7081 -1.3078
   73MOL0     H 9795   0.969   5.568   2.047 -0.9526  1.1133 -0.5040
   73MOL0     H 9796   1.171   5.420   1.952  1.2188 -2.1091 -2.5101
   73MOL0     H 9797   1.097   5.480   1.794  0.8648  1.2605 -0.8139
   73MOL0     H 9798   1.137   5.718   1.912  1.7366  1.0804 -1.1915
   73MOL0     H 9799   1.238   5.624   2.022 -1.6074 -0.7753  0.2909
   73MOL0     H 9800   1.350   5.739   1.823 -0.9811  0.3731 -0.2655
   73MOL0     H 9801   1.395   5.573   1.834  0.3538  0.9981  1.3824
   73MOL0     H 9802   1.366   5.652   1.613  0.1391 -0.4333  0.5544
   73MOL0     H 9803   1.259   5.510   1.645  0.0987 -0.5652  2.0344
   73MOL0     H 9804   1.202   5.808   1.645  0.7345 -0.1780  0.1549
   73MOL0     H 9805   1.070   5.705   1.685 -1.3238  1.6214 -0.5607
   73MOL0     H 9806   1.131   5.927   1.433  2.9947 -0.6660 -1.5333
   73MOL0     H 9807   1.052   5.962   1.164  2.8384 -0.6333  0.3227
   73MOL0     H 9808   1.102   5.816   1.067 -0.3803 -0.8007 -0.0973
   73MOL0     H 9809   0.821   5.881   1.165  1.2411  1.2679 -0.9282
   73MOL0     H 9810   0.862   5.712   1.145  2.5938 -1.8461 -1.2636
   73MOL0     H 9811   0.934   5.741   0.914  1.0479  0.2596  0.8738
   73MOL0     H 9812   0.914   5.914   0.920  0.5220 -0.2135  1.8939
   73MOL0     H 9813   0.718   5.788   0.817  0.6629 -3.9079  0.2260
   73MOL0     H 9814   0.674   5.898   0.951  0.6066  1.6225 -2.0867
   73MOL0     H 9815   0.485   5.903   0.870 -1.1228  0.6922  0.1582
   73MOL0     H 9816   0.294   6.005   0.799  0.3900 -0.3272 -0.3979
   73MOL0     H 9817   0.198   5.878   0.712 -1.7532  1.3808 -0.4255
   73MOL0     H 9818   0.144   5.951   0.867 -0.6619 -0.3902 -1.2159
   73MOL0     H 9819  -0.190   5.549   0.889 -3.0752 -1.6707 -2.6204
   73MOL0     H 9820  -0.415   5.580   0.847  0.4106 -0.5943 -2.0006
   73MOL0     H 9821  -0.612   5.968   0.757 -0.0220  0.8374 -0.7216
   73MOL0     H 9822  -0.520   5.922   0.612  2.9094 -0.3742  2.0859
   73MOL0     H 9823  -0.758   5.943   0.572  2.6522  1.6231 -1.0227
   73MOL0     H 9824  -0.685   5.787   0.527 -2.0605 -1.6252 -0.6385
   73MOL0     H 9825  -0.835   5.820   0.797 -0.5326 -1.0152 -0.3131
   73MOL0     H 9826  -0.758   5.682   0.730  1.4284  0.7236 -1.8829
   73MOL0     H 9827  -0.987   5.830   0.592 -0.1019 -1.2315 -0.3829
   73MOL0     H 9828  -0.922   5.674   0.539 -0.2490  0.1079 -0.8779
   73MOL0     H 9829  -0.991   5.555   0.728 -1.3484 -2.2027 -0.9503
   73MOL0     H 9830  -1.124   5.628   0.638  1.0596 -1.9190 -1.1180
   73MOL0     H 9831  -1.030   5.744   0.900  0.0684  0.2065 -0.7262
   73MOL0     H 9832  -1.121   5.836   0.781 -1.1734 -1.0222 -0.8152
   73MOL0     H 9833  -1.299   5.673   0.778  0.1785 -1.4124 -1.3688
   73MOL0     H 9834  -1.278   5.740   0.942 -0.8878 -2.1589  1.8506
   73MOL0     H 9835  -1.132   5.507   0.961  1.2591  0.0420 -1.4822
   73MOL0     H 9836  -1.200   5.449   0.820  1.3766  0.1252  0.2724
   73MOL0     H 9837  -0.345   5.991   0.748  1.0264 -0.5974 -0.7910
   73MOL0     H 9838  -0.125   5.972   0.854  1.5552 -1.2277 -0.0127
   73MOL0     H 9839   0.253   5.493   1.013  1.5543 -0.2238  1.5242
   73MOL0     H 9840   0.501   5.498   1.031 -0.3774 -0.1047  0.9869
   73MOL0     H 9841   0.525   5.281   2.068 -1.2272 -1.1569 -0.9359
   73MOL0     H 9842   0.276   5.287   2.049 -2.7538  0.7529 -2.8007
   73MOL0     H 9843  -0.075   5.415   2.008  0.1017  0.0682 -1.1435
   73MOL0     H 9844  -0.308   5.451   2.051  0.3486  4.5180  2.0013
   73MOL0     H 9845  -0.563   5.421   2.024  2.5884  0.1958  1.3892
   73MOL0     H 9846  -0.504   5.578   2.053 -0.4678 -1.3439  2.1449
   73MOL0     H 9847  -0.754   5.521   1.882 -4.7823  1.6154  2.1334
   73MOL0     H 9848  -0.672   5.681   1.895 -0.7580  1.0111 -0.0019
   73MOL0     H 9849  -0.719   5.661   2.157 -1.8309 -0.1593  2.6825
   73MOL0     H 9850  -0.792   5.510   2.118  2.7058 -0.4495  0.0939
   73MOL0     H 9851  -0.880   5.774   1.982 -2.7551  0.1341  0.1504
   73MOL0     H 9852  -0.933   5.722   2.148  0.6158 -2.9242  1.6535
   73MOL0     H 9853  -1.156   5.440   1.925 -0.0466 -0.2990 -1.3983
   73MOL0     H 9854  -0.347   5.606   1.651 -3.2104 -0.7387  2.4257
   73MOL0     H 9855  -0.116   5.602   1.617  3.3995 -0.1985  1.2202
   74MOL0     O 9856   7.287   0.954  10.553 -0.3689  0.4584 -0.0938
   74MOL0     C 9857   7.299   0.964  10.674 -0.3478 -0.0296 -0.1771
   74MOL0     O 9858   7.197   0.961  10.757  0.0048 -0.3132 -0.7755
   74MOL0     C 9859   7.078   0.976  10.685  0.9123  1.3484 -0.4037
   74MOL0     C 9860   7.044   1.099  10.622 -0.3755  0.5129 -0.3276
   74MOL0     C 9861   6.926   1.123  10.560  0.6627 -0.3502 -0.1804
   74MOL0     C 9862   6.826   1.027  10.564  0.6471 -0.1291  0.0758
   74MOL0     O 9863   6.700   1.046  10.505  0.2212 -0.5435  0.1646
   74MOL0     C 9864   6.655   1.177  10.461  0.1907 -0.8119  0.2738
   74MOL0     C 9865   6.534   1.172  10.372 -0.0286  0.0537  0.2365
   74MOL0     C 9866   6.418   1.155  10.458 -0.6972 -0.2364 -0.0745
   74MOL0     C 9867   6.288   1.174  10.381  0.1358  0.9736  0.4823
   74MOL0     C 9868   6.170   1.146  10.471 -0.0155  0.6708  0.4221
   74MOL0     C 9869   6.039   1.157  10.391  0.4987 -0.1361 -0.1251
   74MOL0     C 9870   6.014   1.039  10.294  0.0768  0.4492  0.2984
   74MOL0     C 9871   5.964   0.911  10.371 -0.6269  0.5029  0.1408
   74MOL0     N 9872   5.824   0.918  10.420 -0.6622  0.1093 -0.5778
   74MOL0     C 9873   5.719   0.943  10.328 -0.2271  1.4988  0.3783
   74MOL0     C 9874   5.623   0.951  10.428  1.3417  0.0710  0.2107
   74MOL0     C 9875   5.479   0.969  10.403  0.6216  0.1204  0.4457
   74MOL0     C 9876   5.402   1.068  10.496  0.0754 -0.7466 -0.3882
   74MOL0     C 9877   5.296   1.139  10.425  0.5440 -0.3968  0.7483
   74MOL0     C 9878   5.223   1.248  10.496 -0.7211 -0.5963 -0.2769
   74MOL0     O 9879   5.094   1.212  10.518 -0.0370  0.1181 -0.8979
   74MOL0     C 9880   5.022   1.278  10.620  0.9702  0.8310  0.7748
   74MOL0     C 9881   5.066   1.398  10.687  1.1775  0.1944 -0.8856
   74MOL0     C 9882   4.989   1.452  10.797 -0.5800  0.8390  0.9535
   74MOL0     C 9883   5.044   1.568  10.860  0.5552 -0.2669 -0.1414
   74MOL0     C 9884   4.856   1.405  10.823 -0.0841  0.0278  0.0176
   74MOL0     C 9885   4.762   1.465  10.929  0.1153  0.0980 -0.0783
   74MOL0     O 9886   4.652   1.388  10.961 -0.3765  0.2708  0.6614
   74MOL0     C 9887   4.561   1.442  11.046 -0.9124 -0.2724 -0.1243
   74MOL0     C 9888   4.591   1.488  11.168 -0.3051  0.3513 -0.2227
   74MOL0     C 9889   4.489   1.520  11.258 -0.4974 -0.6136 -0.4294
   74MOL0     C 9890   4.355   1.510  11.214  0.1950 -0.7411 -0.2019
   74MOL0     O 9891   4.249   1.534  11.309 -0.1867 -0.3518  0.3015
   74MOL0     C 9892   4.260   1.532  11.452  0.6384 -0.6386  0.0966
   74MOL0     C 9893   4.125   1.569  11.518 -0.8198 -1.0644 -0.9639
   74MOL0     C 9894   4.063   1.452  11.599  0.6858 -0.0782  0.4544
   74MOL0     C 9895   3.950   1.504  11.689 -0.3431 -0.3675  0.2917
   74MOL0     C 9896   3.867   1.401  11.760 -0.1047 -0.0610 -0.5114
   74MOL0     C 9897   3.738   1.453  11.810 -0.0483 -0.6682  0.5853
   74MOL0     C 9898   3.626   1.352  11.803 -0.4459  0.4574 -0.5518
   74MOL0     C 9899   3.492   1.391  11.871  0.2702 -0.4401 -0.0460
   74MOL0    Cl 9900   3.416   1.532  11.796  0.1277 -0.5709  0.4385
   74MOL0     C 9901   4.326   1.469  11.083  0.5831  0.7044  0.4894
   74MOL0     C 9902   4.430   1.426  11.003  0.5020  0.4452  0.5801
   74MOL0     O 9903   4.786   1.579  10.975  0.2375 -0.5556  0.2875
   74MOL0     C 9904   4.813   1.293  10.751  0.0289 -0.4037  0.3846
   74MOL0     C 9905   4.896   1.237  10.643  0.1041 -0.2228  0.5028
   74MOL0     N 9906   5.663   0.934  10.558  0.5023  0.0222 -0.1483
   74MOL0     N 9907   5.787   0.913  10.552 -0.2175  0.8268 -0.4022
   74MOL0     C 9908   6.857   0.899  10.617  0.4217 -0.3628 -0.7860
   74MOL0     C 9909   6.981   0.874  10.680 -0.4685  0.2717 -0.5171
   74MOL0     C 9910   7.435   0.949  10.720 -0.1740 -0.3968 -0.0901
   74MOL0     C 9911   7.471   0.972  10.852  0.3557  0.2032  1.0247
   74MOL0     C 9912   7.604   0.974  10.890  0.3015  0.6213 -0.3624
   74MOL0     C 9913   7.708   0.966  10.802  0.1689 -0.3395 -0.4241
   74MOL0     O 9914   7.842   0.972  10.847  0.3425  0.3252  0.0092
   74MOL0     C 9915   7.952   0.922  10.755  0.1476 -0.6900  0.3923
   74MOL0     C 9916   8.073   0.899  10.844  0.2773  1.2367  0.5218
   74MOL0     C 9917   8.144   0.772  10.805 -0.7087  0.0272 -0.8424
   74MOL0     C 9918   8.269   0.756  10.896  0.3021 -0.5766  0.1697
   74MOL0     C 9919   8.315   0.618  10.901  0.2191  0.0515 -0.4373
   74MOL0     C 9920   8.353   0.503  10.914  0.2266  0.5255 -0.3008
   74MOL0     C 9921   7.672   0.940  10.671 -0.4141  0.2479 -0.1816
   74MOL0     C 9922   7.539   0.929  10.632  0.0346 -0.3499  0.1388
   74MOL0     H 9923   7.120   1.176  10.619 -0.4537  0.8204  2.7934
   74MOL0     H 9924   6.898   1.217  10.514  0.9369 -0.6681 -1.0134
   74MOL0     H 9925   6.647   1.252  10.541  1.0602  0.8826 -1.1690
   74MOL0     H 9926   6.727   1.218  10.390  0.1454 -1.1697  0.0200
   74MOL0     H 9927   6.516   1.261  10.311 -0.1410 -1.5658 -2.2301
   74MOL0     H 9928   6.543   1.089  10.301  0.8491  1.4767 -1.3918
   74MOL0     H 9929   6.415   1.059  10.510 -0.0073  1.0865  2.5532
   74MOL0     H 9930   6.425   1.231  10.536 -1.4689  1.5761 -1.6651
   74MOL0     H 9931   6.288   1.279  10.348  0.7047  1.1341  0.9750
   74MOL0     H 9932   6.287   1.099  10.301  1.5786  2.2157 -0.7832
   74MOL0     H 9933   6.177   1.048  10.519  2.2759  0.1322 -0.8180
   74MOL0     H 9934   6.173   1.224  10.547  0.0887  0.4429  0.6521
   74MOL0     H 9935   5.958   1.156  10.465  0.1625 -2.5886 -0.4396
   74MOL0     H 9936   6.040   1.249  10.333  1.4413  1.7612  2.7040
   74MOL0     H 9937   5.931   1.068  10.228  0.5807  1.2514  0.0003
   74MOL0     H 9938   6.103   1.015  10.236 -0.9332 -1.2286 -0.6352
   74MOL0     H 9939   6.029   0.884  10.456 -0.9321 -0.1208  0.1866
   74MOL0     H 9940   5.972   0.829  10.299 -2.1799  0.0024  0.4949
   74MOL0     H 9941   5.711   0.957  10.221  0.1363  1.3776  0.3325
   74MOL0     H 9942   5.459   1.002  10.300 -0.2483  1.6267  1.0640
   74MOL0     H 9943   5.434   0.870  10.416  2.3265 -0.6863  0.4004
   74MOL0     H 9944   5.476   1.135  10.540 -1.4433  0.5505  0.2907
   74MOL0     H 9945   5.362   1.016  10.584 -0.0091 -1.2440 -0.7115
   74MOL0     H 9946   5.219   1.065  10.398  0.5657  0.4556 -1.8814
   74MOL0     H 9947   5.323   1.185  10.330 -2.2907 -0.8091 -0.3539
   74MOL0     H 9948   5.221   1.332  10.426 -1.2564  0.2401  0.7277
   74MOL0     H 9949   5.273   1.282  10.586 -2.8219  1.7109  0.1301
   74MOL0     H 9950   5.156   1.453  10.662  1.2713  1.3146  1.6078
   74MOL0     H 9951   4.981   1.652  10.829 -1.6465 -2.1659 -1.1234
   74MOL0     H 9952   5.062   1.560  10.967  1.2785 -0.9689 -0.3047
   74MOL0     H 9953   5.145   1.586  10.822  2.6544 -3.3764  3.2699
   74MOL0     H 9954   4.694   1.495  11.201 -0.9149  2.0002  1.5016
   74MOL0     H 9955   4.509   1.548  11.361 -3.7162 -1.3860  0.4973
   74MOL0     H 9956   4.294   1.431  11.473 -2.1242 -2.5311 -3.4260
   74MOL0     H 9957   4.327   1.609  11.491  0.4657 -0.3993 -0.0745
   74MOL0     H 9958   4.139   1.646  11.594 -0.4178 -1.8489 -0.2183
   74MOL0     H 9959   4.052   1.607  11.446 -0.0811  2.1262 -0.1885
   74MOL0     H 9960   4.128   1.391  11.662 -0.5498 -1.7923  0.1424
   74MOL0     H 9961   4.026   1.380  11.525 -0.2821  2.1552 -1.3588
   74MOL0     H 9962   3.987   1.585  11.753 -1.9770  0.0709  0.7316
   74MOL0     H 9963   3.892   1.554  11.610  1.2964  0.4664 -0.4333
   74MOL0     H 9964   3.916   1.338  11.835  0.2100  0.1005 -0.5792
   74MOL0     H 9965   3.849   1.329  11.680  0.2994 -1.5670  0.6966
   74MOL0     H 9966   3.750   1.488  11.913 -0.1477 -2.6913  1.3297
   74MOL0     H 9967   3.701   1.539  11.755 -3.2452 -0.9727  2.0330
   74MOL0     H 9968   3.650   1.274  11.876 -0.8573  1.6644  0.9436
   74MOL0     H 9969   3.618   1.310  11.702  0.6666  0.8571 -0.8125
   74MOL0     H 9970   3.499   1.404  11.979  1.2027 -0.6676 -0.0668
   74MOL0     H 9971   3.431   1.303  11.851 -3.1777  1.5196  1.1434
   74MOL0     H 9972   4.226   1.459  11.044  1.2862  0.8163 -1.4320
   74MOL0     H 9973   4.406   1.393  10.903 -0.1130 -0.5660  1.0502
   74MOL0     H 9974   4.711   1.259  10.767  0.4856 -1.8013  0.5004
   74MOL0     H 9975   4.858   1.163  10.573  0.2582 -0.7854  1.0146
   74MOL0     H 9976   6.786   0.819  10.601  1.3173 -1.2187 -0.5834
   74MOL0     H 9977   7.012   0.782  10.727  0.4390  1.7056  1.8731
   74MOL0     H 9978   7.405   1.006  10.932 -0.7558 -0.5927  0.4693
   74MOL0     H 9979   7.618   1.002  10.994  0.9211  0.1698 -0.3121
   74MOL0     H 9980   7.919   0.829  10.708  1.5606 -0.8395 -0.3554
   74MOL0     H 9981   7.983   0.999  10.684 -1.2950 -1.3655 -1.0203
   74MOL0     H 9982   8.039   0.896  10.948 -1.9707  3.1526 -0.0612
   74MOL0     H 9983   8.144   0.982  10.837  1.3689  0.1890 -1.6561
   74MOL0     H 9984   8.178   0.793  10.704  1.3276  0.7423 -0.0662
   74MOL0     H 9985   8.079   0.684  10.802  3.6663 -3.5733 -0.5507
   74MOL0     H 9986   8.257   0.802  10.994  1.2403  0.5917 -0.2324
   74MOL0     H 9987   8.350   0.816  10.851 -2.0915  2.6499 -0.2563
   74MOL0     H 9988   8.388   0.402  10.915  1.0448  0.7965 -0.8559
   74MOL0     H 9989   7.756   0.932  10.604 -1.4891  3.2719 -2.1040
   74MOL0     H 9990   7.522   0.924  10.525 -0.0876  0.1656  0.1276
   75MOL0     O 9991   1.012   3.059   0.982 -0.3390 -0.1699 -0.1370
   75MOL0     C 9992   1.049   2.950   0.940 -0.2369 -0.3088  0.0265
   75MOL0     O 9993   0.973   2.841   0.912  0.1108 -0.1348 -0.5587
   75MOL0     C 9994   0.842   2.846   0.934  0.3118  0.6022  0.1874
   75MOL0     C 9995   0.808   2.818   1.068  1.6157  0.4210  0.7329
   75MOL0     C 9996   0.675   2.811   1.097  0.1916  0.0529  0.0345
   75MOL0     C 9997   0.577   2.824   0.996 -1.0267 -0.5290  0.0521
   75MOL0     O 9998   0.442   2.809   1.018  0.0339 -0.5273  0.0664
   75MOL0     C 9999   0.390   2.742   1.136  0.2621 -0.2142 -0.5224
   75MOL0     C10000   0.245   2.763   1.119 -0.2346  0.0741  0.7485
   75MOL0     C10001   0.157   2.751   1.240  0.5553  0.2498  0.4127
   75MOL0     C10002   0.018   2.697   1.206 -0.2232  0.7107  0.7804
   75MOL0     C10003  -0.094   2.748   1.297 -0.5427  0.3964 -0.4607
   75MOL0     C10004  -0.118   2.903   1.277 -0.2475  0.7905  0.2471
   75MOL0     C10005  -0.268   2.929   1.287  0.2345 -0.9227 -0.8315
   75MOL0     C10006  -0.306   2.933   1.440  0.2396  0.6598 -0.3199
   75MOL0     N10007  -0.313   2.796   1.498  0.3310  0.2323 -0.6060
   75MOL0     C10008  -0.410   2.704   1.483  0.9726  0.2218  0.1351
   75MOL0     C10009  -0.365   2.596   1.557  0.5850 -0.3561  0.1932
   75MOL0     C10010  -0.440   2.467   1.556  0.2421  0.0548 -0.1864
   75MOL0     C10011  -0.572   2.473   1.637 -1.3430  0.0795 -0.9829
   75MOL0     C10012  -0.530   2.502   1.784 -0.3323 -0.0377 -0.0760
   75MOL0     C10013  -0.656   2.505   1.872 -1.2256  0.1033 -0.2890
   75MOL0     O10014  -0.753   2.605   1.832 -0.8290  0.4406  0.3020
   75MOL0     C10015  -0.877   2.571   1.792 -0.5612 -0.0575  0.0605
   75MOL0     C10016  -0.919   2.454   1.732 -1.0994  0.1149  0.5135
   75MOL0     C10017  -1.057   2.436   1.704  0.0681  0.6333 -1.0143
   75MOL0     C10018  -1.093   2.313   1.630  0.0138 -1.0369  0.0994
   75MOL0     C10019  -1.155   2.532   1.739 -0.0016  0.1177 -0.4340
   75MOL0     C10020  -1.303   2.518   1.731  0.2364  0.9191 -0.3824
   75MOL0     O10021  -1.386   2.627   1.724 -0.0191  0.7879  0.1873
   75MOL0     C10022  -1.523   2.600   1.702 -0.8176 -0.3537  0.6420
   75MOL0     C10023  -1.598   2.499   1.749  0.5263  0.6847 -0.1226
   75MOL0     C10024  -1.726   2.482   1.699 -0.3750  0.8893 -0.1663
   75MOL0     C10025  -1.783   2.574   1.610  0.5166 -0.3341 -0.4611
   75MOL0     O10026  -1.918   2.558   1.571  0.0980 -0.5968  0.3849
   75MOL0     C10027  -2.019   2.513   1.662 -0.5896  0.9680 -0.2358
   75MOL0     C10028  -2.160   2.565   1.610  0.2525  0.5841  0.6152
   75MOL0     C10029  -2.189   2.713   1.622 -0.5032 -0.0758 -0.5222
   75MOL0     C10030  -2.327   2.734   1.570  0.4896  0.1384  0.7533
   75MOL0     C10031  -2.351   2.885   1.541 -0.7817 -0.3398 -0.5021
   75MOL0     C10032  -2.473   2.887   1.455 -0.0627 -0.2867 -0.2531
   75MOL0     C10033  -2.600   2.832   1.506  0.0996  0.4297  0.5056
   75MOL0     C10034  -2.651   2.910   1.628  0.1276 -0.4468  0.4161
   75MOL0    Cl10035  -2.756   3.048   1.569  0.5857  0.3999  0.2136
   75MOL0     C10036  -1.702   2.683   1.558 -0.9187  0.3543  0.0083
   75MOL0     C10037  -1.570   2.677   1.596 -0.4464  0.1522  0.7307
   75MOL0     O10038  -1.342   2.397   1.736  0.0772 -0.4493 -0.0198
   75MOL0     C10039  -1.102   2.652   1.791  0.3144 -0.7066 -0.5263
   75MOL0     C10040  -0.970   2.669   1.824 -0.0138  0.4724 -0.1304
   75MOL0     N10041  -0.247   2.633   1.620 -0.3040  0.3265  0.6167
   75MOL0     N10042  -0.230   2.757   1.594  0.1503 -0.2658 -0.1002
   75MOL0     C10043   0.616   2.841   0.866  0.3043  0.3260  0.0913
   75MOL0     C10044   0.745   2.859   0.831 -0.0996  0.2734 -0.0189
   75MOL0     C10045   1.192   2.945   0.917  0.5163  0.0891  0.5010
   75MOL0     C10046   1.249   2.830   0.856 -0.5816  0.4626 -0.2507
   75MOL0     C10047   1.386   2.819   0.817 -0.1909 -0.4264 -0.0092
   75MOL0     C10048   1.469   2.923   0.851  0.4617 -0.0281  0.5875
   75MOL0     O10049   1.604   2.905   0.822  0.4301 -0.0583 -0.2427
   75MOL0     C10050   1.705   2.993   0.860 -0.0785 -0.2092  0.3518
   75MOL0     C10051   1.700   3.124   0.782  0.2085 -1.6974 -0.0315
   75MOL0     C10052   1.801   3.237   0.828 -0.4796 -0.2481  0.2024
   75MOL0     C10053   1.769   3.303   0.958  0.8598 -0.0281 -0.0268
   75MOL0     C10054   1.650   3.386   0.935 -0.1032 -0.2322 -0.3262
   75MOL0     C10055   1.569   3.473   0.923  0.7851  0.3456 -0.3717
   75MOL0     C10056   1.424   3.023   0.934  0.0412 -0.1341  0.6414
   75MOL0     C10057   1.282   3.038   0.965 -0.5033 -0.1584 -0.0434
   75MOL0     H10058   0.880   2.808   1.148 -0.5529  1.6115  2.9937
   75MOL0     H10059   0.643   2.793   1.199 -0.6276 -2.1710 -0.5683
   75MOL0     H10060   0.427   2.640   1.149  3.1269  0.5173 -2.0907
   75MOL0     H10061   0.424   2.799   1.223  0.4296 -0.2023 -0.5962
   75MOL0     H10062   0.237   2.866   1.083  0.4604  0.9806  3.0157
   75MOL0     H10063   0.220   2.694   1.038 -0.1615  1.7100 -0.7274
   75MOL0     H10064   0.201   2.684   1.314 -0.6513 -2.7199 -1.3707
   75MOL0     H10065   0.148   2.845   1.295  0.9965 -0.3941  1.6054
   75MOL0     H10066  -0.018   2.719   1.105  2.9851 -1.4738 -1.0214
   75MOL0     H10067   0.031   2.588   1.215  2.9060  0.9703  0.6198
   75MOL0     H10068  -0.186   2.691   1.289 -1.1054  1.1690  0.3341
   75MOL0     H10069  -0.060   2.738   1.401 -0.1896 -1.4760 -0.7249
   75MOL0     H10070  -0.059   2.958   1.351 -0.3150 -2.0445  2.5853
   75MOL0     H10071  -0.076   2.930   1.179  2.8033 -0.2827  1.1434
   75MOL0     H10072  -0.292   3.027   1.246 -0.0968 -0.4480  0.4417
   75MOL0     H10073  -0.320   2.854   1.227 -2.8504 -1.4405  2.1571
   75MOL0     H10074  -0.392   2.996   1.466 -1.0095 -1.5649  1.1866
   75MOL0     H10075  -0.227   2.989   1.492 -0.4020  0.3594  1.0073
   75MOL0     H10076  -0.506   2.710   1.433  0.0851 -0.3702  1.7135
   75MOL0     H10077  -0.470   2.433   1.457 -1.1900 -1.5553  0.7476
   75MOL0     H10078  -0.372   2.392   1.598  2.4709  1.8638 -0.3454
   75MOL0     H10079  -0.628   2.380   1.625  0.2616 -1.1347  0.3499
   75MOL0     H10080  -0.647   2.547   1.610 -1.6618  0.1349  0.0536
   75MOL0     H10081  -0.480   2.599   1.781 -2.6812  1.2370 -1.3618
   75MOL0     H10082  -0.461   2.424   1.817 -0.7913 -0.8929 -1.0652
   75MOL0     H10083  -0.612   2.521   1.971  0.2515  0.0712 -0.9128
   75MOL0     H10084  -0.708   2.409   1.877 -1.7670  0.4455  1.4560
   75MOL0     H10085  -0.849   2.374   1.710  0.3688  1.1033  1.4431
   75MOL0     H10086  -1.007   2.291   1.566  0.0925  1.0355 -0.5679
   75MOL0     H10087  -1.110   2.230   1.700  0.5359 -1.4391 -0.2409
   75MOL0     H10088  -1.176   2.328   1.561  0.8312  0.8854 -0.5436
   75MOL0     H10089  -1.562   2.421   1.815  1.9251 -1.5416 -3.2166
   75MOL0     H10090  -1.776   2.389   1.726 -0.3226 -0.0683 -3.0370
   75MOL0     H10091  -2.018   2.403   1.671 -3.4632  0.7734 -1.4063
   75MOL0     H10092  -2.005   2.554   1.762  0.5688  1.0221 -0.4111
   75MOL0     H10093  -2.177   2.531   1.508  1.0553  0.3480  0.5457
   75MOL0     H10094  -2.241   2.522   1.670  0.7991 -1.8927 -0.2949
   75MOL0     H10095  -2.117   2.768   1.561 -1.5707  1.7796 -0.1965
   75MOL0     H10096  -2.180   2.748   1.726  0.1729  1.8934 -1.1888
   75MOL0     H10097  -2.330   2.682   1.474  2.6284  3.2070 -1.1947
   75MOL0     H10098  -2.398   2.702   1.646 -2.2493 -0.3088 -1.8265
   75MOL0     H10099  -2.270   2.916   1.474 -0.6383 -1.8263 -1.0751
   75MOL0     H10100  -2.354   2.934   1.638  4.1293 -0.1945 -0.1475
   75MOL0     H10101  -2.495   2.988   1.419  3.3133 -0.0260 -2.0717
   75MOL0     H10102  -2.457   2.840   1.357 -0.2672 -1.3748  0.2208
   75MOL0     H10103  -2.578   2.727   1.526  3.1362  1.0867  1.1787
   75MOL0     H10104  -2.679   2.842   1.431  1.8968 -1.8386 -1.9175
   75MOL0     H10105  -2.569   2.945   1.692  2.7263 -0.1347 -2.7889
   75MOL0     H10106  -2.711   2.839   1.686  0.5171 -0.5244  0.7286
   75MOL0     H10107  -1.744   2.757   1.491  0.8135  0.2995 -1.1756
   75MOL0     H10108  -1.517   2.751   1.537 -0.7937 -0.5256 -0.4388
   75MOL0     H10109  -1.167   2.735   1.814  0.6937 -1.0112  2.0412
   75MOL0     H10110  -0.939   2.751   1.887  2.1636 -2.7030  3.4023
   75MOL0     H10111   0.537   2.847   0.791 -0.9009  0.3174  1.3252
   75MOL0     H10112   0.780   2.879   0.730  0.0508 -1.7226 -0.4142
   75MOL0     H10113   1.182   2.746   0.843  0.2421 -0.2288 -0.1393
   75MOL0     H10114   1.432   2.735   0.767  1.5398 -0.6596  1.8413
   75MOL0     H10115   1.700   3.001   0.969  1.5531  2.1348  0.3188
   75MOL0     H10116   1.801   2.947   0.835  1.1769  1.4092  1.9544
   75MOL0     H10117   1.602   3.172   0.778  0.3631 -1.1543  1.7350
   75MOL0     H10118   1.722   3.096   0.679 -2.3579 -1.0094 -0.8385
   75MOL0     H10119   1.818   3.309   0.748  2.3842  2.0689  2.6537
   75MOL0     H10120   1.898   3.190   0.845 -1.2826 -1.9774  0.1930
   75MOL0     H10121   1.850   3.373   0.976  1.4103 -0.2321 -1.5640
   75MOL0     H10122   1.746   3.230   1.037 -0.9556  1.0550  0.5073
   75MOL0     H10123   1.481   3.533   0.914  0.9819  0.6427 -0.3511
   75MOL0     H10124   1.497   3.090   0.979  0.7785 -1.9782  2.3232
   75MOL0     H10125   1.246   3.111   1.037 -1.1206 -1.6842  1.2323
   76MOL0     O10126   1.976   9.318   3.210  0.4146 -1.0355  0.1767
   76MOL0     C10127   2.070   9.235   3.187 -0.4563  0.0134 -0.5445
   76MOL0     O10128   2.075   9.101   3.215 -0.1988 -0.5174 -0.1234
   76MOL0     C10129   1.974   9.031   3.278 -0.4215 -0.0424 -0.8672
   76MOL0     C10130   1.842   9.064   3.294  0.6651  0.5262 -0.3858
   76MOL0     C10131   1.747   8.986   3.365 -1.1802  0.0056 -0.0132
   76MOL0     C10132   1.787   8.865   3.405 -0.4936 -0.3431 -0.1094
   76MOL0     O10133   1.689   8.798   3.476 -0.1783 -0.2365  1.0934
   76MOL0     C10134   1.713   8.676   3.548  0.1299 -0.3991 -0.3570
   76MOL0     C10135   1.597   8.657   3.652 -0.3981  0.1173 -0.1709
   76MOL0     C10136   1.452   8.644   3.597  0.2068  0.2518  0.6189
   76MOL0     C10137   1.360   8.589   3.712 -0.4157 -0.5874 -0.4348
   76MOL0     C10138   1.214   8.600   3.667 -0.3515 -0.1822  0.4435
   76MOL0     C10139   1.121   8.567   3.785  0.1507  0.4904  0.0942
   76MOL0     C10140   0.983   8.639   3.773 -0.5448 -0.0239 -0.5918
   76MOL0     C10141   0.883   8.556   3.853 -0.1905  0.1484  0.0083
   76MOL0     N10142   0.896   8.535   3.995 -0.0235 -0.0491 -0.0571
   76MOL0     C10143   0.923   8.415   4.059  0.2670 -0.1945 -0.2586
   76MOL0     C10144   0.930   8.450   4.195  0.4918 -0.4261  0.5293
   76MOL0     C10145   0.975   8.367   4.310 -0.5092  0.0658 -0.2032
   76MOL0     C10146   0.959   8.217   4.301  1.1096 -0.3224  0.7370
   76MOL0     C10147   0.814   8.159   4.323  0.3752 -0.3510 -0.5245
   76MOL0     C10148   0.787   8.167   4.472  0.4949  0.1864 -0.2601
   76MOL0     O10149   0.677   8.079   4.511 -0.3613  0.6056  0.1315
   76MOL0     C10150   0.555   8.110   4.455 -0.0021  0.3322  1.0057
   76MOL0     C10151   0.486   8.221   4.496 -0.5798 -0.0746 -0.0400
   76MOL0     C10152   0.359   8.253   4.440 -0.8028 -0.5540  0.2587
   76MOL0     C10153   0.294   8.362   4.507 -0.0889 -0.3174 -0.1102
   76MOL0     C10154   0.305   8.178   4.333  0.2379 -0.7386 -1.0601
   76MOL0     C10155   0.175   8.208   4.274 -0.2424  0.1833  0.5261
   76MOL0     O10156   0.120   8.326   4.284  0.0394 -1.6504  0.6379
   76MOL0     C10157   0.020   8.370   4.199  0.1149  0.4461 -0.0144
   76MOL0     C10158   0.054   8.468   4.102 -0.4085  0.0412 -0.7933
   76MOL0     C10159  -0.047   8.527   4.024 -0.5273  0.0143  0.3621
   76MOL0     C10160  -0.178   8.505   4.046  0.4487  0.2397  0.0078
   76MOL0     O10161  -0.274   8.561   3.967  0.8363 -0.0274  0.0946
   76MOL0     C10162  -0.411   8.529   3.994  0.3669  0.3174 -0.7500
   76MOL0     C10163  -0.496   8.609   3.892  0.5947  0.6457  0.5655
   76MOL0     C10164  -0.645   8.593   3.913 -0.4487  0.2938  0.3308
   76MOL0     C10165  -0.722   8.657   3.791 -0.8365  0.3735 -0.7140
   76MOL0     C10166  -0.867   8.656   3.830 -0.2432  0.3001 -1.0449
   76MOL0     C10167  -0.944   8.710   3.707  0.3375 -0.0633  0.5824
   76MOL0     C10168  -1.099   8.707   3.721  0.5246 -0.1202 -0.0539
   76MOL0     C10169  -1.177   8.716   3.588 -0.2594  0.3709 -0.1855
   76MOL0    Cl10170  -1.347   8.689   3.625 -0.0216 -0.1082 -0.3527
   76MOL0     C10171  -0.209   8.410   4.147 -0.0044 -0.4968  0.3056
   76MOL0     C10172  -0.113   8.345   4.224 -1.0282  1.0327 -0.0186
   76MOL0     O10173   0.131   8.121   4.201 -0.1267 -0.3390 -0.1421
   76MOL0     C10174   0.380   8.064   4.296  1.0368 -0.6502  0.0221
   76MOL0     C10175   0.500   8.024   4.360  0.0348 -0.1905  0.4056
   76MOL0     N10176   0.923   8.585   4.205 -0.5040 -0.7084 -0.3464
   76MOL0     N10177   0.897   8.636   4.088  0.4071  0.2724 -0.5810
   76MOL0     C10178   1.922   8.825   3.397 -0.6439 -0.4165  0.0723
   76MOL0     C10179   2.021   8.912   3.336  1.4726  0.5259  0.0753
   76MOL0     C10180   2.194   9.295   3.133 -0.1158  0.6220 -0.6923
   76MOL0     C10181   2.302   9.213   3.092 -0.3670 -0.2063  0.1078
   76MOL0     C10182   2.421   9.260   3.030  0.7810  0.2240 -0.0720
   76MOL0     C10183   2.435   9.404   3.021  0.2865 -0.5862  0.1300
   76MOL0     O10184   2.536   9.464   2.953 -0.0661 -0.2308 -0.2331
   76MOL0     C10185   2.657   9.393   2.913  0.9953  0.4398 -0.5188
   76MOL0     C10186   2.784   9.483   2.925  0.3565  0.2144  0.7066
   76MOL0     C10187   2.848   9.507   2.785  0.1087  0.7311 -0.6758
   76MOL0     C10188   2.927   9.639   2.782 -0.1248  0.2342  0.3207
   76MOL0     C10189   2.977   9.670   2.650 -0.5262  0.6373 -0.0579
   76MOL0     C10190   3.047   9.713   2.551 -0.8254 -0.0613  0.3278
   76MOL0     C10191   2.330   9.486   3.070  0.5090 -0.1352  0.0074
   76MOL0     C10192   2.216   9.434   3.126  0.4255  0.1814  0.8700
   76MOL0     H10193   1.805   9.158   3.256 -1.3215  0.6327  1.6051
   76MOL0     H10194   1.644   9.018   3.375 -0.7083  1.1142  1.6937
   76MOL0     H10195   1.716   8.591   3.479 -0.8264  0.7033 -1.8077
   76MOL0     H10196   1.807   8.690   3.601 -0.1916  0.2389  0.0598
   76MOL0     H10197   1.624   8.578   3.722 -0.7328  1.5867  1.7059
   76MOL0     H10198   1.596   8.746   3.716 -0.4867  0.1470 -0.2135
   76MOL0     H10199   1.407   8.742   3.579  2.0113  1.4107  2.1429
   76MOL0     H10200   1.447   8.591   3.501  3.3833  0.1603  0.3962
   76MOL0     H10201   1.387   8.486   3.736 -1.7388 -1.0344 -0.7609
   76MOL0     H10202   1.378   8.653   3.798 -0.1018 -1.2179 -0.0222
   76MOL0     H10203   1.190   8.700   3.630 -1.6113 -0.3470  0.7854
   76MOL0     H10204   1.188   8.534   3.584 -0.8540 -1.1499  1.3362
   76MOL0     H10205   1.122   8.457   3.792  2.3292  0.3507 -1.4896
   76MOL0     H10206   1.155   8.599   3.884 -0.4584  0.1025  0.4378
   76MOL0     H10207   0.996   8.736   3.821  0.8722 -2.4393  4.7268
   76MOL0     H10208   0.958   8.659   3.669  0.5821 -1.0918 -1.1000
   76MOL0     H10209   0.884   8.455   3.810 -0.0080  0.0114  0.3337
   76MOL0     H10210   0.781   8.587   3.827 -0.6558  0.2278  1.8049
   76MOL0     H10211   0.936   8.316   4.016 -0.8650 -1.1514  1.4976
   76MOL0     H10212   1.083   8.375   4.324 -0.6234 -0.8147  1.4719
   76MOL0     H10213   0.926   8.406   4.399 -0.3748 -0.1237 -0.0467
   76MOL0     H10214   1.034   8.172   4.367 -0.3450 -0.9563  2.0333
   76MOL0     H10215   0.984   8.178   4.202  2.2455  3.0770 -0.4487
   76MOL0     H10216   0.809   8.054   4.293  3.7509 -1.5971  2.5112
   76MOL0     H10217   0.746   8.219   4.261 -1.4585  1.5996  3.0504
   76MOL0     H10218   0.771   8.268   4.512 -1.8595 -1.6683  4.1894
   76MOL0     H10219   0.877   8.128   4.520  0.2740 -1.3380 -1.0178
   76MOL0     H10220   0.526   8.280   4.577 -1.7663  1.8538 -0.8034
   76MOL0     H10221   0.202   8.320   4.548  0.0116 -0.0756  0.3780
   76MOL0     H10222   0.353   8.398   4.592  1.0882  0.8610 -1.3748
   76MOL0     H10223   0.287   8.450   4.443 -0.3831 -1.0644 -1.1242
   76MOL0     H10224   0.158   8.499   4.102 -0.2663 -0.4201 -1.5298
   76MOL0     H10225  -0.021   8.613   3.962  0.0235  0.2099  0.8482
   76MOL0     H10226  -0.431   8.422   3.985  1.0915  0.1124 -0.0543
   76MOL0     H10227  -0.455   8.555   4.091 -1.4356 -2.0375 -0.8488
   76MOL0     H10228  -0.467   8.714   3.880  2.2045  0.1691  0.0141
   76MOL0     H10229  -0.472   8.562   3.796 -2.1496  1.7168 -0.7719
   76MOL0     H10230  -0.683   8.625   4.010  0.5418 -1.0890  1.2217
   76MOL0     H10231  -0.671   8.487   3.912 -3.3034  0.9218 -0.6975
   76MOL0     H10232  -0.682   8.757   3.772  3.5159 -0.6502  1.4671
   76MOL0     H10233  -0.712   8.593   3.703 -0.2889 -0.2707 -0.2035
   76MOL0     H10234  -0.874   8.715   3.922  1.9600 -0.4106 -0.3569
   76MOL0     H10235  -0.899   8.554   3.855 -0.8413  0.7773  0.2001
   76MOL0     H10236  -0.919   8.817   3.700 -0.5932  0.1529  0.3981
   76MOL0     H10237  -0.912   8.654   3.618  0.5678 -1.0380  1.2720
   76MOL0     H10238  -1.138   8.788   3.785 -0.0671  0.0154 -0.5742
   76MOL0     H10239  -1.141   8.619   3.770  0.6044 -0.5537 -0.7519
   76MOL0     H10240  -1.143   8.629   3.532  0.0687 -0.6831  1.5884
   76MOL0     H10241  -1.155   8.812   3.541  0.5189  0.2181 -0.1388
   76MOL0     H10242  -0.312   8.375   4.153 -0.5504  0.6948 -1.4924
   76MOL0     H10243  -0.158   8.286   4.303 -3.3356 -0.2230 -2.1327
   76MOL0     H10244   0.339   7.997   4.220 -1.5949  1.7803 -0.8814
   76MOL0     H10245   0.550   7.938   4.319 -0.8841 -0.3614 -0.3706
   76MOL0     H10246   1.971   8.734   3.430  0.7569 -0.2564 -1.4635
   76MOL0     H10247   2.126   8.883   3.337  1.5629  0.7470 -1.3503
   76MOL0     H10248   2.286   9.107   3.108  0.1934 -0.5457 -1.4124
   76MOL0     H10249   2.493   9.189   2.989 -1.1153 -2.3640  0.8004
   76MOL0     H10250   2.674   9.317   2.990  1.3429  0.7498 -0.2893
   76MOL0     H10251   2.645   9.341   2.817 -2.6044 -1.3100  0.6837
   76MOL0     H10252   2.854   9.442   2.999  2.3698  0.2678 -1.0546
   76MOL0     H10253   2.757   9.580   2.969 -1.0109 -0.3512  1.1731
   76MOL0     H10254   2.756   9.530   2.731 -0.9259  1.3638  1.2694
   76MOL0     H10255   2.910   9.426   2.746  3.4960  2.8651 -0.2082
   76MOL0     H10256   3.022   9.631   2.836  0.3656  2.1273 -0.1460
   76MOL0     H10257   2.871   9.722   2.825  1.3627  0.7018  1.4538
   76MOL0     H10258   3.091   9.749   2.460  0.0171  2.9831  1.8047
   76MOL0     H10259   2.339   9.593   3.057  0.4561 -0.3354 -2.0185
   76MOL0     H10260   2.143   9.501   3.170  1.5232  1.5872  0.6234
   77MOL0     O10261  10.124  10.269   4.993  0.3554 -0.4845  0.2503
   77MOL0     C10262  10.174  10.323   4.893 -0.5505  1.4087 -0.2203
   77MOL0     O10263  10.105  10.399   4.798 -0.0112  0.1088  0.1029
   77MOL0     C10264   9.977  10.430   4.808 -0.1475  0.2048  0.0492
   77MOL0     C10265   9.926  10.465   4.679 -0.3906 -0.7208  0.9002
   77MOL0     C10266   9.798  10.512   4.675  0.4572  0.4237 -0.6596
   77MOL0     C10267   9.724  10.532   4.795 -0.6660  0.5909 -0.1536
   77MOL0     O10268   9.598  10.584   4.803  0.0332  0.4724 -0.6473
   77MOL0     C10269   9.559  10.669   4.692 -0.1404 -0.0101  0.0789
   77MOL0     C10270   9.441  10.759   4.736  0.2330  1.4905  0.5831
   77MOL0     C10271   9.312  10.668   4.726  0.3119  0.5964 -0.4503
   77MOL0     C10272   9.206  10.723   4.813 -0.2756 -0.4757 -1.4637
   77MOL0     C10273   9.059  10.678   4.773 -0.9232 -0.3255 -0.1195
   77MOL0     C10274   8.966  10.709   4.887  0.5598  0.2711  0.5593
   77MOL0     C10275   8.810  10.692   4.856 -0.3660 -0.1046 -0.1927
   77MOL0     C10276   8.728  10.751   4.968  0.5374  0.5808 -0.4775
   77MOL0     N10277   8.591  10.718   4.940 -0.0078  0.2294  0.3764
   77MOL0     C10278   8.509  10.765   4.832 -0.2230  0.2841  0.0275
   77MOL0     C10279   8.389  10.707   4.861  0.1981 -0.7127  0.3704
   77MOL0     C10280   8.265  10.731   4.789  0.4307 -1.1339 -0.3348
   77MOL0     C10281   8.161  10.834   4.843 -0.0975  0.4217  0.4062
   77MOL0     C10282   8.131  10.809   4.989  0.1855  0.2259 -0.1157
   77MOL0     C10283   8.043  10.933   5.036  0.3063  1.0935 -0.7138
   77MOL0     O10284   7.996  10.915   5.175  0.9971 -0.0056 -0.5556
   77MOL0     C10285   7.873  10.845   5.196  1.2835 -0.5681 -1.2375
   77MOL0     C10286   7.807  10.779   5.094  0.1273  0.1944 -0.5036
   77MOL0     C10287   7.673  10.728   5.111 -0.2399 -0.0527  0.0320
   77MOL0     C10288   7.609  10.669   4.990 -0.1357 -0.3283 -0.2668
   77MOL0     C10289   7.604  10.749   5.233  0.2258 -0.2368 -0.6698
   77MOL0     C10290   7.461  10.714   5.257 -0.0765 -0.3776  0.2706
   77MOL0     O10291   7.403  10.782   5.367 -0.7413 -0.3684 -0.5495
   77MOL0     C10292   7.317  10.701   5.439  0.4690 -0.2886 -0.4814
   77MOL0     C10293   7.184  10.695   5.401 -0.0105 -0.1581 -0.2543
   77MOL0     C10294   7.097  10.606   5.464 -0.9691  0.2316 -0.1893
   77MOL0     C10295   7.143  10.526   5.570  0.0110  1.8045 -0.4637
   77MOL0     O10296   7.071  10.429   5.635  0.6660  0.3505 -0.3014
   77MOL0     C10297   6.936  10.408   5.601 -0.4486 -0.1498 -0.3297
   77MOL0     C10298   6.885  10.345   5.730  0.2829  1.3028 -0.9784
   77MOL0     C10299   6.741  10.315   5.709 -0.0998 -0.2697  0.6702
   77MOL0     C10300   6.669  10.282   5.839  0.5428 -0.3733 -0.2368
   77MOL0     C10301   6.516  10.307   5.832  0.3153 -0.2341 -0.1904
   77MOL0     C10302   6.440  10.192   5.763 -0.1556 -0.2497  0.5242
   77MOL0     C10303   6.289  10.210   5.780 -0.5377 -0.4226 -0.4921
   77MOL0     C10304   6.226  10.086   5.721  0.4907  0.6960 -0.4899
   77MOL0    Cl10305   6.058  10.096   5.779 -0.0559 -0.4359  0.6180
   77MOL0     C10306   7.281  10.517   5.600  1.0736 -0.3943 -0.6238
   77MOL0     C10307   7.370  10.609   5.537 -0.9655 -0.0775  1.0322
   77MOL0     O10308   7.411  10.620   5.198 -0.5113 -0.7484  0.2568
   77MOL0     C10309   7.672  10.815   5.335  0.4552  0.6182 -0.1459
   77MOL0     C10310   7.804  10.865   5.316 -0.1574 -0.0210  0.0769
   77MOL0     N10311   8.402  10.619   4.961  0.4285  0.9064 -0.7931
   77MOL0     N10312   8.523  10.622   5.012  0.4205  0.1352 -0.0684
   77MOL0     C10313   9.771  10.485   4.916  0.4925 -0.1274  0.3504
   77MOL0     C10314   9.899  10.433   4.923  0.2985 -0.5784  0.3927
   77MOL0     C10315  10.321  10.320   4.878 -0.2782  0.7287 -0.6500
   77MOL0     C10316  10.379  10.351   4.759 -0.2992 -0.2380  0.3394
   77MOL0     C10317  10.516  10.339   4.741  0.1148  0.0568 -0.5295
   77MOL0     C10318  10.601  10.319   4.850  0.1773  0.4104  0.0498
   77MOL0     O10319  10.736  10.322   4.836  0.1212 -1.0198  0.0699
   77MOL0     C10320  10.799  10.367   4.717  0.2747  0.1004  0.1369
   77MOL0     C10321  10.950  10.348   4.739  0.0222 -0.0006 -0.4760
   77MOL0     C10322  11.030  10.388   4.619 -0.3372 -0.1706  0.1604
   77MOL0     C10323  11.173  10.354   4.662 -0.0326  0.1373  0.8547
   77MOL0     C10324  11.269  10.384   4.553 -0.5389  0.4481 -0.3736
   77MOL0     C10325  11.348  10.433   4.475  0.1647  0.1311  1.0283
   77MOL0     C10326  10.548  10.273   4.976 -1.0805 -0.6654 -0.6386
   77MOL0     C10327  10.401  10.269   4.979 -0.0792 -0.1824 -0.1025
   77MOL0     H10328   9.979  10.452   4.586 -1.2578 -0.3502  0.3453
   77MOL0     H10329   9.761  10.536   4.576  0.8905 -1.3782 -1.2910
   77MOL0     H10330   9.636  10.742   4.665 -1.7445  1.7137 -0.0091
   77MOL0     H10331   9.525  10.612   4.605  1.2511 -1.8994  0.7139
   77MOL0     H10332   9.465  10.786   4.839  2.6081 -1.0929  0.8303
   77MOL0     H10333   9.441  10.850   4.676  0.6837  0.6129 -0.7848
   77MOL0     H10334   9.271  10.658   4.625  0.5932  2.6577 -0.8049
   77MOL0     H10335   9.338  10.566   4.755  2.0350  1.5911  1.8090
   77MOL0     H10336   9.224  10.690   4.916  1.6590 -1.7467 -2.1715
   77MOL0     H10337   9.201  10.832   4.805 -3.9002 -0.5211 -1.4906
   77MOL0     H10338   9.036  10.724   4.677 -1.0957 -0.7832 -0.3004
   77MOL0     H10339   9.048  10.571   4.754  1.3796 -0.3201 -1.8592
   77MOL0     H10340   8.992  10.645   4.972 -0.5203  3.0491  3.1696
   77MOL0     H10341   8.975  10.815   4.911 -2.7364  0.3940  1.6421
   77MOL0     H10342   8.795  10.744   4.760  1.0556  1.0220  0.1715
   77MOL0     H10343   8.780  10.588   4.845  0.8119 -0.3048 -1.8509
   77MOL0     H10344   8.736  10.860   4.975  1.1979  0.4501  1.1408
   77MOL0     H10345   8.759  10.693   5.055  0.8295 -1.2921 -1.7727
   77MOL0     H10346   8.529  10.827   4.745  0.1602  0.7142  0.4147
   77MOL0     H10347   8.286  10.767   4.688 -3.5646  3.3451  0.0637
   77MOL0     H10348   8.207  10.639   4.784  0.5389 -1.1386 -2.8146
   77MOL0     H10349   8.074  10.810   4.782  1.1139  1.1736 -1.7145
   77MOL0     H10350   8.193  10.935   4.817  1.5290 -0.7141 -2.4774
   77MOL0     H10351   8.225  10.804   5.045  0.4499 -0.2056 -0.5883
   77MOL0     H10352   8.073  10.717   5.001 -1.8546  1.6087  1.3650
   77MOL0     H10353   7.955  10.952   4.974  0.2636  2.2629 -0.3211
   77MOL0     H10354   8.110  11.020   5.034  0.3382  1.3272  2.9161
   77MOL0     H10355   7.855  10.756   4.999  0.0770  0.4376 -0.5880
   77MOL0     H10356   7.649  10.718   4.901  1.5572  1.7341  1.5041
   77MOL0     H10357   7.616  10.561   4.978 -2.2165 -0.3825 -1.4559
   77MOL0     H10358   7.508  10.712   4.992  1.1387  3.0372  2.1321
   77MOL0     H10359   7.149  10.749   5.315 -0.0362 -0.1798 -0.2573
   77MOL0     H10360   6.998  10.588   5.423 -0.3953  0.7461 -1.9207
   77MOL0     H10361   6.877  10.496   5.575  0.7023  1.3858  1.9670
   77MOL0     H10362   6.925  10.332   5.522  3.2345 -0.4990 -0.6904
   77MOL0     H10363   6.941  10.254   5.755 -1.1493  0.0936 -1.9764
   77MOL0     H10364   6.895  10.410   5.817 -2.4025  0.5831  0.0018
   77MOL0     H10365   6.716  10.245   5.628 -3.8306  0.6229  0.8876
   77MOL0     H10366   6.703  10.414   5.682  0.5269 -0.5017 -1.2355
   77MOL0     H10367   6.706  10.188   5.881 -0.7576 -0.8559 -0.1423
   77MOL0     H10368   6.699  10.355   5.915 -1.9897  0.3131  0.2004
   77MOL0     H10369   6.494  10.408   5.794  0.0940 -1.2901 -3.1005
   77MOL0     H10370   6.486  10.327   5.936 -0.9415  2.1282 -0.9181
   77MOL0     H10371   6.464  10.187   5.656  0.2790 -3.9314  0.6664
   77MOL0     H10372   6.488  10.102   5.802  0.5621 -0.9612 -1.8308
   77MOL0     H10373   6.257  10.300   5.728 -1.2426 -0.4313 -0.0919
   77MOL0     H10374   6.284  10.218   5.889  2.4252  0.0304 -0.3145
   77MOL0     H10375   6.269   9.995   5.764  1.3622 -1.1345 -4.6442
   77MOL0     H10376   6.245  10.083   5.613  0.3172 -0.1280 -0.5042
   77MOL0     H10377   7.316  10.437   5.664  2.9354  1.5911  0.9866
   77MOL0     H10378   7.473  10.606   5.572 -1.1205  0.4991  1.5509
   77MOL0     H10379   7.627  10.837   5.431  0.8349  3.0302 -0.4578
   77MOL0     H10380   7.843  10.934   5.390 -3.4814  4.5674 -1.9722
   77MOL0     H10381   9.705  10.502   5.000 -1.5193 -0.7257 -1.0263
   77MOL0     H10382   9.939  10.415   5.023 -4.7149 -0.1467  2.8066
   77MOL0     H10383  10.305  10.365   4.681 -0.6254 -3.2667 -0.0011
   77MOL0     H10384  10.542  10.350   4.637  0.5263  1.6399 -0.2912
   77MOL0     H10385  10.777  10.298   4.635  1.2939 -1.7059  1.3189
   77MOL0     H10386  10.776  10.472   4.697  0.2535  0.3749  1.5216
   77MOL0     H10387  10.972  10.248   4.778 -1.8041  0.4594  1.9287
   77MOL0     H10388  10.977  10.407   4.827 -0.2207 -1.3044  0.4970
   77MOL0     H10389  11.023  10.494   4.591 -1.6524 -0.5988 -1.2528
   77MOL0     H10390  11.005  10.327   4.531 -1.1440 -0.0654  0.3097
   77MOL0     H10391  11.176  10.245   4.669 -2.9811 -0.0140  0.9886
   77MOL0     H10392  11.194  10.393   4.762 -2.9781  2.4222  0.6952
   77MOL0     H10393  11.423  10.475   4.411  0.6278  0.0458  1.5131
   77MOL0     H10394  10.611  10.234   5.056 -2.1338  0.5267  0.8137
   77MOL0     H10395  10.351  10.243   5.072 -2.9424  0.6655 -1.2933
   78MOL0     O10396   1.390   7.331   0.754  0.2461  0.0840 -0.5913
   78MOL0     C10397   1.417   7.385   0.643 -0.3960 -0.4202 -0.8990
   78MOL0     O10398   1.351   7.368   0.527 -0.3758  0.0982 -0.0599
   78MOL0     C10399   1.259   7.272   0.524  0.5310 -0.6494 -0.1388
   78MOL0     C10400   1.130   7.300   0.577 -0.7111  0.1904  1.2071
   78MOL0     C10401   1.031   7.209   0.558 -0.4134 -0.6811 -0.0873
   78MOL0     C10402   1.056   7.084   0.501  0.1653  0.5426  0.1151
   78MOL0     O10403   0.955   6.993   0.467 -0.3928  0.4536  0.7675
   78MOL0     C10404   0.883   7.046   0.354  0.4529  0.9071 -0.0968
   78MOL0     C10405   0.808   6.931   0.292 -0.2735 -0.6181 -0.0289
   78MOL0     C10406   0.669   6.887   0.363  0.0913  0.1319  0.3098
   78MOL0     C10407   0.567   7.003   0.352  0.0524 -0.1918  0.7796
   78MOL0     C10408   0.434   6.958   0.413  0.3157  1.1363  0.6365
   78MOL0     C10409   0.317   7.058   0.407 -0.6250 -0.9035  0.2580
   78MOL0     C10410   0.269   7.083   0.269 -0.7435 -0.5096  0.7977
   78MOL0     C10411   0.163   7.192   0.272  0.4460  0.8111 -0.3423
   78MOL0     N10412   0.025   7.138   0.298 -0.0890  0.1683  0.6033
   78MOL0     C10413  -0.042   7.126   0.413 -0.4954 -0.2813 -0.4976
   78MOL0     C10414  -0.140   7.037   0.401 -0.1677  0.3624 -0.0975
   78MOL0     C10415  -0.231   6.985   0.505 -1.1965 -0.0435  0.0320
   78MOL0     C10416  -0.361   7.055   0.493  0.1038  0.3378  0.5339
   78MOL0     C10417  -0.457   7.007   0.599 -0.4186 -0.3427 -0.0410
   78MOL0     C10418  -0.581   7.084   0.595 -0.4820 -0.9811  0.3845
   78MOL0     O10419  -0.662   7.047   0.489 -0.7445 -0.1039  0.6219
   78MOL0     C10420  -0.788   7.098   0.487 -0.1907 -0.1389  0.6340
   78MOL0     C10421  -0.889   7.031   0.420 -0.4679  0.0400  0.0658
   78MOL0     C10422  -1.021   7.084   0.415 -0.1206  0.5279 -0.0840
   78MOL0     C10423  -1.118   7.018   0.322  0.5482 -0.1223  0.5098
   78MOL0     C10424  -1.057   7.195   0.493 -0.8689 -0.6437 -0.8590
   78MOL0     C10425  -1.190   7.264   0.502 -0.2774 -0.2836  0.1869
   78MOL0     O10426  -1.297   7.178   0.508 -0.0608  0.1101 -0.2431
   78MOL0     C10427  -1.423   7.233   0.488  0.5466  0.5728  0.5452
   78MOL0     C10428  -1.479   7.348   0.549  0.0811 -0.0837  0.5144
   78MOL0     C10429  -1.610   7.384   0.523  0.1922  0.7333  0.3945
   78MOL0     C10430  -1.701   7.307   0.450 -0.2923  0.1326 -0.2872
   78MOL0     O10431  -1.829   7.322   0.429  0.8598 -0.0986 -0.9174
   78MOL0     C10432  -1.911   7.303   0.539 -0.0285  0.6200 -0.2970
   78MOL0     C10433  -2.026   7.217   0.480  0.4081  0.0057  0.7102
   78MOL0     C10434  -2.118   7.303   0.393 -0.1134 -0.0519 -0.4819
   78MOL0     C10435  -2.227   7.220   0.326  1.1379 -0.1459 -0.0226
   78MOL0     C10436  -2.187   7.170   0.188  0.6149 -0.2546  0.3037
   78MOL0     C10437  -2.286   7.068   0.142 -0.3115 -0.3124  0.4695
   78MOL0     C10438  -2.252   7.009   0.005  0.2682 -0.3404  0.2463
   78MOL0     C10439  -2.129   6.917   0.000  0.2246  0.4989  0.8535
   78MOL0    Cl10440  -2.114   6.841  -0.166  0.0904  0.6197  0.3174
   78MOL0     C10441  -1.646   7.194   0.384 -0.6345 -0.4660 -0.5324
   78MOL0     C10442  -1.512   7.154   0.405 -0.6942  0.0838 -0.1918
   78MOL0     O10443  -1.190   7.382   0.498  0.4018 -0.5414  0.1411
   78MOL0     C10444  -0.951   7.251   0.572 -0.4875 -0.3107 -0.0446
   78MOL0     C10445  -0.823   7.211   0.566  1.1987  1.2506 -1.0522
   78MOL0     N10446  -0.120   6.983   0.277 -0.9896  0.9644  0.4426
   78MOL0     N10447  -0.027   7.047   0.216  1.1305  0.2210 -0.0717
   78MOL0     C10448   1.188   7.053   0.470 -0.1134 -0.4492 -0.2238
   78MOL0     C10449   1.291   7.146   0.480  0.7000  1.1790  0.3789
   78MOL0     C10450   1.549   7.453   0.635  0.1987 -1.1606 -0.5247
   78MOL0     C10451   1.647   7.432   0.729  0.1723 -0.8456 -0.1569
   78MOL0     C10452   1.774   7.484   0.718 -1.2613 -0.6454  0.7999
   78MOL0     C10453   1.804   7.563   0.602 -0.6056 -0.4768  0.0758
   78MOL0     O10454   1.929   7.621   0.602 -0.2227 -0.8309 -0.4484
   78MOL0     C10455   1.991   7.650   0.475 -0.4285 -0.6596  0.0069
   78MOL0     C10456   2.143   7.645   0.486  0.2116  0.2456  0.0584
   78MOL0     C10457   2.185   7.768   0.568 -0.4400  0.6145  0.2853
   78MOL0     C10458   2.343   7.772   0.584 -0.3311 -0.6167  0.1948
   78MOL0     C10459   2.395   7.879   0.673 -0.2795  0.6763 -0.2431
   78MOL0     C10460   2.432   7.930   0.779 -1.0650  0.7416 -0.6275
   78MOL0     C10461   1.703   7.592   0.510  0.6557 -0.0615 -0.0529
   78MOL0     C10462   1.579   7.540   0.526  0.5819  0.4933  0.0543
   78MOL0     H10463   1.103   7.397   0.616 -2.1627  0.2521  0.1018
   78MOL0     H10464   0.927   7.230   0.580 -0.4945 -2.9870  2.1058
   78MOL0     H10465   0.821   7.135   0.372  0.3443  0.7881  0.1230
   78MOL0     H10466   0.956   7.081   0.281 -0.1809  1.0537 -0.6628
   78MOL0     H10467   0.782   6.955   0.188 -1.2348 -0.5134  0.2255
   78MOL0     H10468   0.883   6.852   0.285  0.0238 -0.2865 -0.7941
   78MOL0     H10469   0.635   6.798   0.310  3.5739 -1.2535  0.1620
   78MOL0     H10470   0.692   6.866   0.468 -0.3554  0.8090  0.5515
   78MOL0     H10471   0.597   7.097   0.399 -2.2297  0.3811  1.2109
   78MOL0     H10472   0.550   7.020   0.245  0.2112 -0.2329  0.7481
   78MOL0     H10473   0.400   6.859   0.381  0.1853  0.3349  3.0217
   78MOL0     H10474   0.463   6.950   0.519  2.2194  0.7501  0.1245
   78MOL0     H10475   0.237   7.016   0.468  1.2349 -0.7032  3.0009
   78MOL0     H10476   0.355   7.148   0.457 -0.7274 -1.0364  0.5789
   78MOL0     H10477   0.351   7.107   0.201 -1.7701 -0.7159 -0.5523
   78MOL0     H10478   0.218   6.998   0.223 -0.1325 -0.2602 -0.3630
   78MOL0     H10479   0.165   7.246   0.176  0.9637 -0.0413 -0.8300
   78MOL0     H10480   0.181   7.272   0.344  2.2447  1.5411 -1.5231
   78MOL0     H10481  -0.026   7.198   0.493 -1.3481 -1.8615  1.1604
   78MOL0     H10482  -0.256   6.882   0.480 -1.8022  0.6928 -2.8246
   78MOL0     H10483  -0.191   6.989   0.607 -2.1417 -1.9163  0.5071
   78MOL0     H10484  -0.408   7.039   0.396  2.3394 -1.6595 -0.3035
   78MOL0     H10485  -0.352   7.164   0.500 -1.1195  0.5267 -0.3700
   78MOL0     H10486  -0.407   7.011   0.696 -0.8737  0.1126  0.1782
   78MOL0     H10487  -0.485   6.903   0.581 -2.0769  0.5039 -2.9812
   78MOL0     H10488  -0.549   7.188   0.582  1.6022 -1.6956 -0.5967
   78MOL0     H10489  -0.635   7.073   0.690  0.7326 -2.6468  0.9292
   78MOL0     H10490  -0.847   6.942   0.374  2.0322  0.5168  1.2899
   78MOL0     H10491  -1.091   6.941   0.250  1.3382  0.8439 -0.2583
   78MOL0     H10492  -1.193   6.975   0.389  0.5010 -1.3818 -0.3273
   78MOL0     H10493  -1.177   7.092   0.267  1.9498  1.0507  0.5202
   78MOL0     H10494  -1.411   7.413   0.604 -2.6207  2.2044  1.4080
   78MOL0     H10495  -1.655   7.477   0.556 -1.2806  0.7301 -1.4515
   78MOL0     H10496  -1.866   7.242   0.618  0.9310  0.0443 -1.2634
   78MOL0     H10497  -1.949   7.397   0.581 -3.8321 -0.2815 -1.3231
   78MOL0     H10498  -1.979   7.137   0.423  0.5933  0.0292  0.8303
   78MOL0     H10499  -2.076   7.177   0.570  1.8709 -1.1602  1.0428
   78MOL0     H10500  -2.058   7.351   0.315  0.8454  0.1906  0.3814
   78MOL0     H10501  -2.161   7.381   0.457  0.9370  0.8874 -0.8911
   78MOL0     H10502  -2.255   7.131   0.381 -1.1067 -0.6183 -1.7838
   78MOL0     H10503  -2.306   7.296   0.324  0.5974 -0.7171 -0.9123
   78MOL0     H10504  -2.089   7.121   0.185  2.3046  2.8153 -2.7122
   78MOL0     H10505  -2.195   7.245   0.109 -0.4264  0.9537  1.5197
   78MOL0     H10506  -2.295   6.981   0.207  0.8961 -1.4463 -0.8006
   78MOL0     H10507  -2.386   7.113   0.135  0.3103  1.1748  0.8276
   78MOL0     H10508  -2.244   7.089  -0.070 -0.9072 -0.5573 -0.1423
   78MOL0     H10509  -2.335   6.945  -0.027 -1.6578  0.5421  3.0319
   78MOL0     H10510  -2.138   6.837   0.074  0.2287  0.7168  1.0929
   78MOL0     H10511  -2.032   6.962   0.024  0.9532 -0.9778  0.8190
   78MOL0     H10512  -1.712   7.129   0.328 -0.8914 -1.0618  0.4286
   78MOL0     H10513  -1.483   7.055   0.370  0.2490 -0.4893  2.0604
   78MOL0     H10514  -0.984   7.334   0.634  1.8632  1.1420 -0.6035
   78MOL0     H10515  -0.760   7.255   0.642 -0.3969 -0.6956  1.5719
   78MOL0     H10516   1.224   6.952   0.452  0.5720 -0.0981 -0.8639
   78MOL0     H10517   1.391   7.113   0.452  0.4296  1.3483 -0.8565
   78MOL0     H10518   1.619   7.374   0.817  0.0149 -3.8277 -2.0383
   78MOL0     H10519   1.832   7.487   0.810  0.4035  2.4041 -0.1829
   78MOL0     H10520   1.964   7.582   0.394  0.1240  1.3938 -1.9929
   78MOL0     H10521   1.968   7.751   0.437  3.2371  0.1351 -0.4313
   78MOL0     H10522   2.177   7.648   0.382 -3.4017 -1.2167 -1.3153
   78MOL0     H10523   2.170   7.554   0.540 -1.5605  0.3836  1.2452
   78MOL0     H10524   2.130   7.766   0.662 -2.9367  0.2659 -1.1033
   78MOL0     H10525   2.163   7.864   0.519 -1.2411  1.7008  2.6537
   78MOL0     H10526   2.392   7.779   0.487  0.5780  2.5501  0.7688
   78MOL0     H10527   2.370   7.675   0.625 -0.9359 -1.2262 -0.8092
   78MOL0     H10528   2.470   7.968   0.871  1.5800  3.2272 -2.5534
   78MOL0     H10529   1.726   7.655   0.425  1.0416 -1.5274 -1.0781
   78MOL0     H10530   1.499   7.576   0.463  1.4955  1.6953 -0.4597
   79MOL0     O10531   4.879   2.826  11.030 -0.0232 -0.0657 -0.2282
   79MOL0     C10532   4.931   2.927  10.976  0.6838 -0.2234  0.7698
   79MOL0     O10533   4.870   3.052  10.970  1.0678 -0.2150 -0.5069
   79MOL0     C10534   4.757   3.080  11.051 -0.1154 -0.6374  0.8545
   79MOL0     C10535   4.754   3.203  11.110  0.4944  0.1710 -1.1292
   79MOL0     C10536   4.651   3.238  11.194  0.0919 -0.4811 -0.1575
   79MOL0     C10537   4.535   3.168  11.202  0.1403 -0.3242 -0.2481
   79MOL0     O10538   4.421   3.213  11.265  0.7304  0.5040  0.2719
   79MOL0     C10539   4.424   3.333  11.345  0.6478 -0.2111 -0.5981
   79MOL0     C10540   4.297   3.366  11.428 -0.1335  0.3013  0.4584
   79MOL0     C10541   4.249   3.256  11.516  0.5185 -1.1497  0.1399
   79MOL0     C10542   4.120   3.307  11.585 -0.1773  0.7260 -1.2314
   79MOL0     C10543   4.093   3.226  11.718  0.1342 -0.3298 -0.1819
   79MOL0     C10544   3.947   3.255  11.767 -1.1089 -0.3025  0.3065
   79MOL0     C10545   3.912   3.160  11.885  0.1061 -0.7472  0.1793
   79MOL0     C10546   3.760   3.138  11.894  0.5725 -0.0723 -0.8220
   79MOL0     N10547   3.712   3.057  12.010 -0.6413  0.1909 -0.0619
   79MOL0     C10548   3.733   2.922  12.022  0.4199  0.5579  0.0145
   79MOL0     C10549   3.698   2.892  12.149  0.9173  0.4849 -0.3969
   79MOL0     C10550   3.701   2.755  12.225  0.1744  0.2895 -0.5746
   79MOL0     C10551   3.628   2.641  12.147 -0.3648  0.8301  0.2817
   79MOL0     C10552   3.475   2.671  12.137 -0.4678  0.8137  1.0553
   79MOL0     C10553   3.407   2.559  12.066  0.1330 -0.2705 -0.3326
   79MOL0     O10554   3.414   2.578  11.929  0.5839 -0.5330 -0.0164
   79MOL0     C10555   3.394   2.474  11.844 -0.1707  0.2639 -0.3085
   79MOL0     C10556   3.394   2.504  11.708  0.0180  0.2517  0.0478
   79MOL0     C10557   3.376   2.404  11.605 -0.5507 -0.1559  0.1221
   79MOL0     C10558   3.379   2.456  11.464  0.2767  0.1583 -0.0693
   79MOL0     C10559   3.369   2.269  11.638 -0.3589 -0.0767 -0.5792
   79MOL0     C10560   3.355   2.154  11.546 -0.1218  0.2517 -0.3241
   79MOL0     O10561   3.406   2.036  11.589  0.2251  0.2667 -0.8415
   79MOL0     C10562   3.460   1.939  11.503 -0.4282 -0.0603  1.0433
   79MOL0     C10563   3.454   1.813  11.549 -0.0477  0.7585 -0.3992
   79MOL0     C10564   3.516   1.706  11.475 -0.2863 -0.6274  0.2446
   79MOL0     C10565   3.586   1.734  11.360 -0.0596  0.3221  0.3900
   79MOL0     O10566   3.667   1.644  11.284 -0.0861  0.2923 -0.4100
   79MOL0     C10567   3.671   1.503  11.317 -0.7321  0.2343 -0.0653
   79MOL0     C10568   3.807   1.462  11.287 -0.8520 -0.6090  0.2575
   79MOL0     C10569   3.819   1.314  11.262  0.7360 -0.2349 -1.0400
   79MOL0     C10570   3.968   1.267  11.252 -0.1438  0.5289 -0.4288
   79MOL0     C10571   3.960   1.107  11.232  0.3260 -1.2337  0.1074
   79MOL0     C10572   4.091   1.044  11.270  0.4629 -0.7793  0.2172
   79MOL0     C10573   4.202   1.083  11.168 -0.1262 -0.7666 -0.7204
   79MOL0     C10574   4.314   0.981  11.176 -0.4093  0.3787 -0.1736
   79MOL0    Cl10575   4.369   0.972  11.347 -0.0339 -0.4543 -0.0525
   79MOL0     C10576   3.595   1.865  11.320  0.3565 -0.3913  0.3150
   79MOL0     C10577   3.536   1.970  11.394  0.4145 -0.3431  0.5547
   79MOL0     O10578   3.303   2.170  11.439  0.0313  0.7793 -0.3050
   79MOL0     C10579   3.368   2.241  11.778 -0.5564 -0.7681  0.3918
   79MOL0     C10580   3.378   2.339  11.871 -0.0090  0.9090  0.0112
   79MOL0     N10581   3.634   2.998  12.201 -0.4900 -0.3547 -0.1811
   79MOL0     N10582   3.642   3.101  12.114  0.4524  0.1051 -0.5465
   79MOL0     C10583   4.529   3.050  11.131 -0.4153  0.6165 -0.4973
   79MOL0     C10584   4.648   2.993  11.066  0.3908  0.0319 -0.7713
   79MOL0     C10585   5.065   2.918  10.919 -0.1434 -0.7210 -0.9279
   79MOL0     C10586   5.128   3.029  10.856  1.2295 -0.0803  0.1073
   79MOL0     C10587   5.258   3.015  10.808 -0.3030  0.6187  0.2951
   79MOL0     C10588   5.334   2.898  10.822 -0.3331 -0.0272 -0.5870
   79MOL0     O10589   5.453   2.888  10.758  0.5122  1.0795  0.1344
   79MOL0     C10590   5.561   2.969  10.802  0.4143 -0.0349 -0.0818
   79MOL0     C10591   5.598   2.947  10.947  0.1530  0.3704 -0.0229
   79MOL0     C10592   5.649   2.803  10.965  0.0627  1.3397 -0.5166
   79MOL0     C10593   5.706   2.767  11.106  0.1692 -0.2598  0.0386
   79MOL0     C10594   5.601   2.748  11.203  0.5584  0.0481  0.3709
   79MOL0     C10595   5.510   2.761  11.280 -0.1869  0.0320 -0.1019
   79MOL0     C10596   5.279   2.799  10.902 -0.0787 -0.1672  0.2159
   79MOL0     C10597   5.145   2.806  10.945  0.4281 -0.0603  0.5488
   79MOL0     H10598   4.830   3.280  11.108  0.4187  0.2834 -0.0098
   79MOL0     H10599   4.637   3.339  11.231 -1.5766 -0.7530  0.0431
   79MOL0     H10600   4.509   3.307  11.410  0.6106  1.0572 -0.0284
   79MOL0     H10601   4.449   3.415  11.278  0.1099  1.7324  1.4664
   79MOL0     H10602   4.309   3.461  11.481 -1.2449  0.7290 -0.0314
   79MOL0     H10603   4.221   3.387  11.352  0.1278 -1.3552 -0.3118
   79MOL0     H10604   4.225   3.164  11.461  0.3132 -0.9438 -0.1194
   79MOL0     H10605   4.336   3.244  11.581  1.2447  1.3071 -0.2975
   79MOL0     H10606   4.119   3.414  11.606 -2.0019  0.1013  3.0686
   79MOL0     H10607   4.036   3.297  11.515 -1.1195  0.1765 -0.0626
   79MOL0     H10608   4.098   3.120  11.691 -2.2051 -0.4731 -0.2829
   79MOL0     H10609   4.162   3.239  11.802 -0.0016 -0.6377 -0.0186
   79MOL0     H10610   3.949   3.359  11.802  1.3487  0.0341 -0.6429
   79MOL0     H10611   3.889   3.251  11.675  2.0112 -1.4800 -1.7805
   79MOL0     H10612   3.970   3.068  11.871 -0.8824 -1.3584 -0.0052
   79MOL0     H10613   3.948   3.203  11.979 -1.5675  0.0128  0.5087
   79MOL0     H10614   3.714   3.096  11.804  0.4932 -0.6376 -0.5181
   79MOL0     H10615   3.717   3.237  11.912 -2.0768 -1.1516 -0.7793
   79MOL0     H10616   3.765   2.843  11.955  1.6537 -0.8204  2.1275
   79MOL0     H10617   3.807   2.732  12.242  0.1634  1.1778  0.8737
   79MOL0     H10618   3.665   2.764  12.328  3.3921 -2.2187  0.9549
   79MOL0     H10619   3.668   2.554  12.200  3.3411  2.9932  1.4152
   79MOL0     H10620   3.672   2.626  12.048 -1.6795 -1.2281 -0.0420
   79MOL0     H10621   3.441   2.766  12.094  0.9855  1.0192  0.3020
   79MOL0     H10622   3.441   2.667  12.241  1.7018  2.3981  1.8838
   79MOL0     H10623   3.305   2.539  12.098  1.1592 -2.1939  2.0220
   79MOL0     H10624   3.458   2.466  12.090 -2.6392 -2.5524 -2.6388
   79MOL0     H10625   3.416   2.609  11.697  1.5578 -0.0977 -0.3439
   79MOL0     H10626   3.279   2.439  11.422 -0.2040 -1.3120  1.5322
   79MOL0     H10627   3.403   2.562  11.470 -3.7845  1.1921  1.6628
   79MOL0     H10628   3.460   2.411  11.406  2.2761  1.5437  1.5012
   79MOL0     H10629   3.402   1.780  11.639  3.1579 -0.7742  1.0624
   79MOL0     H10630   3.530   1.606  11.515  0.9147  1.2425  5.2765
   79MOL0     H10631   3.650   1.478  11.422 -1.4613 -1.1845 -0.5210
   79MOL0     H10632   3.603   1.448  11.252 -0.0339 -0.1360 -0.5009
   79MOL0     H10633   3.831   1.515  11.194  1.2555  1.4002  1.8068
   79MOL0     H10634   3.872   1.499  11.367 -0.2081  4.1956 -2.0776
   79MOL0     H10635   3.771   1.278  11.170  1.2778  2.2071 -2.3691
   79MOL0     H10636   3.777   1.265  11.350  2.8108 -0.3267 -0.0477
   79MOL0     H10637   4.025   1.307  11.168 -0.0707  0.3730 -0.4532
   79MOL0     H10638   4.017   1.293  11.346  0.0740  0.9582 -0.6571
   79MOL0     H10639   3.940   1.085  11.127 -0.8939 -1.2624  0.3218
   79MOL0     H10640   3.874   1.057  11.278 -0.2790 -0.2581  0.0732
   79MOL0     H10641   4.113   1.085  11.369  4.4913  0.1145 -0.8596
   79MOL0     H10642   4.064   0.938  11.277 -1.4395 -0.3244  0.1298
   79MOL0     H10643   4.236   1.186  11.181 -2.5737 -0.1358  1.5370
   79MOL0     H10644   4.155   1.073  11.069 -2.4443 -0.6649  0.2928
   79MOL0     H10645   4.397   0.999  11.106  0.0715  0.8181  0.4953
   79MOL0     H10646   4.277   0.883  11.143 -2.0997  1.1178 -0.5505
   79MOL0     H10647   3.658   1.896  11.237 -1.0845  3.2082  0.4020
   79MOL0     H10648   3.533   2.071  11.354  0.7582 -1.2673 -2.0228
   79MOL0     H10649   3.345   2.141  11.813 -1.7211 -1.6814 -2.6144
   79MOL0     H10650   3.365   2.314  11.976  0.4313  0.0081 -0.1305
   79MOL0     H10651   4.440   2.987  11.131  0.4724 -0.8334  2.7316
   79MOL0     H10652   4.646   2.897  11.016 -3.3208  0.8389 -2.5888
   79MOL0     H10653   5.066   3.116  10.841  0.6442  0.0191  2.7415
   79MOL0     H10654   5.285   3.107  10.759 -1.9245  2.0784  1.9755
   79MOL0     H10655   5.647   2.952  10.736  0.9985 -2.4351  1.2069
   79MOL0     H10656   5.522   3.071  10.795  0.8188  0.0406 -1.7154
   79MOL0     H10657   5.513   2.968  11.013 -2.1591 -1.9966 -1.9836
   79MOL0     H10658   5.686   3.009  10.965 -1.1913  2.5060 -0.4649
   79MOL0     H10659   5.735   2.786  10.899  0.4704 -0.3446  0.3947
   79MOL0     H10660   5.571   2.737  10.925  1.2454 -0.2342 -0.3301
   79MOL0     H10661   5.772   2.851  11.130  1.6737 -0.7324 -2.1375
   79MOL0     H10662   5.763   2.675  11.095 -0.5962 -0.7880  0.3606
   79MOL0     H10663   5.443   2.767  11.364 -0.1541 -0.5653 -0.0290
   79MOL0     H10664   5.338   2.708  10.907  1.0942  0.3990 -1.7955
   79MOL0     H10665   5.098   2.720  10.992 -0.6911  0.9574  1.3421
   80MOL0     O10666   2.985   4.067   6.915  0.3621  0.4015 -0.5222
   80MOL0     C10667   3.018   4.141   6.824 -0.0141 -0.7479 -0.0826
   80MOL0     O10668   2.934   4.202   6.733 -0.5304 -0.1099  0.2104
   80MOL0     C10669   2.802   4.186   6.742  0.0743 -0.2881  0.2266
   80MOL0     C10670   2.732   4.209   6.861  1.5048 -0.2410 -0.3625
   80MOL0     C10671   2.593   4.163   6.868 -0.0307  0.0530 -0.6310
   80MOL0     C10672   2.529   4.117   6.753 -0.0769 -0.4358  0.1516
   80MOL0     O10673   2.387   4.107   6.761  0.1019 -0.4111 -0.0191
   80MOL0     C10674   2.349   3.969   6.754  0.8987 -0.5109 -1.2266
   80MOL0     C10675   2.231   3.937   6.847 -0.2840 -0.2398 -0.2734
   80MOL0     C10676   2.103   4.012   6.807 -0.5413 -0.6772 -0.2594
   80MOL0     C10677   1.982   3.945   6.878  0.7302 -0.6961  0.6304
   80MOL0     C10678   1.857   4.027   6.855  0.2686 -1.0531  0.4042
   80MOL0     C10679   1.735   3.942   6.904  0.0578  0.4422  0.3556
   80MOL0     C10680   1.616   4.025   6.887 -0.2596  0.3293  0.3631
   80MOL0     C10681   1.519   3.971   6.987  0.2096 -0.5647 -0.0231
   80MOL0     N10682   1.381   4.003   6.962 -0.2458  0.1738  0.6118
   80MOL0     C10683   1.308   3.967   6.846 -0.8412  0.4695 -0.3174
   80MOL0     C10684   1.178   3.986   6.873  0.1291 -0.5187 -0.1503
   80MOL0     C10685   1.063   3.941   6.791  0.6148  0.1775  0.3443
   80MOL0     C10686   0.972   3.868   6.891  0.7745  0.3587 -0.0647
   80MOL0     C10687   0.840   3.825   6.823  0.0134  0.3235  0.6162
   80MOL0     C10688   0.765   3.922   6.733  0.9401  0.4021  0.0084
   80MOL0     O10689   0.652   3.855   6.688  0.0093  1.1699  0.6541
   80MOL0     C10690   0.558   3.929   6.620 -0.0948 -0.1372 -0.2631
   80MOL0     C10691   0.456   3.854   6.559  0.0966  0.1393  0.1461
   80MOL0     C10692   0.351   3.913   6.482  0.1525 -0.1899 -0.4696
   80MOL0     C10693   0.254   3.818   6.418 -0.3815  0.9179 -0.1478
   80MOL0     C10694   0.341   4.059   6.481  0.3213  0.7258  0.4941
   80MOL0     C10695   0.226   4.132   6.428 -0.5020  0.5106  1.0052
   80MOL0     O10696   0.258   4.257   6.389 -0.3113  0.3862  0.2516
   80MOL0     C10697   0.175   4.332   6.311 -0.6766  0.9650  0.5470
   80MOL0     C10698   0.177   4.471   6.318  0.9607 -0.6981  0.0172
   80MOL0     C10699   0.087   4.561   6.253  0.3824 -0.2547 -0.0591
   80MOL0     C10700   0.001   4.502   6.163 -0.1606 -0.1465  0.1250
   80MOL0     O10701  -0.058   4.586   6.076  0.4412 -0.6185  0.2165
   80MOL0     C10702  -0.180   4.551   6.006  0.2710  0.8105  0.1794
   80MOL0     C10703  -0.294   4.550   6.119  0.0951 -0.6267  0.3590
   80MOL0     C10704  -0.423   4.538   6.045 -0.7875 -0.9237 -0.4127
   80MOL0     C10705  -0.547   4.507   6.133 -0.4069 -0.0261  0.2267
   80MOL0     C10706  -0.670   4.530   6.044 -0.9322  0.2708  0.7425
   80MOL0     C10707  -0.703   4.681   6.032  0.0856 -0.4695  0.9070
   80MOL0     C10708  -0.837   4.692   5.952 -0.5188 -0.5251 -0.4536
   80MOL0     C10709  -0.838   4.799   5.845 -0.5419 -0.0944  0.0620
   80MOL0    Cl10710  -1.003   4.817   5.776 -0.2093 -0.4394 -0.2170
   80MOL0     C10711  -0.017   4.360   6.149  0.0040 -1.7176  0.5202
   80MOL0     C10712   0.071   4.279   6.223  0.0526  0.5590  0.2116
   80MOL0     O10713   0.119   4.085   6.447  0.5362  0.3578  0.1719
   80MOL0     C10714   0.443   4.137   6.535 -0.1615  0.3366 -0.4605
   80MOL0     C10715   0.544   4.077   6.612 -0.0947  0.6786 -0.4643
   80MOL0     N10716   1.177   4.045   6.999 -0.3155 -0.1003 -0.4836
   80MOL0     N10717   1.290   4.045   7.047 -0.3618 -0.3308 -0.1066
   80MOL0     C10718   2.594   4.122   6.632  0.3108 -0.3553  0.5696
   80MOL0     C10719   2.736   4.150   6.628 -0.5363 -0.4114  0.4038
   80MOL0     C10720   3.164   4.192   6.825  0.3127  0.9127  1.5335
   80MOL0     C10721   3.195   4.312   6.766 -0.8499  0.0027  0.3032
   80MOL0     C10722   3.329   4.354   6.779 -0.0324 -0.2497 -0.3428
   80MOL0     C10723   3.427   4.290   6.847  0.3331  1.0343  1.1307
   80MOL0     O10724   3.556   4.331   6.853  0.0123 -0.1146 -0.3688
   80MOL0     C10725   3.652   4.280   6.957 -0.2638 -0.3219  0.4380
   80MOL0     C10726   3.762   4.384   6.982 -0.2782 -0.0254 -0.1394
   80MOL0     C10727   3.899   4.325   7.026 -0.0064  0.1608 -0.2943
   80MOL0     C10728   3.996   4.419   7.094 -0.0820 -0.6895 -0.3999
   80MOL0     C10729   3.996   4.546   7.016  0.4262 -0.7268 -0.0732
   80MOL0     C10730   4.002   4.648   6.958  1.0613 -0.5951  0.2476
   80MOL0     C10731   3.389   4.163   6.902 -0.2019 -1.0353  0.5143
   80MOL0     C10732   3.257   4.119   6.897 -0.0083 -0.0893 -0.1813
   80MOL0     H10733   2.787   4.253   6.944 -0.7256  3.2130 -0.5582
   80MOL0     H10734   2.539   4.182   6.960 -1.5474 -1.5992 -1.1361
   80MOL0     H10735   2.305   3.951   6.656 -1.8555  0.2885 -0.2286
   80MOL0     H10736   2.436   3.905   6.775  0.6954 -0.3316  0.2872
   80MOL0     H10737   2.210   3.830   6.839 -3.0337  0.2570 -0.6673
   80MOL0     H10738   2.251   3.969   6.949 -1.7409  1.6257 -0.5357
   80MOL0     H10739   2.118   4.113   6.844  1.4561 -0.6432 -1.0842
   80MOL0     H10740   2.083   4.021   6.700 -1.9785  0.4428  0.0760
   80MOL0     H10741   1.968   3.844   6.839 -0.4140 -0.3630  0.1413
   80MOL0     H10742   2.002   3.926   6.984  1.4324  1.8548  1.0198
   80MOL0     H10743   1.863   4.117   6.916  1.1418  0.5347 -1.8719
   80MOL0     H10744   1.843   4.054   6.750 -0.8670 -0.6124  0.6607
   80MOL0     H10745   1.729   3.847   6.850 -2.2393  0.6745  0.1136
   80MOL0     H10746   1.751   3.917   7.010 -0.7537 -2.3232 -0.0786
   80MOL0     H10747   1.627   4.133   6.902 -1.1917  0.4411  0.2942
   80MOL0     H10748   1.571   4.000   6.791 -0.8487 -2.7735  1.3233
   80MOL0     H10749   1.554   4.009   7.084 -2.0084  0.1941  0.5393
   80MOL0     H10750   1.526   3.862   6.987  0.9008 -0.5971  2.6741
   80MOL0     H10751   1.352   3.934   6.752 -1.7325  4.3922 -2.3451
   80MOL0     H10752   1.012   4.027   6.746  1.6853  0.7210  0.1152
   80MOL0     H10753   1.077   3.874   6.705 -3.4248  0.3273 -0.6064
   80MOL0     H10754   0.941   3.935   6.972  0.6763 -0.9154  0.9950
   80MOL0     H10755   1.009   3.772   6.927  0.3811 -0.9802 -2.9768
   80MOL0     H10756   0.771   3.797   6.903 -1.9674  1.6189 -0.5592
   80MOL0     H10757   0.859   3.739   6.758  0.7012  0.0524  1.1599
   80MOL0     H10758   0.831   3.953   6.652  2.3136 -0.2501  0.8327
   80MOL0     H10759   0.741   4.013   6.788 -0.4450  0.5592 -0.8253
   80MOL0     H10760   0.465   3.747   6.572  0.1782  0.0881 -0.3362
   80MOL0     H10761   0.300   3.719   6.411  0.9455  1.3779  1.4361
   80MOL0     H10762   0.165   3.828   6.482 -0.9615  1.2080 -0.9872
   80MOL0     H10763   0.244   3.851   6.314  3.7367 -1.4575 -1.5219
   80MOL0     H10764   0.258   4.524   6.367  1.7696  1.9988 -3.7794
   80MOL0     H10765   0.093   4.669   6.249  1.3824 -0.3127 -0.3054
   80MOL0     H10766  -0.200   4.638   5.943 -0.1489  1.0943  0.6909
   80MOL0     H10767  -0.179   4.457   5.951  0.3666 -0.1563  1.7635
   80MOL0     H10768  -0.289   4.458   6.178 -0.2728 -1.3633 -0.7277
   80MOL0     H10769  -0.293   4.644   6.175 -0.4068  0.2217 -1.0206
   80MOL0     H10770  -0.407   4.453   5.978 -1.3020 -1.6475  0.3599
   80MOL0     H10771  -0.438   4.626   5.982 -1.5523 -0.7468  0.0109
   80MOL0     H10772  -0.551   4.404   6.170 -0.8016  0.4028  1.4375
   80MOL0     H10773  -0.546   4.561   6.228  1.3543 -0.5521  0.5501
   80MOL0     H10774  -0.754   4.469   6.079  0.1446 -1.5356  0.3292
   80MOL0     H10775  -0.645   4.484   5.948  0.8736 -1.0715  1.7862
   80MOL0     H10776  -0.718   4.730   6.128 -1.4889 -2.3864  1.7135
   80MOL0     H10777  -0.636   4.737   5.966 -2.3663  0.2482 -1.1756
   80MOL0     H10778  -0.897   4.717   6.040 -1.0915 -0.4006 -0.8783
   80MOL0     H10779  -0.864   4.598   5.903 -2.3073 -0.6270  0.6273
   80MOL0     H10780  -0.770   4.773   5.762 -0.3326  1.4524 -0.2869
   80MOL0     H10781  -0.789   4.886   5.891  1.8899 -1.3202 -0.0215
   80MOL0     H10782  -0.092   4.320   6.080 -0.3037 -0.1868 -0.0713
   80MOL0     H10783   0.071   4.173   6.198 -1.4601  0.8964 -1.3320
   80MOL0     H10784   0.440   4.246   6.531  0.8664  0.3629 -0.9206
   80MOL0     H10785   0.616   4.148   6.651 -1.6650  1.7404  0.6106
   80MOL0     H10786   2.542   4.087   6.543  2.1505 -1.6502 -0.0476
   80MOL0     H10787   2.775   4.138   6.528  0.8728 -0.5388  0.9459
   80MOL0     H10788   3.124   4.368   6.705 -1.7921 -1.1221  0.3408
   80MOL0     H10789   3.351   4.452   6.737  0.7496 -0.4809 -0.4937
   80MOL0     H10790   3.590   4.260   7.045 -5.1367 -0.3746 -2.6229
   80MOL0     H10791   3.703   4.185   6.939 -1.5983 -0.9840  0.0314
   80MOL0     H10792   3.729   4.452   7.061  0.9987 -1.8013  2.0763
   80MOL0     H10793   3.785   4.436   6.889 -1.9790  1.6455  0.3262
   80MOL0     H10794   3.952   4.290   6.937 -0.8248 -0.4714 -0.5441
   80MOL0     H10795   3.889   4.235   7.088  4.1767  0.3906  1.0625
   80MOL0     H10796   4.091   4.364   7.101 -0.8345 -1.8879  0.7638
   80MOL0     H10797   3.945   4.436   7.189 -1.3685 -2.6388 -0.6700
   80MOL0     H10798   4.017   4.734   6.896  3.0971  0.3645  1.9494
   80MOL0     H10799   3.462   4.104   6.957  0.6793 -1.8862 -1.4697
   80MOL0     H10800   3.224   4.025   6.940  1.2001 -1.5362 -2.2111
   81MOL0     O10801   5.869   7.902   4.971  0.5064  0.7519 -0.5300
   81MOL0     C10802   5.873   7.910   4.847  0.3733  0.0870  0.2474
   81MOL0     O10803   5.803   7.817   4.769 -0.2621  0.4617 -0.2317
   81MOL0     C10804   5.713   7.735   4.831 -0.6148 -0.3585  0.6519
   81MOL0     C10805   5.600   7.786   4.892 -0.5415  0.6836  0.3040
   81MOL0     C10806   5.517   7.695   4.967 -0.3668 -0.1267  0.3473
   81MOL0     C10807   5.550   7.562   4.978 -0.1559 -0.4960  0.8786
   81MOL0     O10808   5.466   7.487   5.059  0.3685 -0.0155  0.1124
   81MOL0     C10809   5.483   7.344   5.049 -0.6348  0.3125  0.3196
   81MOL0     C10810   5.355   7.277   5.107 -0.4505  0.1325 -0.9533
   81MOL0     C10811   5.358   7.126   5.103  0.4451  0.1314  0.4572
   81MOL0     C10812   5.228   7.070   5.154  0.5489 -0.6127  0.0239
   81MOL0     C10813   5.116   7.068   5.041  0.1219  0.3896 -1.2949
   81MOL0     C10814   4.978   7.009   5.101  0.0641 -0.0792  0.3427
   81MOL0     C10815   4.863   6.971   5.007  0.1352  0.3022  0.5765
   81MOL0     C10816   4.816   7.087   4.920  0.6412  0.2764 -0.3150
   81MOL0     N10817   4.705   7.043   4.830  1.2681  1.1994 -0.8575
   81MOL0     C10818   4.662   6.911   4.809 -0.4260  0.0994  0.0157
   81MOL0     C10819   4.561   6.925   4.728  0.2758  0.5543 -0.9385
   81MOL0     C10820   4.479   6.802   4.683  0.2593 -0.2811 -0.0259
   81MOL0     C10821   4.346   6.807   4.758  0.6652  0.1511 -0.6087
   81MOL0     C10822   4.239   6.918   4.708  0.2008 -0.0872 -0.0504
   81MOL0     C10823   4.106   6.921   4.803 -0.2083  0.2568  1.3606
   81MOL0     O10824   4.026   6.803   4.780  0.3999  0.2481 -0.0079
   81MOL0     C10825   3.901   6.781   4.839 -0.3873 -0.8491 -0.2510
   81MOL0     C10826   3.831   6.865   4.923 -0.1477 -0.5935 -0.7797
   81MOL0     C10827   3.700   6.845   4.965 -0.4083 -0.2715 -0.8346
   81MOL0     C10828   3.648   6.955   5.067 -0.2609  0.1616  0.2854
   81MOL0     C10829   3.636   6.721   4.938 -0.0563 -0.3489 -1.4778
   81MOL0     C10830   3.504   6.691   4.992 -0.8471 -0.3100 -0.5593
   81MOL0     O10831   3.403   6.655   4.902  0.1918  0.0120 -0.1734
   81MOL0     C10832   3.271   6.653   4.946 -1.2369 -0.7107  0.4488
   81MOL0     C10833   3.180   6.558   4.883 -0.2365 -1.1545 -0.5772
   81MOL0     C10834   3.044   6.574   4.912  0.0544 -0.4906  0.7429
   81MOL0     C10835   2.988   6.669   4.992 -1.4699  0.1047 -0.2196
   81MOL0     O10836   2.855   6.660   5.007  0.0419 -0.3532  0.0347
   81MOL0     C10837   2.796   6.708   5.127  0.5959  0.0420 -0.2609
   81MOL0     C10838   2.657   6.662   5.145  1.1685  0.8854 -0.9110
   81MOL0     C10839   2.607   6.678   5.291  0.6399 -0.4591  1.1655
   81MOL0     C10840   2.467   6.616   5.301 -0.9387  0.2911 -0.0065
   81MOL0     C10841   2.421   6.647   5.437  0.4645 -0.3284 -0.4193
   81MOL0     C10842   2.282   6.586   5.460 -0.3708  0.0922 -1.0694
   81MOL0     C10843   2.244   6.621   5.608  0.0515 -0.3830 -0.0306
   81MOL0     C10844   2.128   6.544   5.665 -0.4644  0.0947 -0.5213
   81MOL0    Cl10845   2.098   6.580   5.839 -0.5900  0.7481  0.0936
   81MOL0     C10846   3.076   6.763   5.049  0.2942  0.4671  1.3485
   81MOL0     C10847   3.214   6.754   5.030  0.4777  0.3277  0.0742
   81MOL0     O10848   3.487   6.706   5.114  0.5983  0.3572 -0.5124
   81MOL0     C10849   3.697   6.636   4.856 -1.0373  0.2001  0.5174
   81MOL0     C10850   3.825   6.669   4.800  0.5366  0.0174 -0.1342
   81MOL0     N10851   4.532   7.054   4.696  0.3482 -0.4957  0.6113
   81MOL0     N10852   4.621   7.131   4.755 -0.8470  0.8680  0.7965
   81MOL0     C10853   5.660   7.514   4.907  0.1873 -0.3763 -0.0827
   81MOL0     C10854   5.746   7.599   4.835 -0.4804 -0.0161  0.3762
   81MOL0     C10855   5.950   8.019   4.787  0.3382  1.0797 -0.7461
   81MOL0     C10856   6.003   8.119   4.872  0.6907 -0.5794  0.1739
   81MOL0     C10857   6.061   8.234   4.813 -0.0504 -0.5754 -0.6632
   81MOL0     C10858   6.075   8.234   4.680  0.1261  0.1677  0.5476
   81MOL0     O10859   6.124   8.333   4.601 -0.0547 -0.5465  0.1329
   81MOL0     C10860   6.221   8.427   4.642  0.6566 -0.1914 -0.0270
   81MOL0     C10861   6.322   8.439   4.533 -0.1192  0.0138  0.8126
   81MOL0     C10862   6.280   8.495   4.397  0.1434 -0.0574 -0.9716
   81MOL0     C10863   6.377   8.455   4.285 -0.3795 -0.3362 -0.0189
   81MOL0     C10864   6.331   8.498   4.151 -0.0851 -0.6822 -0.6927
   81MOL0     C10865   6.286   8.527   4.045  0.0752 -0.5244 -0.5210
   81MOL0     C10866   6.022   8.140   4.597 -0.3185 -0.3581  0.3116
   81MOL0     C10867   5.958   8.029   4.651  0.0202 -0.1820 -0.3182
   81MOL0     H10868   5.574   7.892   4.889 -0.4142  0.7215  0.5374
   81MOL0     H10869   5.426   7.733   5.012 -0.4718  3.9011 -2.7195
   81MOL0     H10870   5.496   7.293   4.953  2.1832 -2.1593  1.8744
   81MOL0     H10871   5.568   7.312   5.109  0.1834  1.4666 -0.1661
   81MOL0     H10872   5.335   7.302   5.211 -1.8133 -1.4718 -0.7967
   81MOL0     H10873   5.269   7.319   5.054 -1.2144 -0.8375 -0.5193
   81MOL0     H10874   5.387   7.098   5.001  1.0330 -1.5342  1.0508
   81MOL0     H10875   5.438   7.087   5.166  0.3671  1.4428  1.4144
   81MOL0     H10876   5.234   6.974   5.204 -1.9972 -1.4719 -1.1537
   81MOL0     H10877   5.197   7.143   5.229  0.0173 -0.9147  0.1012
   81MOL0     H10878   5.096   7.167   4.999 -3.8298  1.2016  1.9144
   81MOL0     H10879   5.157   6.997   4.968  2.6343  0.5440 -0.1330
   81MOL0     H10880   5.002   6.912   5.145  0.7888 -0.2572 -0.4161
   81MOL0     H10881   4.948   7.079   5.179 -1.4700  0.2012 -0.4696
   81MOL0     H10882   4.893   6.888   4.942  2.0619  1.9793 -0.7997
   81MOL0     H10883   4.779   6.943   5.072 -1.2576  0.5548 -1.0447
   81MOL0     H10884   4.900   7.110   4.854 -0.4298  0.5389 -1.6676
   81MOL0     H10885   4.802   7.182   4.972  2.9331  0.5076 -0.0317
   81MOL0     H10886   4.686   6.818   4.859 -2.2753 -1.6694 -2.1774
   81MOL0     H10887   4.472   6.807   4.574  1.9866  2.9971 -0.1105
   81MOL0     H10888   4.533   6.712   4.713 -2.4266 -1.2224  2.4710
   81MOL0     H10889   4.375   6.819   4.863 -1.4650 -0.4301  0.1009
   81MOL0     H10890   4.302   6.707   4.750  0.7399  0.1146 -0.5644
   81MOL0     H10891   4.217   6.903   4.601 -1.8750  2.2350 -0.0228
   81MOL0     H10892   4.286   7.015   4.722  1.2106 -0.2822 -1.8165
   81MOL0     H10893   4.049   7.014   4.800  1.2247  1.1962  1.9403
   81MOL0     H10894   4.142   6.916   4.907 -1.0230  0.2135  1.6459
   81MOL0     H10895   3.883   6.953   4.957 -0.4865  0.2482 -2.3471
   81MOL0     H10896   3.698   7.052   5.060  2.3291 -1.1536 -0.3485
   81MOL0     H10897   3.540   6.974   5.063 -0.8095 -2.5304  0.5005
   81MOL0     H10898   3.666   6.926   5.171  0.2100  1.2424  0.5236
   81MOL0     H10899   3.211   6.474   4.823  1.1678  0.1774 -1.7985
   81MOL0     H10900   2.976   6.507   4.861  0.6300  0.5824 -1.6205
   81MOL0     H10901   2.849   6.662   5.211  1.0711 -1.6853 -1.4456
   81MOL0     H10902   2.804   6.817   5.125  2.2595 -0.0538 -0.1253
   81MOL0     H10903   2.604   6.723   5.072 -0.5512  0.4741 -0.0624
   81MOL0     H10904   2.653   6.555   5.123  0.2070  0.1542  2.2915
   81MOL0     H10905   2.598   6.785   5.314  0.1269  0.2601 -1.9180
   81MOL0     H10906   2.668   6.639   5.373 -2.4074 -2.7065  2.5812
   81MOL0     H10907   2.396   6.657   5.228  0.3161  1.1275 -0.7937
   81MOL0     H10908   2.485   6.511   5.280 -0.5760  0.7820 -2.4715
   81MOL0     H10909   2.412   6.756   5.449  3.8256 -0.2283  3.6107
   81MOL0     H10910   2.478   6.603   5.519  0.5817  3.1853  1.6105
   81MOL0     H10911   2.213   6.630   5.387  1.2316  2.3114 -1.3523
   81MOL0     H10912   2.292   6.478   5.450  2.6749 -0.2384  2.8331
   81MOL0     H10913   2.216   6.727   5.611  1.9183  0.1799 -0.9496
   81MOL0     H10914   2.333   6.614   5.672  1.4527  2.9815 -1.3681
   81MOL0     H10915   2.146   6.438   5.644 -0.9981  0.2284 -1.7526
   81MOL0     H10916   2.030   6.563   5.619 -0.6394  1.1075  0.2453
   81MOL0     H10917   3.047   6.847   5.110 -3.9911 -0.1038  0.3866
   81MOL0     H10918   3.268   6.837   5.074 -0.1466  0.1580  1.2188
   81MOL0     H10919   3.644   6.544   4.834 -0.8790  0.2222  0.0309
   81MOL0     H10920   3.866   6.586   4.743  1.5994 -2.5812  3.9301
   81MOL0     H10921   5.673   7.407   4.900 -2.0838 -0.6130 -2.5934
   81MOL0     H10922   5.832   7.556   4.786 -0.4404  1.2321 -0.6869
   81MOL0     H10923   5.985   8.119   4.979 -1.4421  0.9963 -0.1208
   81MOL0     H10924   6.104   8.314   4.872  0.2433 -0.5414 -0.9207
   81MOL0     H10925   6.182   8.526   4.667 -1.6142 -1.2628  0.9170
   81MOL0     H10926   6.263   8.389   4.735 -2.2588 -4.1770 -0.1044
   81MOL0     H10927   6.350   8.337   4.502 -4.1189 -0.8190 -0.7718
   81MOL0     H10928   6.410   8.497   4.560 -1.2055  2.3478 -0.3702
   81MOL0     H10929   6.280   8.605   4.393  2.7195  0.0263 -0.3193
   81MOL0     H10930   6.181   8.455   4.373  0.9711 -2.2158 -0.9620
   81MOL0     H10931   6.389   8.346   4.287 -2.2752 -0.5942 -0.8288
   81MOL0     H10932   6.474   8.499   4.308 -0.7908 -0.5389  2.2695
   81MOL0     H10933   6.258   8.542   3.943  2.0087  0.1599 -1.0040
   81MOL0     H10934   6.024   8.141   4.488 -1.2823  0.3419  0.2888
   81MOL0     H10935   5.917   7.948   4.592  1.6598 -1.2183 -0.0819
   82MOL0     O10936   9.205   3.761   5.527 -0.3266 -0.9330  0.1110
   82MOL0     C10937   9.275   3.843   5.587 -0.3453 -0.0793 -0.9885
   82MOL0     O10938   9.385   3.902   5.540  0.5766  0.2572  0.3621
   82MOL0     C10939   9.435   3.859   5.421  0.9648 -0.9070  0.0938
   82MOL0     C10940   9.567   3.832   5.406  0.5335  0.2130  0.2770
   82MOL0     C10941   9.626   3.818   5.285  0.0006  0.4323 -0.3962
   82MOL0     C10942   9.543   3.819   5.174  0.0089 -0.4244 -0.6665
   82MOL0     O10943   9.596   3.802   5.056  0.0785 -0.2727 -0.3138
   82MOL0     C10944   9.674   3.916   4.996 -0.9513  0.5118 -1.1842
   82MOL0     C10945   9.820   3.872   4.993 -0.5060  0.0419  0.2260
   82MOL0     C10946   9.845   3.749   4.919 -0.8231 -0.1635  0.4196
   82MOL0     C10947   9.976   3.733   4.840 -0.2616 -0.2785 -0.8951
   82MOL0     C10948  10.003   3.582   4.811  0.6038 -0.0803 -0.1325
   82MOL0     C10949   9.893   3.510   4.737 -0.4131 -0.0144 -0.0096
   82MOL0     C10950   9.934   3.364   4.715  0.9747 -0.2116  0.1958
   82MOL0     C10951   9.815   3.293   4.650 -0.5542 -0.3710 -0.1581
   82MOL0     N10952   9.714   3.275   4.753 -0.1380  0.1678 -0.0183
   82MOL0     C10953   9.736   3.224   4.883  0.6132 -0.3492 -0.5313
   82MOL0     C10954   9.615   3.241   4.952 -0.1365  0.1927  0.1230
   82MOL0     C10955   9.590   3.211   5.095  0.4828  0.6445  0.1130
   82MOL0     C10956   9.691   3.273   5.193  0.6253  0.1346 -0.1409
   82MOL0     C10957   9.677   3.420   5.211  0.2782 -0.4598 -1.1356
   82MOL0     C10958   9.547   3.447   5.285 -0.0002 -0.1371  0.3782
   82MOL0     O10959   9.552   3.375   5.408 -0.0232  0.5951 -0.0707
   82MOL0     C10960   9.441   3.373   5.482  0.5260 -0.3953  0.2272
   82MOL0     C10961   9.441   3.267   5.569  0.1378  0.6418  0.2933
   82MOL0     C10962   9.318   3.243   5.641 -0.5711 -0.4101 -0.1628
   82MOL0     C10963   9.324   3.118   5.722 -0.0912  1.1955 -0.2339
   82MOL0     C10964   9.209   3.335   5.642  0.1133 -0.2359  0.0709
   82MOL0     C10965   9.090   3.333   5.729  0.1545  0.1424 -0.7313
   82MOL0     O10966   9.051   3.207   5.777  0.3709 -0.3034  0.6000
   82MOL0     C10967   8.989   3.200   5.898 -0.7166 -0.3427  0.2498
   82MOL0     C10968   8.875   3.117   5.921  0.5836 -0.7084  0.2299
   82MOL0     C10969   8.818   3.089   6.042  0.7794 -0.3063 -0.3544
   82MOL0     C10970   8.856   3.167   6.159 -0.0501  0.2245  0.7609
   82MOL0     O10971   8.803   3.145   6.287 -0.6020  0.0375  0.2182
   82MOL0     C10972   8.659   3.103   6.300 -0.6147  0.1643  0.3093
   82MOL0     C10973   8.594   3.161   6.423  0.3852 -0.3503 -0.1320
   82MOL0     C10974   8.569   3.314   6.428  0.7295 -1.2429 -0.4150
   82MOL0     C10975   8.510   3.382   6.559 -0.3736  0.1018  0.1164
   82MOL0     C10976   8.387   3.309   6.619 -0.0467 -0.2113 -0.4174
   82MOL0     C10977   8.259   3.324   6.531  0.1084 -0.2308 -1.1352
   82MOL0     C10978   8.144   3.258   6.606 -0.9760  0.2170  0.0436
   82MOL0     C10979   8.016   3.249   6.527  0.4122 -0.1345  0.2078
   82MOL0    Cl10980   7.883   3.189   6.633  0.4996 -0.0964  0.5396
   82MOL0     C10981   8.955   3.259   6.131 -0.5080  1.1884  0.0017
   82MOL0     C10982   9.022   3.275   6.010 -0.6559  0.8452 -0.0763
   82MOL0     O10983   9.038   3.441   5.760 -0.5014 -0.0331  0.0604
   82MOL0     C10984   9.221   3.450   5.558 -0.5089 -0.0536 -1.2556
   82MOL0     C10985   9.340   3.468   5.481 -0.7656  0.0199 -0.8521
   82MOL0     N10986   9.523   3.279   4.857  0.0999  0.0434 -0.3033
   82MOL0     N10987   9.581   3.303   4.744  0.5906  0.1746  0.4146
   82MOL0     C10988   9.406   3.839   5.184 -0.6145  0.1174  0.9403
   82MOL0     C10989   9.351   3.865   5.307 -0.1152  0.8435 -0.0872
   82MOL0     C10990   9.206   3.915   5.696 -0.0257  0.4820 -0.0304
   82MOL0     C10991   9.250   4.046   5.728  0.7261 -0.5282  0.0966
   82MOL0     C10992   9.179   4.118   5.835 -0.4124  0.9039 -0.3614
   82MOL0     C10993   9.080   4.057   5.907  0.0599  1.2152 -0.5117
   82MOL0     O10994   9.028   4.135   6.014 -0.0813  0.8285  0.4556
   82MOL0     C10995   8.940   4.082   6.111  0.1412 -0.6736  0.4435
   82MOL0     C10996   9.001   3.979   6.201 -0.0333 -0.0491 -0.2282
   82MOL0     C10997   9.109   4.037   6.302  0.8147  0.1447  0.2900
   82MOL0     C10998   9.196   3.923   6.337  0.7063  0.3054 -0.1906
   82MOL0     C10999   9.280   3.952   6.456 -0.6090 -1.1288 -0.7995
   82MOL0     C11000   9.351   3.984   6.550 -0.0710  0.6087 -0.5994
   82MOL0     C11001   9.034   3.935   5.867  0.0861  0.1350 -0.1590
   82MOL0     C11002   9.096   3.860   5.768 -0.2342 -0.4626 -0.3169
   82MOL0     H11003   9.633   3.836   5.492  0.1568  1.6333  0.5238
   82MOL0     H11004   9.734   3.806   5.284  0.0340  0.6804  0.0854
   82MOL0     H11005   9.642   3.940   4.894  0.5074  0.7696 -1.5952
   82MOL0     H11006   9.681   4.010   5.052  2.0953 -1.3696  2.0119
   82MOL0     H11007   9.876   3.946   4.936 -2.7259  1.8689  0.2932
   82MOL0     H11008   9.862   3.869   5.094 -0.7324 -1.2998  0.2997
   82MOL0     H11009   9.834   3.663   4.986 -3.0087 -0.1687  0.1118
   82MOL0     H11010   9.767   3.728   4.845 -0.0246  0.4940 -0.6389
   82MOL0     H11011   9.958   3.796   4.752 -0.1061  2.2523  0.7687
   82MOL0     H11012  10.051   3.781   4.903  0.4683  1.3879 -2.8910
   82MOL0     H11013  10.097   3.574   4.755  0.6912  4.4912 -1.0226
   82MOL0     H11014  10.010   3.538   4.911 -1.1384 -1.4751 -0.5688
   82MOL0     H11015   9.795   3.517   4.785  0.1466 -3.9605  2.1367
   82MOL0     H11016   9.872   3.552   4.638 -1.2959 -1.5768 -0.5290
   82MOL0     H11017  10.019   3.359   4.647 -1.1007 -0.8382 -2.5195
   82MOL0     H11018   9.959   3.310   4.807  1.0689 -1.2968 -0.4501
   82MOL0     H11019   9.859   3.198   4.618  0.5625  0.4019 -0.9807
   82MOL0     H11020   9.776   3.355   4.569 -1.4773 -1.0548 -0.2536
   82MOL0     H11021   9.832   3.187   4.918  0.6261 -0.8060 -1.0362
   82MOL0     H11022   9.485   3.224   5.123 -0.2349 -0.0369 -2.0739
   82MOL0     H11023   9.598   3.103   5.102  0.0834  0.3004 -3.0995
   82MOL0     H11024   9.793   3.254   5.158  0.6951  0.4902 -0.1303
   82MOL0     H11025   9.686   3.227   5.293  0.8109  1.8099  0.6665
   82MOL0     H11026   9.678   3.466   5.112 -2.1696  2.6621  0.1330
   82MOL0     H11027   9.761   3.466   5.264 -1.6560  1.0685  0.7767
   82MOL0     H11028   9.466   3.418   5.217 -0.1377 -0.1839  0.5631
   82MOL0     H11029   9.535   3.554   5.304 -0.7519 -0.0332 -0.5605
   82MOL0     H11030   9.521   3.194   5.560 -1.0620 -0.4381 -2.4915
   82MOL0     H11031   9.303   3.139   5.828 -0.9722 -1.3806  0.1795
   82MOL0     H11032   9.261   3.037   5.684  1.1510  1.0463 -2.0453
   82MOL0     H11033   9.422   3.070   5.726 -1.1120 -1.0352 -0.0709
   82MOL0     H11034   8.845   3.067   5.830  1.4857  0.4749 -0.7497
   82MOL0     H11035   8.732   3.024   6.048 -0.2822  1.0067 -0.8507
   82MOL0     H11036   8.603   3.139   6.213 -2.7522 -0.9025  1.1457
   82MOL0     H11037   8.665   2.994   6.305  0.2376  0.1638 -0.5516
   82MOL0     H11038   8.500   3.108   6.442  1.2082 -1.3413  1.4363
   82MOL0     H11039   8.663   3.128   6.501  1.2931 -2.2932 -1.6542
   82MOL0     H11040   8.495   3.348   6.355 -0.2116  1.1767  1.5206
   82MOL0     H11041   8.663   3.370   6.412 -0.3815  1.2906  1.2427
   82MOL0     H11042   8.586   3.370   6.637 -0.2796 -0.1001 -0.0071
   82MOL0     H11043   8.495   3.490   6.554  2.0836  0.5064  0.0850
   82MOL0     H11044   8.358   3.354   6.715  0.0504  0.2073 -0.5860
   82MOL0     H11045   8.416   3.209   6.653 -0.6065 -1.6092 -3.6830
   82MOL0     H11046   8.245   3.432   6.517 -0.4552 -0.3723 -1.6968
   82MOL0     H11047   8.274   3.277   6.434 -1.2952  1.7206 -2.3723
   82MOL0     H11048   8.125   3.308   6.702 -0.2497 -0.6149  0.6405
   82MOL0     H11049   8.174   3.157   6.635  1.5053  0.1798 -2.2693
   82MOL0     H11050   8.015   3.176   6.445  0.2457  1.1073 -0.9424
   82MOL0     H11051   7.992   3.336   6.465 -1.2881 -1.6221 -1.3609
   82MOL0     H11052   8.988   3.309   6.221 -2.4365  2.7190 -0.0724
   82MOL0     H11053   9.095   3.355   6.006  0.2860  0.0080 -0.0528
   82MOL0     H11054   9.138   3.520   5.560 -0.6977 -0.2908  0.0400
   82MOL0     H11055   9.357   3.566   5.439  1.0353  0.6734  1.2100
   82MOL0     H11056   9.343   3.829   5.096 -0.6444  2.4177  0.6329
   82MOL0     H11057   9.247   3.897   5.313 -0.2862  0.3709 -0.5048
   82MOL0     H11058   9.331   4.097   5.675 -1.2996  1.7648 -0.9957
   82MOL0     H11059   9.204   4.218   5.868 -0.3990 -0.3664  4.1665
   82MOL0     H11060   8.901   4.167   6.168 -0.5433  1.6507 -3.1546
   82MOL0     H11061   8.856   4.039   6.056  0.3315  1.2423 -1.5009
   82MOL0     H11062   9.046   3.902   6.138  2.4544 -0.4381  1.8886
   82MOL0     H11063   8.918   3.939   6.260  1.1746 -1.7610  0.3941
   82MOL0     H11064   9.060   4.066   6.395 -1.5959  0.5740 -1.0222
   82MOL0     H11065   9.179   4.112   6.262 -1.3433  1.5852 -1.0390
   82MOL0     H11066   9.259   3.892   6.253 -0.0260 -0.5435 -0.4442
   82MOL0     H11067   9.131   3.840   6.368  0.9326 -0.0036 -0.5350
   82MOL0     H11068   9.413   4.000   6.636 -0.2081  2.0468 -0.7382
   82MOL0     H11069   8.958   3.882   5.924  0.1508 -0.3699 -0.5291
   82MOL0     H11070   9.060   3.759   5.753  0.5607 -0.5555 -1.8518
   83MOL0     O11071   8.529   2.005   0.262  0.2173  0.1280  0.1212
   83MOL0     C11072   8.468   2.110   0.275  0.8507 -0.6253 -0.2477
   83MOL0     O11073   8.368   2.153   0.192 -0.5591 -0.2430  0.0208
   83MOL0     C11074   8.335   2.070   0.083 -0.3446  0.0547 -0.3886
   83MOL0     C11075   8.353   2.122  -0.045 -0.4516  0.0983 -0.0159
   83MOL0     C11076   8.298   2.053  -0.158 -0.2985 -0.5612  0.3674
   83MOL0     C11077   8.240   1.930  -0.141  0.5394 -0.4878 -0.2369
   83MOL0     O11078   8.172   1.871  -0.238 -0.6726 -0.1145 -0.9825
   83MOL0     C11079   8.095   1.951  -0.333 -0.2664 -0.3795 -0.3114
   83MOL0     C11080   7.955   1.887  -0.348  0.8349 -0.9154 -0.6933
   83MOL0     C11081   7.863   1.956  -0.453 -0.1145 -0.1251  0.1748
   83MOL0     C11082   7.755   1.860  -0.490  0.3734  0.1089  0.1817
   83MOL0     C11083   7.639   1.933  -0.569  0.8495 -0.1329 -1.4206
   83MOL0     C11084   7.514   1.845  -0.567  0.4488 -0.4305  0.1417
   83MOL0     C11085   7.392   1.925  -0.622  0.6432 -0.1424  0.2153
   83MOL0     C11086   7.255   1.884  -0.561 -0.3959  0.4689 -0.4557
   83MOL0     N11087   7.153   1.960  -0.629 -0.0986  0.4131 -0.6529
   83MOL0     C11088   7.104   2.086  -0.591 -0.3266  0.3219 -0.2096
   83MOL0     C11089   7.004   2.111  -0.677  1.0493  0.2532  0.5326
   83MOL0     C11090   6.922   2.242  -0.697 -0.2405 -0.6859  0.0541
   83MOL0     C11091   6.777   2.217  -0.663  0.1559  0.3136 -0.2063
   83MOL0     C11092   6.714   2.356  -0.635 -0.2269 -0.2475  0.7416
   83MOL0     C11093   6.569   2.342  -0.567 -0.1094  0.4809  0.7716
   83MOL0     O11094   6.514   2.465  -0.539  0.2935  0.1805 -0.1590
   83MOL0     C11095   6.380   2.468  -0.510 -0.2727 -0.4152 -1.2763
   83MOL0     C11096   6.307   2.591  -0.494 -0.3904 -0.3484  0.8452
   83MOL0     C11097   6.168   2.599  -0.486  0.6854  0.7097  0.6353
   83MOL0     C11098   6.106   2.739  -0.475  0.3747 -0.2993  0.1071
   83MOL0     C11099   6.093   2.467  -0.486 -0.2119 -0.8587  0.3961
   83MOL0     C11100   5.953   2.458  -0.465  1.1377 -0.1199  0.4487
   83MOL0     O11101   5.901   2.330  -0.446  0.0457 -0.2782  0.4556
   83MOL0     C11102   5.769   2.322  -0.422 -0.9467 -0.0245  0.1799
   83MOL0     C11103   5.690   2.330  -0.528  0.1715  0.0935  0.5770
   83MOL0     C11104   5.549   2.327  -0.521  0.5174  0.0100  0.0436
   83MOL0     C11105   5.489   2.334  -0.390 -0.2068 -0.0686  0.3210
   83MOL0     O11106   5.358   2.335  -0.367 -0.5478 -0.3733  0.3263
   83MOL0     C11107   5.274   2.372  -0.478  0.5932  0.6098 -0.5726
   83MOL0     C11108   5.143   2.430  -0.416  0.7989 -1.1653  0.0005
   83MOL0     C11109   5.027   2.429  -0.527  0.0474  0.0375 -0.7192
   83MOL0     C11110   4.913   2.527  -0.501  0.7404  0.3780 -0.0677
   83MOL0     C11111   4.780   2.460  -0.486 -0.3614 -0.6780  0.2433
   83MOL0     C11112   4.676   2.539  -0.402 -0.3640 -0.5643 -0.6862
   83MOL0     C11113   4.545   2.472  -0.403  0.7514  0.7968 -0.3986
   83MOL0     C11114   4.478   2.488  -0.268  0.6760  0.3366  0.6049
   83MOL0    Cl11115   4.443   2.668  -0.246  0.3942 -0.2030  0.0188
   83MOL0     C11116   5.568   2.333  -0.279  0.6982 -0.2873 -0.7103
   83MOL0     C11117   5.712   2.317  -0.294  0.2332  0.2177 -0.6965
   83MOL0     O11118   5.882   2.560  -0.460 -0.2293  0.0090 -0.2081
   83MOL0     C11119   6.169   2.346  -0.499  0.4053  0.0230 -0.4197
   83MOL0     C11120   6.306   2.352  -0.500  0.8864 -0.2215  0.2430
   83MOL0     N11121   6.993   2.004  -0.767  0.4591  0.4681  1.0131
   83MOL0     N11122   7.074   1.909  -0.731 -0.6217 -0.5777  0.0386
   83MOL0     C11123   8.229   1.878  -0.014  0.2237 -0.1471 -1.2418
   83MOL0     C11124   8.277   1.950   0.101  0.2586 -1.0466  0.7140
   83MOL0     C11125   8.495   2.199   0.396 -0.2138  0.1259 -0.5561
   83MOL0     C11126   8.423   2.319   0.409 -0.3121  0.0848 -1.5568
   83MOL0     C11127   8.455   2.416   0.510 -1.7750 -0.3482  0.0818
   83MOL0     C11128   8.547   2.389   0.609 -0.0412  0.5257 -0.0514
   83MOL0     O11129   8.566   2.484   0.711 -0.0863  0.3339  0.3426
   83MOL0     C11130   8.667   2.470   0.805 -0.6471 -0.1540 -0.4710
   83MOL0     C11131   8.671   2.583   0.918 -0.7751  0.2041  0.6937
   83MOL0     C11132   8.718   2.722   0.875 -0.1593 -0.8144  0.0421
   83MOL0     C11133   8.864   2.744   0.862 -0.1491  0.6740 -0.8884
   83MOL0     C11134   8.891   2.877   0.823 -0.8530 -0.0779 -0.9770
   83MOL0     C11135   8.909   2.988   0.767 -1.1975 -0.0725 -0.1773
   83MOL0     C11136   8.617   2.266   0.592  0.2231 -0.8933 -0.9092
   83MOL0     C11137   8.590   2.162   0.490  0.2390 -0.0841  0.4199
   83MOL0     H11138   8.382   2.223  -0.070 -1.0868  0.6612  1.4218
   83MOL0     H11139   8.296   2.078  -0.263 -1.9356 -1.8741  0.0291
   83MOL0     H11140   8.093   2.055  -0.297  3.3148 -1.1498  2.7974
   83MOL0     H11141   8.154   1.956  -0.425  1.4012 -0.1169  0.7192
   83MOL0     H11142   7.964   1.780  -0.369 -1.9099 -0.9801 -2.1342
   83MOL0     H11143   7.902   1.893  -0.252  0.0418 -3.0096 -0.9488
   83MOL0     H11144   7.822   2.051  -0.416  0.8324  0.5630 -0.5130
   83MOL0     H11145   7.918   1.977  -0.545 -1.7695 -1.2581 -1.1579
   83MOL0     H11146   7.794   1.766  -0.531 -0.6488 -1.2423  2.1320
   83MOL0     H11147   7.704   1.839  -0.395 -0.2461  3.7374  0.7743
   83MOL0     H11148   7.612   2.025  -0.515 -3.7342 -1.1255 -1.6219
   83MOL0     H11149   7.671   1.957  -0.671  0.7084  2.6094 -0.9074
   83MOL0     H11150   7.538   1.763  -0.635  1.1768  0.4050 -0.6308
   83MOL0     H11151   7.494   1.803  -0.468  1.0904 -0.5503  0.2240
   83MOL0     H11152   7.409   2.031  -0.600 -2.1512  0.7628 -1.5703
   83MOL0     H11153   7.374   1.921  -0.730 -2.2415 -1.7994  0.6638
   83MOL0     H11154   7.248   1.912  -0.455  1.7498 -0.9221  0.1236
   83MOL0     H11155   7.241   1.777  -0.574  0.5567  0.3967 -0.9995
   83MOL0     H11156   7.125   2.141  -0.500  0.8673 -1.8004  0.8540
   83MOL0     H11157   6.965   2.325  -0.641 -2.0799  0.3429 -0.0033
   83MOL0     H11158   6.919   2.272  -0.802  1.5530  1.6615  0.5996
   83MOL0     H11159   6.751   2.154  -0.577 -0.2311  1.2027  0.3432
   83MOL0     H11160   6.715   2.182  -0.747 -0.5522 -0.1092  0.4748
   83MOL0     H11161   6.710   2.406  -0.732  0.4564  0.8330  1.2435
   83MOL0     H11162   6.765   2.413  -0.556 -1.8108 -1.0291  2.4000
   83MOL0     H11163   6.577   2.274  -0.481 -0.8178 -0.4470  0.1169
   83MOL0     H11164   6.512   2.291  -0.645 -1.8075  4.2853 -0.7173
   83MOL0     H11165   6.369   2.679  -0.484 -2.1450  1.3402 -1.8218
   83MOL0     H11166   6.164   2.800  -0.545 -0.0893  0.7272  0.6019
   83MOL0     H11167   6.001   2.753  -0.504  0.2140 -1.5102  0.0609
   83MOL0     H11168   6.121   2.781  -0.376  1.9000  2.0030 -1.0111
   83MOL0     H11169   5.714   2.324  -0.634  0.9020 -0.4761  0.7684
   83MOL0     H11170   5.493   2.333  -0.614  2.0733  1.6401 -0.8421
   83MOL0     H11171   5.336   2.443  -0.534  0.3917  1.6755  0.5131
   83MOL0     H11172   5.249   2.288  -0.544 -1.8819  0.1405  0.8359
   83MOL0     H11173   5.111   2.402  -0.315  0.5827 -0.3234  0.1714
   83MOL0     H11174   5.167   2.536  -0.403 -3.3849 -0.2677  2.1965
   83MOL0     H11175   4.988   2.327  -0.532  0.5656 -0.1367 -1.2672
   83MOL0     H11176   5.076   2.450  -0.622  0.8773  0.2244 -0.2540
   83MOL0     H11177   4.929   2.589  -0.412 -4.7238 -1.5858  2.7484
   83MOL0     H11178   4.911   2.595  -0.587  0.6142  0.3760 -0.0673
   83MOL0     H11179   4.804   2.364  -0.440  0.4857 -1.4685 -1.7084
   83MOL0     H11180   4.736   2.437  -0.584  0.6105  1.0530 -0.6644
   83MOL0     H11181   4.716   2.554  -0.301 -1.3984  2.9675 -0.7014
   83MOL0     H11182   4.668   2.636  -0.452  0.3827 -0.2929 -0.3025
   83MOL0     H11183   4.562   2.366  -0.424 -0.7899  0.0764  1.6546
   83MOL0     H11184   4.486   2.511  -0.486  0.6237  0.6152 -0.3950
   83MOL0     H11185   4.536   2.448  -0.184  1.5044 -0.9566 -0.5416
   83MOL0     H11186   4.383   2.434  -0.264  0.9392 -0.2906 -0.9475
   83MOL0     H11187   5.520   2.343  -0.182  4.4582 -2.9269  1.7198
   83MOL0     H11188   5.775   2.311  -0.206 -0.9891  2.0282  0.3734
   83MOL0     H11189   6.126   2.247  -0.509  0.9334 -0.4683  1.7207
   83MOL0     H11190   6.354   2.256  -0.516  1.5277 -0.6137  3.7634
   83MOL0     H11191   8.195   1.776  -0.001  1.5877 -0.4749 -0.0559
   83MOL0     H11192   8.268   1.925   0.206  2.4000 -2.3145  0.6469
   83MOL0     H11193   8.337   2.342   0.348 -1.3855 -0.0485 -0.1640
   83MOL0     H11194   8.390   2.502   0.523  0.5984  1.4107  1.0380
   83MOL0     H11195   8.657   2.374   0.858  1.7689 -1.3303 -1.9393
   83MOL0     H11196   8.761   2.461   0.750 -0.9838  0.2375 -1.1192
   83MOL0     H11197   8.742   2.554   0.996  2.4414  2.2279 -1.2579
   83MOL0     H11198   8.568   2.588   0.954 -0.5107 -2.3735  2.0606
   83MOL0     H11199   8.675   2.783   0.955 -1.6871  0.6351 -1.7835
   83MOL0     H11200   8.676   2.758   0.781  0.8243  0.5847  0.1086
   83MOL0     H11201   8.902   2.672   0.788  1.0842  0.2140  0.1617
   83MOL0     H11202   8.913   2.722   0.957 -0.6686  0.7205 -0.6081
   83MOL0     H11203   8.921   3.082   0.718  0.3580  0.8620  1.8696
   83MOL0     H11204   8.699   2.242   0.658 -0.6878 -2.2144 -0.2241
   83MOL0     H11205   8.647   2.070   0.493 -0.6070 -0.8636 -2.8626
   84MOL0     O11206   7.517   3.503  10.540  0.2636  0.1400  0.0757
   84MOL0     C11207   7.567   3.517  10.435 -0.2028 -0.0516 -0.4664
   84MOL0     O11208   7.504   3.559  10.317 -0.3337  0.4923 -0.0148
   84MOL0     C11209   7.366   3.569  10.299 -0.6113 -0.0858  0.2421
   84MOL0     C11210   7.309   3.696  10.289  1.0861 -0.0832 -0.6149
   84MOL0     C11211   7.166   3.716  10.282  0.6237  0.3748  0.2998
   84MOL0     C11212   7.088   3.595  10.271 -0.6418  0.1656 -0.7235
   84MOL0     O11213   6.958   3.614  10.248  1.2308 -0.0126 -0.0121
   84MOL0     C11214   6.859   3.695  10.320  0.1611 -0.0422 -0.2415
   84MOL0     C11215   6.723   3.629  10.289  0.2550  0.0454  0.8437
   84MOL0     C11216   6.689   3.669  10.147  0.7796  0.2988 -0.0121
   84MOL0     C11217   6.551   3.607  10.112  0.1324  0.5157 -0.4625
   84MOL0     C11218   6.506   3.659   9.977 -0.0078  0.0838 -0.5506
   84MOL0     C11219   6.369   3.584   9.938  0.3334 -0.1808 -0.0027
   84MOL0     C11220   6.297   3.646   9.821 -0.0667 -0.4614  0.5002
   84MOL0     C11221   6.218   3.538   9.739 -0.1012 -0.8159  0.3236
   84MOL0     N11222   6.089   3.511   9.802  0.1601 -0.5532 -0.0836
   84MOL0     C11223   5.966   3.514   9.732 -0.4572  0.1485 -0.3260
   84MOL0     C11224   5.885   3.449   9.818 -0.3477 -0.4957  0.5809
   84MOL0     C11225   5.731   3.424   9.790  0.8664 -0.4354  0.8085
   84MOL0     C11226   5.644   3.548   9.820  0.1558  0.0808  0.1729
   84MOL0     C11227   5.618   3.579   9.975 -0.2684  0.6293  0.4332
   84MOL0     C11228   5.509   3.491  10.031 -0.0763 -0.8563  0.0597
   84MOL0     O11229   5.526   3.484  10.171 -0.4809 -0.5981  0.2953
   84MOL0     C11230   5.437   3.562  10.246 -0.2743 -0.2890 -0.9733
   84MOL0     C11231   5.482   3.677  10.318 -0.2738  0.2047  1.2482
   84MOL0     C11232   5.393   3.739  10.408  0.4460 -0.7867  0.0943
   84MOL0     C11233   5.438   3.861  10.486 -0.4562 -0.0424  0.2018
   84MOL0     C11234   5.255   3.703  10.403  0.3390  0.0172  0.6713
   84MOL0     C11235   5.148   3.769  10.480  0.9765 -0.0917 -0.5705
   84MOL0     O11236   5.022   3.762  10.421  0.1429 -0.0815 -0.0007
   84MOL0     C11237   4.893   3.802  10.479  0.1240 -0.2956  0.8548
   84MOL0     C11238   4.873   3.791  10.615 -0.6870 -0.3239  0.2933
   84MOL0     C11239   4.740   3.825  10.664 -0.0486 -0.1363 -0.5466
   84MOL0     C11240   4.638   3.867  10.585  0.9722  0.2890  0.4366
   84MOL0     O11241   4.532   3.913  10.645  0.3178 -0.0619  0.5739
   84MOL0     C11242   4.414   3.929  10.568  1.0328 -0.0234 -0.0835
   84MOL0     C11243   4.305   3.994  10.645 -0.2417  0.6234  0.1884
   84MOL0     C11244   4.243   3.891  10.737 -0.2696  0.3369 -0.0639
   84MOL0     C11245   4.112   3.946  10.790  0.4395 -0.6885 -0.3583
   84MOL0     C11246   4.043   3.864  10.898 -0.0903  1.0001 -0.6924
   84MOL0     C11247   3.959   3.954  10.984 -0.2499 -0.1086  0.0193
   84MOL0     C11248   3.927   3.868  11.108 -0.6705  0.1605 -0.2834
   84MOL0     C11249   3.818   3.757  11.077 -0.1356  0.2677  0.0458
   84MOL0    Cl11250   3.748   3.697  11.231 -0.4100 -0.3047  0.2163
   84MOL0     C11251   4.662   3.862  10.444 -0.2795  0.2164 -0.4744
   84MOL0     C11252   4.785   3.829  10.390  0.1117 -0.1163 -0.3496
   84MOL0     O11253   5.173   3.828  10.587 -0.2767  0.1494  0.0056
   84MOL0     C11254   5.220   3.584  10.333 -0.0592  0.3723  0.5296
   84MOL0     C11255   5.312   3.509  10.255 -0.1619 -0.4220 -0.8260
   84MOL0     N11256   5.956   3.400   9.924  0.4229  0.2192 -0.0516
   84MOL0     N11257   6.074   3.436   9.918 -0.1783 -0.9022  0.7217
   84MOL0     C11258   7.148   3.466  10.264 -0.0315 -0.4575  0.2201
   84MOL0     C11259   7.286   3.453  10.290  0.4653  0.7170 -0.0344
   84MOL0     C11260   7.713   3.493  10.433  0.0923  0.8202  0.7324
   84MOL0     C11261   7.781   3.483  10.305  0.2196  0.3312  0.3398
   84MOL0     C11262   7.916   3.458  10.298  0.5582 -0.7180  0.5215
   84MOL0     C11263   7.995   3.443  10.412 -1.0639 -0.1339 -0.6350
   84MOL0     O11264   8.129   3.442  10.397  0.2051  0.1176 -0.4451
   84MOL0     C11265   8.215   3.396  10.505 -0.3487  0.5623  0.5769
   84MOL0     C11266   8.204   3.245  10.530 -0.7392  0.2730 -0.2937
   84MOL0     C11267   8.288   3.183  10.421  0.1785  0.0925 -0.1016
   84MOL0     C11268   8.250   3.036  10.411  0.8108 -0.4983 -0.5518
   84MOL0     C11269   8.334   2.973  10.311  1.2681  0.3649 -0.5627
   84MOL0     C11270   8.402   2.934  10.216 -0.2920  0.2587 -0.2361
   84MOL0     C11271   7.924   3.427  10.532  0.1411 -0.9703  0.2805
   84MOL0     C11272   7.784   3.445  10.546 -0.0037 -0.4292 -0.0596
   84MOL0     H11273   7.374   3.782  10.306  0.3957  0.2781  0.3188
   84MOL0     H11274   7.124   3.815  10.268 -2.3878 -0.8644 -0.2012
   84MOL0     H11275   6.887   3.697  10.426  0.4406 -1.8410 -0.2487
   84MOL0     H11276   6.854   3.798  10.286  0.5794 -0.8074 -2.8095
   84MOL0     H11277   6.740   3.521  10.289 -0.2487 -0.1146 -2.4120
   84MOL0     H11278   6.645   3.655  10.361  2.8429  3.2918  2.7399
   84MOL0     H11279   6.685   3.778  10.135 -0.1690  0.3990  0.9979
   84MOL0     H11280   6.763   3.633  10.075  0.7465 -1.8242  0.9562
   84MOL0     H11281   6.561   3.499  10.125 -1.8087  0.3862  0.2828
   84MOL0     H11282   6.482   3.637  10.192  2.2214 -1.8069  2.4230
   84MOL0     H11283   6.485   3.765   9.995  0.1519 -0.0677  0.6584
   84MOL0     H11284   6.577   3.647   9.895  0.1956 -1.2594 -0.2015
   84MOL0     H11285   6.389   3.479   9.914 -4.1079 -1.6669  1.8255
   84MOL0     H11286   6.296   3.580  10.020  1.5803 -0.5038  1.1370
   84MOL0     H11287   6.230   3.724   9.857 -0.1933  1.8028 -3.9687
   84MOL0     H11288   6.365   3.700   9.754 -1.7239 -0.0609 -0.9245
   84MOL0     H11289   6.275   3.446   9.723  0.7910 -0.4717  1.4383
   84MOL0     H11290   6.199   3.586   9.642  1.3699  2.3905  1.4756
   84MOL0     H11291   5.936   3.560   9.638 -0.0136 -1.2491 -1.1737
   84MOL0     H11292   5.706   3.408   9.685 -2.2938  1.5546  1.1046
   84MOL0     H11293   5.693   3.339   9.847 -0.7433 -0.2820  0.0314
   84MOL0     H11294   5.550   3.538   9.764  0.2834 -0.7850  0.0907
   84MOL0     H11295   5.684   3.639   9.775  0.2316 -0.0093  0.0562
   84MOL0     H11296   5.597   3.685   9.991  1.1093  1.2336 -1.3859
   84MOL0     H11297   5.714   3.562  10.025  1.2124  1.4035 -1.9663
   84MOL0     H11298   5.505   3.392   9.985  0.2712 -1.4310  1.2382
   84MOL0     H11299   5.415   3.540  10.005 -0.1577 -1.8935 -1.7405
   84MOL0     H11300   5.585   3.709  10.309  0.6837 -2.7772  0.5870
   84MOL0     H11301   5.543   3.887  10.474  0.0915 -0.9720  2.4090
   84MOL0     H11302   5.368   3.942  10.464 -1.8995 -0.7925  1.7801
   84MOL0     H11303   5.434   3.855  10.595  2.2815  2.4341  0.5611
   84MOL0     H11304   4.952   3.764  10.685 -0.4043 -0.6415 -0.1408
   84MOL0     H11305   4.726   3.830  10.772  0.1289  0.0040 -0.5307
   84MOL0     H11306   4.444   3.996  10.487  4.5860  2.2379  2.7574
   84MOL0     H11307   4.381   3.833  10.528  0.9147 -0.5859  1.3125
   84MOL0     H11308   4.337   4.080  10.704 -1.9786 -1.2916  4.2998
   84MOL0     H11309   4.228   4.027  10.574  0.0917  1.5658  0.2540
   84MOL0     H11310   4.308   3.859  10.819 -0.6672 -0.4380 -0.0435
   84MOL0     H11311   4.216   3.802  10.680 -2.4595  0.7237  0.2687
   84MOL0     H11312   4.133   4.049  10.821 -1.2259 -0.4832  0.2054
   84MOL0     H11313   4.047   3.969  10.704  1.9851 -0.7149 -1.5758
   84MOL0     H11314   4.125   3.816  10.953  1.5698  0.6042 -3.3539
   84MOL0     H11315   3.979   3.785  10.858  0.5294  0.8989 -1.5059
   84MOL0     H11316   3.991   4.053  11.018 -0.5457 -0.8067  2.6023
   84MOL0     H11317   3.868   3.963  10.925 -1.0838 -2.0392  0.8926
   84MOL0     H11318   3.884   3.938  11.180  1.7083  0.0815  1.3429
   84MOL0     H11319   4.008   3.819  11.163  0.0317  3.1381  1.6119
   84MOL0     H11320   3.853   3.673  11.016 -0.1901 -0.4130  0.9226
   84MOL0     H11321   3.728   3.798  11.030 -1.5738  0.6499  2.8720
   84MOL0     H11322   4.581   3.890  10.378  1.2518  1.5069 -1.9156
   84MOL0     H11323   4.801   3.820  10.283 -0.6035 -0.8434 -0.4055
   84MOL0     H11324   5.118   3.551  10.347  0.3794 -1.5673 -0.5026
   84MOL0     H11325   5.293   3.410  10.215 -0.7948 -0.8142  0.3863
   84MOL0     H11326   7.082   3.381  10.248 -1.9484  1.1171 -0.6208
   84MOL0     H11327   7.336   3.358  10.300  0.9597  0.8985 -0.7447
   84MOL0     H11328   7.724   3.491  10.213  0.3329 -0.6841  0.1658
   84MOL0     H11329   7.960   3.465  10.199 -0.2638  0.9879  0.2440
   84MOL0     H11330   8.320   3.427  10.495 -0.8361  1.6284 -2.1061
   84MOL0     H11331   8.202   3.454  10.597  1.5800  0.9247  0.6568
   84MOL0     H11332   8.098   3.220  10.515 -0.5657  0.5615 -2.2739
   84MOL0     H11333   8.249   3.223  10.627 -0.0066 -1.4649 -0.9886
   84MOL0     H11334   8.392   3.196  10.449 -0.7303  2.3795  2.7497
   84MOL0     H11335   8.273   3.236  10.327 -0.1319  2.0821  1.0091
   84MOL0     H11336   8.143   3.034  10.387  0.1347  2.6474  1.5531
   84MOL0     H11337   8.263   2.992  10.510 -0.8958  1.9922  0.9021
   84MOL0     H11338   8.462   2.892  10.138 -0.5734  1.9857 -1.4406
   84MOL0     H11339   7.978   3.401  10.622  2.6741 -1.4441 -1.2799
   84MOL0     H11340   7.742   3.440  10.646 -3.1690  0.9920 -1.1766
   85MOL0     O11341   0.574   1.433   1.748 -0.0846 -0.4852  0.0567
   85MOL0     C11342   0.545   1.504   1.841 -0.1600  0.0488 -0.5156
   85MOL0     O11343   0.421   1.515   1.906 -0.4386  0.2217  0.2263
   85MOL0     C11344   0.317   1.443   1.862  0.4299 -0.6960 -0.0901
   85MOL0     C11345   0.207   1.501   1.798  0.3019  0.6308 -0.5779
   85MOL0     C11346   0.095   1.430   1.749 -0.3235 -0.0968 -0.3900
   85MOL0     C11347   0.091   1.292   1.756  0.0653  0.2660 -1.1551
   85MOL0     O11348  -0.008   1.200   1.741  0.7856 -0.3464  0.8139
   85MOL0     C11349  -0.121   1.246   1.649 -0.2081  0.6120  0.7278
   85MOL0     C11350  -0.206   1.123   1.624  0.2405 -0.4411  0.1907
   85MOL0     C11351  -0.323   1.153   1.526  0.1012  0.7979 -0.0861
   85MOL0     C11352  -0.399   1.022   1.492  0.2699 -0.4991  0.3374
   85MOL0     C11353  -0.516   1.024   1.381 -0.8269  0.6525  0.8706
   85MOL0     C11354  -0.624   1.139   1.409  0.8090  0.2113  0.6118
   85MOL0     C11355  -0.757   1.098   1.330 -0.1910  0.5606 -0.1622
   85MOL0     C11356  -0.869   1.178   1.389 -0.8053  0.6890 -0.0910
   85MOL0     N11357  -0.989   1.155   1.323  0.6017 -0.0019  0.5211
   85MOL0     C11358  -1.110   1.170   1.389  0.5830 -0.2325 -0.3617
   85MOL0     C11359  -1.207   1.144   1.293 -1.1540  0.6976  0.3569
   85MOL0     C11360  -1.357   1.135   1.305  0.1303 -0.0380  1.3333
   85MOL0     C11361  -1.418   1.254   1.220 -0.2798  0.1040 -1.2452
   85MOL0     C11362  -1.561   1.231   1.184 -0.5558 -0.4947 -0.3400
   85MOL0     C11363  -1.651   1.183   1.303  0.0460 -0.0987  0.0101
   85MOL0     O11364  -1.775   1.152   1.241 -0.3709 -0.0817  0.3755
   85MOL0     C11365  -1.871   1.094   1.317  0.6425  0.4065  0.5126
   85MOL0     C11366  -1.898   1.131   1.453 -0.2156 -0.2254  0.4740
   85MOL0     C11367  -2.003   1.079   1.525  0.0245 -0.9734  0.5723
   85MOL0     C11368  -2.017   1.124   1.673 -0.1140  0.1829  0.5788
   85MOL0     C11369  -2.083   0.976   1.470 -0.5254 -0.2715 -0.0712
   85MOL0     C11370  -2.192   0.904   1.541  0.1474  0.5205  0.4720
   85MOL0     O11371  -2.189   0.770   1.526  0.4505  0.2763 -0.3772
   85MOL0     C11372  -2.296   0.690   1.573 -0.5959  0.3471  0.2724
   85MOL0     C11373  -2.264   0.574   1.648 -0.7643  0.4451 -0.5607
   85MOL0     C11374  -2.371   0.502   1.716 -0.1325 -0.0733  0.2941
   85MOL0     C11375  -2.505   0.535   1.695 -0.4936 -0.6720  0.0973
   85MOL0     O11376  -2.608   0.476   1.752  0.4785  0.5340 -0.2063
   85MOL0     C11377  -2.626   0.339   1.713  0.1833 -0.7310 -0.2740
   85MOL0     C11378  -2.770   0.298   1.684  0.4349  0.2176 -0.3208
   85MOL0     C11379  -2.811   0.146   1.706 -0.3574  0.0574  0.1055
   85MOL0     C11380  -2.961   0.141   1.741 -0.3256 -0.7567 -0.1293
   85MOL0     C11381  -2.998   0.001   1.787 -0.0801  0.1156 -0.4445
   85MOL0     C11382  -3.141  -0.035   1.765 -0.5856 -0.0832 -0.4049
   85MOL0     C11383  -3.169  -0.077   1.622  0.4278 -0.9238 -0.2731
   85MOL0     C11384  -3.315  -0.048   1.598 -1.0068 -0.0942  0.0852
   85MOL0    Cl11385  -3.354   0.120   1.552 -0.1035 -0.1473  0.0607
   85MOL0     C11386  -2.528   0.640   1.599 -0.1094 -0.2009  0.5014
   85MOL0     C11387  -2.429   0.714   1.535 -0.5738 -0.0910 -0.3677
   85MOL0     O11388  -2.255   0.975   1.617 -0.0590 -0.3279  0.6753
   85MOL0     C11389  -2.056   0.940   1.333  0.2066  0.0605  0.4258
   85MOL0     C11390  -1.958   1.006   1.256 -0.2638 -0.3386 -0.1656
   85MOL0     N11391  -1.130   1.108   1.181  0.0182 -0.0926  0.7870
   85MOL0     N11392  -0.998   1.131   1.192  0.7416  0.4093  0.4865
   85MOL0     C11393   0.208   1.234   1.810  0.4654 -0.1347 -1.1556
   85MOL0     C11394   0.314   1.301   1.861 -0.5099  0.0815 -0.0166
   85MOL0     C11395   0.653   1.595   1.896 -0.6004  0.3217 -0.3772
   85MOL0     C11396   0.772   1.617   1.820 -0.1662  0.2319  0.1151
   85MOL0     C11397   0.879   1.692   1.873 -0.4304  0.3531 -0.3430
   85MOL0     C11398   0.856   1.769   1.994 -0.1919  0.1587 -0.0883
   85MOL0     O11399   0.948   1.860   2.040 -0.0344  0.7548 -0.6255
   85MOL0     C11400   1.092   1.850   2.023  1.2915 -0.3873  0.4464
   85MOL0     C11401   1.147   1.717   2.074  0.3442  0.0786 -0.6939
   85MOL0     C11402   1.294   1.745   2.116  0.8377 -0.6981 -0.5745
   85MOL0     C11403   1.382   1.783   1.997 -0.5771 -0.1625 -0.5736
   85MOL0     C11404   1.527   1.784   2.026  0.3048  0.7071 -0.5917
   85MOL0     C11405   1.654   1.779   2.012  0.3917  0.0683  0.2817
   85MOL0     C11406   0.734   1.763   2.057 -0.2207 -0.9232  0.6927
   85MOL0     C11407   0.633   1.677   2.009 -0.9564  0.1944  1.0396
   85MOL0     H11408   0.190   1.608   1.788 -0.3561  0.6960  0.8906
   85MOL0     H11409   0.006   1.487   1.723  0.0894  1.1508  0.7868
   85MOL0     H11410  -0.178   1.329   1.692  0.0797 -0.3872  3.2455
   85MOL0     H11411  -0.075   1.283   1.557 -0.4460  1.6014  0.9963
   85MOL0     H11412  -0.134   1.057   1.575  3.5600  2.3059  0.8783
   85MOL0     H11413  -0.251   1.080   1.714 -2.5248 -3.1700 -2.2886
   85MOL0     H11414  -0.390   1.230   1.565 -0.7533  0.0025  0.0322
   85MOL0     H11415  -0.282   1.191   1.432 -0.4016 -1.2961 -1.2138
   85MOL0     H11416  -0.321   0.948   1.473 -0.2476 -1.7270  2.6155
   85MOL0     H11417  -0.439   0.996   1.590  1.1892 -0.4797  0.7240
   85MOL0     H11418  -0.465   1.063   1.292 -2.9465 -0.4759 -0.9363
   85MOL0     H11419  -0.544   0.921   1.360  5.0328 -0.8878 -1.5304
   85MOL0     H11420  -0.637   1.132   1.517  0.1202 -1.8695  0.4456
   85MOL0     H11421  -0.578   1.232   1.375  3.6921 -1.1572  0.4163
   85MOL0     H11422  -0.753   1.124   1.224 -1.2925  1.7625  0.0709
   85MOL0     H11423  -0.793   0.994   1.330 -0.9309  0.8045  0.6673
   85MOL0     H11424  -0.846   1.284   1.379  0.0111  0.3481 -2.3377
   85MOL0     H11425  -0.890   1.154   1.494 -1.3124  2.7064  0.3087
   85MOL0     H11426  -1.126   1.192   1.494  1.0636  3.5718 -0.9434
   85MOL0     H11427  -1.392   1.046   1.251 -0.3762 -0.0302  1.6412
   85MOL0     H11428  -1.396   1.143   1.407 -0.1237  2.5773  1.0945
   85MOL0     H11429  -1.364   1.275   1.127 -1.1010  1.9112 -1.3624
   85MOL0     H11430  -1.416   1.354   1.264  2.2795  0.2685 -1.5521
   85MOL0     H11431  -1.561   1.160   1.100  1.1669 -0.0459 -0.7538
   85MOL0     H11432  -1.597   1.324   1.139 -0.7070 -0.3739  0.0291
   85MOL0     H11433  -1.669   1.257   1.382  0.7656  0.0352  0.0513
   85MOL0     H11434  -1.616   1.093   1.354 -3.0546 -0.1228  2.3535
   85MOL0     H11435  -1.830   1.202   1.498 -0.2190 -0.0929  0.2738
   85MOL0     H11436  -1.917   1.152   1.707 -0.1214 -1.2347  1.8825
   85MOL0     H11437  -2.089   1.205   1.676 -0.9101 -0.5077  0.4742
   85MOL0     H11438  -2.036   1.040   1.740  4.8448 -0.2547  1.8920
   85MOL0     H11439  -2.159   0.545   1.652 -0.0531  2.9095  1.9791
   85MOL0     H11440  -2.363   0.410   1.773 -1.2305 -0.3535  0.0281
   85MOL0     H11441  -2.556   0.309   1.635  1.3788  0.2282  0.4111
   85MOL0     H11442  -2.591   0.284   1.801 -1.8049 -2.2046 -0.3198
   85MOL0     H11443  -2.839   0.364   1.737 -1.6247 -1.2305 -1.0939
   85MOL0     H11444  -2.797   0.325   1.582 -1.4114  0.2719  0.1564
   85MOL0     H11445  -2.763   0.100   1.793 -2.2319 -0.3630  0.9506
   85MOL0     H11446  -2.778   0.083   1.622 -0.2304  1.2644 -0.7733
   85MOL0     H11447  -2.989   0.210   1.820  0.0232  2.4681 -2.5886
   85MOL0     H11448  -3.014   0.173   1.650 -0.8556 -0.0485  0.4179
   85MOL0     H11449  -2.984  -0.003   1.896 -0.8687 -1.4729 -0.3819
   85MOL0     H11450  -2.941  -0.077   1.737  1.0550  0.6267  0.0044
   85MOL0     H11451  -3.159  -0.128   1.819 -1.6248 -0.3921 -1.2602
   85MOL0     H11452  -3.203   0.050   1.797  2.2123  2.0561 -0.2644
   85MOL0     H11453  -3.161  -0.186   1.616  3.3632 -0.7513 -1.4527
   85MOL0     H11454  -3.100  -0.034   1.549  1.0635  0.7428  1.2196
   85MOL0     H11455  -3.379  -0.076   1.683 -1.2875  1.1876  0.3076
   85MOL0     H11456  -3.346  -0.102   1.508 -1.7741  1.0199 -0.3354
   85MOL0     H11457  -2.628   0.671   1.570  1.1052  0.8507 -3.2030
   85MOL0     H11458  -2.454   0.798   1.472  1.4877  0.6576 -0.2903
   85MOL0     H11459  -2.113   0.859   1.289  2.3266 -0.7090 -1.0815
   85MOL0     H11460  -1.945   0.992   1.150  1.7961  1.9130 -0.3045
   85MOL0     H11461   0.218   1.126   1.814  2.8465  0.0047 -1.5242
   85MOL0     H11462   0.394   1.234   1.891 -1.8315 -3.4025 -3.4157
   85MOL0     H11463   0.789   1.570   1.723 -2.8769  2.2224 -1.4797
   85MOL0     H11464   0.973   1.702   1.820 -0.3191  0.1259 -0.1917
   85MOL0     H11465   1.122   1.860   1.918 -0.7602  0.7136 -0.0904
   85MOL0     H11466   1.130   1.936   2.080 -0.0229 -0.2948  1.2382
   85MOL0     H11467   1.140   1.644   1.993 -1.2778 -1.3824  0.6867
   85MOL0     H11468   1.089   1.684   2.161 -2.6531 -0.2937 -2.6807
   85MOL0     H11469   1.333   1.657   2.169  0.6349 -0.7069 -0.4345
   85MOL0     H11470   1.288   1.818   2.197 -1.9592  0.5079 -1.7314
   85MOL0     H11471   1.362   1.883   1.958 -0.3003  0.2369  0.2935
   85MOL0     H11472   1.367   1.703   1.923  0.0235 -0.9673  0.1534
   85MOL0     H11473   1.760   1.764   2.004  0.5342  0.8159  0.6126
   85MOL0     H11474   0.702   1.839   2.129 -3.0132 -1.5410  0.2204
   85MOL0     H11475   0.538   1.672   2.062 -1.5275 -2.4728 -0.1000
   86MOL0     O11476   8.046  11.097   8.596  0.3312  0.3816 -0.2447
   86MOL0     C11477   8.119  11.183   8.644 -0.5218  0.4864  0.5171
   86MOL0     O11478   8.081  11.302   8.687  0.0212 -0.1365  0.5188
   86MOL0     C11479   7.944  11.326   8.680 -0.5713 -0.6054  0.3691
   86MOL0     C11480   7.865  11.310   8.564 -0.5119  0.6631  0.2597
   86MOL0     C11481   7.729  11.355   8.564 -0.5532  1.3847 -0.2959
   86MOL0     C11482   7.668  11.407   8.674 -0.4320  0.1095  0.6156
   86MOL0     O11483   7.540  11.451   8.660 -0.6492  0.3182  0.2647
   86MOL0     C11484   7.486  11.550   8.753 -0.4295 -1.3866 -0.7814
   86MOL0     C11485   7.408  11.469   8.858 -1.0802  0.3747 -0.6411
   86MOL0     C11486   7.270  11.423   8.810  0.3492  0.4537  0.7044
   86MOL0     C11487   7.199  11.342   8.921 -1.4528 -0.4370  0.4907
   86MOL0     C11488   7.113  11.228   8.870  0.6313 -0.9076  1.0951
   86MOL0     C11489   6.989  11.290   8.790 -0.4507 -0.3896  0.2167
   86MOL0     C11490   6.867  11.197   8.785 -0.1682 -0.0906 -0.7399
   86MOL0     C11491   6.736  11.236   8.865  0.3683 -0.3773  0.6489
   86MOL0     N11492   6.624  11.164   8.793  0.3485 -0.4294 -0.0565
   86MOL0     C11493   6.551  11.213   8.689  0.7137 -0.3304 -0.4264
   86MOL0     C11494   6.454  11.124   8.670  0.2840 -0.1357  0.3853
   86MOL0     C11495   6.340  11.135   8.574  0.9179 -0.0928  0.5485
   86MOL0     C11496   6.205  11.188   8.651 -0.5281 -0.2284  0.7478
   86MOL0     C11497   6.079  11.149   8.573 -0.1409  0.2529  0.2124
   86MOL0     C11498   5.951  11.193   8.633  0.2019  0.3850  0.5519
   86MOL0     O11499   5.856  11.172   8.527  0.1578  0.1242 -0.2058
   86MOL0     C11500   5.718  11.176   8.544  0.4071 -0.3467  0.2294
   86MOL0     C11501   5.634  11.123   8.447 -0.0310 -0.5255 -0.8560
   86MOL0     C11502   5.491  11.124   8.450  0.1217  0.0099  0.6169
   86MOL0     C11503   5.423  11.058   8.334 -0.0320 -1.5909 -0.1218
   86MOL0     C11504   5.420  11.188   8.561 -0.5330  0.4819 -0.1320
   86MOL0     C11505   5.279  11.209   8.570  0.3702 -0.5896  0.0611
   86MOL0     O11506   5.221  11.196   8.697  0.0820 -0.3646  0.6690
   86MOL0     C11507   5.096  11.154   8.690 -0.1714  0.2017  0.3522
   86MOL0     C11508   4.995  11.253   8.678 -0.3552 -0.3668 -0.3641
   86MOL0     C11509   4.856  11.213   8.688 -0.1781  0.2984 -0.3256
   86MOL0     C11510   4.821  11.080   8.707 -0.2515 -0.0949  0.6623
   86MOL0     O11511   4.689  11.048   8.721 -0.4665  0.4388 -0.5690
   86MOL0     C11512   4.589  11.140   8.664  1.5057  0.1758  0.2921
   86MOL0     C11513   4.441  11.080   8.648 -0.0152 -0.4728  0.4134
   86MOL0     C11514   4.390  11.127   8.513 -0.1803  0.2054  0.6777
   86MOL0     C11515   4.250  11.075   8.497 -0.4097  0.7664 -0.2007
   86MOL0     C11516   4.190  11.104   8.352 -0.2260  0.1778  0.3983
   86MOL0     C11517   4.055  11.030   8.332  0.1740  0.5119 -0.0534
   86MOL0     C11518   4.093  10.877   8.324 -0.4561 -0.6376 -0.2794
   86MOL0     C11519   3.976  10.787   8.282  0.1102 -0.6902 -0.5795
   86MOL0    Cl11520   3.921  10.836   8.120  0.5012 -0.2405  0.0371
   86MOL0     C11521   4.917  10.986   8.729 -0.5930 -0.1250  0.5474
   86MOL0     C11522   5.057  11.016   8.710  0.6774 -1.2788  0.4618
   86MOL0     O11523   5.218  11.217   8.462 -0.2385 -0.3770  0.4074
   86MOL0     C11524   5.507  11.240   8.665  0.4116  0.6499  0.6830
   86MOL0     C11525   5.649  11.233   8.651  0.5020 -0.2217 -0.8761
   86MOL0     N11526   6.468  11.034   8.773  0.5683  0.2243 -0.3705
   86MOL0     N11527   6.563  11.064   8.854  1.1066  0.0124 -0.2149
   86MOL0     C11528   7.745  11.408   8.796  0.3646 -0.7630  0.4756
   86MOL0     C11529   7.890  11.384   8.790  0.4335 -0.1281  0.0873
   86MOL0     C11530   8.260  11.154   8.638 -0.9213  0.2633 -0.4341
   86MOL0     C11531   8.310  11.033   8.585  0.1998 -1.0585  0.2344
   86MOL0     C11532   8.439  10.990   8.581  0.3020  0.1174 -0.7007
   86MOL0     C11533   8.528  11.074   8.641 -0.1194  0.3226 -0.2352
   86MOL0     O11534   8.666  11.044   8.637  0.2582 -0.3339  0.6010
   86MOL0     C11535   8.705  10.942   8.736 -0.0653 -0.5365 -0.8167
   86MOL0     C11536   8.755  11.020   8.860  0.1131 -0.3813 -0.1262
   86MOL0     C11537   8.792  10.938   8.976  0.3318 -0.7061 -0.3865
   86MOL0     C11538   8.897  10.830   8.955  0.4989  0.2612 -0.6737
   86MOL0     C11539   8.842  10.704   8.903  0.0231  0.0718  0.0026
   86MOL0     C11540   8.789  10.600   8.862  0.6372  0.4615 -0.3670
   86MOL0     C11541   8.481  11.196   8.694 -0.5780  0.3457 -0.4708
   86MOL0     C11542   8.349  11.234   8.707  0.4210 -1.0483  0.9174
   86MOL0     H11543   7.910  11.275   8.471  1.6244  2.2375  0.6197
   86MOL0     H11544   7.673  11.349   8.471  2.3377 -0.3699 -2.1098
   86MOL0     H11545   7.557  11.621   8.797  0.8043 -1.6162 -2.2879
   86MOL0     H11546   7.416  11.620   8.706  0.5481  0.8053  0.8550
   86MOL0     H11547   7.463  11.381   8.893 -0.6461  0.2283 -1.6670
   86MOL0     H11548   7.384  11.535   8.941 -4.1926  1.9605 -2.6328
   86MOL0     H11549   7.212  11.503   8.764 -1.3580 -2.7977 -3.3843
   86MOL0     H11550   7.286  11.362   8.721  0.5423 -0.1030  1.1067
   86MOL0     H11551   7.278  11.288   8.975 -1.8437 -1.4995  0.0233
   86MOL0     H11552   7.144  11.404   8.993 -2.6608  0.5421 -1.1972
   86MOL0     H11553   7.164  11.155   8.805 -0.9443  0.7229 -2.2459
   86MOL0     H11554   7.073  11.194   8.965 -1.2837  0.0528  0.6802
   86MOL0     H11555   6.956  11.385   8.835  1.0847  1.0195 -1.4538
   86MOL0     H11556   7.036  11.317   8.695  2.0291 -1.3791  1.0806
   86MOL0     H11557   6.846  11.187   8.678  0.8032  1.0256 -1.0547
   86MOL0     H11558   6.899  11.100   8.824  0.7045  0.7598  0.7815
   86MOL0     H11559   6.722  11.344   8.854 -0.3997 -0.3149  2.1069
   86MOL0     H11560   6.736  11.205   8.970  2.0485 -1.2116  0.4428
   86MOL0     H11561   6.580  11.300   8.630 -0.8695  0.9816  0.6605
   86MOL0     H11562   6.367  11.203   8.493 -1.9457  2.9707  1.9586
   86MOL0     H11563   6.321  11.037   8.529  0.9722 -0.2182  0.7946
   86MOL0     H11564   6.205  11.296   8.665 -2.7094 -0.4589  3.5020
   86MOL0     H11565   6.199  11.132   8.745  0.7127  1.6058  1.9919
   86MOL0     H11566   6.084  11.039   8.569  0.5755  0.3093 -1.1861
   86MOL0     H11567   6.075  11.197   8.475 -2.0415  0.9865  0.6126
   86MOL0     H11568   5.955  11.296   8.670  0.1244  2.2556 -3.9221
   86MOL0     H11569   5.920  11.135   8.720 -1.3365 -1.5585 -1.1634
   86MOL0     H11570   5.694  11.080   8.368 -0.8269 -1.4942 -0.9672
   86MOL0     H11571   5.369  11.138   8.282  1.3324 -0.4308  0.1823
   86MOL0     H11572   5.488  11.003   8.266 -1.5729  0.2479 -3.3368
   86MOL0     H11573   5.356  10.984   8.378 -1.0018  0.1161  1.4152
   86MOL0     H11574   5.019  11.358   8.664 -0.6662  0.0257  1.7361
   86MOL0     H11575   4.788  11.298   8.680  1.0399  1.9394  3.9374
   86MOL0     H11576   4.572  11.219   8.737 -0.0290 -2.0132  2.4728
   86MOL0     H11577   4.618  11.170   8.562 -1.5269 -1.0413 -1.0602
   86MOL0     H11578   4.466  10.974   8.659 -0.1371 -0.3193  2.6627
   86MOL0     H11579   4.376  11.104   8.732 -0.2775  0.0942  0.0607
   86MOL0     H11580   4.448  11.094   8.426 -2.3588 -0.7773 -0.4901
   86MOL0     H11581   4.378  11.236   8.515 -0.4473  0.2239 -0.8102
   86MOL0     H11582   4.250  10.966   8.510 -1.6524  0.6828 -0.8024
   86MOL0     H11583   4.189  11.123   8.574 -2.2678 -0.5348 -0.7986
   86MOL0     H11584   4.261  11.078   8.273  0.5306  0.9703  0.8083
   86MOL0     H11585   4.180  11.213   8.350  1.2978  0.3292 -0.9173
   86MOL0     H11586   3.984  11.054   8.411 -3.0191 -1.3648 -2.1296
   86MOL0     H11587   4.002  11.060   8.241 -0.7553  1.1044  0.6705
   86MOL0     H11588   4.127  10.851   8.424 -0.8495  0.2061  0.0892
   86MOL0     H11589   4.180  10.857   8.261 -0.1997  0.8809 -0.4530
   86MOL0     H11590   3.898  10.808   8.355  1.0785  0.9656  0.0368
   86MOL0     H11591   3.997  10.680   8.288  0.7112 -0.4980  1.5640
   86MOL0     H11592   4.884  10.891   8.770 -0.9593 -0.3180 -0.1796
   86MOL0     H11593   5.141  10.953   8.738  1.2832  1.8838  8.0423
   86MOL0     H11594   5.465  11.273   8.759  0.1050 -2.3947  1.7287
   86MOL0     H11595   5.713  11.261   8.734 -0.5621 -0.7215  0.1429
   86MOL0     H11596   7.701  11.460   8.880  1.4122 -0.1125  0.6335
   86MOL0     H11597   7.963  11.412   8.865  1.5853  1.6072 -1.5980
   86MOL0     H11598   8.243  10.965   8.533 -1.0119 -0.2635  0.7058
   86MOL0     H11599   8.487  10.898   8.547  1.3076 -0.7273  2.5896
   86MOL0     H11600   8.625  10.877   8.774 -0.1213  0.0782  0.1447
   86MOL0     H11601   8.787  10.883   8.694 -0.3734 -1.9717  0.4812
   86MOL0     H11602   8.680  11.093   8.894 -1.3899 -1.7475 -0.4003
   86MOL0     H11603   8.844  11.075   8.830 -0.2431 -0.3200 -1.0917
   86MOL0     H11604   8.697  10.899   9.013  1.0818 -0.4792  1.9400
   86MOL0     H11605   8.826  11.007   9.053 -2.6539  0.4504  0.0369
   86MOL0     H11606   8.933  10.797   9.053 -1.6598  0.3973  0.2206
   86MOL0     H11607   8.981  10.861   8.892  0.8085 -0.5084 -0.6591
   86MOL0     H11608   8.753  10.501   8.840  0.6551  0.2933  0.3137
   86MOL0     H11609   8.559  11.261   8.733 -1.0974  1.1737 -0.7825
   86MOL0     H11610   8.320  11.329   8.752  2.0540  0.4272 -0.9799
   87MOL0     O11611   8.034   8.171   5.255  0.0717 -0.7873 -0.1846
   87MOL0     C11612   8.023   8.104   5.354 -0.7424 -0.3598  0.8954
   87MOL0     O11613   7.923   8.110   5.451 -0.1010  0.3188 -0.0010
   87MOL0     C11614   7.823   8.200   5.431  0.3861  0.0754  0.2192
   87MOL0     C11615   7.797   8.296   5.537  0.3280 -0.3956  1.0330
   87MOL0     C11616   7.685   8.389   5.525 -0.2505  0.5894 -0.0872
   87MOL0     C11617   7.590   8.374   5.420 -0.4409 -0.4956  0.9365
   87MOL0     O11618   7.480   8.454   5.408 -0.5632  0.2046  0.6131
   87MOL0     C11619   7.494   8.594   5.428 -0.0525 -0.6894 -0.4166
   87MOL0     C11620   7.389   8.683   5.369 -0.2497 -0.8169  0.3116
   87MOL0     C11621   7.246   8.648   5.419 -0.5180  0.1702  0.7072
   87MOL0     C11622   7.157   8.711   5.320  0.3681  0.7716  0.1689
   87MOL0     C11623   7.005   8.699   5.364 -0.2051  1.0030  0.5445
   87MOL0     C11624   6.954   8.563   5.392  0.3964  0.3064 -0.2333
   87MOL0     C11625   6.800   8.565   5.400  0.1033 -0.1231 -0.4554
   87MOL0     C11626   6.753   8.665   5.511 -0.5880  0.4243  0.0209
   87MOL0     N11627   6.614   8.674   5.530  0.4810 -0.6699 -0.1404
   87MOL0     C11628   6.521   8.569   5.515 -0.3906  0.7158  0.6292
   87MOL0     C11629   6.403   8.637   5.537 -0.8555 -0.2212  0.0181
   87MOL0     C11630   6.261   8.602   5.505  0.5609  0.0446 -0.6181
   87MOL0     C11631   6.214   8.709   5.406 -0.2880  0.5347 -0.5643
   87MOL0     C11632   6.076   8.674   5.347  0.1023  0.1861 -0.4899
   87MOL0     C11633   5.961   8.666   5.453 -0.3056  0.1108  0.6124
   87MOL0     O11634   5.834   8.675   5.392 -0.0307  0.4652  0.9437
   87MOL0     C11635   5.728   8.584   5.430  0.2737 -0.5059  0.4959
   87MOL0     C11636   5.620   8.576   5.339 -0.1766 -0.8962  0.0924
   87MOL0     C11637   5.523   8.482   5.359 -1.1165  0.0799  0.5259
   87MOL0     C11638   5.415   8.474   5.251 -0.7662  0.0071 -0.2851
   87MOL0     C11639   5.514   8.399   5.477 -0.7763 -0.2643  0.0423
   87MOL0     C11640   5.402   8.314   5.518 -0.6083 -0.6212  0.0304
   87MOL0     O11641   5.429   8.244   5.628  0.1524 -0.2322 -0.4064
   87MOL0     C11642   5.340   8.154   5.670  0.0792 -0.3493 -0.3753
   87MOL0     C11643   5.317   8.039   5.597 -0.5221 -0.2757  0.2633
   87MOL0     C11644   5.224   7.943   5.642 -1.1012 -0.1343 -0.7599
   87MOL0     C11645   5.154   7.968   5.765 -0.3405 -0.6906  0.6815
   87MOL0     O11646   5.069   7.882   5.822  0.4291  0.4768  0.2022
   87MOL0     C11647   5.085   7.736   5.804  0.2238 -0.5721  0.4545
   87MOL0     C11648   5.013   7.672   5.920 -0.0962 -0.2350  0.3441
   87MOL0     C11649   5.088   7.697   6.054  0.7890  0.3341  0.3495
   87MOL0     C11650   5.216   7.612   6.078  0.3087  0.2674 -0.3385
   87MOL0     C11651   5.273   7.635   6.213 -0.2022  0.1281 -0.9861
   87MOL0     C11652   5.289   7.507   6.294 -1.0952  0.2398 -0.0449
   87MOL0     C11653   5.423   7.443   6.247  0.1649 -0.4626  0.3108
   87MOL0     C11654   5.468   7.332   6.338 -0.1614  0.0216 -0.2321
   87MOL0    Cl11655   5.604   7.245   6.257  0.0873  0.2446  0.1492
   87MOL0     C11656   5.171   8.091   5.828 -0.4447 -0.2507 -0.4547
   87MOL0     C11657   5.270   8.180   5.793 -0.1079 -0.2660  1.1914
   87MOL0     O11658   5.297   8.309   5.454  0.2339 -0.1136  0.4404
   87MOL0     C11659   5.625   8.420   5.565  0.6828  0.2466 -0.2966
   87MOL0     C11660   5.727   8.508   5.545 -0.7173  0.5082 -0.8574
   87MOL0     N11661   6.424   8.762   5.581 -0.6326 -0.2288  0.4260
   87MOL0     N11662   6.550   8.786   5.579  0.3144 -0.5817  0.0931
   87MOL0     C11663   7.616   8.273   5.329  0.2541  0.2925  0.7942
   87MOL0     C11664   7.732   8.197   5.322  0.5942  0.7151  0.1881
   87MOL0     C11665   8.137   8.014   5.386  0.7330  0.0006  0.0833
   87MOL0     C11666   8.216   7.962   5.281 -0.1592  0.3073 -0.1307
   87MOL0     C11667   8.331   7.885   5.318 -0.5081 -0.3885 -0.1760
   87MOL0     C11668   8.361   7.850   5.452  0.5681  0.9094 -0.5319
   87MOL0     O11669   8.470   7.776   5.495 -0.3620 -0.2705  0.4580
   87MOL0     C11670   8.592   7.767   5.412 -0.3000  0.4693  0.8920
   87MOL0     C11671   8.698   7.719   5.513 -0.1179 -0.1841  0.2403
   87MOL0     C11672   8.846   7.721   5.453  0.6651  0.2964  0.1027
   87MOL0     C11673   8.873   7.631   5.326 -0.2292  0.5490  0.0923
   87MOL0     C11674   8.819   7.693   5.205  0.4775  1.0996  0.2371
   87MOL0     C11675   8.773   7.739   5.104  0.0595  1.0478  0.0368
   87MOL0     C11676   8.274   7.894   5.552 -0.2766 -0.6619  0.0116
   87MOL0     C11677   8.166   7.980   5.521 -0.1797 -0.2672  0.8238
   87MOL0     H11678   7.867   8.287   5.620  2.8111  4.7358 -0.0742
   87MOL0     H11679   7.679   8.464   5.603 -0.8041  0.1045  0.3425
   87MOL0     H11680   7.489   8.600   5.537 -0.4081  1.0763 -0.5009
   87MOL0     H11681   7.589   8.636   5.395  0.5596 -1.4153  0.3718
   87MOL0     H11682   7.408   8.790   5.382 -1.2036 -0.6173  0.0842
   87MOL0     H11683   7.395   8.653   5.264  0.6450 -0.0961  0.1410
   87MOL0     H11684   7.231   8.539   5.419  0.5157  0.0243  0.7258
   87MOL0     H11685   7.222   8.691   5.517 -3.3810  0.0862  0.1499
   87MOL0     H11686   7.187   8.816   5.304  2.4085  0.5318  1.9363
   87MOL0     H11687   7.161   8.654   5.227 -5.4024 -1.2848  0.7983
   87MOL0     H11688   6.991   8.762   5.452  0.5078 -0.2037  1.5570
   87MOL0     H11689   6.953   8.740   5.276  0.2577  0.1566 -0.1432
   87MOL0     H11690   6.983   8.505   5.304 -0.5228  3.1590 -2.5669
   87MOL0     H11691   7.002   8.519   5.480 -1.2709 -3.1580 -0.8680
   87MOL0     H11692   6.757   8.599   5.305  1.9968  1.1359 -0.9070
   87MOL0     H11693   6.786   8.458   5.421 -1.9190  0.2806  0.5018
   87MOL0     H11694   6.781   8.769   5.495 -0.4408  0.5816  1.2655
   87MOL0     H11695   6.794   8.633   5.607 -3.2471  0.4557  1.2605
   87MOL0     H11696   6.533   8.462   5.498 -0.6833  0.2003  3.3000
   87MOL0     H11697   6.238   8.505   5.459 -2.5136  0.2545  0.3047
   87MOL0     H11698   6.211   8.615   5.601  2.1640  1.9050  0.0407
   87MOL0     H11699   6.281   8.711   5.320 -0.1697  0.9297 -0.4683
   87MOL0     H11700   6.215   8.803   5.463 -3.7144  0.6848 -0.5291
   87MOL0     H11701   6.075   8.592   5.275 -0.1707 -1.1776  1.0143
   87MOL0     H11702   6.038   8.767   5.304 -3.7814 -0.2864  1.4844
   87MOL0     H11703   5.960   8.756   5.515 -1.5900 -1.0194  2.3403
   87MOL0     H11704   5.974   8.571   5.506 -1.7539 -1.3653 -1.5162
   87MOL0     H11705   5.629   8.632   5.247 -0.4274  1.9767  1.6972
   87MOL0     H11706   5.437   8.511   5.151 -2.1541 -3.5123 -2.0939
   87MOL0     H11707   5.395   8.367   5.235 -0.3790  0.1111 -1.5217
   87MOL0     H11708   5.323   8.521   5.288 -0.3392  0.2641  0.4773
   87MOL0     H11709   5.375   8.011   5.510  2.2847  1.3822  1.4804
   87MOL0     H11710   5.210   7.848   5.591  1.9551 -1.9625  1.4531
   87MOL0     H11711   5.028   7.709   5.714 -0.1679  1.6764 -0.0333
   87MOL0     H11712   5.191   7.712   5.790  0.2646  0.3761 -1.0800
   87MOL0     H11713   4.910   7.704   5.934 -0.1616 -0.4791  0.4255
   87MOL0     H11714   5.022   7.565   5.899  1.3472  0.3426 -2.4843
   87MOL0     H11715   5.014   7.683   6.134 -1.6503  0.9985 -1.6516
   87MOL0     H11716   5.113   7.803   6.066  0.1369  0.6010 -0.5656
   87MOL0     H11717   5.202   7.503   6.076 -0.6113  0.3839 -1.3600
   87MOL0     H11718   5.293   7.633   6.003 -0.8425 -2.3144 -2.4249
   87MOL0     H11719   5.199   7.686   6.275  0.0472  1.7832 -1.9839
   87MOL0     H11720   5.364   7.695   6.215  2.5555 -3.6692 -1.6889
   87MOL0     H11721   5.298   7.522   6.402  0.7099 -0.2344 -0.1025
   87MOL0     H11722   5.203   7.441   6.280  0.1043 -1.8937  1.9829
   87MOL0     H11723   5.500   7.518   6.224  0.5577 -0.9775 -0.0716
   87MOL0     H11724   5.398   7.404   6.148  0.2206 -0.8873  0.4644
   87MOL0     H11725   5.385   7.265   6.364 -1.5084  1.7920  0.1585
   87MOL0     H11726   5.504   7.375   6.431  0.6662  0.6388 -0.8334
   87MOL0     H11727   5.107   8.121   5.910 -0.2320 -0.7407 -0.1051
   87MOL0     H11728   5.277   8.273   5.847  2.4223  0.9628 -1.0105
   87MOL0     H11729   5.625   8.358   5.654  0.4301 -1.1662 -1.2408
   87MOL0     H11730   5.799   8.509   5.626 -1.8069  0.0517  0.1490
   87MOL0     H11731   7.548   8.264   5.245  1.1261  0.2164  0.0866
   87MOL0     H11732   7.749   8.124   5.244  1.8461  0.1656  0.9330
   87MOL0     H11733   8.174   7.976   5.182  1.7559  0.4739 -0.9629
   87MOL0     H11734   8.385   7.832   5.240 -1.6556 -1.1732 -0.4649
   87MOL0     H11735   8.576   7.692   5.334 -0.1305  0.7611  0.5706
   87MOL0     H11736   8.622   7.863   5.368 -0.2784  0.5490  1.0816
   87MOL0     H11737   8.665   7.621   5.551 -0.8848  0.4412  1.2346
   87MOL0     H11738   8.694   7.795   5.592  2.1980 -0.8141  1.0544
   87MOL0     H11739   8.910   7.679   5.531 -0.7088  1.3379  1.8504
   87MOL0     H11740   8.875   7.824   5.428  1.2019 -0.2233 -1.5924
   87MOL0     H11741   8.831   7.532   5.345  1.1658  0.3332  2.4561
   87MOL0     H11742   8.981   7.629   5.308 -0.8471  0.4224 -5.0216
   87MOL0     H11743   8.719   7.782   5.022 -1.4880  1.0666  1.0201
   87MOL0     H11744   8.288   7.863   5.655  1.5721  0.6736  0.2019
   87MOL0     H11745   8.090   8.012   5.592 -0.0037 -0.5281  1.1317
   88MOL0     O11746  11.240   0.654   8.000 -1.1650 -0.2796 -0.2821
   88MOL0     C11747  11.326   0.602   8.072  0.6815  0.6603 -0.2412
   88MOL0     O11748  11.317   0.600   8.213 -0.1910 -0.4535 -0.1445
   88MOL0     C11749  11.195   0.657   8.262 -0.1098  0.9907 -0.5722
   88MOL0     C11750  11.203   0.796   8.288 -0.2118  0.3348  0.1840
   88MOL0     C11751  11.090   0.859   8.341 -0.4376 -0.4474  0.8094
   88MOL0     C11752  10.977   0.796   8.376 -0.7149  0.9142 -1.0747
   88MOL0     O11753  10.867   0.868   8.432 -0.5531  0.3716 -0.3046
   88MOL0     C11754  10.805   0.957   8.335 -0.2373 -0.3573  0.8201
   88MOL0     C11755  10.703   1.051   8.397  1.0705 -0.1425  0.3897
   88MOL0     C11756  10.600   0.984   8.484  0.5033 -0.4899  0.4247
   88MOL0     C11757  10.494   1.088   8.514  0.5087 -0.8801  0.3576
   88MOL0     C11758  10.416   1.050   8.636  0.5865 -0.2101 -0.2721
   88MOL0     C11759  10.291   1.130   8.666  0.1679 -0.7007  0.3046
   88MOL0     C11760  10.185   1.052   8.743  0.2646  0.8238 -0.1549
   88MOL0     C11761  10.054   1.122   8.738 -0.6244 -0.8318  0.1296
   88MOL0     N11762   9.948   1.042   8.810 -0.1246 -0.3648 -0.4087
   88MOL0     C11763   9.939   1.027   8.943 -0.1130  0.5870 -0.1521
   88MOL0     C11764   9.881   0.909   8.960 -0.0062  0.8159 -0.4591
   88MOL0     C11765   9.864   0.833   9.093 -0.0186 -0.4136 -0.3633
   88MOL0     C11766   9.722   0.852   9.150  1.1283 -0.3612 -1.1460
   88MOL0     C11767   9.698   0.999   9.213 -0.1181 -0.4173  0.3034
   88MOL0     C11768   9.758   1.010   9.351  0.8052  0.6083 -0.0777
   88MOL0     O11769   9.681   0.937   9.452 -0.1708  0.1746  0.3719
   88MOL0     C11770   9.589   1.020   9.514 -0.1112  0.0984 -0.4871
   88MOL0     C11771   9.625   1.124   9.600  0.2774 -0.7099 -0.0561
   88MOL0     C11772   9.530   1.186   9.680  0.3276  0.6768  0.3197
   88MOL0     C11773   9.582   1.274   9.784  0.2802  0.8689 -0.1631
   88MOL0     C11774   9.393   1.159   9.660 -0.6310 -0.3469  0.4065
   88MOL0     C11775   9.282   1.236   9.721 -0.7337  0.4158 -0.3704
   88MOL0     O11776   9.167   1.180   9.711  0.0641  0.2964  0.2988
   88MOL0     C11777   9.069   1.221   9.797  0.2909  0.5118 -1.2242
   88MOL0     C11778   8.945   1.254   9.741  0.0040 -0.9085 -0.1285
   88MOL0     C11779   8.843   1.294   9.835  0.2974  0.1886  0.3995
   88MOL0     C11780   8.853   1.304   9.969 -0.5398  0.3899  1.1013
   88MOL0     O11781   8.742   1.339  10.043  0.0294 -0.2741 -0.2933
   88MOL0     C11782   8.742   1.332  10.184  0.4998 -0.0044 -0.3762
   88MOL0     C11783   8.614   1.400  10.239  0.0491  0.3271  0.5036
   88MOL0     C11784   8.627   1.556  10.230 -0.2997  0.1024 -0.3388
   88MOL0     C11785   8.511   1.624  10.312 -0.3111 -0.0330 -0.1122
   88MOL0     C11786   8.537   1.776  10.352  1.7815  0.0259  0.0365
   88MOL0     C11787   8.558   1.857  10.224 -0.4869  0.8009  1.0297
   88MOL0     C11788   8.560   2.010  10.258 -0.1357  1.0466  0.5761
   88MOL0     C11789   8.418   2.065  10.237 -0.0951  0.1036 -0.2079
   88MOL0    Cl11790   8.343   2.039  10.068 -0.0219  0.1855  0.0581
   88MOL0     C11791   8.976   1.252  10.022  0.4499  0.1981 -0.1944
   88MOL0     C11792   9.078   1.215   9.939 -0.5121  0.6832 -0.5102
   88MOL0     O11793   9.299   1.349   9.759 -0.4104  1.1280  0.1708
   88MOL0     C11794   9.360   1.061   9.566  0.0887 -1.0184 -0.0270
   88MOL0     C11795   9.454   0.989   9.494 -0.6607  0.6178  0.2991
   88MOL0     N11796   9.841   0.861   8.832 -0.8472  0.0757 -0.0046
   88MOL0     N11797   9.890   0.944   8.744  0.3790  0.0314 -0.3406
   88MOL0     C11798  10.967   0.660   8.353 -0.2627  0.4508  0.0017
   88MOL0     C11799  11.076   0.582   8.296 -0.3001 -0.2869  0.4324
   88MOL0     C11800  11.432   0.517   8.001  0.0595  0.1135  0.0839
   88MOL0     C11801  11.425   0.501   7.861 -0.8602  0.5553  0.5395
   88MOL0     C11802  11.510   0.418   7.789  0.2299 -1.0843 -0.0189
   88MOL0     C11803  11.612   0.361   7.859  0.2159 -0.7331  1.1936
   88MOL0     O11804  11.695   0.278   7.782 -0.2447  0.0307 -0.3918
   88MOL0     C11805  11.831   0.304   7.805 -0.4806 -0.2639  0.9893
   88MOL0     C11806  11.926   0.230   7.710  0.1041  0.3660  0.0474
   88MOL0     C11807  12.064   0.290   7.715 -0.6898 -0.0754 -0.1637
   88MOL0     C11808  12.167   0.210   7.654  0.4104  0.0854  0.0854
   88MOL0     C11809  12.193   0.095   7.740  0.2515 -0.2087 -0.2408
   88MOL0     C11810  12.229  -0.017   7.782 -0.5235 -0.5446 -0.1395
   88MOL0     C11811  11.613   0.367   8.000 -0.1141 -0.4787  0.2930
   88MOL0     C11812  11.524   0.449   8.068  0.3709  0.2970 -0.6389
   88MOL0     H11813  11.296   0.849   8.270 -1.0928  1.1129 -2.5035
   88MOL0     H11814  11.086   0.967   8.350  0.7609 -0.3595  0.5316
   88MOL0     H11815  10.875   1.014   8.274  1.1798 -2.1532  0.6867
   88MOL0     H11816  10.740   0.897   8.271  1.0676  1.1837 -2.1400
   88MOL0     H11817  10.755   1.127   8.456  0.9465  0.1751  0.0959
   88MOL0     H11818  10.657   1.106   8.314 -2.2166 -1.8769  0.9007
   88MOL0     H11819  10.553   0.904   8.426  0.8751  1.7048 -3.2574
   88MOL0     H11820  10.642   0.950   8.579  1.3054  1.7206  0.9050
   88MOL0     H11821  10.549   1.177   8.545 -0.9552 -0.4280  1.7661
   88MOL0     H11822  10.426   1.099   8.429  0.7495 -2.0770 -0.0096
   88MOL0     H11823  10.406   0.941   8.641  3.8303 -0.6915 -1.3570
   88MOL0     H11824  10.479   1.079   8.721 -0.5462  0.6551  0.2907
   88MOL0     H11825  10.308   1.221   8.725 -1.1772  0.8963 -1.6280
   88MOL0     H11826  10.244   1.160   8.572  0.2916  2.4227  1.1095
   88MOL0     H11827  10.156   0.951   8.712  1.5275  0.6825 -0.9128
   88MOL0     H11828  10.226   1.049   8.845  1.1018  1.9176 -0.4374
   88MOL0     H11829  10.029   1.120   8.632  0.4330 -3.8831 -0.1740
   88MOL0     H11830  10.062   1.221   8.784 -1.4831  0.2057 -1.8236
   88MOL0     H11831   9.985   1.099   9.009 -1.4305  0.9234  0.4424
   88MOL0     H11832   9.893   0.727   9.088  2.4899  0.2638 -1.3164
   88MOL0     H11833   9.932   0.884   9.162  0.2409 -0.5402 -0.5231
   88MOL0     H11834   9.700   0.776   9.226  1.9827  1.1627  0.7120
   88MOL0     H11835   9.641   0.854   9.076 -1.0360  1.6706  1.0720
   88MOL0     H11836   9.592   1.016   9.233 -0.1463 -0.2135 -0.0070
   88MOL0     H11837   9.726   1.075   9.139  0.6892 -0.6032  0.4154
   88MOL0     H11838   9.767   1.117   9.372  0.1975  1.7489 -4.5135
   88MOL0     H11839   9.853   0.956   9.357 -1.1276 -2.9900  0.6826
   88MOL0     H11840   9.730   1.138   9.625 -0.4793  0.4752  2.6948
   88MOL0     H11841   9.591   1.373   9.738 -2.7922  1.1081 -0.4507
   88MOL0     H11842   9.517   1.284   9.871  2.3475 -0.8753  1.6867
   88MOL0     H11843   9.674   1.223   9.812 -2.3027 -5.6051 -1.6062
   88MOL0     H11844   8.930   1.260   9.634 -0.1554 -0.4699 -0.0838
   88MOL0     H11845   8.746   1.328   9.800 -0.6715  0.3760  3.0531
   88MOL0     H11846   8.744   1.227  10.216  3.8394  0.1986  0.3942
   88MOL0     H11847   8.831   1.377  10.229  1.7478  0.5714 -3.1968
   88MOL0     H11848   8.521   1.373  10.187 -1.0240  1.2676  1.8503
   88MOL0     H11849   8.603   1.375  10.345  1.2574 -0.8589  0.3642
   88MOL0     H11850   8.623   1.593  10.127  1.1468  1.2187 -0.0337
   88MOL0     H11851   8.718   1.599  10.273  0.9479 -0.2302 -2.5060
   88MOL0     H11852   8.413   1.627  10.264 -0.0093  0.3997 -0.7041
   88MOL0     H11853   8.493   1.569  10.406  0.3618  1.4767  0.9395
   88MOL0     H11854   8.631   1.784  10.408  2.7506 -0.7482 -1.4252
   88MOL0     H11855   8.443   1.811  10.395  1.1923 -1.0371 -0.3642
   88MOL0     H11856   8.653   1.825  10.181 -0.4579  2.4709 -0.2650
   88MOL0     H11857   8.488   1.842  10.141  1.6569  1.2185 -0.9347
   88MOL0     H11858   8.620   2.069  10.189 -3.1222  0.1973 -3.0733
   88MOL0     H11859   8.604   2.011  10.358  4.3832 -0.5731 -1.1317
   88MOL0     H11860   8.420   2.172  10.260 -0.4147 -0.4915  3.1579
   88MOL0     H11861   8.354   2.021  10.314  2.0455 -0.4893  1.3354
   88MOL0     H11862   8.999   1.234  10.127  2.5604 -1.1519 -0.8148
   88MOL0     H11863   9.172   1.182   9.982 -1.7280 -0.8276  1.1149
   88MOL0     H11864   9.258   1.034   9.541 -0.5808  0.0162  1.4766
   88MOL0     H11865   9.425   0.920   9.415 -0.3817  1.7594 -0.8462
   88MOL0     H11866  10.869   0.615   8.354  1.4729 -3.9161 -1.8068
   88MOL0     H11867  11.068   0.477   8.269  0.3918  0.0607 -1.2414
   88MOL0     H11868  11.343   0.527   7.794 -0.2103  0.2212 -0.4119
   88MOL0     H11869  11.495   0.407   7.682 -0.9571  1.0309 -0.1331
   88MOL0     H11870  11.841   0.409   7.776  1.1250 -0.6834 -0.1169
   88MOL0     H11871  11.849   0.284   7.911 -0.0549 -0.1221  0.9473
   88MOL0     H11872  11.886   0.240   7.609  0.3706 -0.3042 -0.1276
   88MOL0     H11873  11.928   0.122   7.728 -0.3130  0.0792 -1.5446
   88MOL0     H11874  12.092   0.299   7.821  2.0165  2.3461 -0.9670
   88MOL0     H11875  12.069   0.388   7.666 -2.9368 -1.3254 -3.1551
   88MOL0     H11876  12.256   0.269   7.631  0.9318 -1.3512 -1.8859
   88MOL0     H11877  12.138   0.179   7.553 -1.2433 -0.3478  0.6637
   88MOL0     H11878  12.256  -0.113   7.823 -2.7156 -1.9406 -1.7252
   88MOL0     H11879  11.687   0.303   8.048  0.2476 -0.8953 -0.7871
   88MOL0     H11880  11.545   0.448   8.174 -0.9258 -0.1456 -0.3744
   89MOL0     O11881   7.593   2.841   4.193 -0.0818  0.0121  0.1137
   89MOL0     C11882   7.587   2.812   4.315  0.9724  0.4207  1.0654
   89MOL0     O11883   7.472   2.790   4.390 -0.8309 -0.0931  0.2195
   89MOL0     C11884   7.351   2.810   4.331 -0.8557 -1.2098 -0.5500
   89MOL0     C11885   7.320   2.932   4.268 -0.5162 -0.3923 -0.4747
   89MOL0     C11886   7.201   2.953   4.201  0.4134 -0.0489  0.3497
   89MOL0     C11887   7.096   2.860   4.216 -0.6066  0.2255 -0.3451
   89MOL0     O11888   6.989   2.874   4.137 -0.1323 -0.3051  0.4640
   89MOL0     C11889   6.871   2.818   4.190 -0.0593 -0.3744  0.0869
   89MOL0     C11890   6.762   2.816   4.078 -0.7821  0.0801  0.3228
   89MOL0     C11891   6.636   2.755   4.140 -0.2783  0.1788  0.5649
   89MOL0     C11892   6.555   2.855   4.213 -0.1102  0.4012  0.4897
   89MOL0     C11893   6.436   2.802   4.283  0.7111  1.6871 -0.3023
   89MOL0     C11894   6.296   2.782   4.198  0.0920 -0.1513 -0.5584
   89MOL0     C11895   6.233   2.918   4.165 -0.0649 -0.0144 -0.7700
   89MOL0     C11896   6.085   2.908   4.124  0.7669  0.2019  0.2447
   89MOL0     N11897   5.992   2.858   4.229 -0.7411 -0.0908  0.1246
   89MOL0     C11898   6.000   2.902   4.362 -0.4506  0.1748 -0.5474
   89MOL0     C11899   5.883   2.857   4.418 -0.1098  0.2517 -0.1184
   89MOL0     C11900   5.841   2.860   4.566  0.0199 -0.4527 -0.0946
   89MOL0     C11901   5.693   2.836   4.586 -0.3701 -0.0647 -1.0904
   89MOL0     C11902   5.609   2.963   4.559 -1.2154 -0.5988  0.0873
   89MOL0     C11903   5.458   2.945   4.575  0.5672  0.3255  0.3361
   89MOL0     O11904   5.403   2.833   4.494 -0.2056 -0.2780 -0.1670
   89MOL0     C11905   5.275   2.809   4.475  0.6602 -0.0181  0.4004
   89MOL0     C11906   5.168   2.868   4.541 -0.4166 -0.1008  0.4211
   89MOL0     C11907   5.035   2.824   4.530  0.5238  0.0157  0.9970
   89MOL0     C11908   4.924   2.894   4.614 -0.1442  0.0228 -0.3219
   89MOL0     C11909   5.011   2.717   4.439  0.2327  0.2116  0.3674
   89MOL0     C11910   4.875   2.650   4.425  0.0218 -0.5600  0.4493
   89MOL0     O11911   4.866   2.572   4.303  0.2941  0.2069 -0.0063
   89MOL0     C11912   4.740   2.508   4.285  0.7250 -0.0670  0.5328
   89MOL0     C11913   4.714   2.398   4.369  0.1629 -0.6333  0.1401
   89MOL0     C11914   4.575   2.357   4.378  0.4069  0.0634  0.4914
   89MOL0     C11915   4.471   2.408   4.294 -0.6342 -0.1888  0.7094
   89MOL0     O11916   4.349   2.348   4.307  0.0472  0.5615  0.0572
   89MOL0     C11917   4.240   2.413   4.250 -0.1250  0.7389  0.8654
   89MOL0     C11918   4.201   2.550   4.309  0.3574  1.0317 -0.5319
   89MOL0     C11919   4.167   2.540   4.456  0.3934  0.7200  0.2836
   89MOL0     C11920   4.153   2.673   4.532 -0.3644 -0.6463 -0.3261
   89MOL0     C11921   4.129   2.660   4.678  0.8828  0.0342  1.0615
   89MOL0     C11922   3.974   2.641   4.691  0.6767  0.0669 -0.4679
   89MOL0     C11923   3.940   2.623   4.837  0.0644  0.0363 -0.1350
   89MOL0     C11924   3.790   2.635   4.862  0.1675  0.0318 -0.1549
   89MOL0    Cl11925   3.785   2.649   5.037 -0.4325  0.3597 -0.3630
   89MOL0     C11926   4.511   2.505   4.199 -0.5616 -0.4100 -0.2631
   89MOL0     C11927   4.642   2.561   4.200  0.8230  0.1653  0.1540
   89MOL0     O11928   4.777   2.676   4.500 -0.6546  1.3230  0.3179
   89MOL0     C11929   5.116   2.669   4.369 -0.6238  0.5691  0.3149
   89MOL0     C11930   5.245   2.719   4.380  0.1758 -0.4383 -0.4940
   89MOL0     N11931   5.802   2.814   4.316 -0.1764 -0.4450  0.1463
   89MOL0     N11932   5.868   2.813   4.213 -0.2701 -0.1801  0.5970
   89MOL0     C11933   7.129   2.734   4.276  0.1393 -0.1296 -0.1181
   89MOL0     C11934   7.259   2.715   4.335 -0.3004 -0.2662 -0.4606
   89MOL0     C11935   7.708   2.799   4.380  0.1562 -0.6138 -0.2716
   89MOL0     C11936   7.708   2.744   4.511  0.2525  0.5663 -0.2403
   89MOL0     C11937   7.820   2.744   4.590 -0.0894 -0.0723 -0.0430
   89MOL0     C11938   7.937   2.810   4.546 -0.6575  0.2237 -0.2318
   89MOL0     O11939   8.044   2.809   4.628  1.3010  0.1623  0.5062
   89MOL0     C11940   8.161   2.886   4.608 -0.3612  0.2186 -0.5139
   89MOL0     C11941   8.278   2.804   4.666  0.0943 -0.0904 -0.3746
   89MOL0     C11942   8.284   2.672   4.573 -0.6026 -0.2463 -0.5934
   89MOL0     C11943   8.368   2.693   4.454  0.0786 -0.3345  0.9201
   89MOL0     C11944   8.511   2.720   4.480 -0.1181  0.3893  0.7482
   89MOL0     C11945   8.632   2.732   4.463  0.0268 -0.2922 -0.2791
   89MOL0     C11946   7.937   2.876   4.420  0.5660 -0.1594 -0.4237
   89MOL0     C11947   7.825   2.869   4.335 -0.2519  0.5087  0.0798
   89MOL0     H11948   7.396   3.009   4.262  0.7110 -1.5897 -0.9906
   89MOL0     H11949   7.190   3.036   4.132  0.6141  2.4685  3.1720
   89MOL0     H11950   6.888   2.714   4.218  5.2873 -0.7658 -3.0636
   89MOL0     H11951   6.831   2.875   4.274  1.0196  0.3380  0.1460
   89MOL0     H11952   6.738   2.915   4.039 -0.7803  0.8226  2.1180
   89MOL0     H11953   6.799   2.751   3.998 -1.6414  0.9433 -0.7985
   89MOL0     H11954   6.576   2.723   4.055  2.6324  1.6114 -2.2462
   89MOL0     H11955   6.666   2.667   4.198 -0.2121 -0.0770  0.1413
   89MOL0     H11956   6.620   2.890   4.293  0.0945  0.2563  0.3867
   89MOL0     H11957   6.535   2.942   4.149 -0.0009 -1.3724 -2.1072
   89MOL0     H11958   6.468   2.706   4.325 -0.8967 -0.4105 -3.4590
   89MOL0     H11959   6.413   2.875   4.361  2.8980 -0.3017  2.4303
   89MOL0     H11960   6.308   2.728   4.103 -2.8868  2.3161 -2.5310
   89MOL0     H11961   6.220   2.725   4.252 -0.2238 -1.8403 -2.6261
   89MOL0     H11962   6.238   2.986   4.251  0.3006 -1.7958  0.6633
   89MOL0     H11963   6.294   2.971   4.091 -0.0307  1.6761  0.3984
   89MOL0     H11964   6.071   2.835   4.044 -2.1793  0.2049  0.6522
   89MOL0     H11965   6.041   2.999   4.083 -0.8220 -0.0066  1.3828
   89MOL0     H11966   6.063   2.973   4.415 -1.2422  0.5088 -0.0320
   89MOL0     H11967   5.907   2.788   4.615 -1.1960 -0.6440  1.3316
   89MOL0     H11968   5.858   2.955   4.619  1.8826  0.5704 -2.3264
   89MOL0     H11969   5.672   2.814   4.691 -0.6282  4.6805  0.1097
   89MOL0     H11970   5.653   2.757   4.522  1.5800  0.0061 -2.4888
   89MOL0     H11971   5.636   2.987   4.456  1.0101  0.3652  0.8324
   89MOL0     H11972   5.637   3.050   4.620 -4.0590  0.4132  0.0777
   89MOL0     H11973   5.396   3.031   4.549 -0.4981  0.2481  2.4209
   89MOL0     H11974   5.432   2.931   4.681  0.6223 -0.1672  0.2887
   89MOL0     H11975   5.179   2.959   4.599 -3.3494  0.6658 -0.0506
   89MOL0     H11976   4.967   2.975   4.673  0.2077 -0.1975 -0.2707
   89MOL0     H11977   4.847   2.937   4.549  0.4449 -1.4325 -2.0863
   89MOL0     H11978   4.872   2.820   4.675  1.2971 -1.4813 -0.8272
   89MOL0     H11979   4.797   2.363   4.430  0.9756  2.4159  0.9617
   89MOL0     H11980   4.551   2.273   4.442  2.3906  0.8772  2.4639
   89MOL0     H11981   4.247   2.426   4.141 -2.1440 -2.1439  0.2589
   89MOL0     H11982   4.148   2.354   4.250 -0.1166  0.7250  1.1426
   89MOL0     H11983   4.291   2.612   4.303  1.7203 -0.8872 -0.7714
   89MOL0     H11984   4.123   2.600   4.250 -1.5072 -1.0623  0.0489
   89MOL0     H11985   4.248   2.475   4.493  1.4370  1.1723 -1.1428
   89MOL0     H11986   4.071   2.489   4.461  0.3410  0.7112 -0.6549
   89MOL0     H11987   4.255   2.712   4.521  0.3587 -2.1699  0.6086
   89MOL0     H11988   4.088   2.752   4.492 -0.4876 -1.3061 -1.4547
   89MOL0     H11989   4.167   2.751   4.725 -1.0024  0.3969  1.9946
   89MOL0     H11990   4.173   2.566   4.712  1.5598 -1.3155 -3.0436
   89MOL0     H11991   3.940   2.743   4.669 -4.9748 -1.2952  0.4018
   89MOL0     H11992   3.931   2.561   4.631  2.4812 -1.6475  0.4245
   89MOL0     H11993   3.995   2.705   4.884 -0.0073  0.4478 -0.7523
   89MOL0     H11994   3.971   2.533   4.889 -4.2540  0.1530  3.2087
   89MOL0     H11995   3.740   2.545   4.826 -1.1009  0.4696  0.4803
   89MOL0     H11996   3.746   2.725   4.819  0.5735 -0.9061 -2.7136
   89MOL0     H11997   4.442   2.549   4.128  0.0193  0.4757 -0.3004
   89MOL0     H11998   4.660   2.656   4.150  1.7609 -0.9663 -1.7294
   89MOL0     H11999   5.094   2.592   4.296 -3.8655  0.5163  1.2074
   89MOL0     H12000   5.312   2.671   4.308 -1.2210 -1.2042 -1.3281
   89MOL0     H12001   7.060   2.651   4.267 -0.2197  0.3594 -2.1062
   89MOL0     H12002   7.292   2.633   4.399 -0.8385  0.6278  1.0303
   89MOL0     H12003   7.612   2.728   4.560 -1.5247  0.1241 -3.5759
   89MOL0     H12004   7.810   2.702   4.690 -1.8172 -1.1422 -0.6158
   89MOL0     H12005   8.176   2.914   4.503  0.1278  0.3273 -0.4175
   89MOL0     H12006   8.152   2.981   4.661 -4.0656  0.5614 -1.4559
   89MOL0     H12007   8.253   2.774   4.768 -3.7891 -3.0978 -1.9282
   89MOL0     H12008   8.374   2.856   4.663  0.3646 -0.4643  1.1823
   89MOL0     H12009   8.190   2.619   4.559 -0.5719 -1.3086  2.4940
   89MOL0     H12010   8.345   2.600   4.628  0.3115  1.5041  0.7738
   89MOL0     H12011   8.319   2.778   4.406  0.4492 -0.0249  1.0872
   89MOL0     H12012   8.355   2.607   4.387 -1.3342 -0.9676  1.9477
   89MOL0     H12013   8.738   2.739   4.448 -0.1710  1.2193 -1.1321
   89MOL0     H12014   8.014   2.938   4.377  1.2809 -0.0836  0.9219
   89MOL0     H12015   7.829   2.918   4.239  0.2787 -0.6446 -0.5075
   90MOL0     O12016   1.433   9.921   9.590  0.3031 -0.5413 -0.1692
   90MOL0     C12017   1.489  10.008   9.666  0.3919 -0.7540  0.1547
   90MOL0     O12018   1.421  10.111   9.735 -0.8588  0.2586  0.1929
   90MOL0     C12019   1.287  10.154   9.722 -0.1146 -0.2606  0.4486
   90MOL0     C12020   1.256  10.266   9.797 -0.3092  0.2599 -0.2372
   90MOL0     C12021   1.128  10.322   9.785 -0.2043  0.4251 -0.3223
   90MOL0     C12022   1.038  10.268   9.701 -0.2171  0.4888  0.2181
   90MOL0     O12023   0.910  10.320   9.708  0.1719 -0.1047  0.1480
   90MOL0     C12024   0.823  10.286   9.593 -0.0902  0.7184 -0.8005
   90MOL0     C12025   0.711  10.380   9.623  0.2397 -0.2709 -0.1516
   90MOL0     C12026   0.589  10.354   9.541  0.0927 -0.3957  0.1045
   90MOL0     C12027   0.487  10.466   9.570  0.5110  0.0296  0.3162
   90MOL0     C12028   0.377  10.426   9.658  0.9714  0.8790  0.0975
   90MOL0     C12029   0.259  10.528   9.667 -0.6634 -0.3329 -0.9077
   90MOL0     C12030   0.139  10.471   9.752 -0.5101 -0.5890 -0.6169
   90MOL0     C12031   0.041  10.581   9.808 -0.4620 -0.1018 -0.3977
   90MOL0     N12032  -0.102  10.532   9.816  0.3370  0.2219 -0.1439
   90MOL0     C12033  -0.142  10.432   9.900  0.1065  0.3425 -0.0594
   90MOL0     C12034  -0.277  10.425   9.896 -0.6011 -0.0591 -0.3947
   90MOL0     C12035  -0.358  10.341   9.988 -0.9226 -0.1415  0.5448
   90MOL0     C12036  -0.451  10.261   9.888  0.0417  1.0694 -1.0553
   90MOL0     C12037  -0.379  10.177   9.780  0.6398 -0.0582 -0.3531
   90MOL0     C12038  -0.298  10.061   9.850 -0.1547  0.2864  0.4588
   90MOL0     O12039  -0.362   9.992   9.950  0.2652 -0.8460  0.6080
   90MOL0     C12040  -0.468   9.910   9.917 -0.2240 -0.0715 -0.2787
   90MOL0     C12041  -0.549   9.900  10.031 -0.0737 -0.2141  0.0056
   90MOL0     C12042  -0.672   9.836  10.032  0.0483  0.6185 -0.6530
   90MOL0     C12043  -0.764   9.838  10.155  0.5923  0.4836 -0.3730
   90MOL0     C12044  -0.717   9.777   9.902 -1.1761 -0.3842 -0.1790
   90MOL0     C12045  -0.840   9.698   9.882 -0.1619  0.4120  0.4024
   90MOL0     O12046  -0.883   9.630   9.991  0.3245  0.7247 -0.4263
   90MOL0     C12047  -1.005   9.563   9.984 -0.5701  0.4656  0.0012
   90MOL0     C12048  -1.117   9.617  10.046  0.0372 -0.4660  0.2905
   90MOL0     C12049  -1.242   9.556  10.043 -0.5588  0.5364 -0.0770
   90MOL0     C12050  -1.252   9.430   9.986 -0.5788 -0.1827  0.3816
   90MOL0     O12051  -1.368   9.358   9.959 -0.2020  0.2956 -0.2053
   90MOL0     C12052  -1.494   9.425   9.995  0.7641  0.2590 -0.0630
   90MOL0     C12053  -1.620   9.369   9.927  0.1322  0.4315  0.2576
   90MOL0     C12054  -1.615   9.214   9.936 -0.7932  0.2486 -0.4470
   90MOL0     C12055  -1.747   9.150   9.903 -1.1559 -0.2332  0.6511
   90MOL0     C12056  -1.730   8.991   9.905 -0.3882  0.4419 -0.4718
   90MOL0     C12057  -1.847   8.916   9.831  0.8981 -0.7587 -0.8540
   90MOL0     C12058  -1.815   8.772   9.825  1.0534 -0.3751  0.1765
   90MOL0     C12059  -1.945   8.704   9.774 -0.0330  0.6403  0.3040
   90MOL0    Cl12060  -1.924   8.520   9.767 -0.0844 -0.2179 -0.4108
   90MOL0     C12061  -1.132   9.373   9.931  0.2610  0.1651  1.3476
   90MOL0     C12062  -1.014   9.441   9.932 -0.3561  0.9439  0.5743
   90MOL0     O12063  -0.902   9.702   9.778 -0.6132 -0.6921 -0.3899
   90MOL0     C12064  -0.623   9.772   9.798 -0.1137 -0.1424  0.5698
   90MOL0     C12065  -0.498   9.840   9.800  0.6377 -1.0746  1.0024
   90MOL0     N12066  -0.317  10.521   9.799 -0.1252 -0.0232 -0.5802
   90MOL0     N12067  -0.206  10.586   9.763  0.2008  0.2072 -0.0861
   90MOL0     C12068   1.069  10.155   9.629 -0.0948 -0.4390 -0.2424
   90MOL0     C12069   1.196  10.102   9.633  1.1860  0.7990  0.0689
   90MOL0     C12070   1.640  10.012   9.669  0.0694  0.0556  1.1408
   90MOL0     C12071   1.717  10.121   9.730  0.3001  1.3498  0.0951
   90MOL0     C12072   1.854  10.121   9.717 -0.2433 -0.4856  1.0185
   90MOL0     C12073   1.929  10.020   9.658  0.7784 -0.3956  0.4959
   90MOL0     O12074   2.060  10.042   9.656  0.4039  0.0188  0.1057
   90MOL0     C12075   2.146   9.948   9.601 -0.6168  0.2864  0.8660
   90MOL0     C12076   2.186   9.979   9.455 -0.6549 -0.3055 -0.3293
   90MOL0     C12077   2.207  10.130   9.449 -0.0200  0.8222  0.7356
   90MOL0     C12078   2.252  10.175   9.307  0.3125  0.3562 -1.0417
   90MOL0     C12079   2.395  10.147   9.269 -0.2655  0.6232  0.3214
   90MOL0     C12080   2.516  10.133   9.244  0.4150  0.2303  0.5258
   90MOL0     C12081   1.855   9.915   9.598 -0.0016 -1.5110 -0.2060
   90MOL0     C12082   1.717   9.918   9.600 -0.3183 -0.3527  0.7208
   90MOL0     H12083   1.332  10.301   9.867  0.3003  0.9639 -1.2281
   90MOL0     H12084   1.093  10.411   9.836 -1.2989 -0.4852  0.5749
   90MOL0     H12085   0.866  10.306   9.494 -2.5388  3.5885 -1.4639
   90MOL0     H12086   0.783  10.185   9.606  0.1254  0.3632 -2.5967
   90MOL0     H12087   0.665  10.363   9.720 -2.1955  0.8725 -1.0331
   90MOL0     H12088   0.739  10.486   9.613  0.1396 -0.3287 -1.2055
   90MOL0     H12089   0.612  10.353   9.434 -2.2520  1.6524 -0.5256
   90MOL0     H12090   0.548  10.255   9.563  2.8577 -1.3218  1.7252
   90MOL0     H12091   0.536  10.557   9.605 -0.2984 -0.1297  1.9349
   90MOL0     H12092   0.456  10.501   9.471  0.2876 -0.4196  0.2257
   90MOL0     H12093   0.331  10.332   9.626  0.4003  1.4277 -0.7381
   90MOL0     H12094   0.418  10.410   9.759 -2.5095  1.4826  1.7591
   90MOL0     H12095   0.305  10.621   9.702  1.2012 -0.3893 -2.9699
   90MOL0     H12096   0.224  10.540   9.564 -1.9100  0.5250 -0.4041
   90MOL0     H12097   0.086  10.401   9.687  0.9031 -1.2170 -1.1324
   90MOL0     H12098   0.174  10.407   9.834  0.4917 -0.4363 -0.9128
   90MOL0     H12099   0.051  10.668   9.743 -0.8414  1.0562  1.0418
   90MOL0     H12100   0.074  10.601   9.910  0.4462 -0.0805 -0.6913
   90MOL0     H12101  -0.079  10.375   9.968  2.3093  0.5589 -1.8071
   90MOL0     H12102  -0.292  10.273  10.042  1.5859 -0.2207 -2.3663
   90MOL0     H12103  -0.427  10.394  10.054 -0.9489 -0.0462  0.4424
   90MOL0     H12104  -0.504  10.340   9.834 -0.9514  0.6722 -0.6973
   90MOL0     H12105  -0.513  10.188   9.941  3.7563 -1.1045  0.6679
   90MOL0     H12106  -0.305  10.234   9.722 -1.2003  2.8963 -0.0643
   90MOL0     H12107  -0.447  10.146   9.700 -0.9739 -1.8079  1.5757
   90MOL0     H12108  -0.217  10.114   9.902  0.5725 -0.8482  0.5291
   90MOL0     H12109  -0.256   9.993   9.776 -1.7234 -0.6231  0.3791
   90MOL0     H12110  -0.514   9.949  10.122 -1.9944  3.1939 -0.9045
   90MOL0     H12111  -0.750   9.741  10.203  0.6220  0.1359 -1.0720
   90MOL0     H12112  -0.726   9.909  10.229  0.2730 -1.0142  1.2742
   90MOL0     H12113  -0.868   9.849  10.124  0.8339 -1.2504 -1.9833
   90MOL0     H12114  -1.122   9.718  10.087 -1.6621 -1.4784  2.8152
   90MOL0     H12115  -1.320   9.591  10.111  0.4631  1.0430  0.8715
   90MOL0     H12116  -1.514   9.410  10.102 -3.3530 -1.7739 -0.8795
   90MOL0     H12117  -1.483   9.532   9.974  1.6762  0.1809 -0.0156
   90MOL0     H12118  -1.709   9.411   9.976 -1.8267 -0.8156 -2.0206
   90MOL0     H12119  -1.618   9.397   9.822  1.2364  0.8463  0.3799
   90MOL0     H12120  -1.585   9.184  10.037 -1.6722  0.5734 -0.0733
   90MOL0     H12121  -1.538   9.183   9.865 -1.1288 -2.0402  0.0911
   90MOL0     H12122  -1.818   9.185   9.978  0.5111 -2.0483  3.2131
   90MOL0     H12123  -1.781   9.182   9.804 -2.1745 -1.5190  0.5485
   90MOL0     H12124  -1.713   8.951  10.006  0.8128 -2.0104 -1.5458
   90MOL0     H12125  -1.644   8.967   9.841 -1.5424 -0.3728 -1.7717
   90MOL0     H12126  -1.945   8.943   9.869  1.1197 -0.0092 -0.8014
   90MOL0     H12127  -1.845   8.940   9.725 -0.1902 -3.4794 -1.5714
   90MOL0     H12128  -1.784   8.722   9.918  0.8791 -1.2289 -0.2178
   90MOL0     H12129  -1.734   8.767   9.751  0.5175  4.1265 -1.0348
   90MOL0     H12130  -1.974   8.728   9.672  0.7894  0.1535 -0.0527
   90MOL0     H12131  -2.020   8.729   9.850  0.0467 -0.3457  0.7181
   90MOL0     H12132  -1.148   9.272   9.895  0.3592  1.1119 -1.7144
   90MOL0     H12133  -0.929   9.386   9.893 -2.9519 -1.4032 -2.2613
   90MOL0     H12134  -0.643   9.700   9.718  0.6753 -0.6827  0.8466
   90MOL0     H12135  -0.441   9.849   9.708  0.2520 -1.0394  0.7637
   90MOL0     H12136   0.998  10.103   9.565  3.0767 -1.1913 -3.5156
   90MOL0     H12137   1.228  10.037   9.552  2.4254  2.3607 -0.7612
   90MOL0     H12138   1.659  10.201   9.774 -2.3653  0.9879 -2.3803
   90MOL0     H12139   1.899  10.204   9.769 -0.5079  0.0856  0.3511
   90MOL0     H12140   2.240   9.965   9.654  1.7144 -2.7352 -1.9887
   90MOL0     H12141   2.113   9.846   9.624  0.8218 -0.2317  0.7209
   90MOL0     H12142   2.104   9.956   9.386 -1.9215 -0.5702  1.1981
   90MOL0     H12143   2.264   9.912   9.417  0.0165 -1.9894  3.5961
   90MOL0     H12144   2.281  10.153   9.526  0.4279 -0.5140  0.7419
   90MOL0     H12145   2.117  10.185   9.477 -1.2655  0.1583 -1.6365
   90MOL0     H12146   2.245  10.284   9.309 -0.3776  0.3161 -1.1013
   90MOL0     H12147   2.175  10.130   9.244  0.8787  1.3546 -2.4911
   90MOL0     H12148   2.622  10.138   9.227 -0.0549  0.4717 -2.9012
   90MOL0     H12149   1.898   9.847   9.525  0.7496  1.0653 -2.2725
   90MOL0     H12150   1.663   9.850   9.535  0.6362 -1.1239  0.7022
   91MOL0     O12151  10.520   5.961   2.199  0.6242  0.2007 -0.4098
   91MOL0     C12152  10.564   6.038   2.115  0.0156 -0.0349  0.6649
   91MOL0     O12153  10.492   6.095   2.018 -0.5343 -0.2895 -0.3026
   91MOL0     C12154  10.354   6.077   2.016 -0.2486 -0.2638 -1.0308
   91MOL0     C12155  10.268   6.154   2.097  0.1644  0.8969  0.2024
   91MOL0     C12156  10.131   6.121   2.106  0.1526 -0.2416 -0.0785
   91MOL0     C12157  10.083   6.021   2.029  0.4385  0.0855 -0.8364
   91MOL0     O12158   9.947   5.990   2.043  0.6704  0.2198  0.5509
   91MOL0     C12159   9.891   5.889   1.960 -0.4253 -0.6793 -0.1271
   91MOL0     C12160   9.744   5.874   1.993  0.1976 -0.0217  0.8479
   91MOL0     C12161   9.667   6.002   1.947  0.1270  0.1363  0.2418
   91MOL0     C12162   9.529   6.004   2.004 -0.5943  0.0152  0.1587
   91MOL0     C12163   9.435   6.105   1.938 -0.3328 -0.4933  0.1198
   91MOL0     C12164   9.285   6.080   1.974 -0.2536  0.5334  0.6946
   91MOL0     C12165   9.190   6.198   1.944  0.7022 -0.2678 -0.6400
   91MOL0     C12166   9.052   6.180   2.001  0.0116 -0.2850 -0.4018
   91MOL0     N12167   8.979   6.312   1.994 -0.4302  0.4584 -0.3140
   91MOL0     C12168   8.924   6.375   2.102 -0.1233  0.2283  0.5935
   91MOL0     C12169   8.857   6.481   2.048  0.0910 -0.2865  0.1747
   91MOL0     C12170   8.793   6.589   2.125  0.5202  0.2724 -0.0483
   91MOL0     C12171   8.643   6.572   2.143  0.4166 -0.7656  0.3636
   91MOL0     C12172   8.573   6.569   2.003 -0.4094  0.1195  0.8928
   91MOL0     C12173   8.422   6.581   2.028 -0.2256  1.2810 -0.2944
   91MOL0     O12174   8.369   6.586   1.896 -0.3549  0.0782 -0.7823
   91MOL0     C12175   8.238   6.580   1.885  0.3915 -0.5205  0.2309
   91MOL0     C12176   8.192   6.593   1.756 -0.4402 -0.2675 -0.2956
   91MOL0     C12177   8.053   6.590   1.718 -0.2838 -0.2012  0.6373
   91MOL0     C12178   8.021   6.561   1.567 -0.0579 -0.1713 -0.7407
   91MOL0     C12179   7.968   6.576   1.825 -0.5886 -0.5268 -0.4801
   91MOL0     C12180   7.824   6.557   1.809  0.3726 -0.9156 -0.8331
   91MOL0     O12181   7.749   6.581   1.919  0.5567  0.0079 -0.3991
   91MOL0     C12182   7.611   6.563   1.907  0.3351 -0.9141 -0.9556
   91MOL0     C12183   7.525   6.654   1.847  0.2128 -0.8742 -0.0438
   91MOL0     C12184   7.393   6.628   1.811  0.7592  0.8054 -0.5368
   91MOL0     C12185   7.336   6.500   1.853 -0.1572  0.0631 -0.3744
   91MOL0     O12186   7.207   6.447   1.829  0.2877 -0.2936  0.3724
   91MOL0     C12187   7.112   6.521   1.750  0.7015 -0.3695 -0.5172
   91MOL0     C12188   7.001   6.430   1.707  0.3622  0.4251  0.5977
   91MOL0     C12189   6.871   6.458   1.776  0.2702 -0.5848  0.0415
   91MOL0     C12190   6.787   6.573   1.717 -0.4420 -0.1477 -0.0724
   91MOL0     C12191   6.647   6.579   1.780 -0.1665  1.0909 -0.7026
   91MOL0     C12192   6.586   6.714   1.757 -0.0385  0.8974  1.1710
   91MOL0     C12193   6.461   6.726   1.843  0.4689  0.4068 -0.0169
   91MOL0     C12194   6.346   6.629   1.828  0.5627 -0.2774 -0.6127
   91MOL0    Cl12195   6.203   6.702   1.923 -0.2157  0.3281 -0.0070
   91MOL0     C12196   7.421   6.420   1.935  0.7113  0.0797 -0.0710
   91MOL0     C12197   7.551   6.450   1.958 -0.3956 -0.3647 -0.1053
   91MOL0     O12198   7.772   6.524   1.705 -0.7740  0.1910  0.1631
   91MOL0     C12199   8.009   6.579   1.959 -0.5724  0.5091 -0.6156
   91MOL0     C12200   8.141   6.590   1.992  0.1489 -0.1557  1.1509
   91MOL0     N12201   8.868   6.476   1.910  0.7176  0.1715  0.0562
   91MOL0     N12202   8.943   6.372   1.884 -0.3164 -0.1518  0.7000
   91MOL0     C12203  10.164   5.959   1.932  0.2227 -0.1030 -0.0116
   91MOL0     C12204  10.299   5.986   1.926 -0.1360  0.6703 -0.1269
   91MOL0     C12205  10.709   6.053   2.111 -0.2767 -0.0952 -0.0717
   91MOL0     C12206  10.785   5.978   2.209 -0.4945 -0.1372  0.1914
   91MOL0     C12207  10.918   5.996   2.224 -0.1391  1.0109  0.0048
   91MOL0     C12208  10.983   6.086   2.143 -0.1162  0.4057  0.3486
   91MOL0     O12209  11.112   6.122   2.157  0.0083 -0.5046 -0.1172
   91MOL0     C12210  11.211   6.024   2.215 -0.7067 -0.1589 -0.5641
   91MOL0     C12211  11.225   6.038   2.365  0.3803 -0.2111  0.3038
   91MOL0     C12212  11.371   5.990   2.400  0.3529  0.5358  0.4804
   91MOL0     C12213  11.422   5.985   2.544  0.4159 -0.1013 -0.1270
   91MOL0     C12214  11.547   5.905   2.554  0.2747 -1.9394 -0.0742
   91MOL0     C12215  11.648   5.850   2.575 -0.4392  0.0104 -0.3011
   91MOL0     C12216  10.911   6.145   2.039 -0.1379 -0.3105  0.5889
   91MOL0     C12217  10.777   6.131   2.019 -0.2520 -0.0299  0.2678
   91MOL0     H12218  10.299   6.242   2.153 -1.2428  2.4919 -1.4096
   91MOL0     H12219  10.063   6.183   2.165 -0.7768  0.4940 -1.8584
   91MOL0     H12220   9.905   5.908   1.853 -0.3251  3.0657  0.4105
   91MOL0     H12221   9.941   5.801   2.000 -0.0393  0.4997  2.1616
   91MOL0     H12222   9.699   5.791   1.937 -0.0508  2.3359 -2.7612
   91MOL0     H12223   9.745   5.862   2.102  3.2745  2.1896  1.2098
   91MOL0     H12224   9.718   6.094   1.978 -1.5690  0.9500  0.7371
   91MOL0     H12225   9.664   6.000   1.838  0.4584 -0.9960  0.2404
   91MOL0     H12226   9.492   5.903   1.984  3.8849 -1.5673 -1.3513
   91MOL0     H12227   9.531   6.036   2.108  0.0691  0.1556  0.1045
   91MOL0     H12228   9.455   6.208   1.969 -0.4014 -1.1731  2.6660
   91MOL0     H12229   9.463   6.107   1.832  0.6279 -0.9138  0.3485
   91MOL0     H12230   9.249   5.992   1.921 -1.9072  1.2189  0.6242
   91MOL0     H12231   9.285   6.071   2.083  0.4946  1.2539  0.7663
   91MOL0     H12232   9.224   6.293   1.987 -2.4657 -0.7899  3.8220
   91MOL0     H12233   9.185   6.213   1.836 -0.9533  0.4707 -0.5001
   91MOL0     H12234   9.056   6.144   2.105 -1.8093  0.2222 -0.1154
   91MOL0     H12235   8.993   6.109   1.942 -0.0374 -1.2024  0.7082
   91MOL0     H12236   8.933   6.338   2.204 -0.4926  0.3714  0.6814
   91MOL0     H12237   8.847   6.604   2.219  1.3661  3.0539 -0.8999
   91MOL0     H12238   8.801   6.682   2.069 -2.9290  1.8469  1.7483
   91MOL0     H12239   8.602   6.644   2.215 -2.3455 -1.3097 -0.5698
   91MOL0     H12240   8.616   6.476   2.189 -3.3802 -0.1181 -0.2667
   91MOL0     H12241   8.592   6.475   1.951  0.2976  1.3980 -1.3267
   91MOL0     H12242   8.612   6.650   1.940 -2.0210  0.9984  0.9543
   91MOL0     H12243   8.412   6.676   2.081  1.7040  0.6778  1.2908
   91MOL0     H12244   8.385   6.499   2.090 -0.5248  0.8582 -1.0191
   91MOL0     H12245   8.268   6.581   1.679  0.1232 -0.6060  0.3049
   91MOL0     H12246   7.973   6.463   1.561 -1.5821  0.4461  0.5884
   91MOL0     H12247   7.957   6.639   1.526 -1.1774 -0.6475  0.0491
   91MOL0     H12248   8.114   6.563   1.509  0.0527 -2.3489 -0.7324
   91MOL0     H12249   7.567   6.751   1.821  0.4273 -0.8922  0.2295
   91MOL0     H12250   7.329   6.701   1.763 -1.7748 -0.4924  0.6696
   91MOL0     H12251   7.064   6.603   1.804 -2.3312 -0.1363 -3.1986
   91MOL0     H12252   7.166   6.569   1.668  1.1134 -0.8395 -0.5248
   91MOL0     H12253   6.986   6.440   1.600  1.2328  1.1376  0.5271
   91MOL0     H12254   7.036   6.327   1.716  0.5012  0.1821 -2.0677
   91MOL0     H12255   6.902   6.476   1.879 -2.4098  1.7134  0.5848
   91MOL0     H12256   6.810   6.367   1.772  0.0562 -0.4084 -1.2757
   91MOL0     H12257   6.834   6.670   1.736 -0.2689 -0.4295  0.9645
   91MOL0     H12258   6.783   6.570   1.608  1.6516 -1.8453 -0.1590
   91MOL0     H12259   6.662   6.565   1.887  0.9910 -2.8164 -1.2113
   91MOL0     H12260   6.582   6.505   1.733  1.7812 -0.6219 -0.8331
   91MOL0     H12261   6.649   6.796   1.792 -0.0815  1.6658 -0.4390
   91MOL0     H12262   6.570   6.737   1.651 -0.8335 -0.5481  0.9483
   91MOL0     H12263   6.410   6.821   1.824 -2.0007 -0.8675 -0.3220
   91MOL0     H12264   6.493   6.715   1.947 -0.9353 -0.7156  0.3477
   91MOL0     H12265   6.378   6.532   1.867 -1.2864 -0.2347  1.1778
   91MOL0     H12266   6.320   6.616   1.722  1.1092 -0.1166 -0.7699
   91MOL0     H12267   7.388   6.323   1.970 -0.1635  0.0208 -1.0013
   91MOL0     H12268   7.616   6.380   2.010  0.2565 -0.3980 -0.9398
   91MOL0     H12269   7.940   6.570   2.042  2.0172  1.5866  1.8135
   91MOL0     H12270   8.164   6.596   2.098 -3.6727  0.7015  2.0606
   91MOL0     H12271  10.133   5.886   1.858  1.3784 -1.4316  0.7826
   91MOL0     H12272  10.375   5.938   1.866  0.8407  0.5312  1.1766
   91MOL0     H12273  10.736   5.918   2.285  0.4206  1.1668  1.8670
   91MOL0     H12274  10.965   5.929   2.295  0.0829  1.3668  0.1954
   91MOL0     H12275  11.183   5.921   2.189 -1.3256 -0.3117  0.6122
   91MOL0     H12276  11.310   6.039   2.171 -0.1619 -1.7963  0.0342
   91MOL0     H12277  11.149   5.980   2.419  0.4440  0.8229  1.5327
   91MOL0     H12278  11.211   6.144   2.388  0.7875 -0.7506  3.4603
   91MOL0     H12279  11.442   6.059   2.354  0.1058  1.0090  0.8089
   91MOL0     H12280  11.386   5.891   2.356  2.5907  0.3864  1.4452
   91MOL0     H12281  11.352   5.933   2.610  0.4819  0.5463  0.4730
   91MOL0     H12282  11.448   6.077   2.598  0.9475 -1.3348  1.8017
   91MOL0     H12283  11.739   5.797   2.596  2.8946  3.0400 -5.0325
   91MOL0     H12284  10.962   6.220   1.979 -1.6455 -1.4295 -2.3058
   91MOL0     H12285  10.732   6.169   1.928  0.7604 -1.4032 -0.8622
   92MOL0     O12286   9.691   3.309   9.931  0.1450  0.1557  0.2089
   92MOL0     C12287   9.720   3.209   9.867  0.6915 -1.2312 -0.1779
   92MOL0     O12288   9.627   3.147   9.789 -0.7532  1.0755 -0.5474
   92MOL0     C12289   9.505   3.208   9.776  0.3892 -0.1007  0.8189
   92MOL0     C12290   9.408   3.186   9.874  0.5258  0.0118  0.2939
   92MOL0     C12291   9.283   3.236   9.862 -0.1713  0.2493  0.3584
   92MOL0     C12292   9.244   3.312   9.743 -0.2917  0.8798 -0.1155
   92MOL0     O12293   9.121   3.360   9.715 -0.6667 -0.2317 -0.5628
   92MOL0     C12294   9.026   3.354   9.821 -0.3439  0.3074  0.6407
   92MOL0     C12295   8.905   3.434   9.774  0.3429 -0.2707  0.0591
   92MOL0     C12296   8.831   3.371   9.647 -0.8975 -0.2068  0.0272
   92MOL0     C12297   8.728   3.472   9.585 -0.4293 -0.1396 -0.0270
   92MOL0     C12298   8.635   3.421   9.479 -0.4743  0.2172 -0.2270
   92MOL0     C12299   8.704   3.352   9.358 -0.0436  0.3199  0.7230
   92MOL0     C12300   8.602   3.317   9.263  0.5002  0.3254  0.9339
   92MOL0     C12301   8.665   3.228   9.154  0.2900  0.7672  0.4430
   92MOL0     N12302   8.755   3.304   9.066  0.1656  0.5553  0.3921
   92MOL0     C12303   8.720   3.392   8.972 -0.8103  0.6606 -0.5877
   92MOL0     C12304   8.831   3.435   8.911 -0.0572 -0.0597 -0.5144
   92MOL0     C12305   8.836   3.525   8.795 -0.2471  0.4219 -0.0928
   92MOL0     C12306   8.744   3.467   8.678  0.1585 -0.2188  0.5292
   92MOL0     C12307   8.776   3.533   8.545  0.0307  0.1105  0.9631
   92MOL0     C12308   8.703   3.453   8.440  0.0281 -0.1884  0.1416
   92MOL0     O12309   8.567   3.425   8.482 -0.4843 -0.3713  0.2506
   92MOL0     C12310   8.462   3.471   8.408  0.3913 -0.2392 -0.3447
   92MOL0     C12311   8.470   3.475   8.271  0.0052 -0.1908  0.0242
   92MOL0     C12312   8.368   3.520   8.182  0.4316 -0.5324 -0.6639
   92MOL0     C12313   8.401   3.530   8.035 -0.4006 -0.1772 -0.5713
   92MOL0     C12314   8.254   3.573   8.249  0.0876 -0.3683  0.0375
   92MOL0     C12315   8.138   3.624   8.177 -0.1765  0.6064 -0.0211
   92MOL0     O12316   8.049   3.698   8.245 -0.2885 -0.2485 -0.7515
   92MOL0     C12317   7.950   3.763   8.173  1.0983 -0.6646  0.0031
   92MOL0     C12318   7.963   3.896   8.131  0.1145 -0.2346 -0.1212
   92MOL0     C12319   7.878   3.964   8.044  0.0184  0.0478 -0.6953
   92MOL0     C12320   7.765   3.899   8.005  0.9794  0.0285 -0.0907
   92MOL0     O12321   7.677   3.960   7.917 -0.7407 -0.1917 -0.2320
   92MOL0     C12322   7.544   3.964   7.951  0.8020 -0.0330 -0.5670
   92MOL0     C12323   7.464   4.066   7.858  0.8388 -0.3547 -0.5284
   92MOL0     C12324   7.309   4.053   7.872 -0.2243  0.5653  0.1870
   92MOL0     C12325   7.241   3.924   7.798  1.2201  0.2390 -0.5949
   92MOL0     C12326   7.105   3.895   7.865  0.3026  0.3425  0.2877
   92MOL0     C12327   7.024   3.772   7.809 -0.7585  0.9481  0.3871
   92MOL0     C12328   6.882   3.760   7.880 -0.3285  0.2186 -0.1543
   92MOL0     C12329   6.813   3.630   7.841 -0.0366 -0.4448 -0.4420
   92MOL0    Cl12330   6.896   3.482   7.888 -0.4705  0.0296 -0.2487
   92MOL0     C12331   7.737   3.767   8.055  0.4996  0.1626  0.7527
   92MOL0     C12332   7.826   3.701   8.132  0.6324  0.4773  1.1171
   92MOL0     O12333   8.127   3.584   8.061  0.5442 -0.2293  0.4368
   92MOL0     C12334   8.240   3.567   8.391 -0.2834  0.1596 -0.5331
   92MOL0     C12335   8.341   3.512   8.467  0.0557  0.1627  0.3792
   92MOL0     N12336   8.940   3.373   8.971  0.3823 -0.4602 -0.9182
   92MOL0     N12337   8.894   3.295   9.062 -0.3387  0.7169  0.3663
   92MOL0     C12338   9.340   3.337   9.652 -0.5550 -0.1621 -0.5522
   92MOL0     C12339   9.469   3.277   9.658 -0.7498 -0.6923 -0.4329
   92MOL0     C12340   9.856   3.163   9.871 -0.4844 -0.5947 -0.6223
   92MOL0     C12341   9.882   3.044   9.815  0.5870  0.6776  1.1470
   92MOL0     C12342  10.010   2.984   9.827 -0.5574  0.2799  0.0162
   92MOL0     C12343  10.115   3.047   9.904  0.1191  0.6445 -0.4608
   92MOL0     O12344  10.237   2.992   9.931  0.5202  0.2757 -0.8956
   92MOL0     C12345  10.266   2.876   9.846 -0.4489 -0.3623 -0.0016
   92MOL0     C12346  10.415   2.844   9.880 -0.2451  0.4485  0.2434
   92MOL0     C12347  10.419   2.790  10.023  0.0823 -0.5628  1.1567
   92MOL0     C12348  10.547   2.709  10.073 -0.3714  0.2194 -0.8051
   92MOL0     C12349  10.673   2.774  10.050 -0.9085  0.7107 -0.4014
   92MOL0     C12350  10.783   2.827  10.034 -0.0237  0.8510  0.3479
   92MOL0     C12351  10.080   3.165   9.974  0.0738 -0.6603 -0.2463
   92MOL0     C12352   9.955   3.224   9.953  0.1968  1.0795  0.4188
   92MOL0     H12353   9.445   3.143   9.967  0.1946  0.2669  0.5460
   92MOL0     H12354   9.206   3.216   9.935 -0.4798  0.4206  0.0807
   92MOL0     H12355   9.004   3.249   9.844  1.2309 -0.9983 -2.9508
   92MOL0     H12356   9.065   3.408   9.907 -2.4507  0.5689  1.4791
   92MOL0     H12357   8.830   3.432   9.854  2.6310  1.1244  2.3639
   92MOL0     H12358   8.925   3.537   9.745 -0.4942 -0.8610 -2.9733
   92MOL0     H12359   8.908   3.355   9.570 -2.0453  3.8834 -2.2563
   92MOL0     H12360   8.773   3.281   9.668 -0.4041 -0.1038  2.0042
   92MOL0     H12361   8.676   3.518   9.669  0.1915  1.3978 -0.4408
   92MOL0     H12362   8.786   3.554   9.541 -0.3895 -0.1371  0.0303
   92MOL0     H12363   8.569   3.344   9.521  2.2204 -0.9816  2.1824
   92MOL0     H12364   8.579   3.508   9.445  0.5940  0.3310 -1.7878
   92MOL0     H12365   8.787   3.416   9.326  1.2518 -1.5125  0.2365
   92MOL0     H12366   8.752   3.260   9.392  0.8777  0.9161  1.1065
   92MOL0     H12367   8.524   3.257   9.311 -0.9935 -1.5585 -3.3417
   92MOL0     H12368   8.555   3.407   9.221 -0.0436 -1.0392 -1.5874
   92MOL0     H12369   8.580   3.186   9.099  0.5067  0.8873  0.0114
   92MOL0     H12370   8.726   3.145   9.192  1.7837  1.0528 -1.1622
   92MOL0     H12371   8.617   3.416   8.949 -1.1621 -1.3804 -1.3673
   92MOL0     H12372   8.813   3.627   8.828 -0.5956 -0.0110  1.0657
   92MOL0     H12373   8.941   3.519   8.768  0.2108 -1.5231  1.8601
   92MOL0     H12374   8.641   3.465   8.713  0.0486  1.7174  0.4367
   92MOL0     H12375   8.769   3.363   8.656  1.8862  0.4496 -0.9987
   92MOL0     H12376   8.880   3.536   8.513 -0.4176 -3.7232 -1.5400
   92MOL0     H12377   8.753   3.640   8.546 -1.1934 -0.1345  2.2748
   92MOL0     H12378   8.752   3.357   8.421  0.3387  0.0017 -0.0253
   92MOL0     H12379   8.706   3.507   8.345  0.3626  1.0438  0.8310
   92MOL0     H12380   8.553   3.438   8.212 -0.4975 -1.4285  0.0698
   92MOL0     H12381   8.350   3.458   7.971 -0.9941 -0.0670 -0.2303
   92MOL0     H12382   8.383   3.636   8.016 -1.6802  0.1958  2.2384
   92MOL0     H12383   8.505   3.501   8.015 -1.4635 -3.1491 -2.4554
   92MOL0     H12384   8.056   3.946   8.157 -0.5609 -0.4140  3.1397
   92MOL0     H12385   7.882   4.066   8.008 -1.5693  0.8347  1.1650
   92MOL0     H12386   7.497   3.864   7.948 -2.5456  1.4105 -1.3758
   92MOL0     H12387   7.524   4.004   8.051  0.4639  3.4070 -1.9023
   92MOL0     H12388   7.500   4.162   7.895 -0.6116 -0.7958  2.3212
   92MOL0     H12389   7.499   4.045   7.756  2.8767 -2.4490  0.5047
   92MOL0     H12390   7.258   4.144   7.840 -0.5771  1.4161  2.9258
   92MOL0     H12391   7.297   4.049   7.981 -0.2605 -0.3853  0.1652
   92MOL0     H12392   7.229   3.939   7.690 -1.9834 -0.0953 -0.3648
   92MOL0     H12393   7.299   3.831   7.801  0.5912 -0.1376  0.0083
   92MOL0     H12394   7.031   3.973   7.844 -0.2810  0.1956  1.7005
   92MOL0     H12395   7.119   3.896   7.973 -1.5713 -0.5604  0.5821
   92MOL0     H12396   7.022   3.784   7.700  0.4855  2.0681  0.4675
   92MOL0     H12397   7.084   3.684   7.829 -0.6058  1.3932  2.0564
   92MOL0     H12398   6.820   3.846   7.853 -1.1071 -0.2530  0.0765
   92MOL0     H12399   6.889   3.766   7.989 -3.1643  0.4089  0.0983
   92MOL0     H12400   6.805   3.628   7.732 -3.1179  0.6125 -0.3266
   92MOL0     H12401   6.707   3.634   7.868 -0.5190 -0.5174 -2.1596
   92MOL0     H12402   7.648   3.714   8.022  0.5262 -0.2975  1.4023
   92MOL0     H12403   7.809   3.599   8.165 -2.1993  0.9275  1.2779
   92MOL0     H12404   8.152   3.609   8.439  0.6619  1.2100  0.3390
   92MOL0     H12405   8.341   3.510   8.576 -2.7670  3.3498  0.6100
   92MOL0     H12406   9.326   3.408   9.571  2.0952  2.4576  1.1016
   92MOL0     H12407   9.533   3.315   9.579 -0.0002  1.0568  0.9510
   92MOL0     H12408   9.801   3.010   9.751 -2.3651  3.8929  2.8422
   92MOL0     H12409  10.028   2.895   9.768 -0.0457  0.2954  0.1397
   92MOL0     H12410  10.205   2.790   9.874 -1.0196  0.6665  2.1089
   92MOL0     H12411  10.250   2.903   9.741 -3.2361  2.8749  1.1170
   92MOL0     H12412  10.486   2.927   9.885  1.8606 -1.2460 -0.0180
   92MOL0     H12413  10.449   2.769   9.808 -3.5888 -1.9830  0.9708
   92MOL0     H12414  10.336   2.722  10.046  0.4385 -0.8107  1.7176
   92MOL0     H12415  10.413   2.879  10.086  0.4578  0.6539 -0.4602
   92MOL0     H12416  10.549   2.605  10.037  0.1896 -1.0229  2.5031
   92MOL0     H12417  10.534   2.712  10.181 -3.3006 -0.2593 -1.0525
   92MOL0     H12418  10.876   2.859   9.992 -0.0110  1.5964  0.9171
   92MOL0     H12419  10.145   3.226  10.036 -0.8217 -0.1512  0.2131
   92MOL0     H12420   9.925   3.317   9.999 -0.9441  0.7185  0.4197
   93MOL0     O12421   9.460   0.645   9.523  0.4233 -0.1429  0.2530
   93MOL0     C12422   9.509   0.566   9.443 -0.9144 -0.2063  0.4328
   93MOL0     O12423   9.444   0.486   9.350  0.2260  0.4701 -0.2813
   93MOL0     C12424   9.303   0.467   9.345 -0.5461  0.2586 -1.0315
   93MOL0     C12425   9.210   0.554   9.402  0.2328  0.5057  0.5466
   93MOL0     C12426   9.075   0.532   9.415 -0.3059 -0.3379  1.2079
   93MOL0     C12427   9.017   0.413   9.371  0.2745  0.2113 -1.2628
   93MOL0     O12428   8.880   0.390   9.385  0.0883 -0.4109 -0.0606
   93MOL0     C12429   8.826   0.319   9.275  1.3302 -0.0623 -0.0954
   93MOL0     C12430   8.676   0.302   9.279 -0.6611 -0.3258 -0.4338
   93MOL0     C12431   8.613   0.227   9.406 -0.6712 -0.0264  0.6818
   93MOL0     C12432   8.462   0.249   9.406 -0.1414  0.7490 -0.1714
   93MOL0     C12433   8.402   0.176   9.528  0.4691 -0.5700 -0.4921
   93MOL0     C12434   8.249   0.195   9.532 -0.3786 -0.1087  0.6321
   93MOL0     C12435   8.177   0.120   9.651  1.0491 -0.2985  0.0359
   93MOL0     C12436   8.227   0.168   9.786 -0.7157 -0.0479  0.0735
   93MOL0     N12437   8.138   0.126   9.899  0.1049 -0.0013  0.1420
   93MOL0     C12438   8.037   0.198   9.963 -0.7050  0.2519  0.6398
   93MOL0     C12439   7.995   0.122  10.059 -0.0059 -0.3805 -0.4980
   93MOL0     C12440   7.880   0.165  10.142 -0.1476 -0.2148 -0.1679
   93MOL0     C12441   7.743   0.141  10.077 -0.3108  0.7778 -0.0614
   93MOL0     C12442   7.638   0.234  10.125  0.0199  0.5550 -0.5257
   93MOL0     C12443   7.502   0.208  10.051  0.0111 -0.1260  0.0230
   93MOL0     O12444   7.415   0.296  10.110  0.2467  0.7345 -0.2056
   93MOL0     C12445   7.292   0.310  10.058  0.0803  0.3560  0.2399
   93MOL0     C12446   7.198   0.381  10.135  0.1743  0.3597 -0.1183
   93MOL0     C12447   7.064   0.394  10.101 -0.6571 -0.5155  0.6172
   93MOL0     C12448   6.977   0.463  10.202 -1.0740  0.2558  0.1357
   93MOL0     C12449   7.014   0.341   9.981 -1.1294 -0.1152  0.6904
   93MOL0     C12450   6.884   0.362   9.923  0.2811  0.6759 -0.8372
   93MOL0     O12451   6.813   0.468   9.967  0.2122 -0.2154  0.1804
   93MOL0     C12452   6.688   0.476   9.923  0.5827 -0.4208 -0.0365
   93MOL0     C12453   6.582   0.407   9.993  0.4718 -0.9049  0.8579
   93MOL0     C12454   6.456   0.403   9.931 -0.1427 -0.4730  0.1797
   93MOL0     C12455   6.427   0.457   9.816 -0.1405 -1.2485  0.2965
   93MOL0     O12456   6.298   0.464   9.768 -0.2597  0.2066  0.5073
   93MOL0     C12457   6.260   0.548   9.652  0.4392 -0.0628  0.4137
   93MOL0     C12458   6.108   0.556   9.654  0.4343 -0.3635 -0.3505
   93MOL0     C12459   6.041   0.643   9.550 -0.2331  0.8965  0.7969
   93MOL0     C12460   5.895   0.618   9.551 -0.1177  0.8455 -0.3941
   93MOL0     C12461   5.809   0.731   9.489  0.2153 -0.3450 -0.2335
   93MOL0     C12462   5.651   0.705   9.513 -0.7504 -0.4836 -0.0582
   93MOL0     C12463   5.611   0.559   9.522 -0.3008  0.6089 -0.2576
   93MOL0     C12464   5.460   0.540   9.520  0.6496 -0.4491 -0.1279
   93MOL0    Cl12465   5.377   0.641   9.658 -0.3886  0.5885  0.3893
   93MOL0     C12466   6.531   0.516   9.737 -0.6569  0.6934 -0.1060
   93MOL0     C12467   6.662   0.525   9.792 -0.4572  0.6169 -0.1991
   93MOL0     O12468   6.846   0.274   9.849  0.8090 -0.1186  0.0269
   93MOL0     C12469   7.108   0.272   9.900 -0.8266 -0.4660 -0.7431
   93MOL0     C12470   7.241   0.252   9.940  1.4000  0.1911  0.5134
   93MOL0     N12471   8.050  -0.006  10.053  0.0340 -0.3302  1.1870
   93MOL0     N12472   8.133   0.004   9.957  0.1570  0.3345  0.4106
   93MOL0     C12473   9.106   0.316   9.308  0.4919  0.1897 -0.2557
   93MOL0     C12474   9.249   0.347   9.306  1.0839  0.4368  0.0682
   93MOL0     C12475   9.655   0.559   9.447 -0.8729 -0.2208 -0.7905
   93MOL0     C12476   9.724   0.463   9.366  0.7191 -0.3527  0.0641
   93MOL0     C12477   9.864   0.461   9.351 -0.5518 -0.4201 -0.2035
   93MOL0     C12478   9.941   0.557   9.412 -0.0268  0.0216  0.3115
   93MOL0     O12479  10.077   0.574   9.401  0.4976  0.1461  0.2656
   93MOL0     C12480  10.149   0.477   9.332  0.2982  0.2199  0.1615
   93MOL0     C12481  10.299   0.503   9.337 -0.4702 -0.1641  0.6215
   93MOL0     C12482  10.355   0.524   9.475  0.0262  0.2449  0.2417
   93MOL0     C12483  10.491   0.587   9.495  0.3735  0.3248  0.0200
   93MOL0     C12484  10.548   0.590   9.631 -0.1207 -0.6950 -0.1179
   93MOL0     C12485  10.588   0.597   9.747  1.1586  0.6404 -0.5554
   93MOL0     C12486   9.885   0.652   9.493 -0.5742  0.6935 -0.0578
   93MOL0     C12487   9.745   0.648   9.514 -0.2538  0.2584  0.2208
   93MOL0     H12488   9.250   0.652   9.430 -0.4956  0.8843  0.2930
   93MOL0     H12489   9.011   0.608   9.458 -0.6821  1.1800 -1.7582
   93MOL0     H12490   8.854   0.362   9.178  0.5936  0.8075  0.0589
   93MOL0     H12491   8.859   0.215   9.280 -0.4300 -0.8721 -3.0251
   93MOL0     H12492   8.622   0.395   9.262 -2.0332 -0.8807  0.6746
   93MOL0     H12493   8.648   0.241   9.193 -2.4531  0.7854 -0.6897
   93MOL0     H12494   8.637   0.120   9.412  1.3851  0.1968 -1.7303
   93MOL0     H12495   8.654   0.269   9.499 -2.1454  0.8073  0.9788
   93MOL0     H12496   8.449   0.357   9.418 -0.8376  0.6138  0.3572
   93MOL0     H12497   8.422   0.208   9.313  0.4387 -0.1694 -0.0257
   93MOL0     H12498   8.428   0.070   9.523  1.6845 -0.4061  1.2187
   93MOL0     H12499   8.443   0.228   9.616 -0.1329  4.0980 -2.6606
   93MOL0     H12500   8.225   0.301   9.548  1.4877  0.4673 -0.1036
   93MOL0     H12501   8.217   0.166   9.432 -0.3194  2.4828 -0.2089
   93MOL0     H12502   8.069   0.133   9.641  1.1414  0.1268 -0.4099
   93MOL0     H12503   8.201   0.014   9.634  1.5796 -0.3555  1.0591
   93MOL0     H12504   8.231   0.277   9.790 -1.7773 -0.0112  0.4479
   93MOL0     H12505   8.330   0.143   9.815 -0.4893 -0.5581 -1.0981
   93MOL0     H12506   7.998   0.297   9.942 -1.0672 -0.0336 -0.0790
   93MOL0     H12507   7.894   0.114  10.238  2.3175 -2.6982 -1.6692
   93MOL0     H12508   7.890   0.273  10.156  0.1228 -0.0633 -1.4690
   93MOL0     H12509   7.726   0.033  10.088  2.0766  0.4728  1.3607
   93MOL0     H12510   7.763   0.160   9.971  1.9212  0.9794  0.3537
   93MOL0     H12511   7.665   0.340  10.115 -3.2858  1.5253 -0.3518
   93MOL0     H12512   7.646   0.223  10.233  2.9853  1.0161 -0.6141
   93MOL0     H12513   7.473   0.103  10.062 -3.6747  0.8643  1.5006
   93MOL0     H12514   7.514   0.222   9.943 -1.3036  0.2103 -0.1031
   93MOL0     H12515   7.241   0.412  10.230 -0.1986 -0.3455  0.2872
   93MOL0     H12516   6.959   0.568  10.175 -1.6309 -0.5358 -3.0557
   93MOL0     H12517   6.883   0.410  10.222 -1.7085  1.6570  1.0145
   93MOL0     H12518   7.043   0.457  10.289  2.4162 -1.4489 -2.3644
   93MOL0     H12519   6.591   0.385  10.098 -3.5032 -3.1296  0.9428
   93MOL0     H12520   6.363   0.382   9.984 -0.8139 -0.0410 -0.8038
   93MOL0     H12521   6.316   0.641   9.653  4.0077 -2.0345  0.5228
   93MOL0     H12522   6.279   0.491   9.561  1.3122  1.3323 -0.3004
   93MOL0     H12523   6.073   0.453   9.649  0.3078 -0.2757 -1.4974
   93MOL0     H12524   6.073   0.597   9.750 -1.5374 -2.8468  0.0688
   93MOL0     H12525   6.074   0.617   9.449  4.5503  2.8542  1.5945
   93MOL0     H12526   6.054   0.751   9.563 -0.1384  1.1012 -0.7805
   93MOL0     H12527   5.873   0.524   9.500 -0.3877 -0.5887  2.2153
   93MOL0     H12528   5.861   0.606   9.654  1.8907 -0.0597  0.2299
   93MOL0     H12529   5.822   0.729   9.380 -3.7879 -1.4900 -0.8456
   93MOL0     H12530   5.836   0.829   9.529  2.1006 -1.1037  0.4552
   93MOL0     H12531   5.625   0.759   9.604 -1.2397 -4.1014  2.1625
   93MOL0     H12532   5.603   0.754   9.428  1.4193  0.9085 -0.5669
   93MOL0     H12533   5.647   0.520   9.618 -0.7321  0.7377 -0.0356
   93MOL0     H12534   5.652   0.494   9.445  2.6629 -1.4151  2.7320
   93MOL0     H12535   5.431   0.436   9.536 -0.1152  0.1242  2.9472
   93MOL0     H12536   5.426   0.568   9.420  1.4389  0.9013 -0.0474
   93MOL0     H12537   6.516   0.547   9.635 -0.3768 -3.5629 -1.6683
   93MOL0     H12538   6.742   0.571   9.736 -0.0587  1.2816  0.8766
   93MOL0     H12539   7.080   0.237   9.801 -0.5029  1.5185 -1.5861
   93MOL0     H12540   7.312   0.203   9.875  0.9062  0.7001 -0.4193
   93MOL0     H12541   9.070   0.221   9.271  0.4317 -0.3991  1.2437
   93MOL0     H12542   9.317   0.277   9.258  2.0678  3.1599 -2.8854
   93MOL0     H12543   9.665   0.383   9.324  1.7864 -1.4979  0.6760
   93MOL0     H12544   9.906   0.376   9.297  3.2334  1.2773 -0.2457
   93MOL0     H12545  10.133   0.378   9.377  1.7537  0.5367  1.4332
   93MOL0     H12546  10.117   0.476   9.227 -0.0341  2.1816  0.2016
   93MOL0     H12547  10.314   0.597   9.283  2.0535 -0.5921  0.4631
   93MOL0     H12548  10.358   0.431   9.280 -0.8917 -0.7913  0.9736
   93MOL0     H12549  10.360   0.422   9.515  2.7283  0.1952 -0.0110
   93MOL0     H12550  10.286   0.589   9.530 -1.0080  0.4663 -1.2768
   93MOL0     H12551  10.481   0.691   9.462  1.2753  0.2155 -0.6265
   93MOL0     H12552  10.560   0.538   9.426 -0.9476  0.0286 -1.1465
   93MOL0     H12553  10.607   0.604   9.853 -2.9469  0.6703  0.3331
   93MOL0     H12554   9.948   0.727   9.538  2.8273 -2.3158  0.6419
   93MOL0     H12555   9.697   0.728   9.569  0.4476  0.4709  0.5365
   94MOL0     O12556   7.493   8.599   7.681  0.3685  0.0807  0.0655
   94MOL0     C12557   7.511   8.602   7.564 -0.9792  0.1080 -0.7566
   94MOL0     O12558   7.450   8.523   7.465 -0.0786  0.1925  0.4618
   94MOL0     C12559   7.344   8.449   7.505  0.2992  0.2170  0.4146
   94MOL0     C12560   7.359   8.326   7.567 -0.0228  0.5782  0.2637
   94MOL0     C12561   7.248   8.245   7.579 -0.2573 -0.1199  0.9758
   94MOL0     C12562   7.121   8.271   7.523  0.1509  0.3803 -0.2522
   94MOL0     O12563   7.022   8.175   7.536 -0.6096 -0.3030  0.4945
   94MOL0     C12564   6.902   8.196   7.459 -0.3363  0.5725 -0.2431
   94MOL0     C12565   6.807   8.071   7.475 -0.5247 -0.0178  0.4291
   94MOL0     C12566   6.681   8.073   7.392  0.4496  0.8439  0.6428
   94MOL0     C12567   6.617   7.937   7.385  0.2105  0.1091  0.1054
   94MOL0     C12568   6.494   7.935   7.295  0.5788 -0.3269 -0.1449
   94MOL0     C12569   6.421   7.796   7.308 -0.1775 -0.1980  0.0849
   94MOL0     C12570   6.302   7.790   7.215 -0.6768  0.1037  0.1586
   94MOL0     C12571   6.164   7.858   7.245  0.2830 -0.2697  0.3236
   94MOL0     N12572   6.061   7.810   7.155 -0.6231 -0.0375 -0.0725
   94MOL0     C12573   5.996   7.694   7.176 -0.2221  0.2390 -0.2111
   94MOL0     C12574   5.908   7.678   7.073  0.7032 -0.8713 -0.1810
   94MOL0     C12575   5.779   7.591   7.066 -0.2075 -0.4149  0.2332
   94MOL0     C12576   5.659   7.681   7.045 -0.3171  0.0966  0.2004
   94MOL0     C12577   5.520   7.614   7.063 -0.2659 -0.9796  0.2163
   94MOL0     C12578   5.459   7.557   6.931 -0.2189 -0.4705 -0.6655
   94MOL0     O12579   5.528   7.440   6.894 -0.3482 -0.4529 -0.1920
   94MOL0     C12580   5.476   7.353   6.803  0.3422  0.0080  0.1058
   94MOL0     C12581   5.552   7.241   6.778 -1.0897  0.9359  0.3998
   94MOL0     C12582   5.517   7.145   6.678  0.7656 -0.8478  0.2870
   94MOL0     C12583   5.613   7.032   6.659 -0.3020 -0.6244  0.1788
   94MOL0     C12584   5.398   7.160   6.606  0.8718 -0.4501 -0.7057
   94MOL0     C12585   5.335   7.056   6.511  0.1312  0.0851  0.2027
   94MOL0     O12586   5.215   7.096   6.455 -0.8338  0.9086  0.3768
   94MOL0     C12587   5.164   7.021   6.351 -0.1731 -0.2027 -0.4223
   94MOL0     C12588   5.167   7.069   6.219 -0.5388 -0.5855  0.0624
   94MOL0     C12589   5.113   7.004   6.111  0.0071  0.2358 -0.0098
   94MOL0     C12590   5.065   6.866   6.128  1.0564 -0.2142 -0.4723
   94MOL0     O12591   4.996   6.790   6.035 -0.6641  0.2771  0.3080
   94MOL0     C12592   5.010   6.822   5.895 -0.1265 -0.8792  0.1715
   94MOL0     C12593   5.012   6.698   5.817  0.6529  0.0617  0.1601
   94MOL0     C12594   4.876   6.648   5.789 -0.8062 -0.5851 -0.7544
   94MOL0     C12595   4.877   6.543   5.682  0.8089 -0.2310  0.2721
   94MOL0     C12596   4.738   6.479   5.678 -0.1399 -0.1438 -0.1971
   94MOL0     C12597   4.643   6.569   5.602 -0.1180  0.7356  0.0548
   94MOL0     C12598   4.511   6.497   5.567  0.5120 -0.1385 -0.2479
   94MOL0     C12599   4.396   6.601   5.567 -0.5730 -0.2062  1.0483
   94MOL0    Cl12600   4.451   6.710   5.423 -0.1577 -0.1961  0.1619
   94MOL0     C12601   5.045   6.825   6.265 -0.8604 -0.0369 -0.0207
   94MOL0     C12602   5.103   6.897   6.366 -0.1297  0.7548 -0.2192
   94MOL0     O12603   5.381   6.947   6.493 -0.0138  0.0896  0.3180
   94MOL0     C12604   5.323   7.275   6.632 -0.3730 -0.9668 -0.6376
   94MOL0     C12605   5.367   7.376   6.728  0.2868 -0.3201 -0.2232
   94MOL0     N12606   5.946   7.782   6.979  1.2314 -0.3068  0.3202
   94MOL0     N12607   6.022   7.868   7.039 -0.1509 -0.0161  0.4479
   94MOL0     C12608   7.100   8.401   7.471  0.5041  0.7011 -0.4182
   94MOL0     C12609   7.214   8.485   7.458 -0.1093  0.2756  0.0352
   94MOL0     C12610   7.618   8.693   7.519 -0.9886  0.2205  0.1621
   94MOL0     C12611   7.658   8.677   7.383  0.1644  0.1993  0.5512
   94MOL0     C12612   7.752   8.766   7.326  0.3458  0.7046 -0.1761
   94MOL0     C12613   7.819   8.871   7.392  0.0914 -0.2019 -0.4008
   94MOL0     O12614   7.902   8.960   7.332 -0.3644  0.1760 -0.1051
   94MOL0     C12615   7.894   8.979   7.189  1.2163  0.3360 -0.8177
   94MOL0     C12616   7.972   9.104   7.146  0.6004  0.5782  0.6429
   94MOL0     C12617   7.968   9.098   6.996 -0.2948 -0.5077 -0.2251
   94MOL0     C12618   8.041   9.207   6.928  0.5927  0.0861 -0.6092
   94MOL0     C12619   8.005   9.216   6.782 -1.0602 -0.0364 -0.7231
   94MOL0     C12620   7.979   9.212   6.663  0.1524  0.4320  0.8583
   94MOL0     C12621   7.787   8.879   7.528 -1.2294  0.7469 -0.6641
   94MOL0     C12622   7.693   8.792   7.598 -0.7341 -0.3991  0.1287
   94MOL0     H12623   7.456   8.289   7.598  0.0018 -0.4710 -0.9900
   94MOL0     H12624   7.260   8.148   7.627  0.5562 -2.7298 -3.8633
   94MOL0     H12625   6.836   8.279   7.487 -1.3991 -0.3460  0.0284
   94MOL0     H12626   6.932   8.195   7.354  1.7699  3.4978  0.1882
   94MOL0     H12627   6.871   7.991   7.437  2.9425  3.5944 -2.1108
   94MOL0     H12628   6.784   8.053   7.581  1.1464  3.5488  1.5599
   94MOL0     H12629   6.613   8.133   7.452 -2.1310 -3.2872  2.3078
   94MOL0     H12630   6.686   8.106   7.288  0.4254 -0.2313  0.2788
   94MOL0     H12631   6.684   7.862   7.343 -0.2983 -0.6324  0.5959
   94MOL0     H12632   6.587   7.905   7.486 -0.6436  0.6177  0.0250
   94MOL0     H12633   6.429   8.014   7.334  0.4562 -0.1803 -0.6374
   94MOL0     H12634   6.521   7.957   7.192 -1.5415  1.5468 -0.3870
   94MOL0     H12635   6.491   7.714   7.293 -0.5137 -0.8162  1.6572
   94MOL0     H12636   6.401   7.772   7.413  1.2656 -1.8114  0.0292
   94MOL0     H12637   6.343   7.824   7.119  1.9742  2.0082  1.8519
   94MOL0     H12638   6.281   7.682   7.208 -1.6536  0.3112 -0.2363
   94MOL0     H12639   6.167   7.966   7.226 -2.8664 -0.2876 -0.8798
   94MOL0     H12640   6.142   7.834   7.350  1.9497 -2.7862  0.1844
   94MOL0     H12641   5.991   7.636   7.267 -0.8050  0.0766 -0.3408
   94MOL0     H12642   5.771   7.527   6.977 -1.2824 -1.7528  1.2323
   94MOL0     H12643   5.788   7.532   7.158 -2.6417 -0.6273  0.3915
   94MOL0     H12644   5.666   7.722   6.943  0.0661  2.4636  1.1105
   94MOL0     H12645   5.666   7.771   7.108  0.6227  0.9322 -1.0367
   94MOL0     H12646   5.448   7.691   7.088  0.1288 -0.1925 -0.9992
   94MOL0     H12647   5.518   7.549   7.151 -0.3409 -0.1378  0.8453
   94MOL0     H12648   5.458   7.640   6.860 -0.5173  0.5133  0.4397
   94MOL0     H12649   5.355   7.532   6.953  0.3348 -1.0473  1.5625
   94MOL0     H12650   5.649   7.224   6.823 -0.0526 -1.4416 -2.3594
   94MOL0     H12651   5.640   7.024   6.553 -1.8205  0.9252 -0.3951
   94MOL0     H12652   5.702   7.031   6.721  0.3249 -2.3140 -0.6973
   94MOL0     H12653   5.553   6.943   6.680 -1.8953  0.2302 -0.5127
   94MOL0     H12654   5.208   7.168   6.200 -1.4782  0.2999  2.3139
   94MOL0     H12655   5.102   7.053   6.014  2.7094 -0.5304 -0.7874
   94MOL0     H12656   4.929   6.890   5.868  0.0137 -0.8822 -0.2655
   94MOL0     H12657   5.105   6.874   5.882 -0.5932 -0.1106 -0.2241
   94MOL0     H12658   5.057   6.722   5.720 -3.1012 -0.7516 -1.9999
   94MOL0     H12659   5.075   6.621   5.862  0.2335  0.1186  0.8574
   94MOL0     H12660   4.820   6.737   5.758 -0.0492  0.2600  0.1928
   94MOL0     H12661   4.845   6.616   5.889  1.7940 -0.1512  0.2797
   94MOL0     H12662   4.917   6.582   5.588  0.8073 -0.1272  0.3145
   94MOL0     H12663   4.954   6.472   5.713 -1.6070 -3.4956 -0.6116
   94MOL0     H12664   4.694   6.456   5.775 -2.4254 -1.2592 -1.4205
   94MOL0     H12665   4.748   6.384   5.625 -2.2579  0.3034 -1.5016
   94MOL0     H12666   4.621   6.661   5.657 -1.6940  0.1319  0.5077
   94MOL0     H12667   4.686   6.586   5.503 -1.9296 -1.5844 -1.2166
   94MOL0     H12668   4.476   6.427   5.644  1.1734 -0.7665 -0.5133
   94MOL0     H12669   4.515   6.445   5.471 -1.7245  0.7926 -0.9186
   94MOL0     H12670   4.395   6.649   5.665 -1.9304  1.0831  0.4376
   94MOL0     H12671   4.297   6.562   5.542 -0.3549  0.0789 -0.3532
   94MOL0     H12672   4.989   6.734   6.283 -0.2935  0.2405  4.2902
   94MOL0     H12673   5.084   6.844   6.458 -3.9057  0.5914 -0.9279
   94MOL0     H12674   5.228   7.301   6.586 -0.6236 -1.5303 -0.4430
   94MOL0     H12675   5.305   7.465   6.733 -2.9583 -2.4765  1.0944
   94MOL0     H12676   7.005   8.434   7.431  0.2678  0.5086 -0.0146
   94MOL0     H12677   7.194   8.589   7.435 -2.1066  0.4918  2.3473
   94MOL0     H12678   7.617   8.609   7.309  2.3407  1.7263 -2.2260
   94MOL0     H12679   7.767   8.752   7.219 -0.2756 -2.1928  0.0496
   94MOL0     H12680   7.931   8.888   7.140 -1.8776 -1.0144 -0.8636
   94MOL0     H12681   7.791   8.983   7.153  0.8301 -2.8891 -0.3730
   94MOL0     H12682   8.076   9.112   7.178  1.0299  3.0076 -1.0773
   94MOL0     H12683   7.925   9.194   7.187 -3.0161 -2.3109  3.7145
   94MOL0     H12684   7.861   9.101   6.976 -0.2643 -0.0563 -0.3504
   94MOL0     H12685   8.010   9.000   6.974 -1.3361 -2.1791  4.2856
   94MOL0     H12686   8.147   9.201   6.952  0.3079  0.8216  0.8740
   94MOL0     H12687   8.009   9.301   6.972 -1.4863 -0.4992 -0.7724
   94MOL0     H12688   7.969   9.212   6.556  0.5498 -0.1933  0.8174
   94MOL0     H12689   7.844   8.953   7.583 -0.3125 -0.2918 -0.1904
   94MOL0     H12690   7.676   8.810   7.704 -3.0116  3.2429 -0.6972
   95MOL0     O12691   0.448  10.746   4.162  0.1641  0.6246  0.2924
   95MOL0     C12692   0.485  10.827   4.074 -0.4943  0.0476 -0.4076
   95MOL0     O12693   0.404  10.895   3.989 -0.2069 -0.3861  0.4606
   95MOL0     C12694   0.267  10.879   4.014  0.4313  0.3325  0.3156
   95MOL0     C12695   0.194  10.778   3.949 -0.6034  0.0393 -0.2317
   95MOL0     C12696   0.059  10.757   3.960  0.4890 -0.0431 -1.3927
   95MOL0     C12697  -0.016  10.848   4.035  0.7136 -0.6106  0.1087
   95MOL0     O12698  -0.135  10.804   4.065 -0.0892 -0.4050 -0.0544
   95MOL0     C12699  -0.239  10.906   4.062  0.4204  0.3293  0.2650
   95MOL0     C12700  -0.362  10.828   4.093 -0.2347 -0.5789 -0.4288
   95MOL0     C12701  -0.491  10.910   4.106 -0.3996  0.9401  0.0305
   95MOL0     C12702  -0.614  10.821   4.093  0.4052  0.1865  0.2513
   95MOL0     C12703  -0.743  10.889   4.133  0.1602 -0.7391 -0.2033
   95MOL0     C12704  -0.854  10.792   4.105 -0.1807 -0.1586  0.1910
   95MOL0     C12705  -0.975  10.845   4.186  0.8894 -0.1575 -0.5030
   95MOL0     C12706  -1.088  10.780   4.117  0.2559  0.3463  0.0006
   95MOL0     N12707  -1.222  10.831   4.149 -0.4400  0.0520  0.3516
   95MOL0     C12708  -1.259  10.903   4.257 -0.3728 -0.3325  0.5650
   95MOL0     C12709  -1.394  10.902   4.251 -0.2876  0.5258  1.0997
   95MOL0     C12710  -1.481  10.927   4.374  0.2337  0.1004 -0.4490
   95MOL0     C12711  -1.624  10.953   4.334  0.5360  0.1839 -0.3827
   95MOL0     C12712  -1.705  11.000   4.457  0.0174  0.5046 -1.3874
   95MOL0     C12713  -1.852  11.018   4.413  0.5196  0.1797 -0.8078
   95MOL0     O12714  -1.928  11.079   4.513  0.2149 -0.2781 -0.4869
   95MOL0     C12715  -2.064  11.055   4.534 -0.6748  0.0813 -0.2324
   95MOL0     C12716  -2.122  11.128   4.641  0.1824 -0.1732  0.3110
   95MOL0     C12717  -2.260  11.118   4.659  0.7950  0.2139  0.9378
   95MOL0     C12718  -2.311  11.212   4.766  0.0576  0.1963  0.1250
   95MOL0     C12719  -2.341  11.033   4.575 -0.5483  0.3533 -0.0730
   95MOL0     C12720  -2.486  11.031   4.573  0.5566  1.5700 -0.2278
   95MOL0     O12721  -2.546  11.078   4.684  0.3122  0.1975  0.4461
   95MOL0     C12722  -2.683  11.101   4.711 -0.3243  0.8718  0.0676
   95MOL0     C12723  -2.782  11.134   4.620 -0.1716 -0.4827  0.2536
   95MOL0     C12724  -2.909  11.169   4.676  0.2371  0.3376 -0.1264
   95MOL0     C12725  -2.935  11.169   4.809  0.5635  0.6071  0.1001
   95MOL0     O12726  -3.059  11.196   4.854  0.7405 -0.0489  0.3684
   95MOL0     C12727  -3.065  11.307   4.943  0.1131  0.1759  0.3425
   95MOL0     C12728  -3.213  11.343   4.974 -0.2090  0.2268  0.3959
   95MOL0     C12729  -3.311  11.346   4.860  0.8977 -0.0537 -0.0286
   95MOL0     C12730  -3.291  11.450   4.754  0.1675  0.3001 -0.3469
   95MOL0     C12731  -3.168  11.432   4.666  0.9635  0.0082 -0.0342
   95MOL0     C12732  -3.185  11.519   4.531 -0.0408  0.3895 -0.3858
   95MOL0     C12733  -3.051  11.510   4.471 -0.9484  0.1830 -0.6294
   95MOL0     C12734  -3.033  11.596   4.345  0.0668  0.4751 -0.7541
   95MOL0    Cl12735  -3.155  11.537   4.216 -0.4767  0.4292 -0.3535
   95MOL0     C12736  -2.833  11.136   4.900 -0.2476 -0.2676 -0.1761
   95MOL0     C12737  -2.706  11.107   4.851  0.3350 -0.6108  0.4286
   95MOL0     O12738  -2.544  10.973   4.476 -0.4565 -0.4130 -0.3588
   95MOL0     C12739  -2.270  10.965   4.470  0.5990 -0.6470  0.6258
   95MOL0     C12740  -2.138  10.977   4.445  0.4314 -0.0760 -0.5297
   95MOL0     N12741  -1.442  10.833   4.148  0.1055  0.4265  0.4898
   95MOL0     N12742  -1.336  10.790   4.082  0.1083  0.1677  0.9083
   95MOL0     C12743   0.048  10.952   4.097 -0.1581  0.9627 -0.1919
   95MOL0     C12744   0.186  10.975   4.079  0.3417 -0.6090 -0.7370
   95MOL0     C12745   0.624  10.828   4.047 -0.1356  0.0053 -0.6773
   95MOL0     C12746   0.675  10.909   3.942 -0.0447 -1.1927 -0.3208
   95MOL0     C12747   0.809  10.917   3.916 -0.3203  0.5089 -0.3414
   95MOL0     C12748   0.898  10.845   3.994  0.1208  0.7740  0.7040
   95MOL0     O12749   1.036  10.858   3.957  0.5923 -0.2172 -0.2285
   95MOL0     C12750   1.135  10.785   4.041  1.2912  0.6540  0.1129
   95MOL0     C12751   1.275  10.809   3.978 -0.2984  0.8394  0.4787
   95MOL0     C12752   1.296  10.729   3.850  0.1720  0.1949 -0.5028
   95MOL0     C12753   1.431  10.747   3.783 -0.1299  0.2173  0.0738
   95MOL0     C12754   1.538  10.707   3.872  1.6766  1.3128  0.0969
   95MOL0     C12755   1.627  10.659   3.947  0.5238 -1.0702  0.8118
   95MOL0     C12756   0.851  10.765   4.097  0.5114  0.0165  0.1426
   95MOL0     C12757   0.713  10.759   4.126 -0.2335  0.2254 -0.2389
   95MOL0     H12758   0.252  10.709   3.888  1.5865  0.7432  0.9559
   95MOL0     H12759   0.005  10.672   3.919 -2.8191  2.2637 -2.2923
   95MOL0     H12760  -0.226  10.981   4.139  1.6953  0.8900 -0.4555
   95MOL0     H12761  -0.256  10.951   3.964  0.5300 -0.5416 -0.1706
   95MOL0     H12762  -0.375  10.757   4.011  1.1089 -2.0892  0.6063
   95MOL0     H12763  -0.354  10.769   4.185  1.6522 -2.8190 -1.9197
   95MOL0     H12764  -0.492  10.955   4.206 -0.4379 -0.9261  0.9224
   95MOL0     H12765  -0.490  10.987   4.029  0.7261  0.2877 -0.6365
   95MOL0     H12766  -0.613  10.772   3.995  2.8872 -1.7015  1.1277
   95MOL0     H12767  -0.604  10.736   4.161 -0.6181  1.0640  1.5473
   95MOL0     H12768  -0.739  10.914   4.240 -3.2916 -0.4278 -0.0244
   95MOL0     H12769  -0.772  10.983   4.086  1.1205  1.4112  3.1302
   95MOL0     H12770  -0.868  10.783   3.997  1.5905  3.2111 -0.4595
   95MOL0     H12771  -0.814  10.696   4.140  1.2028  0.8663  1.5650
   95MOL0     H12772  -0.955  10.812   4.289 -1.1515  0.0772  0.0145
   95MOL0     H12773  -0.997  10.952   4.181 -1.0477 -0.5134 -0.3343
   95MOL0     H12774  -1.088  10.671   4.131 -0.9702  0.2322 -0.7604
   95MOL0     H12775  -1.088  10.786   4.008 -0.6684  0.9135  0.0229
   95MOL0     H12776  -1.206  10.947   4.341 -0.6075 -1.5444  1.3599
   95MOL0     H12777  -1.477  10.842   4.443  2.5538 -0.1589 -0.8236
   95MOL0     H12778  -1.442  11.016   4.425 -0.5437  0.0310  0.2907
   95MOL0     H12779  -1.667  10.858   4.300  1.3673 -0.3019 -0.1202
   95MOL0     H12780  -1.639  11.023   4.251  2.2024 -0.1772 -1.0383
   95MOL0     H12781  -1.666  11.092   4.502  0.0443  0.0803 -0.5151
   95MOL0     H12782  -1.706  10.919   4.531 -3.1009  1.0549 -0.6594
   95MOL0     H12783  -1.888  10.916   4.405  1.2059 -0.2974  1.3940
   95MOL0     H12784  -1.853  11.080   4.323 -1.1775 -1.4360 -1.9484
   95MOL0     H12785  -2.055  11.196   4.690  2.4419 -0.3035 -2.3395
   95MOL0     H12786  -2.374  11.285   4.715  0.6322 -0.5216 -1.7049
   95MOL0     H12787  -2.371  11.155   4.838 -0.6734  0.4108 -0.2967
   95MOL0     H12788  -2.236  11.268   4.822 -3.3892  2.9285  2.4692
   95MOL0     H12789  -2.757  11.147   4.515 -1.7674  0.8004 -0.0093
   95MOL0     H12790  -2.978  11.216   4.606  1.5277  3.9662  0.8231
   95MOL0     H12791  -3.019  11.287   5.040 -1.7042 -1.0726  0.9906
   95MOL0     H12792  -3.016  11.399   4.907 -0.0089  1.2410  2.6816
   95MOL0     H12793  -3.248  11.271   5.049  2.5456  2.1526  3.7815
   95MOL0     H12794  -3.218  11.440   5.023 -1.2424 -0.4762  1.7443
   95MOL0     H12795  -3.408  11.344   4.909 -0.2953  0.7202 -2.2290
   95MOL0     H12796  -3.308  11.250   4.808 -2.4453 -0.0374 -0.4364
   95MOL0     H12797  -3.380  11.451   4.691  0.7301  0.9986 -1.1440
   95MOL0     H12798  -3.291  11.545   4.808 -0.2386  0.1924 -0.1522
   95MOL0     H12799  -3.157  11.326   4.643  1.0694  0.3607 -1.7077
   95MOL0     H12800  -3.079  11.458   4.725  2.0671 -2.0230 -0.7189
   95MOL0     H12801  -3.265  11.479   4.469  0.9772 -0.0842 -1.4346
   95MOL0     H12802  -3.224  11.620   4.546 -0.9435  0.9224 -4.8422
   95MOL0     H12803  -3.019  11.406   4.458 -0.0087  0.3029  0.5919
   95MOL0     H12804  -2.984  11.560   4.541 -0.8725  0.1106 -0.6493
   95MOL0     H12805  -2.932  11.573   4.311  0.5525  0.4270  0.6357
   95MOL0     H12806  -3.044  11.699   4.380 -0.6581  0.2420 -0.2602
   95MOL0     H12807  -2.836  11.150   5.007  0.1994  1.7360 -0.3778
   95MOL0     H12808  -2.618  11.095   4.913  0.8799  1.5376  0.1457
   95MOL0     H12809  -2.329  10.889   4.419 -0.2003  0.8546 -0.8053
   95MOL0     H12810  -2.097  10.927   4.358  0.6400 -0.7899 -0.0403
   95MOL0     H12811  -0.002  11.038   4.141 -2.4276 -1.5160  2.5296
   95MOL0     H12812   0.235  11.064   4.117  1.0851 -1.7157  1.0073
   95MOL0     H12813   0.608  10.969   3.881 -0.8182 -2.5622 -0.8621
   95MOL0     H12814   0.845  10.970   3.828 -0.9265  1.9610  0.2481
   95MOL0     H12815   1.140  10.821   4.145  2.6831  3.0702 -0.7094
   95MOL0     H12816   1.109  10.679   4.049 -1.2863  1.3090  2.2791
   95MOL0     H12817   1.349  10.788   4.055 -0.5675 -0.8354  0.3085
   95MOL0     H12818   1.282  10.913   3.944  0.9816  0.1835 -1.3754
   95MOL0     H12819   1.218  10.757   3.779 -0.7036  2.1661  1.1185
   95MOL0     H12820   1.280  10.621   3.857 -3.3540  0.6519  1.1663
   95MOL0     H12821   1.433  10.847   3.739  2.5314 -0.3737 -1.3083
   95MOL0     H12822   1.437  10.681   3.696 -0.2244  0.6711 -0.2747
   95MOL0     H12823   1.709  10.633   4.010  1.6918 -1.6931 -0.8998
   95MOL0     H12824   0.918  10.710   4.163 -1.3386 -1.4068  0.9057
   95MOL0     H12825   0.683  10.697   4.210 -0.7333  0.9720  0.1394
   96MOL0     O12826   3.891   0.907   9.174  0.3025  0.2513  0.1016
   96MOL0     C12827   3.946   0.997   9.235 -0.2749 -0.1069  0.0901
   96MOL0     O12828   3.892   1.081   9.329 -0.4196 -0.1704 -0.7838
   96MOL0     C12829   3.754   1.083   9.361 -0.3916 -0.8112 -0.5138
   96MOL0     C12830   3.720   1.096   9.498 -0.2648  0.5604  0.2052
   96MOL0     C12831   3.584   1.092   9.541 -0.1670  0.2008  1.7285
   96MOL0     C12832   3.487   1.113   9.449  0.7595  0.6306 -0.0007
   96MOL0     O12833   3.358   1.159   9.466 -0.0800  0.3499  0.5310
   96MOL0     C12834   3.332   1.213   9.588  0.1058 -0.2268 -0.8067
   96MOL0     C12835   3.220   1.307   9.577  0.0281  0.1068 -0.3436
   96MOL0     C12836   3.110   1.295   9.684 -0.4499  0.2509 -0.1170
   96MOL0     C12837   2.983   1.378   9.648  0.2652  0.1229 -0.3522
   96MOL0     C12838   2.885   1.360   9.766 -0.2996 -0.0641  0.2181
   96MOL0     C12839   2.757   1.458   9.753  0.0090 -0.9080 -0.1248
   96MOL0     C12840   2.659   1.441   9.859 -0.2647 -0.1342 -0.0991
   96MOL0     C12841   2.537   1.529   9.828 -0.4293  0.2759  0.0998
   96MOL0     N12842   2.428   1.496   9.918  0.4395  0.2995  0.2707
   96MOL0     C12843   2.372   1.371   9.943 -0.0889 -0.1692  0.0716
   96MOL0     C12844   2.287   1.387  10.049 -0.6071  0.0143  1.2664
   96MOL0     C12845   2.198   1.280  10.108 -0.6616  0.3586  0.6642
   96MOL0     C12846   2.052   1.321  10.094  0.0938  0.2283  0.5023
   96MOL0     C12847   2.003   1.369  10.229 -0.3416  0.0020 -0.6460
   96MOL0     C12848   1.857   1.423  10.242  0.7726  0.0577  0.3752
   96MOL0     O12849   1.771   1.322  10.192 -0.5408 -0.1023  0.0153
   96MOL0     C12850   1.639   1.346  10.167  0.2572 -0.6929  0.6671
   96MOL0     C12851   1.579   1.471  10.156  0.3481 -0.5449  0.9916
   96MOL0     C12852   1.439   1.483  10.129  0.1872 -0.1947 -0.4068
   96MOL0     C12853   1.378   1.617  10.113 -0.1494 -0.0815  0.4559
   96MOL0     C12854   1.362   1.361  10.111 -0.2518 -0.5672  0.5759
   96MOL0     C12855   1.220   1.355  10.066  0.3233  0.5968 -0.1459
   96MOL0     O12856   1.159   1.236  10.073 -0.4091 -0.3597 -0.6709
   96MOL0     C12857   1.024   1.231  10.061  0.0326  0.0428 -0.2782
   96MOL0     C12858   0.943   1.274  10.169 -0.0382 -1.3532  0.1686
   96MOL0     C12859   0.805   1.271  10.169  1.0714 -0.4941  0.0209
   96MOL0     C12860   0.737   1.243  10.043 -0.0180 -0.2402 -0.7239
   96MOL0     O12861   0.596   1.220  10.035 -0.2817  0.3042  0.4322
   96MOL0     C12862   0.513   1.314  10.106  0.5771 -1.0451 -0.5637
   96MOL0     C12863   0.435   1.246  10.211 -0.0094  0.9289 -0.3943
   96MOL0     C12864   0.367   1.344  10.305  0.0948 -0.1833 -0.3273
   96MOL0     C12865   0.310   1.277  10.426 -0.0195  0.4516 -0.1202
   96MOL0     C12866   0.199   1.175  10.402  0.0675 -0.5084 -0.9348
   96MOL0     C12867   0.109   1.128  10.512  0.2958  0.7629  0.0695
   96MOL0     C12868   0.204   1.088  10.623 -0.8600 -0.0271 -0.0572
   96MOL0     C12869   0.133   1.044  10.745 -0.2610  0.1855 -0.3169
   96MOL0    Cl12870   0.065   0.890  10.707 -0.0561  0.1222  0.0936
   96MOL0     C12871   0.817   1.192   9.940 -0.1523 -0.3377 -0.4988
   96MOL0     C12872   0.958   1.189   9.941  0.2933  0.0867 -0.3359
   96MOL0     O12873   1.159   1.458  10.033  0.7785 -0.4881 -0.0462
   96MOL0     C12874   1.429   1.236  10.121 -0.4943 -0.1895  0.0743
   96MOL0     C12875   1.566   1.230  10.158  0.4480 -0.0518  0.1790
   96MOL0     N12876   2.289   1.523  10.082 -0.0321 -0.1576  0.6662
   96MOL0     N12877   2.383   1.580  10.015  0.1738 -0.6615  0.1818
   96MOL0     C12878   3.518   1.103   9.312  0.5318 -0.5336  1.1526
   96MOL0     C12879   3.652   1.073   9.268  0.1764  0.3222  0.6346
   96MOL0     C12880   4.090   1.013   9.210 -0.0213  0.8100  0.4037
   96MOL0     C12881   4.164   1.118   9.276  0.2926 -0.1892  0.4453
   96MOL0     C12882   4.305   1.118   9.258 -0.8022 -0.3864  0.2969
   96MOL0     C12883   4.372   1.026   9.179  0.6322 -0.0812  0.0161
   96MOL0     O12884   4.505   1.061   9.177  0.0772 -0.0246  0.1027
   96MOL0     C12885   4.611   0.970   9.133  1.1973 -0.3173 -0.1301
   96MOL0     C12886   4.689   0.937   9.257  0.2203 -0.3525 -0.3319
   96MOL0     C12887   4.822   0.866   9.226 -0.5178  0.0517 -0.7959
   96MOL0     C12888   4.812   0.715   9.224  0.7708  0.7521  0.4536
   96MOL0     C12889   4.941   0.637   9.226  0.0903  0.2459  0.4732
   96MOL0     C12890   5.046   0.583   9.219 -0.8408 -0.0130  0.1191
   96MOL0     C12891   4.300   0.920   9.114  0.5321 -0.5243 -0.6002
   96MOL0     C12892   4.166   0.912   9.128  0.4338  0.5399 -0.3535
   96MOL0     H12893   3.802   1.091   9.569 -0.2410 -0.0468  0.1462
   96MOL0     H12894   3.573   1.107   9.648  0.2406  1.2469  1.6373
   96MOL0     H12895   3.313   1.131   9.657  2.3450 -0.9364 -0.9445
   96MOL0     H12896   3.415   1.274   9.625  0.0466  1.0108 -2.5621
   96MOL0     H12897   3.248   1.409   9.549  1.1687 -0.5311 -1.6280
   96MOL0     H12898   3.174   1.272   9.484  0.3669  0.1964 -0.5441
   96MOL0     H12899   3.074   1.193   9.701  0.3937  0.2974  2.3527
   96MOL0     H12900   3.156   1.328   9.778 -0.4783  2.3941 -0.7988
   96MOL0     H12901   3.002   1.486   9.642  3.2233 -0.1788  1.4603
   96MOL0     H12902   2.935   1.344   9.556  0.4453 -1.5634  0.1531
   96MOL0     H12903   2.857   1.255   9.779 -1.0732 -0.0338 -0.9955
   96MOL0     H12904   2.929   1.391   9.861 -0.1151 -0.8592  0.4030
   96MOL0     H12905   2.786   1.564   9.755  3.6074 -1.7516 -0.6624
   96MOL0     H12906   2.702   1.438   9.661  0.4041  4.8300 -2.0285
   96MOL0     H12907   2.637   1.334   9.863  0.0935 -0.1838  1.1909
   96MOL0     H12908   2.702   1.454   9.959  3.0255 -0.2438 -1.3723
   96MOL0     H12909   2.512   1.520   9.722  0.9280  2.6252 -0.4909
   96MOL0     H12910   2.568   1.633   9.840  1.8737 -0.6298  3.4626
   96MOL0     H12911   2.400   1.282   9.887 -0.4777  0.3648 -0.9749
   96MOL0     H12912   2.216   1.176  10.077 -1.2884  0.7531 -1.1046
   96MOL0     H12913   2.221   1.277  10.215 -0.6252  3.3245  0.8059
   96MOL0     H12914   2.001   1.229  10.062  2.4980 -0.7199 -0.8129
   96MOL0     H12915   2.029   1.392  10.014  1.1136 -1.4568 -1.3733
   96MOL0     H12916   2.067   1.444  10.276  1.2002 -1.6236 -0.0571
   96MOL0     H12917   2.004   1.284  10.297 -0.4357  0.3197 -0.2426
   96MOL0     H12918   1.850   1.509  10.174  0.3587 -1.2035 -1.2364
   96MOL0     H12919   1.835   1.442  10.347  3.4959 -2.2064  1.4685
   96MOL0     H12920   1.643   1.558  10.160 -0.8423  0.3492  1.4541
   96MOL0     H12921   1.354   1.628  10.007  0.9630 -6.1977 -0.8088
   96MOL0     H12922   1.283   1.621  10.167  0.1533  1.6842  0.9147
   96MOL0     H12923   1.440   1.700  10.148 -1.1643  0.1089  1.8898
   96MOL0     H12924   0.994   1.310  10.259 -0.7402  0.6239 -0.1628
   96MOL0     H12925   0.749   1.285  10.260 -0.5349 -0.3674 -0.9526
   96MOL0     H12926   0.582   1.385  10.153  0.9069 -0.5705 -1.7358
   96MOL0     H12927   0.447   1.373  10.042  3.3241  3.1416  0.0908
   96MOL0     H12928   0.359   1.184  10.163 -0.4655  1.6760 -0.6698
   96MOL0     H12929   0.488   1.175  10.275 -1.2495 -0.4389 -0.8265
   96MOL0     H12930   0.293   1.397  10.244 -1.3498 -1.0599  0.6298
   96MOL0     H12931   0.442   1.418  10.335  2.1885 -2.7597  1.2672
   96MOL0     H12932   0.391   1.241  10.490 -0.4133 -0.4466 -0.1216
   96MOL0     H12933   0.259   1.353  10.486 -2.0419  0.0220 -1.2190
   96MOL0     H12934   0.235   1.079  10.363  3.3033 -0.5673  1.6679
   96MOL0     H12935   0.125   1.221  10.337 -1.5613  1.2896  1.9600
   96MOL0     H12936   0.043   1.208  10.547  1.6784  3.4344 -2.8955
   96MOL0     H12937   0.040   1.052  10.476 -2.4153  1.8504  2.5637
   96MOL0     H12938   0.251   1.182  10.652 -1.8680  0.3222  0.4875
   96MOL0     H12939   0.280   1.015  10.592  1.4023  2.0608  0.2132
   96MOL0     H12940   0.043   1.103  10.765  0.8158  1.6617  0.3713
   96MOL0     H12941   0.193   1.031  10.835  0.3239 -1.2479 -0.8865
   96MOL0     H12942   0.770   1.151   9.851 -1.8546 -1.0872  0.7091
   96MOL0     H12943   1.008   1.140   9.859 -3.0004 -2.1453 -1.2290
   96MOL0     H12944   1.378   1.143  10.101 -0.8867  0.1474 -0.5306
   96MOL0     H12945   1.619   1.135  10.154 -1.1980 -0.9556 -1.3328
   96MOL0     H12946   3.432   1.120   9.248  1.3624  2.8396  0.7763
   96MOL0     H12947   3.688   1.070   9.165  3.6616  3.9480  1.5103
   96MOL0     H12948   4.109   1.191   9.334 -0.2775 -1.5402  1.6665
   96MOL0     H12949   4.350   1.205   9.304 -1.7692  1.0461 -1.3348
   96MOL0     H12950   4.555   0.884   9.096 -2.3401  2.9776 -3.2064
   96MOL0     H12951   4.671   1.009   9.050 -1.2494  0.2145 -1.7363
   96MOL0     H12952   4.631   0.879   9.329  0.3867 -0.7375 -0.5035
   96MOL0     H12953   4.713   1.034   9.302  1.5054 -0.9920  0.4205
   96MOL0     H12954   4.891   0.883   9.308 -0.7606  2.2168 -0.9796
   96MOL0     H12955   4.860   0.894   9.127 -1.5164  0.7999 -0.9841
   96MOL0     H12956   4.753   0.686   9.136 -0.0198 -2.4376  1.8728
   96MOL0     H12957   4.749   0.684   9.308 -4.0419  1.5491 -2.4786
   96MOL0     H12958   5.127   0.514   9.212 -0.8694  0.0657 -1.1560
   96MOL0     H12959   4.357   0.849   9.055  0.1775 -0.0348 -1.5696
   96MOL0     H12960   4.102   0.845   9.072  2.2549 -0.9797 -0.6673
   97MOL0     O12961   7.231   2.503   3.860 -0.7088 -0.0763  0.1700
   97MOL0     C12962   7.224   2.429   3.959  0.7824  0.6405 -0.1894
   97MOL0     O12963   7.115   2.348   3.988 -0.3307  0.3443  0.3552
   97MOL0     C12964   7.012   2.340   3.900  0.3513 -0.0618  0.0724
   97MOL0     C12965   7.004   2.247   3.796  0.5280 -0.4785  0.2764
   97MOL0     C12966   6.901   2.258   3.696 -0.0604 -0.2372 -0.0597
   97MOL0     C12967   6.798   2.349   3.709  0.0613  0.2348  0.2679
   97MOL0     O12968   6.696   2.338   3.612  0.3540  0.1625 -0.2648
   97MOL0     C12969   6.657   2.446   3.525 -0.1962  0.3151  0.6831
   97MOL0     C12970   6.547   2.403   3.435  1.3555  0.3536  0.0672
   97MOL0     C12971   6.417   2.407   3.508 -0.0307  0.4414 -0.2041
   97MOL0     C12972   6.305   2.318   3.446  0.4882 -0.6180  0.6881
   97MOL0     C12973   6.158   2.340   3.500 -0.3418  0.5457  0.1202
   97MOL0     C12974   6.066   2.418   3.420 -0.7467 -0.5801 -0.0002
   97MOL0     C12975   5.929   2.428   3.483  0.4745  0.4509 -0.2358
   97MOL0     C12976   5.837   2.499   3.383 -0.2870  0.4901  0.4116
   97MOL0     N12977   5.700   2.485   3.418  0.2211  0.3452  0.5874
   97MOL0     C12978   5.615   2.382   3.387 -0.7849  0.4420  0.9800
   97MOL0     C12979   5.499   2.409   3.441 -0.0747 -0.1953  1.4130
   97MOL0     C12980   5.389   2.304   3.459  0.2291 -0.1305 -0.6152
   97MOL0     C12981   5.317   2.293   3.325 -0.0835  0.0853  0.4341
   97MOL0     C12982   5.213   2.169   3.335  0.2108 -0.0335  0.0578
   97MOL0     C12983   5.082   2.208   3.413  0.0365 -0.5914 -0.4864
   97MOL0     O12984   5.010   2.301   3.330 -0.4355 -0.3184  0.0823
   97MOL0     C12985   4.867   2.305   3.343 -0.4546 -0.5652  0.2271
   97MOL0     C12986   4.800   2.221   3.425 -0.0500  0.0994 -0.2626
   97MOL0     C12987   4.659   2.229   3.431  0.9444  0.5118  0.0894
   97MOL0     C12988   4.592   2.114   3.515 -0.3810 -0.3015 -0.3603
   97MOL0     C12989   4.590   2.327   3.360  0.1930 -0.4106  0.5208
   97MOL0     C12990   4.440   2.348   3.366  0.7241 -0.5845 -0.7502
   97MOL0     O12991   4.372   2.281   3.461 -0.3449 -0.4315  0.9177
   97MOL0     C12992   4.234   2.291   3.451  0.1440 -0.1238  0.2129
   97MOL0     C12993   4.158   2.208   3.376 -0.4521  0.4108 -0.3152
   97MOL0     C12994   4.020   2.226   3.381 -0.1979  0.2981 -0.7551
   97MOL0     C12995   3.959   2.322   3.459 -0.7438 -0.3489 -0.1213
   97MOL0     O12996   3.818   2.348   3.471  0.1186  0.3094 -0.1438
   97MOL0     C12997   3.744   2.306   3.360 -0.0882  1.3866 -0.9802
   97MOL0     C12998   3.614   2.384   3.364 -0.1009 -0.2788 -0.2658
   97MOL0     C12999   3.524   2.336   3.240 -0.0378 -0.3848  0.6879
   97MOL0     C13000   3.392   2.417   3.235  0.2953 -0.2102  0.5731
   97MOL0     C13001   3.345   2.410   3.088  0.4809 -0.3598 -0.4109
   97MOL0     C13002   3.221   2.494   3.071 -0.1612  0.1620  0.4970
   97MOL0     C13003   3.090   2.417   3.033 -0.3036 -0.1384 -0.2299
   97MOL0     C13004   2.965   2.510   3.025  0.2650 -0.3055  0.3325
   97MOL0    Cl13005   2.960   2.598   3.181  0.4315  0.1281  0.0076
   97MOL0     C13006   4.043   2.409   3.528  0.1530  0.1388 -0.1577
   97MOL0     C13007   4.180   2.396   3.521  0.4059 -0.2139 -0.5464
   97MOL0     O13008   4.392   2.442   3.298 -0.4411 -0.2173  0.1807
   97MOL0     C13009   4.663   2.409   3.277 -0.6381 -0.6292 -0.7040
   97MOL0     C13010   4.800   2.400   3.269  0.2872 -0.0354 -0.3779
   97MOL0     N13011   5.514   2.532   3.503  0.3917  0.0741 -0.2559
   97MOL0     N13012   5.631   2.575   3.496  0.1121 -0.7540 -0.6947
   97MOL0     C13013   6.796   2.431   3.823 -0.5133  0.3481 -0.3001
   97MOL0     C13014   6.904   2.428   3.916 -0.2537  0.1972 -0.2528
   97MOL0     C13015   7.347   2.401   4.042 -0.1711 -0.3387  0.2565
   97MOL0     C13016   7.480   2.427   3.987 -0.5070 -0.9954 -0.8979
   97MOL0     C13017   7.591   2.409   4.071 -0.2716  0.7732 -0.2502
   97MOL0     C13018   7.578   2.382   4.207 -0.9131  0.1472  0.5603
   97MOL0     O13019   7.690   2.381   4.286 -0.0652 -0.2397  0.2315
   97MOL0     C13020   7.687   2.310   4.412  0.0337  0.3388 -0.4915
   97MOL0     C13021   7.799   2.366   4.483 -0.4427 -0.2953  0.6710
   97MOL0     C13022   7.943   2.316   4.440  0.2163  0.1829  0.7955
   97MOL0     C13023   8.003   2.398   4.325 -0.2237 -0.1219 -0.4056
   97MOL0     C13024   8.144   2.348   4.306  0.5206 -0.4273 -0.1070
   97MOL0     C13025   8.256   2.304   4.304 -0.8587  0.0657 -0.8842
   97MOL0     C13026   7.448   2.356   4.254  1.1225 -0.3828 -0.6146
   97MOL0     C13027   7.337   2.368   4.177 -0.7380  0.1283 -0.0454
   97MOL0     H13028   7.074   2.167   3.776  0.4640 -0.3288 -0.5796
   97MOL0     H13029   6.909   2.181   3.620 -0.4520 -0.8159  0.4796
   97MOL0     H13030   6.623   2.536   3.577 -4.9700 -2.1830  2.5393
   97MOL0     H13031   6.748   2.442   3.465 -2.5095 -1.6274 -3.0834
   97MOL0     H13032   6.536   2.465   3.345  0.0637 -0.8692 -0.6454
   97MOL0     H13033   6.565   2.305   3.389  1.0067  1.2515 -2.1004
   97MOL0     H13034   6.435   2.385   3.614  0.4169 -2.4808 -0.8115
   97MOL0     H13035   6.370   2.506   3.502 -0.6814  0.1801  0.4828
   97MOL0     H13036   6.298   2.330   3.337 -3.0805  1.1783  0.9817
   97MOL0     H13037   6.336   2.214   3.461  2.1525 -0.6902 -2.2568
   97MOL0     H13038   6.107   2.243   3.506 -1.4684  1.1989  1.4422
   97MOL0     H13039   6.160   2.376   3.603 -2.6591  2.8835 -0.5413
   97MOL0     H13040   6.117   2.514   3.408  0.5711 -0.6514  3.6280
   97MOL0     H13041   6.057   2.376   3.319 -0.0506  1.7734 -1.1032
   97MOL0     H13042   5.887   2.329   3.502  1.3087  0.0365 -0.4648
   97MOL0     H13043   5.938   2.491   3.572 -1.1350  2.3957 -1.3627
   97MOL0     H13044   5.859   2.455   3.285  0.5479  1.3336  0.2029
   97MOL0     H13045   5.861   2.606   3.381  0.9711  0.3930  3.7878
   97MOL0     H13046   5.636   2.295   3.324  1.4302  0.2032  1.9409
   97MOL0     H13047   5.424   2.206   3.494  1.8420  0.2824 -0.9903
   97MOL0     H13048   5.317   2.337   3.534 -1.2002 -0.9081 -1.6018
   97MOL0     H13049   5.375   2.282   3.233 -0.2865 -1.8036  0.4955
   97MOL0     H13050   5.263   2.387   3.309  0.2467  0.5227  1.7530
   97MOL0     H13051   5.262   2.080   3.377  0.3412  0.0893  0.1664
   97MOL0     H13052   5.187   2.121   3.240 -1.0958 -0.4385  0.5940
   97MOL0     H13053   5.104   2.251   3.512  2.3441 -0.8167 -0.8434
   97MOL0     H13054   5.036   2.110   3.425 -0.7584 -0.4983 -2.4686
   97MOL0     H13055   4.854   2.146   3.482  2.1135  0.1756 -2.0786
   97MOL0     H13056   4.539   2.044   3.450 -2.1902  0.3187  0.3815
   97MOL0     H13057   4.675   2.060   3.561  0.7027  2.0446  0.5851
   97MOL0     H13058   4.530   2.137   3.603  1.9845 -1.0918  1.6208
   97MOL0     H13059   4.207   2.136   3.311 -0.5556  1.4450 -1.5680
   97MOL0     H13060   3.953   2.157   3.330 -3.6865  3.3127 -0.6907
   97MOL0     H13061   3.813   2.316   3.276  1.0137 -1.1538 -0.4605
   97MOL0     H13062   3.720   2.200   3.371  3.4151  0.5932  0.5615
   97MOL0     H13063   3.561   2.362   3.457 -1.8025  3.0508 -0.2939
   97MOL0     H13064   3.645   2.489   3.363  2.2939 -0.8209  3.0629
   97MOL0     H13065   3.509   2.228   3.237 -0.7776 -0.3062  1.1902
   97MOL0     H13066   3.589   2.366   3.158  1.0872 -2.3179  0.8064
   97MOL0     H13067   3.325   2.380   3.313  1.2436 -2.1822  0.5022
   97MOL0     H13068   3.408   2.524   3.254  0.7094 -0.2141  0.2645
   97MOL0     H13069   3.324   2.313   3.043 -1.6508  0.2987 -0.9559
   97MOL0     H13070   3.420   2.451   3.021  0.6138  1.9056  1.0042
   97MOL0     H13071   3.214   2.565   3.154 -2.1850 -0.2322  0.6991
   97MOL0     H13072   3.238   2.559   2.985 -0.5617  0.5789  0.7287
   97MOL0     H13073   3.074   2.328   3.094 -2.0974  0.9281  0.9122
   97MOL0     H13074   3.107   2.371   2.935  2.9562 -1.0084  0.6146
   97MOL0     H13075   2.878   2.444   3.020  0.6791 -0.8366 -0.0035
   97MOL0     H13076   2.966   2.576   2.938 -0.5273 -2.3640 -1.3288
   97MOL0     H13077   4.001   2.501   3.568  1.5293  0.5979  0.2885
   97MOL0     H13078   4.236   2.475   3.571  0.6011 -0.0165 -1.0705
   97MOL0     H13079   4.616   2.482   3.212  0.9451 -0.2633 -1.4961
   97MOL0     H13080   4.864   2.463   3.208  0.4490 -1.6338 -1.9132
   97MOL0     H13081   6.714   2.499   3.841 -1.4619 -0.8330 -0.0289
   97MOL0     H13082   6.901   2.493   4.002  2.4011 -0.9102  0.7709
   97MOL0     H13083   7.500   2.472   3.890 -0.7253  1.7146  0.2077
   97MOL0     H13084   7.689   2.433   4.029 -1.3494  2.9787 -1.6856
   97MOL0     H13085   7.592   2.321   4.466 -0.9552 -0.0879 -2.0640
   97MOL0     H13086   7.699   2.202   4.395 -1.8111 -0.1917  1.1892
   97MOL0     H13087   7.787   2.342   4.590  2.0490 -0.9970  0.8654
   97MOL0     H13088   7.797   2.475   4.480 -3.6237 -0.2601  0.2079
   97MOL0     H13089   7.951   2.209   4.416  0.6373  0.2589  0.6018
   97MOL0     H13090   7.995   2.343   4.532 -1.8241  1.7076  1.5886
   97MOL0     H13091   8.006   2.503   4.354  1.3628  0.0068 -0.9832
   97MOL0     H13092   7.948   2.383   4.232 -0.8547 -1.3496  0.1298
   97MOL0     H13093   8.349   2.253   4.290  0.0610  1.1143  0.9475
   97MOL0     H13094   7.427   2.327   4.357  4.5730 -0.2730  0.2574
   97MOL0     H13095   7.239   2.330   4.207  0.0303 -1.5835  0.4002
   98MOL0     O13096   9.544   4.143   7.705 -0.2406  0.7507 -0.0068
   98MOL0     C13097   9.624   4.190   7.626  0.3902  0.5427  0.7372
   98MOL0     O13098   9.596   4.210   7.490 -0.0755 -0.1010 -0.2084
   98MOL0     C13099   9.480   4.177   7.433  0.1612 -0.4832  0.1993
   98MOL0     C13100   9.397   4.070   7.471  0.0207  0.4259 -0.0126
   98MOL0     C13101   9.277   4.041   7.409  0.0372 -0.2271 -0.0187
   98MOL0     C13102   9.236   4.114   7.295  0.1544 -0.1430  0.7956
   98MOL0     O13103   9.110   4.102   7.235 -0.1812 -0.2293 -0.8398
   98MOL0     C13104   9.003   4.125   7.329 -0.2943 -0.0360  0.1656
   98MOL0     C13105   8.957   3.994   7.390 -0.1705  0.9598  0.2834
   98MOL0     C13106   8.931   3.886   7.277  0.4585 -0.2809 -0.4015
   98MOL0     C13107   8.929   3.746   7.330  0.0759 -0.9479  0.1349
   98MOL0     C13108   8.885   3.646   7.219  0.0581 -0.5115  0.0137
   98MOL0     C13109   8.999   3.634   7.114 -0.8538  0.0734  0.4668
   98MOL0     C13110   9.144   3.666   7.149  0.7184 -0.0506 -0.5477
   98MOL0     C13111   9.242   3.620   7.035 -0.6918  0.5936  0.7822
   98MOL0     N13112   9.346   3.712   6.992 -0.7442 -0.0728  0.3487
   98MOL0     C13113   9.413   3.790   7.085  0.1875  0.5485  0.2193
   98MOL0     C13114   9.531   3.831   7.024  0.1983  0.4199 -0.0111
   98MOL0     C13115   9.637   3.923   7.082 -0.6683  0.3609 -0.0237
   98MOL0     C13116   9.718   4.009   6.975  0.0579 -0.3927 -0.1743
   98MOL0     C13117   9.630   4.105   6.902 -0.2602  0.8524  0.2406
   98MOL0     C13118   9.573   4.213   6.985 -0.3117  0.7983 -1.0259
   98MOL0     O13119   9.503   4.300   6.897 -0.4112 -0.0459  0.6248
   98MOL0     C13120   9.378   4.271   6.857  0.7169 -0.1247 -1.0186
   98MOL0     C13121   9.305   4.157   6.887  0.5146  0.3688 -0.0766
   98MOL0     C13122   9.181   4.128   6.835  0.0730 -0.5876  0.3121
   98MOL0     C13123   9.117   3.999   6.879  0.2696  0.6384 -0.4514
   98MOL0     C13124   9.122   4.227   6.756  0.4469 -0.2348  0.0286
   98MOL0     C13125   8.990   4.217   6.694  0.6971 -0.3214 -0.5088
   98MOL0     O13126   8.909   4.327   6.696  0.5470  0.4607 -0.2775
   98MOL0     C13127   8.813   4.325   6.602  0.7009 -0.4506 -0.7397
   98MOL0     C13128   8.684   4.292   6.645  0.7125  0.6662 -0.2479
   98MOL0     C13129   8.582   4.274   6.546 -0.6820 -0.2036 -0.3647
   98MOL0     C13130   8.619   4.308   6.410  0.7797 -0.2086  1.0578
   98MOL0     O13131   8.528   4.272   6.305 -0.3118 -0.5678 -0.0080
   98MOL0     C13132   8.587   4.204   6.195 -0.3326  0.0092  0.8852
   98MOL0     C13133   8.486   4.184   6.080 -1.0020  0.6391 -0.1803
   98MOL0     C13134   8.554   4.098   5.967  0.4951 -0.6804 -1.1463
   98MOL0     C13135   8.458   4.098   5.849  0.3369 -0.3484  0.0825
   98MOL0     C13136   8.519   4.022   5.728 -0.2684  0.3315  0.1108
   98MOL0     C13137   8.627   4.101   5.653 -0.2627  0.5324  0.0483
   98MOL0     C13138   8.681   4.011   5.541  0.8801 -0.8559  0.5195
   98MOL0     C13139   8.776   4.093   5.452 -0.2570  0.6339 -0.8270
   98MOL0    Cl13140   8.910   4.159   5.547 -0.0040  0.4100  0.0499
   98MOL0     C13141   8.738   4.373   6.378  0.3123 -0.5141 -0.3316
   98MOL0     C13142   8.838   4.376   6.476 -0.2982  0.2744 -0.3554
   98MOL0     O13143   8.963   4.103   6.652  0.5089  0.2180  0.5667
   98MOL0     C13144   9.181   4.354   6.731  0.1256 -0.1107 -0.4954
   98MOL0     C13145   9.316   4.364   6.773  0.0343 -0.4806 -0.3199
   98MOL0     N13146   9.532   3.776   6.892 -0.3581  0.2761 -0.2322
   98MOL0     N13147   9.424   3.704   6.876 -0.4286 -0.0366  0.1397
   98MOL0     C13148   9.311   4.226   7.261 -0.5613 -0.6176  0.3770
   98MOL0     C13149   9.439   4.259   7.322  0.6943 -0.0918  0.5028
   98MOL0     C13150   9.760   4.220   7.670 -0.4085 -0.2409  0.7065
   98MOL0     C13151   9.797   4.217   7.803  0.0291 -0.0772 -0.4420
   98MOL0     C13152   9.929   4.255   7.830 -0.2408 -0.0753  0.4349
   98MOL0     C13153  10.014   4.307   7.736 -0.2291  0.3680 -0.0670
   98MOL0     O13154  10.145   4.340   7.780  0.9419  0.7449  0.0215
   98MOL0     C13155  10.213   4.427   7.699  0.2813  0.6344 -0.4739
   98MOL0     C13156  10.349   4.366   7.675 -0.3368  0.3431  0.9535
   98MOL0     C13157  10.424   4.476   7.588 -0.5310 -0.2870 -0.1259
   98MOL0     C13158  10.571   4.431   7.557 -0.6682 -0.2215 -0.3890
   98MOL0     C13159  10.638   4.513   7.464 -0.8065  0.5856  0.4025
   98MOL0     C13160  10.708   4.585   7.391  0.1124 -0.2209  0.4558
   98MOL0     C13161   9.986   4.283   7.604  0.4918  1.1162  0.3056
   98MOL0     C13162   9.854   4.254   7.571 -0.9854 -0.6484  0.1506
   98MOL0     H13163   9.420   4.006   7.556 -0.1787  0.0271 -0.2521
   98MOL0     H13164   9.228   3.955   7.453  0.1025  0.2312  0.9667
   98MOL0     H13165   9.009   4.199   7.410  0.3697  0.1722 -0.0607
   98MOL0     H13166   8.922   4.163   7.266  1.3448  1.0578 -1.4119
   98MOL0     H13167   9.023   3.948   7.465  0.3443 -3.2855 -2.4092
   98MOL0     H13168   8.860   4.016   7.435  0.2425 -0.0944  1.7795
   98MOL0     H13169   8.837   3.919   7.234  0.3932 -0.7209 -0.5904
   98MOL0     H13170   9.010   3.902   7.202  0.8541  1.9793  0.4049
   98MOL0     H13171   9.021   3.710   7.378  0.7619 -0.2846 -0.6577
   98MOL0     H13172   8.856   3.746   7.412  1.7270 -0.3204  1.6802
   98MOL0     H13173   8.874   3.547   7.264  0.2409 -0.6479 -0.2372
   98MOL0     H13174   8.793   3.689   7.178 -1.5185 -1.4849  2.3489
   98MOL0     H13175   8.993   3.529   7.085 -2.4914 -0.3410  2.1537
   98MOL0     H13176   8.969   3.691   7.026  0.0142  0.1315  0.1988
   98MOL0     H13177   9.164   3.774   7.146  2.3682 -0.2634  1.1497
   98MOL0     H13178   9.163   3.621   7.247 -1.0571 -1.4032 -0.7915
   98MOL0     H13179   9.193   3.578   6.947  0.4696 -1.2186  0.9330
   98MOL0     H13180   9.301   3.532   7.065  0.8405  0.4626 -2.1511
   98MOL0     H13181   9.376   3.814   7.184  1.4571 -0.1608  0.8788
   98MOL0     H13182   9.597   3.985   7.163 -0.5885  0.7660 -0.2965
   98MOL0     H13183   9.717   3.870   7.134  0.3927  1.2935 -0.6705
   98MOL0     H13184   9.755   3.934   6.904 -1.5903 -0.9836 -0.4753
   98MOL0     H13185   9.808   4.051   7.020 -0.9320  0.2406  1.2912
   98MOL0     H13186   9.552   4.050   6.850 -0.2495  0.5419  0.5555
   98MOL0     H13187   9.694   4.146   6.824  1.7523 -0.5700  1.0604
   98MOL0     H13188   9.654   4.269   7.032  0.2300  1.0565 -2.2456
   98MOL0     H13189   9.505   4.186   7.067  0.6079  3.2482  0.6785
   98MOL0     H13190   9.348   4.081   6.952 -1.4135  0.7936  1.8217
   98MOL0     H13191   9.098   3.930   6.796 -1.3530 -1.7541  1.7547
   98MOL0     H13192   9.188   3.947   6.944  2.6212  0.5310 -2.9193
   98MOL0     H13193   9.023   4.013   6.932  0.3790  0.8487 -0.3129
   98MOL0     H13194   8.668   4.279   6.752  2.7811 -1.6210 -0.1306
   98MOL0     H13195   8.487   4.229   6.571  0.3678 -1.5128  1.5379
   98MOL0     H13196   8.673   4.262   6.162 -2.4858  2.2972 -1.1446
   98MOL0     H13197   8.619   4.109   6.238  0.0031 -0.5674 -0.5810
   98MOL0     H13198   8.396   4.129   6.110 -1.6556  0.1320 -2.8248
   98MOL0     H13199   8.460   4.274   6.025 -2.1844  0.4435  0.0392
   98MOL0     H13200   8.587   3.996   5.989 -1.4051 -1.2344 -0.6235
   98MOL0     H13201   8.636   4.162   5.935 -1.4940  3.1690  0.7656
   98MOL0     H13202   8.361   4.050   5.863 -1.5774  2.6811 -1.5322
   98MOL0     H13203   8.428   4.201   5.825 -1.4701 -0.2404  2.4171
   98MOL0     H13204   8.442   4.008   5.652  1.2104  0.7421 -1.5219
   98MOL0     H13205   8.560   3.924   5.757  2.9646  0.5314 -3.0331
   98MOL0     H13206   8.585   4.190   5.606 -0.0077  1.1943  1.0254
   98MOL0     H13207   8.704   4.133   5.724 -1.2765 -1.3397  2.1250
   98MOL0     H13208   8.601   3.964   5.483  1.2974  0.1714 -0.9478
   98MOL0     H13209   8.751   3.934   5.576  2.6923 -0.3302 -1.6485
   98MOL0     H13210   8.715   4.167   5.400 -0.3100  1.2627  0.0928
   98MOL0     H13211   8.819   4.031   5.373  1.3792 -1.8112  1.7819
   98MOL0     H13212   8.756   4.414   6.279 -2.1309  0.9465 -0.2400
   98MOL0     H13213   8.937   4.416   6.456  0.5472  1.4892  4.9736
   98MOL0     H13214   9.120   4.426   6.677 -0.1462 -1.0975 -1.5339
   98MOL0     H13215   9.367   4.454   6.741 -1.5809  0.5338 -0.1043
   98MOL0     H13216   9.283   4.281   7.172  0.9772  1.2453  0.9982
   98MOL0     H13217   9.502   4.332   7.272  0.0147 -0.3194 -0.7487
   98MOL0     H13218   9.740   4.177   7.887  2.4674 -2.8143  0.0626
   98MOL0     H13219   9.967   4.223   7.927  0.4512 -3.0831 -0.7089
   98MOL0     H13220  10.165   4.450   7.603 -1.5740 -3.1514 -0.6034
   98MOL0     H13221  10.225   4.527   7.743  1.1217  2.3935 -4.2410
   98MOL0     H13222  10.336   4.273   7.619  1.5263 -0.3275  1.5587
   98MOL0     H13223  10.393   4.333   7.769  1.4054  1.2879  0.5092
   98MOL0     H13224  10.429   4.569   7.645  1.9964 -2.3206  3.3306
   98MOL0     H13225  10.372   4.491   7.493 -1.4199 -0.5985  0.3000
   98MOL0     H13226  10.572   4.326   7.525 -2.5186  0.0070 -1.3496
   98MOL0     H13227  10.627   4.427   7.651 -4.2789  1.2883  2.0429
   98MOL0     H13228  10.765   4.638   7.318  0.8524 -2.5476 -0.7569
   98MOL0     H13229  10.054   4.297   7.521  0.4328 -0.2999 -0.0070
   98MOL0     H13230   9.842   4.256   7.463 -2.0515  2.2357  0.2505
   99MOL0     O13231   9.389   8.293   0.595 -0.6819 -0.4051 -0.0374
   99MOL0     C13232   9.447   8.294   0.701  0.3292 -0.1599 -0.1191
   99MOL0     O13233   9.404   8.235   0.819  0.6420  0.1653 -0.2755
   99MOL0     C13234   9.278   8.181   0.810  0.5771  0.5004 -0.3569
   99MOL0     C13235   9.261   8.041   0.773  0.2118  0.2838 -1.0211
   99MOL0     C13236   9.140   7.977   0.795 -0.2416 -0.4863 -0.1834
   99MOL0     C13237   9.029   8.061   0.828  0.4390  0.1402  0.2678
   99MOL0     O13238   8.912   7.991   0.844  0.4410 -0.4716 -0.0866
   99MOL0     C13239   8.790   8.061   0.834  0.0249  0.0014  0.0785
   99MOL0     C13240   8.677   7.952   0.821 -0.2005 -0.9039 -1.2258
   99MOL0     C13241   8.537   7.998   0.790  0.9280  0.2493 -0.8780
   99MOL0     C13242   8.442   7.886   0.750 -0.9100  0.5954 -0.2412
   99MOL0     C13243   8.295   7.943   0.758  0.2920  0.8924 -0.6481
   99MOL0     C13244   8.200   7.844   0.682  0.3838  1.1439  0.1653
   99MOL0     C13245   8.059   7.899   0.675  0.0676  0.0113  0.3748
   99MOL0     C13246   7.977   7.821   0.569 -0.4224 -0.5426  1.0365
   99MOL0     N13247   8.039   7.861   0.431  0.7309  0.3301  0.3785
   99MOL0     C13248   8.017   7.987   0.370 -0.8133  0.0380 -0.5016
   99MOL0     C13249   8.090   7.981   0.259 -1.5452 -0.3144 -0.1391
   99MOL0     C13250   8.087   8.085   0.155 -0.2434  0.0949  0.1351
   99MOL0     C13251   7.954   8.101   0.085  0.2161 -0.6260  0.0429
   99MOL0     C13252   7.917   8.229   0.012 -0.1890 -0.2862 -1.1095
   99MOL0     C13253   8.023   8.279  -0.085 -0.6156  1.0688 -0.3338
   99MOL0     O13254   8.047   8.176  -0.184  0.3937 -0.7185 -0.1644
   99MOL0     C13255   8.161   8.177  -0.264 -0.1522 -0.6597  0.6070
   99MOL0     C13256   8.177   8.076  -0.362 -0.0433  0.7421  0.0174
   99MOL0     C13257   8.281   8.081  -0.453 -0.2227 -0.1207 -0.5857
   99MOL0     C13258   8.290   7.955  -0.539  0.8047 -1.5263  0.7650
   99MOL0     C13259   8.369   8.188  -0.457 -0.0580 -0.4426  0.5156
   99MOL0     C13260   8.494   8.184  -0.537  0.8159 -0.2584 -0.3329
   99MOL0     O13261   8.518   8.290  -0.620 -0.1511  0.4860  0.5149
   99MOL0     C13262   8.646   8.302  -0.664 -0.3892 -0.1129 -0.4032
   99MOL0     C13263   8.764   8.316  -0.577 -0.2020  0.0580  0.2367
   99MOL0     C13264   8.889   8.341  -0.641 -0.1650 -0.2500  0.7240
   99MOL0     C13265   8.906   8.336  -0.786 -0.1385  0.1061 -0.6997
   99MOL0     O13266   9.020   8.348  -0.853 -0.7031  0.3350 -0.2729
   99MOL0     C13267   9.130   8.280  -0.785 -0.2570 -0.1953 -0.0625
   99MOL0     C13268   9.264   8.305  -0.864 -0.8261 -1.0507 -0.2471
   99MOL0     C13269   9.377   8.227  -0.793  0.0178  0.4134  0.0307
   99MOL0     C13270   9.509   8.230  -0.874 -0.1839 -0.8524  0.2822
   99MOL0     C13271   9.622   8.136  -0.827  0.5376  0.8068  0.1534
   99MOL0     C13272   9.690   8.200  -0.706  0.6434 -0.0447 -0.1776
   99MOL0     C13273   9.758   8.084  -0.635 -0.1687 -0.1391  0.6486
   99MOL0     C13274   9.813   8.110  -0.491  0.1518 -0.2233  0.9136
   99MOL0    Cl13275   9.665   8.133  -0.389 -0.4329  0.0204 -0.1598
   99MOL0     C13276   8.790   8.335  -0.858  0.0618  0.3269 -0.6012
   99MOL0     C13277   8.668   8.314  -0.806 -0.1449 -0.1834 -0.1363
   99MOL0     O13278   8.573   8.092  -0.515  0.7398 -0.5186  0.3092
   99MOL0     C13279   8.356   8.291  -0.358  0.2508 -0.1438  0.6468
   99MOL0     C13280   8.254   8.280  -0.260  0.0223  0.1527 -0.2427
   99MOL0     N13281   8.151   7.854   0.256 -0.5463  1.4944  0.8072
   99MOL0     N13282   8.119   7.781   0.360  0.5713  0.1980 -0.2670
   99MOL0     C13283   9.043   8.202   0.853  0.8484  0.2323  0.2872
   99MOL0     C13284   9.167   8.256   0.850 -0.7348 -1.0152 -0.0692
   99MOL0     C13285   9.590   8.357   0.697  0.2963  0.0411  0.0246
   99MOL0     C13286   9.687   8.302   0.782 -1.6651 -0.7902 -1.2416
   99MOL0     C13287   9.813   8.363   0.771 -0.6257  0.2234 -0.1652
   99MOL0     C13288   9.849   8.465   0.684 -0.2557 -0.0817 -0.1645
   99MOL0     O13289   9.979   8.502   0.676  0.4078  0.6696  0.3075
   99MOL0     C13290  10.009   8.606   0.757 -1.1362  0.9856 -0.0343
   99MOL0     C13291  10.161   8.597   0.780  0.7400 -0.2539 -0.1279
   99MOL0     C13292  10.207   8.681   0.899 -0.3825  0.0745 -0.2788
   99MOL0     C13293  10.362   8.707   0.907 -0.3619 -0.1340 -0.1601
   99MOL0     C13294  10.438   8.596   0.965  0.3705  0.3592 -0.2603
   99MOL0     C13295  10.507   8.508   1.008 -0.1395 -0.5171  0.3930
   99MOL0     C13296   9.746   8.513   0.607 -0.7247 -0.8969  0.7421
   99MOL0     C13297   9.618   8.461   0.612  0.1257  0.8382  0.8211
   99MOL0     H13298   9.341   7.972   0.749  0.2612 -0.3611  0.8579
   99MOL0     H13299   9.132   7.870   0.781  0.8225 -0.6014  0.0688
   99MOL0     H13300   8.767   8.127   0.918  1.6997 -0.1321  0.6714
   99MOL0     H13301   8.788   8.111   0.736  1.9078 -3.0388 -1.6822
   99MOL0     H13302   8.710   7.883   0.743  0.3940 -2.9983  0.7630
   99MOL0     H13303   8.665   7.899   0.916  0.2385  0.6214 -0.2822
   99MOL0     H13304   8.497   8.046   0.880  2.8888 -0.3867  0.4010
   99MOL0     H13305   8.533   8.068   0.705 -0.5654 -1.7539 -2.5776
   99MOL0     H13306   8.458   7.847   0.650  0.1203 -0.1291  0.1898
   99MOL0     H13307   8.459   7.798   0.813  1.9169  0.3948 -1.1539
   99MOL0     H13308   8.264   7.944   0.863  2.7500  1.4464  0.1415
   99MOL0     H13309   8.301   8.040   0.707  0.6360  0.0831 -2.2152
   99MOL0     H13310   8.251   7.828   0.587  0.2832  2.9513 -0.2244
   99MOL0     H13311   8.201   7.749   0.736  0.3164  1.9546  1.6787
   99MOL0     H13312   8.016   7.875   0.773  1.8451  2.7889  1.9560
   99MOL0     H13313   8.047   8.006   0.659 -5.3911 -0.0168  2.0229
   99MOL0     H13314   7.869   7.835   0.572 -0.6012 -1.7792  0.9698
   99MOL0     H13315   7.989   7.715   0.590  0.1630 -1.3712 -2.7076
   99MOL0     H13316   7.943   8.062   0.395 -0.2706 -0.2871  2.4178
   99MOL0     H13317   8.117   8.178   0.205 -1.0624  1.1293 -1.2501
   99MOL0     H13318   8.157   8.069   0.073 -0.2166 -1.6192  0.4483
   99MOL0     H13319   7.872   8.085   0.156  1.3154 -0.5847  1.3567
   99MOL0     H13320   7.944   8.020   0.012 -3.5319  0.2752 -0.6421
   99MOL0     H13321   7.913   8.306   0.090  1.4361 -1.5863  0.3399
   99MOL0     H13322   7.821   8.210  -0.037 -2.3315  0.7480  2.3377
   99MOL0     H13323   8.113   8.290  -0.023  0.8298 -1.4202 -1.8135
   99MOL0     H13324   7.994   8.374  -0.130  0.4975  1.6134  0.0659
   99MOL0     H13325   8.093   8.007  -0.359 -0.9771  1.8245 -0.4220
   99MOL0     H13326   8.210   7.957  -0.613  0.5287  0.1702  1.0805
   99MOL0     H13327   8.379   7.952  -0.603  0.0250 -0.0510 -0.4365
   99MOL0     H13328   8.280   7.862  -0.483  0.8383 -1.9420  0.0941
   99MOL0     H13329   8.747   8.312  -0.470 -1.0002  2.4263  0.2422
   99MOL0     H13330   8.971   8.372  -0.576  0.3804  1.4829 -0.7181
   99MOL0     H13331   9.144   8.325  -0.687 -1.7618 -1.5418  0.8261
   99MOL0     H13332   9.111   8.173  -0.769  1.6489 -0.7512 -1.2067
   99MOL0     H13333   9.240   8.260  -0.961 -2.0996  1.8414 -1.3767
   99MOL0     H13334   9.296   8.409  -0.871 -2.3971 -0.3874  1.5607
   99MOL0     H13335   9.340   8.124  -0.796 -1.1314  0.8314 -1.2384
   99MOL0     H13336   9.384   8.265  -0.690  1.9317  2.5740 -0.8087
   99MOL0     H13337   9.489   8.212  -0.980 -2.0123  2.5983 -0.1119
   99MOL0     H13338   9.542   8.334  -0.879  0.0998 -0.9333  0.4750
   99MOL0     H13339   9.692   8.119  -0.910 -1.2791 -1.3646 -1.0303
   99MOL0     H13340   9.582   8.039  -0.795  0.9391  1.0939  1.5935
   99MOL0     H13341   9.768   8.266  -0.747 -0.2950  1.9594  1.1193
   99MOL0     H13342   9.624   8.257  -0.640  0.9080 -1.1718  1.1070
   99MOL0     H13343   9.843   8.048  -0.692 -1.1413 -1.6109  0.0876
   99MOL0     H13344   9.693   7.997  -0.628  2.5745 -2.2184  1.8255
   99MOL0     H13345   9.865   8.206  -0.488 -3.9639  2.2426  0.1262
   99MOL0     H13346   9.880   8.029  -0.458  0.3538  0.9157  3.5581
   99MOL0     H13347   8.801   8.327  -0.966  1.8554  0.7247 -0.4722
   99MOL0     H13348   8.583   8.313  -0.874 -2.4866 -0.5869  2.6087
   99MOL0     H13349   8.432   8.369  -0.355 -1.6373  1.8541 -0.6927
   99MOL0     H13350   8.256   8.358  -0.185 -1.7283 -1.5551  1.7436
   99MOL0     H13351   8.965   8.269   0.889  0.9579  2.8890 -3.8275
   99MOL0     H13352   9.192   8.357   0.880 -1.7742 -1.3293  2.0204
   99MOL0     H13353   9.656   8.219   0.844  0.1048 -0.9345 -0.4976
   99MOL0     H13354   9.892   8.328   0.836  0.5740  3.1238  0.0840
   99MOL0     H13355   9.983   8.694   0.698 -1.9757  0.1618 -0.9265
   99MOL0     H13356   9.957   8.594   0.853 -0.8397  0.2387  0.0374
   99MOL0     H13357  10.189   8.624   0.678  0.2805 -0.5535 -0.3330
   99MOL0     H13358  10.182   8.490   0.795  0.8649 -0.4189 -1.4167
   99MOL0     H13359  10.169   8.638   0.992 -1.7409  0.9583 -0.4002
   99MOL0     H13360  10.163   8.781   0.890 -0.5414  0.0850  0.5509
   99MOL0     H13361  10.380   8.797   0.967 -0.5986  0.2587 -0.6642
   99MOL0     H13362  10.390   8.714   0.801 -2.1346  0.7858 -0.6100
   99MOL0     H13363  10.563   8.427   1.049 -2.3199 -2.8176 -0.8713
   99MOL0     H13364   9.760   8.599   0.543  0.0814 -1.7570 -0.2682
   99MOL0     H13365   9.550   8.502   0.537  0.7779  0.1265 -0.1884
  100MOL0     O13366   6.467   3.667   0.756 -0.0503 -0.3048  0.3963
  100MOL0     C13367   6.528   3.594   0.679 -0.9800 -0.3146 -0.0438
  100MOL0     O13368   6.643   3.627   0.627 -0.0063 -0.1328 -0.5093
  100MOL0     C13369   6.668   3.767   0.614  0.8102  0.2997 -1.0402
  100MOL0     C13370   6.579   3.885   0.600  0.1285 -0.1689 -0.6440
  100MOL0     C13371   6.620   4.017   0.595 -0.2210 -0.2693  0.1973
  100MOL0     C13372   6.758   4.042   0.592 -0.3172  0.6598  0.2385
  100MOL0     O13373   6.798   4.163   0.560 -0.5433  0.0518  0.1569
  100MOL0     C13374   6.917   4.213   0.623 -0.1086  0.2537  0.0021
  100MOL0     C13375   6.944   4.354   0.573 -0.8228 -0.3438 -0.1728
  100MOL0     C13376   6.961   4.350   0.422 -0.2118 -0.4472 -0.6526
  100MOL0     C13377   6.967   4.490   0.354  0.4010 -0.9498 -0.0760
  100MOL0     C13378   6.978   4.472   0.200 -0.4172 -0.2495 -0.5007
  100MOL0     C13379   6.963   4.602   0.122  0.2505  0.4167 -0.4240
  100MOL0     C13380   6.927   4.575  -0.021 -0.1720 -1.0021 -0.4677
  100MOL0     C13381   6.859   4.701  -0.105 -0.4501  0.0059 -0.0039
  100MOL0     N13382   6.718   4.722  -0.087  0.0546 -0.3091 -0.0548
  100MOL0     C13383   6.617   4.671  -0.171 -0.2381 -0.7811  0.9601
  100MOL0     C13384   6.510   4.731  -0.130  0.6452  0.6089 -0.0208
  100MOL0     C13385   6.372   4.705  -0.183  0.2801  0.0833 -0.1248
  100MOL0     C13386   6.266   4.698  -0.078 -0.7264 -0.3407  0.0663
  100MOL0     C13387   6.123   4.696  -0.135  0.1530 -0.2699 -0.4126
  100MOL0     C13388   6.102   4.606  -0.252  1.0784 -0.1587 -0.7547
  100MOL0     O13389   6.110   4.460  -0.227  0.8534  0.4179  0.1439
  100MOL0     C13390   5.996   4.398  -0.196 -0.6159  0.6124  0.7276
  100MOL0     C13391   5.945   4.392  -0.069  1.4369  0.2979  0.3636
  100MOL0     C13392   5.820   4.323  -0.041 -0.4005  0.8965 -0.2934
  100MOL0     C13393   5.782   4.310   0.106  0.6674 -0.2060  0.2521
  100MOL0     C13394   5.755   4.262  -0.148  0.1548 -0.3850 -0.3952
  100MOL0     C13395   5.631   4.199  -0.135  0.3894  0.2312 -0.8743
  100MOL0     O13396   5.548   4.225  -0.026 -0.8541  0.2089  0.1167
  100MOL0     C13397   5.432   4.162  -0.013 -1.2462 -0.0239 -1.0427
  100MOL0     C13398   5.405   4.096   0.098  0.3743 -0.0093 -0.2494
  100MOL0     C13399   5.271   4.039   0.118 -1.3491 -0.0156 -0.6229
  100MOL0     C13400   5.164   4.070   0.037 -0.2998 -0.4014  0.0104
  100MOL0     O13401   5.048   4.012   0.060  0.1276 -0.9897  0.1071
  100MOL0     C13402   4.943   4.030  -0.028 -0.2464 -0.1392 -0.4059
  100MOL0     C13403   4.819   3.952   0.002  1.3231  0.0608 -0.1850
  100MOL0     C13404   4.756   4.000   0.136  0.0699 -0.2417  0.0864
  100MOL0     C13405   4.605   4.019   0.124 -0.2280 -0.1670  0.4684
  100MOL0     C13406   4.549   4.099   0.240 -0.3183 -0.2219 -0.3041
  100MOL0     C13407   4.510   4.012   0.358 -0.2040 -0.1618  0.4567
  100MOL0     C13408   4.480   4.103   0.475  0.1837 -0.2557  0.1799
  100MOL0     C13409   4.431   4.030   0.594  0.3842  0.1543 -0.2760
  100MOL0    Cl13410   4.274   3.958   0.566 -0.5217  0.2449 -0.1660
  100MOL0     C13411   5.194   4.155  -0.071 -0.5714  0.4164  0.3266
  100MOL0     C13412   5.328   4.201  -0.100 -1.4676  0.0032 -0.0995
  100MOL0     O13413   5.598   4.124  -0.222 -0.1766  0.4839 -0.0258
  100MOL0     C13414   5.815   4.261  -0.280  0.5260 -0.3315  0.4804
  100MOL0     C13415   5.929   4.331  -0.303 -0.2508 -0.0188  0.2446
  100MOL0     N13416   6.538   4.794  -0.010 -0.0929  0.7635 -0.7646
  100MOL0     N13417   6.662   4.787   0.019 -0.7629  0.9597 -0.0453
  100MOL0     C13418   6.847   3.935   0.592  0.3779 -0.3040  0.6849
  100MOL0     C13419   6.802   3.804   0.607 -0.7347 -0.1589 -0.8560
  100MOL0     C13420   6.477   3.451   0.661 -0.4428 -0.6088 -0.8742
  100MOL0     C13421   6.345   3.427   0.683 -0.1726  0.3636 -0.0956
  100MOL0     C13422   6.296   3.303   0.667 -0.3706  0.4353 -0.7810
  100MOL0     C13423   6.375   3.194   0.626 -0.8185  0.5189 -0.5444
  100MOL0     O13424   6.315   3.067   0.608  0.1193  0.4717  0.9382
  100MOL0     C13425   6.397   2.962   0.547  0.9878 -0.8536 -0.5558
  100MOL0     C13426   6.443   2.865   0.647 -0.5454  0.4301 -0.9713
  100MOL0     C13427   6.333   2.772   0.702 -0.4376 -0.8269 -0.1872
  100MOL0     C13428   6.323   2.627   0.647 -0.6425  0.1379  0.0775
  100MOL0     C13429   6.344   2.627   0.503 -0.8212  0.7167 -0.0474
  100MOL0     C13430   6.358   2.646   0.382  0.5238 -0.7854  0.0296
  100MOL0     C13431   6.516   3.225   0.602  0.4095 -0.0341 -0.4719
  100MOL0     C13432   6.568   3.354   0.626 -0.1279  0.1344  0.2476
  100MOL0     H13433   6.471   3.875   0.600 -0.2222  2.7939 -0.0677
  100MOL0     H13434   6.546   4.095   0.584  0.5805  0.4973  0.0794
  100MOL0     H13435   6.902   4.198   0.730 -3.2852  1.4558 -0.1891
  100MOL0     H13436   7.005   4.155   0.593 -1.9273 -1.2823 -2.8301
  100MOL0     H13437   6.866   4.420   0.612  0.4896  1.4561 -0.4542
  100MOL0     H13438   7.043   4.388   0.606 -0.4823  1.9551 -3.1725
  100MOL0     H13439   7.048   4.290   0.393  0.2818 -1.2333  2.1541
  100MOL0     H13440   6.878   4.302   0.370  1.4752 -2.5364 -1.5560
  100MOL0     H13441   6.886   4.559   0.380  2.3177  2.2252 -1.7365
  100MOL0     H13442   7.053   4.546   0.392 -1.2202  0.0785  2.3031
  100MOL0     H13443   7.069   4.423   0.166  0.2817 -0.6478  1.8366
  100MOL0     H13444   6.894   4.409   0.167 -0.4277 -0.7881  0.5271
  100MOL0     H13445   6.882   4.663   0.164 -0.6333  0.4309 -2.0470
  100MOL0     H13446   7.055   4.661   0.123  0.1789  0.5280 -0.2940
  100MOL0     H13447   7.015   4.545  -0.079 -0.1696 -2.1425  0.0918
  100MOL0     H13448   6.860   4.488  -0.020 -0.0916 -1.0740  1.4643
  100MOL0     H13449   6.880   4.686  -0.211  0.9438  1.5759  0.0053
  100MOL0     H13450   6.911   4.794  -0.081 -0.5479  0.2827 -0.8164
  100MOL0     H13451   6.629   4.612  -0.261  2.8533 -1.0155  1.3996
  100MOL0     H13452   6.347   4.792  -0.244 -1.2545 -1.7869 -2.3154
  100MOL0     H13453   6.373   4.617  -0.248 -1.3498 -1.1625  1.4373
  100MOL0     H13454   6.282   4.786  -0.015 -0.7105  1.6463 -2.5667
  100MOL0     H13455   6.289   4.615  -0.011 -1.4719 -0.1408  0.5957
  100MOL0     H13456   6.111   4.798  -0.173 -0.3070  0.9803  2.7737
  100MOL0     H13457   6.056   4.688  -0.049  1.1915 -0.1973  0.4235
  100MOL0     H13458   6.182   4.624  -0.323  2.5306 -1.6070  0.4253
  100MOL0     H13459   6.012   4.642  -0.303  0.5383  2.2332  1.6223
  100MOL0     H13460   6.007   4.442   0.004  1.5270 -0.8028  1.0821
  100MOL0     H13461   5.714   4.387   0.143  1.4393  1.3924 -1.4941
  100MOL0     H13462   5.744   4.207   0.114  0.8147 -0.5156 -2.1355
  100MOL0     H13463   5.873   4.311   0.166  0.3327  1.5770  0.7877
  100MOL0     H13464   5.475   4.082   0.180  0.1689 -0.8411 -0.2117
  100MOL0     H13465   5.246   3.978   0.203  0.3131 -0.0108 -0.1018
  100MOL0     H13466   4.918   4.137  -0.021  0.6216  0.0414  0.1965
  100MOL0     H13467   4.973   4.015  -0.132  0.6850 -1.3709  0.0220
  100MOL0     H13468   4.751   3.970  -0.081 -0.9374  1.2672  1.8016
  100MOL0     H13469   4.830   3.844   0.015 -0.0049  0.1723  2.7355
  100MOL0     H13470   4.796   4.098   0.160 -3.7247  2.9094 -4.4880
  100MOL0     H13471   4.779   3.927   0.214 -2.9500 -1.0887  0.3207
  100MOL0     H13472   4.589   4.070   0.028  0.4987  0.0919  0.4800
  100MOL0     H13473   4.553   3.923   0.127 -2.4394  0.8839 -1.3351
  100MOL0     H13474   4.469   4.166   0.208 -0.7375 -0.4586  0.2546
  100MOL0     H13475   4.630   4.159   0.283  1.4272 -1.8642 -1.1312
  100MOL0     H13476   4.425   3.949   0.329 -0.5742  0.4802  0.1253
  100MOL0     H13477   4.593   3.946   0.382 -0.7093 -1.0765 -0.2649
  100MOL0     H13478   4.398   4.173   0.453  1.5557  2.2653  2.4385
  100MOL0     H13479   4.576   4.148   0.501 -0.3628  0.2666  1.3819
  100MOL0     H13480   4.420   4.096   0.681  2.8589  0.6163 -0.2278
  100MOL0     H13481   4.504   3.951   0.614  0.3743 -0.1497 -1.3955
  100MOL0     H13482   5.119   4.189  -0.142 -0.3233  2.4700  0.9849
  100MOL0     H13483   5.353   4.269  -0.181 -1.0792 -0.5983 -0.4901
  100MOL0     H13484   5.754   4.209  -0.352 -3.1289  0.6237  2.6285
  100MOL0     H13485   5.966   4.347  -0.404  0.8929 -2.1461  0.2734
  100MOL0     H13486   6.953   3.954   0.589  0.4874 -0.9004  0.5075
  100MOL0     H13487   6.880   3.729   0.611 -1.8946 -1.4306 -1.3820
  100MOL0     H13488   6.287   3.504   0.734  2.5373  0.4801  3.1963
  100MOL0     H13489   6.191   3.293   0.693  0.5630 -2.6734  2.4853
  100MOL0     H13490   6.329   2.908   0.479 -2.2625  1.4033  0.6379
  100MOL0     H13491   6.478   2.999   0.483 -0.0591  0.9513 -0.9008
  100MOL0     H13492   6.471   2.923   0.736  0.1569 -3.4270  1.5475
  100MOL0     H13493   6.537   2.820   0.613 -0.1158 -0.6206  1.3606
  100MOL0     H13494   6.236   2.820   0.688  0.5422  0.9216 -1.4268
  100MOL0     H13495   6.342   2.754   0.810  0.5307 -2.8046 -0.5602
  100MOL0     H13496   6.220   2.590   0.655 -0.8807  0.8020  0.1888
  100MOL0     H13497   6.392   2.561   0.700  0.7605 -0.1906 -2.0439
  100MOL0     H13498   6.372   2.648   0.276 -1.6788 -3.4503 -0.4171
  100MOL0     H13499   6.582   3.144   0.574 -1.2658 -1.2446 -1.1059
  100MOL0     H13500   6.674   3.360   0.605 -0.2533  0.6896 -0.2617
  101MOL0     O13501   3.747   2.231  11.037 -0.3641 -0.1499  0.1944
  101MOL0     C13502   3.793   2.317  10.958  0.5338 -0.2265 -0.6991
  101MOL0     O13503   3.734   2.432  10.916  0.1688 -0.5404  0.2513
  101MOL0     C13504   3.601   2.468  10.949  0.1875  0.1872 -0.2029
  101MOL0     C13505   3.536   2.568  10.884  0.9926 -0.5469 -0.2698
  101MOL0     C13506   3.410   2.606  10.923  0.0535  0.0808  0.1186
  101MOL0     C13507   3.337   2.543  11.021 -1.1945  0.5163 -1.2287
  101MOL0     O13508   3.201   2.577  11.036 -0.3201  0.8860  0.7794
  101MOL0     C13509   3.117   2.503  11.118  0.8313  0.3329 -0.3700
  101MOL0     C13510   2.998   2.599  11.164 -1.0508  0.4033 -0.4888
  101MOL0     C13511   2.926   2.532  11.283 -0.1283 -0.8639  0.2785
  101MOL0     C13512   2.818   2.410  11.270 -0.9877 -0.3557 -0.1469
  101MOL0     C13513   2.726   2.416  11.390 -1.4955 -0.6935 -0.5531
  101MOL0     C13514   2.800   2.365  11.512 -0.4939  0.2508 -0.2460
  101MOL0     C13515   2.700   2.375  11.628 -0.4832  0.6460 -0.3759
  101MOL0     C13516   2.696   2.516  11.685 -0.4473  0.3092  0.6132
  101MOL0     N13517   2.577   2.533  11.753  1.1708  0.4680 -0.1457
  101MOL0     C13518   2.551   2.496  11.883 -0.4542  0.0740  0.8818
  101MOL0     C13519   2.439   2.547  11.912  0.8386 -1.1580  0.3163
  101MOL0     C13520   2.361   2.523  12.046 -0.3150  0.0580  0.6046
  101MOL0     C13521   2.214   2.498  12.021 -0.3446  0.4097  0.0512
  101MOL0     C13522   2.127   2.622  12.000 -0.1831 -0.3854  0.9488
  101MOL0     C13523   2.001   2.585  11.920  0.0450 -0.0075 -1.4070
  101MOL0     O13524   1.926   2.711  11.928 -0.0432 -0.8468 -1.3073
  101MOL0     C13525   1.795   2.698  11.886  0.3474  0.7027 -0.2261
  101MOL0     C13526   1.730   2.587  11.831  0.4628 -0.6423  0.0595
  101MOL0     C13527   1.594   2.583  11.803  0.3975  0.0364 -0.2101
  101MOL0     C13528   1.534   2.449  11.753  0.1039  0.0635 -0.4185
  101MOL0     C13529   1.508   2.699  11.826  0.0418 -0.0505 -0.4301
  101MOL0     C13530   1.359   2.705  11.807  0.4801  0.5120  0.6082
  101MOL0     O13531   1.282   2.595  11.795 -0.3936  0.2276 -0.3412
  101MOL0     C13532   1.139   2.598  11.802  0.3377  1.4758 -0.0180
  101MOL0     C13533   1.077   2.619  11.921  0.0233 -0.6403  0.2962
  101MOL0     C13534   0.942   2.616  11.931  0.1723  0.0241  0.0967
  101MOL0     C13535   0.865   2.601  11.812 -0.2640  0.0918 -0.4509
  101MOL0     O13536   0.732   2.589  11.817  0.4977  0.2297  0.2359
  101MOL0     C13537   0.674   2.495  11.914  0.2685 -0.6492 -0.4431
  101MOL0     C13538   0.569   2.419  11.846  0.0742  0.4458  0.4803
  101MOL0     C13539   0.444   2.506  11.830  0.2000 -0.2731 -0.0529
  101MOL0     C13540   0.315   2.431  11.801 -0.2984 -0.6104 -0.6703
  101MOL0     C13541   0.195   2.522  11.736 -0.5618  0.0993 -0.3389
  101MOL0     C13542   0.134   2.627  11.835  0.0644  1.0885  0.6511
  101MOL0     C13543   0.028   2.718  11.774  0.2543  0.9034  0.1247
  101MOL0     C13544  -0.051   2.802  11.882 -0.1954  0.5133 -0.7911
  101MOL0    Cl13545  -0.162   2.685  11.945  0.1094 -0.1727 -0.2944
  101MOL0     C13546   0.925   2.583  11.697  0.0835  0.5233 -0.1379
  101MOL0     C13547   1.063   2.582  11.686 -0.3005 -0.0990 -1.2064
  101MOL0     O13548   1.317   2.822  11.808 -0.2318 -0.0904  0.1162
  101MOL0     C13549   1.573   2.809  11.874 -0.3437 -0.5013  0.2104
  101MOL0     C13550   1.715   2.803  11.902 -0.2920 -0.4526 -0.1611
  101MOL0     N13551   2.387   2.622  11.805  0.2800 -0.3008 -0.2175
  101MOL0     N13552   2.475   2.622  11.715 -0.0412 -0.4845 -0.0438
  101MOL0     C13553   3.405   2.444  11.102  0.1555 -0.8110 -0.8726
  101MOL0     C13554   3.536   2.418  11.066  1.2903 -0.1380  0.0273
  101MOL0     C13555   3.921   2.275  10.891 -0.5582  0.1635  0.4352
  101MOL0     C13556   4.001   2.381  10.834  0.2792  0.2443  0.3720
  101MOL0     C13557   4.122   2.348  10.775  0.1937  1.2447  0.5279
  101MOL0     C13558   4.173   2.212  10.766  0.1937 -0.4046 -0.0325
  101MOL0     O13559   4.287   2.195  10.703 -0.2630  0.6338 -0.4338
  101MOL0     C13560   4.346   2.063  10.708  0.1813  0.3171 -0.0091
  101MOL0     C13561   4.482   2.067  10.631 -0.1953 -0.6778  0.0657
  101MOL0     C13562   4.599   2.141  10.706 -0.1823 -0.5330  0.0287
  101MOL0     C13563   4.736   2.124  10.644  0.3271 -0.5778 -0.0603
  101MOL0     C13564   4.778   1.990  10.676  0.1295  0.3066  0.1157
  101MOL0     C13565   4.811   1.874  10.710  0.7737 -1.1562  0.0285
  101MOL0     C13566   4.093   2.110  10.827 -0.5669 -0.3001  0.0179
  101MOL0     C13567   3.976   2.144  10.889 -0.9862 -0.0613 -0.2049
  101MOL0     H13568   3.577   2.618  10.796  0.9022  0.4914  0.2583
  101MOL0     H13569   3.360   2.681  10.862  1.9655 -0.9148 -2.8608
  101MOL0     H13570   3.076   2.425  11.053  1.7872 -1.1014  0.6857
  101MOL0     H13571   3.164   2.459  11.207 -5.4426 -2.2170  2.2973
  101MOL0     H13572   3.044   2.692  11.199 -1.0935  1.4076 -2.8865
  101MOL0     H13573   2.924   2.609  11.085 -0.5690  0.4204 -0.9433
  101MOL0     H13574   2.993   2.508  11.366  1.8434  2.4187 -0.1673
  101MOL0     H13575   2.883   2.619  11.334  1.6183  0.8408 -0.9985
  101MOL0     H13576   2.756   2.421  11.181 -1.4720  0.4241  0.2702
  101MOL0     H13577   2.867   2.313  11.255  1.7985  1.1668 -1.5307
  101MOL0     H13578   2.698   2.520  11.405  1.3399 -0.0285  0.7626
  101MOL0     H13579   2.642   2.348  11.368 -1.1000 -0.8807 -1.4933
  101MOL0     H13580   2.831   2.261  11.500 -0.1861  0.2046  0.8455
  101MOL0     H13581   2.891   2.421  11.537 -0.4738  0.3681 -0.5842
  101MOL0     H13582   2.595   2.353  11.608 -1.3808 -1.3465  4.9165
  101MOL0     H13583   2.725   2.304  11.708 -1.6464 -0.5160 -1.0018
  101MOL0     H13584   2.700   2.595  11.609 -0.7141 -0.8992 -0.6978
  101MOL0     H13585   2.779   2.537  11.754 -1.4165  2.6661  1.1287
  101MOL0     H13586   2.615   2.426  11.936  0.3338 -0.1292 -0.2966
  101MOL0     H13587   2.401   2.432  12.091  1.1654  1.3686  2.0527
  101MOL0     H13588   2.388   2.602  12.116  1.5009 -1.8769  2.2384
  101MOL0     H13589   2.166   2.454  12.109  0.6987 -1.5451 -0.3031
  101MOL0     H13590   2.203   2.419  11.946 -1.8500 -1.1746  1.8455
  101MOL0     H13591   2.186   2.707  11.965 -0.3801  1.2385  4.1954
  101MOL0     H13592   2.086   2.656  12.095  0.1042  2.0308  0.2792
  101MOL0     H13593   1.958   2.504  11.979 -0.1029  2.5798  2.4430
  101MOL0     H13594   2.022   2.547  11.820  2.8213  0.4226 -1.0881
  101MOL0     H13595   1.786   2.497  11.809  0.1409 -0.2899 -2.5547
  101MOL0     H13596   1.505   2.465  11.649  0.6147  1.9139 -0.3215
  101MOL0     H13597   1.617   2.380  11.740 -0.7868 -1.3103  0.8698
  101MOL0     H13598   1.459   2.396  11.812  1.0144 -0.4186  0.3303
  101MOL0     H13599   1.142   2.622  12.008  1.3527 -1.3050 -0.6286
  101MOL0     H13600   0.878   2.624  12.018 -1.0684  0.0361 -0.7980
  101MOL0     H13601   0.746   2.427  11.960 -1.2300 -1.8194  0.2308
  101MOL0     H13602   0.637   2.551  12.000 -0.9782 -2.0524 -0.0237
  101MOL0     H13603   0.606   2.393  11.747  1.2855  2.0103  0.4876
  101MOL0     H13604   0.535   2.330  11.899  0.1951 -0.5514 -1.0596
  101MOL0     H13605   0.470   2.573  11.748  1.0545 -2.7249 -1.9027
  101MOL0     H13606   0.422   2.565  11.920 -3.1045 -2.6702  0.9083
  101MOL0     H13607   0.343   2.349  11.734 -2.2477 -0.8601 -1.2419
  101MOL0     H13608   0.283   2.374  11.889 -1.4293  1.3377  0.2330
  101MOL0     H13609   0.118   2.450  11.703 -1.0203  0.9182 -1.1134
  101MOL0     H13610   0.241   2.567  11.648 -1.1124 -1.5678 -1.5308
  101MOL0     H13611   0.090   2.566  11.914  0.1743 -0.0406 -0.1310
  101MOL0     H13612   0.213   2.682  11.886 -0.8042  1.9972  1.0300
  101MOL0     H13613  -0.045   2.657  11.720  0.3770  0.3085  0.6134
  101MOL0     H13614   0.076   2.792  11.709 -1.0343  2.2057  0.6378
  101MOL0     H13615  -0.110   2.882  11.836 -0.3054 -1.7158 -4.9784
  101MOL0     H13616   0.020   2.850  11.950  1.2916  1.4079 -2.8755
  101MOL0     H13617   0.868   2.557  11.608 -0.1325  0.5059  0.0057
  101MOL0     H13618   1.119   2.560  11.596  3.0454 -0.0619  0.6829
  101MOL0     H13619   1.529   2.906  11.896  0.7135  0.3190 -1.1748
  101MOL0     H13620   1.764   2.888  11.948 -0.4383 -0.9706  0.9911
  101MOL0     H13621   3.359   2.385  11.181  0.1136 -3.1671 -2.5502
  101MOL0     H13622   3.570   2.339  11.133 -1.6855  0.1575  2.0237
  101MOL0     H13623   3.975   2.486  10.825  0.1059  0.0347 -3.5722
  101MOL0     H13624   4.169   2.431  10.722  2.3952 -0.2236  0.0358
  101MOL0     H13625   4.379   2.032  10.808  1.2015 -0.5550 -0.5849
  101MOL0     H13626   4.287   1.986  10.658  2.3999 -0.1286 -2.1350
  101MOL0     H13627   4.474   2.101  10.527 -1.1377 -0.3187  0.2486
  101MOL0     H13628   4.512   1.962  10.617 -2.5728 -1.4593  0.3233
  101MOL0     H13629   4.598   2.106  10.809  0.0253  2.8472  1.3039
  101MOL0     H13630   4.569   2.246  10.711 -3.3642 -1.3029 -0.5686
  101MOL0     H13631   4.799   2.202  10.688  3.7561 -2.5966 -1.0407
  101MOL0     H13632   4.733   2.146  10.537 -0.1179  1.7473  0.3911
  101MOL0     H13633   4.842   1.772  10.721  2.3850 -1.0017 -2.3271
  101MOL0     H13634   4.119   2.005  10.825  0.2401 -0.0962 -1.1073
  101MOL0     H13635   3.921   2.075  10.952 -0.7895  0.1343  0.1825
  102MOL0     O13636   1.073   6.968   6.320 -0.7476 -0.6167  0.3089
  102MOL0     C13637   1.098   6.857   6.279  0.1522 -0.1087  0.3823
  102MOL0     O13638   1.019   6.753   6.281  0.4495  0.3320  0.1057
  102MOL0     C13639   0.895   6.758   6.334  0.2903  0.3102 -0.6507
  102MOL0     C13640   0.874   6.794   6.472 -0.5082  0.1880  0.4936
  102MOL0     C13641   0.753   6.774   6.525  0.3324  0.9670  0.4015
  102MOL0     C13642   0.641   6.749   6.445 -0.4425 -0.1407 -0.7653
  102MOL0     O13643   0.519   6.739   6.510 -0.3405  0.1007 -0.0296
  102MOL0     C13644   0.410   6.684   6.435  0.1168 -0.2689  0.4348
  102MOL0     C13645   0.279   6.685   6.513 -0.2300 -0.2458  0.7190
  102MOL0     C13646   0.291   6.618   6.650 -0.7934  0.8134  0.4404
  102MOL0     C13647   0.168   6.627   6.733  0.3055  0.6305  0.0889
  102MOL0     C13648   0.187   6.739   6.844 -0.2502  0.3164 -0.4001
  102MOL0     C13649   0.277   6.696   6.957 -1.4539 -0.2651  0.7864
  102MOL0     C13650   0.303   6.813   7.053  0.0713 -0.0946 -0.4697
  102MOL0     C13651   0.401   6.777   7.163  0.0679 -0.2531 -0.5632
  102MOL0     N13652   0.450   6.907   7.199 -0.3805  0.1612 -0.0753
  102MOL0     C13653   0.586   6.936   7.218  0.7533  0.2180  0.5190
  102MOL0     C13654   0.582   7.048   7.289  0.3731 -0.2069 -0.0183
  102MOL0     C13655   0.696   7.128   7.349 -0.5515 -0.8373  0.1389
  102MOL0     C13656   0.781   7.202   7.243  0.1978  0.1577 -0.4685
  102MOL0     C13657   0.885   7.108   7.170 -0.0224  0.0555  0.1712
  102MOL0     C13658   0.938   7.179   7.051  0.0723 -0.5421  0.0306
  102MOL0     O13659   1.015   7.078   6.973  0.2915 -1.1074  0.1609
  102MOL0     C13660   1.150   7.101   6.955 -0.8295  0.1686 -0.5164
  102MOL0     C13661   1.210   7.041   6.838 -0.3898  0.3965  0.0425
  102MOL0     C13662   1.347   7.051   6.807 -1.1292 -0.1458  0.3377
  102MOL0     C13663   1.392   6.988   6.678  0.0315  0.2387 -0.1302
  102MOL0     C13664   1.421   7.123   6.893 -1.1473 -0.2093 -0.6324
  102MOL0     C13665   1.563   7.151   6.858 -0.2722 -0.5745  0.4775
  102MOL0     O13666   1.648   7.142   6.960  0.0085  0.1284  0.3343
  102MOL0     C13667   1.775   7.198   6.947  1.0087  1.1236  0.3863
  102MOL0     C13668   1.882   7.119   6.903 -0.1454 -0.4466  0.3182
  102MOL0     C13669   2.009   7.180   6.887 -0.1570 -0.1821 -0.1683
  102MOL0     C13670   2.023   7.316   6.915 -0.5469  0.0700  0.0458
  102MOL0     O13671   2.135   7.391   6.908  0.0244 -0.2592  0.1824
  102MOL0     C13672   2.256   7.340   6.859 -0.0027 -0.6709  0.9541
  102MOL0     C13673   2.244   7.357   6.707 -0.2510  0.6987  0.4956
  102MOL0     C13674   2.382   7.335   6.641 -0.1481  0.2290 -0.5320
  102MOL0     C13675   2.447   7.204   6.686 -0.3060 -0.1669  0.8171
  102MOL0     C13676   2.558   7.156   6.602  0.3140 -0.0141  0.0487
  102MOL0     C13677   2.647   7.052   6.668 -0.7185 -0.6450  0.7688
  102MOL0     C13678   2.578   6.935   6.723  0.8577  0.3484 -0.1513
  102MOL0     C13679   2.690   6.831   6.763 -1.0264 -0.5095  0.4772
  102MOL0    Cl13680   2.748   6.732   6.621 -0.3630 -0.4968  0.3343
  102MOL0     C13681   1.906   7.386   6.951 -0.4670  0.7823  0.2491
  102MOL0     C13682   1.785   7.324   6.980 -0.0837 -0.1454 -0.6570
  102MOL0     O13683   1.602   7.178   6.745  1.0984  0.0645  0.1849
  102MOL0     C13684   1.369   7.189   7.007  0.2572 -0.3241 -0.2710
  102MOL0     C13685   1.239   7.175   7.046 -0.0029 -0.7004  0.2178
  102MOL0     N13686   0.446   7.088   7.310 -0.1250  0.8217  0.2829
  102MOL0     N13687   0.370   7.002   7.259  0.6953  0.5316  0.4427
  102MOL0     C13688   0.663   6.743   6.305  0.1791  0.3415  0.6462
  102MOL0     C13689   0.782   6.747   6.250  0.1868  0.2169  0.3108
  102MOL0     C13690   1.228   6.836   6.206 -0.2829  0.2125  0.6370
  102MOL0     C13691   1.241   6.717   6.130 -0.8456  0.0979  0.4520
  102MOL0     C13692   1.362   6.683   6.073 -0.0373 -0.2364  0.3174
  102MOL0     C13693   1.468   6.773   6.090 -0.1867 -0.3470 -0.2031
  102MOL0     O13694   1.597   6.763   6.044  0.0069 -0.1506  0.2401
  102MOL0     C13695   1.632   6.638   5.979  0.1677 -0.5805 -0.7061
  102MOL0     C13696   1.785   6.615   5.984  1.0763  0.1131 -0.3925
  102MOL0     C13697   1.833   6.608   6.129  0.6589 -0.6045 -0.2910
  102MOL0     C13698   1.989   6.626   6.152 -0.3448  0.2949  0.1471
  102MOL0     C13699   2.031   6.767   6.129 -0.2980 -0.1743 -0.2412
  102MOL0     C13700   2.073   6.884   6.113  0.3770  0.0319 -0.2690
  102MOL0     C13701   1.449   6.888   6.167 -0.1102 -0.8004  1.0059
  102MOL0     C13702   1.336   6.911   6.228 -0.2252 -0.1279  0.1273
  102MOL0     H13703   0.959   6.811   6.536  3.7290 -0.1347 -4.4311
  102MOL0     H13704   0.743   6.784   6.633 -1.2186  0.2727  0.3583
  102MOL0     H13705   0.390   6.732   6.339 -2.7988  1.6382  1.8264
  102MOL0     H13706   0.431   6.581   6.406 -0.6610 -0.8251  1.7427
  102MOL0     H13707   0.245   6.789   6.518 -0.0576 -0.0245 -1.5101
  102MOL0     H13708   0.204   6.641   6.446  1.9020  3.0020 -4.4709
  102MOL0     H13709   0.327   6.516   6.635 -0.7973  0.6426  1.5067
  102MOL0     H13710   0.375   6.665   6.701  0.5846 -0.1422 -0.8610
  102MOL0     H13711   0.082   6.658   6.672 -1.1479  1.0281  2.2382
  102MOL0     H13712   0.145   6.524   6.763 -2.9077  0.7885 -1.3700
  102MOL0     H13713   0.238   6.827   6.802  1.4320 -1.5107 -2.4545
  102MOL0     H13714   0.086   6.755   6.883  0.4094  0.1304  1.4866
  102MOL0     H13715   0.231   6.609   7.006  2.3074 -1.8328  1.8844
  102MOL0     H13716   0.374   6.662   6.920 -0.7238  1.7774  0.6762
  102MOL0     H13717   0.340   6.904   7.005  1.5440 -1.4849 -2.1214
  102MOL0     H13718   0.209   6.841   7.101  1.6268  0.4086  2.5292
  102MOL0     H13719   0.486   6.719   7.125  0.7147  1.4607 -1.8514
  102MOL0     H13720   0.345   6.725   7.241 -1.6092  0.5657 -1.1710
  102MOL0     H13721   0.668   6.875   7.179 -1.6200 -2.8138 -0.1228
  102MOL0     H13722   0.657   7.208   7.412 -0.9344 -0.6729 -0.2983
  102MOL0     H13723   0.768   7.069   7.406  0.1823 -0.2567 -0.1796
  102MOL0     H13724   0.830   7.283   7.298  1.7399 -2.4194  2.2383
  102MOL0     H13725   0.710   7.234   7.166 -0.7571 -0.0675  0.3058
  102MOL0     H13726   0.835   7.013   7.148 -2.6752  1.3826  0.0596
  102MOL0     H13727   0.966   7.081   7.239 -0.0846  0.4610  0.3996
  102MOL0     H13728   1.001   7.265   7.075  1.0872 -1.5227  0.9383
  102MOL0     H13729   0.851   7.211   6.992  0.2832  3.8276  1.6974
  102MOL0     H13730   1.149   6.991   6.762  2.7807  1.9348 -3.8924
  102MOL0     H13731   1.383   7.058   6.594  0.7165  0.1366 -0.2934
  102MOL0     H13732   1.489   6.941   6.693  0.4186  0.9232 -0.4666
  102MOL0     H13733   1.321   6.909   6.653 -0.2072  1.1478 -2.6519
  102MOL0     H13734   1.863   7.015   6.880  2.1805 -0.5965 -1.2762
  102MOL0     H13735   2.085   7.118   6.840  0.9997  1.2734 -0.2795
  102MOL0     H13736   2.346   7.394   6.888 -0.6665  1.2521 -0.3816
  102MOL0     H13737   2.272   7.235   6.884 -2.8267 -1.2654  0.5966
  102MOL0     H13738   2.185   7.276   6.664  1.7881 -0.7476  0.2826
  102MOL0     H13739   2.207   7.456   6.678 -0.6728  0.4316  0.1028
  102MOL0     H13740   2.443   7.423   6.662 -4.1203  3.7586 -2.1860
  102MOL0     H13741   2.351   7.337   6.536  1.5544  3.2743 -1.0898
  102MOL0     H13742   2.487   7.222   6.786 -0.7925  2.4770  0.6086
  102MOL0     H13743   2.378   7.118   6.683 -1.6272  0.8467  0.9191
  102MOL0     H13744   2.619   7.240   6.571  2.2158 -1.1879  0.4307
  102MOL0     H13745   2.514   7.117   6.510  0.9376 -0.8679  0.0973
  102MOL0     H13746   2.718   7.011   6.595 -0.4335  2.1873 -0.6778
  102MOL0     H13747   2.697   7.116   6.741  0.1716  1.2649 -1.3965
  102MOL0     H13748   2.507   6.878   6.662 -0.0792 -0.1708  1.3491
  102MOL0     H13749   2.524   6.970   6.812  1.2692  1.0879 -0.1927
  102MOL0     H13750   2.655   6.758   6.836  0.4308 -1.2943  0.4309
  102MOL0     H13751   2.775   6.878   6.814 -1.7444  0.0635  1.1607
  102MOL0     H13752   1.907   7.491   6.976 -0.2153  1.2317 -1.4880
  102MOL0     H13753   1.694   7.363   7.024  0.8652 -0.8109  2.1051
  102MOL0     H13754   1.425   7.259   7.068  0.8344  0.6616 -1.8736
  102MOL0     H13755   1.194   7.223   7.132  1.2426  0.3123  0.3288
  102MOL0     H13756   0.577   6.732   6.241  0.3859  1.9356  0.0633
  102MOL0     H13757   0.795   6.737   6.143  2.4882  2.1846  0.2935
  102MOL0     H13758   1.155   6.652   6.119 -0.9439  0.4548 -1.1038
  102MOL0     H13759   1.365   6.589   6.019  0.7350  0.0159 -0.0831
  102MOL0     H13760   1.581   6.555   6.028 -2.5512  0.0881 -2.1872
  102MOL0     H13761   1.596   6.642   5.875 -1.1259 -1.0706 -0.2908
  102MOL0     H13762   1.824   6.702   5.930 -0.4564  0.6198 -0.7270
  102MOL0     H13763   1.805   6.526   5.923 -1.8357 -1.1243  0.3045
  102MOL0     H13764   1.816   6.506   6.163 -1.4336 -0.3905 -0.5711
  102MOL0     H13765   1.789   6.685   6.192  1.5714 -2.6089  2.9954
  102MOL0     H13766   2.041   6.554   6.088  0.7626 -0.4857  1.8597
  102MOL0     H13767   2.005   6.594   6.255 -0.2253 -3.0397 -0.7879
  102MOL0     H13768   2.098   6.988   6.102 -3.6927  1.2826  0.5057
  102MOL0     H13769   1.528   6.962   6.175 -1.4882  0.5233  2.9108
  102MOL0     H13770   1.324   6.991   6.301 -3.2676  0.3693 -0.8151
  103MOL0     O13771   9.672   9.772   6.582  0.6104  0.2771  0.1934
  103MOL0     C13772   9.749   9.753   6.672 -0.7576 -0.4839  0.2004
  103MOL0     O13773   9.733   9.799   6.800  0.3065  0.2159 -0.4254
  103MOL0     C13774   9.620   9.878   6.828 -0.9210  0.1808 -0.1317
  103MOL0     C13775   9.618  10.014   6.807 -0.0340 -0.2771 -0.5258
  103MOL0     C13776   9.503  10.085   6.850 -0.8856  0.0352 -0.1311
  103MOL0     C13777   9.400  10.018   6.907 -0.1349 -0.3418  0.0097
  103MOL0     O13778   9.281  10.081   6.938  0.2752  0.0457  0.5576
  103MOL0     C13779   9.285  10.210   6.998 -0.1730 -0.6897  0.8533
  103MOL0     C13780   9.180  10.234   7.101 -0.5159  0.9444  0.5259
  103MOL0     C13781   9.035  10.232   7.051 -0.2926  0.9938 -0.8071
  103MOL0     C13782   8.951  10.254   7.180  0.4372 -0.1211  0.4645
  103MOL0     C13783   8.798  10.271   7.161 -0.0004  0.3300 -0.0726
  103MOL0     C13784   8.733  10.171   7.061 -0.0886  0.0656 -0.0793
  103MOL0     C13785   8.685  10.036   7.122  0.2634  0.1904  0.2692
  103MOL0     C13786   8.596   9.949   7.018  0.2615 -0.0590 -0.1746
  103MOL0     N13787   8.454   9.980   7.038 -0.4245 -0.1959  0.5533
  103MOL0     C13788   8.375  10.038   6.943  0.0152 -0.2622  0.8607
  103MOL0     C13789   8.258  10.057   7.005  0.0371 -0.3249  0.4627
  103MOL0     C13790   8.133  10.088   6.932 -0.0136 -0.2961 -0.2297
  103MOL0     C13791   8.130  10.225   6.849 -0.1884  1.0982 -0.3612
  103MOL0     C13792   7.994  10.272   6.799  0.1988  0.5362 -0.9111
  103MOL0     C13793   7.934  10.194   6.680 -0.1383  1.0506 -0.5806
  103MOL0     O13794   7.793  10.208   6.657 -0.1707 -0.3087  0.0815
  103MOL0     C13795   7.700  10.175   6.749 -0.4676  0.1955  0.2523
  103MOL0     C13796   7.715  10.093   6.860 -0.3443 -0.1500  1.0946
  103MOL0     C13797   7.609  10.064   6.948  0.8896  0.8886 -0.1888
  103MOL0     C13798   7.635   9.965   7.066  0.9096  0.5985 -0.1185
  103MOL0     C13799   7.478  10.119   6.922 -0.5665 -0.6114  0.2641
  103MOL0     C13800   7.356  10.096   7.000  0.0905 -0.8480 -0.2857
  103MOL0     O13801   7.239  10.114   6.927 -0.5839 -1.0857 -0.1752
  103MOL0     C13802   7.129  10.119   6.997 -0.8641 -0.8103 -0.8446
  103MOL0     C13803   7.067  10.001   7.033  0.2158 -0.3482 -0.0282
  103MOL0     C13804   6.949  10.005   7.108 -0.7797  0.0865  0.0794
  103MOL0     C13805   6.889  10.124   7.148 -0.0720  1.1768 -0.2001
  103MOL0     O13806   6.776  10.130   7.225 -0.0525  0.0498  0.0344
  103MOL0     C13807   6.694  10.014   7.245 -1.1475  0.2210  0.4261
  103MOL0     C13808   6.601  10.045   7.363 -0.1498  0.0667  0.1613
  103MOL0     C13809   6.475  10.124   7.330  0.1064 -0.6784 -0.1493
  103MOL0     C13810   6.507  10.272   7.315 -0.2135  0.5414  0.0316
  103MOL0     C13811   6.394  10.362   7.250 -0.7446  0.4912  0.1925
  103MOL0     C13812   6.253  10.347   7.314 -0.5484  0.3819  0.2849
  103MOL0     C13813   6.143  10.399   7.223  0.3155  0.2401 -0.6213
  103MOL0     C13814   6.013  10.346   7.273  0.1344 -0.0704 -0.1612
  103MOL0    Cl13815   5.878  10.432   7.203  0.3141  0.5352  0.0939
  103MOL0     C13816   6.953  10.235   7.110 -0.9178 -0.2089  0.0238
  103MOL0     C13817   7.069  10.237   7.033 -0.5487  0.6173 -0.5966
  103MOL0     O13818   7.361  10.053   7.115  0.8663  0.0441 -0.0849
  103MOL0     C13819   7.469  10.204   6.809 -0.2080 -0.7596 -0.0900
  103MOL0     C13820   7.580  10.238   6.727  0.1558 -0.4716  0.2443
  103MOL0     N13821   8.259  10.004   7.135  0.3314 -0.2427 -0.3149
  103MOL0     N13822   8.386   9.964   7.150 -0.3926 -0.6540 -0.5807
  103MOL0     C13823   9.406   9.879   6.919 -0.0545  0.3286 -0.5284
  103MOL0     C13824   9.513   9.809   6.874  0.7144  0.0892 -0.1680
  103MOL0     C13825   9.868   9.663   6.641 -0.6589 -0.1448 -0.6082
  103MOL0     C13826   9.910   9.617   6.519  0.5916 -0.5452  0.4718
  103MOL0     C13827  10.022   9.537   6.488  0.2392  0.4262 -0.1992
  103MOL0     C13828  10.119   9.505   6.593  0.3957 -0.5719 -0.0861
  103MOL0     O13829  10.227   9.429   6.568  0.8533 -1.0341  0.5790
  103MOL0     C13830  10.338   9.430   6.654  0.1340  0.9460 -0.5729
  103MOL0     C13831  10.463   9.367   6.600  0.0332  0.2207 -0.3663
  103MOL0     C13832  10.515   9.447   6.482 -0.7515 -0.0637  0.1144
  103MOL0     C13833  10.654   9.390   6.443  1.3468 -0.0493 -0.1793
  103MOL0     C13834  10.654   9.248   6.424  0.2677 -0.5227 -0.8655
  103MOL0     C13835  10.647   9.130   6.413  0.1264  0.5675  0.5660
  103MOL0     C13836  10.082   9.551   6.724  0.2479  0.9735  0.4244
  103MOL0     C13837   9.958   9.632   6.748 -0.1448  0.5033 -0.1189
  103MOL0     H13838   9.703  10.073   6.771 -0.5109  1.1531  0.5926
  103MOL0     H13839   9.502  10.193   6.842 -0.1140  0.4930  3.7154
  103MOL0     H13840   9.384  10.205   7.044 -0.2775 -4.0004  0.9383
  103MOL0     H13841   9.285  10.294   6.927  1.3731 -2.3785 -1.2665
  103MOL0     H13842   9.197  10.157   7.177 -2.4690  1.2136  1.2929
  103MOL0     H13843   9.190  10.328   7.156 -0.3615 -0.4342  3.0116
  103MOL0     H13844   9.005  10.301   6.972  3.5435  0.9446 -2.5326
  103MOL0     H13845   9.016  10.129   7.020  0.1329  0.6233  0.1130
  103MOL0     H13846   8.969  10.173   7.251 -0.0828 -0.6883 -0.0359
  103MOL0     H13847   8.989  10.345   7.227 -1.1432  1.5961 -1.4553
  103MOL0     H13848   8.749  10.266   7.259  0.8594 -2.1169  0.3084
  103MOL0     H13849   8.779  10.374   7.132 -0.7514 -0.2632 -1.8403
  103MOL0     H13850   8.644  10.209   7.010  0.2331 -0.2714 -0.9098
  103MOL0     H13851   8.803  10.145   6.981  1.5324 -0.8636  1.5726
  103MOL0     H13852   8.764   9.966   7.152 -1.6555 -1.3095  2.1230
  103MOL0     H13853   8.628  10.051   7.214 -2.8820  0.5419 -1.5610
  103MOL0     H13854   8.616   9.842   7.036  1.9209  0.2140 -0.2338
  103MOL0     H13855   8.633   9.967   6.917  1.0891 -1.5402 -0.1772
  103MOL0     H13856   8.389  10.063   6.838 -0.7232  1.5288  1.1515
  103MOL0     H13857   8.106   9.998   6.877 -0.8402 -0.2247  0.0382
  103MOL0     H13858   8.048  10.097   7.001  0.6825  2.7098  0.3845
  103MOL0     H13859   8.199  10.217   6.764 -2.7293 -1.0982 -2.4427
  103MOL0     H13860   8.170  10.300   6.917  1.3647  0.4252 -0.5032
  103MOL0     H13861   8.010  10.373   6.759  1.1539  0.6234 -0.3322
  103MOL0     H13862   7.933  10.290   6.888  1.6435  3.5884 -0.3961
  103MOL0     H13863   7.948  10.093   6.719 -1.7101  1.3259  0.7976
  103MOL0     H13864   7.997  10.216   6.593 -0.4949  2.3970 -0.5243
  103MOL0     H13865   7.815  10.053   6.875  0.1572  0.9822  0.9185
  103MOL0     H13866   7.582   9.870   7.052  3.5054 -0.6863 -2.1195
  103MOL0     H13867   7.740   9.938   7.075  1.2960  1.6897 -1.1039
  103MOL0     H13868   7.603  10.016   7.157 -0.3313 -0.8525  0.3070
  103MOL0     H13869   7.113   9.909   6.998  0.5074 -1.0580  2.0598
  103MOL0     H13870   6.903   9.907   7.116  0.3876 -0.4313  0.6643
  103MOL0     H13871   6.640   9.991   7.153  2.6830 -2.3225 -1.4427
  103MOL0     H13872   6.759   9.933   7.279  1.9388  2.9439  1.6589
  103MOL0     H13873   6.582   9.947   7.408  0.1574  0.1344  0.4433
  103MOL0     H13874   6.662  10.092   7.441 -0.8180  0.7533  0.2936
  103MOL0     H13875   6.396  10.104   7.403  0.3043 -0.0103  0.2555
  103MOL0     H13876   6.432  10.097   7.233 -2.9111  0.8874  0.6391
  103MOL0     H13877   6.536  10.313   7.412  5.0022 -0.8059 -0.6689
  103MOL0     H13878   6.587  10.295   7.244 -0.3106 -0.3133 -0.3754
  103MOL0     H13879   6.381  10.342   7.144  0.6692  1.4747 -0.1874
  103MOL0     H13880   6.437  10.463   7.253  1.2365 -0.3128  0.3925
  103MOL0     H13881   6.240  10.239   7.328  1.7589  0.2908  2.5203
  103MOL0     H13882   6.241  10.394   7.412 -0.6332  0.8270  0.0615
  103MOL0     H13883   6.146  10.368   7.118 -1.6449  0.5109 -0.7972
  103MOL0     H13884   6.135  10.508   7.218  1.8743  0.3942 -0.0850
  103MOL0     H13885   6.001  10.348   7.381 -1.1713  0.8449 -0.3051
  103MOL0     H13886   6.013  10.240   7.248  1.8320 -0.1746  0.1808
  103MOL0     H13887   6.905  10.328   7.135 -0.2235  0.2081 -0.1579
  103MOL0     H13888   7.105  10.325   6.981 -1.0649 -1.1453 -4.2402
  103MOL0     H13889   7.372  10.247   6.785  0.4721  0.8025 -0.1237
  103MOL0     H13890   7.576  10.320   6.656  0.5126  0.6993  1.5481
  103MOL0     H13891   9.312   9.836   6.951 -0.1393  1.6121  1.0958
  103MOL0     H13892   9.508   9.702   6.889 -2.3376  0.1184 -0.3701
  103MOL0     H13893   9.845   9.645   6.437  0.0673  0.1413  1.1072
  103MOL0     H13894  10.032   9.515   6.382 -0.1026  0.3642 -0.2195
  103MOL0     H13895  10.359   9.536   6.676 -1.4403  1.7812 -2.7592
  103MOL0     H13896  10.310   9.370   6.741 -0.2389 -1.7969 -2.4664
  103MOL0     H13897  10.433   9.269   6.561 -1.7851  0.4373  0.3709
  103MOL0     H13898  10.545   9.352   6.671  0.4807 -3.6373 -1.4352
  103MOL0     H13899  10.535   9.552   6.505  3.2926 -0.6418 -0.0137
  103MOL0     H13900  10.449   9.436   6.396  1.8857 -1.3313 -1.9161
  103MOL0     H13901  10.719   9.418   6.526 -1.6118  1.8254  1.6966
  103MOL0     H13902  10.694   9.434   6.350  1.1070 -0.8311 -0.6616
  103MOL0     H13903  10.618   9.028   6.393  0.1743  0.1289  2.5126
  103MOL0     H13904  10.152   9.545   6.806  0.5748 -0.6180  0.0561
  103MOL0     H13905   9.940   9.677   6.846 -0.5818 -1.0830  0.5561
  104MOL0     O13906   1.970   1.979   7.084  0.1491 -0.0615  0.3006
  104MOL0     C13907   1.949   2.071   7.005 -0.3194  0.3015 -0.0583
  104MOL0     O13908   1.826   2.125   6.979  0.1618 -0.1852  0.6840
  104MOL0     C13909   1.708   2.092   7.041 -0.0015  0.0311  0.4576
  104MOL0     C13910   1.590   2.118   6.973 -0.2504  0.3573  0.4126
  104MOL0     C13911   1.470   2.103   7.041  0.6204  0.2824  0.4367
  104MOL0     C13912   1.464   2.057   7.167 -0.0497  0.6044  0.0471
  104MOL0     O13913   1.345   2.051   7.241  0.7042  0.4824  0.5460
  104MOL0     C13914   1.222   2.068   7.185 -0.1198 -0.5171  0.6914
  104MOL0     C13915   1.116   2.026   7.286  0.1004 -0.2791 -0.1498
  104MOL0     C13916   0.977   2.064   7.231  0.0350 -0.1353  0.3628
  104MOL0     C13917   0.863   2.056   7.329  0.0706 -0.5468  0.1140
  104MOL0     C13918   0.744   2.090   7.258 -0.3974  0.2646  1.4079
  104MOL0     C13919   0.628   2.088   7.355 -0.2061  0.7255  0.5972
  104MOL0     C13920   0.503   2.125   7.288  0.1692  0.6387 -0.1379
  104MOL0     C13921   0.453   2.017   7.176  0.7594 -0.5456  0.4662
  104MOL0     N13922   0.312   2.048   7.142  0.4976  0.4349 -0.3926
  104MOL0     C13923   0.214   2.097   7.230 -0.6523  0.5833  0.7210
  104MOL0     C13924   0.109   2.130   7.143 -0.0339  0.0883 -0.3563
  104MOL0     C13925  -0.002   2.220   7.180 -0.6302 -0.7683 -0.0448
  104MOL0     C13926  -0.130   2.145   7.191 -0.4509 -0.4300  0.2509
  104MOL0     C13927  -0.184   2.102   7.057  0.0013  1.1310 -0.6897
  104MOL0     C13928  -0.324   2.044   7.061  0.0874 -0.5637 -0.4152
  104MOL0     O13929  -0.320   1.919   7.122  0.2423 -0.7630 -0.2462
  104MOL0     C13930  -0.431   1.854   7.169  0.9449  0.2798  0.2322
  104MOL0     C13931  -0.560   1.891   7.146 -0.0762  0.1682 -0.0194
  104MOL0     C13932  -0.673   1.821   7.191  0.7216  0.8552  0.4056
  104MOL0     C13933  -0.813   1.890   7.175  0.6758  0.0331 -0.7044
  104MOL0     C13934  -0.649   1.704   7.270  0.6247  0.2630  0.4426
  104MOL0     C13935  -0.757   1.620   7.321 -0.6257 -0.0657  0.8412
  104MOL0     O13936  -0.855   1.605   7.232  0.2384 -0.6444 -0.1450
  104MOL0     C13937  -0.983   1.555   7.255 -0.3327 -0.0673  0.6684
  104MOL0     C13938  -1.051   1.552   7.381  0.4588  0.8955  0.0484
  104MOL0     C13939  -1.185   1.519   7.377 -0.8115  0.1914 -0.2530
  104MOL0     C13940  -1.253   1.474   7.261 -0.4401 -0.4085  0.0395
  104MOL0     O13941  -1.390   1.460   7.268  0.1652  0.8087  0.6496
  104MOL0     C13942  -1.446   1.418   7.394  0.1500  0.1726 -0.2585
  104MOL0     C13943  -1.592   1.377   7.387  0.1333 -0.5145  0.2984
  104MOL0     C13944  -1.687   1.497   7.363  0.0640  0.6436  0.2279
  104MOL0     C13945  -1.833   1.470   7.342  0.7765 -0.2285  0.5139
  104MOL0     C13946  -1.892   1.601   7.288 -0.9165 -0.3357  0.5991
  104MOL0     C13947  -2.049   1.608   7.277  0.3687  0.2390  0.6367
  104MOL0     C13948  -2.105   1.535   7.156  0.0806 -0.2329 -0.4146
  104MOL0     C13949  -2.217   1.439   7.190 -0.3241  0.5351 -0.0360
  104MOL0    Cl13950  -2.176   1.289   7.292  0.2920 -0.4875  0.2386
  104MOL0     C13951  -1.188   1.472   7.141  0.0641  0.0035  0.3684
  104MOL0     C13952  -1.054   1.517   7.139  1.5008  0.3590  0.0565
  104MOL0     O13953  -0.751   1.562   7.427  0.1023 -0.4861 -0.3028
  104MOL0     C13954  -0.521   1.674   7.306 -0.3471 -0.0590 -0.2114
  104MOL0     C13955  -0.412   1.751   7.264  0.3780  0.1789  0.1429
  104MOL0     N13956   0.136   2.091   7.015 -0.8118 -0.5233  0.1571
  104MOL0     N13957   0.263   2.044   7.014  0.2840  0.6461 -0.4536
  104MOL0     C13958   1.580   2.031   7.237  0.4306  0.2173 -0.4351
  104MOL0     C13959   1.700   2.042   7.174  0.0928 -0.1068 -0.0746
  104MOL0     C13960   2.074   2.105   6.928  0.0450  0.6021 -0.2206
  104MOL0     C13961   2.205   2.079   6.978 -0.1034 -0.2674 -0.3066
  104MOL0     C13962   2.322   2.103   6.896  1.3144 -0.2531 -0.2434
  104MOL0     C13963   2.309   2.159   6.778  0.5940 -0.2063  0.0273
  104MOL0     O13964   2.426   2.181   6.719 -0.4515 -0.5648  0.8799
  104MOL0     C13965   2.441   2.257   6.593  0.0129  0.1870  0.3070
  104MOL0     C13966   2.585   2.266   6.560 -0.5790  0.0439  0.4715
  104MOL0     C13967   2.655   2.390   6.629 -0.0136 -0.8635  0.4494
  104MOL0     C13968   2.657   2.388   6.779 -0.4776 -0.7792 -0.5105
  104MOL0     C13969   2.737   2.505   6.821 -0.2139  1.4619 -0.4306
  104MOL0     C13970   2.776   2.607   6.865  0.5892 -1.1479  0.6285
  104MOL0     C13971   2.180   2.198   6.728 -0.3448 -0.2738  0.2751
  104MOL0     C13972   2.066   2.180   6.806 -0.3241  0.2649  0.7591
  104MOL0     H13973   1.578   2.153   6.871  0.8712 -1.1384 -0.2525
  104MOL0     H13974   1.378   2.118   6.986  1.3316  0.6691 -0.6757
  104MOL0     H13975   1.214   2.174   7.159 -0.8829 -0.6382  0.3757
  104MOL0     H13976   1.213   2.012   7.091  1.1280  1.0333 -0.4134
  104MOL0     H13977   1.125   1.921   7.313 -0.5785 -0.8345 -1.8965
  104MOL0     H13978   1.134   2.092   7.371 -0.5298  0.5891 -0.6683
  104MOL0     H13979   0.984   2.161   7.182 -0.9512  0.3354  1.1184
  104MOL0     H13980   0.959   1.988   7.154 -0.5340  2.1681 -1.8806
  104MOL0     H13981   0.858   1.960   7.382 -0.8779 -0.1802  0.7251
  104MOL0     H13982   0.883   2.132   7.405 -3.8827  2.0833 -1.1851
  104MOL0     H13983   0.745   2.188   7.211  2.5489 -0.5049 -0.3978
  104MOL0     H13984   0.737   2.017   7.177  2.8461  1.2737  0.0859
  104MOL0     H13985   0.625   1.987   7.397  1.7069 -1.2524 -3.3961
  104MOL0     H13986   0.651   2.161   7.433  0.7515  1.6427 -0.5087
  104MOL0     H13987   0.419   2.116   7.358  0.4636 -0.9328  0.0538
  104MOL0     H13988   0.500   2.225   7.244 -1.5470  0.9491  0.6030
  104MOL0     H13989   0.460   1.920   7.224 -0.3259  0.1269  2.0602
  104MOL0     H13990   0.514   2.014   7.085  1.8322  0.7794  1.0842
  104MOL0     H13991   0.213   2.116   7.337  1.6264  2.3290  0.5121
  104MOL0     H13992   0.015   2.259   7.281 -0.1589 -2.9082  0.7498
  104MOL0     H13993  -0.000   2.301   7.107  1.9584 -0.1842  0.5463
  104MOL0     H13994  -0.202   2.212   7.239 -1.2530 -0.2213 -1.2117
  104MOL0     H13995  -0.109   2.059   7.256 -0.0797 -0.9438 -0.5326
  104MOL0     H13996  -0.117   2.018   7.033 -0.3590  0.0559  1.7909
  104MOL0     H13997  -0.169   2.187   6.990  3.0374  0.2215 -1.3487
  104MOL0     H13998  -0.367   2.034   6.960 -1.5322  0.7899  0.1108
  104MOL0     H13999  -0.386   2.117   7.114  2.4678  0.8616  0.5429
  104MOL0     H14000  -0.582   1.981   7.091 -0.2518 -1.0258 -1.9946
  104MOL0     H14001  -0.873   1.894   7.266 -0.5958  0.7166 -1.5555
  104MOL0     H14002  -0.803   1.994   7.142 -0.5467  0.5183  0.3562
  104MOL0     H14003  -0.873   1.847   7.095 -1.6582 -1.1402  1.5495
  104MOL0     H14004  -0.996   1.570   7.473  0.5314 -1.2345  0.4708
  104MOL0     H14005  -1.236   1.549   7.468 -2.3194  1.4144 -1.4270
  104MOL0     H14006  -1.382   1.336   7.430  2.0759  1.3548 -0.8526
  104MOL0     H14007  -1.438   1.504   7.462  1.0150  0.3904 -0.6235
  104MOL0     H14008  -1.611   1.299   7.313  0.3477  0.3593 -0.6825
  104MOL0     H14009  -1.617   1.334   7.485 -2.1164 -1.9806 -0.8251
  104MOL0     H14010  -1.649   1.552   7.277  1.1979  1.1776  1.0321
  104MOL0     H14011  -1.673   1.560   7.451 -0.4667  2.1760 -0.7526
  104MOL0     H14012  -1.849   1.389   7.271  1.3418 -0.5117  0.7022
  104MOL0     H14013  -1.884   1.439   7.434 -2.2285 -0.4872 -1.1030
  104MOL0     H14014  -1.839   1.622   7.195  0.3089  0.4967  1.4594
  104MOL0     H14015  -1.856   1.680   7.355  3.9050 -1.3648 -0.4102
  104MOL0     H14016  -2.085   1.564   7.370  1.5396 -1.0053  0.5222
  104MOL0     H14017  -2.085   1.711   7.268  0.8266  0.3517  0.0506
  104MOL0     H14018  -2.026   1.484   7.101 -0.3760  2.6103 -4.1293
  104MOL0     H14019  -2.139   1.602   7.076  0.8865  0.0497 -0.5275
  104MOL0     H14020  -2.247   1.404   7.091 -3.6223 -1.1407  1.4030
  104MOL0     H14021  -2.304   1.485   7.238 -0.7323 -1.1696  0.9507
  104MOL0     H14022  -1.242   1.432   7.056 -2.8042  2.0284  1.0823
  104MOL0     H14023  -1.001   1.512   7.045  3.1781  0.8807  0.9267
  104MOL0     H14024  -0.502   1.594   7.376 -1.3250  1.6826  2.1870
  104MOL0     H14025  -0.316   1.721   7.304  1.5293  1.3835 -1.5980
  104MOL0     H14026   1.576   1.987   7.336  2.0888 -1.4176 -1.0269
  104MOL0     H14027   1.783   2.017   7.239 -0.2054 -0.8091  0.0417
  104MOL0     H14028   2.223   2.042   7.079 -1.6515 -0.1044  0.0531
  104MOL0     H14029   2.425   2.110   6.930  1.1999  0.7495 -0.0789
  104MOL0     H14030   2.394   2.204   6.510  2.8442  1.4137 -2.2809
  104MOL0     H14031   2.387   2.351   6.607  1.8827  1.5661 -1.2817
  104MOL0     H14032   2.589   2.279   6.451  1.2282 -3.1048  0.0143
  104MOL0     H14033   2.637   2.172   6.581  0.2014  0.4276  0.3156
  104MOL0     H14034   2.614   2.486   6.596 -3.7023 -0.6387  4.7977
  104MOL0     H14035   2.755   2.384   6.584 -1.0448 -4.4956 -1.7571
  104MOL0     H14036   2.692   2.293   6.822 -1.5461  0.0208  2.3817
  104MOL0     H14037   2.555   2.405   6.814 -0.7852 -2.7560 -0.3178
  104MOL0     H14038   2.827   2.693   6.903  1.1260 -1.1045 -0.1702
  104MOL0     H14039   2.167   2.242   6.629 -1.5097 -2.3426 -0.5699
  104MOL0     H14040   1.965   2.213   6.782 -0.3792 -1.1673 -1.2296
  105MOL0     O14041   6.472   2.282   7.620  0.2873  0.7189 -0.7382
  105MOL0     C14042   6.478   2.214   7.514 -0.8057 -0.4413  0.1285
  105MOL0     O14043   6.380   2.198   7.418  0.9836 -0.0570 -0.3891
  105MOL0     C14044   6.248   2.240   7.447 -0.2374  0.3331  0.0557
  105MOL0     C14045   6.170   2.266   7.335 -0.1266 -0.9246  0.0778
  105MOL0     C14046   6.038   2.298   7.344  0.2387  0.1494 -0.6968
  105MOL0     C14047   5.977   2.305   7.474  0.5877  0.3255  0.0787
  105MOL0     O14048   5.838   2.321   7.494  0.3495  0.5697 -0.0276
  105MOL0     C14049   5.767   2.296   7.376  0.2592 -0.6048  0.0738
  105MOL0     C14050   5.619   2.282   7.411  0.1041  0.1110 -0.0120
  105MOL0     C14051   5.523   2.246   7.296 -0.1005  0.5051 -0.3252
  105MOL0     C14052   5.375   2.256   7.339  0.4710 -0.0053 -0.3564
  105MOL0     C14053   5.281   2.192   7.239 -0.2476 -0.4068 -0.8102
  105MOL0     C14054   5.125   2.223   7.266  0.2206 -0.5760  0.3013
  105MOL0     C14055   5.065   2.194   7.129 -0.6137  0.1642 -0.0004
  105MOL0     C14056   4.909   2.207   7.151 -0.2744  0.6766 -0.0057
  105MOL0     N14057   4.849   2.188   7.024  0.9632  0.3256  0.0718
  105MOL0     C14058   4.790   2.076   6.979 -0.7561  0.1813  0.0591
  105MOL0     C14059   4.758   2.094   6.846  1.0466 -0.5606 -0.2489
  105MOL0     C14060   4.705   1.984   6.764 -0.4457 -0.4423 -0.6791
  105MOL0     C14061   4.562   1.947   6.797 -0.5058  1.0808 -0.6634
  105MOL0     C14062   4.464   2.062   6.773  0.6261  0.1819  0.1059
  105MOL0     C14063   4.325   1.995   6.753  0.0000 -0.4486 -0.1214
  105MOL0     O14064   4.220   2.084   6.716  0.0630 -0.6326  0.1006
  105MOL0     C14065   4.127   2.086   6.811  0.0063 -1.0280 -0.2044
  105MOL0     C14066   4.010   2.008   6.804 -0.1980  1.1804  0.0503
  105MOL0     C14067   3.909   2.012   6.904  0.1673  0.3081  0.5462
  105MOL0     C14068   3.780   1.940   6.871  0.1608  0.0886  0.4762
  105MOL0     C14069   3.928   2.089   7.020 -0.5944 -1.3286  1.1338
  105MOL0     C14070   3.827   2.116   7.129  0.1875 -0.3961  0.1566
  105MOL0     O14071   3.754   2.020   7.171  0.1336 -0.0609  0.2677
  105MOL0     C14072   3.647   2.050   7.256 -0.0084  0.1390 -0.1523
  105MOL0     C14073   3.514   2.035   7.214  0.1756  0.0520 -0.0620
  105MOL0     C14074   3.405   2.078   7.296 -0.2915  0.2299  0.4618
  105MOL0     C14075   3.426   2.138   7.418  0.7830  0.9100 -0.0488
  105MOL0     O14076   3.324   2.184   7.501 -0.3007 -0.6675  1.1920
  105MOL0     C14077   3.217   2.235   7.424 -0.1959 -0.4599  0.1296
  105MOL0     C14078   3.121   2.312   7.512 -1.5799  0.6689 -0.1416
  105MOL0     C14079   3.183   2.448   7.566 -0.0449 -0.6206  0.2329
  105MOL0     C14080   3.079   2.505   7.667 -0.0180 -0.3995  0.1879
  105MOL0     C14081   3.120   2.644   7.723  0.2017 -0.1354  1.2949
  105MOL0     C14082   3.197   2.632   7.845 -0.2084 -0.3424 -0.6073
  105MOL0     C14083   3.240   2.766   7.882 -0.7748 -0.4379 -0.8115
  105MOL0     C14084   3.377   2.779   7.945  0.0365 -0.4975  0.3253
  105MOL0    Cl14085   3.435   2.642   8.035  0.1780 -0.0118 -0.3410
  105MOL0     C14086   3.558   2.157   7.459  0.4262  0.1692  0.7333
  105MOL0     C14087   3.668   2.110   7.381 -0.5967 -0.2803 -0.2341
  105MOL0     O14088   3.815   2.230   7.174  0.3279 -0.2226 -0.0162
  105MOL0     C14089   4.041   2.174   7.023 -0.1834 -0.3543 -0.4376
  105MOL0     C14090   4.135   2.180   6.918  0.7147  0.6182  0.0108
  105MOL0     N14091   4.798   2.224   6.814 -0.5354  0.2269 -0.6403
  105MOL0     N14092   4.859   2.269   6.915  0.1639 -1.7888  0.1532
  105MOL0     C14093   6.055   2.299   7.582  0.1341 -0.0238 -0.2777
  105MOL0     C14094   6.186   2.250   7.568 -0.1383 -0.3119  0.1628
  105MOL0     C14095   6.593   2.132   7.484  0.6183  0.7065  0.9108
  105MOL0     C14096   6.714   2.177   7.536 -0.2179 -0.5485  0.3758
  105MOL0     C14097   6.828   2.101   7.522  0.3657 -0.4420  0.4241
  105MOL0     C14098   6.826   1.977   7.463  0.3084  0.9125  0.0228
  105MOL0     O14099   6.945   1.912   7.452 -1.0992  0.8361 -0.2153
  105MOL0     C14100   7.033   1.944   7.345  0.4667  0.1462  0.0439
  105MOL0     C14101   6.974   1.902   7.204 -0.3096 -0.6895 -0.5485
  105MOL0     C14102   7.073   1.877   7.084 -1.5152  0.8450  0.3482
  105MOL0     C14103   7.195   1.966   7.077 -0.1854  0.8502  0.1503
  105MOL0     C14104   7.161   2.106   7.054  0.3107  0.7636 -0.1273
  105MOL0     C14105   7.117   2.214   7.035  0.0140 -0.0038 -0.6573
  105MOL0     C14106   6.699   1.927   7.408 -0.2749  0.6977 -0.3446
  105MOL0     C14107   6.582   2.010   7.415  0.1387  0.3597  0.1997
  105MOL0     H14108   6.219   2.291   7.242  2.9630  0.1291  1.8262
  105MOL0     H14109   5.985   2.320   7.252  1.6301  2.0781 -1.0943
  105MOL0     H14110   5.770   2.383   7.310  0.9659 -1.2790 -0.8093
  105MOL0     H14111   5.802   2.205   7.325 -1.0290 -0.9317 -0.2739
  105MOL0     H14112   5.607   2.209   7.491  0.3506  0.4391  0.3268
  105MOL0     H14113   5.587   2.382   7.444  0.7839  1.3848 -2.8734
  105MOL0     H14114   5.538   2.319   7.216  1.1001  1.4649  0.7305
  105MOL0     H14115   5.558   2.152   7.252  2.2580  2.1664 -2.2577
  105MOL0     H14116   5.365   2.203   7.434  2.5259 -0.6670 -0.4791
  105MOL0     H14117   5.349   2.361   7.357  2.2997 -0.0941  3.9537
  105MOL0     H14118   5.318   2.244   7.150  0.4838  4.1865  1.8482
  105MOL0     H14119   5.305   2.088   7.216  1.7160 -0.2423  0.2880
  105MOL0     H14120   5.092   2.150   7.341  1.3752 -0.8815  0.5449
  105MOL0     H14121   5.110   2.326   7.298  0.7006 -0.9477  1.8077
  105MOL0     H14122   5.090   2.264   7.050  0.0889 -1.3737 -1.1866
  105MOL0     H14123   5.096   2.097   7.089  1.1718  0.7391 -0.1009
  105MOL0     H14124   4.883   2.301   7.201  0.9756  1.2823 -0.4613
  105MOL0     H14125   4.895   2.122   7.219  0.0195  0.3985 -0.2914
  105MOL0     H14126   4.783   1.983   7.035  3.9215  1.0014  2.5132
  105MOL0     H14127   4.719   2.009   6.658  2.3776 -2.2382 -0.8275
  105MOL0     H14128   4.775   1.901   6.773  1.2058  0.9645 -0.1130
  105MOL0     H14129   4.554   1.901   6.896 -0.8282  1.6625 -0.4141
  105MOL0     H14130   4.540   1.872   6.720  1.3444 -2.3303  1.8460
  105MOL0     H14131   4.492   2.107   6.677 -0.4755  0.0516 -0.2973
  105MOL0     H14132   4.461   2.138   6.852  0.4112  0.8616 -0.5418
  105MOL0     H14133   4.308   1.948   6.851  0.4071  1.8949  1.1370
  105MOL0     H14134   4.320   1.917   6.676 -1.7073  0.9233 -1.4538
  105MOL0     H14135   3.983   1.941   6.723  0.6910 -1.2876  1.6724
  105MOL0     H14136   3.694   1.984   6.923  0.2138  0.1022  0.5523
  105MOL0     H14137   3.763   1.966   6.766 -0.5386  2.0055  1.0072
  105MOL0     H14138   3.785   1.831   6.864 -0.9055  0.0501  0.1437
  105MOL0     H14139   3.495   1.976   7.125 -2.1121  1.5978 -0.6661
  105MOL0     H14140   3.308   2.046   7.261  0.8706 -0.0880 -2.7798
  105MOL0     H14141   3.247   2.313   7.353  0.2885  0.7270  1.5624
  105MOL0     H14142   3.174   2.157   7.363 -0.1169  0.1582 -0.7346
  105MOL0     H14143   3.029   2.345   7.463 -1.9834  0.9023  0.7633
  105MOL0     H14144   3.086   2.240   7.587 -0.9269  0.1943 -0.2787
  105MOL0     H14145   3.200   2.522   7.487 -0.2223  3.8265  3.9434
  105MOL0     H14146   3.278   2.432   7.619 -0.5984 -1.1219  1.0986
  105MOL0     H14147   2.983   2.521   7.619  0.9441  1.6569 -1.1729
  105MOL0     H14148   3.061   2.436   7.751  1.5407 -1.2363 -0.1198
  105MOL0     H14149   3.034   2.705   7.751 -0.7280 -2.1018  2.9856
  105MOL0     H14150   3.181   2.687   7.643 -0.4079 -1.4269  0.1079
  105MOL0     H14151   3.148   2.594   7.935  1.7443  0.9872  1.1391
  105MOL0     H14152   3.284   2.566   7.833  1.7804  2.2076 -1.1225
  105MOL0     H14153   3.167   2.788   7.960  0.0257 -1.5731  0.3016
  105MOL0     H14154   3.234   2.843   7.804 -2.1697  0.5773  0.2531
  105MOL0     H14155   3.380   2.874   7.998 -0.4168 -0.4917  0.3422
  105MOL0     H14156   3.446   2.795   7.861 -0.8550  0.5769 -0.2105
  105MOL0     H14157   3.573   2.192   7.560 -1.0780 -4.0441  2.6303
  105MOL0     H14158   3.770   2.114   7.417 -1.7421  3.5158  3.4120
  105MOL0     H14159   4.059   2.237   7.109 -0.2132  1.6409 -1.8145
  105MOL0     H14160   4.219   2.247   6.927  1.8953 -1.0818  3.4419
  105MOL0     H14161   6.017   2.323   7.681  0.5948 -0.5973  0.0406
  105MOL0     H14162   6.235   2.241   7.664 -2.0336 -0.1848  1.2089
  105MOL0     H14163   6.716   2.271   7.589  1.3113 -2.3310  3.8134
  105MOL0     H14164   6.920   2.135   7.569  0.1322 -1.2831  1.5561
  105MOL0     H14165   7.049   2.051   7.331  1.7427 -0.1635 -1.0235
  105MOL0     H14166   7.131   1.901   7.365 -0.8203 -1.9365  2.5167
  105MOL0     H14167   6.908   1.986   7.183  0.5988  0.7689  1.9433
  105MOL0     H14168   6.916   1.810   7.203  2.4834 -2.5682 -1.7489
  105MOL0     H14169   7.020   1.885   6.988  1.9560 -2.5483 -2.1352
  105MOL0     H14170   7.085   1.769   7.084 -1.0465  0.8809 -0.9205
  105MOL0     H14171   7.247   1.928   6.988 -1.4101 -2.1864  0.6148
  105MOL0     H14172   7.264   1.945   7.159  0.3467 -1.7973 -0.8738
  105MOL0     H14173   7.087   2.316   7.021 -0.7037  0.0568  1.0715
  105MOL0     H14174   6.706   1.831   7.358 -0.2971  0.0041  0.9370
  105MOL0     H14175   6.491   1.975   7.368 -0.4585  1.2835  0.6252
  106MOL0     O14176   9.677  10.533   9.776  0.0355 -0.5132 -0.6854
  106MOL0     C14177   9.766  10.469   9.722  0.0339  0.0234  0.8210
  106MOL0     O14178   9.784  10.335   9.722  0.3652 -0.2069 -0.5694
  106MOL0     C14179   9.691  10.260   9.785  0.3160 -0.0266 -1.5280
  106MOL0     C14180   9.653  10.273   9.921 -1.1007 -0.1892  0.3428
  106MOL0     C14181   9.556  10.193   9.981  0.9517  0.2291 -0.1105
  106MOL0     C14182   9.473  10.119   9.899 -0.1662  0.2743  0.6124
  106MOL0     O14183   9.366  10.051   9.946  0.0100  0.1330  0.6053
  106MOL0     C14184   9.311   9.947   9.867 -0.2066 -0.3194 -0.6653
  106MOL0     C14185   9.192   9.887   9.943  0.7714  0.5259  0.0970
  106MOL0     C14186   9.064   9.977   9.928 -0.0402  0.9257 -0.1085
  106MOL0     C14187   8.952   9.944  10.035 -1.1292  0.1833 -1.5991
  106MOL0     C14188   8.970  10.017  10.165 -0.4925 -0.6248 -0.5990
  106MOL0     C14189   8.853  10.000  10.261  0.5086  0.1171 -0.6003
  106MOL0     C14190   8.854  10.109  10.364  0.5647 -0.2247 -0.7305
  106MOL0     C14191   8.782  10.086  10.501 -0.6556 -0.2911 -0.2087
  106MOL0     N14192   8.635  10.104  10.476 -0.1208  0.4925  0.9276
  106MOL0     C14193   8.569  10.223  10.454  0.6005  0.0738  0.7098
  106MOL0     C14194   8.438  10.203  10.452 -0.2121  0.3825 -0.0175
  106MOL0     C14195   8.321  10.293  10.422  0.2682  0.0993  1.0294
  106MOL0     C14196   8.192  10.263  10.501 -0.1910  0.0474  0.2596
  106MOL0     C14197   8.083  10.196  10.423 -0.3759  0.3447 -0.0613
  106MOL0     C14198   7.953  10.207  10.506  0.7161 -0.4661 -0.4755
  106MOL0     O14199   7.862  10.145  10.420 -0.4611  0.6475 -0.3971
  106MOL0     C14200   7.725  10.155  10.454 -0.5400  0.3712 -0.1705
  106MOL0     C14201   7.626  10.110  10.366 -0.1791  0.5863  0.1667
  106MOL0     C14202   7.492  10.101  10.399 -0.1554 -0.7280 -0.0343
  106MOL0     C14203   7.407  10.044  10.289  0.1327 -0.6607 -0.4940
  106MOL0     C14204   7.447  10.144  10.529 -0.0475 -0.1583  0.3987
  106MOL0     C14205   7.305  10.137  10.567  0.0834 -0.0546 -0.3990
  106MOL0     O14206   7.281  10.169  10.696  0.3538 -0.4141  0.4293
  106MOL0     C14207   7.152  10.194  10.737  0.0306  0.4967  0.7130
  106MOL0     C14208   7.068  10.286  10.670  0.4266  0.6172 -0.4417
  106MOL0     C14209   6.930  10.289  10.717  0.0673 -0.2306  0.9043
  106MOL0     C14210   6.874  10.215  10.812  0.2320 -0.0479 -0.4472
  106MOL0     O14211   6.734  10.232  10.833  0.2775  0.1031  0.5650
  106MOL0     C14212   6.670  10.117  10.882 -0.1946 -0.0017  0.3105
  106MOL0     C14213   6.515  10.133  10.846 -0.2558 -0.0977 -0.2229
  106MOL0     C14214   6.432  10.004  10.877  0.4161  0.2122  0.2445
  106MOL0     C14215   6.307  10.046  10.961 -0.0375  0.2044 -0.6339
  106MOL0     C14216   6.220   9.927  11.020  0.2567 -0.3654 -0.3005
  106MOL0     C14217   6.095   9.993  11.081 -0.5886 -0.4527  0.0604
  106MOL0     C14218   6.026   9.894  11.169  1.7040 -0.2560 -0.8025
  106MOL0     C14219   5.930   9.974  11.259 -0.5443 -0.3514  0.2918
  106MOL0    Cl14220   5.842   9.848  11.355 -0.1163 -0.2999  0.2160
  106MOL0     C14221   6.958  10.126  10.876 -0.8188  0.6411 -0.0160
  106MOL0     C14222   7.096  10.110  10.836 -0.4110 -0.3225  0.2376
  106MOL0     O14223   7.222  10.099  10.484  0.3290 -0.5962  0.1784
  106MOL0     C14224   7.539  10.218  10.607 -0.0887  0.5316  0.3624
  106MOL0     C14225   7.677  10.221  10.566  0.3922 -0.0945 -0.3212
  106MOL0     N14226   8.422  10.066  10.445  0.3149  0.9263 -0.3854
  106MOL0     N14227   8.540  10.004  10.461 -0.3363 -0.7390  0.4579
  106MOL0     C14228   9.511  10.106   9.764  0.0924  0.9010  0.0545
  106MOL0     C14229   9.626  10.175   9.710  0.3075  0.5440 -0.4722
  106MOL0     C14230   9.866  10.548   9.670 -1.6860  0.5979  0.0496
  106MOL0     C14231   9.852  10.682   9.642  0.0754  0.3653 -0.2113
  106MOL0     C14232   9.962  10.753   9.602 -0.6402 -0.6214  0.5399
  106MOL0     C14233  10.089  10.702   9.586  0.2890 -0.1073 -0.3688
  106MOL0     O14234  10.196  10.787   9.548 -0.0762  0.8535 -0.1728
  106MOL0     C14235  10.179  10.886   9.436 -1.3533 -0.7300 -0.2080
  106MOL0     C14236  10.324  10.925   9.383  0.1189  0.8374 -0.1581
  106MOL0     C14237  10.324  11.046   9.291 -0.0078 -0.0848  0.2365
  106MOL0     C14238  10.425  11.042   9.178 -0.6752  0.2779  0.5944
  106MOL0     C14239  10.561  11.058   9.225 -0.1922  0.1745  0.0297
  106MOL0     C14240  10.671  11.081   9.266 -0.1653  0.0257 -0.1576
  106MOL0     C14241  10.108  10.567   9.605 -0.6041  0.3653  0.1949
  106MOL0     C14242   9.996  10.490   9.655 -0.2725 -0.2014  0.1574
  106MOL0     H14243   9.713  10.352   9.964  0.4686 -0.8463 -0.5534
  106MOL0     H14244   9.529  10.205  10.086 -1.2658 -1.6366 -0.3849
  106MOL0     H14245   9.277   9.982   9.769  0.6397  1.7302 -0.2832
  106MOL0     H14246   9.376   9.859   9.864  0.4524  0.1825 -1.6127
  106MOL0     H14247   9.173   9.789   9.899 -1.5233  0.6594  0.6259
  106MOL0     H14248   9.224   9.875  10.047 -0.2560  2.3815  0.6709
  106MOL0     H14249   9.097  10.079   9.948 -0.1535  1.4777 -2.4743
  106MOL0     H14250   9.024   9.977   9.826  2.8942  1.7327 -1.3871
  106MOL0     H14251   8.849   9.963  10.003 -0.9624  0.6665 -1.8609
  106MOL0     H14252   8.961   9.837  10.056  0.2043  0.2052 -1.9826
  106MOL0     H14253   9.066   9.991  10.210  0.3883  0.3214 -1.8851
  106MOL0     H14254   8.980  10.122  10.139  0.0589 -0.8985 -1.5212
  106MOL0     H14255   8.760  10.010  10.204 -1.6305 -0.9281  2.3773
  106MOL0     H14256   8.856   9.897  10.300 -1.3810 -0.6609 -2.3266
  106MOL0     H14257   8.960  10.122  10.387  0.8063 -1.2918 -1.2056
  106MOL0     H14258   8.807  10.195  10.315 -0.3698  0.7829  1.7579
  106MOL0     H14259   8.805  10.162  10.576  1.6874 -2.5908  1.5927
  106MOL0     H14260   8.821   9.989  10.535 -0.5793 -0.3520 -0.4719
  106MOL0     H14261   8.626  10.315  10.437  2.7285 -1.1763  0.7109
  106MOL0     H14262   8.361  10.395  10.426  0.7984 -0.0346 -0.3339
  106MOL0     H14263   8.304  10.292  10.314  1.7704 -0.7170  0.7722
  106MOL0     H14264   8.158  10.354  10.551 -1.4380  1.1887 -2.4546
  106MOL0     H14265   8.217  10.183  10.571  1.3313  0.9938  0.8346
  106MOL0     H14266   8.112  10.091  10.412 -0.0384  0.0147  3.0837
  106MOL0     H14267   8.068  10.236  10.322  2.2143 -2.5127 -1.7281
  106MOL0     H14268   7.919  10.309  10.526 -1.1339 -0.2137 -3.9856
  106MOL0     H14269   7.960  10.148  10.598 -0.0986  1.3143  0.7803
  106MOL0     H14270   7.665  10.075  10.271 -0.8688 -1.2999  0.5429
  106MOL0     H14271   7.346  10.125  10.247  1.9501 -0.3583 -2.7559
  106MOL0     H14272   7.462   9.999  10.206 -2.1611 -0.3937 -2.2549
  106MOL0     H14273   7.350   9.963  10.334  0.0255  0.5539  1.6902
  106MOL0     H14274   7.112  10.347  10.593  0.4303  1.8792  0.5372
  106MOL0     H14275   6.877  10.371  10.669  1.3773  0.4127  0.5125
  106MOL0     H14276   6.708  10.019  10.851  1.5323  0.3532  1.2334
  106MOL0     H14277   6.680  10.130  10.990  0.0134  3.0634  0.0065
  106MOL0     H14278   6.479  10.227  10.890  0.5058  0.2100 -0.2415
  106MOL0     H14279   6.521  10.146  10.737  3.1542  0.2682 -0.0811
  106MOL0     H14280   6.495   9.932  10.930  1.5527 -0.5622 -2.0212
  106MOL0     H14281   6.405   9.957  10.782  0.4642  5.3396 -2.6444
  106MOL0     H14282   6.346  10.108  11.042 -2.3941  0.1554  0.6387
  106MOL0     H14283   6.250  10.116  10.900 -5.1318 -0.2097  2.9742
  106MOL0     H14284   6.279   9.870  11.092  1.4987  3.9898  2.5218
  106MOL0     H14285   6.186   9.861  10.940 -2.7649 -0.3125  0.8299
  106MOL0     H14286   6.126  10.076  11.146 -0.9537  0.2097 -0.5980
  106MOL0     H14287   6.036  10.026  10.995 -0.3546 -1.7510 -0.6301
  106MOL0     H14288   6.088   9.842  11.242  1.8089  2.1968  0.9728
  106MOL0     H14289   5.967   9.824  11.109 -0.0737 -1.1435  1.8114
  106MOL0     H14290   5.868  10.029  11.188  1.4018 -0.6283 -1.7297
  106MOL0     H14291   5.980  10.049  11.321  0.0630  0.2455 -0.8992
  106MOL0     H14292   6.918  10.074  10.962  0.7154  1.1896  1.0796
  106MOL0     H14293   7.161  10.033  10.878  0.1837 -0.7816 -1.4568
  106MOL0     H14294   7.515  10.271  10.699  0.8465  0.9279  0.3930
  106MOL0     H14295   7.731  10.275  10.643 -1.6930  0.2737  0.9849
  106MOL0     H14296   9.466  10.050   9.682  0.4546  2.4162 -1.2384
  106MOL0     H14297   9.656  10.164   9.606 -2.0183  0.8338 -1.2463
  106MOL0     H14298   9.751  10.719   9.657  0.0210 -0.3468  1.4836
  106MOL0     H14299   9.944  10.858   9.578 -2.0369 -1.2256 -1.2340
  106MOL0     H14300  10.133  10.830   9.354 -0.6428 -2.8035  0.7391
  106MOL0     H14301  10.117  10.972   9.462 -0.4183 -0.7932  2.6357
  106MOL0     H14302  10.371  10.847   9.323 -0.5146  1.0578 -0.9577
  106MOL0     H14303  10.397  10.941   9.463  0.4854  1.9292 -0.6869
  106MOL0     H14304  10.341  11.135   9.352  2.6549  0.4220 -1.1005
  106MOL0     H14305  10.229  11.056   9.238  1.2019  0.1816 -2.0027
  106MOL0     H14306  10.414  11.128   9.112  1.8529 -1.0915 -1.8300
  106MOL0     H14307  10.403  10.952   9.120 -2.3623 -0.2783  2.0156
  106MOL0     H14308  10.767  11.110   9.302  0.1046  1.2400 -1.6978
  106MOL0     H14309  10.205  10.518   9.606 -0.4501  0.5346 -2.0133
  106MOL0     H14310  10.024  10.389   9.686  0.6178 -0.7498 -2.1776
  107MOL0     O14311   5.009   6.135   8.976 -0.4368  0.1825 -0.5170
  107MOL0     C14312   5.067   6.234   8.932  0.0928  0.4868  0.0410
  107MOL0     O14313   5.014   6.355   8.931  0.8744  0.5311  0.0089
  107MOL0     C14314   4.881   6.367   8.892 -0.2074  0.9814 -0.3222
  107MOL0     C14315   4.844   6.493   8.859  1.0528  0.4433 -0.0652
  107MOL0     C14316   4.711   6.528   8.813  0.2259  0.3816 -0.2290
  107MOL0     C14317   4.606   6.439   8.800 -0.9977 -0.3678  0.6422
  107MOL0     O14318   4.481   6.461   8.749  0.5099  0.4358 -0.4433
  107MOL0     C14319   4.428   6.591   8.742  0.1132 -0.3266  0.7408
  107MOL0     C14320   4.278   6.596   8.724  0.4583 -0.7874  0.3730
  107MOL0     C14321   4.227   6.556   8.581 -0.2915 -0.5720 -0.2041
  107MOL0     C14322   4.074   6.562   8.566 -0.1438 -0.2599  1.0249
  107MOL0     C14323   4.002   6.438   8.597 -0.3279 -0.3843 -0.5080
  107MOL0     C14324   3.852   6.467   8.583  0.5197 -0.3705  0.0775
  107MOL0     C14325   3.783   6.338   8.619  0.0052  0.2314  0.1207
  107MOL0     C14326   3.651   6.371   8.698  0.0322  0.1354  0.4263
  107MOL0     N14327   3.560   6.450   8.629  0.3464 -0.3773 -0.1358
  107MOL0     C14328   3.452   6.394   8.573 -0.0106  0.3977  0.0756
  107MOL0     C14329   3.363   6.494   8.540  0.1723 -0.3569  0.8516
  107MOL0     C14330   3.224   6.473   8.484 -0.1299  0.0396  0.7025
  107MOL0     C14331   3.195   6.552   8.362 -0.2751  0.2374 -0.3321
  107MOL0     C14332   3.062   6.499   8.309  0.0923 -0.7319 -0.4473
  107MOL0     C14333   2.948   6.588   8.342  0.1853  0.6868 -0.6586
  107MOL0     O14334   2.824   6.527   8.300 -0.1146  0.1119 -0.2617
  107MOL0     C14335   2.723   6.613   8.269  0.0510 -0.4051 -0.3420
  107MOL0     C14336   2.633   6.550   8.195  0.2681 -0.8080  0.1703
  107MOL0     C14337   2.511   6.623   8.148 -0.1159  0.4457 -0.0082
  107MOL0     C14338   2.416   6.550   8.056  0.2203 -0.5341  0.5649
  107MOL0     C14339   2.505   6.761   8.181 -0.5561 -0.4081  1.3127
  107MOL0     C14340   2.404   6.855   8.122 -0.8378 -0.5713 -0.2307
  107MOL0     O14341   2.425   6.991   8.152 -0.9904 -0.5421 -0.3064
  107MOL0     C14342   2.328   7.084   8.134 -0.2233 -0.0962  0.3541
  107MOL0     C14343   2.195   7.047   8.166 -0.7808  0.0873  0.0086
  107MOL0     C14344   2.096   7.144   8.147 -0.0070 -0.0959 -0.3045
  107MOL0     C14345   2.125   7.278   8.120 -0.4524  0.0553  0.2179
  107MOL0     O14346   2.027   7.381   8.128 -0.1892 -0.0284  0.0128
  107MOL0     C14347   1.893   7.350   8.139  0.2991 -0.1682  0.3196
  107MOL0     C14348   1.828   7.489   8.151  0.1124 -0.3558  0.1773
  107MOL0     C14349   1.813   7.563   8.016 -0.0615  0.1103 -0.4941
  107MOL0     C14350   1.686   7.655   8.027 -0.5736 -0.0172  0.3842
  107MOL0     C14351   1.680   7.756   7.909  0.1916 -0.0690 -1.0521
  107MOL0     C14352   1.550   7.832   7.917 -0.3407 -0.4824 -0.5110
  107MOL0     C14353   1.523   7.917   7.788  0.4803 -0.0417 -0.0838
  107MOL0     C14354   1.366   7.930   7.773 -0.1025  0.3210  0.4651
  107MOL0    Cl14355   1.292   8.043   7.892  0.1268  0.7241 -0.0274
  107MOL0     C14356   2.256   7.313   8.090  0.2266  0.2182 -0.2107
  107MOL0     C14357   2.364   7.214   8.097 -0.1945 -0.3800  0.0056
  107MOL0     O14358   2.329   6.814   8.035 -0.2847 -0.4130  0.2203
  107MOL0     C14359   2.595   6.807   8.275 -0.1941 -0.5305 -0.2917
  107MOL0     C14360   2.701   6.737   8.318 -0.0705  0.7676  0.3408
  107MOL0     N14361   3.412   6.610   8.601 -0.5508  0.7919 -0.3842
  107MOL0     N14362   3.536   6.583   8.642 -0.1264 -0.4001 -0.0822
  107MOL0     C14363   4.640   6.309   8.829  0.7444 -0.4651  0.2977
  107MOL0     C14364   4.775   6.273   8.865  0.2792 -0.6537  1.3909
  107MOL0     C14365   5.209   6.223   8.900  0.9520 -0.3490  0.4164
  107MOL0     C14366   5.287   6.340   8.900  0.2608  0.9368 -0.0160
  107MOL0     C14367   5.412   6.338   8.856  0.3117  0.2002  0.2079
  107MOL0     C14368   5.484   6.219   8.829  0.1269 -0.1434  0.4827
  107MOL0     O14369   5.617   6.208   8.808  0.0225 -0.5599  0.2458
  107MOL0     C14370   5.688   6.323   8.753  0.1507 -0.8457  0.5079
  107MOL0     C14371   5.807   6.257   8.692 -0.3372 -0.4339  0.5075
  107MOL0     C14372   5.889   6.365   8.606 -0.0431 -0.5800 -0.2301
  107MOL0     C14373   6.016   6.287   8.549 -0.2769 -0.2265  0.5454
  107MOL0     C14374   6.107   6.386   8.480  0.1034 -0.5627 -0.8565
  107MOL0     C14375   6.192   6.458   8.432  0.2245 -0.6275  0.1233
  107MOL0     C14376   5.411   6.103   8.842  0.6516 -0.7618 -0.0938
  107MOL0     C14377   5.273   6.102   8.867  1.0233 -0.3339  0.1826
  107MOL0     H14378   4.918   6.570   8.875  2.2555 -0.1657 -2.3052
  107MOL0     H14379   4.701   6.636   8.802  1.2417  0.7674  2.1692
  107MOL0     H14380   4.458   6.646   8.831  0.9453  0.6462 -0.1187
  107MOL0     H14381   4.468   6.640   8.652 -3.2136 -0.9780 -1.2580
  107MOL0     H14382   4.235   6.530   8.799 -2.8732 -0.0901 -0.7847
  107MOL0     H14383   4.242   6.698   8.737 -1.5912 -1.6479  1.9478
  107MOL0     H14384   4.271   6.630   8.512  1.2756  0.1932  1.5195
  107MOL0     H14385   4.264   6.457   8.551  0.9151 -0.2683  0.2034
  107MOL0     H14386   4.030   6.647   8.619 -1.3395 -1.2313  1.6225
  107MOL0     H14387   4.052   6.574   8.459  1.2720 -2.3469  0.4311
  107MOL0     H14388   4.034   6.351   8.539 -1.0333  0.6575 -2.5494
  107MOL0     H14389   4.031   6.407   8.698  0.1460 -0.9732 -0.8167
  107MOL0     H14390   3.824   6.553   8.644  2.5473  0.7300 -0.4793
  107MOL0     H14391   3.829   6.493   8.479 -2.3473  4.2031  1.5700
  107MOL0     H14392   3.761   6.294   8.521 -0.3788  0.1156  0.2549
  107MOL0     H14393   3.839   6.267   8.681 -1.2699  2.0495  3.6564
  107MOL0     H14394   3.667   6.422   8.793  0.6634  2.4596 -0.8477
  107MOL0     H14395   3.603   6.278   8.728 -1.6772  1.3657  1.7173
  107MOL0     H14396   3.433   6.288   8.556  0.8026 -0.5524  4.0956
  107MOL0     H14397   3.210   6.366   8.461  1.2411 -0.0558  0.2002
  107MOL0     H14398   3.151   6.505   8.559  1.6538  3.0591  1.2666
  107MOL0     H14399   3.278   6.517   8.300 -0.5920 -2.4658  0.6182
  107MOL0     H14400   3.201   6.659   8.381  3.1477  0.7244 -3.1957
  107MOL0     H14401   3.042   6.397   8.343 -0.4743 -0.3033  0.5116
  107MOL0     H14402   3.079   6.512   8.202  0.5153 -0.7472 -0.3832
  107MOL0     H14403   2.966   6.681   8.287 -0.2372  1.1015 -0.1136
  107MOL0     H14404   2.941   6.603   8.450 -2.1334  0.1191 -0.6730
  107MOL0     H14405   2.661   6.445   8.189  0.1844 -0.7862 -0.8226
  107MOL0     H14406   2.440   6.560   7.949 -1.4495  2.0788  0.3532
  107MOL0     H14407   2.435   6.444   8.072  2.5902 -0.2929 -0.1870
  107MOL0     H14408   2.312   6.581   8.068  0.4122  1.8561 -2.5267
  107MOL0     H14409   2.177   6.942   8.184 -0.8191  0.1153  0.1360
  107MOL0     H14410   1.996   7.103   8.155 -0.5129  1.3078  0.9622
  107MOL0     H14411   1.855   7.291   8.055  2.7958 -1.1698 -0.2033
  107MOL0     H14412   1.873   7.292   8.230  0.1358 -2.3835 -1.0469
  107MOL0     H14413   1.734   7.481   8.206  1.5503 -0.2012  2.8514
  107MOL0     H14414   1.895   7.550   8.212  0.2053  0.8386 -1.0760
  107MOL0     H14415   1.814   7.498   7.929  1.7228  1.1869 -1.3389
  107MOL0     H14416   1.903   7.624   8.007 -1.9282  3.6180  2.0689
  107MOL0     H14417   1.598   7.590   8.016 -1.6597  1.4832 -0.0082
  107MOL0     H14418   1.687   7.701   8.126 -1.0526  0.0249  0.3737
  107MOL0     H14419   1.687   7.703   7.814  1.3130 -2.1686  0.1141
  107MOL0     H14420   1.760   7.830   7.916  2.6373 -2.2595 -3.5152
  107MOL0     H14421   1.472   7.759   7.942  0.3834 -1.2028 -0.3182
  107MOL0     H14422   1.568   7.892   8.006  0.7971 -1.5077 -0.0135
  107MOL0     H14423   1.567   7.886   7.694 -1.7524 -0.9793 -0.9031
  107MOL0     H14424   1.561   8.018   7.803 -1.6475  0.7592  0.3698
  107MOL0     H14425   1.327   7.829   7.786  1.1700  0.0976  3.2594
  107MOL0     H14426   1.345   7.970   7.673 -2.3877  0.1409  0.8229
  107MOL0     H14427   2.282   7.419   8.087  4.9004 -0.6769  0.1471
  107MOL0     H14428   2.466   7.244   8.075 -0.0506  0.6405  1.8856
  107MOL0     H14429   2.585   6.901   8.328  2.7748  0.4031 -1.2368
  107MOL0     H14430   2.763   6.782   8.395 -0.5916  1.8396  0.1575
  107MOL0     H14431   4.569   6.227   8.823  1.1223 -0.7473 -0.4009
  107MOL0     H14432   4.798   6.167   8.873 -1.1623 -1.1282 -0.1233
  107MOL0     H14433   5.248   6.439   8.922  0.2486  0.3209  3.3420
  107MOL0     H14434   5.472   6.427   8.835  0.9359  0.2003  1.8835
  107MOL0     H14435   5.630   6.367   8.670  1.0236  1.2635  0.9547
  107MOL0     H14436   5.717   6.392   8.832  0.6294 -1.2563  0.6896
  107MOL0     H14437   5.765   6.177   8.630  0.6004  0.8021 -1.8261
  107MOL0     H14438   5.874   6.217   8.769  2.3781 -0.9674 -1.9938
  107MOL0     H14439   5.925   6.442   8.674  0.4470  1.8139 -3.0136
  107MOL0     H14440   5.824   6.407   8.529  0.2878 -1.1979 -0.8626
  107MOL0     H14441   5.980   6.214   8.477 -0.3115  2.7435 -2.7209
  107MOL0     H14442   6.069   6.238   8.632  0.6841 -2.1615 -1.1198
  107MOL0     H14443   6.271   6.516   8.387 -1.4785  1.4624 -0.3844
  107MOL0     H14444   5.448   6.004   8.818  1.6214 -0.6223  0.7602
  107MOL0     H14445   5.220   6.008   8.881 -1.1136  1.0381  2.1376
  108MOL0     O14446   1.283   6.934   9.541  0.6668  0.1294  0.2927
  108MOL0     C14447   1.214   6.897   9.624  0.3242  0.0278 -0.9736
  108MOL0     O14448   1.075   6.881   9.608  0.1592 -0.1239 -0.1052
  108MOL0     C14449   1.013   6.923   9.494 -0.2401 -0.8211  0.6843
  108MOL0     C14450   1.031   6.872   9.365 -0.4999 -1.0844  0.1360
  108MOL0     C14451   0.975   6.934   9.252 -0.2357 -0.0329 -0.4378
  108MOL0     C14452   0.877   7.046   9.271 -0.3712 -0.3573  0.3534
  108MOL0     O14453   0.819   7.093   9.156  0.2383  0.2902  0.7527
  108MOL0     C14454   0.868   7.222   9.122 -0.8861 -0.9575  0.5767
  108MOL0     C14455   0.778   7.312   9.033 -0.3846  0.9132 -0.6575
  108MOL0     C14456   0.700   7.236   8.933 -0.0523  0.3080  0.0672
  108MOL0     C14457   0.601   7.318   8.844 -0.5250  0.4646  0.3115
  108MOL0     C14458   0.515   7.234   8.752 -0.3329 -0.2978  0.2293
  108MOL0     C14459   0.409   7.310   8.685  1.0320 -0.1605 -0.9533
  108MOL0     C14460   0.298   7.363   8.779  0.2123  0.8087 -0.2658
  108MOL0     C14461   0.201   7.455   8.701 -0.6545 -0.1964  0.6493
  108MOL0     N14462   0.080   7.491   8.783 -0.3981  0.4744 -0.3280
  108MOL0     C14463  -0.049   7.473   8.737 -0.8008  0.2517  0.0135
  108MOL0     C14464  -0.136   7.489   8.846  0.3930 -0.9214  0.1157
  108MOL0     C14465  -0.283   7.459   8.832 -0.9908 -0.3088 -0.0408
  108MOL0     C14466  -0.355   7.430   8.960 -0.5277  0.0633  0.0028
  108MOL0     C14467  -0.495   7.396   8.936  0.2651 -0.1234 -0.0400
  108MOL0     C14468  -0.584   7.512   8.910  0.9861 -0.0485  0.4297
  108MOL0     O14469  -0.553   7.597   8.796 -0.4520  0.1826 -0.1201
  108MOL0     C14470  -0.574   7.541   8.676  0.7469 -0.1793  0.5077
  108MOL0     C14471  -0.672   7.447   8.652 -0.2622  1.8578  0.4616
  108MOL0     C14472  -0.710   7.398   8.528  0.1300  0.0928  0.5334
  108MOL0     C14473  -0.806   7.287   8.528 -0.7844  0.1598  0.1041
  108MOL0     C14474  -0.639   7.455   8.413  0.0147 -0.6854 -0.7402
  108MOL0     C14475  -0.655   7.409   8.272  0.5571  0.3072  0.2989
  108MOL0     O14476  -0.623   7.500   8.174  0.2601  0.3751 -0.0013
  108MOL0     C14477  -0.605   7.453   8.045 -0.1369 -0.2518  0.1446
  108MOL0     C14478  -0.715   7.430   7.964 -0.2641 -0.9317 -0.8802
  108MOL0     C14479  -0.704   7.355   7.849 -0.2400  0.5228  0.0648
  108MOL0     C14480  -0.582   7.305   7.817 -0.2455  0.1581  0.2440
  108MOL0     O14481  -0.552   7.232   7.707 -0.3832  0.2622  0.3620
  108MOL0     C14482  -0.620   7.108   7.718  0.0616 -0.0097  0.8316
  108MOL0     C14483  -0.658   7.058   7.589  0.1216 -0.2897 -0.5193
  108MOL0     C14484  -0.788   7.129   7.543 -0.4131 -0.5456  0.1562
  108MOL0     C14485  -0.827   7.088   7.398  0.4953  0.3123 -0.3319
  108MOL0     C14486  -0.739   7.156   7.296  0.1096  0.2796  0.0388
  108MOL0     C14487  -0.790   7.137   7.156  0.5450 -0.4228  0.2097
  108MOL0     C14488  -0.676   7.197   7.059 -0.3871 -0.4787  0.7221
  108MOL0     C14489  -0.726   7.203   6.911  0.8178 -0.0455 -0.1966
  108MOL0    Cl14490  -0.842   7.335   6.886 -0.9131  0.2654 -0.1967
  108MOL0     C14491  -0.466   7.347   7.889  0.6691 -0.3545 -0.1111
  108MOL0     C14492  -0.479   7.426   8.001  0.1146  0.2973  0.2908
  108MOL0     O14493  -0.720   7.309   8.252  0.8682  0.2798 -0.1187
  108MOL0     C14494  -0.529   7.543   8.440 -1.0063 -0.4248  0.8535
  108MOL0     C14495  -0.504   7.591   8.569  0.5773  0.5095 -0.1050
  108MOL0     N14496  -0.049   7.508   8.957 -0.1833 -0.7292 -0.0237
  108MOL0     N14497   0.071   7.511   8.916  0.0200 -1.3412 -0.3898
  108MOL0     C14498   0.853   7.094   9.404 -0.3113  0.5000  0.1770
  108MOL0     C14499   0.917   7.025   9.508 -0.0818  0.0051  0.2969
  108MOL0     C14500   1.285   6.838   9.747  0.1182 -0.2975  0.0141
  108MOL0     C14501   1.427   6.829   9.751 -0.7793 -0.2477  0.6561
  108MOL0     C14502   1.504   6.774   9.853 -0.2662 -0.6229  0.5181
  108MOL0     C14503   1.435   6.723   9.955  0.1157 -0.4609 -0.5767
  108MOL0     O14504   1.499   6.684  10.066  0.3225 -0.2115  0.3445
  108MOL0     C14505   1.444   6.587  10.161 -0.3293  0.1063  0.4976
  108MOL0     C14506   1.414   6.452  10.095  0.4821  1.1188 -0.4061
  108MOL0     C14507   1.536   6.399  10.011 -0.2868  0.3694  0.8966
  108MOL0     C14508   1.505   6.266   9.945 -0.3084  0.3352  0.3361
  108MOL0     C14509   1.433   6.173  10.021  0.1539 -0.2109  0.1977
  108MOL0     C14510   1.366   6.105  10.093 -0.1379  0.0622  0.7200
  108MOL0     C14511   1.297   6.728   9.964  0.3369 -1.0075 -0.2343
  108MOL0     C14512   1.215   6.783   9.861 -0.2808  0.1110  0.1568
  108MOL0     H14513   1.112   6.799   9.360  1.2250  0.7283  0.3102
  108MOL0     H14514   0.998   6.895   9.154 -0.2665 -2.1642  0.3430
  108MOL0     H14515   0.875   7.275   9.218 -1.4811 -1.5544  0.9622
  108MOL0     H14516   0.964   7.215   9.070 -2.1927 -0.4059 -2.0654
  108MOL0     H14517   0.704   7.371   9.087 -0.3675  0.8862 -0.6057
  108MOL0     H14518   0.854   7.378   8.990  0.8865  0.1981  0.4087
  108MOL0     H14519   0.772   7.181   8.871 -0.0166 -2.7206  2.5546
  108MOL0     H14520   0.640   7.155   8.976  0.7372 -0.7325 -0.7452
  108MOL0     H14521   0.533   7.371   8.911  0.0784 -0.0838  1.3862
  108MOL0     H14522   0.643   7.392   8.775 -1.5558  0.2643 -0.5643
  108MOL0     H14523   0.567   7.192   8.665 -1.2008  1.3572 -1.1379
  108MOL0     H14524   0.470   7.153   8.810  1.4097 -3.0650 -1.9822
  108MOL0     H14525   0.450   7.396   8.632 -0.7666  0.0875 -2.0454
  108MOL0     H14526   0.366   7.247   8.606 -0.1571 -1.4854  0.6784
  108MOL0     H14527   0.249   7.276   8.824 -0.2102  1.3941  0.4397
  108MOL0     H14528   0.338   7.426   8.859  0.5312  0.4864 -0.1727
  108MOL0     H14529   0.182   7.419   8.600 -1.2280 -2.6916  1.5504
  108MOL0     H14530   0.253   7.551   8.691  0.1072 -0.5867  0.7354
  108MOL0     H14531  -0.079   7.453   8.635  1.9518 -0.0312 -0.8268
  108MOL0     H14532  -0.336   7.545   8.790 -1.0471 -0.6610 -0.7016
  108MOL0     H14533  -0.295   7.382   8.756 -0.4698  1.6504 -2.2157
  108MOL0     H14534  -0.347   7.511   9.032 -4.8841 -1.5333  2.6580
  108MOL0     H14535  -0.317   7.341   9.011 -3.2162 -1.3627 -0.2580
  108MOL0     H14536  -0.528   7.346   9.027 -1.3147  2.1893  0.7615
  108MOL0     H14537  -0.510   7.328   8.852  1.7073 -1.3918  0.6899
  108MOL0     H14538  -0.585   7.586   8.991  1.9654  0.7465 -0.2509
  108MOL0     H14539  -0.690   7.484   8.910  1.2136 -0.9746 -0.4889
  108MOL0     H14540  -0.727   7.404   8.735 -0.2442 -0.3449 -0.6146
  108MOL0     H14541  -0.856   7.275   8.625 -0.4980  0.1743  0.2555
  108MOL0     H14542  -0.884   7.316   8.457 -1.6817 -0.3929  0.8266
  108MOL0     H14543  -0.757   7.192   8.509 -0.8582  0.1151  0.1370
  108MOL0     H14544  -0.812   7.469   7.992  0.5195  0.2565  0.3037
  108MOL0     H14545  -0.794   7.325   7.795 -1.1664 -0.0026  1.8449
  108MOL0     H14546  -0.540   7.042   7.753  0.6107 -0.3554 -0.9697
  108MOL0     H14547  -0.701   7.114   7.791 -0.0059 -1.8935  0.9579
  108MOL0     H14548  -0.579   7.070   7.514 -0.4506 -0.1942 -1.1245
  108MOL0     H14549  -0.679   6.951   7.599  0.0530 -0.2839 -0.5930
  108MOL0     H14550  -0.791   7.238   7.549  0.2303 -0.2638 -2.8140
  108MOL0     H14551  -0.864   7.080   7.605 -1.1769  0.8241  0.3368
  108MOL0     H14552  -0.836   6.980   7.390 -3.0396  0.5648 -1.6009
  108MOL0     H14553  -0.932   7.114   7.382  0.7436  1.8347  0.2849
  108MOL0     H14554  -0.636   7.126   7.320 -0.0379  1.3978  2.2555
  108MOL0     H14555  -0.748   7.264   7.312  1.8345  1.2162 -3.9378
  108MOL0     H14556  -0.797   7.029   7.141 -0.2259 -0.5102  1.1041
  108MOL0     H14557  -0.889   7.174   7.128  1.2438  1.1618 -0.2948
  108MOL0     H14558  -0.585   7.137   7.054 -0.2448 -0.2052 -0.1015
  108MOL0     H14559  -0.650   7.295   7.101 -0.2275 -0.2066 -0.0009
  108MOL0     H14560  -0.778   7.111   6.883  0.9220  0.1424 -1.0306
  108MOL0     H14561  -0.632   7.212   6.854  1.5928 -2.3954  0.5802
  108MOL0     H14562  -0.365   7.318   7.862  0.9587 -0.9651  1.5117
  108MOL0     H14563  -0.387   7.453   8.052 -1.3116  0.0511  3.2585
  108MOL0     H14564  -0.466   7.579   8.359 -1.0881 -0.4313  0.7866
  108MOL0     H14565  -0.424   7.663   8.587 -0.1928  1.0321  1.4048
  108MOL0     H14566   0.779   7.171   9.422  0.6611  1.7596 -1.0253
  108MOL0     H14567   0.900   7.068   9.606  0.8132 -0.4748  0.6750
  108MOL0     H14568   1.479   6.871   9.665 -0.4079  0.4594  1.2137
  108MOL0     H14569   1.612   6.777   9.862 -0.2785  1.8672  0.5375
  108MOL0     H14570   1.518   6.567  10.240  0.7740 -2.6114 -1.0692
  108MOL0     H14571   1.352   6.624  10.207 -1.2078 -1.3355 -0.0024
  108MOL0     H14572   1.326   6.459  10.031  1.3317 -0.8472 -1.8842
  108MOL0     H14573   1.388   6.381  10.174  1.6158 -2.9949 -3.3987
  108MOL0     H14574   1.625   6.399  10.075  0.8631  0.7351 -0.6276
  108MOL0     H14575   1.560   6.469   9.931  0.3366  0.2342  0.9592
  108MOL0     H14576   1.587   6.207   9.903  0.4095  1.4058  0.2054
  108MOL0     H14577   1.436   6.294   9.865 -1.1212 -1.3359  0.4065
  108MOL0     H14578   1.309   6.054  10.168  0.7971 -1.0990  0.6765
  108MOL0     H14579   1.247   6.683  10.050 -0.7236 -0.2465 -0.4396
  108MOL0     H14580   1.108   6.801   9.859  0.0125  2.0661 -2.0703
  109MOL0     O14581   5.992   0.690   0.764  0.0813 -0.2774  1.1248
  109MOL0     C14582   5.973   0.642   0.650  0.0211  0.0133 -0.6913
  109MOL0     O14583   5.875   0.556   0.608 -0.3104  0.1554  0.5955
  109MOL0     C14584   5.789   0.491   0.687 -0.6126 -0.0316 -0.1285
  109MOL0     C14585   5.792   0.490   0.827 -0.0028  0.5048  0.3963
  109MOL0     C14586   5.688   0.424   0.895  0.3291  0.3421  0.1800
  109MOL0     C14587   5.592   0.350   0.839 -0.9801  0.4603  0.0022
  109MOL0     O14588   5.501   0.281   0.914 -0.3945  0.6365 -0.0185
  109MOL0     C14589   5.370   0.330   0.891  0.6292  0.0240 -0.3663
  109MOL0     C14590   5.258   0.255   0.974 -0.0482  0.5025  0.0568
  109MOL0     C14591   5.120   0.310   0.951 -0.3412  0.0624  0.4131
  109MOL0     C14592   5.018   0.217   1.029 -0.0538 -0.2994 -0.2967
  109MOL0     C14593   4.879   0.283   1.042  0.6418  0.2548  0.1739
  109MOL0     C14594   4.759   0.193   1.091  0.3382  0.3473 -0.3882
  109MOL0     C14595   4.798   0.074   1.180 -0.5013  0.2231  0.6633
  109MOL0     C14596   4.682   0.001   1.236 -0.9392  0.1290  0.3322
  109MOL0     N14597   4.716  -0.093   1.346  0.1843 -0.3528  0.6086
  109MOL0     C14598   4.792  -0.051   1.457 -0.1487  0.2166 -0.0348
  109MOL0     C14599   4.768  -0.157   1.540  0.0819  0.3936  0.5304
  109MOL0     C14600   4.829  -0.167   1.675  0.4438  0.2460  0.1490
  109MOL0     C14601   4.741  -0.100   1.782  0.1969 -0.5172  0.6966
  109MOL0     C14602   4.682  -0.203   1.875  0.4292 -0.0311  0.0504
  109MOL0     C14603   4.582  -0.296   1.802 -0.1616  0.2547 -1.0961
  109MOL0     O14604   4.518  -0.358   1.906  0.3222  0.0395  0.2242
  109MOL0     C14605   4.406  -0.428   1.891 -0.4802  0.6184  0.8122
  109MOL0     C14606   4.325  -0.429   1.780  0.3907  0.5625 -0.2769
  109MOL0     C14607   4.196  -0.487   1.777 -0.0002 -0.1603  0.2451
  109MOL0     C14608   4.130  -0.494   1.645 -0.1086  0.7381 -0.2184
  109MOL0     C14609   4.144  -0.550   1.891 -0.0664 -0.3823  0.3614
  109MOL0     C14610   4.009  -0.622   1.904  0.9463 -0.3965 -0.1027
  109MOL0     O14611   3.975  -0.641   2.032  0.0625 -0.3914  0.0139
  109MOL0     C14612   3.856  -0.707   2.060 -0.7937 -0.2760  0.2847
  109MOL0     C14613   3.776  -0.637   2.150 -1.1909 -0.3058 -0.2459
  109MOL0     C14614   3.644  -0.684   2.165 -0.3957  0.0228  0.7956
  109MOL0     C14615   3.614  -0.812   2.113  0.7014  0.2590  1.4784
  109MOL0     O14616   3.492  -0.871   2.131  0.0766  1.1152 -0.5803
  109MOL0     C14617   3.453  -0.876   2.273 -0.1346  0.0534 -0.0278
  109MOL0     C14618   3.336  -0.967   2.288 -1.1283  0.6590  0.5493
  109MOL0     C14619   3.210  -0.894   2.247  0.2573  0.0924  0.5439
  109MOL0     C14620   3.089  -0.971   2.280  0.3137 -0.6025 -0.0619
  109MOL0     C14621   2.957  -0.905   2.245  0.2746  0.4315  0.4732
  109MOL0     C14622   2.957  -0.760   2.192 -0.8012 -0.6628 -0.6285
  109MOL0     C14623   2.824  -0.710   2.151  0.9480  0.0541 -0.2790
  109MOL0     C14624   2.827  -0.574   2.080 -0.2117 -0.0763  0.2969
  109MOL0    Cl14625   2.664  -0.526   2.025 -0.0911 -0.6455 -0.2438
  109MOL0     C14626   3.701  -0.884   2.031 -0.6834 -0.1555 -0.6448
  109MOL0     C14627   3.823  -0.834   2.000 -0.8101 -0.5130  0.1834
  109MOL0     O14628   3.937  -0.647   1.808  0.5477 -0.2103  0.0368
  109MOL0     C14629   4.217  -0.549   2.002 -0.0957 -0.7989 -0.0911
  109MOL0     C14630   4.348  -0.496   2.005 -0.0208 -0.9984  0.8277
  109MOL0     N14631   4.686  -0.248   1.486 -0.1328 -0.2231  0.0908
  109MOL0     N14632   4.655  -0.210   1.374 -0.5133 -0.4463 -0.4180
  109MOL0     C14633   5.597   0.342   0.702  0.5018 -0.0520 -0.9491
  109MOL0     C14634   5.705   0.399   0.625  0.8692 -1.0809 -0.3805
  109MOL0     C14635   6.088   0.648   0.559  0.3225  0.2987  0.8802
  109MOL0     C14636   6.202   0.723   0.580 -0.7410 -0.4060  0.3495
  109MOL0     C14637   6.319   0.707   0.497 -0.0691  0.9084 -1.5218
  109MOL0     C14638   6.313   0.626   0.384 -0.9496 -0.7877  0.2335
  109MOL0     O14639   6.419   0.612   0.301  0.1543 -0.0792  0.2837
  109MOL0     C14640   6.550   0.675   0.321 -0.2409 -0.2679 -0.4357
  109MOL0     C14641   6.621   0.577   0.422  0.0362 -0.5356  0.8023
  109MOL0     C14642   6.766   0.618   0.435  0.3899 -0.6686 -0.1632
  109MOL0     C14643   6.838   0.506   0.509 -0.2110 -0.3981  0.5120
  109MOL0     C14644   6.980   0.539   0.505  0.4994 -0.0189  1.5399
  109MOL0     C14645   7.098   0.587   0.497  0.8667 -0.6443  0.6050
  109MOL0     C14646   6.188   0.569   0.349  0.6395  0.1065  0.3782
  109MOL0     C14647   6.080   0.570   0.436  0.3761 -0.8100 -0.0060
  109MOL0     H14648   5.859   0.557   0.880  0.5271 -0.1216  0.5247
  109MOL0     H14649   5.677   0.413   1.003  0.7066 -2.1014  0.0319
  109MOL0     H14650   5.354   0.437   0.903 -1.3971 -0.0203 -2.0651
  109MOL0     H14651   5.338   0.307   0.789 -1.4830 -2.2505  0.7028
  109MOL0     H14652   5.263   0.147   0.955 -1.8965  0.7071 -1.9809
  109MOL0     H14653   5.285   0.267   1.079 -2.5567  0.4526  0.7718
  109MOL0     H14654   5.117   0.412   0.989 -1.6704  1.3093 -2.7130
  109MOL0     H14655   5.092   0.313   0.845 -0.4083  4.1138  0.3940
  109MOL0     H14656   5.020   0.116   0.988  1.0274 -0.4715  0.1247
  109MOL0     H14657   5.056   0.200   1.131  1.8496 -2.3755 -1.2717
  109MOL0     H14658   4.903   0.354   1.122 -1.1861 -0.7961  1.7692
  109MOL0     H14659   4.849   0.329   0.948  1.0145 -0.9435 -0.5507
  109MOL0     H14660   4.684   0.254   1.142 -0.8120 -2.1069  1.0316
  109MOL0     H14661   4.711   0.145   1.006  1.3881  1.3126 -1.5749
  109MOL0     H14662   4.851   0.004   1.115  0.1098  2.5845 -1.5256
  109MOL0     H14663   4.855   0.120   1.261  1.4054 -0.6099 -0.1378
  109MOL0     H14664   4.642  -0.052   1.148  0.2755  0.6079 -0.5335
  109MOL0     H14665   4.604   0.069   1.271 -0.0412  1.4521 -0.1743
  109MOL0     H14666   4.848   0.040   1.476  0.4610  0.7240 -3.5208
  109MOL0     H14667   4.846  -0.267   1.716  1.1000  0.5411  0.6246
  109MOL0     H14668   4.925  -0.114   1.668 -0.0578  1.1266 -0.1674
  109MOL0     H14669   4.667  -0.042   1.725  0.1637 -2.3232 -1.2422
  109MOL0     H14670   4.803  -0.035   1.844  1.4687 -0.0176 -1.0071
  109MOL0     H14671   4.626  -0.141   1.945  1.1371  1.8691 -0.9801
  109MOL0     H14672   4.764  -0.253   1.927  0.4717 -2.6020 -2.2490
  109MOL0     H14673   4.625  -0.374   1.738  0.4713 -0.3667  0.0339
  109MOL0     H14674   4.506  -0.233   1.756  1.3291  1.7835 -1.5411
  109MOL0     H14675   4.368  -0.399   1.684  0.2237 -1.5882 -1.0832
  109MOL0     H14676   4.030  -0.452   1.654 -0.0224  0.7156  1.0805
  109MOL0     H14677   4.180  -0.430   1.571  2.0852 -0.8617 -0.2332
  109MOL0     H14678   4.136  -0.597   1.609 -0.9283 -0.7821  3.5819
  109MOL0     H14679   3.810  -0.542   2.190  1.9525 -0.4396 -2.2407
  109MOL0     H14680   3.570  -0.627   2.221 -1.0194  0.5630 -0.5307
  109MOL0     H14681   3.534  -0.918   2.333  0.9617  1.8434 -0.1806
  109MOL0     H14682   3.437  -0.774   2.310  1.1289  0.7901 -1.3621
  109MOL0     H14683   3.343  -1.051   2.219 -0.7454 -0.0882  1.4878
  109MOL0     H14684   3.343  -1.006   2.390  3.2781  0.3382  0.3369
  109MOL0     H14685   3.202  -0.876   2.139 -3.0331  0.0181  0.6673
  109MOL0     H14686   3.199  -0.801   2.303  0.4153  1.3462 -1.4012
  109MOL0     H14687   3.107  -1.064   2.225  0.3374  0.7304 -2.4178
  109MOL0     H14688   3.090  -0.993   2.387 -3.8054  1.9935  0.7393
  109MOL0     H14689   2.900  -0.899   2.338  0.1743 -0.5659  0.4904
  109MOL0     H14690   2.891  -0.967   2.184 -2.1651  1.3804  2.0195
  109MOL0     H14691   2.984  -0.699   2.279  1.5194 -2.5434  0.0854
  109MOL0     H14692   3.035  -0.739   2.118  0.2314  2.0243  1.0602
  109MOL0     H14693   2.760  -0.685   2.236 -0.3783  1.3826 -1.6000
  109MOL0     H14694   2.780  -0.777   2.077  2.6542  0.2625 -1.5313
  109MOL0     H14695   2.906  -0.585   2.005  1.3767 -1.2928  2.0834
  109MOL0     H14696   2.867  -0.500   2.150  0.9126 -0.0248 -0.3704
  109MOL0     H14697   3.667  -0.984   2.008 -2.4282 -0.0594  1.1890
  109MOL0     H14698   3.892  -0.886   1.935  0.5737  1.2809  0.1422
  109MOL0     H14699   4.183  -0.593   2.095  1.9730  2.1871  2.3036
  109MOL0     H14700   4.413  -0.502   2.092  2.2557 -0.1156 -0.7088
  109MOL0     H14701   5.516   0.286   0.657 -0.9147 -1.9793  3.3991
  109MOL0     H14702   5.693   0.406   0.517  0.0306 -3.3378 -0.4877
  109MOL0     H14703   6.202   0.788   0.667  2.1603  0.8740 -0.4825
  109MOL0     H14704   6.403   0.770   0.524 -0.9646  1.5325 -0.0375
  109MOL0     H14705   6.610   0.680   0.230  0.5102 -1.3080 -0.0083
  109MOL0     H14706   6.533   0.775   0.362 -0.8272 -0.8059  0.6805
  109MOL0     H14707   6.619   0.473   0.388 -1.0723  0.3096 -2.0140
  109MOL0     H14708   6.575   0.570   0.521 -0.8517 -1.3090  0.3516
  109MOL0     H14709   6.785   0.708   0.493  1.5161 -0.1457 -1.2824
  109MOL0     H14710   6.823   0.632   0.342  1.4521  0.3342  0.6166
  109MOL0     H14711   6.806   0.407   0.475 -1.2563 -0.6810  2.1839
  109MOL0     H14712   6.822   0.500   0.617 -1.7599 -1.5347  0.2475
  109MOL0     H14713   7.201   0.618   0.497  0.7397 -0.1879 -0.1018
  109MOL0     H14714   6.191   0.512   0.257  2.5796  1.7283 -0.6497
  109MOL0     H14715   5.985   0.524   0.413  0.3514 -0.6350 -0.2639
  110MOL0     O14716   2.169   9.792   8.609  0.3617 -0.9021  0.2372
  110MOL0     C14717   2.110   9.700   8.668  0.7975  0.5329 -0.0051
  110MOL0     O14718   2.169   9.596   8.723 -0.8036  0.4436 -0.2388
  110MOL0     C14719   2.288   9.553   8.668  0.7778  0.0075  0.7068
  110MOL0     C14720   2.295   9.416   8.656  0.1118 -0.3234 -0.7679
  110MOL0     C14721   2.406   9.350   8.606  0.3516  0.1204  0.3477
  110MOL0     C14722   2.509   9.430   8.553 -0.1230 -0.1915 -0.4842
  110MOL0     O14723   2.617   9.373   8.495  1.3222  0.0506 -0.2174
  110MOL0     C14724   2.681   9.266   8.560 -0.3818  0.9569 -0.1683
  110MOL0     C14725   2.774   9.202   8.464  0.4177  0.0714  0.0934
  110MOL0     C14726   2.700   9.135   8.359 -1.4357  0.2059 -0.4855
  110MOL0     C14727   2.781   9.038   8.264 -0.4720 -1.0167 -0.7612
  110MOL0     C14728   2.847   9.115   8.151 -0.1002 -0.8297  0.0178
  110MOL0     C14729   2.986   9.154   8.189 -0.0854  0.0105  0.1166
  110MOL0     C14730   3.046   9.247   8.087 -0.3375  0.4705 -0.0925
  110MOL0     C14731   3.106   9.165   7.969  0.8875  0.7983  0.5324
  110MOL0     N14732   3.142   9.254   7.855  0.3928  0.6795  0.4240
  110MOL0     C14733   3.267   9.293   7.822  0.6103  0.2249  0.1225
  110MOL0     C14734   3.251   9.381   7.722  0.1899 -0.7861  0.5276
  110MOL0     C14735   3.361   9.435   7.640  0.3602 -0.5093 -1.0104
  110MOL0     C14736   3.398   9.567   7.715  0.0560  0.5717  0.5860
  110MOL0     C14737   3.527   9.633   7.662 -0.3808  0.3368 -0.1093
  110MOL0     C14738   3.549   9.638   7.510  0.9895 -0.1299  0.3168
  110MOL0     O14739   3.627   9.749   7.472  0.0982 -0.5590  0.3075
  110MOL0     C14740   3.579   9.871   7.502 -0.2453  0.1692 -0.6219
  110MOL0     C14741   3.656   9.960   7.583 -0.3467  0.3299 -0.1991
  110MOL0     C14742   3.619  10.091   7.611 -0.2467  0.5651  0.2790
  110MOL0     C14743   3.703  10.163   7.709 -0.9612  0.6375  0.5494
  110MOL0     C14744   3.504  10.134   7.542 -0.3925 -0.0285 -0.4568
  110MOL0     C14745   3.446  10.269   7.550 -0.4630 -1.0980 -0.8118
  110MOL0     O14746   3.314  10.284   7.510  0.1511 -0.0110 -0.8583
  110MOL0     C14747   3.259  10.407   7.468  0.0688  0.1587  1.8663
  110MOL0     C14748   3.328  10.530   7.454  0.5456 -0.6734 -0.3293
  110MOL0     C14749   3.260  10.652   7.428  0.2535 -0.7943 -0.1438
  110MOL0     C14750   3.122  10.651   7.417 -0.8134 -0.4020 -0.5804
  110MOL0     O14751   3.058  10.766   7.386 -0.1964  0.2444  0.9377
  110MOL0     C14752   3.110  10.886   7.461  0.4097 -0.5192  1.0265
  110MOL0     C14753   3.000  10.982   7.489  0.9510  0.2204 -0.7904
  110MOL0     C14754   2.892  10.906   7.575 -0.3084  0.1800 -0.0596
  110MOL0     C14755   2.758  10.986   7.582 -0.2517 -0.2923  0.3215
  110MOL0     C14756   2.667  10.974   7.460  0.0563 -0.0389 -0.3002
  110MOL0     C14757   2.628  10.827   7.426 -0.0551 -0.2706  0.3863
  110MOL0     C14758   2.524  10.831   7.311 -0.4110 -0.2751 -0.8844
  110MOL0     C14759   2.588  10.825   7.178 -0.2928 -0.0762  0.0939
  110MOL0    Cl14760   2.647  10.660   7.142  0.0330 -0.3442 -0.2098
  110MOL0     C14761   3.049  10.530   7.423 -0.4468 -0.1373 -0.0073
  110MOL0     C14762   3.115  10.405   7.438 -0.8077  0.5766 -0.1439
  110MOL0     O14763   3.525  10.364   7.586  0.6109  0.6161 -0.1724
  110MOL0     C14764   3.418  10.048   7.468 -0.3648  0.5616 -0.0027
  110MOL0     C14765   3.465   9.925   7.445  0.1483  0.1604  0.7279
  110MOL0     N14766   3.117   9.423   7.713 -0.0850  0.9547  0.0531
  110MOL0     N14767   3.054   9.337   7.786  0.1291 -0.4789 -0.1595
  110MOL0     C14768   2.512   9.565   8.582  0.0842 -0.2508 -0.2093
  110MOL0     C14769   2.401   9.628   8.633  0.2442  0.3564  0.3283
  110MOL0     C14770   1.969   9.722   8.696 -0.8176  0.1388 -0.2019
  110MOL0     C14771   1.911   9.845   8.692  0.0059  0.0755  0.1903
  110MOL0     C14772   1.774   9.862   8.718  0.3322  0.4022  0.2539
  110MOL0     C14773   1.688   9.758   8.762  0.3761  1.1481 -0.5352
  110MOL0     O14774   1.555   9.789   8.788 -0.1123 -0.3684 -0.4687
  110MOL0     C14775   1.489   9.685   8.859 -0.1897  0.2128  0.0855
  110MOL0     C14776   1.335   9.732   8.885 -0.3802 -0.6998 -0.1145
  110MOL0     C14777   1.263   9.614   8.954 -0.4450  0.1473 -0.7376
  110MOL0     C14778   1.106   9.629   8.943 -0.0645 -0.2997  0.0084
  110MOL0     C14779   1.052   9.743   9.031 -0.4894 -0.2715 -0.4944
  110MOL0     C14780   0.999   9.831   9.094 -0.2647  0.6500  0.0906
  110MOL0     C14781   1.748   9.631   8.778  0.3185  0.4699 -0.1526
  110MOL0     C14782   1.888   9.619   8.755  0.4800 -0.4269 -0.0734
  110MOL0     H14783   2.210   9.363   8.698 -1.3681  2.7266  0.3388
  110MOL0     H14784   2.408   9.242   8.620  1.4049  0.2036  0.9301
  110MOL0     H14785   2.747   9.301   8.640 -0.9482  2.0226 -0.1494
  110MOL0     H14786   2.619   9.184   8.597  3.2725 -1.6166  0.8122
  110MOL0     H14787   2.840   9.278   8.421  0.6703 -0.6145 -0.7606
  110MOL0     H14788   2.843   9.130   8.509  3.6351  2.4615 -0.5748
  110MOL0     H14789   2.611   9.083   8.397 -0.5937 -3.7725 -3.2465
  110MOL0     H14790   2.662   9.218   8.299 -0.0873 -0.0107 -1.7129
  110MOL0     H14791   2.850   8.984   8.329  0.9325 -0.3182 -1.6324
  110MOL0     H14792   2.717   8.959   8.223 -0.4532 -1.7567  0.5743
  110MOL0     H14793   2.863   9.045   8.068  0.1185 -1.9258  0.9637
  110MOL0     H14794   2.780   9.193   8.115 -2.3845 -3.0042 -0.7698
  110MOL0     H14795   2.975   9.206   8.284 -1.0595  0.1560 -0.0687
  110MOL0     H14796   3.059   9.073   8.200  0.8796  0.9825  1.0449
  110MOL0     H14797   2.967   9.313   8.049 -1.9247  0.0332  2.2222
  110MOL0     H14798   3.119   9.315   8.132  2.5057  0.1098 -3.6405
  110MOL0     H14799   3.024   9.098   7.945  2.1007 -1.4438  2.2582
  110MOL0     H14800   3.194   9.107   7.999 -0.0034  1.0175  3.9912
  110MOL0     H14801   3.367   9.267   7.854  0.1608 -0.0544  1.3506
  110MOL0     H14802   3.442   9.361   7.644 -1.6110 -2.8978 -2.3252
  110MOL0     H14803   3.337   9.453   7.535 -2.3159  2.0744 -0.0780
  110MOL0     H14804   3.425   9.534   7.816 -0.6833 -0.4350  0.4625
  110MOL0     H14805   3.317   9.640   7.709 -3.9512 -3.6115 -3.3547
  110MOL0     H14806   3.613   9.587   7.711  0.4325  0.3373 -1.4766
  110MOL0     H14807   3.530   9.730   7.711 -1.7777  0.8959 -1.0757
  110MOL0     H14808   3.451   9.649   7.463  1.2747 -0.5730 -0.4035
  110MOL0     H14809   3.598   9.546   7.476  1.2880  0.4189 -0.7600
  110MOL0     H14810   3.743   9.918   7.631  0.0211  2.1859  0.8781
  110MOL0     H14811   3.787  10.098   7.735 -1.9524 -1.6625 -1.5415
  110MOL0     H14812   3.748  10.247   7.656  1.5173 -1.3511 -0.6926
  110MOL0     H14813   3.638  10.188   7.794 -1.0300 -1.2496  1.1133
  110MOL0     H14814   3.437  10.526   7.459  0.6790 -1.6237 -2.6592
  110MOL0     H14815   3.328  10.734   7.406  0.6519 -1.8302 -3.2886
  110MOL0     H14816   3.155  10.857   7.557  3.1096 -0.0161  0.0148
  110MOL0     H14817   3.178  10.946   7.400 -0.5109  0.3285  0.8110
  110MOL0     H14818   3.031  11.071   7.545  0.9078 -0.5354  0.4817
  110MOL0     H14819   2.953  11.030   7.403 -0.2432  1.8256  0.6558
  110MOL0     H14820   2.933  10.900   7.677 -0.1508  1.3735 -0.0357
  110MOL0     H14821   2.897  10.801   7.544  2.5184  0.1033  0.3882
  110MOL0     H14822   2.708  10.937   7.666 -0.7409 -1.8529 -0.8595
  110MOL0     H14823   2.778  11.090   7.610 -1.4320 -0.2038  0.9093
  110MOL0     H14824   2.705  11.023   7.369 -1.4465  1.5314 -0.1455
  110MOL0     H14825   2.573  11.022   7.489 -0.6716 -1.7602  0.3215
  110MOL0     H14826   2.712  10.763   7.399 -0.9985 -0.4880 -2.3535
  110MOL0     H14827   2.586  10.788   7.519  0.2892 -0.3097  0.5242
  110MOL0     H14828   2.457  10.917   7.316  0.1230  0.2002 -1.7183
  110MOL0     H14829   2.452  10.749   7.321  1.3479 -1.5729  2.8277
  110MOL0     H14830   2.674  10.892   7.173 -0.1412 -0.1586  1.4447
  110MOL0     H14831   2.512  10.854   7.104  0.5432 -0.5360 -0.9755
  110MOL0     H14832   2.941  10.527   7.423 -0.5626 -1.1271  3.8848
  110MOL0     H14833   3.063  10.311   7.450 -2.0412  0.9899 -1.9024
  110MOL0     H14834   3.324  10.073   7.418  0.0655 -0.6687 -1.4849
  110MOL0     H14835   3.410   9.873   7.368 -0.1874  2.0349 -0.3819
  110MOL0     H14836   2.603   9.615   8.552 -2.2533  2.4868 -3.4214
  110MOL0     H14837   2.399   9.735   8.649 -1.4721  0.4673 -0.4374
  110MOL0     H14838   1.959   9.929   8.643 -1.0417  0.5421 -0.0601
  110MOL0     H14839   1.740   9.965   8.714 -0.5912  0.1705  1.4301
  110MOL0     H14840   1.486   9.593   8.801  1.3361 -1.2261  2.1191
  110MOL0     H14841   1.538   9.657   8.953  0.6120  2.4796  0.4188
  110MOL0     H14842   1.286   9.750   8.789 -0.2968 -2.0534 -0.4327
  110MOL0     H14843   1.344   9.819   8.949  2.7401 -0.5367 -0.5756
  110MOL0     H14844   1.283   9.614   9.062  2.2436 -2.7844 -1.0760
  110MOL0     H14845   1.284   9.514   8.914 -0.2918 -0.9513  1.8979
  110MOL0     H14846   1.069   9.530   8.972 -1.5911 -0.9465 -3.5358
  110MOL0     H14847   1.077   9.656   8.840 -0.4508  4.0477  1.0615
  110MOL0     H14848   0.959   9.919   9.140  1.6907  0.6462  1.9582
  110MOL0     H14849   1.696   9.549   8.825  0.4996  1.6737  2.3160
  110MOL0     H14850   1.931   9.521   8.775 -2.5529 -1.6171  1.2496
  111MOL0     O14851   9.463  11.240   0.566 -0.1016  0.4701  0.5305
  111MOL0     C14852   9.506  11.323   0.490 -0.7726 -0.0617 -0.6649
  111MOL0     O14853   9.439  11.435   0.456  0.9445 -0.6866 -0.1453
  111MOL0     C14854   9.315  11.470   0.512  0.4013  0.1716  1.0082
  111MOL0     C14855   9.252  11.571   0.434  0.5789 -0.0524 -0.0678
  111MOL0     C14856   9.124  11.623   0.469 -0.0555  0.1649  0.3851
  111MOL0     C14857   9.060  11.591   0.586 -0.0882  0.1236  0.5047
  111MOL0     O14858   8.945  11.652   0.631 -0.7047  0.2501 -0.3783
  111MOL0     C14859   8.872  11.726   0.540  0.5365 -0.3230  0.3484
  111MOL0     C14860   8.920  11.861   0.528 -0.3573 -0.4696 -0.1444
  111MOL0     C14861   8.848  11.948   0.634 -0.1589  0.7315 -0.4168
  111MOL0     C14862   8.803  12.080   0.569  0.2687 -0.6802 -0.5000
  111MOL0     C14863   8.748  12.182   0.677 -0.1965 -0.4501  1.1187
  111MOL0     C14864   8.702  12.315   0.616  0.3269 -0.0716  0.3471
  111MOL0     C14865   8.664  12.397   0.744  0.4652 -0.0645 -0.8029
  111MOL0     C14866   8.610  12.541   0.713 -0.1290 -0.1749  0.0154
  111MOL0     N14867   8.477  12.503   0.665  0.0674 -0.5117  0.0871
  111MOL0     C14868   8.375  12.468   0.752 -0.3208 -0.0576  0.2575
  111MOL0     C14869   8.270  12.442   0.657  0.4874 -0.0676 -0.5844
  111MOL0     C14870   8.133  12.382   0.685 -0.5893  0.2883  0.6323
  111MOL0     C14871   8.034  12.493   0.688  0.4439  0.3319 -0.2785
  111MOL0     C14872   7.889  12.431   0.703 -0.0080  0.3841 -0.0293
  111MOL0     C14873   7.836  12.372   0.572  0.2183  0.8996 -0.6892
  111MOL0     O14874   7.757  12.468   0.498 -0.0839  0.0369  0.2736
  111MOL0     C14875   7.623  12.443   0.499 -0.1959  1.0291 -0.1144
  111MOL0     C14876   7.551  12.367   0.594  0.4086 -0.8550  0.1574
  111MOL0     C14877   7.406  12.349   0.574 -0.7678 -0.1764  0.0263
  111MOL0     C14878   7.332  12.289   0.688 -0.4403 -0.4889  0.2456
  111MOL0     C14879   7.339  12.395   0.454  0.5064  0.8951  0.0502
  111MOL0     C14880   7.205  12.352   0.407  1.1759  0.2066 -0.4203
  111MOL0     O14881   7.142  12.433   0.311 -0.4341 -0.2172 -0.0491
  111MOL0     C14882   7.029  12.399   0.245  0.4817 -0.1050 -0.0644
  111MOL0     C14883   6.985  12.505   0.170 -0.3329 -0.3242  0.2962
  111MOL0     C14884   6.862  12.490   0.108 -0.1333  0.1181  0.0543
  111MOL0     C14885   6.782  12.366   0.103 -0.6915 -0.3897  0.5900
  111MOL0     O14886   6.679  12.349   0.017 -0.9278 -0.0395 -0.6589
  111MOL0     C14887   6.557  12.344   0.087  0.7432 -0.2390  0.7974
  111MOL0     C14888   6.454  12.289  -0.010  0.7687 -0.9655 -0.8458
  111MOL0     C14889   6.304  12.290   0.026  0.3934 -0.0909  0.5885
  111MOL0     C14890   6.207  12.355  -0.073  0.7023 -0.1542  0.6885
  111MOL0     C14891   6.172  12.500  -0.042  0.5744  0.3373  0.6637
  111MOL0     C14892   6.055  12.557  -0.132 -0.2555  0.6489  0.1823
  111MOL0     C14893   6.111  12.590  -0.272 -0.5707  1.0148  0.3972
  111MOL0     C14894   6.009  12.647  -0.369  0.7395  0.6761 -0.0983
  111MOL0    Cl14895   6.039  12.819  -0.357 -0.4771 -0.0642 -0.0964
  111MOL0     C14896   6.840  12.261   0.171  0.4002  0.0313  0.5682
  111MOL0     C14897   6.954  12.275   0.243 -0.3390 -0.3516 -0.2034
  111MOL0     O14898   7.159  12.246   0.445  0.6255 -0.0118  0.0985
  111MOL0     C14899   7.421  12.454   0.358 -0.7328 -0.1210 -1.0251
  111MOL0     C14900   7.555  12.487   0.391  0.5354 -0.6511 -0.0123
  111MOL0     N14901   8.307  12.480   0.527 -0.4720 -0.1745 -1.4182
  111MOL0     N14902   8.433  12.506   0.536 -0.1629  0.3815 -0.4925
  111MOL0     C14903   9.122  11.494   0.662 -0.2977  0.1989 -0.4022
  111MOL0     C14904   9.245  11.436   0.629 -0.8654 -0.0866 -0.6455
  111MOL0     C14905   9.636  11.294   0.430  0.2239  0.4301 -0.7901
  111MOL0     C14906   9.660  11.336   0.301  0.7587 -0.0317 -0.3129
  111MOL0     C14907   9.784  11.290   0.237 -0.4007  0.2534 -0.0397
  111MOL0     C14908   9.881  11.212   0.303 -0.1255 -1.0345  0.6836
  111MOL0     O14909  10.003  11.186   0.247 -0.0769  0.5626 -0.1894
  111MOL0     C14910  10.043  11.211   0.117  0.1175  0.4985  0.8123
  111MOL0     C14911  10.187  11.153   0.103 -0.4145 -0.0484  0.6339
  111MOL0     C14912  10.197  11.006   0.125 -0.2234  0.3362  0.0782
  111MOL0     C14913  10.313  10.946   0.054 -0.4607  0.0728 -1.0119
  111MOL0     C14914  10.443  11.014   0.049  1.0100 -0.0847 -0.3416
  111MOL0     C14915  10.544  11.073   0.063  0.0173 -0.3105 -1.5599
  111MOL0     C14916   9.850  11.183   0.433  0.3120  0.4012 -0.1019
  111MOL0     C14917   9.729  11.216   0.491  0.0719 -0.4902 -0.1515
  111MOL0     H14918   9.310  11.614   0.353  2.1637 -0.2852  0.9151
  111MOL0     H14919   9.065  11.690   0.406 -2.2513 -2.2309 -0.2750
  111MOL0     H14920   8.877  11.671   0.445  2.0734 -2.8354  1.7702
  111MOL0     H14921   8.768  11.725   0.573  0.8678  0.3159  1.4794
  111MOL0     H14922   9.027  11.869   0.552 -0.3059  0.8516 -0.7289
  111MOL0     H14923   8.895  11.898   0.429 -0.5607 -1.6034 -0.5293
  111MOL0     H14924   8.763  11.897   0.680 -0.2881  2.3734  1.2870
  111MOL0     H14925   8.917  11.948   0.719  0.6617 -1.1326 -1.0365
  111MOL0     H14926   8.889  12.119   0.513  3.8618 -5.7117  0.7909
  111MOL0     H14927   8.724  12.067   0.494 -0.7210  2.9172 -0.2815
  111MOL0     H14928   8.661  12.138   0.726 -0.7787  0.7298  1.1910
  111MOL0     H14929   8.828  12.191   0.752  0.3850 -1.2939  0.6188
  111MOL0     H14930   8.770  12.367   0.548 -0.6505 -0.8799 -1.3133
  111MOL0     H14931   8.611  12.297   0.558  0.5076  0.6537 -0.1792
  111MOL0     H14932   8.605  12.333   0.811 -1.3414 -0.4027 -2.6411
  111MOL0     H14933   8.761  12.410   0.793  2.3028  0.2361 -4.2666
  111MOL0     H14934   8.667  12.597   0.637  1.5518 -0.1406  1.2442
  111MOL0     H14935   8.590  12.605   0.799 -1.2663 -0.9968  0.3930
  111MOL0     H14936   8.373  12.455   0.860 -2.1867 -0.9104  0.1713
  111MOL0     H14937   8.102  12.315   0.604 -1.4269 -0.5562  1.6277
  111MOL0     H14938   8.137  12.314   0.771  0.6234 -0.9330 -0.3250
  111MOL0     H14939   8.039  12.553   0.597 -1.0998  0.0973 -0.5353
  111MOL0     H14940   8.047  12.550   0.781  1.0697  0.0942 -0.2154
  111MOL0     H14941   7.819  12.511   0.730 -0.0605  0.8397 -1.4676
  111MOL0     H14942   7.876  12.359   0.785 -1.4120 -1.1154 -1.4995
  111MOL0     H14943   7.787  12.276   0.594  0.7747  0.6188 -0.6583
  111MOL0     H14944   7.918  12.331   0.512  0.4436 -1.8496  1.2974
  111MOL0     H14945   7.584  12.333   0.691 -0.3695 -2.0022  0.0411
  111MOL0     H14946   7.229  12.265   0.661 -0.8565  3.8690 -3.1699
  111MOL0     H14947   7.386  12.201   0.725  0.4517 -0.9524 -1.9611
  111MOL0     H14948   7.329  12.370   0.761  0.8883 -0.3965  0.2305
  111MOL0     H14949   7.046  12.594   0.163  0.6476 -1.1063 -3.3568
  111MOL0     H14950   6.818  12.573   0.054  1.3082  2.4972  2.2713
  111MOL0     H14951   6.549  12.299   0.187  0.6811  1.0260  1.3759
  111MOL0     H14952   6.536  12.448   0.112  0.9049  0.1044 -0.4289
  111MOL0     H14953   6.469  12.346  -0.102  1.8354  0.5214  0.2020
  111MOL0     H14954   6.497  12.190  -0.028  2.8992 -0.0389 -1.1259
  111MOL0     H14955   6.288  12.329   0.127 -1.6481 -0.1796  0.3499
  111MOL0     H14956   6.276  12.184   0.036 -1.2912  0.0405 -1.8382
  111MOL0     H14957   6.248  12.352  -0.174  2.8818 -1.5806  1.5442
  111MOL0     H14958   6.120  12.290  -0.063  0.2854 -0.3942 -3.0001
  111MOL0     H14959   6.262  12.561  -0.043  0.3331  0.6880  0.3516
  111MOL0     H14960   6.127  12.515   0.056 -1.2171  1.5497 -0.2839
  111MOL0     H14961   5.970  12.488  -0.130  0.9982 -0.9641  1.4521
  111MOL0     H14962   6.020  12.645  -0.078  1.9328  1.9591 -0.3946
  111MOL0     H14963   6.137  12.493  -0.316  0.6867  2.2740 -1.8491
  111MOL0     H14964   6.201  12.652  -0.278  1.2286 -1.5607 -3.8286
  111MOL0     H14965   5.908  12.626  -0.331  2.4585 -2.3367  3.5049
  111MOL0     H14966   6.022  12.606  -0.469 -1.5987  1.2322 -0.7052
  111MOL0     H14967   6.791  12.166   0.157 -3.3747  2.1144 -1.9765
  111MOL0     H14968   6.988  12.188   0.299 -0.3177  1.2089  2.3923
  111MOL0     H14969   7.386  12.466   0.256  1.6256 -0.7611 -1.9756
  111MOL0     H14970   7.612  12.546   0.319 -0.5619  1.4793  0.7675
  111MOL0     H14971   9.071  11.468   0.754 -3.3762  2.7852 -1.2028
  111MOL0     H14972   9.281  11.354   0.691 -0.7132  1.0635  0.8469
  111MOL0     H14973   9.593  11.400   0.244  0.7610  2.5010  2.3470
  111MOL0     H14974   9.800  11.306   0.131 -0.7665  1.5646  0.0741
  111MOL0     H14975   9.988  11.145   0.049  1.8931 -4.3856  3.5766
  111MOL0     H14976  10.033  11.314   0.084  2.8826  0.7148  0.4329
  111MOL0     H14977  10.256  11.201   0.174  1.7867  0.6989 -1.8541
  111MOL0     H14978  10.228  11.171   0.003  3.1997 -0.3250  1.8874
  111MOL0     H14979  10.107  10.952   0.095  0.8642 -0.1299 -2.7483
  111MOL0     H14980  10.216  10.987   0.231  1.7377  4.1714  0.5828
  111MOL0     H14981  10.284  10.949  -0.051  2.3196  1.8480 -1.8426
  111MOL0     H14982  10.336  10.849   0.099  1.9995 -0.5121 -3.2830
  111MOL0     H14983  10.640  11.116   0.081  0.2529 -1.1974 -0.5994
  111MOL0     H14984   9.914  11.105   0.472  0.2722  1.7532  2.9359
  111MOL0     H14985   9.711  11.186   0.594  0.6770 -0.8573 -0.1527
  112MOL0     O14986   3.770   3.372   2.470 -0.4465  0.4314  0.2213
  112MOL0     C14987   3.881   3.411   2.508 -0.0856  0.3685  1.1082
  112MOL0     O14988   3.903   3.537   2.568 -0.4463  0.7035 -0.1722
  112MOL0     C14989   3.789   3.603   2.621  0.6913  0.0518  0.5127
  112MOL0     C14990   3.698   3.679   2.537  0.4000 -0.9128 -0.1532
  112MOL0     C14991   3.572   3.731   2.586 -0.3581  0.2351 -0.1252
  112MOL0     C14992   3.542   3.710   2.725  0.6245 -0.6462  0.2850
  112MOL0     O14993   3.436   3.764   2.794 -0.6572 -0.3806 -0.1572
  112MOL0     C14994   3.315   3.771   2.726  0.6039  0.3103  0.3388
  112MOL0     C14995   3.204   3.726   2.808  0.0857  0.3381 -0.3058
  112MOL0     C14996   3.064   3.758   2.757  0.1090  0.5003 -0.2653
  112MOL0     C14997   2.985   3.628   2.733  1.0944 -0.0202  0.4724
  112MOL0     C14998   2.843   3.658   2.682  0.1105  0.9876  0.1938
  112MOL0     C14999   2.764   3.737   2.778 -0.6191 -0.0935  0.0617
  112MOL0     C15000   2.619   3.766   2.736 -0.5373 -0.2909 -0.1524
  112MOL0     C15001   2.534   3.654   2.672 -0.3718  0.8852  0.3956
  112MOL0     N15002   2.392   3.675   2.691 -0.2761 -0.3367 -0.2383
  112MOL0     C15003   2.306   3.770   2.634 -0.5568  0.3442 -0.6756
  112MOL0     C15004   2.182   3.735   2.681 -1.1545 -0.0464 -0.7274
  112MOL0     C15005   2.056   3.806   2.664  0.4109  0.3322  0.8730
  112MOL0     C15006   1.955   3.731   2.574 -0.1947 -0.4146  0.5716
  112MOL0     C15007   1.833   3.811   2.529 -0.5724  0.8778  0.6802
  112MOL0     C15008   1.700   3.717   2.523  0.3809  0.0257 -0.1475
  112MOL0     O15009   1.635   3.720   2.648  0.6621 -0.2456  0.1097
  112MOL0     C15010   1.499   3.714   2.649  0.5267 -0.8475 -1.1416
  112MOL0     C15011   1.439   3.765   2.765  0.5826 -0.1270  0.5178
  112MOL0     C15012   1.298   3.758   2.784 -0.0475 -0.5753  0.5527
  112MOL0     C15013   1.260   3.818   2.920 -0.9032 -0.3783 -1.0624
  112MOL0     C15014   1.214   3.706   2.680 -0.0185 -0.4282 -0.7835
  112MOL0     C15015   1.067   3.705   2.693 -0.2777  0.6986  0.4065
  112MOL0     O15016   1.016   3.794   2.783  0.0618 -0.2779  0.1417
  112MOL0     C15017   0.883   3.802   2.800  0.4950 -0.5787  0.3368
  112MOL0     C15018   0.833   3.732   2.912  1.1389  0.0397  0.5220
  112MOL0     C15019   0.703   3.758   2.952 -0.4172 -0.1812  0.5150
  112MOL0     C15020   0.609   3.829   2.872 -0.3693 -0.2760  0.6206
  112MOL0     O15021   0.476   3.852   2.898 -0.6564  0.2857  0.0185
  112MOL0     C15022   0.398   3.740   2.949  0.3854 -1.1472 -0.5336
  112MOL0     C15023   0.262   3.739   2.885  0.6767  0.3432 -0.4009
  112MOL0     C15024   0.191   3.601   2.892  0.2394 -0.5905  0.1727
  112MOL0     C15025   0.090   3.590   2.777 -0.4222  0.9072 -0.1978
  112MOL0     C15026  -0.003   3.478   2.823  1.5267 -0.0106  0.7475
  112MOL0     C15027  -0.098   3.449   2.703  0.7929 -0.1533 -0.8219
  112MOL0     C15028  -0.192   3.334   2.746  0.6844 -0.3759  0.3399
  112MOL0     C15029  -0.319   3.390   2.818 -0.8349 -0.2922 -0.3141
  112MOL0    Cl15030  -0.448   3.422   2.701 -0.2028 -0.1397 -0.5175
  112MOL0     C15031   0.658   3.901   2.766 -0.2094  0.5575 -0.0544
  112MOL0     C15032   0.794   3.888   2.723  0.9271  0.0886 -0.3166
  112MOL0     O15033   0.998   3.641   2.617  0.4709  0.1882  1.0003
  112MOL0     C15034   1.279   3.652   2.564 -0.2790 -0.5782 -0.3629
  112MOL0     C15035   1.415   3.660   2.548  0.0510  0.7466  0.1422
  112MOL0     N15036   2.198   3.641   2.776 -0.3874  0.8275  0.3829
  112MOL0     N15037   2.318   3.603   2.784 -0.2248 -0.5122  0.3585
  112MOL0     C15038   3.636   3.648   2.800 -0.3310  0.3862  0.1455
  112MOL0     C15039   3.755   3.591   2.751 -0.5253  0.1294 -0.8288
  112MOL0     C15040   3.992   3.336   2.443  0.3734 -0.1155  0.3493
  112MOL0     C15041   3.971   3.198   2.398 -0.8674 -0.4388  0.0712
  112MOL0     C15042   4.074   3.128   2.338  0.8135  0.0164 -1.0423
  112MOL0     C15043   4.201   3.183   2.309 -0.2207 -0.7560 -0.3421
  112MOL0     O15044   4.293   3.103   2.247  0.5096  0.4591  0.0154
  112MOL0     C15045   4.424   3.132   2.275 -0.4060 -0.1874  1.2658
  112MOL0     C15046   4.513   3.034   2.206  0.4079  0.7311 -0.1927
  112MOL0     C15047   4.660   3.053   2.243 -0.5745  0.0735 -0.2474
  112MOL0     C15048   4.752   2.960   2.159  0.8910 -0.8590  0.3130
  112MOL0     C15049   4.726   2.822   2.181  0.8247 -0.0107 -0.0786
  112MOL0     C15050   4.707   2.703   2.185  0.8159  0.3154  0.3532
  112MOL0     C15051   4.221   3.315   2.356 -0.4075 -0.2268 -0.1025
  112MOL0     C15052   4.118   3.387   2.415  0.4873 -1.0785  0.0935
  112MOL0     H15053   3.730   3.704   2.436 -1.0715  1.2547 -0.1416
  112MOL0     H15054   3.509   3.791   2.522  0.0738  1.1191  0.2692
  112MOL0     H15055   3.291   3.873   2.694 -1.5680 -1.0344 -2.9043
  112MOL0     H15056   3.329   3.708   2.638  4.5776 -1.3551  1.9062
  112MOL0     H15057   3.212   3.620   2.832 -0.3869  0.5892  1.0810
  112MOL0     H15058   3.204   3.774   2.907  0.6172  1.0624 -0.6483
  112MOL0     H15059   3.016   3.822   2.832  0.1081  2.6591 -1.9987
  112MOL0     H15060   3.068   3.822   2.668  1.4066  1.8557  0.7057
  112MOL0     H15061   3.041   3.566   2.663 -0.2147 -1.8088  0.9286
  112MOL0     H15062   2.981   3.578   2.830 -0.0684 -0.7653  0.0672
  112MOL0     H15063   2.842   3.714   2.589 -1.6731  0.1849 -0.3236
  112MOL0     H15064   2.796   3.560   2.667  0.9333  0.2603  2.0540
  112MOL0     H15065   2.754   3.687   2.875  1.4290 -2.5702 -0.9098
  112MOL0     H15066   2.800   3.837   2.805  0.9991 -1.0911  1.8385
  112MOL0     H15067   2.572   3.804   2.827 -0.5842  0.8364 -0.6351
  112MOL0     H15068   2.613   3.854   2.671  0.6672  1.3667  1.8736
  112MOL0     H15069   2.573   3.564   2.721 -3.1181 -2.4311 -2.9656
  112MOL0     H15070   2.556   3.637   2.566  1.2326 -0.2174  0.8595
  112MOL0     H15071   2.318   3.846   2.558  0.5623 -0.5408 -1.4166
  112MOL0     H15072   2.006   3.813   2.761 -1.1682 -2.3054  0.3589
  112MOL0     H15073   2.069   3.899   2.608 -2.8915 -0.4822 -1.5842
  112MOL0     H15074   1.927   3.634   2.615 -1.2274 -1.0867 -1.5478
  112MOL0     H15075   2.008   3.704   2.482  0.0985 -3.2214  1.4798
  112MOL0     H15076   1.848   3.849   2.428 -2.5517  1.0938  0.4153
  112MOL0     H15077   1.825   3.899   2.594  0.1258  1.0936  0.4754
  112MOL0     H15078   1.721   3.614   2.491 -1.5532  0.6460 -4.0516
  112MOL0     H15079   1.634   3.755   2.445  0.3133  0.0563 -0.0758
  112MOL0     H15080   1.502   3.816   2.837 -2.4503  1.4011  2.2742
  112MOL0     H15081   1.178   3.771   2.974  1.4380 -2.9513  0.5268
  112MOL0     H15082   1.347   3.825   2.986 -1.1741  4.1594 -0.8409
  112MOL0     H15083   1.224   3.921   2.918 -0.6019 -0.2679 -0.9568
  112MOL0     H15084   0.900   3.668   2.968  0.0537 -2.2258 -0.6203
  112MOL0     H15085   0.670   3.720   3.049  2.5625 -2.0226  0.9270
  112MOL0     H15086   0.445   3.643   2.928  0.9826 -0.9652 -0.0791
  112MOL0     H15087   0.393   3.754   3.058 -0.8186  0.5989 -0.7773
  112MOL0     H15088   0.204   3.819   2.932 -0.4154 -0.8062  0.2729
  112MOL0     H15089   0.281   3.751   2.778  0.7764 -1.7596 -0.6627
  112MOL0     H15090   0.131   3.591   2.983  2.6794 -3.2929  1.6162
  112MOL0     H15091   0.266   3.523   2.906  2.4909  1.4600  0.2209
  112MOL0     H15092   0.035   3.683   2.761 -0.3128  0.7274 -1.8725
  112MOL0     H15093   0.133   3.561   2.680  1.2147 -1.7120  1.1995
  112MOL0     H15094  -0.068   3.514   2.903  2.0341  0.4027  0.9828
  112MOL0     H15095   0.050   3.387   2.855  0.6165 -1.3902 -1.3968
  112MOL0     H15096  -0.142   3.545   2.671  0.4749 -0.8771 -2.7072
  112MOL0     H15097  -0.034   3.413   2.622  0.8586 -2.4230  0.1764
  112MOL0     H15098  -0.144   3.262   2.813 -2.0749  0.1957  3.1910
  112MOL0     H15099  -0.227   3.289   2.652  1.5304  0.0751 -0.1984
  112MOL0     H15100  -0.293   3.487   2.860 -0.4979 -0.4908 -0.0576
  112MOL0     H15101  -0.360   3.331   2.901  0.9898 -0.2082  0.6932
  112MOL0     H15102   0.589   3.974   2.725 -1.6754  1.2673  3.3314
  112MOL0     H15103   0.821   3.943   2.633 -1.1132 -0.9163 -1.6050
  112MOL0     H15104   1.225   3.619   2.476 -0.1816 -0.8892 -0.3079
  112MOL0     H15105   1.454   3.634   2.450 -0.6637  1.5941 -0.3816
  112MOL0     H15106   3.620   3.628   2.906  1.3140 -0.4171  0.2791
  112MOL0     H15107   3.815   3.534   2.821 -0.2016  1.6362  0.1667
  112MOL0     H15108   3.879   3.150   2.432  0.0915 -0.8512  2.2239
  112MOL0     H15109   4.063   3.021   2.321  1.5511 -0.6348  1.9105
  112MOL0     H15110   4.454   3.233   2.246 -0.6164  0.0006  1.7059
  112MOL0     H15111   4.440   3.111   2.381  0.6034 -0.7659  1.0171
  112MOL0     H15112   4.495   3.043   2.098  1.2162 -0.7197 -0.4719
  112MOL0     H15113   4.482   2.932   2.229  3.6285 -0.3194 -0.0549
  112MOL0     H15114   4.679   3.047   2.351 -0.6111  3.3207  0.0329
  112MOL0     H15115   4.686   3.156   2.217 -1.6284  0.0197 -1.6476
  112MOL0     H15116   4.853   2.983   2.194  0.5736 -2.0802  2.1632
  112MOL0     H15117   4.750   2.995   2.055  2.6899  0.7180  0.7484
  112MOL0     H15118   4.699   2.597   2.172  0.6927  0.0825  2.0444
  112MOL0     H15119   4.314   3.370   2.359 -0.0665 -0.8413  1.3408
  112MOL0     H15120   4.135   3.487   2.453 -0.0969 -0.5073 -1.1097
  113MOL0     O15121   6.534   0.906   5.197  0.4437 -0.3443  0.0234
  113MOL0     C15122   6.536   0.812   5.275 -0.4144  0.0527  1.1826
  113MOL0     O15123   6.421   0.734   5.303 -0.3983  0.1190  0.2827
  113MOL0     C15124   6.295   0.778   5.281 -0.0716 -0.2607  0.7349
  113MOL0     C15125   6.196   0.684   5.258 -0.2501 -0.6901  0.5289
  113MOL0     C15126   6.062   0.716   5.249 -0.9376  0.7510  0.3014
  113MOL0     C15127   6.021   0.850   5.266 -0.3002 -0.0030 -0.8232
  113MOL0     O15128   5.886   0.895   5.265 -0.4536 -0.0220  0.0343
  113MOL0     C15129   5.778   0.795   5.267 -0.6547  0.2997 -0.0973
  113MOL0     C15130   5.640   0.859   5.264  0.4992  0.3643 -0.4596
  113MOL0     C15131   5.624   0.957   5.383  0.0839  0.4619  0.1285
  113MOL0     C15132   5.492   1.025   5.370  0.5270 -0.2840 -0.4522
  113MOL0     C15133   5.371   0.935   5.416  0.1550  0.2672  0.0151
  113MOL0     C15134   5.372   0.889   5.557  0.1796  0.1650 -0.3567
  113MOL0     C15135   5.250   0.821   5.607  0.0295 -0.1073 -0.4139
  113MOL0     C15136   5.250   0.788   5.754  0.6535 -0.2020  0.6524
  113MOL0     N15137   5.113   0.739   5.782 -0.1297 -0.0368  0.2396
  113MOL0     C15138   5.062   0.621   5.743 -0.4524  1.2006 -0.2587
  113MOL0     C15139   4.942   0.601   5.804  0.1793  0.0591  0.5541
  113MOL0     C15140   4.852   0.480   5.810 -0.1907  0.8287 -0.5319
  113MOL0     C15141   4.704   0.524   5.776 -0.3790 -0.0495  0.2792
  113MOL0     C15142   4.598   0.412   5.781  0.5717 -0.0235  0.4621
  113MOL0     C15143   4.462   0.463   5.714  0.6634  0.1515 -0.3684
  113MOL0     O15144   4.369   0.356   5.731  0.0778  0.9252  0.0164
  113MOL0     C15145   4.246   0.384   5.779  0.0113 -0.0633  0.3615
  113MOL0     C15146   4.175   0.506   5.756  0.6041  0.2491  0.3224
  113MOL0     C15147   4.050   0.523   5.812 -0.1581  0.1104  0.1140
  113MOL0     C15148   3.965   0.645   5.768 -1.0623 -0.0824  0.3489
  113MOL0     C15149   3.976   0.415   5.881 -0.5587 -0.1784 -0.6628
  113MOL0     C15150   3.846   0.440   5.946 -1.1595  0.2553 -0.3318
  113MOL0     O15151   3.763   0.344   5.927 -0.8331 -0.9813  0.5345
  113MOL0     C15152   3.630   0.353   5.969  0.0261  0.5235  0.2880
  113MOL0     C15153   3.543   0.274   5.900 -0.2793  0.4337  0.2367
  113MOL0     C15154   3.408   0.250   5.932 -0.0441  0.1389 -0.2782
  113MOL0     C15155   3.354   0.339   6.031  0.1649 -0.8147  0.4380
  113MOL0     O15156   3.213   0.343   6.050  0.7732  0.3423 -1.0116
  113MOL0     C15157   3.169   0.326   6.184  0.0409 -0.6312 -0.2284
  113MOL0     C15158   3.018   0.372   6.189  0.0882 -0.6657  0.2890
  113MOL0     C15159   2.973   0.356   6.332  1.0571 -0.3514  0.1996
  113MOL0     C15160   2.822   0.364   6.333  0.3414 -0.0743  0.4702
  113MOL0     C15161   2.758   0.327   6.465  0.5566  0.6041  0.2724
  113MOL0     C15162   2.763   0.181   6.495 -0.0623 -0.7575  0.2404
  113MOL0     C15163   2.674   0.149   6.614  0.6701 -0.5957  0.1775
  113MOL0     C15164   2.716   0.019   6.678 -0.6545  0.4070  0.7816
  113MOL0    Cl15165   2.658  -0.126   6.589  0.1252  0.1896 -0.2683
  113MOL0     C15166   3.440   0.414   6.103 -0.5810 -0.6003  0.5502
  113MOL0     C15167   3.573   0.433   6.071 -0.9641 -0.0837  0.5940
  113MOL0     O15168   3.829   0.544   6.014  0.5432 -0.5571 -0.6426
  113MOL0     C15169   4.044   0.284   5.880 -0.2323  0.1952 -0.5574
  113MOL0     C15170   4.174   0.278   5.838  0.4437  1.0167 -0.1969
  113MOL0     N15171   4.939   0.709   5.892  0.1580  0.0008  0.4895
  113MOL0     N15172   5.037   0.790   5.884 -0.1349  0.1719 -0.4113
  113MOL0     C15173   6.117   0.954   5.275  0.0034  0.9323 -0.5327
  113MOL0     C15174   6.250   0.918   5.282 -0.7184 -0.4836  0.1940
  113MOL0     C15175   6.662   0.751   5.319 -0.6334 -0.7350 -0.3468
  113MOL0     C15176   6.664   0.636   5.413 -0.5544  0.7447  0.7590
  113MOL0     C15177   6.786   0.593   5.460 -0.0314 -0.5007 -0.2656
  113MOL0     C15178   6.907   0.630   5.405 -0.3454 -0.6861 -0.1768
  113MOL0     O15179   7.021   0.569   5.451 -0.3208  0.2323  0.1353
  113MOL0     C15180   7.150   0.593   5.393  0.5206 -0.4594  0.1464
  113MOL0     C15181   7.181   0.523   5.255 -0.1727 -0.1514  0.0477
  113MOL0     C15182   7.327   0.541   5.220 -0.8458  0.6783 -0.1321
  113MOL0     C15183   7.377   0.688   5.211 -0.4004  0.7371  0.8318
  113MOL0     C15184   7.493   0.701   5.126 -0.5350 -0.2157 -0.6389
  113MOL0     C15185   7.596   0.713   5.058 -0.4881  0.0725 -0.2207
  113MOL0     C15186   6.906   0.729   5.314 -1.0650  0.3664  0.7148
  113MOL0     C15187   6.792   0.795   5.273  0.3404 -0.4629  0.0841
  113MOL0     H15188   6.228   0.580   5.257 -0.8883 -0.8963  0.7765
  113MOL0     H15189   5.989   0.639   5.226 -0.5536  0.6018 -0.4844
  113MOL0     H15190   5.797   0.730   5.181  0.6292  1.1084 -0.4490
  113MOL0     H15191   5.794   0.734   5.356  0.6703 -0.6717 -0.9652
  113MOL0     H15192   5.628   0.920   5.174  2.0746  1.3595 -0.0473
  113MOL0     H15193   5.558   0.787   5.259  1.4044 -0.7363  0.1289
  113MOL0     H15194   5.634   0.902   5.477  2.3204 -0.0978 -0.3944
  113MOL0     H15195   5.700   1.036   5.380  1.0405 -0.3417  1.9586
  113MOL0     H15196   5.496   1.117   5.428 -0.8922  0.5019 -1.5502
  113MOL0     H15197   5.472   1.072   5.274  1.3570  1.1715  0.0628
  113MOL0     H15198   5.280   0.992   5.395 -1.0945 -1.5564  0.3087
  113MOL0     H15199   5.366   0.844   5.356  0.6786 -0.1885  0.6486
  113MOL0     H15200   5.461   0.830   5.580 -0.5036 -0.5248  0.5758
  113MOL0     H15201   5.383   0.981   5.615  2.2254 -0.2791  0.0474
  113MOL0     H15202   5.166   0.890   5.599 -2.0325 -2.0501  2.3873
  113MOL0     H15203   5.239   0.725   5.556 -0.2388  0.0465 -0.6480
  113MOL0     H15204   5.278   0.879   5.808  4.6568 -2.0130  1.9899
  113MOL0     H15205   5.324   0.710   5.773  0.8905  0.4863  2.7975
  113MOL0     H15206   5.108   0.555   5.670  0.9691 -1.4317  2.7552
  113MOL0     H15207   4.891   0.415   5.732  0.8601  1.6728 -0.7303
  113MOL0     H15208   4.861   0.432   5.908  1.8160 -3.1271 -2.4346
  113MOL0     H15209   4.722   0.552   5.672  2.9507 -1.5587  0.3214
  113MOL0     H15210   4.670   0.612   5.831  0.8532  1.6812 -1.6040
  113MOL0     H15211   4.602   0.373   5.883  1.0294 -0.1688  0.3900
  113MOL0     H15212   4.632   0.332   5.714  1.5285  0.3260  0.5082
  113MOL0     H15213   4.469   0.483   5.607 -0.8138 -1.8003 -0.9003
  113MOL0     H15214   4.441   0.554   5.772 -3.3064 -1.6822  1.5158
  113MOL0     H15215   4.214   0.580   5.686  0.9033  1.0529  1.3223
  113MOL0     H15216   4.005   0.693   5.678  0.7405  2.0550  2.1525
  113MOL0     H15217   3.863   0.617   5.740 -2.2210  1.8727  2.2838
  113MOL0     H15218   3.956   0.716   5.851  1.4464  1.0714 -0.2680
  113MOL0     H15219   3.570   0.215   5.812 -1.9154 -1.2287  0.7767
  113MOL0     H15220   3.356   0.184   5.863  0.5534  0.0394 -0.6503
  113MOL0     H15221   3.179   0.218   6.199  1.4557 -0.4790  0.1277
  113MOL0     H15222   3.232   0.368   6.263 -1.9525 -1.9750  2.2318
  113MOL0     H15223   3.005   0.472   6.146  1.0286 -1.5643 -2.3150
  113MOL0     H15224   2.954   0.304   6.132 -1.6904  2.1333 -1.2886
  113MOL0     H15225   3.009   0.435   6.399  1.7710  0.5166 -1.1817
  113MOL0     H15226   3.000   0.254   6.362  0.8205 -0.7068 -0.7536
  113MOL0     H15227   2.784   0.462   6.302  1.1842  0.2908  0.5550
  113MOL0     H15228   2.789   0.293   6.257  2.3204  0.7670 -1.2932
  113MOL0     H15229   2.651   0.348   6.455  0.2938 -0.8465 -0.0960
  113MOL0     H15230   2.801   0.390   6.544  0.0290  1.5157 -0.1525
  113MOL0     H15231   2.738   0.119   6.409  1.1537  0.0835 -0.7556
  113MOL0     H15232   2.866   0.156   6.524  0.2932  0.3097 -0.0543
  113MOL0     H15233   2.571   0.149   6.577  1.4742 -1.4403 -2.1993
  113MOL0     H15234   2.686   0.223   6.695 -0.2904 -3.8056  3.5528
  113MOL0     H15235   2.679   0.011   6.781  1.1837  0.4187  1.4807
  113MOL0     H15236   2.825   0.022   6.691 -0.3713  0.9472 -1.3110
  113MOL0     H15237   3.403   0.469   6.189  0.1958 -0.7910  1.0219
  113MOL0     H15238   3.630   0.505   6.129  0.1924  1.5532 -2.4112
  113MOL0     H15239   3.991   0.197   5.918  1.7119 -0.2754  1.3083
  113MOL0     H15240   4.228   0.184   5.844  0.1843  0.9005  0.3702
  113MOL0     H15241   6.075   1.051   5.300 -1.7921  0.2804 -0.8764
  113MOL0     H15242   6.319   0.998   5.307  1.2642 -1.7631 -0.9755
  113MOL0     H15243   6.571   0.607   5.461 -1.9326  0.0277 -2.1177
  113MOL0     H15244   6.798   0.528   5.546  1.6718 -0.7886 -0.6747
  113MOL0     H15245   7.170   0.700   5.398  2.1024 -0.7110 -0.3709
  113MOL0     H15246   7.221   0.541   5.458 -0.1248  0.6668  1.8137
  113MOL0     H15247   7.110   0.557   5.179  1.4180 -2.0995 -2.5164
  113MOL0     H15248   7.162   0.415   5.263  1.0351 -0.3859  0.0363
  113MOL0     H15249   7.343   0.499   5.120  2.1736  2.1272 -0.3464
  113MOL0     H15250   7.391   0.484   5.287 -0.4535  0.8060 -0.3963
  113MOL0     H15251   7.396   0.724   5.312  0.4618  0.9240  0.6067
  113MOL0     H15252   7.296   0.753   5.176 -2.0971 -0.0891  3.0029
  113MOL0     H15253   7.690   0.734   5.011 -0.1483 -1.0041 -0.0327
  113MOL0     H15254   7.000   0.745   5.262 -1.8618 -1.7252 -1.5873
  113MOL0     H15255   6.809   0.879   5.207  1.5559 -1.0012 -0.3223
  114MOL0     O15256   9.181   5.559   5.248  0.8904  0.6881 -0.2889
  114MOL0     C15257   9.077   5.575   5.188  0.8699  0.0164  0.1563
  114MOL0     O15258   9.057   5.581   5.057  0.4542 -0.4775 -0.7070
  114MOL0     C15259   9.153   5.547   4.961 -0.1004  1.2547 -0.4281
  114MOL0     C15260   9.245   5.447   4.970  0.4029  0.3045 -0.4386
  114MOL0     C15261   9.338   5.429   4.871 -0.4844 -0.6654  0.2168
  114MOL0     C15262   9.351   5.507   4.758  0.0377  0.0816  0.7085
  114MOL0     O15263   9.462   5.501   4.671 -0.1522 -0.1570  0.3604
  114MOL0     C15264   9.590   5.443   4.705  1.1114  0.4355 -0.7824
  114MOL0     C15265   9.707   5.511   4.631  0.1021 -0.3995  0.2471
  114MOL0     C15266   9.707   5.480   4.478 -0.2461 -0.6884  0.2524
  114MOL0     C15267   9.842   5.518   4.414 -0.3128  0.3410  0.6921
  114MOL0     C15268   9.830   5.514   4.259  0.6301  0.5155 -1.0363
  114MOL0     C15269   9.710   5.593   4.201 -0.6699  0.7332  0.0172
  114MOL0     C15270   9.714   5.742   4.239  0.5312 -1.1996  0.2534
  114MOL0     C15271   9.605   5.820   4.171 -0.0937  0.6333  0.5650
  114MOL0     N15272   9.468   5.761   4.175 -0.3540  0.4721  0.1838
  114MOL0     C15273   9.368   5.765   4.080  1.2228 -0.0731 -0.0078
  114MOL0     C15274   9.257   5.718   4.141 -0.5277  0.4292  0.1431
  114MOL0     C15275   9.126   5.694   4.066 -0.1405 -0.4925  0.1399
  114MOL0     C15276   9.101   5.550   4.028  0.7152 -0.1385 -0.0455
  114MOL0     C15277   8.956   5.543   3.979 -0.0424  0.0150  0.7008
  114MOL0     C15278   8.899   5.411   4.007 -0.0192  0.8327  0.2934
  114MOL0     O15279   8.768   5.406   3.946 -0.5755 -0.0917 -0.0500
  114MOL0     C15280   8.661   5.474   4.007  0.0485  0.8398  0.3871
  114MOL0     C15281   8.663   5.551   4.128  0.4679  0.4761  0.1440
  114MOL0     C15282   8.536   5.603   4.168 -0.5115  0.6086  0.9361
  114MOL0     C15283   8.540   5.696   4.288  0.4730 -0.1612  0.1498
  114MOL0     C15284   8.418   5.588   4.096 -0.0828 -0.4372 -0.6008
  114MOL0     C15285   8.288   5.640   4.136  0.0557  0.9303 -0.2592
  114MOL0     O15286   8.206   5.659   4.029 -0.0537  0.6605  0.3413
  114MOL0     C15287   8.075   5.709   4.035 -0.5557  0.1422  0.9275
  114MOL0     C15288   8.065   5.844   4.081  0.2506 -0.6712 -0.0880
  114MOL0     C15289   7.937   5.904   4.070 -0.1061 -0.4180  0.1909
  114MOL0     C15290   7.827   5.819   4.033  0.9408 -0.1649  0.4684
  114MOL0     O15291   7.702   5.879   4.040 -0.0503  0.4669  0.2105
  114MOL0     C15292   7.609   5.825   4.135  0.6265  0.4346  0.2813
  114MOL0     C15293   7.477   5.778   4.061  0.3213 -0.0203  0.3543
  114MOL0     C15294   7.404   5.900   4.018  0.0157 -1.0613 -0.2435
  114MOL0     C15295   7.267   5.866   3.956 -0.1253 -0.5117  0.4671
  114MOL0     C15296   7.194   6.003   3.937  0.2804  0.1741  0.7938
  114MOL0     C15297   7.052   5.986   3.880  0.0436  1.2081 -0.1484
  114MOL0     C15298   6.978   6.124   3.886  0.1565  0.0059 -0.5813
  114MOL0     C15299   6.826   6.120   3.853 -0.4846  0.0867  0.3260
  114MOL0    Cl15300   6.744   6.098   4.004 -0.3977 -0.0210  0.3102
  114MOL0     C15301   7.843   5.695   3.985  0.1505  0.2310 -0.0896
  114MOL0     C15302   7.969   5.641   3.974 -0.3098 -0.8820  1.0194
  114MOL0     O15303   8.249   5.660   4.253 -0.0075 -0.4368 -1.0071
  114MOL0     C15304   8.424   5.519   3.974  0.1684 -0.0598 -0.9111
  114MOL0     C15305   8.548   5.470   3.932  0.4284  0.7302  0.5135
  114MOL0     N15306   9.297   5.671   4.269  0.3223 -0.6447 -0.6352
  114MOL0     N15307   9.425   5.700   4.286  1.0254  0.4149 -0.2173
  114MOL0     C15308   9.253   5.613   4.750 -0.8787 -0.2271  0.0834
  114MOL0     C15309   9.154   5.635   4.842  0.0544 -0.4871 -0.0397
  114MOL0     C15310   8.954   5.592   5.271 -0.1125 -0.0624  0.5143
  114MOL0     C15311   8.953   5.612   5.411  0.3171 -0.1031  0.7319
  114MOL0     C15312   8.833   5.652   5.477  0.2385 -0.1118 -0.0178
  114MOL0     C15313   8.715   5.666   5.403 -0.4579 -0.2316 -0.5496
  114MOL0     O15314   8.597   5.692   5.474 -0.1284  0.2825  0.9278
  114MOL0     C15315   8.595   5.689   5.617  0.3124  0.3945  1.0156
  114MOL0     C15316   8.445   5.686   5.663  0.5351  1.2034 -0.4668
  114MOL0     C15317   8.435   5.666   5.814  1.1932  0.1233  0.1202
  114MOL0     C15318   8.294   5.621   5.857  0.7627 -0.3093  0.5094
  114MOL0     C15319   8.194   5.735   5.860  0.1434 -0.1078 -0.0792
  114MOL0     C15320   8.127   5.837   5.868 -0.9989 -0.1546  0.4559
  114MOL0     C15321   8.715   5.654   5.264  0.7610 -0.3275 -1.6948
  114MOL0     C15322   8.831   5.621   5.200  0.2851  0.5539 -0.8756
  114MOL0     H15323   9.254   5.382   5.056 -2.3381  1.8033  1.1127
  114MOL0     H15324   9.409   5.347   4.876  0.0447 -0.1968  0.6507
  114MOL0     H15325   9.610   5.432   4.812 -1.3381 -2.7286 -0.5044
  114MOL0     H15326   9.589   5.339   4.674  2.9796 -0.9810  3.1984
  114MOL0     H15327   9.701   5.619   4.645 -0.9429 -0.3613 -0.4390
  114MOL0     H15328   9.804   5.473   4.666  1.6891 -0.9948 -4.1304
  114MOL0     H15329   9.683   5.375   4.464 -3.7694 -0.0160  0.3829
  114MOL0     H15330   9.628   5.544   4.438 -0.2771 -1.0670 -0.3009
  114MOL0     H15331   9.867   5.618   4.453  1.3982  0.8221 -1.4771
  114MOL0     H15332   9.928   5.458   4.445  1.7883  1.4721 -2.4471
  114MOL0     H15333   9.930   5.546   4.229  1.3914 -0.2759  0.5320
  114MOL0     H15334   9.808   5.412   4.228  1.1607 -0.5902  1.8880
  114MOL0     H15335   9.706   5.588   4.092  1.1002 -3.8514 -0.0803
  114MOL0     H15336   9.622   5.538   4.237 -0.3117  0.2766  0.2126
  114MOL0     H15337   9.690   5.767   4.343 -1.9626 -0.0995 -0.5170
  114MOL0     H15338   9.807   5.791   4.209 -0.1418  0.7510  1.1585
  114MOL0     H15339   9.635   5.826   4.066  0.7278  0.6668  0.7986
  114MOL0     H15340   9.590   5.920   4.213 -1.7511  0.0673  1.4369
  114MOL0     H15341   9.385   5.795   3.977  3.1887 -0.0594  0.2807
  114MOL0     H15342   9.046   5.723   4.134 -1.5625  0.4768 -1.8393
  114MOL0     H15343   9.131   5.764   3.982 -0.0998  0.4358  0.9097
  114MOL0     H15344   9.120   5.503   4.126 -1.1840 -0.1143  0.3671
  114MOL0     H15345   9.167   5.515   3.948 -0.9434  0.8659 -1.9509
  114MOL0     H15346   8.962   5.555   3.871  1.8871 -2.0624  0.5115
  114MOL0     H15347   8.895   5.620   4.027  2.1410  1.7407  0.8972
  114MOL0     H15348   8.892   5.400   4.116  1.6146  4.2981  0.8974
  114MOL0     H15349   8.963   5.332   3.968 -1.2782  0.5445 -1.2920
  114MOL0     H15350   8.753   5.562   4.187 -1.1500  2.5023  2.4515
  114MOL0     H15351   8.636   5.747   4.305 -0.6089  1.5602  1.5502
  114MOL0     H15352   8.471   5.777   4.261  1.6500  0.4762 -1.0586
  114MOL0     H15353   8.507   5.649   4.381  1.9442 -2.1791 -0.2750
  114MOL0     H15354   8.154   5.892   4.120  0.1871 -2.9895  3.3378
  114MOL0     H15355   7.922   6.008   4.094 -0.3979 -0.3970 -0.0595
  114MOL0     H15356   7.641   5.732   4.182  1.4471  1.2278  1.3549
  114MOL0     H15357   7.584   5.904   4.207  0.1140  2.0428 -1.5752
  114MOL0     H15358   7.490   5.712   3.975  2.6316 -1.2292  1.5575
  114MOL0     H15359   7.410   5.736   4.136  0.2090  0.3883  0.4879
  114MOL0     H15360   7.461   5.959   3.945 -0.0374 -0.2653  0.3381
  114MOL0     H15361   7.385   5.968   4.102  0.5338 -0.3427 -0.6912
  114MOL0     H15362   7.274   5.823   3.856  0.6297 -2.2311  1.2276
  114MOL0     H15363   7.200   5.804   4.016 -3.4175  1.3361 -0.9870
  114MOL0     H15364   7.244   6.073   3.870 -0.1980 -1.2807 -1.1878
  114MOL0     H15365   7.171   6.050   4.033 -2.2490  0.9635 -0.1019
  114MOL0     H15366   7.048   5.953   3.776  0.1624  0.0342  0.2147
  114MOL0     H15367   6.997   5.905   3.928 -0.7514  0.6016 -1.9617
  114MOL0     H15368   7.008   6.199   3.813 -1.6052 -0.4543 -1.8522
  114MOL0     H15369   6.996   6.172   3.983  2.3841 -1.5804 -0.1371
  114MOL0     H15370   6.816   6.043   3.776  0.4862 -0.3011  0.5689
  114MOL0     H15371   6.803   6.217   3.809 -0.7966  0.2355  0.8145
  114MOL0     H15372   7.758   5.635   3.954  1.4352 -1.0734 -1.2492
  114MOL0     H15373   7.983   5.537   3.945 -2.1203 -1.0735  0.6862
  114MOL0     H15374   8.349   5.494   3.900 -1.0709  2.0678 -0.4674
  114MOL0     H15375   8.558   5.424   3.835  1.5918 -0.5666  1.2085
  114MOL0     H15376   9.260   5.687   4.671 -0.8528 -0.6130 -0.2820
  114MOL0     H15377   9.088   5.721   4.836  1.4765  0.6491 -0.0116
  114MOL0     H15378   9.043   5.605   5.471  1.3167 -0.8090 -0.7997
  114MOL0     H15379   8.845   5.683   5.581  2.4711  1.1605 -0.5993
  114MOL0     H15380   8.636   5.594   5.653 -3.0522 -1.5799  0.0718
  114MOL0     H15381   8.644   5.773   5.666  1.7335  0.4176 -0.4023
  114MOL0     H15382   8.389   5.609   5.609  0.4551  0.6315  0.4214
  114MOL0     H15383   8.395   5.780   5.638  0.1855  0.3073 -3.5810
  114MOL0     H15384   8.454   5.764   5.859 -0.9885  0.5448  0.2473
  114MOL0     H15385   8.510   5.590   5.839  0.7482 -0.0135  1.1070
  114MOL0     H15386   8.287   5.572   5.955  1.8226 -0.4565  0.5260
  114MOL0     H15387   8.256   5.546   5.787  4.1572 -1.5836 -0.1524
  114MOL0     H15388   8.068   5.926   5.874 -0.5451  0.0709  2.2414
  114MOL0     H15389   8.621   5.657   5.210 -1.1187  2.3579  1.4235
  114MOL0     H15390   8.829   5.626   5.092  2.9163  1.9064 -0.9538
  115MOL0     O15391   0.948   5.712   4.591  0.2322 -0.2074  0.2506
  115MOL0     C15392   0.962   5.811   4.663 -0.1054 -0.6081 -0.4180
  115MOL0     O15393   0.867   5.876   4.725 -0.3176  0.3311  0.4791
  115MOL0     C15394   0.737   5.830   4.711  1.1773  2.0739  0.4565
  115MOL0     C15395   0.665   5.823   4.588 -0.7874 -1.4293 -0.0977
  115MOL0     C15396   0.533   5.774   4.580  0.0153 -0.0151  0.3834
  115MOL0     C15397   0.474   5.733   4.700  0.8512  0.0442  0.5734
  115MOL0     O15398   0.346   5.681   4.696  0.6657  0.2238 -0.2470
  115MOL0     C15399   0.255   5.681   4.586 -0.2231  0.6214  0.2890
  115MOL0     C15400   0.134   5.594   4.624  0.4180 -0.6669 -0.3822
  115MOL0     C15401   0.051   5.594   4.498  0.0460 -0.2276  0.4892
  115MOL0     C15402  -0.068   5.505   4.526 -0.5028  0.5529 -0.1203
  115MOL0     C15403  -0.176   5.520   4.419 -0.2970 -0.7500 -0.1587
  115MOL0     C15404  -0.292   5.434   4.456 -0.3546 -0.2870 -0.2784
  115MOL0     C15405  -0.388   5.449   4.341  0.6390 -0.2235  0.5129
  115MOL0     C15406  -0.510   5.369   4.349 -0.2634 -0.3586  0.2982
  115MOL0     N15407  -0.588   5.361   4.228  0.0521 -0.1021  0.0434
  115MOL0     C15408  -0.591   5.256   4.140  0.1471 -0.3736  0.3647
  115MOL0     C15409  -0.699   5.283   4.066  0.3053  0.2881  0.0058
  115MOL0     C15410  -0.751   5.209   3.945  0.2599  0.1662  0.1522
  115MOL0     C15411  -0.860   5.104   3.973 -0.7641  0.3654 -0.2764
  115MOL0     C15412  -1.003   5.168   3.984 -0.2178  0.3201 -0.7818
  115MOL0     C15413  -1.099   5.050   3.991  0.8202  0.9046 -0.0943
  115MOL0     O15414  -1.239   5.091   3.968  0.0805  0.3679 -0.9541
  115MOL0     C15415  -1.331   5.083   4.068  0.1568 -0.2412  0.4380
  115MOL0     C15416  -1.462   5.097   4.018 -0.6153  0.1122 -0.4905
  115MOL0     C15417  -1.567   5.096   4.109  0.1972 -0.1916  0.9630
  115MOL0     C15418  -1.702   5.118   4.049  0.0200  0.0228 -0.3578
  115MOL0     C15419  -1.554   5.082   4.244 -0.2139 -0.0912 -0.1902
  115MOL0     C15420  -1.667   5.105   4.347 -0.0800  0.0798 -0.6108
  115MOL0     O15421  -1.797   5.091   4.314 -0.3135 -0.5207  0.1121
  115MOL0     C15422  -1.882   5.121   4.412  0.1083 -0.1895 -0.2723
  115MOL0     C15423  -1.925   5.023   4.509 -0.0806 -0.2165 -0.4303
  115MOL0     C15424  -2.015   5.050   4.613  0.5856  0.5970  0.2653
  115MOL0     C15425  -2.078   5.173   4.621 -0.7186 -0.4360 -0.4710
  115MOL0     O15426  -2.173   5.208   4.712 -0.4513  0.1687 -0.0115
  115MOL0     C15427  -2.231   5.098   4.790 -0.2617  0.3257 -0.2117
  115MOL0     C15428  -2.342   5.137   4.889  0.1038 -0.1641  0.5098
  115MOL0     C15429  -2.456   5.235   4.844  0.8274  0.4672  0.3120
  115MOL0     C15430  -2.541   5.270   4.967  0.0600 -0.2385 -0.4111
  115MOL0     C15431  -2.663   5.365   4.952 -0.7136 -0.3104 -0.4678
  115MOL0     C15432  -2.783   5.306   4.883  0.1390 -0.3498 -0.4608
  115MOL0     C15433  -2.839   5.188   4.955  0.1811  0.6299  0.3426
  115MOL0     C15434  -2.986   5.160   4.921  0.3130 -0.0470 -0.4159
  115MOL0    Cl15435  -3.085   5.250   5.037 -0.0832  0.1372 -0.3037
  115MOL0     C15436  -2.035   5.272   4.529  0.3355  0.3383  0.5122
  115MOL0     C15437  -1.937   5.248   4.431 -0.3932  0.5639  0.0616
  115MOL0     O15438  -1.625   5.123   4.459 -0.9123 -0.4952  0.0045
  115MOL0     C15439  -1.418   5.078   4.284  0.2627  0.1076 -0.1107
  115MOL0     C15440  -1.308   5.079   4.202 -0.3543  0.7917  0.5041
  115MOL0     N15441  -0.757   5.400   4.112  0.4643 -0.1533 -0.7672
  115MOL0     N15442  -0.691   5.445   4.211  0.1179  0.1846  0.1552
  115MOL0     C15443   0.543   5.743   4.821 -0.4609  0.3478  0.0565
  115MOL0     C15444   0.673   5.791   4.830 -0.4414 -0.6575 -0.3684
  115MOL0     C15445   1.100   5.853   4.698 -0.0121  0.5646  0.4660
  115MOL0     C15446   1.130   5.965   4.771 -0.1281  0.1426  0.5918
  115MOL0     C15447   1.259   5.999   4.810 -0.4113  0.6940 -0.8623
  115MOL0     C15448   1.366   5.930   4.762  0.1250  0.5277  0.0007
  115MOL0     O15449   1.493   5.965   4.801  0.4900  0.0828  0.8542
  115MOL0     C15450   1.605   5.950   4.710  0.8469  0.6924  1.1377
  115MOL0     C15451   1.592   6.030   4.574  0.4580  0.1995  0.5773
  115MOL0     C15452   1.567   6.185   4.607  0.3129 -0.0527  0.6448
  115MOL0     C15453   1.574   6.256   4.478  0.7389  0.0439 -0.2465
  115MOL0     C15454   1.712   6.273   4.435  0.5177  0.1908 -0.0809
  115MOL0     C15455   1.830   6.267   4.413 -0.6423 -0.6163  0.5497
  115MOL0     C15456   1.335   5.812   4.689  0.1844  0.2137 -0.0408
  115MOL0     C15457   1.204   5.772   4.657  0.2630  0.1697 -0.0808
  115MOL0     H15458   0.702   5.859   4.493  0.0680  1.1315  1.1123
  115MOL0     H15459   0.477   5.787   4.488  0.4658  0.2511  0.1439
  115MOL0     H15460   0.228   5.783   4.555  1.6400  1.4276  1.1787
  115MOL0     H15461   0.303   5.649   4.493  1.2729  0.0093  1.2419
  115MOL0     H15462   0.164   5.496   4.662  0.3677 -0.6489 -0.2960
  115MOL0     H15463   0.066   5.628   4.703  1.2615 -4.7202  2.4529
  115MOL0     H15464   0.027   5.692   4.457  0.6446 -0.7829 -1.2582
  115MOL0     H15465   0.115   5.544   4.425  1.8626  0.6220  1.4423
  115MOL0     H15466  -0.015   5.411   4.540  2.0297  1.9148  0.2049
  115MOL0     H15467  -0.119   5.543   4.615  0.0037  4.1513 -1.2040
  115MOL0     H15468  -0.196   5.628   4.413  1.4621 -0.3763 -0.0148
  115MOL0     H15469  -0.150   5.485   4.319 -1.2563  0.7814 -0.9938
  115MOL0     H15470  -0.270   5.328   4.446 -3.2142 -0.8615 -1.6055
  115MOL0     H15471  -0.327   5.452   4.558 -0.0053 -1.2975  0.0328
  115MOL0     H15472  -0.405   5.556   4.332 -0.3953 -0.5206 -1.9892
  115MOL0     H15473  -0.342   5.428   4.243  0.9107 -0.6694  0.7294
  115MOL0     H15474  -0.577   5.403   4.428 -2.8816 -0.5814 -1.6903
  115MOL0     H15475  -0.481   5.264   4.359  1.6005 -0.0202 -1.0877
  115MOL0     H15476  -0.529   5.167   4.131  2.3879  1.3017 -4.3421
  115MOL0     H15477  -0.793   5.280   3.874 -1.4892  1.8889  2.7325
  115MOL0     H15478  -0.667   5.155   3.898  0.4521  0.4065  0.2189
  115MOL0     H15479  -0.842   5.063   4.073 -4.7248  0.7397  0.7651
  115MOL0     H15480  -0.852   5.031   3.893 -2.2567  0.4945 -0.5720
  115MOL0     H15481  -1.022   5.226   3.893 -1.6797 -0.1418 -0.7960
  115MOL0     H15482  -1.018   5.231   4.073 -3.9831 -2.2451  0.6738
  115MOL0     H15483  -1.080   5.006   4.089  0.2316  0.0397 -0.3589
  115MOL0     H15484  -1.075   4.975   3.915  0.7393  1.9783 -1.2242
  115MOL0     H15485  -1.466   5.108   3.910  1.9300 -1.8850 -0.8906
  115MOL0     H15486  -1.733   5.208   4.103  0.2998 -1.5654  2.6134
  115MOL0     H15487  -1.705   5.141   3.942 -0.3606  0.7741 -0.1937
  115MOL0     H15488  -1.770   5.034   4.065  3.0660 -2.8897 -1.5275
  115MOL0     H15489  -1.886   4.922   4.501 -1.6368 -0.7197 -4.2553
  115MOL0     H15490  -2.039   4.969   4.680 -1.3077  1.8871  1.2510
  115MOL0     H15491  -2.262   5.012   4.730 -1.2337  0.3295  0.2585
  115MOL0     H15492  -2.150   5.054   4.850 -2.4063 -1.5262  1.5011
  115MOL0     H15493  -2.389   5.042   4.915  1.1109 -0.6202  0.6817
  115MOL0     H15494  -2.295   5.186   4.974 -1.3838 -0.2683  1.4408
  115MOL0     H15495  -2.523   5.190   4.770  1.4713  1.4483 -0.8941
  115MOL0     H15496  -2.413   5.323   4.797 -1.3550  2.5075  1.9075
  115MOL0     H15497  -2.586   5.182   5.015  0.2054  0.4823  1.1076
  115MOL0     H15498  -2.477   5.315   5.043 -0.3530 -0.3729  0.0264
  115MOL0     H15499  -2.635   5.454   4.895 -1.9229  0.6752  0.4418
  115MOL0     H15500  -2.702   5.389   5.051 -1.9388 -1.9180 -0.5238
  115MOL0     H15501  -2.866   5.376   4.871 -1.0076 -1.5124  0.3919
  115MOL0     H15502  -2.753   5.279   4.781 -1.9574 -0.0319 -1.2105
  115MOL0     H15503  -2.842   5.198   5.064 -0.0661 -2.3244  0.6976
  115MOL0     H15504  -2.792   5.093   4.928 -0.9193  0.9179 -3.1554
  115MOL0     H15505  -3.014   5.056   4.935  0.1664 -0.3015 -2.2575
  115MOL0     H15506  -2.999   5.184   4.815  0.1270  0.3277 -0.3098
  115MOL0     H15507  -2.083   5.370   4.530  0.8785  0.6195  2.5233
  115MOL0     H15508  -1.904   5.332   4.371 -0.8130  1.0414  0.4982
  115MOL0     H15509  -1.402   5.099   4.389 -2.1806  0.1114  0.3342
  115MOL0     H15510  -1.207   5.065   4.239 -0.5519  0.3296  0.8709
  115MOL0     H15511   0.489   5.720   4.912 -0.7959  1.9142  0.2976
  115MOL0     H15512   0.727   5.805   4.923  1.1157 -2.0030 -1.0305
  115MOL0     H15513   1.052   6.036   4.797  0.4946  2.8016 -3.8766
  115MOL0     H15514   1.285   6.080   4.877 -0.0915  1.6769 -2.1373
  115MOL0     H15515   1.696   5.984   4.759  1.0461 -1.2130  2.1737
  115MOL0     H15516   1.623   5.843   4.699  0.8354  0.8333 -0.6037
  115MOL0     H15517   1.515   5.978   4.516  1.0433 -2.8478  2.3174
  115MOL0     H15518   1.680   6.019   4.508 -0.8798  3.1097 -1.9344
  115MOL0     H15519   1.645   6.230   4.669  0.7274  0.4248 -0.2078
  115MOL0     H15520   1.471   6.198   4.657 -0.6455 -0.9303 -0.8839
  115MOL0     H15521   1.538   6.358   4.495 -3.0253 -1.2712  0.7448
  115MOL0     H15522   1.512   6.211   4.401 -1.4657  0.9370  0.9051
  115MOL0     H15523   1.931   6.283   4.380 -1.2083  2.1962 -0.0366
  115MOL0     H15524   1.411   5.738   4.666  0.2450 -1.4088  4.4653
  115MOL0     H15525   1.193   5.676   4.607 -0.2821  0.7063 -1.0169
  116MOL0     O15526   9.264   9.093   2.033 -0.5801 -0.3025 -0.1670
  116MOL0     C15527   9.340   9.065   1.936 -0.9136 -0.2826  0.5754
  116MOL0     O15528   9.307   9.046   1.799 -0.1316  0.2443  0.1623
  116MOL0     C15529   9.188   8.980   1.795  0.9394 -0.3537  0.0408
  116MOL0     C15530   9.177   8.852   1.850 -0.1292  0.2231 -0.3769
  116MOL0     C15531   9.058   8.776   1.855  0.5950 -0.1687  0.6575
  116MOL0     C15532   8.944   8.835   1.786  0.1156  0.8439  0.0991
  116MOL0     O15533   8.827   8.766   1.769  0.0323  0.0388  0.0084
  116MOL0     C15534   8.766   8.741   1.900  0.3248  0.3198  0.6510
  116MOL0     C15535   8.662   8.637   1.865  0.5495  0.2361 -0.1636
  116MOL0     C15536   8.548   8.626   1.976  0.4324  0.1635  0.5589
  116MOL0     C15537   8.438   8.541   1.922  0.2496  0.4953  0.6298
  116MOL0     C15538   8.307   8.537   2.009 -0.2907  0.4343  0.0912
  116MOL0     C15539   8.269   8.675   2.063 -0.3988  0.4803 -0.2914
  116MOL0     C15540   8.127   8.666   2.141 -0.5103 -0.8619  0.8194
  116MOL0     C15541   8.010   8.604   2.061 -0.6262  0.0526 -0.2662
  116MOL0     N15542   7.890   8.618   2.138  0.2310 -0.1612 -0.4851
  116MOL0     C15543   7.774   8.657   2.074  0.4197  0.0308 -0.2254
  116MOL0     C15544   7.685   8.690   2.175 -0.5269  0.5830 -0.0799
  116MOL0     C15545   7.554   8.756   2.157  0.9703  0.1780 -0.2311
  116MOL0     C15546   7.439   8.670   2.204 -0.3826  0.0936  0.0731
  116MOL0     C15547   7.306   8.749   2.193 -0.2042 -0.6914  0.1390
  116MOL0     C15548   7.190   8.667   2.211  0.5206 -0.0137  0.3678
  116MOL0     O15549   7.072   8.741   2.175  0.4997 -0.1975  0.2503
  116MOL0     C15550   6.959   8.669   2.182  0.3853 -0.1954 -0.6279
  116MOL0     C15551   6.898   8.600   2.074 -0.5131  0.1048 -0.0745
  116MOL0     C15552   6.773   8.558   2.083  0.4493  0.4110  0.4134
  116MOL0     C15553   6.714   8.520   1.942  0.0713  0.0129 -0.1473
  116MOL0     C15554   6.702   8.565   2.207  0.4991  1.0026 -0.2741
  116MOL0     C15555   6.566   8.531   2.224 -0.4358  0.1930  0.0425
  116MOL0     O15556   6.514   8.520   2.348 -0.2822 -0.1344 -0.1819
  116MOL0     C15557   6.376   8.531   2.374  0.1190 -0.1504 -0.0495
  116MOL0     C15558   6.287   8.444   2.311 -0.3085 -0.1897 -0.2349
  116MOL0     C15559   6.150   8.450   2.332  0.0929 -0.4457  0.5481
  116MOL0     C15560   6.095   8.543   2.416 -0.5016 -0.1610 -0.8553
  116MOL0     O15561   5.959   8.538   2.442  0.5686 -0.4132  0.9663
  116MOL0     C15562   5.897   8.660   2.418  0.4440 -0.4290  0.1889
  116MOL0     C15563   5.806   8.643   2.297  0.0395  0.4351  0.2947
  116MOL0     C15564   5.690   8.542   2.333 -0.0852 -1.2539  1.0918
  116MOL0     C15565   5.596   8.559   2.218 -0.3863 -0.1125 -0.0224
  116MOL0     C15566   5.483   8.454   2.209  0.1344  0.3331 -0.6757
  116MOL0     C15567   5.407   8.423   2.345  0.3626 -0.4573  1.3062
  116MOL0     C15568   5.292   8.331   2.319  0.1315  0.1840  0.3143
  116MOL0     C15569   5.246   8.283   2.459 -0.6828  0.0107 -0.1590
  116MOL0    Cl15570   5.105   8.179   2.440 -0.4007 -0.3892  0.4837
  116MOL0     C15571   6.184   8.632   2.482 -0.0615  0.0597 -0.5130
  116MOL0     C15572   6.318   8.626   2.461 -0.6219 -0.3709 -0.3995
  116MOL0     O15573   6.494   8.533   2.120 -0.4922 -0.0907  0.1079
  116MOL0     C15574   6.769   8.613   2.323  0.1262 -0.4718 -0.4004
  116MOL0     C15575   6.896   8.673   2.305 -0.4999 -0.3796  0.0032
  116MOL0     N15576   7.744   8.674   2.300 -0.4171  0.1469  0.2489
  116MOL0     N15577   7.870   8.638   2.274 -0.1070 -0.1800  0.1847
  116MOL0     C15578   8.949   8.964   1.722 -0.2111  0.4318  0.1793
  116MOL0     C15579   9.074   9.027   1.725  0.8852  0.4023  1.2796
  116MOL0     C15580   9.487   9.069   1.966  0.0779 -0.4104  0.1162
  116MOL0     C15581   9.524   9.047   2.099  0.5214 -0.7883 -0.6542
  116MOL0     C15582   9.659   9.054   2.128  1.1279 -0.3541  0.2248
  116MOL0     C15583   9.760   9.075   2.033 -0.3771  1.0725  0.0012
  116MOL0     O15584   9.888   9.075   2.071  0.0040 -0.4409  0.6725
  116MOL0     C15585   9.995   9.060   1.978 -0.4683 -0.8493  0.1843
  116MOL0     C15586  10.004   8.918   1.923 -0.4111  0.1079  0.0172
  116MOL0     C15587  10.106   8.905   1.815  0.2217  0.1203  0.2719
  116MOL0     C15588  10.123   8.762   1.772 -0.1487  0.8512 -0.3120
  116MOL0     C15589  10.240   8.755   1.681  0.0147  0.3204  0.2916
  116MOL0     C15590  10.339   8.750   1.611 -1.0260  0.2374 -0.4406
  116MOL0     C15591   9.716   9.101   1.900  0.5644  0.2267 -0.0860
  116MOL0     C15592   9.580   9.097   1.866 -0.0453  0.3720  0.5828
  116MOL0     H15593   9.272   8.811   1.881 -1.0358 -0.9463  1.0048
  116MOL0     H15594   9.059   8.684   1.912 -0.6759 -0.7725 -0.2627
  116MOL0     H15595   8.840   8.711   1.974  0.4676  0.8543  0.7292
  116MOL0     H15596   8.735   8.838   1.940 -0.0220 -0.3501  2.0628
  116MOL0     H15597   8.623   8.669   1.768  2.1808 -0.6669 -1.1647
  116MOL0     H15598   8.719   8.545   1.847  0.6380 -0.4367  3.0381
  116MOL0     H15599   8.593   8.575   2.063  2.1538  1.4732  0.4817
  116MOL0     H15600   8.508   8.725   1.998 -0.0773 -0.3062  1.8908
  116MOL0     H15601   8.401   8.580   1.827 -0.2411 -1.8749 -0.2378
  116MOL0     H15602   8.479   8.444   1.893 -0.1438 -0.2490  2.4223
  116MOL0     H15603   8.237   8.490   1.938  0.2163 -1.1791  0.6071
  116MOL0     H15604   8.316   8.467   2.093  1.0833  0.5700  0.0781
  116MOL0     H15605   8.346   8.708   2.133 -1.2283  2.4435 -0.2599
  116MOL0     H15606   8.250   8.753   1.989  0.0612  1.3391  0.4753
  116MOL0     H15607   8.143   8.613   2.235 -0.9467  0.2991  1.5677
  116MOL0     H15608   8.094   8.769   2.160 -0.4872 -0.4773 -1.0275
  116MOL0     H15609   8.032   8.497   2.047  2.1548  0.3725  0.8964
  116MOL0     H15610   8.012   8.652   1.963 -1.3798 -1.6090 -1.1500
  116MOL0     H15611   7.749   8.661   1.969 -3.8516  3.9680  0.6536
  116MOL0     H15612   7.544   8.856   2.200 -1.4277 -0.4608  0.8664
  116MOL0     H15613   7.557   8.772   2.048  4.8544  2.4668  0.0400
  116MOL0     H15614   7.454   8.639   2.308  0.1814 -1.6135 -0.4920
  116MOL0     H15615   7.441   8.582   2.139 -0.2984 -0.4202  0.7608
  116MOL0     H15616   7.298   8.787   2.091  2.1197  2.5118  0.9972
  116MOL0     H15617   7.304   8.839   2.254  0.8199  0.0418 -0.8770
  116MOL0     H15618   7.189   8.635   2.316  0.5015 -1.7387 -0.1296
  116MOL0     H15619   7.199   8.574   2.155  0.2128 -0.9205  1.7620
  116MOL0     H15620   6.959   8.600   1.984  1.0635  1.4698  0.9330
  116MOL0     H15621   6.652   8.604   1.909 -0.1982 -0.2762 -0.3774
  116MOL0     H15622   6.798   8.505   1.873 -0.1924  0.1720 -0.5046
  116MOL0     H15623   6.649   8.434   1.954 -1.8472  1.4301  0.1099
  116MOL0     H15624   6.332   8.371   2.246  0.9885  1.2377 -1.0087
  116MOL0     H15625   6.096   8.372   2.280  0.2250  1.2706 -2.3596
  116MOL0     H15626   5.837   8.701   2.500  0.4268  1.0811 -0.5424
  116MOL0     H15627   5.970   8.737   2.392  1.3619 -0.0522  3.4251
  116MOL0     H15628   5.766   8.742   2.275  1.1884  1.5092  2.6390
  116MOL0     H15629   5.864   8.613   2.210  0.5706 -0.1588  0.8396
  116MOL0     H15630   5.644   8.561   2.431 -1.0959 -0.6200  0.5173
  116MOL0     H15631   5.725   8.440   2.322  0.4516 -1.0140  0.5166
  116MOL0     H15632   5.554   8.660   2.217 -0.3348 -0.0683 -2.1377
  116MOL0     H15633   5.646   8.552   2.120 -4.1251 -1.2826 -2.0390
  116MOL0     H15634   5.536   8.359   2.196  1.1668  0.4551  2.0015
  116MOL0     H15635   5.414   8.476   2.127  0.6626  1.2430 -0.8914
  116MOL0     H15636   5.481   8.374   2.409  0.8319 -0.2019  0.9682
  116MOL0     H15637   5.376   8.519   2.388 -0.8510 -0.3843  0.3127
  116MOL0     H15638   5.333   8.245   2.266 -0.3258 -0.3358  0.7934
  116MOL0     H15639   5.224   8.393   2.259  1.3623  1.1476 -0.1206
  116MOL0     H15640   5.236   8.371   2.522  3.1585  2.4113 -2.5032
  116MOL0     H15641   5.327   8.221   2.499 -1.1373 -0.2211  0.4298
  116MOL0     H15642   6.160   8.708   2.556  3.6577  2.3406 -1.3674
  116MOL0     H15643   6.388   8.694   2.506 -0.2307 -0.2280 -1.2059
  116MOL0     H15644   6.723   8.621   2.421 -0.0962 -1.3730 -0.4230
  116MOL0     H15645   6.947   8.719   2.389 -0.9916 -2.3556  1.4520
  116MOL0     H15646   8.864   9.008   1.673 -1.2349 -0.0691  1.4543
  116MOL0     H15647   9.085   9.124   1.677  1.0278  0.7745  2.0403
  116MOL0     H15648   9.450   9.045   2.179 -0.7268 -1.2959 -1.7732
  116MOL0     H15649   9.686   9.051   2.232  0.1348 -0.9580  0.4859
  116MOL0     H15650   9.976   9.130   1.896  0.5322 -0.5272  0.2110
  116MOL0     H15651  10.092   9.080   2.025 -0.8089 -1.3518  1.1286
  116MOL0     H15652   9.907   8.888   1.884 -0.3027  0.6351 -0.6733
  116MOL0     H15653  10.023   8.845   2.002 -1.2758  0.9693  1.0624
  116MOL0     H15654  10.195   8.948   1.862 -0.8049  0.7789  1.6449
  116MOL0     H15655  10.076   8.974   1.736  1.1274  1.2494  0.8905
  116MOL0     H15656  10.033   8.725   1.723 -1.5982 -0.0436  2.7796
  116MOL0     H15657  10.136   8.695   1.857 -0.4936  2.9195  1.4600
  116MOL0     H15658  10.430   8.758   1.555 -1.8357  3.1933 -1.5027
  116MOL0     H15659   9.788   9.130   1.825 -1.4434  1.8151 -1.4934
  116MOL0     H15660   9.549   9.121   1.765 -0.5059 -2.6601 -0.0944
  117MOL0     O15661   8.680   7.309   5.528  0.0095  0.5375 -1.0108
  117MOL0     C15662   8.743   7.213   5.567 -0.4038 -0.2855 -0.7298
  117MOL0     O15663   8.729   7.161   5.692 -0.6856 -0.0262  0.5555
  117MOL0     C15664   8.613   7.182   5.763  0.0200  0.5184  0.4573
  117MOL0     C15665   8.485   7.199   5.697  0.5794  0.0019 -0.1338
  117MOL0     C15666   8.370   7.217   5.770  1.0379  0.4022 -0.5313
  117MOL0     C15667   8.369   7.212   5.911  0.2157  0.0770 -0.0485
  117MOL0     O15668   8.262   7.236   5.991 -0.2917 -0.1967 -0.2401
  117MOL0     C15669   8.135   7.272   5.933 -1.0284  0.0570 -1.7598
  117MOL0     C15670   8.019   7.244   6.027 -0.2440 -0.1117  0.1193
  117MOL0     C15671   7.901   7.219   5.943  0.6946 -0.0132  0.6785
  117MOL0     C15672   7.858   7.353   5.873 -0.2908 -0.4479 -1.3030
  117MOL0     C15673   7.713   7.351   5.839  1.0445 -0.1091 -0.3113
  117MOL0     C15674   7.661   7.481   5.771  0.2235  0.1726  0.4158
  117MOL0     C15675   7.700   7.481   5.627  0.3987 -0.0851 -0.1179
  117MOL0     C15676   7.615   7.402   5.527 -0.8749  0.2167 -0.0262
  117MOL0     N15677   7.656   7.420   5.390  0.3117 -0.2334  0.3986
  117MOL0     C15678   7.764   7.370   5.332 -0.4734 -0.2556  0.5238
  117MOL0     C15679   7.750   7.397   5.200  0.6662  0.5217 -0.3512
  117MOL0     C15680   7.846   7.368   5.086 -0.0121 -0.1439 -0.2403
  117MOL0     C15681   7.792   7.281   4.979 -0.4969 -0.3922  0.5061
  117MOL0     C15682   7.728   7.151   5.020  0.0857 -0.9513  0.6481
  117MOL0     C15683   7.829   7.054   5.081 -0.3358  0.3308 -0.7371
  117MOL0     O15684   7.794   6.917   5.040 -0.5992 -0.2394 -0.4552
  117MOL0     C15685   7.836   6.812   5.108  0.1752 -0.7422 -0.7085
  117MOL0     C15686   7.948   6.819   5.190 -0.2065 -0.1399 -0.0399
  117MOL0     C15687   7.994   6.706   5.250  0.6379  0.3164  0.1927
  117MOL0     C15688   8.121   6.704   5.327 -0.0288 -0.4353 -0.5889
  117MOL0     C15689   7.911   6.588   5.246 -0.0870 -0.0214  0.0752
  117MOL0     C15690   7.948   6.453   5.308  0.1578  0.0011 -0.3053
  117MOL0     O15691   7.847   6.360   5.327  0.1683  0.0969  0.4265
  117MOL0     C15692   7.872   6.232   5.385 -0.4656  1.4125 -0.5767
  117MOL0     C15693   7.761   6.137   5.382 -0.1205  0.8485 -0.2094
  117MOL0     C15694   7.764   6.009   5.443  0.3687  0.4438 -0.3685
  117MOL0     C15695   7.879   5.972   5.523 -1.1448  0.9992  0.6677
  117MOL0     O15696   7.907   5.850   5.577  0.6687  1.0978 -0.5027
  117MOL0     C15697   7.815   5.744   5.562 -0.9298  0.0270  0.5313
  117MOL0     C15698   7.876   5.611   5.607 -0.2126 -0.1875  1.1573
  117MOL0     C15699   7.991   5.587   5.526  0.1307  0.0502 -0.3765
  117MOL0     C15700   8.042   5.444   5.554  1.0923 -0.1350  0.2880
  117MOL0     C15701   8.149   5.404   5.459 -0.4720 -0.0142  0.2817
  117MOL0     C15702   8.260   5.318   5.526 -0.0196  0.6710  0.2619
  117MOL0     C15703   8.359   5.259   5.421 -0.2661  0.8732  0.2601
  117MOL0     C15704   8.456   5.376   5.384 -0.3770  0.0741 -0.0757
  117MOL0    Cl15705   8.605   5.300   5.316 -0.1351  0.1995 -0.4494
  117MOL0     C15706   7.984   6.070   5.533  0.3138  0.2988  0.8355
  117MOL0     C15707   7.985   6.192   5.461  0.6234  0.2279 -0.4078
  117MOL0     O15708   8.065   6.432   5.331 -0.1783 -0.3052  0.2649
  117MOL0     C15709   7.786   6.599   5.185 -1.0836 -0.2192  0.5797
  117MOL0     C15710   7.757   6.704   5.103 -0.1713 -0.5088  0.0746
  117MOL0     N15711   7.632   7.456   5.180  0.5528 -1.4403  0.0183
  117MOL0     N15712   7.582   7.481   5.291 -0.4912  0.7993 -0.1817
  117MOL0     C15713   8.485   7.171   5.975 -0.4097 -0.8464  0.5911
  117MOL0     C15714   8.606   7.167   5.902  0.5296 -0.3794 -0.5409
  117MOL0     C15715   8.852   7.158   5.486 -0.2562  0.8246  0.4078
  117MOL0     C15716   8.894   7.215   5.368  0.1171 -0.3524 -1.3771
  117MOL0     C15717   9.000   7.152   5.295  0.0892 -0.1512  0.3308
  117MOL0     C15718   9.070   7.050   5.359 -0.4538 -0.6105 -0.0833
  117MOL0     O15719   9.181   7.013   5.283 -0.2422  0.1949 -0.0601
  117MOL0     C15720   9.252   6.893   5.308 -0.2193 -0.1096 -0.3765
  117MOL0     C15721   9.366   6.896   5.201  0.3509  1.1001 -0.3448
  117MOL0     C15722   9.506   6.917   5.258  0.5106  0.0159  0.3077
  117MOL0     C15723   9.547   6.811   5.365  0.5314 -0.6425  0.0059
  117MOL0     C15724   9.549   6.677   5.315 -0.2168  0.3160 -0.0334
  117MOL0     C15725   9.555   6.557   5.285 -0.2502 -0.5276 -0.2252
  117MOL0     C15726   9.026   6.986   5.477 -0.6158  0.1432 -0.7421
  117MOL0     C15727   8.912   7.040   5.536 -0.7798  0.6848  0.4396
  117MOL0     H15728   8.469   7.194   5.590 -0.3558  1.6509 -0.1035
  117MOL0     H15729   8.287   7.237   5.702 -1.4575 -2.0888  1.5387
  117MOL0     H15730   8.135   7.377   5.903 -0.3693 -0.3516 -3.3322
  117MOL0     H15731   8.118   7.198   5.854 -0.3945 -1.5291 -0.4739
  117MOL0     H15732   8.041   7.158   6.090  1.5799 -1.4955 -2.2385
  117MOL0     H15733   8.005   7.331   6.092  1.3025 -0.6131  1.1800
  117MOL0     H15734   7.920   7.131   5.882  1.4627 -1.1949  2.5269
  117MOL0     H15735   7.823   7.190   6.014 -0.9690  0.5465 -0.8568
  117MOL0     H15736   7.859   7.439   5.941 -2.5094  0.1808 -1.9951
  117MOL0     H15737   7.919   7.378   5.785  2.1529 -1.0786  0.1167
  117MOL0     H15738   7.673   7.265   5.786 -3.4398  1.2614  0.3839
  117MOL0     H15739   7.665   7.341   5.937 -1.0838 -1.2362 -1.3977
  117MOL0     H15740   7.553   7.478   5.788  0.1880  0.0489  0.1671
  117MOL0     H15741   7.701   7.570   5.821  1.8919 -1.1829  1.6308
  117MOL0     H15742   7.696   7.585   5.594  2.0202  0.7158  1.9632
  117MOL0     H15743   7.802   7.443   5.622  1.6470  2.6874  1.7818
  117MOL0     H15744   7.508   7.422   5.542 -0.9999 -0.7495  0.4204
  117MOL0     H15745   7.639   7.296   5.543 -0.0907  0.2469 -0.8635
  117MOL0     H15746   7.849   7.312   5.368 -0.1153 -0.0584  0.0088
  117MOL0     H15747   7.880   7.464   5.046 -1.2759  0.1772 -0.5856
  117MOL0     H15748   7.932   7.317   5.131  0.4423  0.5905 -0.2574
  117MOL0     H15749   7.879   7.276   4.912  0.8283 -0.0782  2.1508
  117MOL0     H15750   7.711   7.338   4.931 -1.9319 -1.0355  2.0752
  117MOL0     H15751   7.705   7.105   4.923  0.5147  1.2540 -0.5868
  117MOL0     H15752   7.636   7.169   5.076 -1.3626 -1.2012 -1.5171
  117MOL0     H15753   7.835   7.051   5.191  0.8499 -3.4631 -0.7559
  117MOL0     H15754   7.929   7.078   5.043 -0.8578  0.6560 -1.9441
  117MOL0     H15755   8.017   6.902   5.196  0.0757 -0.4743  3.1365
  117MOL0     H15756   8.183   6.618   5.302  0.4441 -2.2380  5.1973
  117MOL0     H15757   8.181   6.794   5.315 -0.8243  0.0085 -1.3567
  117MOL0     H15758   8.094   6.681   5.431 -1.9745  1.1311 -0.6876
  117MOL0     H15759   7.678   6.156   5.315 -1.6821 -2.4713  0.5884
  117MOL0     H15760   7.677   5.944   5.436  0.3570  0.3882  0.2044
  117MOL0     H15761   7.724   5.768   5.617 -0.5912 -0.2908  1.2491
  117MOL0     H15762   7.801   5.729   5.455 -0.2739 -2.3681  0.7109
  117MOL0     H15763   7.913   5.614   5.709  0.7818 -0.4733  0.8105
  117MOL0     H15764   7.806   5.527   5.601 -0.6909  0.2926 -3.2812
  117MOL0     H15765   8.068   5.661   5.545 -0.5154  1.0213 -1.4283
  117MOL0     H15766   7.971   5.604   5.420  0.0838  5.5835  0.2733
  117MOL0     H15767   8.069   5.438   5.661 -2.4654 -0.9506  1.2703
  117MOL0     H15768   7.955   5.378   5.549  2.0003 -1.5287  1.5692
  117MOL0     H15769   8.207   5.490   5.425 -0.0629 -0.7112 -0.8187
  117MOL0     H15770   8.110   5.353   5.370 -3.7292  2.5475  0.0217
  117MOL0     H15771   8.299   5.369   5.615 -2.6883 -0.9602  2.5458
  117MOL0     H15772   8.216   5.228   5.570  1.7591 -1.6779 -2.4241
  117MOL0     H15773   8.308   5.214   5.336  0.3068 -1.3986  1.0538
  117MOL0     H15774   8.412   5.172   5.459 -0.2343 -0.7651 -3.1751
  117MOL0     H15775   8.470   5.432   5.477 -1.7938  1.2903 -0.5570
  117MOL0     H15776   8.417   5.441   5.305  1.7935  0.9380 -0.5192
  117MOL0     H15777   8.078   6.041   5.579  1.6759  0.7482 -1.4847
  117MOL0     H15778   8.075   6.250   5.479  2.7408 -2.3993 -1.7196
  117MOL0     H15779   7.729   6.507   5.190 -1.0238 -0.1994  2.3812
  117MOL0     H15780   7.671   6.702   5.037 -1.7542 -0.8270  2.0593
  117MOL0     H15781   8.478   7.155   6.082  2.9193  4.0554  1.8739
  117MOL0     H15782   8.706   7.166   5.944  0.4683  1.9755 -0.2272
  117MOL0     H15783   8.846   7.305   5.333  0.0914  0.6859  1.1214
  117MOL0     H15784   9.031   7.192   5.198  0.3186  0.7617  0.7706
  117MOL0     H15785   9.284   6.882   5.412 -2.0311  0.1183  0.2373
  117MOL0     H15786   9.188   6.806   5.290 -1.1246  0.9114 -2.4474
  117MOL0     H15787   9.354   6.976   5.127 -2.8739  0.0836 -1.0453
  117MOL0     H15788   9.365   6.805   5.140  3.1593  1.5375 -1.1994
  117MOL0     H15789   9.521   7.014   5.308  3.0128 -0.3995  0.5341
  117MOL0     H15790   9.579   6.912   5.177  1.9968  0.4964  1.5614
  117MOL0     H15791   9.491   6.805   5.459  0.8158 -1.6807  0.1283
  117MOL0     H15792   9.647   6.841   5.396  0.1272  1.3207 -0.4968
  117MOL0     H15793   9.556   6.464   5.231 -2.0135 -1.4431  1.1844
  117MOL0     H15794   9.081   6.897   5.506  0.7883  1.1129 -0.3668
  117MOL0     H15795   8.880   6.987   5.626  0.6116 -0.3838  0.3467
  118MOL0     O15796   7.799   0.171   7.167 -0.1032 -0.1972  0.3676
  118MOL0     C15797   7.856   0.080   7.219 -0.1359  1.0283  0.1320
  118MOL0     O15798   7.810  -0.048   7.217 -0.1272  0.0977  0.1729
  118MOL0     C15799   7.679  -0.074   7.186 -0.4322 -0.3970  0.0941
  118MOL0     C15800   7.572  -0.028   7.265  0.4602  0.4184  0.8142
  118MOL0     C15801   7.443  -0.063   7.234 -0.3342 -0.2272  0.7337
  118MOL0     C15802   7.413  -0.156   7.131 -0.4032 -0.7400 -0.5157
  118MOL0     O15803   7.282  -0.187   7.092 -0.0389 -0.6240 -0.3737
  118MOL0     C15804   7.167  -0.189   7.184 -0.3848 -0.0373  1.3666
  118MOL0     C15805   7.026  -0.234   7.127 -0.1813  0.6041  0.2899
  118MOL0     C15806   6.927  -0.260   7.235 -0.4623 -0.2932 -0.3875
  118MOL0     C15807   6.788  -0.306   7.189 -0.2361  0.4970 -0.9633
  118MOL0     C15808   6.778  -0.459   7.149  0.0418  0.1305  0.1320
  118MOL0     C15809   6.671  -0.484   7.049 -0.2537 -0.1502  0.0755
  118MOL0     C15810   6.526  -0.489   7.096 -0.3485  0.3995 -0.3035
  118MOL0     C15811   6.470  -0.625   7.149  0.5037 -0.1429  0.2085
  118MOL0     N15812   6.319  -0.611   7.149 -0.9106 -0.0949  0.6804
  118MOL0     C15813   6.243  -0.533   7.244 -0.3699 -0.5329  0.4615
  118MOL0     C15814   6.122  -0.525   7.178  0.1344  1.0118 -0.7204
  118MOL0     C15815   6.009  -0.469   7.256  0.1384 -0.5221 -0.3874
  118MOL0     C15816   5.887  -0.441   7.165 -1.1799 -0.1003 -0.6307
  118MOL0     C15817   5.784  -0.376   7.243  0.0336  0.7479 -0.4574
  118MOL0     C15818   5.685  -0.296   7.153  0.4913 -0.8504 -0.6383
  118MOL0     O15819   5.593  -0.212   7.242 -0.0281 -0.4486  0.2263
  118MOL0     C15820   5.460  -0.238   7.258 -0.4618  0.9074 -0.6419
  118MOL0     C15821   5.413  -0.213   7.392 -0.3724 -0.4936  0.6164
  118MOL0     C15822   5.285  -0.260   7.424  0.4685  0.6772 -0.7865
  118MOL0     C15823   5.252  -0.223   7.567 -0.3931 -0.2401 -0.4370
  118MOL0     C15824   5.195  -0.315   7.328 -1.0129 -0.2341 -0.3326
  118MOL0     C15825   5.063  -0.373   7.360 -0.6009  0.0422  0.5265
  118MOL0     O15826   4.976  -0.359   7.257 -0.0005  0.2931 -1.3404
  118MOL0     C15827   4.852  -0.405   7.294 -0.8610 -0.1495 -0.7264
  118MOL0     C15828   4.756  -0.318   7.307  0.5026 -0.3368  0.3300
  118MOL0     C15829   4.615  -0.347   7.319 -0.6556  0.9940 -0.8038
  118MOL0     C15830   4.585  -0.481   7.331 -0.1917 -0.7123  0.2430
  118MOL0     O15831   4.460  -0.531   7.329 -0.4876 -0.4640  0.6627
  118MOL0     C15832   4.340  -0.463   7.283  0.4074 -0.3263  0.5766
  118MOL0     C15833   4.227  -0.566   7.275  0.8269  0.0211 -0.4119
  118MOL0     C15834   4.091  -0.499   7.237  0.2219 -1.1005  0.7688
  118MOL0     C15835   3.989  -0.600   7.254 -0.0708  0.1382 -0.2845
  118MOL0     C15836   3.858  -0.547   7.200  0.5015  0.6649  0.7853
  118MOL0     C15837   3.758  -0.656   7.189 -0.4897  0.9668 -0.0470
  118MOL0     C15838   3.634  -0.609   7.103 -0.1114  0.1954  0.1332
  118MOL0     C15839   3.505  -0.689   7.141 -0.1362  0.5335 -0.8377
  118MOL0    Cl15840   3.359  -0.587   7.143 -0.1255  0.0185 -0.0702
  118MOL0     C15841   4.686  -0.581   7.344  0.2254  0.2304  0.4920
  118MOL0     C15842   4.819  -0.540   7.321 -0.1673  0.7858  1.1650
  118MOL0     O15843   5.045  -0.439   7.458 -0.2461 -0.1022 -0.2941
  118MOL0     C15844   5.249  -0.341   7.204  0.8107  0.0378 -0.4930
  118MOL0     C15845   5.377  -0.295   7.165 -0.3617 -0.4778 -0.5587
  118MOL0     N15846   6.122  -0.599   7.056  0.5500 -0.8016 -0.3120
  118MOL0     N15847   6.236  -0.647   7.038 -0.5947  0.4350  0.1389
  118MOL0     C15848   7.516  -0.198   7.047 -0.6299 -0.5695  0.9380
  118MOL0     C15849   7.646  -0.149   7.077 -0.9030 -0.1109  0.5943
  118MOL0     C15850   7.997   0.107   7.269 -0.0362  0.2480  0.8117
  118MOL0     C15851   8.073   0.002   7.333 -0.3191 -0.0664  0.0466
  118MOL0     C15852   8.211   0.018   7.364  0.9320 -0.3722 -0.1436
  118MOL0     C15853   8.266   0.143   7.344 -0.4570  0.0178 -0.1665
  118MOL0     O15854   8.401   0.147   7.366 -0.2853  0.0079 -0.3431
  118MOL0     C15855   8.492   0.259   7.350 -0.2477  0.2832 -0.1862
  118MOL0     C15856   8.465   0.367   7.455  0.5065  0.3404  0.1194
  118MOL0     C15857   8.456   0.507   7.390  0.7258  0.0976 -0.3981
  118MOL0     C15858   8.428   0.618   7.495 -0.3650  0.2949  0.3930
  118MOL0     C15859   8.538   0.627   7.596 -0.6068  0.0739 -0.3527
  118MOL0     C15860   8.641   0.624   7.657  0.1114 -0.2266 -0.4887
  118MOL0     C15861   8.189   0.251   7.301 -0.0208 -0.6740  0.3204
  118MOL0     C15862   8.056   0.228   7.265 -0.0248  0.3955  0.7887
  118MOL0     H15863   7.597   0.023   7.357  1.2616 -0.3558  1.0435
  118MOL0     H15864   7.357  -0.030   7.291 -2.5106 -1.0392 -1.8509
  118MOL0     H15865   7.199  -0.255   7.265  2.3637 -0.8293 -0.2337
  118MOL0     H15866   7.139  -0.095   7.231 -2.5094 -0.7486  1.6402
  118MOL0     H15867   6.996  -0.156   7.057  1.4336  1.2966  0.3169
  118MOL0     H15868   7.051  -0.324   7.070  1.7838  0.9389  0.5392
  118MOL0     H15869   6.968  -0.334   7.304  0.9976 -1.6465 -2.5750
  118MOL0     H15870   6.915  -0.171   7.298  1.9131 -1.2570  1.6088
  118MOL0     H15871   6.718  -0.289   7.271 -0.5430  1.8501 -1.4779
  118MOL0     H15872   6.763  -0.240   7.105 -0.3662  3.6103  1.3465
  118MOL0     H15873   6.867  -0.487   7.093 -1.3035 -1.0539 -1.5092
  118MOL0     H15874   6.770  -0.523   7.237  0.0809  3.1314  2.4859
  118MOL0     H15875   6.673  -0.399   6.979  2.1054 -1.4942 -1.6530
  118MOL0     H15876   6.706  -0.564   6.983  1.4791  1.3991 -0.9933
  118MOL0     H15877   6.522  -0.413   7.175 -1.4007 -0.8497  0.8836
  118MOL0     H15878   6.456  -0.465   7.016 -1.1093  2.1721  0.8198
  118MOL0     H15879   6.503  -0.652   7.249 -1.7266  1.0197  1.3281
  118MOL0     H15880   6.504  -0.700   7.076  2.6734  0.9671 -0.0048
  118MOL0     H15881   6.273  -0.492   7.340 -3.4000 -1.1846  1.7934
  118MOL0     H15882   5.978  -0.539   7.334 -2.2552 -0.5794 -1.3118
  118MOL0     H15883   6.046  -0.381   7.309  0.8105 -0.5158 -0.8642
  118MOL0     H15884   5.855  -0.536   7.122  0.7824 -0.6228 -1.0687
  118MOL0     H15885   5.912  -0.373   7.083 -4.6938  2.4828  0.2176
  118MOL0     H15886   5.830  -0.316   7.322 -0.8510 -1.1332  1.6065
  118MOL0     H15887   5.737  -0.461   7.294  1.1500  0.6993  0.5581
  118MOL0     H15888   5.632  -0.353   7.077 -0.7071  0.4952 -0.8711
  118MOL0     H15889   5.742  -0.225   7.092 -2.0745 -1.5635 -4.1515
  118MOL0     H15890   5.480  -0.171   7.466 -1.5482  0.8359  0.9723
  118MOL0     H15891   5.180  -0.141   7.565 -0.0303  0.0701 -1.6707
  118MOL0     H15892   5.207  -0.312   7.613  1.2351 -0.7068  0.3422
  118MOL0     H15893   5.337  -0.194   7.629 -0.2204 -0.2770 -0.6531
  118MOL0     H15894   4.769  -0.212   7.290  1.4525 -0.7296 -1.6157
  118MOL0     H15895   4.537  -0.272   7.307 -1.4145  0.4248  0.3845
  118MOL0     H15896   4.301  -0.380   7.342 -1.8433 -0.7574 -0.1800
  118MOL0     H15897   4.370  -0.431   7.183  2.4412 -2.5346  0.3890
  118MOL0     H15898   4.262  -0.641   7.203 -0.4264  0.5317 -1.5968
  118MOL0     H15899   4.198  -0.612   7.370  2.4601  0.4942  0.3517
  118MOL0     H15900   4.100  -0.458   7.136  0.1971  1.6622  1.7913
  118MOL0     H15901   4.077  -0.404   7.290  0.6496 -0.3182 -0.4798
  118MOL0     H15902   4.012  -0.690   7.196  0.4140 -0.5973  1.0219
  118MOL0     H15903   3.977  -0.620   7.361 -1.4737 -0.6457 -0.5572
  118MOL0     H15904   3.887  -0.514   7.100  0.5247 -1.2618  0.1188
  118MOL0     H15905   3.830  -0.460   7.259  1.5594  1.5639  0.0006
  118MOL0     H15906   3.805  -0.748   7.152  0.8118  0.8362  1.7619
  118MOL0     H15907   3.723  -0.679   7.290 -3.1375  0.9378 -0.8844
  118MOL0     H15908   3.651  -0.620   6.996  3.1578 -1.5794  0.7313
  118MOL0     H15909   3.622  -0.503   7.126  2.2081 -0.0952  3.2786
  118MOL0     H15910   3.512  -0.736   7.240  0.2210  1.9835 -0.1580
  118MOL0     H15911   3.498  -0.766   7.063  0.6704 -1.2460  0.7547
  118MOL0     H15912   4.660  -0.685   7.357  1.2595  0.0963  1.6391
  118MOL0     H15913   4.900  -0.611   7.313 -0.6431  0.1914  1.5704
  118MOL0     H15914   5.186  -0.394   7.134 -0.0658 -1.5082  1.3550
  118MOL0     H15915   5.408  -0.310   7.062 -2.7275  0.1164 -1.4102
  118MOL0     H15916   7.504  -0.254   6.955 -1.6291  2.5081 -0.9588
  118MOL0     H15917   7.731  -0.163   7.011  0.2100  1.3144  1.6484
  118MOL0     H15918   8.035  -0.100   7.332  2.3983 -1.1820 -0.0635
  118MOL0     H15919   8.279  -0.062   7.391 -0.0338 -1.0045  0.4864
  118MOL0     H15920   8.595   0.224   7.345 -0.2381  0.4201 -1.0511
  118MOL0     H15921   8.472   0.304   7.252 -1.1487  2.3482  0.8931
  118MOL0     H15922   8.545   0.349   7.527 -0.8071 -0.1230  1.5118
  118MOL0     H15923   8.368   0.341   7.497  0.0295 -1.5602 -1.9826
  118MOL0     H15924   8.388   0.511   7.305  1.2523  0.6629 -0.8095
  118MOL0     H15925   8.552   0.527   7.342  0.0925 -2.6413 -3.0713
  118MOL0     H15926   8.335   0.604   7.550  1.0549 -2.0510  2.3870
  118MOL0     H15927   8.421   0.710   7.436 -3.9094 -0.4026 -0.4595
  118MOL0     H15928   8.726   0.616   7.723 -0.1240  0.1688 -0.1313
  118MOL0     H15929   8.228   0.349   7.276  0.5744 -0.9201  0.2703
  118MOL0     H15930   8.008   0.317   7.225 -1.0610 -0.0862  0.9220
  119MOL0     O15931  10.062   5.328   0.322 -0.7071  0.6721  0.4183
  119MOL0     C15932  10.128   5.430   0.317 -0.4161  0.0284 -0.2075
  119MOL0     O15933  10.080   5.556   0.316 -0.0163  0.7817 -0.2879
  119MOL0     C15934   9.945   5.567   0.337 -0.7211 -0.8492  0.0035
  119MOL0     C15935   9.865   5.621   0.234 -1.0991 -0.1840  0.9240
  119MOL0     C15936   9.726   5.638   0.259 -0.2597 -0.6747  1.3714
  119MOL0     C15937   9.677   5.612   0.392  0.4440 -0.2118  0.3792
  119MOL0     O15938   9.544   5.628   0.422  0.2717 -0.1055  0.5540
  119MOL0     C15939   9.514   5.761   0.460  0.1822 -0.8810  0.2375
  119MOL0     C15940   9.365   5.788   0.457 -0.5851 -1.0666  0.9260
  119MOL0     C15941   9.301   5.774   0.589  0.2102  0.2747 -0.3028
  119MOL0     C15942   9.155   5.820   0.583  0.3836 -1.0148  0.1659
  119MOL0     C15943   9.087   5.811   0.720  0.2328 -0.2940  0.3151
  119MOL0     C15944   8.938   5.757   0.698 -1.2154 -1.6031 -0.3808
  119MOL0     C15945   8.851   5.784   0.827  0.0933  0.3804  0.7998
  119MOL0     C15946   8.818   5.933   0.858 -0.8176  0.7902 -0.2276
  119MOL0     N15947   8.681   5.952   0.905 -0.5822 -0.0480 -0.2668
  119MOL0     C15948   8.620   5.863   0.995  0.2135 -0.3582  0.3580
  119MOL0     C15949   8.493   5.911   1.003 -0.6021  0.3056  0.6684
  119MOL0     C15950   8.385   5.866   1.100 -0.6024  0.2702 -0.3586
  119MOL0     C15951   8.264   5.823   1.019 -0.4402  0.2376 -0.2406
  119MOL0     C15952   8.175   5.944   0.997  0.0658  1.1189 -0.7836
  119MOL0     C15953   8.091   5.925   0.867 -0.1008  0.2951  0.4394
  119MOL0     O15954   7.999   6.041   0.840 -0.0445 -0.3295 -0.0740
  119MOL0     C15955   7.862   6.033   0.878  0.3635  1.7790  0.3051
  119MOL0     C15956   7.818   5.956   0.985  0.1350  0.8687  0.6325
  119MOL0     C15957   7.682   5.952   1.015  0.3683 -0.0403 -0.0456
  119MOL0     C15958   7.642   5.875   1.132 -0.1361  0.0753 -0.2513
  119MOL0     C15959   7.591   6.025   0.935  0.8460  0.7228 -0.7461
  119MOL0     C15960   7.438   6.009   0.941  0.7663  0.3903 -0.4300
  119MOL0     O15961   7.380   5.889   0.975  0.5450  0.0136  0.9909
  119MOL0     C15962   7.247   5.864   0.996  0.2343 -1.1200 -0.1568
  119MOL0     C15963   7.145   5.960   1.032  0.0330  0.1200  0.5797
  119MOL0     C15964   7.018   5.907   1.069 -0.7915 -0.7037  0.3850
  119MOL0     C15965   6.977   5.777   1.036 -0.7108 -0.5447  0.0284
  119MOL0     O15966   6.854   5.732   1.064 -0.9291 -0.2888 -0.2237
  119MOL0     C15967   6.753   5.828   1.097  0.3869  1.0282 -0.1102
  119MOL0     C15968   6.615   5.754   1.106  0.3029 -0.2797  0.4192
  119MOL0     C15969   6.492   5.842   1.144  0.0721  0.1509 -0.7053
  119MOL0     C15970   6.363   5.765   1.170 -0.0632 -0.3919 -0.9428
  119MOL0     C15971   6.245   5.862   1.203 -0.4759 -0.2275 -0.2651
  119MOL0     C15972   6.104   5.792   1.200 -0.5744  0.1079 -0.1348
  119MOL0     C15973   5.996   5.897   1.239  0.1810  1.2204  0.2761
  119MOL0     C15974   5.860   5.831   1.220  0.0292 -0.3270 -0.6939
  119MOL0    Cl15975   5.731   5.943   1.278 -0.1878 -0.2768  0.0361
  119MOL0     C15976   7.072   5.691   0.986 -0.1515  0.0778  0.2155
  119MOL0     C15977   7.207   5.732   0.974  0.1909  0.4546  0.4124
  119MOL0     O15978   7.374   6.097   0.898  0.4447 -0.2267  0.0372
  119MOL0     C15979   7.640   6.114   0.834  0.0184 -0.2523 -0.3742
  119MOL0     C15980   7.769   6.101   0.796 -0.6720  0.4363 -0.3411
  119MOL0     N15981   8.484   6.018   0.917 -0.5903  0.0150 -0.5359
  119MOL0     N15982   8.597   6.040   0.850  0.1773 -0.3574  0.1371
  119MOL0     C15983   9.758   5.564   0.493  0.4762  0.7001 -0.1284
  119MOL0     C15984   9.895   5.542   0.466  0.9779 -0.3996  0.7594
  119MOL0     C15985  10.271   5.401   0.307  0.4335 -0.1586 -0.0661
  119MOL0     C15986  10.364   5.506   0.319  0.1066 -0.2744  0.5687
  119MOL0     C15987  10.502   5.476   0.307  0.2821  0.4646  0.0340
  119MOL0     C15988  10.547   5.347   0.276  0.2544  0.4252 -0.0595
  119MOL0     O15989  10.681   5.321   0.261  0.3949  0.1681 -0.3300
  119MOL0     C15990  10.721   5.310   0.122  0.3285 -0.6178 -0.1353
  119MOL0     C15991  10.759   5.448   0.063  0.6619  0.4173  0.4905
  119MOL0     C15992  10.856   5.535   0.141 -0.2709 -0.1692  0.3879
  119MOL0     C15993  10.889   5.672   0.089 -1.6820 -0.0262 -0.3538
  119MOL0     C15994  10.893   5.691  -0.059 -0.1803  0.3959  0.3678
  119MOL0     C15995  10.886   5.698  -0.179 -0.4267  0.2550  0.6404
  119MOL0     C15996  10.446   5.249   0.255 -0.0510  0.0288 -0.7701
  119MOL0     C15997  10.312   5.276   0.286 -0.1113 -0.1236  0.1587
  119MOL0     H15998   9.910   5.663   0.144 -1.4436  2.4830  1.9094
  119MOL0     H15999   9.657   5.673   0.183  1.9630  0.1780 -0.3769
  119MOL0     H16000   9.550   5.767   0.563  1.9022 -3.6639 -0.0878
  119MOL0     H16001   9.563   5.837   0.399 -0.3554 -0.2669  0.5607
  119MOL0     H16002   9.352   5.889   0.418  2.9170 -0.6953  0.3776
  119MOL0     H16003   9.320   5.726   0.380  3.0521 -2.2050 -0.4853
  119MOL0     H16004   9.291   5.676   0.636 -0.9857  1.8735  3.1483
  119MOL0     H16005   9.360   5.836   0.657  0.1224 -0.6576  0.6543
  119MOL0     H16006   9.143   5.927   0.563  2.1996 -0.0123  3.6313
  119MOL0     H16007   9.098   5.758   0.513 -0.9684  0.8154 -0.4424
  119MOL0     H16008   9.150   5.751   0.786 -0.2095 -1.0477  0.0702
  119MOL0     H16009   9.074   5.912   0.759  0.4271 -0.4630  0.8251
  119MOL0     H16010   8.900   5.825   0.621  2.0588  2.2892  1.0120
  119MOL0     H16011   8.931   5.658   0.653 -1.4782 -1.3900 -0.8165
  119MOL0     H16012   8.753   5.736   0.819 -2.3430  4.9936  0.0187
  119MOL0     H16013   8.896   5.724   0.907 -0.7564  0.8207  1.6222
  119MOL0     H16014   8.838   5.982   0.763 -0.3935  1.2670  0.1069
  119MOL0     H16015   8.882   5.980   0.933 -0.9881 -0.5408  0.8060
  119MOL0     H16016   8.663   5.781   1.052 -0.3207  0.2505  1.6778
  119MOL0     H16017   8.431   5.780   1.149  1.4387  0.5876 -1.5989
  119MOL0     H16018   8.372   5.951   1.167 -0.8440  0.7530 -1.0017
  119MOL0     H16019   8.201   5.756   1.076  0.2108  0.2237  0.4760
  119MOL0     H16020   8.303   5.768   0.932 -1.4933 -1.8165  0.5245
  119MOL0     H16021   8.241   6.029   0.980  3.8065 -1.3161  0.2178
  119MOL0     H16022   8.116   5.943   1.090  2.7226  0.4641  0.9980
  119MOL0     H16023   8.041   5.827   0.868  2.8033 -1.3542 -1.6921
  119MOL0     H16024   8.156   5.922   0.780 -0.6239 -1.3570  0.0641
  119MOL0     H16025   7.880   5.896   1.050 -1.6167 -0.4131  1.1846
  119MOL0     H16026   7.703   5.894   1.220 -1.6803  3.1137  0.3231
  119MOL0     H16027   7.539   5.903   1.157  0.5232  1.1704  1.3935
  119MOL0     H16028   7.650   5.769   1.110  0.6194  0.1682 -0.4492
  119MOL0     H16029   7.158   6.066   1.051  2.5468 -0.2284  1.2056
  119MOL0     H16030   6.955   5.978   1.121  3.0684  2.3630  1.2440
  119MOL0     H16031   6.776   5.880   1.190  2.2178 -1.2179  0.7939
  119MOL0     H16032   6.740   5.895   1.011 -1.5338  1.3353  0.3709
  119MOL0     H16033   6.591   5.688   1.022 -1.5420  0.3338  0.4271
  119MOL0     H16034   6.627   5.688   1.193 -1.0920  1.1450  1.7583
  119MOL0     H16035   6.480   5.915   1.064  1.4605  1.5765  0.3163
  119MOL0     H16036   6.522   5.888   1.239 -2.6919 -0.4341  0.5476
  119MOL0     H16037   6.333   5.711   1.080 -1.0947  0.0297 -0.8595
  119MOL0     H16038   6.377   5.696   1.254  2.2815 -0.2952 -1.1829
  119MOL0     H16039   6.246   5.942   1.128  0.4394 -0.9631 -1.0685
  119MOL0     H16040   6.250   5.903   1.304 -3.4735 -0.9734  0.2817
  119MOL0     H16041   6.083   5.766   1.096  0.3520  1.4847 -0.6931
  119MOL0     H16042   6.119   5.702   1.261  1.9453 -0.9460 -2.1093
  119MOL0     H16043   5.996   5.990   1.180 -0.6482  0.1055 -1.5884
  119MOL0     H16044   6.002   5.918   1.346  3.2061 -1.8134  0.8543
  119MOL0     H16045   5.858   5.742   1.283  0.2300 -1.0234 -1.6546
  119MOL0     H16046   5.841   5.796   1.118 -1.3824  0.3313 -0.6902
  119MOL0     H16047   7.046   5.589   0.959 -0.4755 -0.1316  1.2400
  119MOL0     H16048   7.283   5.665   0.936  0.1666  0.7643 -0.1891
  119MOL0     H16049   7.574   6.181   0.779 -2.6580 -0.3722  2.4886
  119MOL0     H16050   7.793   6.157   0.706  1.8105  2.4054  1.4389
  119MOL0     H16051   9.729   5.550   0.597  3.0325 -1.5273  0.3927
  119MOL0     H16052   9.950   5.502   0.551  0.8312 -0.5450  0.7872
  119MOL0     H16053  10.327   5.606   0.341 -2.0789 -0.6883 -0.8285
  119MOL0     H16054  10.577   5.551   0.325  1.9000 -1.4877  1.9195
  119MOL0     H16055  10.809   5.246   0.113  0.2317 -1.0453  1.6015
  119MOL0     H16056  10.636   5.266   0.069  0.2627 -0.7464  0.0756
  119MOL0     H16057  10.665   5.493   0.028  1.9224 -0.9781 -6.0968
  119MOL0     H16058  10.813   5.423  -0.029 -0.0486 -2.5669  0.7624
  119MOL0     H16059  10.953   5.485   0.147 -0.5813 -0.8926 -0.3830
  119MOL0     H16060  10.812   5.551   0.240 -0.8815  2.6073 -0.2455
  119MOL0     H16061  10.986   5.703   0.130 -1.2779  1.0023 -1.9723
  119MOL0     H16062  10.821   5.748   0.129 -1.3892  0.2445 -0.3563
  119MOL0     H16063  10.893   5.702  -0.286 -0.0644 -1.0343  0.5968
  119MOL0     H16064  10.473   5.146   0.232 -1.7434 -0.7077  0.3792
  119MOL0     H16065  10.243   5.193   0.291 -2.3531  1.7017  4.0673
  120MOL0     O16066   7.721  10.650  10.233  0.3297 -0.7575  0.5915
  120MOL0     C16067   7.797  10.666  10.332 -0.3424  0.2347 -0.3268
  120MOL0     O16068   7.757  10.698  10.462  0.7328 -0.0857  0.3028
  120MOL0     C16069   7.624  10.722  10.478  0.0593  1.1833 -0.7029
  120MOL0     C16070   7.565  10.833  10.418 -0.3678  0.5908  0.1437
  120MOL0     C16071   7.435  10.863  10.444 -0.1578 -0.3279 -0.1726
  120MOL0     C16072   7.366  10.799  10.559  0.1043  0.9432  0.5285
  120MOL0     O16073   7.245  10.830  10.606  0.3271  0.4528 -0.5932
  120MOL0     C16074   7.177  10.950  10.565 -0.1338  0.7145 -0.8619
  120MOL0     C16075   7.091  11.003  10.687 -1.1626 -0.4174 -0.6762
  120MOL0     C16076   6.997  11.107  10.634  0.2864  0.5723 -0.6784
  120MOL0     C16077   7.063  11.238  10.585 -0.2716  0.1590 -1.0454
  120MOL0     C16078   7.154  11.306  10.680 -0.1839  0.0434 -0.9447
  120MOL0     C16079   7.106  11.321  10.831  0.1017 -0.1432  0.1047
  120MOL0     C16080   7.166  11.450  10.890  0.4662  0.3209  0.0140
  120MOL0     C16081   7.322  11.460  10.892  1.0060  0.2196  0.3368
  120MOL0     N16082   7.379  11.394  11.011  0.4746  0.6476  0.4637
  120MOL0     C16083   7.459  11.465  11.099  0.5703  0.5110  0.0251
  120MOL0     C16084   7.484  11.376  11.200 -0.3573 -0.2865 -0.2262
  120MOL0     C16085   7.553  11.412  11.329 -0.2708 -0.0691  0.5081
  120MOL0     C16086   7.472  11.380  11.453  0.2171 -0.9066  0.8468
  120MOL0     C16087   7.563  11.404  11.574 -0.6706 -0.6571  0.4302
  120MOL0     C16088   7.634  11.276  11.613  0.5320 -0.2808  0.1744
  120MOL0     O16089   7.706  11.308  11.731 -0.3951 -0.5301  0.3677
  120MOL0     C16090   7.646  11.307  11.850  0.4219 -0.0226 -0.5529
  120MOL0     C16091   7.516  11.264  11.873  0.0244 -0.4304  0.0944
  120MOL0     C16092   7.463  11.279  12.004 -0.1835 -0.1450  0.0870
  120MOL0     C16093   7.308  11.259  12.018  0.0475  0.1347 -0.2644
  120MOL0     C16094   7.547  11.332  12.104 -0.0486  0.2637  0.4176
  120MOL0     C16095   7.497  11.325  12.244 -0.9348  0.0044 -0.0673
  120MOL0     O16096   7.581  11.275  12.332 -0.2587 -0.4468 -0.2989
  120MOL0     C16097   7.553  11.268  12.461  0.0783  0.1059 -0.4691
  120MOL0     C16098   7.473  11.174  12.513  0.0223  0.6259 -0.5566
  120MOL0     C16099   7.466  11.159  12.653  0.4120  0.1799  0.8768
  120MOL0     C16100   7.543  11.238  12.736 -0.1293  0.1027  0.1023
  120MOL0     O16101   7.538  11.223  12.870 -0.5047 -0.4421  0.2892
  120MOL0     C16102   7.412  11.182  12.925 -0.4588  0.4024  0.1599
  120MOL0     C16103   7.406  11.203  13.075  0.2276  0.3382 -0.2944
  120MOL0     C16104   7.474  11.334  13.121  0.2566  0.0744 -0.2517
  120MOL0     C16105   7.418  11.458  13.058 -0.3530  1.1162 -0.4943
  120MOL0     C16106   7.500  11.568  13.101 -0.2486 -0.0924 -0.5441
  120MOL0     C16107   7.439  11.703  13.062 -0.0304  1.1726 -0.3846
  120MOL0     C16108   7.530  11.826  13.084 -0.3068  0.4027 -0.2588
  120MOL0     C16109   7.522  11.851  13.230  0.6142 -0.6441 -0.9504
  120MOL0    Cl16110   7.608  11.994  13.259  0.3027  0.7805  0.1627
  120MOL0     C16111   7.632  11.332  12.680 -0.3306  0.2094 -0.6147
  120MOL0     C16112   7.629  11.352  12.544  0.0006  0.5565  0.3792
  120MOL0     O16113   7.386  11.372  12.266 -0.2740 -0.4152 -0.1301
  120MOL0     C16114   7.671  11.380  12.073  0.2678 -0.6110 -0.2467
  120MOL0     C16115   7.726  11.362  11.951  0.5719 -0.3074 -0.2578
  120MOL0     N16116   7.437  11.252  11.161  0.1940  0.2251 -0.8033
  120MOL0     N16117   7.376  11.259  11.049  0.1860 -0.2893  0.4409
  120MOL0     C16118   7.433  10.688  10.617 -0.2640 -0.3799 -0.1781
  120MOL0     C16119   7.560  10.649  10.584 -1.1096  0.3047 -0.0155
  120MOL0     C16120   7.936  10.640  10.304  0.2117  0.3054 -0.9365
  120MOL0     C16121   8.030  10.706  10.380 -0.6235 -0.7694 -0.1216
  120MOL0     C16122   8.161  10.685  10.361 -0.7685  0.1273 -1.0470
  120MOL0     C16123   8.212  10.605  10.267  0.0840  0.0795  0.4827
  120MOL0     O16124   8.344  10.578  10.236  0.1998  0.5450 -0.3263
  120MOL0     C16125   8.444  10.651  10.300 -0.1153 -0.2123  0.4043
  120MOL0     C16126   8.582  10.600  10.263 -0.2512  0.2404 -0.3099
  120MOL0     C16127   8.615  10.595  10.113 -0.0734 -0.3437  0.1256
  120MOL0     C16128   8.735  10.503  10.097 -0.0780  0.3735 -0.1112
  120MOL0     C16129   8.700  10.364  10.079  0.4676 -0.2450 -0.2817
  120MOL0     C16130   8.662  10.248  10.081 -0.0985 -0.3619  0.0177
  120MOL0     C16131   8.124  10.533  10.191 -1.2343  0.1975  0.1522
  120MOL0     C16132   7.990  10.552  10.203 -0.1044 -0.8001 -0.3057
  120MOL0     H16133   7.614  10.903  10.352 -2.4117  1.3017 -0.6782
  120MOL0     H16134   7.383  10.943  10.391 -0.9289 -0.3741  0.4973
  120MOL0     H16135   7.251  11.026  10.541 -0.7430  2.5347  2.3492
  120MOL0     H16136   7.103  10.939  10.485 -0.3820 -0.3228 -0.5076
  120MOL0     H16137   7.034  10.922  10.734 -0.9272 -1.1876 -1.6747
  120MOL0     H16138   7.162  11.042  10.760 -1.1589 -1.6950  0.0353
  120MOL0     H16139   6.929  11.060  10.563 -0.1689  0.8050 -0.4036
  120MOL0     H16140   6.924  11.131  10.711  1.6563  0.3961  0.7136
  120MOL0     H16141   7.124  11.215  10.497  1.1775 -0.2347  0.0284
  120MOL0     H16142   6.979  11.302  10.556  0.4668  1.3773 -0.5720
  120MOL0     H16143   7.250  11.254  10.680 -0.2571 -0.4748  3.5674
  120MOL0     H16144   7.165  11.408  10.643  1.2630  1.3074  2.5506
  120MOL0     H16145   6.999  11.344  10.826  0.1531  1.1109  3.0171
  120MOL0     H16146   7.121  11.230  10.891 -0.4241 -2.0220 -2.4524
  120MOL0     H16147   7.129  11.533  10.829  1.2722 -1.7816 -3.6793
  120MOL0     H16148   7.138  11.449  10.996  0.2112 -0.0413 -0.0509
  120MOL0     H16149   7.332  11.568  10.895  1.9531  0.1357  0.3587
  120MOL0     H16150   7.365  11.428  10.796  1.2086  2.7963 -0.4966
  120MOL0     H16151   7.480  11.571  11.108 -1.1281  0.7430  2.1496
  120MOL0     H16152   7.647  11.357  11.333  1.6038  2.8946  0.1785
  120MOL0     H16153   7.583  11.517  11.337 -4.6983  1.3037  2.3014
  120MOL0     H16154   7.442  11.276  11.439  0.2881 -0.5176 -3.3094
  120MOL0     H16155   7.390  11.450  11.466  1.0678 -0.0844  1.9886
  120MOL0     H16156   7.503  11.446  11.655 -0.3785 -0.6178  0.6283
  120MOL0     H16157   7.634  11.483  11.547 -2.4633  0.6839 -0.6132
  120MOL0     H16158   7.702  11.250  11.532  1.0190  3.1330 -0.6616
  120MOL0     H16159   7.560  11.198  11.635  1.7837 -1.6841 -0.4977
  120MOL0     H16160   7.435  11.237  11.805 -0.1030  0.9711 -0.3339
  120MOL0     H16161   7.256  11.355  12.028  0.0189  0.2117 -1.0736
  120MOL0     H16162   7.261  11.209  11.934 -0.8700  0.8542 -0.1967
  120MOL0     H16163   7.293  11.190  12.101  0.9336 -1.5251 -1.4263
  120MOL0     H16164   7.419  11.099  12.456 -0.5449  0.4469  0.1940
  120MOL0     H16165   7.407  11.076  12.690  2.4399 -1.6988  0.1001
  120MOL0     H16166   7.327  11.230  12.875  0.5487  1.2773 -0.7598
  120MOL0     H16167   7.405  11.073  12.922 -3.3233  0.4542 -3.8620
  120MOL0     H16168   7.301  11.208  13.104 -0.0171 -0.2903 -1.0166
  120MOL0     H16169   7.454  11.119  13.125 -2.1685 -0.6671  0.4590
  120MOL0     H16170   7.583  11.318  13.117  0.8397  0.7732  5.1121
  120MOL0     H16171   7.455  11.344  13.229  0.8711  2.1827 -0.3030
  120MOL0     H16172   7.418  11.458  12.949 -0.4218  1.0646 -0.4947
  120MOL0     H16173   7.315  11.465  13.094  0.0486  1.7543  0.5837
  120MOL0     H16174   7.601  11.561  13.060 -0.0841 -1.9799  0.1124
  120MOL0     H16175   7.499  11.570  13.210 -0.8796  1.7336 -0.5567
  120MOL0     H16176   7.413  11.699  12.955  1.5592  2.9717 -0.9079
  120MOL0     H16177   7.339  11.709  13.106 -0.0080 -0.9985  0.0685
  120MOL0     H16178   7.485  11.905  13.022  1.0268  2.6953  1.5657
  120MOL0     H16179   7.632  11.813  13.048 -0.0019  0.6452  0.5082
  120MOL0     H16180   7.566  11.771  13.291 -1.8892 -0.4115  1.3434
  120MOL0     H16181   7.419  11.862  13.264  0.6251 -0.8179 -0.8627
  120MOL0     H16182   7.701  11.392  12.739  0.9305 -0.4007 -1.4068
  120MOL0     H16183   7.703  11.422  12.506 -1.6879  1.6706 -0.9922
  120MOL0     H16184   7.740  11.431  12.140  0.2258 -0.3257 -0.4207
  120MOL0     H16185   7.821  11.413  11.935  0.7416  0.0317  1.5997
  120MOL0     H16186   7.371  10.647  10.696  0.9075 -1.8743  0.0220
  120MOL0     H16187   7.607  10.568  10.640 -4.1911 -0.1631  2.1898
  120MOL0     H16188   7.994  10.772  10.458 -0.3049 -1.2078  0.4112
  120MOL0     H16189   8.231  10.742  10.421  1.0365 -1.6437 -1.3596
  120MOL0     H16190   8.431  10.759  10.284 -1.3325 -0.1366  1.6985
  120MOL0     H16191   8.432  10.627  10.406  0.4669  0.7070  0.6955
  120MOL0     H16192   8.597  10.500  10.304 -2.1115 -0.2625 -0.7746
  120MOL0     H16193   8.647  10.668  10.319  1.0319 -1.5201  0.4072
  120MOL0     H16194   8.642  10.693  10.073 -1.7264  0.1506  0.1524
  120MOL0     H16195   8.534  10.550  10.055 -0.4415 -0.6719  0.8913
  120MOL0     H16196   8.811  10.513  10.175  1.2118  1.2977 -1.4096
  120MOL0     H16197   8.781  10.533  10.002 -1.8097 -0.4598 -1.2739
  120MOL0     H16198   8.613  10.152  10.076  1.2036 -0.9783 -2.4147
  120MOL0     H16199   8.161  10.465  10.116  1.1487  1.0376  0.4719
  120MOL0     H16200   7.921  10.504  10.134 -0.3355  2.0991 -2.2746
  121MOL0     O16201   2.468   3.839  11.274 -0.1923  0.5299 -0.3586
  121MOL0     C16202   2.462   3.848  11.152 -0.0965 -0.9414  0.0963
  121MOL0     O16203   2.353   3.858  11.070  0.3241 -0.1082  0.6128
  121MOL0     C16204   2.230   3.835  11.126  0.0360 -0.6571  0.4623
  121MOL0     C16205   2.131   3.928  11.111  0.4805 -0.5387  0.0982
  121MOL0     C16206   1.998   3.895  11.150 -0.1055 -0.3870  1.0757
  121MOL0     C16207   1.963   3.777  11.206 -0.5629  0.3922  0.0398
  121MOL0     O16208   1.834   3.737  11.236 -0.0500 -0.5414 -0.0447
  121MOL0     C16209   1.799   3.618  11.303  0.6602 -0.0374 -0.0937
  121MOL0     C16210   1.658   3.634  11.358  0.6687  0.4533  0.7672
  121MOL0     C16211   1.619   3.508  11.438 -1.1961 -0.0281 -0.5406
  121MOL0     C16212   1.493   3.533  11.526  0.2158 -0.4537 -0.3601
  121MOL0     C16213   1.376   3.591  11.451  0.7087  0.1436 -0.0223
  121MOL0     C16214   1.240   3.592  11.529  0.8077  0.2806 -0.2416
  121MOL0     C16215   1.184   3.446  11.557  0.5800 -0.0246  0.2225
  121MOL0     C16216   1.049   3.455  11.643 -0.1867  0.4002 -0.3849
  121MOL0     N16217   0.918   3.457  11.570  0.6531  0.4940  0.7649
  121MOL0     C16218   0.791   3.466  11.629  0.7185 -0.4284  0.1333
  121MOL0     C16219   0.707   3.439  11.525  0.3708 -0.4580 -0.3974
  121MOL0     C16220   0.552   3.449  11.531  0.3295  0.7586  0.6844
  121MOL0     C16221   0.479   3.496  11.407  0.1064  0.5170 -0.5019
  121MOL0     C16222   0.344   3.426  11.405 -0.5103  0.3055 -1.0072
  121MOL0     C16223   0.270   3.473  11.289 -0.9793 -0.0881  0.0901
  121MOL0     O16224   0.168   3.379  11.266  0.3074  0.4929 -0.4946
  121MOL0     C16225   0.066   3.431  11.196  1.0320  1.6381  0.0691
  121MOL0     C16226   0.072   3.528  11.092 -0.4016 -0.1993 -0.1041
  121MOL0     C16227  -0.036   3.555  11.017  0.1745 -0.5835 -0.6618
  121MOL0     C16228  -0.019   3.665  10.925  0.5878  0.0389  0.2629
  121MOL0     C16229  -0.161   3.486  11.039  0.0761 -0.1252 -0.5036
  121MOL0     C16230  -0.293   3.533  10.983  0.6868 -0.6011 -0.7848
  121MOL0     O16231  -0.350   3.441  10.899  0.3183 -0.0452  0.0514
  121MOL0     C16232  -0.477   3.450  10.841 -0.9050 -0.5294 -0.2707
  121MOL0     C16233  -0.540   3.338  10.801  0.0008  0.8845 -0.5425
  121MOL0     C16234  -0.673   3.336  10.749  0.5401 -0.3852 -0.2741
  121MOL0     C16235  -0.741   3.453  10.731  0.0383  1.1770  0.0923
  121MOL0     O16236  -0.867   3.440  10.672 -0.2482 -0.0024  0.3574
  121MOL0     C16237  -0.950   3.563  10.654 -0.2086  0.8120  0.3073
  121MOL0     C16238  -1.095   3.528  10.621  0.3273 -0.0319 -0.4283
  121MOL0     C16239  -1.112   3.483  10.474  0.1523 -0.7164  0.4810
  121MOL0     C16240  -1.248   3.462  10.433  0.7022 -0.1716 -0.2451
  121MOL0     C16241  -1.331   3.581  10.412 -0.0920 -0.2014  0.5400
  121MOL0     C16242  -1.467   3.538  10.366 -0.4872  0.0869  0.2073
  121MOL0     C16243  -1.564   3.651  10.368  0.3640  0.4600  0.7187
  121MOL0     C16244  -1.709   3.606  10.379  0.4801 -0.4045  0.0404
  121MOL0    Cl16245  -1.736   3.475  10.268  0.1844  0.1426  0.5814
  121MOL0     C16246  -0.679   3.570  10.762 -0.6287 -0.3794 -0.8734
  121MOL0     C16247  -0.549   3.568  10.819 -0.5937  0.3517 -0.5198
  121MOL0     O16248  -0.332   3.643  11.011  1.2630  0.0839  0.9562
  121MOL0     C16249  -0.168   3.377  11.121 -0.9565  0.1323  0.0776
  121MOL0     C16250  -0.055   3.346  11.198 -0.4532  0.0844 -1.0735
  121MOL0     N16251   0.778   3.415  11.408  0.3093 -0.4831  0.4270
  121MOL0     N16252   0.902   3.420  11.437  0.2995  0.3129  0.0274
  121MOL0     C16253   2.067   3.693  11.239  0.5077  0.7307  0.2239
  121MOL0     C16254   2.199   3.712  11.184  1.1667  0.0500  0.1410
  121MOL0     C16255   2.589   3.888  11.087 -0.6876  0.1899  0.2979
  121MOL0     C16256   2.601   3.892  10.949  0.0628  0.4043 -0.0434
  121MOL0     C16257   2.715   3.933  10.872  0.7001 -0.6195  0.3688
  121MOL0     C16258   2.827   3.973  10.946  0.6946 -0.4056 -0.3069
  121MOL0     O16259   2.934   4.032  10.886  0.0192  0.3251  0.5331
  121MOL0     C16260   2.988   3.982  10.759  0.5411 -0.3637  0.0734
  121MOL0     C16261   3.142   3.986  10.778 -0.3634  0.5117  0.4265
  121MOL0     C16262   3.222   3.989  10.651 -0.1582  0.2576  0.2601
  121MOL0     C16263   3.217   4.127  10.575  0.3045 -0.3637 -1.0384
  121MOL0     C16264   3.271   4.249  10.640 -0.7392 -0.5076 -0.0015
  121MOL0     C16265   3.306   4.349  10.701 -0.0221  0.7747 -0.1815
  121MOL0     C16266   2.819   3.953  11.084 -0.3832 -0.2579  0.6929
  121MOL0     C16267   2.705   3.910  11.152 -1.7579 -1.1216 -0.9188
  121MOL0     H16268   2.146   4.028  11.073 -2.7191  0.4164  1.0121
  121MOL0     H16269   1.921   3.966  11.121  0.4853 -0.0221  0.3637
  121MOL0     H16270   1.802   3.536  11.230  0.0655  0.1909 -0.3827
  121MOL0     H16271   1.873   3.583  11.374 -0.6855 -2.4395  0.2354
  121MOL0     H16272   1.660   3.717  11.429  1.2937 -0.2417  1.5786
  121MOL0     H16273   1.582   3.649  11.281  1.0915 -2.1650 -0.2606
  121MOL0     H16274   1.595   3.429  11.367 -0.7058 -0.9924  0.3430
  121MOL0     H16275   1.700   3.470  11.501 -0.2027  0.1670 -1.6799
  121MOL0     H16276   1.467   3.441  11.580  2.5988 -2.3131 -2.2118
  121MOL0     H16277   1.522   3.608  11.600  1.7680 -1.2176 -0.1433
  121MOL0     H16278   1.398   3.695  11.426  0.2257  0.3545  0.4199
  121MOL0     H16279   1.368   3.533  11.359 -1.7211  1.9168 -1.0061
  121MOL0     H16280   1.244   3.640  11.627  1.3975  0.9976 -0.6035
  121MOL0     H16281   1.174   3.645  11.461  1.8850  1.6680 -0.2321
  121MOL0     H16282   1.166   3.392  11.464 -3.9454  0.2649  0.7067
  121MOL0     H16283   1.257   3.381  11.606  0.9919 -3.5278 -4.4269
  121MOL0     H16284   1.056   3.545  11.705  0.6221  0.9639 -1.2755
  121MOL0     H16285   1.050   3.365  11.705  2.6370 -0.0021 -0.8550
  121MOL0     H16286   0.780   3.478  11.736  2.2358  0.7239  0.2040
  121MOL0     H16287   0.530   3.342  11.544  0.2333  0.5646 -0.9197
  121MOL0     H16288   0.515   3.501  11.620  0.1205  1.4554  0.2006
  121MOL0     H16289   0.533   3.467  11.315  3.2888  2.3377  0.6224
  121MOL0     H16290   0.472   3.604  11.425  0.2292  0.3817  0.3906
  121MOL0     H16291   0.284   3.453  11.493 -0.9810  0.7884 -1.4687
  121MOL0     H16292   0.352   3.317  11.411 -3.0286  0.0728 -0.9916
  121MOL0     H16293   0.335   3.464  11.202 -2.8908 -1.4010 -1.2772
  121MOL0     H16294   0.243   3.580  11.289  0.6238  0.3887 -2.1082
  121MOL0     H16295   0.160   3.587  11.067  0.5528 -0.9093  1.4663
  121MOL0     H16296  -0.117   3.710  10.911  1.3223  2.0227  1.1204
  121MOL0     H16297   0.048   3.743  10.962 -0.0045  1.0481 -0.7261
  121MOL0     H16298   0.026   3.639  10.829  1.0844 -1.7818  0.9466
  121MOL0     H16299  -0.490   3.242  10.790 -0.3211  0.5502  0.7520
  121MOL0     H16300  -0.713   3.243  10.711 -2.9376  0.8766 -0.0031
  121MOL0     H16301  -0.946   3.614  10.751 -1.6756 -0.8095  1.2780
  121MOL0     H16302  -0.898   3.624  10.579  1.2183 -1.3807 -0.5678
  121MOL0     H16303  -1.130   3.446  10.685 -1.0244  0.6120 -0.2967
  121MOL0     H16304  -1.161   3.614  10.638  0.6021  0.1809 -0.4416
  121MOL0     H16305  -1.062   3.387  10.458 -0.3319 -0.7532 -1.0015
  121MOL0     H16306  -1.062   3.558  10.413  2.9049 -3.5738 -1.0741
  121MOL0     H16307  -1.258   3.391  10.350 -3.2782 -0.7509  0.5041
  121MOL0     H16308  -1.284   3.409  10.521  2.4277  1.5921  1.6108
  121MOL0     H16309  -1.302   3.641  10.325 -0.9675  1.9191  1.6366
  121MOL0     H16310  -1.333   3.650  10.496 -2.3165  1.8911 -1.0847
  121MOL0     H16311  -1.452   3.505  10.262 -0.5492  1.8887 -0.4229
  121MOL0     H16312  -1.505   3.450  10.419 -0.2612 -0.7580 -0.9799
  121MOL0     H16313  -1.554   3.710  10.277 -0.1704  0.3277  0.5709
  121MOL0     H16314  -1.561   3.715  10.457  0.1480  2.4354 -0.6307
  121MOL0     H16315  -1.775   3.688  10.349 -0.9337 -1.6396 -0.3633
  121MOL0     H16316  -1.735   3.581  10.482 -3.7693  2.5801 -0.0104
  121MOL0     H16317  -0.740   3.660  10.760  0.0329  0.1266  0.2445
  121MOL0     H16318  -0.514   3.664  10.855 -0.2846 -0.3835  1.2886
  121MOL0     H16319  -0.254   3.312  11.105  0.3431 -1.6121 -0.2137
  121MOL0     H16320  -0.049   3.255  11.256  2.0077 -0.0112 -1.3422
  121MOL0     H16321   2.048   3.596  11.285  0.3129  0.3314 -0.6816
  121MOL0     H16322   2.274   3.636  11.201 -0.5123 -1.1657  3.0065
  121MOL0     H16323   2.513   3.879  10.887 -0.5003  3.4001 -0.0056
  121MOL0     H16324   2.710   3.946  10.765 -1.9915 -2.2464  0.2101
  121MOL0     H16325   2.941   3.884  10.747 -6.7339  2.5411 -0.6272
  121MOL0     H16326   2.958   4.044  10.674  1.4592 -0.1560 -0.1072
  121MOL0     H16327   3.171   3.902  10.841  0.1281  0.1262 -0.2977
  121MOL0     H16328   3.165   4.071  10.843 -3.2041 -0.7841  3.4108
  121MOL0     H16329   3.195   3.906  10.585  0.6933  0.2298 -0.0631
  121MOL0     H16330   3.323   3.971  10.691 -1.0627 -1.2838  2.0283
  121MOL0     H16331   3.114   4.148  10.541  0.1054  1.7396  0.6264
  121MOL0     H16332   3.277   4.125  10.484  1.7872  1.6094 -0.1668
  121MOL0     H16333   3.349   4.424  10.765  1.2722 -0.8674  0.9641
  121MOL0     H16334   2.897   3.990  11.151 -1.8277  0.8502  1.8437
  121MOL0     H16335   2.709   3.915  11.260  2.1105 -1.1870 -0.9234
  122MOL0     O16336   5.653  10.189   2.368 -0.2193  0.5597 -0.2663
  122MOL0     C16337   5.742  10.152   2.441  0.6602  0.1584  0.3014
  122MOL0     O16338   5.760  10.024   2.478  0.4631  0.0425 -1.0260
  122MOL0     C16339   5.668   9.924   2.456  0.1008  1.1292 -0.1561
  122MOL0     C16340   5.697   9.804   2.393 -0.0540 -0.7186  0.0006
  122MOL0     C16341   5.599   9.698   2.386 -0.2978 -0.6754  0.0484
  122MOL0     C16342   5.473   9.711   2.449 -0.8164  0.3034  0.1116
  122MOL0     O16343   5.388   9.605   2.450  0.3046  0.5233  0.4286
  122MOL0     C16344   5.250   9.615   2.465 -0.0303 -0.1403  0.5383
  122MOL0     C16345   5.186   9.689   2.337 -0.7461  1.1989  0.0650
  122MOL0     C16346   5.026   9.693   2.347 -0.8874  0.9383  0.6597
  122MOL0     C16347   4.966   9.744   2.475  0.0251  0.1019 -0.2856
  122MOL0     C16348   4.815   9.755   2.471 -0.7358  0.0446  1.3980
  122MOL0     C16349   4.749   9.616   2.453  0.0266  0.0709  0.9351
  122MOL0     C16350   4.597   9.619   2.472 -0.0108 -0.4693 -0.5970
  122MOL0     C16351   4.550   9.478   2.454  0.6173 -0.0811 -0.3409
  122MOL0     N16352   4.398   9.472   2.465 -0.7192  0.0699  0.0683
  122MOL0     C16353   4.310   9.533   2.384  1.1415  0.0733  0.5667
  122MOL0     C16354   4.202   9.460   2.400 -0.1783 -0.0087  0.5253
  122MOL0     C16355   4.071   9.485   2.337  0.1600 -0.3467 -0.3443
  122MOL0     C16356   4.083   9.437   2.190 -0.0245 -0.4656  0.3540
  122MOL0     C16357   3.955   9.406   2.118 -0.3418 -0.6760  0.4567
  122MOL0     C16358   3.843   9.338   2.187  0.4119  0.0712 -0.1589
  122MOL0     O16359   3.735   9.320   2.096 -0.3242 -0.4468  0.6569
  122MOL0     C16360   3.623   9.258   2.137 -0.2875  0.8135 -0.5600
  122MOL0     C16361   3.548   9.217   2.028  1.3158 -0.1277 -0.0244
  122MOL0     C16362   3.438   9.129   2.054  0.1907 -0.0441  0.6845
  122MOL0     C16363   3.352   9.089   1.938 -0.3888  0.3756 -0.7643
  122MOL0     C16364   3.405   9.082   2.177 -0.4754  0.4929 -0.1384
  122MOL0     C16365   3.296   8.991   2.213 -0.1370 -0.1484 -0.9103
  122MOL0     O16366   3.163   9.043   2.185 -0.2464 -0.9824  0.0322
  122MOL0     C16367   3.057   8.992   2.248  0.6753 -1.1954 -0.1895
  122MOL0     C16368   3.064   8.955   2.380 -0.2169 -0.7799 -0.1300
  122MOL0     C16369   2.949   8.903   2.440 -0.5954  0.0892 -0.3228
  122MOL0     C16370   2.830   8.892   2.380 -0.7214  0.2365  0.2962
  122MOL0     O16371   2.732   8.824   2.441  1.1643 -0.4340  0.0949
  122MOL0     C16372   2.614   8.797   2.367  0.9251 -0.6002 -0.6538
  122MOL0     C16373   2.521   8.704   2.444  0.0928 -0.1352 -0.2053
  122MOL0     C16374   2.372   8.738   2.414  0.6327  0.7225  0.0120
  122MOL0     C16375   2.290   8.627   2.484  0.9282  0.8401  0.2839
  122MOL0     C16376   2.139   8.659   2.468  0.0616 -0.3259 -0.6709
  122MOL0     C16377   2.062   8.559   2.555  0.7521 -0.7155 -0.0891
  122MOL0     C16378   1.920   8.607   2.562 -0.8204 -0.1276  1.0042
  122MOL0     C16379   1.833   8.511   2.637 -0.0783 -0.3171 -0.2958
  122MOL0    Cl16380   1.662   8.582   2.635 -0.0984 -0.1093  0.1258
  122MOL0     C16381   2.822   8.941   2.245  0.3837  0.7261 -0.0322
  122MOL0     C16382   2.936   8.994   2.183  0.1805  0.3265 -0.0488
  122MOL0     O16383   3.326   8.892   2.277 -0.1913  0.0956 -0.4398
  122MOL0     C16384   3.487   9.128   2.286  0.3691  0.7098 -0.5233
  122MOL0     C16385   3.597   9.210   2.266  0.3662 -0.1168  0.4864
  122MOL0     N16386   4.225   9.343   2.477  0.0377  0.1040  0.2331
  122MOL0     N16387   4.337   9.366   2.527 -0.6982 -0.0351  0.4890
  122MOL0     C16388   5.444   9.839   2.512 -0.3995  0.2599 -0.0453
  122MOL0     C16389   5.547   9.933   2.525 -0.1676  0.1453  0.2605
  122MOL0     C16390   5.845  10.246   2.489 -0.3149  0.0634 -0.1016
  122MOL0     C16391   5.825  10.385   2.495  0.1393  0.4570  0.7835
  122MOL0     C16392   5.929  10.461   2.555  0.0920 -0.3122  0.5499
  122MOL0     C16393   6.063  10.419   2.572  0.5964 -0.6539 -1.0745
  122MOL0     O16394   6.172  10.493   2.621  0.4369  0.4383  0.0229
  122MOL0     C16395   6.160  10.593   2.725 -0.9138 -0.5936  0.3165
  122MOL0     C16396   6.213  10.537   2.854 -0.1204  0.8211  0.4947
  122MOL0     C16397   6.214  10.638   2.967 -0.6380  0.0660  0.6133
  122MOL0     C16398   6.085  10.636   3.040  0.6655 -0.7890  0.3989
  122MOL0     C16399   6.079  10.761   3.118  0.1730 -0.2736  1.1061
  122MOL0     C16400   6.074  10.873   3.164 -0.7185 -0.3577 -0.0503
  122MOL0     C16401   6.080  10.282   2.548  0.7080  0.0840 -0.4465
  122MOL0     C16402   5.973  10.195   2.520 -0.3753  0.0815  0.2719
  122MOL0     H16403   5.786   9.785   2.333 -0.0101 -0.3180 -0.0656
  122MOL0     H16404   5.619   9.614   2.320  1.2437 -0.7723  0.5865
  122MOL0     H16405   5.205   9.517   2.478  2.0160 -1.0085  1.5110
  122MOL0     H16406   5.223   9.669   2.556 -1.3243  0.8316 -0.3821
  122MOL0     H16407   5.238   9.786   2.334 -0.8043  1.3464  2.3033
  122MOL0     H16408   5.203   9.628   2.248 -2.4942  0.7674 -0.0111
  122MOL0     H16409   4.980   9.749   2.264  0.7421  0.5956 -0.5285
  122MOL0     H16410   4.994   9.589   2.331  3.2569 -0.3124 -1.0461
  122MOL0     H16411   5.010   9.698   2.564  2.2663  1.7211 -0.4830
  122MOL0     H16412   4.997   9.847   2.492  1.2516 -0.4759  1.2222
  122MOL0     H16413   4.781   9.796   2.566 -0.2145 -0.7270  1.9208
  122MOL0     H16414   4.797   9.822   2.386  2.3423 -3.5400 -2.5291
  122MOL0     H16415   4.790   9.574   2.361 -1.4563  2.6645 -1.0334
  122MOL0     H16416   4.784   9.563   2.542 -0.2301  0.0502  1.0233
  122MOL0     H16417   4.577   9.665   2.570  0.7748  0.5522 -0.8943
  122MOL0     H16418   4.551   9.677   2.392  1.6481  0.3630 -0.9874
  122MOL0     H16419   4.597   9.415   2.530  1.7352 -0.8464 -1.6135
  122MOL0     H16420   4.579   9.449   2.353 -2.5488 -2.1967 -0.7830
  122MOL0     H16421   4.317   9.626   2.327  1.3243 -0.5134 -0.3839
  122MOL0     H16422   3.994   9.431   2.392 -0.4325  0.9306  0.1132
  122MOL0     H16423   4.046   9.592   2.333  4.0375  0.7115 -1.1401
  122MOL0     H16424   4.138   9.343   2.194 -1.3887 -1.3160 -0.0272
  122MOL0     H16425   4.137   9.515   2.136  0.5318 -1.2916 -0.2848
  122MOL0     H16426   3.976   9.344   2.030  0.3331 -1.2403  1.0113
  122MOL0     H16427   3.916   9.506   2.094 -1.3525 -0.5677  2.3729
  122MOL0     H16428   3.812   9.401   2.271  0.5883  0.4682 -0.3833
  122MOL0     H16429   3.891   9.248   2.227  1.3829 -0.8988 -3.2102
  122MOL0     H16430   3.564   9.247   1.925  2.7974 -2.3939 -0.5238
  122MOL0     H16431   3.374   9.151   1.850  1.7334 -0.6323 -1.0086
  122MOL0     H16432   3.380   8.984   1.922  3.3585  0.7161  2.1159
  122MOL0     H16433   3.247   9.102   1.966  0.5660  2.3290  2.3543
  122MOL0     H16434   3.153   8.976   2.438 -0.0584 -1.1589 -0.2333
  122MOL0     H16435   2.949   8.871   2.544  1.6324  1.7268  0.2695
  122MOL0     H16436   2.557   8.880   2.324  3.1396  2.1274  1.3529
  122MOL0     H16437   2.645   8.738   2.279 -1.1756 -2.1591 -0.4318
  122MOL0     H16438   2.542   8.599   2.421 -0.7586 -0.2142 -0.6761
  122MOL0     H16439   2.546   8.704   2.550 -1.4016  1.2888  0.1787
  122MOL0     H16440   2.340   8.727   2.310 -2.4860  1.7022  0.7414
  122MOL0     H16441   2.342   8.834   2.456 -0.1800  0.6796 -0.4289
  122MOL0     H16442   2.308   8.529   2.440 -0.1907  1.3785 -1.4458
  122MOL0     H16443   2.317   8.611   2.589  0.0778  2.4740  0.7856
  122MOL0     H16444   2.107   8.648   2.363  0.8656  0.5553 -1.0160
  122MOL0     H16445   2.121   8.762   2.500  4.0597 -0.0158  1.1358
  122MOL0     H16446   2.075   8.462   2.505  0.9134  0.3985 -2.3383
  122MOL0     H16447   2.114   8.553   2.651 -2.4838  2.6456  2.1318
  122MOL0     H16448   1.890   8.609   2.457  2.1418  0.9917  0.0673
  122MOL0     H16449   1.926   8.707   2.607  4.0515  0.2502  0.0489
  122MOL0     H16450   1.873   8.494   2.737 -1.2913 -1.0908  0.0723
  122MOL0     H16451   1.828   8.415   2.585  1.0360  0.5266 -2.0828
  122MOL0     H16452   2.740   8.928   2.175 -0.1097 -3.4046  1.0274
  122MOL0     H16453   2.929   9.030   2.081  1.0113 -0.3459 -0.3494
  122MOL0     H16454   3.472   9.091   2.387  1.6988  0.9831 -0.2070
  122MOL0     H16455   3.664   9.237   2.346 -1.0739 -1.4284  2.2400
  122MOL0     H16456   5.354   9.852   2.572 -0.2363  1.2062  0.0104
  122MOL0     H16457   5.526  10.031   2.569  0.0845  0.8024 -1.0380
  122MOL0     H16458   5.728  10.423   2.465 -0.1116 -1.0240 -0.4170
  122MOL0     H16459   5.917  10.569   2.564  3.4685  0.0842  1.5954
  122MOL0     H16460   6.228  10.675   2.702  1.5165 -2.5496  0.1286
  122MOL0     H16461   6.056  10.629   2.725 -2.2243 -3.9645 -0.5608
  122MOL0     H16462   6.308  10.489   2.830  0.4035  2.1124 -0.0656
  122MOL0     H16463   6.142  10.457   2.879  0.8449  0.2150  1.3639
  122MOL0     H16464   6.250  10.735   2.931 -0.5251 -0.2874 -0.2590
  122MOL0     H16465   6.283  10.598   3.041 -0.5686 -3.1486 -1.0069
  122MOL0     H16466   6.065  10.554   3.109  0.3969 -0.5931  0.5570
  122MOL0     H16467   6.000  10.638   2.970 -0.9963 -1.7347  2.3082
  122MOL0     H16468   6.065  10.976   3.194 -2.5427 -0.0547 -1.4509
  122MOL0     H16469   6.174  10.231   2.569  1.5234  1.8589  0.3823
  122MOL0     H16470   6.005  10.091   2.509  0.9375  0.1823  2.5349
  123MOL0     O16471   0.544   2.544   8.713  0.5030 -0.0666 -0.1297
  123MOL0     C16472   0.562   2.458   8.626  0.3936  0.3191  0.0459
  123MOL0     O16473   0.462   2.390   8.567  0.5640  0.4881 -0.5028
  123MOL0     C16474   0.325   2.424   8.582  0.6332 -0.5351  0.5037
  123MOL0     C16475   0.260   2.535   8.637  0.0088  0.0616 -0.2997
  123MOL0     C16476   0.125   2.556   8.616 -0.2345 -0.1718  0.9003
  123MOL0     C16477   0.038   2.462   8.561 -0.6470  0.2965  0.0400
  123MOL0     O16478  -0.091   2.472   8.586 -0.8958 -0.3602  0.2394
  123MOL0     C16479  -0.169   2.360   8.541 -0.2129 -0.3106 -0.3400
  123MOL0     C16480  -0.306   2.380   8.598  0.6521  0.1521  0.3109
  123MOL0     C16481  -0.391   2.474   8.521 -0.0488 -0.3151  0.0054
  123MOL0     C16482  -0.521   2.493   8.597 -0.3601  0.1249  0.0618
  123MOL0     C16483  -0.622   2.586   8.525 -0.2429  0.5516 -0.6087
  123MOL0     C16484  -0.667   2.527   8.387 -0.2838  0.4362 -0.2503
  123MOL0     C16485  -0.790   2.610   8.329  0.0431  0.7697 -0.1691
  123MOL0     C16486  -0.835   2.528   8.209  0.2611 -0.5531 -0.5653
  123MOL0     N16487  -0.929   2.428   8.258 -0.1955  0.1768 -0.5578
  123MOL0     C16488  -0.898   2.294   8.257  0.5122  0.3152 -0.4105
  123MOL0     C16489  -1.029   2.241   8.263 -0.3091  0.1308  0.3348
  123MOL0     C16490  -1.051   2.091   8.240 -1.1708 -0.7525 -0.1496
  123MOL0     C16491  -1.179   2.045   8.311 -0.4871 -0.4140  1.2567
  123MOL0     C16492  -1.162   2.017   8.452  0.2908 -0.0859 -0.6362
  123MOL0     C16493  -1.280   1.946   8.515 -0.2732 -0.7381  0.6303
  123MOL0     O16494  -1.385   2.034   8.542  0.6526  0.4563  0.2593
  123MOL0     C16495  -1.513   1.980   8.514 -0.8208 -0.2545  1.1659
  123MOL0     C16496  -1.615   1.994   8.608  0.1334  0.0980  0.6410
  123MOL0     C16497  -1.753   1.973   8.583 -0.5696  0.5563 -0.9703
  123MOL0     C16498  -1.847   1.993   8.696  0.7337 -0.3571 -0.1045
  123MOL0     C16499  -1.790   1.929   8.452 -1.1312 -0.2155  0.1668
  123MOL0     C16500  -1.930   1.896   8.416  0.4953  0.3143  0.4729
  123MOL0     O16501  -2.037   1.970   8.469 -0.1728 -0.0509  0.2779
  123MOL0     C16502  -2.166   1.949   8.439  0.2374 -0.2028  0.0914
  123MOL0     C16503  -2.244   2.060   8.471  0.1621  0.3082  0.7928
  123MOL0     C16504  -2.379   2.056   8.459 -0.9332 -0.5353 -0.2277
  123MOL0     C16505  -2.448   1.943   8.413 -0.0385 -0.3246 -0.0793
  123MOL0     O16506  -2.584   1.952   8.417  0.3649 -0.4538 -0.8657
  123MOL0     C16507  -2.652   1.934   8.293 -0.0956 -0.2555  0.3172
  123MOL0     C16508  -2.794   1.871   8.297 -0.7834  0.1840  0.1160
  123MOL0     C16509  -2.894   1.964   8.350  0.7638 -0.5189 -0.4681
  123MOL0     C16510  -3.034   1.928   8.297  0.2433 -0.0175 -0.6543
  123MOL0     C16511  -3.163   1.999   8.351 -0.2279 -0.0817  0.5528
  123MOL0     C16512  -3.288   1.966   8.270  0.6157 -0.8532 -0.5262
  123MOL0     C16513  -3.341   2.087   8.187  0.9534 -0.4195  0.1098
  123MOL0     C16514  -3.478   2.068   8.118  0.3384 -0.1833  0.3852
  123MOL0    Cl16515  -3.593   1.999   8.232 -0.6977 -0.5394 -0.5427
  123MOL0     C16516  -2.371   1.830   8.390 -0.1123  0.0965  0.6294
  123MOL0     C16517  -2.232   1.829   8.401  0.1476  0.9642 -1.5877
  123MOL0     O16518  -1.939   1.787   8.347  0.5735 -0.7284 -0.0375
  123MOL0     C16519  -1.689   1.908   8.353 -0.0232  0.0515  0.3284
  123MOL0     C16520  -1.550   1.942   8.380 -0.1137 -0.5749 -0.0536
  123MOL0     N16521  -1.125   2.339   8.282  0.0379  0.1864 -0.4320
  123MOL0     N16522  -1.062   2.452   8.281  0.0966 -0.6101 -0.1276
  123MOL0     C16523   0.105   2.356   8.493 -1.0653 -0.1588  0.3981
  123MOL0     C16524   0.246   2.338   8.504 -0.4825  0.0879  1.0971
  123MOL0     C16525   0.696   2.410   8.600  0.6280 -0.4772  0.3967
  123MOL0     C16526   0.722   2.325   8.487 -0.3666 -0.0627  0.1935
  123MOL0     C16527   0.854   2.277   8.468 -0.5095 -0.7490 -0.2275
  123MOL0     C16528   0.958   2.301   8.561  0.7047  0.4800  0.5090
  123MOL0     O16529   1.081   2.251   8.531 -0.3728  0.2876 -0.6381
  123MOL0     C16530   1.189   2.271   8.633 -0.1566  0.0652  0.5436
  123MOL0     C16531   1.327   2.246   8.574 -0.1119  0.6507  0.2731
  123MOL0     C16532   1.430   2.307   8.668  0.9478 -0.1266 -0.8640
  123MOL0     C16533   1.475   2.443   8.621 -0.2415 -0.5110  0.2711
  123MOL0     C16534   1.552   2.433   8.494  0.4906 -0.8507 -0.3861
  123MOL0     C16535   1.629   2.432   8.400  0.4195 -0.7828  0.0983
  123MOL0     C16536   0.930   2.372   8.673 -0.1423  0.4187  0.4387
  123MOL0     C16537   0.803   2.430   8.694  0.1531  0.4841  0.3407
  123MOL0     H16538   0.314   2.617   8.683 -0.5217  1.4749 -2.0937
  123MOL0     H16539   0.069   2.637   8.663  0.8020  0.3528  1.2569
  123MOL0     H16540  -0.170   2.370   8.432 -0.1674  0.2738 -0.2887
  123MOL0     H16541  -0.126   2.266   8.579  0.9705  1.1525  2.2223
  123MOL0     H16542  -0.354   2.282   8.596  1.6799 -0.4374  2.0746
  123MOL0     H16543  -0.295   2.418   8.700  1.1011 -2.9951  1.5736
  123MOL0     H16544  -0.345   2.572   8.511 -1.6395  0.8187  2.6093
  123MOL0     H16545  -0.410   2.439   8.419 -2.7116  2.0286 -0.4350
  123MOL0     H16546  -0.572   2.397   8.612 -3.0577  1.3972 -0.3829
  123MOL0     H16547  -0.496   2.534   8.695  0.3981 -0.0511 -0.0503
  123MOL0     H16548  -0.709   2.594   8.592 -0.2477 -0.4620 -0.4690
  123MOL0     H16549  -0.576   2.684   8.511 -0.7358  0.4888 -3.1265
  123MOL0     H16550  -0.575   2.536   8.329 -0.7052  2.0996 -0.7198
  123MOL0     H16551  -0.687   2.421   8.404  0.4313  0.3924  0.3582
  123MOL0     H16552  -0.869   2.622   8.404  0.7875 -2.8351  1.4195
  123MOL0     H16553  -0.746   2.705   8.298  0.2442  0.5863 -0.4454
  123MOL0     H16554  -0.750   2.500   8.145  0.4676 -0.6625 -0.2439
  123MOL0     H16555  -0.888   2.603   8.150 -1.4772 -0.7364  0.6868
  123MOL0     H16556  -0.805   2.239   8.246  0.2547 -0.0614 -0.7136
  123MOL0     H16557  -1.058   2.084   8.131  2.5373  1.8347 -0.7403
  123MOL0     H16558  -0.955   2.049   8.269  0.2328  0.9194 -2.1145
  123MOL0     H16559  -1.207   1.947   8.271 -2.2027 -2.2672  6.2369
  123MOL0     H16560  -1.262   2.114   8.291 -0.7573 -1.1343 -0.2018
  123MOL0     H16561  -1.149   2.107   8.513  2.9191 -0.9631  0.2154
  123MOL0     H16562  -1.075   1.952   8.462  1.0018  1.0086  0.6343
  123MOL0     H16563  -1.251   1.902   8.611 -0.8811 -0.1875  1.0752
  123MOL0     H16564  -1.311   1.858   8.457 -0.2865 -0.9382  0.9355
  123MOL0     H16565  -1.589   2.034   8.706 -1.0352 -0.9278  1.3889
  123MOL0     H16566  -1.913   2.078   8.675  3.1698  1.2195 -2.0517
  123MOL0     H16567  -1.898   1.898   8.714  4.0053 -1.9434  1.5140
  123MOL0     H16568  -1.798   2.023   8.789  0.4375  2.2853 -0.7168
  123MOL0     H16569  -2.202   2.152   8.510 -0.6657  2.0929 -2.2050
  123MOL0     H16570  -2.420   2.153   8.487 -0.4921 -0.3464 -0.2236
  123MOL0     H16571  -2.666   2.028   8.238 -1.4902  0.0886  1.1959
  123MOL0     H16572  -2.602   1.856   8.235 -3.5852 -3.0453  0.7335
  123MOL0     H16573  -2.825   1.833   8.199  0.5726  1.0861 -0.6980
  123MOL0     H16574  -2.788   1.787   8.367 -0.5893 -0.1886 -0.3448
  123MOL0     H16575  -2.872   2.066   8.318 -0.0644  0.0659  0.7410
  123MOL0     H16576  -2.880   1.963   8.459 -2.5190 -0.8537  0.0400
  123MOL0     H16577  -3.026   1.948   8.190 -1.8784  2.6891 -0.4121
  123MOL0     H16578  -3.057   1.822   8.312 -1.0592  0.2522 -0.6967
  123MOL0     H16579  -3.152   2.108   8.359 -1.7984  0.0974  0.6810
  123MOL0     H16580  -3.165   1.963   8.454  1.5272  0.4652  0.8139
  123MOL0     H16581  -3.283   1.870   8.218  0.0207 -1.9573  1.3688
  123MOL0     H16582  -3.365   1.941   8.343  1.7732 -2.5567  0.1900
  123MOL0     H16583  -3.267   2.119   8.113  0.6391  2.0472  0.7958
  123MOL0     H16584  -3.363   2.169   8.257  1.5255  0.1125 -0.3257
  123MOL0     H16585  -3.460   2.000   8.035  1.5431 -1.4384  1.6171
  123MOL0     H16586  -3.516   2.160   8.072  3.5558 -0.2739 -2.8355
  123MOL0     H16587  -2.428   1.744   8.356 -1.1045  0.8061  0.4641
  123MOL0     H16588  -2.170   1.743   8.383 -0.7628  0.0960 -0.6838
  123MOL0     H16589  -1.711   1.887   8.248  0.0831 -0.8744  0.4792
  123MOL0     H16590  -1.476   1.955   8.301 -0.8741  1.7551 -0.4482
  123MOL0     H16591   0.040   2.291   8.436 -2.7703 -0.3341  2.4284
  123MOL0     H16592   0.300   2.258   8.454  0.4445  2.5287 -2.2196
  123MOL0     H16593   0.647   2.293   8.415 -2.2444  0.0167  2.0196
  123MOL0     H16594   0.879   2.230   8.373 -1.2554 -0.6326 -0.4845
  123MOL0     H16595   1.193   2.375   8.665  0.5104  0.1838  0.1035
  123MOL0     H16596   1.164   2.200   8.712  1.4720 -1.6573 -0.3924
  123MOL0     H16597   1.347   2.282   8.472  0.6355 -2.1844 -0.6762
  123MOL0     H16598   1.344   2.140   8.556  2.0321  1.1936 -1.3191
  123MOL0     H16599   1.504   2.227   8.681  0.0349 -0.8494  0.0057
  123MOL0     H16600   1.391   2.323   8.768  0.3145 -2.0072 -0.7679
  123MOL0     H16601   1.539   2.492   8.694  0.8846 -2.1727  0.4709
  123MOL0     H16602   1.383   2.498   8.598  0.1781  0.8579  1.7146
  123MOL0     H16603   1.693   2.432   8.314 -1.9644 -1.5740 -1.7983
  123MOL0     H16604   1.009   2.382   8.748  1.4117 -0.4292 -1.0201
  123MOL0     H16605   0.792   2.483   8.788  2.2854 -1.9891  2.1093
  124MOL0     O16606   7.024   7.625  11.340 -0.2378  0.0187 -0.4109
  124MOL0     C16607   7.027   7.574  11.226  0.4663  0.2055 -0.0220
  124MOL0     O16608   6.925   7.506  11.163  0.1826 -0.4242  0.5243
  124MOL0     C16609   6.821   7.457  11.238 -0.3450  0.7981 -0.4042
  124MOL0     C16610   6.845   7.361  11.343  0.3656  0.3408 -0.5605
  124MOL0     C16611   6.737   7.326  11.427 -1.3809 -0.2206  0.4348
  124MOL0     C16612   6.609   7.394  11.419 -0.4900  0.1712  0.3733
  124MOL0     O16613   6.494   7.358  11.481 -0.1135 -0.3768 -0.4184
  124MOL0     C16614   6.509   7.253  11.576 -0.3783  0.0331 -0.0996
  124MOL0     C16615   6.381   7.260  11.664 -0.6877  0.0437  1.3691
  124MOL0     C16616   6.254   7.239  11.584  0.4852  0.6522 -0.1296
  124MOL0     C16617   6.141   7.342  11.599 -0.0151 -0.3465  0.1461
  124MOL0     C16618   6.178   7.487  11.551  0.3791  0.3926 -0.2085
  124MOL0     C16619   6.157   7.528  11.401  0.0779 -0.0593 -0.8699
  124MOL0     C16620   6.016   7.511  11.351  1.2614 -0.4385  0.1698
  124MOL0     C16621   5.922   7.619  11.411 -0.3480 -0.5299 -0.7785
  124MOL0     N16622   5.808   7.637  11.315  0.9345  0.6608 -0.7461
  124MOL0     C16623   5.801   7.729  11.213  0.1196 -0.2171 -0.4680
  124MOL0     C16624   5.672   7.709  11.162 -0.1454 -0.3749 -0.8290
  124MOL0     C16625   5.615   7.802  11.054 -0.6601  0.5413 -0.3776
  124MOL0     C16626   5.512   7.748  10.960  0.1769  0.0229  0.6638
  124MOL0     C16627   5.502   7.834  10.833 -0.2095 -0.2144  0.2963
  124MOL0     C16628   5.447   7.979  10.856 -0.0600  0.1503  0.6795
  124MOL0     O16629   5.317   7.957  10.919 -0.2465 -0.3690 -0.9860
  124MOL0     C16630   5.232   8.071  10.932  1.1004 -0.2373  0.2937
  124MOL0     C16631   5.103   8.059  10.898 -0.1554  0.1155  0.3418
  124MOL0     C16632   5.009   8.163  10.911  0.2884 -1.2703  0.2650
  124MOL0     C16633   4.863   8.121  10.885 -0.5595 -0.0480 -0.2260
  124MOL0     C16634   5.053   8.296  10.931 -0.7161 -0.3206 -0.3945
  124MOL0     C16635   4.969   8.415  10.914  0.3948 -0.0105 -0.0365
  124MOL0     O16636   5.007   8.527  10.987  0.2635  0.2642  0.0051
  124MOL0     C16637   4.923   8.638  11.001 -0.3518  0.4031  0.0232
  124MOL0     C16638   4.862   8.697  10.891  0.3127 -0.3820 -0.6773
  124MOL0     C16639   4.784   8.811  10.899  0.0860 -0.9023  0.3175
  124MOL0     C16640   4.754   8.868  11.027 -0.1385  0.5511 -0.0656
  124MOL0     O16641   4.698   8.989  11.047  1.0838 -0.2899 -0.7539
  124MOL0     C16642   4.628   9.051  10.932  0.0393  0.5542 -0.8907
  124MOL0     C16643   4.546   9.162  10.991  0.8622 -0.0019 -0.3762
  124MOL0     C16644   4.443   9.115  11.101 -0.7035 -0.7756 -0.2452
  124MOL0     C16645   4.332   9.220  11.120 -0.8543 -0.5783 -0.6829
  124MOL0     C16646   4.215   9.134  11.180 -0.1429 -0.7356  0.0292
  124MOL0     C16647   4.092   9.235  11.180 -0.0517 -0.1431  0.0619
  124MOL0     C16648   3.976   9.173  11.263  0.1553 -1.0142  0.8125
  124MOL0     C16649   3.870   9.286  11.297 -0.6101  1.1368  0.4353
  124MOL0    Cl16650   3.806   9.333  11.146 -0.0983  0.2892 -0.2658
  124MOL0     C16651   4.816   8.810  11.138  0.1474  0.0595  0.3234
  124MOL0     C16652   4.898   8.697  11.123  0.5588 -0.5945 -1.0766
  124MOL0     O16653   4.871   8.407  10.844 -0.2771  0.0124  0.3894
  124MOL0     C16654   5.188   8.311  10.973  0.7426 -0.6082 -0.2827
  124MOL0     C16655   5.275   8.202  10.974 -0.1227  0.0672 -0.2260
  124MOL0     N16656   5.621   7.595  11.222 -0.3881 -0.5896 -0.0741
  124MOL0     N16657   5.703   7.549  11.307 -0.4764  0.3619 -0.3957
  124MOL0     C16658   6.584   7.491  11.318  0.3707  0.8393  0.2251
  124MOL0     C16659   6.693   7.520  11.233 -0.7850 -0.2444  0.5935
  124MOL0     C16660   7.149   7.598  11.148  0.2035  0.3211  1.5127
  124MOL0     C16661   7.158   7.558  11.012 -1.0027  0.1991  0.0065
  124MOL0     C16662   7.280   7.591  10.940  0.3542  0.0925  0.1560
  124MOL0     C16663   7.387   7.645  11.008  0.4142  0.0375  0.9235
  124MOL0     O16664   7.506   7.640  10.940  0.6233 -0.5596  0.2275
  124MOL0     C16665   7.628   7.716  10.967 -0.3587  0.0148 -0.6671
  124MOL0     C16666   7.638   7.857  10.907  0.1023  0.0721 -0.0505
  124MOL0     C16667   7.519   7.945  10.931  0.7163 -0.4935 -0.5164
  124MOL0     C16668   7.523   8.073  10.856 -0.1188 -0.3162 -0.7068
  124MOL0     C16669   7.388   8.133  10.866 -0.1477  0.5451  0.9690
  124MOL0     C16670   7.277   8.187  10.881  0.1921 -0.0430 -0.3621
  124MOL0     C16671   7.375   7.686  11.136 -0.4922  0.9226 -0.2635
  124MOL0     C16672   7.261   7.662  11.214 -0.6667 -0.0106  0.0428
  124MOL0     H16673   6.943   7.315  11.353  1.5646  3.1868  2.6213
  124MOL0     H16674   6.758   7.258  11.508 -2.4350  2.2859  2.9828
  124MOL0     H16675   6.526   7.159  11.523 -0.0995  0.8088 -1.4293
  124MOL0     H16676   6.598   7.272  11.637  1.1072  0.3866 -2.2826
  124MOL0     H16677   6.380   7.169  11.723  0.4585 -2.8336 -2.6116
  124MOL0     H16678   6.383   7.347  11.730  0.4204 -0.7853  2.4611
  124MOL0     H16679   6.292   7.224  11.483 -0.6746 -1.5738 -0.2867
  124MOL0     H16680   6.208   7.141  11.596 -2.2699  1.6116 -1.9488
  124MOL0     H16681   6.048   7.312  11.549 -0.8713 -2.2542  2.6528
  124MOL0     H16682   6.117   7.355  11.705  1.7528  3.7497  0.2287
  124MOL0     H16683   6.113   7.546  11.616  1.2208 -0.4142  1.4344
  124MOL0     H16684   6.275   7.522  11.586 -1.0968  1.2069  3.5824
  124MOL0     H16685   6.181   7.634  11.395  1.1781  0.2314  4.2103
  124MOL0     H16686   6.233   7.468  11.350  2.1907  1.5759  0.2350
  124MOL0     H16687   6.006   7.528  11.244 -4.0432  2.2956  0.7516
  124MOL0     H16688   5.982   7.413  11.385  0.4739  0.4292  2.0713
  124MOL0     H16689   5.970   7.718  11.417 -2.6945  0.7421 -1.5242
  124MOL0     H16690   5.901   7.591  11.515  0.3945 -1.6731 -0.9244
  124MOL0     H16691   5.881   7.801  11.197  0.4771 -0.2379  1.0982
  124MOL0     H16692   5.578   7.892  11.104 -1.2216 -0.3278  0.8160
  124MOL0     H16693   5.704   7.835  10.999 -0.0185  1.1510  0.9884
  124MOL0     H16694   5.417   7.763  11.012  0.3751 -1.1319  1.3967
  124MOL0     H16695   5.534   7.643  10.938  2.2677 -0.4189  4.0940
  124MOL0     H16696   5.438   7.776  10.765 -0.7994 -1.0171  1.4891
  124MOL0     H16697   5.604   7.844  10.796  0.6870 -1.7506  2.2068
  124MOL0     H16698   5.444   8.038  10.764 -1.6097  0.2183  0.7438
  124MOL0     H16699   5.516   8.032  10.923 -2.2777  0.6696  2.7078
  124MOL0     H16700   5.079   7.955  10.881  0.2927 -0.2420  1.7087
  124MOL0     H16701   4.805   8.173  10.962 -0.5151  1.0053 -0.8894
  124MOL0     H16702   4.830   8.134  10.782  0.6687 -0.5560 -0.7019
  124MOL0     H16703   4.852   8.017  10.919 -0.1133  0.1604  0.5687
  124MOL0     H16704   4.859   8.649  10.793 -0.9302 -2.5900  0.3718
  124MOL0     H16705   4.732   8.857  10.815  3.0410  1.3142 -0.4346
  124MOL0     H16706   4.699   9.087  10.857  0.7331 -1.9992 -1.5512
  124MOL0     H16707   4.561   8.980  10.883  0.2161 -0.6535  0.5534
  124MOL0     H16708   4.617   9.231  11.038  0.2389 -0.4130  1.2397
  124MOL0     H16709   4.489   9.210  10.911  0.4150 -3.1213 -2.0929
  124MOL0     H16710   4.506   9.090  11.187 -0.0845  0.3329 -0.3638
  124MOL0     H16711   4.402   9.020  11.066  0.4708 -0.7537 -1.7907
  124MOL0     H16712   4.343   9.286  11.207 -1.0138 -1.8688  0.3631
  124MOL0     H16713   4.315   9.284  11.033  1.7388  1.7630  0.3911
  124MOL0     H16714   4.248   9.103  11.280  1.8660  0.5204 -0.1957
  124MOL0     H16715   4.193   9.053  11.110 -0.0774  0.6290 -1.6122
  124MOL0     H16716   4.127   9.330  11.220 -1.9143 -0.6405  3.1791
  124MOL0     H16717   4.055   9.236  11.077  0.9207 -1.6066 -0.3278
  124MOL0     H16718   3.997   9.121  11.357  1.5746 -3.8155 -0.8912
  124MOL0     H16719   3.930   9.100  11.196 -0.8286  0.5364 -0.2525
  124MOL0     H16720   3.914   9.364  11.360  0.5776  1.1538 -0.3822
  124MOL0     H16721   3.790   9.246  11.360  0.2212  1.1778  1.5354
  124MOL0     H16722   4.807   8.856  11.236  2.3582  0.4052  0.4047
  124MOL0     H16723   4.925   8.647  11.216 -3.9568 -0.3734  0.6092
  124MOL0     H16724   5.226   8.412  10.986 -1.1688  0.1452 -0.2649
  124MOL0     H16725   5.377   8.222  11.005 -0.3973 -0.8099  1.3448
  124MOL0     H16726   6.485   7.529  11.296 -0.0212  0.4578  1.2981
  124MOL0     H16727   6.676   7.592  11.153 -0.6140  2.4464  2.8409
  124MOL0     H16728   7.078   7.515  10.952  0.8841 -0.7669 -1.9624
  124MOL0     H16729   7.283   7.552  10.839  1.2448 -2.6248  1.1424
  124MOL0     H16730   7.651   7.722  11.074  2.2012 -0.2583 -1.1337
  124MOL0     H16731   7.717   7.665  10.928  1.4967  1.8464  0.8952
  124MOL0     H16732   7.642   7.847  10.798  2.4435  1.2737 -0.1369
  124MOL0     H16733   7.738   7.894  10.934 -0.4514  0.6275  1.3117
  124MOL0     H16734   7.518   7.969  11.037  0.3684 -0.2412 -0.5713
  124MOL0     H16735   7.423   7.902  10.902 -0.5675  2.8834 -1.8725
  124MOL0     H16736   7.547   8.054  10.751  0.2609 -0.4233 -0.6036
  124MOL0     H16737   7.595   8.141  10.902 -0.7222 -0.5390  0.5886
  124MOL0     H16738   7.177   8.206  10.913  0.0850 -1.4431  0.2441
  124MOL0     H16739   7.472   7.713  11.178  0.5018 -0.7774 -1.3280
  124MOL0     H16740   7.252   7.686  11.320  0.0101  0.8783 -0.0908
  125MOL0     O16741   2.486   4.190   1.143 -0.1194  0.4073 -0.2149
  125MOL0     C16742   2.550   4.193   1.250  0.0805  0.2237  0.3261
  125MOL0     O16743   2.503   4.190   1.378  0.0505  0.1059  0.3321
  125MOL0     C16744   2.371   4.178   1.406 -0.1075 -0.2140 -0.6675
  125MOL0     C16745   2.256   4.143   1.318 -0.6494 -0.3528 -0.4397
  125MOL0     C16746   2.125   4.133   1.364 -0.2271 -0.2445 -0.1839
  125MOL0     C16747   2.103   4.168   1.498 -0.3432  0.1796  0.1697
  125MOL0     O16748   1.979   4.181   1.544 -0.0252 -0.0981 -0.2734
  125MOL0     C16749   1.941   4.093   1.645 -0.0441  0.8280 -0.3108
  125MOL0     C16750   1.809   4.131   1.716 -0.1007 -0.1975  0.2414
  125MOL0     C16751   1.673   4.128   1.638 -0.1872  0.3037 -0.2583
  125MOL0     C16752   1.601   3.992   1.655 -0.3411  0.1137  0.0867
  125MOL0     C16753   1.456   3.992   1.597 -0.1814  0.1054  0.0944
  125MOL0     C16754   1.415   3.845   1.581  0.0016 -0.0337 -0.7390
  125MOL0     C16755   1.383   3.761   1.709  0.6057 -0.5686  0.6483
  125MOL0     C16756   1.318   3.830   1.826 -0.4059  0.4247 -0.3169
  125MOL0     N16757   1.291   3.735   1.935  0.5764 -0.5507 -0.5716
  125MOL0     C16758   1.172   3.687   1.976  0.5380 -0.1822 -0.2784
  125MOL0     C16759   1.204   3.611   2.085 -1.0781  0.4919 -0.1573
  125MOL0     C16760   1.108   3.511   2.136 -0.3958  0.4364  0.1435
  125MOL0     C16761   0.997   3.582   2.219 -0.5129  0.2393 -0.0180
  125MOL0     C16762   0.871   3.490   2.220 -0.5525 -1.0007 -0.1051
  125MOL0     C16763   0.746   3.560   2.292 -0.2697  1.2090 -0.1574
  125MOL0     O16764   0.690   3.679   2.222  0.5024  0.3192  0.3496
  125MOL0     C16765   0.640   3.659   2.099  0.0367 -0.1017 -0.6040
  125MOL0     C16766   0.521   3.594   2.077  0.0745  0.0599 -0.1737
  125MOL0     C16767   0.475   3.554   1.951 -0.1122  0.1326 -0.7109
  125MOL0     C16768   0.347   3.467   1.944 -0.0552 -0.3825  0.7052
  125MOL0     C16769   0.554   3.602   1.842 -0.9168 -0.1120 -0.5448
  125MOL0     C16770   0.512   3.578   1.705 -0.7822 -0.2040  0.2082
  125MOL0     O16771   0.377   3.577   1.681  0.2614  0.2125  0.1984
  125MOL0     C16772   0.347   3.525   1.552  0.4930 -0.0076 -0.8531
  125MOL0     C16773   0.356   3.382   1.527 -0.6468 -0.3719  0.2710
  125MOL0     C16774   0.307   3.320   1.414 -0.0642  0.1302 -0.6215
  125MOL0     C16775   0.257   3.402   1.314  0.6081  0.4014 -0.3255
  125MOL0     O16776   0.221   3.362   1.193  0.9099  0.1254 -0.0881
  125MOL0     C16777   0.271   3.234   1.138  0.0007 -1.7152 -0.4971
  125MOL0     C16778   0.215   3.210   0.996  0.3985 -0.4246  0.2120
  125MOL0     C16779   0.068   3.211   0.997  0.2999 -0.0799  0.1107
  125MOL0     C16780   0.010   3.144   0.872 -0.2788 -0.2249 -0.2310
  125MOL0     C16781  -0.144   3.153   0.869  0.1353  0.2764  0.6617
  125MOL0     C16782  -0.188   3.067   0.749  0.3310 -0.0795  0.2920
  125MOL0     C16783  -0.341   3.053   0.734 -0.1508 -0.2206  0.3181
  125MOL0     C16784  -0.398   3.166   0.649  0.0172 -0.8287  0.1736
  125MOL0    Cl16785  -0.414   3.313   0.749  0.0669  0.1067 -0.2609
  125MOL0     C16786   0.258   3.543   1.332 -0.0415 -0.9932  0.4590
  125MOL0     C16787   0.303   3.608   1.443 -0.3634 -0.2579 -0.9581
  125MOL0     O16788   0.605   3.572   1.619 -0.6765  0.0421  0.1337
  125MOL0     C16789   0.669   3.676   1.865  0.2126  0.4111  0.2959
  125MOL0     C16790   0.722   3.689   1.994 -0.9245 -0.1015  0.6514
  125MOL0     N16791   1.333   3.617   2.115  0.2164 -0.0220 -0.4857
  125MOL0     N16792   1.387   3.688   2.024 -0.3814  0.4916 -0.2666
  125MOL0     C16793   2.207   4.195   1.583  0.4232  0.6753 -0.1945
  125MOL0     C16794   2.343   4.201   1.544 -0.1863  0.4414  1.3563
  125MOL0     C16795   2.699   4.196   1.222  0.4283 -0.6623  1.2396
  125MOL0     C16796   2.752   4.185   1.090  0.0363 -0.8068 -0.1553
  125MOL0     C16797   2.887   4.217   1.067 -0.6886 -0.2701 -0.0643
  125MOL0     C16798   2.969   4.249   1.181  0.2936 -0.6182 -0.2293
  125MOL0     O16799   3.104   4.267   1.172 -0.8238  0.4602  0.1203
  125MOL0     C16800   3.166   4.319   1.053  0.1763 -0.1779  0.6875
  125MOL0     C16801   3.247   4.451   1.096  0.3883  0.7140  0.1592
  125MOL0     C16802   3.375   4.452   1.014 -0.0739  0.0474 -0.0675
  125MOL0     C16803   3.459   4.562   1.079  0.1596 -0.1768  0.0440
  125MOL0     C16804   3.559   4.622   0.988 -0.9253 -1.1452 -0.3839
  125MOL0     C16805   3.640   4.670   0.910  0.5150  0.0908  0.0621
  125MOL0     C16806   2.921   4.253   1.305  0.2210  0.9044 -0.3183
  125MOL0     C16807   2.788   4.228   1.324  0.0914 -0.3910 -0.3418
  125MOL0     H16808   2.284   4.100   1.222  4.5270 -1.4123  1.2043
  125MOL0     H16809   2.036   4.104   1.309 -1.2490 -0.5719  1.5333
  125MOL0     H16810   1.914   3.997   1.600  1.2722  0.1854  0.2245
  125MOL0     H16811   2.024   4.073   1.715 -0.7184  3.5349  1.3984
  125MOL0     H16812   1.803   4.055   1.794  3.8197 -1.0859 -0.0740
  125MOL0     H16813   1.824   4.231   1.757  0.0557  0.5205 -1.4850
  125MOL0     H16814   1.617   4.209   1.686 -1.5366 -1.3966  1.2266
  125MOL0     H16815   1.697   4.148   1.534  2.5616 -1.3818 -0.0661
  125MOL0     H16816   1.656   3.921   1.592  1.8755  1.7171  0.0983
  125MOL0     H16817   1.610   3.953   1.757 -1.8768 -0.7127 -0.0651
  125MOL0     H16818   1.382   4.046   1.658 -0.0712  0.0391  0.2865
  125MOL0     H16819   1.461   4.035   1.497  3.1750  1.2066  0.6128
  125MOL0     H16820   1.316   3.844   1.534 -1.8430 -1.1532  2.7828
  125MOL0     H16821   1.484   3.777   1.530 -1.9229 -2.2141 -0.5960
  125MOL0     H16822   1.327   3.672   1.679  1.4341 -1.7564  2.4601
  125MOL0     H16823   1.480   3.720   1.740 -0.2830 -1.5382  2.2504
  125MOL0     H16824   1.229   3.890   1.806 -0.9613 -0.2717  0.0433
  125MOL0     H16825   1.388   3.904   1.865  1.7043 -1.6447  0.0192
  125MOL0     H16826   1.072   3.692   1.933  0.4068  2.3333  0.1645
  125MOL0     H16827   1.055   3.454   2.058 -2.0771  2.2121 -0.0869
  125MOL0     H16828   1.158   3.427   2.186  1.2225  0.7985 -0.7862
  125MOL0     H16829   0.963   3.675   2.173 -0.6417  0.4291  0.4566
  125MOL0     H16830   1.043   3.595   2.317  0.3156  0.3334 -0.4143
  125MOL0     H16831   0.898   3.395   2.266 -0.6311 -1.0486 -0.1569
  125MOL0     H16832   0.841   3.479   2.116 -0.0625  0.1908 -0.3942
  125MOL0     H16833   0.780   3.592   2.391 -0.9663  1.8191 -0.1062
  125MOL0     H16834   0.662   3.490   2.298 -0.0679  1.0324  0.8584
  125MOL0     H16835   0.462   3.575   2.167 -0.9006  0.5296 -0.6959
  125MOL0     H16836   0.359   3.394   2.025 -0.2440  0.2825  1.3449
  125MOL0     H16837   0.247   3.512   1.945  0.6765  1.4973 -1.5683
  125MOL0     H16838   0.358   3.405   1.855  0.1045 -0.5388  0.8326
  125MOL0     H16839   0.405   3.329   1.608  1.0379  2.2050  1.0786
  125MOL0     H16840   0.330   3.214   1.401 -0.4105 -0.2014  1.2608
  125MOL0     H16841   0.380   3.243   1.136 -0.1214  0.8168  0.3327
  125MOL0     H16842   0.244   3.143   1.193 -0.9658 -0.4924  1.1282
  125MOL0     H16843   0.254   3.287   0.928 -1.5149  0.9778  0.6133
  125MOL0     H16844   0.254   3.113   0.964 -1.6801 -0.2458 -3.4028
  125MOL0     H16845   0.028   3.313   0.998  0.2122 -0.1083  1.2421
  125MOL0     H16846   0.035   3.158   1.087  0.1760 -1.6152 -0.8072
  125MOL0     H16847   0.047   3.187   0.778  2.6575 -3.6537 -0.8350
  125MOL0     H16848   0.041   3.040   0.865  2.3324  0.5814 -2.0940
  125MOL0     H16849  -0.180   3.257   0.860  1.0272  0.4211 -3.2398
  125MOL0     H16850  -0.190   3.111   0.959 -0.4334  1.2861  0.8665
  125MOL0     H16851  -0.149   3.108   0.655  2.0640  1.1470  1.4967
  125MOL0     H16852  -0.152   2.965   0.768  0.6355 -0.4216 -1.8693
  125MOL0     H16853  -0.384   3.033   0.832  0.3288 -2.4822  0.1378
  125MOL0     H16854  -0.354   2.960   0.677 -2.1439  0.4930 -0.4584
  125MOL0     H16855  -0.497   3.130   0.622  1.2168 -6.8193  2.1689
  125MOL0     H16856  -0.338   3.184   0.559  1.9148 -1.6624  1.2007
  125MOL0     H16857   0.244   3.600   1.241  0.7915  0.1443  1.0208
  125MOL0     H16858   0.315   3.715   1.454  2.8466 -0.7242  1.1157
  125MOL0     H16859   0.734   3.703   1.782 -1.7281  1.0062 -1.1063
  125MOL0     H16860   0.814   3.746   2.005  0.4637 -1.8969 -0.9400
  125MOL0     H16861   2.192   4.211   1.690  0.5020 -0.8283  0.0721
  125MOL0     H16862   2.420   4.224   1.617  0.0531  1.1878  0.8775
  125MOL0     H16863   2.683   4.152   1.013 -2.9324  0.4748  1.7798
  125MOL0     H16864   2.941   4.213   0.973 -2.8436  0.5209 -1.4049
  125MOL0     H16865   3.230   4.244   1.007  1.1792  2.0659 -1.8369
  125MOL0     H16866   3.105   4.346   0.967  1.4033 -2.9648 -1.1967
  125MOL0     H16867   3.268   4.433   1.202  2.0512  1.3291 -0.0408
  125MOL0     H16868   3.186   4.541   1.085 -1.1546 -0.4421 -1.2616
  125MOL0     H16869   3.353   4.463   0.908  0.1891  5.0994  0.1612
  125MOL0     H16870   3.435   4.361   1.025 -0.9068 -0.6873 -1.3450
  125MOL0     H16871   3.513   4.510   1.158  0.7836 -0.6971 -0.7057
  125MOL0     H16872   3.395   4.639   1.122  0.0657  0.1690 -0.7033
  125MOL0     H16873   3.709   4.698   0.833 -2.9770  2.0707 -2.6243
  125MOL0     H16874   2.984   4.272   1.391  1.7553  1.2292 -1.4712
  125MOL0     H16875   2.748   4.243   1.423 -2.4930 -2.2531 -0.9946
  126MOL0     O16876   7.247   4.220  11.195  0.6328  0.2165 -0.0828
  126MOL0     C16877   7.312   4.181  11.095 -0.0415  0.1719 -0.7199
  126MOL0     O16878   7.271   4.167  10.971 -0.8884 -0.3980  0.1198
  126MOL0     C16879   7.145   4.201  10.943  0.4618 -0.4652  0.0956
  126MOL0     C16880   7.086   4.327  10.967 -0.5710  0.0340 -0.1121
  126MOL0     C16881   6.963   4.360  10.918 -0.1338  0.6695  0.2116
  126MOL0     C16882   6.887   4.264  10.840  0.2045 -0.6322 -0.3168
  126MOL0     O16883   6.748   4.279  10.817  0.3557 -0.5101  0.7706
  126MOL0     C16884   6.666   4.341  10.920 -0.0742 -0.6250 -0.4727
  126MOL0     C16885   6.514   4.331  10.897 -1.0724 -0.4329  1.0696
  126MOL0     C16886   6.467   4.194  10.872 -0.9241  0.0565  0.6670
  126MOL0     C16887   6.314   4.186  10.895  0.5134 -0.1646 -1.3206
  126MOL0     C16888   6.266   4.057  10.825  0.5277  0.0228  0.1369
  126MOL0     C16889   6.117   4.028  10.849  0.7154  0.0330  0.7134
  126MOL0     C16890   6.096   3.955  10.984 -0.0057  0.1543  0.0194
  126MOL0     C16891   5.944   3.912  10.981 -0.1718 -0.8595  0.3503
  126MOL0     N16892   5.900   3.868  11.106  0.3718  0.6246  0.2483
  126MOL0     C16893   5.890   3.946  11.217 -0.4272 -0.0290  0.9669
  126MOL0     C16894   5.852   3.870  11.320  0.3382  0.4334 -1.1792
  126MOL0     C16895   5.821   3.902  11.463  0.2606  0.0814 -0.9736
  126MOL0     C16896   5.686   3.832  11.515  1.0941 -0.1307  0.1449
  126MOL0     C16897   5.712   3.688  11.559  0.4670  0.6358 -0.9518
  126MOL0     C16898   5.583   3.623  11.592  0.4475  0.6577 -0.0952
  126MOL0     O16899   5.511   3.701  11.684  0.3936  0.1980  0.1019
  126MOL0     C16900   5.416   3.639  11.749  1.9106  0.3387 -0.0488
  126MOL0     C16901   5.351   3.516  11.709  0.6250  0.5421  0.4767
  126MOL0     C16902   5.248   3.469  11.792  0.8356 -0.9414  0.6507
  126MOL0     C16903   5.177   3.350  11.749  1.1645 -0.1331 -0.5644
  126MOL0     C16904   5.198   3.545  11.904 -0.7183  0.3229  0.2254
  126MOL0     C16905   5.088   3.504  11.999  0.1892  0.1344  0.2032
  126MOL0     O16906   5.020   3.599  12.069 -0.0483  0.4457 -0.2030
  126MOL0     C16907   4.912   3.552  12.140  0.6518  0.1667 -0.1260
  126MOL0     C16908   4.784   3.536  12.079 -0.2322 -0.2875  0.1058
  126MOL0     C16909   4.669   3.499  12.149 -0.0132 -0.5637  0.1727
  126MOL0     C16910   4.673   3.470  12.288  0.0528 -0.6091  0.8843
  126MOL0     O16911   4.556   3.431  12.349 -0.3391 -0.1410  0.2991
  126MOL0     C16912   4.573   3.407  12.491 -0.3147  0.5128 -0.4748
  126MOL0     C16913   4.449   3.356  12.558 -0.4729 -0.5772  0.2429
  126MOL0     C16914   4.354   3.467  12.616 -0.2186  0.2280  0.0630
  126MOL0     C16915   4.235   3.415  12.707 -0.8513  0.5407 -0.0699
  126MOL0     C16916   4.173   3.543  12.769 -0.2828  0.6523 -0.6061
  126MOL0     C16917   4.051   3.508  12.866  0.7795  0.7198  0.2595
  126MOL0     C16918   3.937   3.461  12.786 -0.8368  0.3916 -0.6392
  126MOL0     C16919   3.806   3.455  12.872 -0.0212  0.0355  0.5934
  126MOL0    Cl16920   3.797   3.295  12.956  0.0204  0.0223  0.1914
  126MOL0     C16921   4.803   3.491  12.339  0.6432 -0.4025 -0.4677
  126MOL0     C16922   4.918   3.528  12.271 -0.6050 -0.3054 -0.7027
  126MOL0     O16923   5.076   3.385  12.024 -0.5453  0.1223  0.0954
  126MOL0     C16924   5.263   3.670  11.938  0.2130  0.8721 -0.2110
  126MOL0     C16925   5.372   3.716  11.857 -0.0780 -0.2991  0.0258
  126MOL0     N16926   5.833   3.744  11.258 -0.7875 -0.8940  0.2039
  126MOL0     N16927   5.872   3.739  11.134 -0.9284 -0.0512  0.3854
  126MOL0     C16928   6.944   4.141  10.813  0.3341  0.9468 -0.4212
  126MOL0     C16929   7.069   4.110  10.871 -0.5740  0.4292  0.6344
  126MOL0     C16930   7.454   4.151  11.119 -0.2943 -0.3193  0.2053
  126MOL0     C16931   7.500   4.112  11.247 -0.0748 -0.4808 -0.4594
  126MOL0     C16932   7.631   4.091  11.275  0.8979  0.1032  0.0863
  126MOL0     C16933   7.727   4.113  11.180  0.0105  0.8665 -0.6275
  126MOL0     O16934   7.858   4.107  11.217  0.0627  0.8359 -0.3571
  126MOL0     C16935   7.939   4.019  11.133 -0.2878 -0.3389 -0.1371
  126MOL0     C16936   8.023   3.923  11.215  0.0863 -0.0652  0.1555
  126MOL0     C16937   8.151   3.998  11.274 -0.0965  0.1461 -0.3809
  126MOL0     C16938   8.255   3.908  11.331  0.4650 -0.7645 -0.2374
  126MOL0     C16939   8.307   3.815  11.239 -0.4738 -0.4141 -0.1850
  126MOL0     C16940   8.362   3.739  11.160  0.2534 -0.2519 -0.5811
  126MOL0     C16941   7.687   4.132  11.041 -0.3128  0.0478 -0.3812
  126MOL0     C16942   7.551   4.155  11.009 -0.0094  0.0888 -0.4580
  126MOL0     H16943   7.138   4.408  11.016 -0.7324 -1.3054  2.4243
  126MOL0     H16944   6.930   4.457  10.955  0.3181  0.4795  1.1303
  126MOL0     H16945   6.702   4.293  11.012  1.8095  0.8687 -0.3709
  126MOL0     H16946   6.684   4.448  10.926 -2.3769 -0.1168 -1.8067
  126MOL0     H16947   6.464   4.373  10.985 -2.9101 -2.7456  1.2569
  126MOL0     H16948   6.493   4.381  10.803 -0.9232 -1.1092  0.6677
  126MOL0     H16949   6.488   4.169  10.767  2.4818 -1.6710  1.6124
  126MOL0     H16950   6.521   4.120  10.932  0.3690  0.8113  0.4563
  126MOL0     H16951   6.300   4.169  11.002  0.6485  2.8006 -0.7432
  126MOL0     H16952   6.258   4.278  10.874  2.7311  0.9737 -2.6172
  126MOL0     H16953   6.287   4.064  10.718 -3.0705  2.9499 -0.5604
  126MOL0     H16954   6.325   3.968  10.853  0.6857 -0.1864 -0.8463
  126MOL0     H16955   6.061   4.122  10.851 -0.8017 -0.8545  1.1903
  126MOL0     H16956   6.077   3.973  10.764  2.6040  0.1813 -0.3372
  126MOL0     H16957   6.155   3.866  11.006 -0.0554  0.4066  1.2351
  126MOL0     H16958   6.117   4.027  11.064 -2.0362  1.2291 -0.3502
  126MOL0     H16959   5.927   3.834  10.907 -2.7549  1.7598 -2.0763
  126MOL0     H16960   5.878   3.990  10.943 -1.4591 -1.9822  0.1955
  126MOL0     H16961   5.924   4.049  11.220  1.8666 -0.6413 -0.9394
  126MOL0     H16962   5.903   3.870  11.528  0.4267  0.3629 -1.0409
  126MOL0     H16963   5.809   4.009  11.483  2.5346 -0.1926  3.0425
  126MOL0     H16964   5.607   3.844  11.440  1.4830 -1.2037 -0.4593
  126MOL0     H16965   5.648   3.903  11.589  0.8971 -0.8235  0.7124
  126MOL0     H16966   5.759   3.684  11.658 -0.9835  2.5683 -0.1070
  126MOL0     H16967   5.772   3.617  11.502  0.7155 -0.4639  0.6357
  126MOL0     H16968   5.611   3.522  11.621  2.1644  1.5579  1.5864
  126MOL0     H16969   5.519   3.613  11.503  2.6575  1.4370 -1.8630
  126MOL0     H16970   5.376   3.461  11.620  0.3772  1.4646 -0.1788
  126MOL0     H16971   5.196   3.263  11.813 -1.6615  0.8147  1.7594
  126MOL0     H16972   5.070   3.366  11.766  0.9234 -1.0217 -1.1892
  126MOL0     H16973   5.191   3.329  11.643  0.5025 -1.5852 -0.3887
  126MOL0     H16974   4.773   3.538  11.971 -0.6081  0.9834  0.1531
  126MOL0     H16975   4.568   3.484  12.113  0.0018 -0.6330  0.1585
  126MOL0     H16976   4.647   3.328  12.504 -1.5661 -0.3199  2.5298
  126MOL0     H16977   4.616   3.495  12.539 -1.6578  0.6430  0.5591
  126MOL0     H16978   4.398   3.282  12.497 -0.0715 -1.4216  0.9175
  126MOL0     H16979   4.482   3.292  12.640  3.9631 -0.2663 -1.0599
  126MOL0     H16980   4.318   3.530  12.534 -1.0192  0.1591  0.3507
  126MOL0     H16981   4.411   3.532  12.682 -1.0756  1.9180 -0.7986
  126MOL0     H16982   4.157   3.363  12.650 -3.1217  1.6635  1.8228
  126MOL0     H16983   4.261   3.345  12.787 -1.1584  1.8016  1.1723
  126MOL0     H16984   4.120   3.604  12.696 -0.6834  2.0954  0.8281
  126MOL0     H16985   4.243   3.608  12.824 -0.6809  1.5039 -1.0757
  126MOL0     H16986   4.077   3.428  12.936 -1.1019 -0.4421 -0.3142
  126MOL0     H16987   4.032   3.598  12.926  0.4167 -0.4514  1.9579
  126MOL0     H16988   3.959   3.362  12.745 -2.2746  0.4325 -1.5845
  126MOL0     H16989   3.925   3.527  12.699 -1.2701 -0.1205 -0.9714
  126MOL0     H16990   3.719   3.468  12.807  0.3123  0.0749  0.1474
  126MOL0     H16991   3.814   3.539  12.941 -0.1934 -0.3069  1.0287
  126MOL0     H16992   4.819   3.475  12.445 -1.7928  0.8460  0.1662
  126MOL0     H16993   5.015   3.524  12.319 -0.4725 -1.7568 -1.0586
  126MOL0     H16994   5.227   3.732  12.020  4.7891  0.6914  2.2750
  126MOL0     H16995   5.431   3.804  11.881 -2.1892  0.6110  2.3767
  126MOL0     H16996   6.890   4.069  10.753  0.7421 -1.9939  2.4267
  126MOL0     H16997   7.112   4.011  10.854 -0.9759  0.3889 -0.1906
  126MOL0     H16998   7.420   4.099  11.319 -0.9758 -0.5060 -1.4301
  126MOL0     H16999   7.647   4.064  11.379  0.7456 -3.4542 -0.6846
  126MOL0     H17000   7.865   3.959  11.079 -3.4656  2.5818  0.6822
  126MOL0     H17001   7.996   4.071  11.055  0.6783 -0.0825  0.7107
  126MOL0     H17002   8.047   3.839  11.148 -0.0863 -0.4230  0.5401
  126MOL0     H17003   7.963   3.872  11.291 -1.6545 -0.0541 -1.1375
  126MOL0     H17004   8.127   4.084  11.337  0.0580  0.3789 -0.6331
  126MOL0     H17005   8.190   4.030  11.176 -1.5231 -3.9496 -2.5337
  126MOL0     H17006   8.217   3.858  11.421 -0.2262  2.4786  1.4185
  126MOL0     H17007   8.337   3.975  11.356  0.8432 -1.0541 -0.6739
  126MOL0     H17008   8.426   3.673  11.105 -0.4276  1.7000 -3.9624
  126MOL0     H17009   7.754   4.157  10.959  1.8834 -2.0056  0.6559
  126MOL0     H17010   7.529   4.184  10.907 -1.4173  2.6231  0.4568
  127MOL0     O17011  10.109  10.997   6.817 -0.5626 -0.4559  0.3908
  127MOL0     C17012  10.161  10.911   6.892  0.1267 -0.3323 -0.5418
  127MOL0     O17013  10.098  10.835   6.983  0.9190  1.1021  0.7457
  127MOL0     C17014   9.965  10.863   7.002  0.4352  0.5521 -0.2416
  127MOL0     C17015   9.910  10.981   7.038 -0.0402 -0.1326 -0.3082
  127MOL0     C17016   9.779  10.994   7.072 -0.7494 -0.9514  0.0088
  127MOL0     C17017   9.691  10.884   7.073  0.2652 -0.7010 -0.3520
  127MOL0     O17018   9.564  10.875   7.127  0.6530 -0.1235 -0.1917
  127MOL0     C17019   9.506  11.006   7.163  1.0036 -0.6045 -0.1171
  127MOL0     C17020   9.362  10.981   7.210 -0.2593  0.1410  0.2901
  127MOL0     C17021   9.265  10.956   7.095  0.0979  0.0137  0.1618
  127MOL0     C17022   9.223  11.086   7.021 -0.1017 -0.1616  0.3548
  127MOL0     C17023   9.099  11.060   6.935 -0.2905 -0.3292  0.8522
  127MOL0     C17024   9.088  11.176   6.830  0.8023  0.4553 -0.3029
  127MOL0     C17025   8.986  11.143   6.713  0.3842 -0.0765 -0.8785
  127MOL0     C17026   8.845  11.145   6.754  0.1866  0.8690 -0.7372
  127MOL0     N17027   8.766  11.113   6.630 -0.0726 -0.6901  0.4922
  127MOL0     C17028   8.695  10.989   6.609  0.6040 -0.3429 -0.3884
  127MOL0     C17029   8.632  10.999   6.488  0.2754 -0.5805  0.4958
  127MOL0     C17030   8.536  10.898   6.434  0.1227  0.8385 -0.4255
  127MOL0     C17031   8.607  10.824   6.329 -0.6184 -0.4053 -0.5738
  127MOL0     C17032   8.520  10.716   6.265 -0.4138  0.3686  0.5790
  127MOL0     C17033   8.597  10.652   6.150  0.0681  0.1142 -0.2834
  127MOL0     O17034   8.703  10.582   6.214  0.1422 -0.0036  0.1756
  127MOL0     C17035   8.800  10.518   6.131 -0.8690 -0.8363 -0.1600
  127MOL0     C17036   8.861  10.402   6.185  1.1302  0.4558  0.5553
  127MOL0     C17037   8.964  10.330   6.115  0.0426  1.0747  0.3767
  127MOL0     C17038   9.000  10.199   6.186  0.2240  0.1437 -0.0349
  127MOL0     C17039   8.994  10.363   5.982  0.1899 -0.4594  0.2516
  127MOL0     C17040   9.103  10.296   5.911 -1.0530 -0.2499  0.2762
  127MOL0     O17041   9.114  10.316   5.772 -0.2692  0.4904  0.5283
  127MOL0     C17042   9.231  10.302   5.696 -0.3355  0.5524  0.2758
  127MOL0     C17043   9.229  10.309   5.558  0.4413  0.4081 -0.9991
  127MOL0     C17044   9.346  10.295   5.491 -0.2498  0.6184  0.2748
  127MOL0     C17045   9.468  10.265   5.550 -0.3426  0.0011  0.4255
  127MOL0     O17046   9.579  10.234   5.485 -0.1676 -0.3173  0.8938
  127MOL0     C17047   9.592  10.233   5.339  0.1349  0.1218 -0.3114
  127MOL0     C17048   9.729  10.220   5.297 -0.1077 -0.6368  0.8058
  127MOL0     C17049   9.791  10.089   5.333 -0.5234  0.8740  0.3909
  127MOL0     C17050   9.934  10.077   5.258 -0.0674 -0.2351  0.2480
  127MOL0     C17051  10.021   9.950   5.295  0.1815 -1.3681  0.0569
  127MOL0     C17052   9.989   9.835   5.209  0.0021 -0.6008 -0.7813
  127MOL0     C17053  10.043   9.849   5.071 -0.2140 -0.5356 -0.7049
  127MOL0     C17054  10.166   9.748   5.054  0.0788 -0.3724  0.7875
  127MOL0    Cl17055  10.307   9.799   5.150 -0.0328  0.5082 -0.1989
  127MOL0     C17056   9.474  10.263   5.688  0.0042  0.0024 -0.6685
  127MOL0     C17057   9.350  10.283   5.763 -1.1818 -0.2141 -0.5636
  127MOL0     O17058   9.169  10.213   5.974 -0.0524 -0.6750 -0.7053
  127MOL0     C17059   8.923  10.471   5.926  0.1663  0.0408  0.3822
  127MOL0     C17060   8.837  10.551   5.999  0.8866 -0.0685 -0.9367
  127MOL0     N17061   8.667  11.121   6.431  0.5348  0.0753 -0.3197
  127MOL0     N17062   8.743  11.182   6.514 -0.2468 -0.2652  0.7288
  127MOL0     C17063   9.739  10.766   7.028  0.1929 -0.0759 -0.6660
  127MOL0     C17064   9.874  10.744   7.002 -0.0425 -0.4941 -0.6649
  127MOL0     C17065  10.299  10.868   6.872  0.0714  0.2572 -0.9029
  127MOL0     C17066  10.392  10.944   6.807  0.5233  0.0287 -0.0257
  127MOL0     C17067  10.523  10.898   6.790 -0.3706 -0.1821  0.7267
  127MOL0     C17068  10.560  10.771   6.844 -0.7785 -0.5352 -0.3241
  127MOL0     O17069  10.681  10.712   6.827 -0.1545  0.3913 -0.6342
  127MOL0     C17070  10.686  10.635   6.706 -0.3125 -1.0076  0.2405
  127MOL0     C17071  10.826  10.565   6.696 -0.8096  0.3416  0.1218
  127MOL0     C17072  10.932  10.668   6.644  0.4862  0.3171 -0.1567
  127MOL0     C17073  11.081  10.626   6.662 -0.1321 -0.0841 -0.0944
  127MOL0     C17074  11.114  10.503   6.581 -1.2995 -0.8503  0.9243
  127MOL0     C17075  11.144  10.397   6.522  0.1852 -0.3460  0.0876
  127MOL0     C17076  10.464  10.697   6.904  0.1196 -0.1690 -0.4102
  127MOL0     C17077  10.340  10.745   6.925  0.8315 -0.1256 -0.4441
  127MOL0     H17078   9.972  11.070   7.049 -1.1813  0.7697 -0.9342
  127MOL0     H17079   9.757  11.099   7.090  2.4356  0.4456 -2.8750
  127MOL0     H17080   9.555  11.033   7.257  0.0524 -0.7884  0.4450
  127MOL0     H17081   9.514  11.091   7.095 -1.2601 -1.4512 -1.5670
  127MOL0     H17082   9.354  10.899   7.282  2.0769  0.3543  0.8757
  127MOL0     H17083   9.323  11.067   7.265 -1.7062 -1.9162  2.6490
  127MOL0     H17084   9.304  10.886   7.021 -2.3184  0.0924 -1.2873
  127MOL0     H17085   9.177  10.909   7.139  0.9260 -0.8561  0.9372
  127MOL0     H17086   9.181  11.158   7.093 -0.6892 -1.4432  1.3369
  127MOL0     H17087   9.311  11.121   6.965  2.4053 -2.5893  2.4513
  127MOL0     H17088   9.113  10.963   6.887  0.0732 -0.3693  1.0330
  127MOL0     H17089   9.011  11.057   7.000 -1.4270 -1.9905 -0.6756
  127MOL0     H17090   9.074  11.277   6.870  1.4266 -0.4565  2.3539
  127MOL0     H17091   9.185  11.178   6.779  1.6917  2.2444  1.3130
  127MOL0     H17092   8.986  11.219   6.634  0.2995 -0.2603 -1.0530
  127MOL0     H17093   9.013  11.047   6.669  2.5186 -0.3649  0.8734
  127MOL0     H17094   8.823  11.245   6.790  3.4638  1.9179 -1.3171
  127MOL0     H17095   8.824  11.068   6.829  0.1384 -2.0608 -3.5155
  127MOL0     H17096   8.693  10.905   6.677 -1.7247 -1.0102 -1.1920
  127MOL0     H17097   8.498  10.825   6.507  0.6539 -0.1684 -1.1335
  127MOL0     H17098   8.446  10.950   6.401 -1.7828  0.6460  3.7925
  127MOL0     H17099   8.697  10.779   6.373 -2.2359 -1.7879  1.5307
  127MOL0     H17100   8.621  10.895   6.247 -0.9995  0.3651  0.0218
  127MOL0     H17101   8.425  10.754   6.225 -2.7439 -4.2097  1.1169
  127MOL0     H17102   8.495  10.637   6.336 -0.8054 -0.0553 -0.0295
  127MOL0     H17103   8.633  10.731   6.084 -0.6322 -1.5037 -2.7208
  127MOL0     H17104   8.532  10.588   6.089 -0.8880  2.2939 -1.6724
  127MOL0     H17105   8.819  10.356   6.273  1.9094 -3.3943 -0.8888
  127MOL0     H17106   8.969  10.120   6.117  1.4865  1.2837 -2.0282
  127MOL0     H17107   9.104  10.184   6.216 -0.7901 -1.3375  3.1500
  127MOL0     H17108   8.939  10.181   6.275  0.5921 -1.7604 -0.1172
  127MOL0     H17109   9.135  10.334   5.509 -0.4016  2.3993  1.3746
  127MOL0     H17110   9.344  10.307   5.383 -0.9556 -2.0597 -0.0747
  127MOL0     H17111   9.532  10.151   5.297  0.3986 -0.8728  1.1918
  127MOL0     H17112   9.557  10.333   5.312 -0.2220  0.2105  0.4606
  127MOL0     H17113   9.741  10.243   5.191 -0.3573  2.3330  1.3313
  127MOL0     H17114   9.789  10.295   5.352  1.4287 -0.4743 -0.9735
  127MOL0     H17115   9.727  10.008   5.298 -0.1054  0.8158 -0.2545
  127MOL0     H17116   9.810  10.076   5.440 -0.2003 -0.4125  0.1933
  127MOL0     H17117   9.921  10.086   5.149  2.8327 -1.1171 -0.2766
  127MOL0     H17118   9.979  10.169   5.294 -3.1435  1.4615  0.0933
  127MOL0     H17119  10.015   9.932   5.403  0.2598  2.1990  0.7780
  127MOL0     H17120  10.127   9.973   5.277  0.6905 -1.0955  2.9391
  127MOL0     H17121  10.036   9.745   5.250  1.0184 -0.7693 -2.2532
  127MOL0     H17122   9.880   9.825   5.211 -0.1207  0.6733  0.5796
  127MOL0     H17123  10.082   9.949   5.051  1.2750 -0.8963  0.2611
  127MOL0     H17124   9.971   9.828   4.991 -1.0746  0.1873 -0.1431
  127MOL0     H17125  10.208   9.773   4.955  1.8019  3.0772  2.1929
  127MOL0     H17126  10.140   9.643   5.064 -1.0469 -0.1921 -0.0998
  127MOL0     H17127   9.571  10.249   5.735  1.5473 -2.4125 -4.1530
  127MOL0     H17128   9.372  10.282   5.869 -2.9289  1.1823 -0.1385
  127MOL0     H17129   8.950  10.493   5.824 -1.2299 -0.0838 -0.0301
  127MOL0     H17130   8.789  10.636   5.951 -0.0213 -0.3132 -0.4858
  127MOL0     H17131   9.690  10.669   7.029  0.1312 -0.0503 -1.1718
  127MOL0     H17132   9.904  10.642   6.983 -0.3422 -0.6178 -0.4774
  127MOL0     H17133  10.354  11.036   6.765 -0.9955 -0.0630  1.0311
  127MOL0     H17134  10.598  10.957   6.738 -0.3174 -0.4445  0.5014
  127MOL0     H17135  10.604  10.566   6.686 -2.4041  1.4111  0.0277
  127MOL0     H17136  10.678  10.708   6.625 -0.9227  0.1701  1.3419
  127MOL0     H17137  10.813  10.472   6.639  0.9395  0.1018  0.0636
  127MOL0     H17138  10.868  10.543   6.794 -2.1617  0.1394  0.6750
  127MOL0     H17139  10.909  10.757   6.703 -0.1102 -2.2009  3.7551
  127MOL0     H17140  10.914  10.683   6.537 -1.3269  0.0483  0.0849
  127MOL0     H17141  11.105  10.612   6.768 -1.4505  2.0196  0.5364
  127MOL0     H17142  11.143  10.709   6.626  0.9130 -0.3018  1.1342
  127MOL0     H17143  11.155  10.300   6.478  1.1637  0.0486 -0.5975
  127MOL0     H17144  10.499  10.603   6.945 -0.0209  0.0619  0.2552
  127MOL0     H17145  10.272  10.680   6.981 -2.1476  0.9002 -2.6180
  128MOL0     O17146  10.450   6.618   2.928  0.6293 -0.3710 -0.5737
  128MOL0     C17147  10.470   6.636   2.810  0.2199  0.8639  0.8978
  128MOL0     O17148  10.371   6.639   2.706 -0.6134  0.1994  0.4829
  128MOL0     C17149  10.247   6.608   2.727 -0.0204 -0.4871  0.0249
  128MOL0     C17150  10.149   6.663   2.642 -0.0656  0.6578  0.6734
  128MOL0     C17151  10.015   6.613   2.641 -0.1502 -0.0975 -0.0133
  128MOL0     C17152   9.966   6.539   2.738  0.6102  0.7211 -0.5171
  128MOL0     O17153   9.827   6.516   2.738 -0.1260 -0.1190  0.2009
  128MOL0     C17154   9.790   6.378   2.758  0.1929 -0.5629 -0.1697
  128MOL0     C17155   9.661   6.338   2.692  0.7060  0.6401 -0.4752
  128MOL0     C17156   9.543   6.410   2.760  0.2925 -0.6201  0.8781
  128MOL0     C17157   9.423   6.417   2.667  0.8060 -0.1234  0.2236
  128MOL0     C17158   9.313   6.501   2.737 -0.1390  0.7306 -1.4401
  128MOL0     C17159   9.190   6.490   2.640 -0.4218 -0.3305 -0.7591
  128MOL0     C17160   9.057   6.553   2.681 -0.4876 -0.0196 -0.6284
  128MOL0     C17161   8.943   6.488   2.611  0.3010 -0.1723 -0.2418
  128MOL0     N17162   8.816   6.531   2.669  0.9107 -0.2815  0.4823
  128MOL0     C17163   8.764   6.471   2.780 -0.0653 -0.7290 -0.3540
  128MOL0     C17164   8.638   6.527   2.787 -0.4008  0.1241  0.1617
  128MOL0     C17165   8.541   6.511   2.903 -0.2356  0.6694 -0.2145
  128MOL0     C17166   8.434   6.408   2.873  0.0919  0.4572  1.2950
  128MOL0     C17167   8.366   6.347   3.007 -0.4955 -0.1443  0.5401
  128MOL0     C17168   8.252   6.236   2.966 -0.3601 -0.3282 -0.0161
  128MOL0     O17169   8.144   6.233   3.058 -0.0068  0.4446 -0.4048
  128MOL0     C17170   8.019   6.205   3.015 -0.8745  0.6700 -0.0259
  128MOL0     C17171   7.993   6.124   2.909 -0.2665 -0.0524  0.1169
  128MOL0     C17172   7.868   6.118   2.842 -0.2295  0.2549 -0.1078
  128MOL0     C17173   7.846   6.045   2.711 -0.2906  0.0370  0.5060
  128MOL0     C17174   7.763   6.185   2.909 -0.4427  0.3196  0.2830
  128MOL0     C17175   7.622   6.163   2.867 -0.1693  0.3980  0.7288
  128MOL0     O17176   7.531   6.267   2.877 -0.1398  0.2971  0.0424
  128MOL0     C17177   7.399   6.225   2.863 -0.4595 -0.3404 -0.3605
  128MOL0     C17178   7.345   6.182   2.744  0.5340  0.2143  0.3454
  128MOL0     C17179   7.201   6.168   2.730 -0.0182  0.7383  0.0691
  128MOL0     C17180   7.114   6.189   2.836  0.4335  0.0568  0.6796
  128MOL0     O17181   6.984   6.169   2.810 -0.3383 -1.0541 -0.4814
  128MOL0     C17182   6.886   6.189   2.916 -0.6122  0.5351 -0.4658
  128MOL0     C17183   6.744   6.162   2.861  0.1623 -0.5857  0.2150
  128MOL0     C17184   6.626   6.222   2.941 -0.7854 -0.7069 -0.0348
  128MOL0     C17185   6.619   6.373   2.920 -0.9664 -0.5105 -0.4951
  128MOL0     C17186   6.476   6.433   2.937  0.0344 -0.1378  0.4212
  128MOL0     C17187   6.366   6.355   2.857 -0.9303  0.1630  0.0084
  128MOL0     C17188   6.237   6.440   2.836  0.3367 -0.4634 -1.1135
  128MOL0     C17189   6.154   6.379   2.724  0.0735  0.7384  0.6968
  128MOL0    Cl17190   6.225   6.440   2.566  0.1556 -0.2657  0.2891
  128MOL0     C17191   7.174   6.216   2.954 -0.2205 -0.5257 -0.1386
  128MOL0     C17192   7.313   6.234   2.975 -0.7628 -0.6575  1.0585
  128MOL0     O17193   7.600   6.049   2.827 -0.0242  0.1980 -1.3059
  128MOL0     C17194   7.790   6.266   3.015 -0.2728  0.6629 -0.3180
  128MOL0     C17195   7.918   6.282   3.064 -0.3489 -0.1950  0.0579
  128MOL0     N17196   8.616   6.602   2.668 -0.6172  0.2568  0.4043
  128MOL0     N17197   8.725   6.607   2.601  0.6276 -0.1071 -0.2887
  128MOL0     C17198  10.058   6.484   2.831 -0.2528  0.0627  0.2905
  128MOL0     C17199  10.198   6.518   2.820  0.3948  0.1635  0.6304
  128MOL0     C17200  10.610   6.657   2.757  0.8343 -0.3922  0.0274
  128MOL0     C17201  10.716   6.683   2.845  0.1948 -0.3707 -0.3398
  128MOL0     C17202  10.844   6.691   2.794 -0.2933  0.3706  0.2640
  128MOL0     C17203  10.865   6.689   2.652  0.3301 -0.6764  0.0917
  128MOL0     O17204  10.983   6.727   2.598 -0.7561  0.2396 -0.8093
  128MOL0     C17205  10.997   6.775   2.466  0.2824 -0.4464 -0.3629
  128MOL0     C17206  11.139   6.821   2.435  0.6969 -0.7471 -1.0172
  128MOL0     C17207  11.244   6.717   2.486  0.1866 -0.2370 -0.8981
  128MOL0     C17208  11.384   6.745   2.439  0.1629  0.2184 -0.7058
  128MOL0     C17209  11.435   6.876   2.501  0.6769  0.2243 -0.0285
  128MOL0     C17210  11.460   6.974   2.563 -0.2062  0.6375 -0.3943
  128MOL0     C17211  10.756   6.671   2.565 -0.0260  0.7693 -0.7943
  128MOL0     C17212  10.632   6.641   2.615 -0.0703  0.5965 -0.5279
  128MOL0     H17213  10.178   6.726   2.558 -1.2962  2.8970  1.8258
  128MOL0     H17214   9.952   6.640   2.556 -0.8020 -1.9270 -0.1624
  128MOL0     H17215   9.867   6.306   2.731 -1.4579 -2.3795 -0.2449
  128MOL0     H17216   9.772   6.382   2.866 -1.0750  3.5419 -0.3414
  128MOL0     H17217   9.660   6.365   2.586 -0.7002 -1.0992 -0.9547
  128MOL0     H17218   9.649   6.229   2.694 -1.2477  0.7938 -1.6676
  128MOL0     H17219   9.528   6.385   2.865 -4.1958 -1.2628  0.2930
  128MOL0     H17220   9.566   6.516   2.771 -0.2799 -0.3502 -0.3278
  128MOL0     H17221   9.445   6.464   2.571 -0.3431 -0.7072 -0.3547
  128MOL0     H17222   9.386   6.314   2.665  0.4643 -0.1526  3.2730
  128MOL0     H17223   9.295   6.472   2.841  3.5437  0.9951 -0.5641
  128MOL0     H17224   9.351   6.601   2.757  0.0611 -0.0048  2.7862
  128MOL0     H17225   9.215   6.534   2.543  1.3002 -0.8905 -0.6194
  128MOL0     H17226   9.179   6.383   2.622 -1.1454 -0.8097  2.0796
  128MOL0     H17227   9.050   6.511   2.782 -1.4425 -3.5914 -2.0257
  128MOL0     H17228   9.051   6.661   2.666 -1.3978  0.1570  0.8466
  128MOL0     H17229   8.942   6.379   2.615  0.9365 -0.2035 -0.8267
  128MOL0     H17230   8.950   6.511   2.505  0.9633 -3.9364 -1.1526
  128MOL0     H17231   8.810   6.413   2.859 -0.3727 -1.1852 -0.5056
  128MOL0     H17232   8.602   6.464   2.982 -0.4974 -1.4367 -1.2017
  128MOL0     H17233   8.496   6.601   2.946 -2.0182 -0.7310  1.0145
  128MOL0     H17234   8.472   6.321   2.819 -2.8054 -0.5855  0.7314
  128MOL0     H17235   8.363   6.455   2.803  0.9001  0.0697  0.1884
  128MOL0     H17236   8.319   6.434   3.054  0.5709  0.6904  0.1049
  128MOL0     H17237   8.441   6.318   3.080  0.1990 -1.6212 -0.6897
  128MOL0     H17238   8.307   6.141   2.968  0.2107  0.0070  0.3917
  128MOL0     H17239   8.226   6.252   2.861  0.4485 -0.0524 -0.1781
  128MOL0     H17240   8.075   6.078   2.854  0.2505  0.7532  0.1953
  128MOL0     H17241   7.773   6.091   2.644  1.2738 -0.3719 -1.5651
  128MOL0     H17242   7.943   6.045   2.661  0.0301  2.7034  0.9931
  128MOL0     H17243   7.813   5.945   2.739 -1.4745  0.5402  0.9725
  128MOL0     H17244   7.410   6.180   2.657  0.8382  1.8400  0.4981
  128MOL0     H17245   7.168   6.141   2.630 -0.1510  1.7610 -0.1738
  128MOL0     H17246   6.905   6.125   3.002 -0.1621 -0.8442 -1.5556
  128MOL0     H17247   6.886   6.295   2.942  0.5211  0.5232 -0.3579
  128MOL0     H17248   6.740   6.196   2.757  1.5030  0.8256  0.5712
  128MOL0     H17249   6.719   6.056   2.865  0.8975 -0.7612  0.3888
  128MOL0     H17250   6.646   6.197   3.045 -0.0260 -2.1602 -0.5018
  128MOL0     H17251   6.541   6.166   2.903  0.1171 -3.6851  2.0537
  128MOL0     H17252   6.678   6.422   2.998 -1.1393 -0.1054 -0.6159
  128MOL0     H17253   6.664   6.404   2.825 -3.7649  2.7285 -0.9826
  128MOL0     H17254   6.492   6.534   2.898  1.7041 -0.9357 -1.1307
  128MOL0     H17255   6.446   6.449   3.041  0.5160  1.4418  0.3591
  128MOL0     H17256   6.403   6.335   2.756 -3.7462 -1.0967 -0.8650
  128MOL0     H17257   6.339   6.259   2.902  0.5681  0.3860  1.4733
  128MOL0     H17258   6.269   6.537   2.797  4.6062 -1.9708 -1.8196
  128MOL0     H17259   6.177   6.443   2.927  1.0317 -0.9784 -0.6282
  128MOL0     H17260   6.050   6.411   2.736  0.2764  3.5336 -3.1310
  128MOL0     H17261   6.157   6.269   2.731  1.1802  0.5704 -1.5265
  128MOL0     H17262   7.119   6.204   3.047 -2.4958 -1.0429 -1.4705
  128MOL0     H17263   7.361   6.236   3.072  0.4724  1.8976  0.4912
  128MOL0     H17264   7.711   6.311   3.073 -0.6655 -1.3646  0.8312
  128MOL0     H17265   7.936   6.347   3.148  3.0985 -1.9287  0.8473
  128MOL0     H17266  10.034   6.413   2.910 -1.1115  0.0648  0.0455
  128MOL0     H17267  10.269   6.465   2.882  0.9445 -1.5002 -1.3258
  128MOL0     H17268  10.707   6.690   2.953  1.2895  2.0386 -0.3507
  128MOL0     H17269  10.919   6.682   2.871  1.0321 -1.2754 -1.1424
  128MOL0     H17270  10.969   6.709   2.384  1.6021 -0.9871 -0.3982
  128MOL0     H17271  10.926   6.859   2.470  1.7397  0.8742  3.7829
  128MOL0     H17272  11.150   6.911   2.496  1.3197 -2.3704  1.4406
  128MOL0     H17273  11.157   6.838   2.329  1.8116 -1.3199 -0.9415
  128MOL0     H17274  11.215   6.618   2.450 -1.1460  0.2385 -1.1692
  128MOL0     H17275  11.246   6.711   2.595  2.2201  0.2395 -0.8649
  128MOL0     H17276  11.394   6.754   2.331 -0.0147 -2.2345 -0.9599
  128MOL0     H17277  11.451   6.664   2.468  0.3778 -0.3232 -2.6217
  128MOL0     H17278  11.469   7.062   2.625 -0.9991 -0.6778  1.6996
  128MOL0     H17279  10.769   6.677   2.457  2.1763 -0.3222 -0.6420
  128MOL0     H17280  10.551   6.612   2.549 -0.7470 -0.0935  0.5717
  129MOL0     O17281   9.867   3.588   1.479 -0.2863  0.1199  0.3260
  129MOL0     C17282   9.849   3.681   1.561 -0.5262  0.2599  1.3040
  129MOL0     O17283   9.725   3.733   1.592  0.3612 -0.0963  0.2899
  129MOL0     C17284   9.619   3.723   1.502 -0.1676  0.3333  0.6090
  129MOL0     C17285   9.641   3.739   1.364  0.7292  0.2389  0.5470
  129MOL0     C17286   9.536   3.726   1.278 -0.8415 -0.2201 -0.1465
  129MOL0     C17287   9.406   3.682   1.324 -0.3894  0.4375 -0.4995
  129MOL0     O17288   9.303   3.653   1.239  0.0177  0.3931 -0.5122
  129MOL0     C17289   9.194   3.747   1.235  0.0267 -0.4342  0.3235
  129MOL0     C17290   9.101   3.684   1.137  0.8820 -0.3075 -0.4224
  129MOL0     C17291   8.958   3.754   1.120  0.0047 -0.2594  0.4846
  129MOL0     C17292   8.854   3.657   1.066 -0.9442  0.4101  0.7671
  129MOL0     C17293   8.756   3.720   0.959  0.3468 -0.8396 -0.0687
  129MOL0     C17294   8.696   3.852   0.992  0.1933  0.4658  0.0936
  129MOL0     C17295   8.618   3.847   1.126 -0.2959 -0.5567  0.2453
  129MOL0     C17296   8.490   3.942   1.146  0.3115 -0.0426 -0.4918
  129MOL0     N17297   8.375   3.895   1.061 -0.0685 -0.5479  0.1860
  129MOL0     C17298   8.287   3.977   0.997 -0.1836 -0.0594 -0.5796
  129MOL0     C17299   8.205   3.891   0.930 -0.5538 -0.3111 -0.5386
  129MOL0     C17300   8.091   3.943   0.841 -0.1814 -0.1023 -0.0284
  129MOL0     C17301   8.033   3.838   0.745 -0.4908  0.1115  0.1883
  129MOL0     C17302   7.913   3.776   0.811 -0.2916  0.7483  0.1106
  129MOL0     C17303   7.855   3.645   0.750  0.3980  0.2036 -0.0080
  129MOL0     O17304   7.813   3.679   0.619  0.2861 -0.9489  1.0291
  129MOL0     C17305   7.690   3.738   0.594 -0.4712  0.0157  0.8981
  129MOL0     C17306   7.591   3.764   0.689 -0.2662 -0.1517 -0.4001
  129MOL0     C17307   7.473   3.812   0.663  0.6908 -0.1113  0.2748
  129MOL0     C17308   7.388   3.842   0.779  0.5990 -0.3912  0.2498
  129MOL0     C17309   7.434   3.829   0.529 -0.0451 -0.3745  1.3784
  129MOL0     C17310   7.293   3.887   0.484 -0.0344 -0.2163  0.2641
  129MOL0     O17311   7.246   3.829   0.378 -0.0532 -0.1483 -0.2569
  129MOL0     C17312   7.130   3.876   0.328  1.4122  0.1748  0.7847
  129MOL0     C17313   7.030   3.786   0.295  0.1775 -0.4071  0.0362
  129MOL0     C17314   6.910   3.837   0.233 -0.7736  0.2707  0.2216
  129MOL0     C17315   6.892   3.971   0.205  0.4207 -0.1014  0.3154
  129MOL0     O17316   6.775   4.013   0.148  0.2684  0.1976  0.5361
  129MOL0     C17317   6.644   3.955   0.186 -0.2466  0.4665 -0.2979
  129MOL0     C17318   6.525   4.014   0.108 -0.1807 -0.5723  0.0205
  129MOL0     C17319   6.518   4.169   0.100  0.7367 -0.0275 -0.0642
  129MOL0     C17320   6.514   4.251   0.229 -0.2570  0.4849 -0.7696
  129MOL0     C17321   6.523   4.397   0.196  0.6969  0.4876  0.6837
  129MOL0     C17322   6.510   4.486   0.319 -0.1321  0.9045  0.0216
  129MOL0     C17323   6.553   4.624   0.293 -0.1265 -0.3236  0.1399
  129MOL0     C17324   6.543   4.717   0.410 -0.5174  0.7655  0.8826
  129MOL0    Cl17325   6.370   4.751   0.472 -0.3457  0.4349 -0.2810
  129MOL0     C17326   6.996   4.063   0.217  0.1135  0.3166 -0.6722
  129MOL0     C17327   7.113   4.013   0.286 -0.3700  0.2913  0.4203
  129MOL0     O17328   7.231   3.973   0.551  0.0732  0.9590  0.0341
  129MOL0     C17329   7.532   3.801   0.429  1.8292  0.0071  0.7544
  129MOL0     C17330   7.660   3.762   0.462 -0.4827 -0.0043  0.0438
  129MOL0     N17331   8.242   3.759   0.967 -0.2282  0.5895 -0.1386
  129MOL0     N17332   8.342   3.762   1.048 -0.1310 -0.3289  0.2901
  129MOL0     C17333   9.394   3.655   1.462 -1.1026  1.0081  0.4326
  129MOL0     C17334   9.495   3.685   1.560 -0.3001  0.4619  0.0877
  129MOL0     C17335   9.966   3.730   1.630  0.5290 -0.1233  0.1364
  129MOL0     C17336  10.093   3.688   1.582  0.3290  0.3274 -0.9301
  129MOL0     C17337  10.208   3.722   1.651 -0.7015  0.2751  0.1592
  129MOL0     C17338  10.200   3.787   1.778  0.5294 -0.5621  0.5887
  129MOL0     O17339  10.299   3.813   1.860  0.4665 -0.2913 -0.5013
  129MOL0     C17340  10.439   3.773   1.816  0.5940  0.3375 -0.1603
  129MOL0     C17341  10.558   3.818   1.906  0.1342 -0.5815 -0.2511
  129MOL0     C17342  10.530   3.808   2.059 -0.1768 -0.1897  0.9222
  129MOL0     C17343  10.483   3.661   2.085 -0.0494 -0.1716 -0.5677
  129MOL0     C17344  10.463   3.654   2.227 -0.6462 -1.1575 -0.7670
  129MOL0     C17345  10.459   3.621   2.344 -0.5489 -0.0776 -0.1987
  129MOL0     C17346  10.070   3.826   1.820  0.8588 -0.1627  0.3203
  129MOL0     C17347   9.956   3.797   1.745 -0.1802 -0.6220 -0.0469
  129MOL0     H17348   9.741   3.751   1.322  0.2836  1.3083 -0.2734
  129MOL0     H17349   9.541   3.742   1.171 -0.3666 -0.3935 -0.1499
  129MOL0     H17350   9.139   3.751   1.329 -1.2593  3.9678 -0.3818
  129MOL0     H17351   9.232   3.848   1.214 -0.3454 -0.4170 -0.2899
  129MOL0     H17352   9.149   3.681   1.039  0.2180 -0.7880 -0.7474
  129MOL0     H17353   9.088   3.579   1.165  0.2544 -0.4554 -1.2280
  129MOL0     H17354   8.924   3.794   1.216  1.0517  0.6718  0.4863
  129MOL0     H17355   8.973   3.837   1.052  3.0757  1.8773  3.4394
  129MOL0     H17356   8.892   3.563   1.025 -0.6546  0.2725  1.3385
  129MOL0     H17357   8.797   3.628   1.155  1.3869 -0.8742  1.9161
  129MOL0     H17358   8.796   3.726   0.857 -1.4789 -0.3828 -0.8000
  129MOL0     H17359   8.674   3.648   0.950 -0.5821  0.1684  0.2827
  129MOL0     H17360   8.771   3.925   1.024  1.6177 -1.4324  1.3130
  129MOL0     H17361   8.629   3.882   0.911 -0.5274 -3.1552 -0.8439
  129MOL0     H17362   8.585   3.743   1.137  6.9607 -3.2992  1.7108
  129MOL0     H17363   8.684   3.876   1.208 -0.0156 -0.5420  0.0120
  129MOL0     H17364   8.519   4.046   1.128  3.4406 -1.3143 -4.4676
  129MOL0     H17365   8.468   3.917   1.250  2.1644 -0.5844 -0.1956
  129MOL0     H17366   8.287   4.085   0.988 -3.4324  0.0238 -1.1593
  129MOL0     H17367   8.016   3.978   0.912  1.4821  0.9323  1.3131
  129MOL0     H17368   8.127   4.023   0.775  1.7761 -1.2962 -0.5034
  129MOL0     H17369   8.105   3.765   0.706  0.1055  0.6545  0.2456
  129MOL0     H17370   7.998   3.898   0.661  0.1623  0.1581 -0.0608
  129MOL0     H17371   7.834   3.852   0.818 -0.8491  0.0610  2.2596
  129MOL0     H17372   7.950   3.768   0.914  1.0629  4.1527  0.0237
  129MOL0     H17373   7.782   3.606   0.821 -0.1662  1.2656  0.0016
  129MOL0     H17374   7.931   3.567   0.744  2.0715  1.8076 -0.5082
  129MOL0     H17375   7.610   3.749   0.794  1.4832  1.9858 -0.3379
  129MOL0     H17376   7.292   3.790   0.774  0.2998  0.2233 -0.6137
  129MOL0     H17377   7.437   3.808   0.871  0.3162 -1.6335 -0.0438
  129MOL0     H17378   7.372   3.950   0.789 -0.1684 -0.4544 -0.2488
  129MOL0     H17379   7.045   3.682   0.320  2.6527 -0.6210 -1.9373
  129MOL0     H17380   6.833   3.764   0.208  0.6528 -0.6699 -1.6770
  129MOL0     H17381   6.634   3.847   0.173  1.7775  0.4950 -2.8542
  129MOL0     H17382   6.631   3.967   0.294  1.4007 -1.7918  0.2186
  129MOL0     H17383   6.531   3.970   0.008 -2.0070 -1.4666  0.2570
  129MOL0     H17384   6.432   3.978   0.152  0.6744 -3.1950 -0.1603
  129MOL0     H17385   6.428   4.189   0.042  0.9510  1.7705  0.1604
  129MOL0     H17386   6.597   4.210   0.037  0.2604  2.3748  0.8150
  129MOL0     H17387   6.427   4.227   0.292  0.3939  3.1237  1.3114
  129MOL0     H17388   6.595   4.223   0.296 -2.9371  1.0220  3.0215
  129MOL0     H17389   6.442   4.421   0.126  0.0505  0.1779  1.3194
  129MOL0     H17390   6.614   4.414   0.137 -0.5818  1.2146 -1.2043
  129MOL0     H17391   6.407   4.482   0.357 -0.7403  1.8172 -1.4530
  129MOL0     H17392   6.569   4.439   0.398 -0.1525  2.3058  0.9148
  129MOL0     H17393   6.489   4.664   0.213  1.1147  1.4445 -0.0342
  129MOL0     H17394   6.660   4.632   0.271 -0.6776  2.8999 -2.1746
  129MOL0     H17395   6.586   4.817   0.395 -2.5757  1.5212 -0.4074
  129MOL0     H17396   6.598   4.674   0.493 -0.8402 -0.3839  0.5160
  129MOL0     H17397   6.973   4.166   0.194 -0.9588 -0.3250 -2.7200
  129MOL0     H17398   7.197   4.081   0.304 -0.6287  1.2988 -1.8249
  129MOL0     H17399   7.525   3.829   0.324  0.1052 -1.4557  0.4325
  129MOL0     H17400   7.737   3.755   0.386 -2.2579 -2.1106 -1.6668
  129MOL0     H17401   9.301   3.611   1.498  0.7785 -3.6315  0.3593
  129MOL0     H17402   9.475   3.658   1.664  2.3978  1.4400  0.9327
  129MOL0     H17403  10.095   3.649   1.481  0.8554  0.3136 -0.9146
  129MOL0     H17404  10.301   3.684   1.610  0.2871 -0.6705  2.9791
  129MOL0     H17405  10.449   3.666   1.797 -0.9522 -0.0093  0.7751
  129MOL0     H17406  10.468   3.822   1.723  0.6114  0.5215 -0.0598
  129MOL0     H17407  10.575   3.923   1.884 -1.5501 -0.6396 -2.1293
  129MOL0     H17408  10.653   3.764   1.892  1.7249  2.4846 -2.4432
  129MOL0     H17409  10.461   3.892   2.075  1.7610  1.6779 -0.0200
  129MOL0     H17410  10.606   3.838   2.131 -0.2769  1.4623  0.3884
  129MOL0     H17411  10.558   3.585   2.062 -0.2747 -1.3946  2.3240
  129MOL0     H17412  10.387   3.649   2.033 -1.5679  1.8288  1.5455
  129MOL0     H17413  10.451   3.583   2.444 -2.2362  1.0882  0.1460
  129MOL0     H17414  10.065   3.875   1.917  2.7386  2.4935 -0.7936
  129MOL0     H17415   9.861   3.822   1.792 -0.6828  0.4015 -1.5122
  130MOL0     O17416   5.499  10.968   6.768 -0.5199  0.2559 -0.7540
  130MOL0     C17417   5.560  10.982   6.664 -0.6993  0.0921  0.1232
  130MOL0     O17418   5.508  10.974   6.535  0.0233  0.1786 -0.0449
  130MOL0     C17419   5.385  10.907   6.533  0.1437 -0.8873 -0.2274
  130MOL0     C17420   5.362  10.770   6.531  0.5310  0.7404 -0.8426
  130MOL0     C17421   5.224  10.721   6.522 -0.1897 -0.3002 -0.1304
  130MOL0     C17422   5.116  10.805   6.542 -0.3761 -0.4307  0.8141
  130MOL0     O17423   4.988  10.760   6.563 -0.5973 -0.4267 -0.2877
  130MOL0     C17424   4.954  10.620   6.595 -0.4926  0.7866  0.6363
  130MOL0     C17425   4.809  10.606   6.582 -0.0916 -0.8966 -0.8196
  130MOL0     C17426   4.757  10.592   6.439 -0.6825 -0.3009  0.2575
  130MOL0     C17427   4.609  10.599   6.431  0.2143  0.5055  0.3721
  130MOL0     C17428   4.554  10.540   6.304  0.1575  0.4653 -0.1778
  130MOL0     C17429   4.405  10.550   6.277  0.2347  0.1005  0.0873
  130MOL0     C17430   4.327  10.467   6.382  0.2341 -0.6293  0.3933
  130MOL0     C17431   4.179  10.457   6.345  1.0412  1.1541 -0.0984
  130MOL0     N17432   4.109  10.579   6.363 -0.2901  0.5421  0.3389
  130MOL0     C17433   4.085  10.647   6.481  0.3421  1.0424 -0.1677
  130MOL0     C17434   4.040  10.770   6.448 -0.0933  0.0622 -0.8815
  130MOL0     C17435   4.015  10.881   6.546  0.4453  0.6172 -0.5486
  130MOL0     C17436   4.133  10.976   6.568  0.3629  0.4013 -0.5521
  130MOL0     C17437   4.127  11.020   6.714 -0.9269  0.4404  0.0556
  130MOL0     C17438   4.223  11.120   6.762 -0.0578  0.4319 -0.3038
  130MOL0     O17439   4.203  11.236   6.679  0.5711 -0.8891  0.1968
  130MOL0     C17440   4.295  11.342   6.680 -0.5757 -0.9517 -0.0217
  130MOL0     C17441   4.293  11.436   6.584 -0.5120 -0.2575 -0.5097
  130MOL0     C17442   4.388  11.542   6.577  0.3380  0.0701  0.0507
  130MOL0     C17443   4.367  11.647   6.476  0.4792  0.3668  0.1421
  130MOL0     C17444   4.493  11.546   6.670 -0.3956 -0.8278  0.5760
  130MOL0     C17445   4.613  11.642   6.658 -1.7235 -0.2011 -0.3827
  130MOL0     O17446   4.608  11.738   6.557 -0.2252  0.3194 -0.4538
  130MOL0     C17447   4.720  11.811   6.522  0.4497 -0.9438  0.3440
  130MOL0     C17448   4.688  11.942   6.477  0.5103 -0.2061 -0.4420
  130MOL0     C17449   4.789  12.038   6.444  0.2378  0.3007 -0.4652
  130MOL0     C17450   4.921  11.995   6.441 -0.7700  0.6015  0.0751
  130MOL0     O17451   5.018  12.081   6.401 -0.0304  0.0834 -0.4008
  130MOL0     C17452   5.012  12.134   6.272  0.0852 -0.1192  0.0608
  130MOL0     C17453   5.145  12.216   6.243 -0.7298 -1.2177 -0.5542
  130MOL0     C17454   5.268  12.127   6.214  0.1770 -0.2934 -0.3585
  130MOL0     C17455   5.400  12.207   6.207 -0.4451 -0.1461  0.2279
  130MOL0     C17456   5.425  12.308   6.087 -0.3317  0.4849 -0.2308
  130MOL0     C17457   5.570  12.357   6.063 -0.0253 -0.1915  0.0660
  130MOL0     C17458   5.668  12.247   6.065 -0.4413  0.8617  0.0194
  130MOL0     C17459   5.641  12.136   5.966  0.3906  0.2190  0.1758
  130MOL0    Cl17460   5.582  12.196   5.809 -0.3062 -0.0089  0.3547
  130MOL0     C17461   4.951  11.868   6.488 -0.4987  0.0568  0.3101
  130MOL0     C17462   4.851  11.776   6.529  0.0898 -0.4203 -0.4041
  130MOL0     O17463   4.703  11.629   6.747 -0.1368 -0.3259 -0.6531
  130MOL0     C17464   4.485  11.448   6.769  0.0565 -0.1923  0.1089
  130MOL0     C17465   4.382  11.352   6.786 -1.1833  0.2773  0.2208
  130MOL0     N17466   4.041  10.782   6.309  0.1708 -0.4189 -0.4305
  130MOL0     N17467   4.073  10.667   6.259 -0.1014 -0.4490 -0.1928
  130MOL0     C17468   5.148  10.939   6.564 -0.5066 -0.5266 -0.2177
  130MOL0     C17469   5.274  10.988   6.543  0.4680 -0.1748  0.7272
  130MOL0     C17470   5.706  11.009   6.665 -0.2369 -0.5984  0.5427
  130MOL0     C17471   5.783  10.984   6.550  0.2443  0.0466  0.4905
  130MOL0     C17472   5.922  11.017   6.544 -0.5202  0.1289 -0.6568
  130MOL0     C17473   5.989  11.071   6.651  0.3034 -0.3870 -0.5362
  130MOL0     O17474   6.121  11.108   6.632  0.9721  0.0768 -0.0645
  130MOL0     C17475   6.189  11.182   6.738  0.0782 -0.6818 -0.7646
  130MOL0     C17476   6.246  11.104   6.861  0.0447  0.6881  0.3988
  130MOL0     C17477   6.345  11.180   6.951  0.2980 -0.3525 -0.0494
  130MOL0     C17478   6.490  11.198   6.895 -0.2842 -0.1567 -1.3910
  130MOL0     C17479   6.564  11.296   6.984  0.3293 -0.5434 -0.0242
  130MOL0     C17480   6.634  11.378   7.048 -0.1579 -0.9813 -0.8485
  130MOL0     C17481   5.908  11.095   6.772 -0.8186 -0.3001 -0.1666
  130MOL0     C17482   5.767  11.066   6.772  0.5307  0.0688 -0.3272
  130MOL0     H17483   5.447  10.703   6.533 -0.3138 -0.3567 -1.0323
  130MOL0     H17484   5.209  10.614   6.521 -0.1993 -0.3038  0.2517
  130MOL0     H17485   5.003  10.548   6.529 -0.0532  2.5295 -1.0134
  130MOL0     H17486   4.969  10.588   6.699 -1.4904 -2.3079 -0.0656
  130MOL0     H17487   4.771  10.527   6.648 -0.0408  1.7673  2.6719
  130MOL0     H17488   4.760  10.694   6.622 -1.7145 -1.7820 -0.7743
  130MOL0     H17489   4.807  10.672   6.384 -0.6987 -0.6958 -0.3466
  130MOL0     H17490   4.795  10.497   6.399 -2.5875 -0.9942  0.0238
  130MOL0     H17491   4.571  10.529   6.506  1.7410 -1.8808 -0.9660
  130MOL0     H17492   4.572  10.699   6.457  1.8872  0.6924  2.2344
  130MOL0     H17493   4.605  10.594   6.224  0.1813 -0.3819 -0.7475
  130MOL0     H17494   4.589  10.437   6.295 -2.8410 -0.4984 -3.6559
  130MOL0     H17495   4.365  10.651   6.282  0.0736  0.3739 -3.8364
  130MOL0     H17496   4.379  10.514   6.177 -0.3138 -1.3507  0.7208
  130MOL0     H17497   4.375  10.369   6.385  1.5516 -0.0233  0.1353
  130MOL0     H17498   4.328  10.510   6.483 -0.4878 -0.3565  0.2876
  130MOL0     H17499   4.133  10.376   6.403  1.8167  0.7350 -0.0521
  130MOL0     H17500   4.175  10.423   6.240 -0.1145  2.3127 -0.4538
  130MOL0     H17501   4.110  10.607   6.578  2.7253  1.1749 -0.6721
  130MOL0     H17502   3.933  10.944   6.509 -1.7104 -0.8525  1.4659
  130MOL0     H17503   3.970  10.827   6.629  0.3161 -1.0393 -1.6417
  130MOL0     H17504   4.133  11.061   6.499  2.7408 -0.5790 -1.8646
  130MOL0     H17505   4.226  10.920   6.559  0.0287 -0.2527  0.0301
  130MOL0     H17506   4.137  10.931   6.775  1.4567  1.7415  1.7118
  130MOL0     H17507   4.029  11.064   6.737 -0.1818  1.7321  0.8875
  130MOL0     H17508   4.321  11.072   6.749 -0.6812 -0.8340 -0.4668
  130MOL0     H17509   4.198  11.135   6.868  0.0648 -0.3738 -0.1544
  130MOL0     H17510   4.216  11.424   6.509 -1.4446 -1.2604  0.5758
  130MOL0     H17511   4.273  11.631   6.422  1.3047 -0.7398 -1.0169
  130MOL0     H17512   4.370  11.748   6.518 -1.7520  1.5832 -2.3381
  130MOL0     H17513   4.441  11.651   6.396 -0.9293  1.6475 -1.1743
  130MOL0     H17514   4.587  11.983   6.471  0.6636  0.5003  1.2797
  130MOL0     H17515   4.756  12.137   6.415 -1.6190 -0.1115  0.1302
  130MOL0     H17516   4.993  12.056   6.196 -3.6644  1.0907 -0.4197
  130MOL0     H17517   4.924  12.198   6.272 -1.4506 -2.1043  1.3671
  130MOL0     H17518   5.121  12.276   6.155 -1.6385  0.8661  1.0361
  130MOL0     H17519   5.170  12.284   6.325 -0.4469  0.1147 -1.7227
  130MOL0     H17520   5.256  12.082   6.116  1.0623  1.6446 -1.4117
  130MOL0     H17521   5.274  12.045   6.287 -1.2686 -0.1911 -0.1072
  130MOL0     H17522   5.416  12.269   6.296  0.6312  0.1009 -0.1256
  130MOL0     H17523   5.476  12.128   6.201 -0.4041 -0.0551 -0.5961
  130MOL0     H17524   5.359  12.393   6.109 -0.2236  0.2703  0.9571
  130MOL0     H17525   5.383  12.270   5.993 -0.6757  1.5069 -0.5141
  130MOL0     H17526   5.577  12.406   5.966 -2.0656  1.8312  0.8497
  130MOL0     H17527   5.606  12.427   6.139  0.5371  0.4289 -0.7638
  130MOL0     H17528   5.682  12.212   6.167  0.5081 -0.4233 -0.5197
  130MOL0     H17529   5.760  12.288   6.022  0.0484 -0.3295 -0.1128
  130MOL0     H17530   5.568  12.069   6.013 -0.2589  1.0330  0.3568
  130MOL0     H17531   5.736  12.083   5.954 -0.4686 -1.4003  0.1124
  130MOL0     H17532   5.052  11.830   6.489 -1.0164 -1.4712  2.2284
  130MOL0     H17533   4.873  11.676   6.566 -1.6034 -0.9286 -0.6646
  130MOL0     H17534   4.562  11.459   6.844  1.4833  0.2724 -1.3586
  130MOL0     H17535   4.368  11.286   6.871  1.1731  1.1968  1.4290
  130MOL0     H17536   5.066  11.002   6.594 -0.8264 -1.8184  1.8168
  130MOL0     H17537   5.295  11.094   6.545 -1.5881  0.3673 -1.8882
  130MOL0     H17538   5.743  10.929   6.466 -0.7446  1.1369  0.2362
  130MOL0     H17539   5.975  10.991   6.453 -2.2893 -1.0225 -1.4110
  130MOL0     H17540   6.282  11.221   6.695  0.5167  0.0150  0.7586
  130MOL0     H17541   6.128  11.265   6.773  0.8122  0.6943 -2.5819
  130MOL0     H17542   6.293  11.013   6.823 -3.8592 -1.8153  0.9391
  130MOL0     H17543   6.165  11.056   6.918  1.7742 -2.3407  0.5150
  130MOL0     H17544   6.349  11.121   7.043 -0.0039 -0.3559 -0.0369
  130MOL0     H17545   6.308  11.280   6.973  1.4797  0.6013 -2.0596
  130MOL0     H17546   6.466  11.232   6.794 -1.3789 -1.4169 -1.5920
  130MOL0     H17547   6.543  11.104   6.878 -0.2736 -0.4464  0.1396
  130MOL0     H17548   6.704  11.445   7.094  3.0950 -3.3774 -1.8893
  130MOL0     H17549   5.953  11.148   6.855  0.3422 -0.5455 -0.6185
  130MOL0     H17550   5.710  11.083   6.863  2.2512 -1.3430  1.1072
  131MOL0     O17551  10.617   6.227   0.262  0.1868 -0.2515  0.7625
  131MOL0     C17552  10.698   6.133   0.278  0.4512  0.3021  0.6298
  131MOL0     O17553  10.697   6.030   0.204 -0.4139  0.3936  1.0317
  131MOL0     C17554  10.587   5.976   0.145  0.5730 -1.3070 -0.2437
  131MOL0     C17555  10.456   5.981   0.197  0.6355  1.1085  0.4849
  131MOL0     C17556  10.349   5.917   0.125  0.8983  0.4431  0.5315
  131MOL0     C17557  10.374   5.846   0.005 -0.5711 -0.1882  0.4583
  131MOL0     O17558  10.255   5.805  -0.050  0.0916 -0.3914 -0.7458
  131MOL0     C17559  10.267   5.723  -0.166  0.1100 -0.0015 -0.1968
  131MOL0     C17560  10.124   5.708  -0.220  0.3213 -0.0391  0.6671
  131MOL0     C17561  10.123   5.640  -0.356  0.0002 -0.0425 -0.4366
  131MOL0     C17562   9.988   5.567  -0.385 -1.0529 -0.0567 -0.4256
  131MOL0     C17563   9.930   5.590  -0.518  0.0870  0.5015 -0.1154
  131MOL0     C17564   9.783   5.555  -0.506 -0.0103 -0.1815  0.7429
  131MOL0     C17565   9.716   5.554  -0.636 -0.7635  0.9377  0.3362
  131MOL0     C17566   9.568   5.539  -0.627  0.1300  0.2915 -0.2367
  131MOL0     N17567   9.505   5.497  -0.747  0.6725  0.0282  1.0559
  131MOL0     C17568   9.462   5.579  -0.852  0.1106 -0.7077  0.2747
  131MOL0     C17569   9.384   5.501  -0.929  0.2242 -0.2967  0.0120
  131MOL0     C17570   9.320   5.549  -1.060  0.3450  0.8746 -0.3086
  131MOL0     C17571   9.228   5.674  -1.047 -0.2113  0.3260 -0.6647
  131MOL0     C17572   9.090   5.624  -0.987 -0.8402  0.2023  0.2478
  131MOL0     C17573   9.002   5.737  -0.934 -0.1250 -0.0603  0.5772
  131MOL0     O17574   8.940   5.809  -1.045  0.3406  0.0343 -0.2262
  131MOL0     C17575   8.817   5.865  -1.031 -0.2317 -0.0828  0.8116
  131MOL0     C17576   8.715   5.817  -0.955 -0.0169 -0.6062  0.0019
  131MOL0     C17577   8.603   5.895  -0.927  1.0997 -0.7455  0.0082
  131MOL0     C17578   8.488   5.855  -0.834  0.2553  0.6863 -0.9102
  131MOL0     C17579   8.596   6.015  -0.996  0.1273 -0.2845 -0.1731
  131MOL0     C17580   8.475   6.094  -0.979  0.0350 -0.0430 -0.6217
  131MOL0     O17581   8.430   6.149  -1.092 -0.0190 -0.1102  0.0258
  131MOL0     C17582   8.326   6.229  -1.089 -0.0653 -0.0668  0.3864
  131MOL0     C17583   8.327   6.352  -1.020  1.2808  0.5594  0.3813
  131MOL0     C17584   8.215   6.432  -1.015  0.7925  0.6792 -0.6996
  131MOL0     C17585   8.099   6.400  -1.094 -0.2631 -0.3649 -0.6895
  131MOL0     O17586   7.999   6.493  -1.118  0.0246 -1.3652 -0.2792
  131MOL0     C17587   7.871   6.434  -1.152  0.0162 -0.0639 -0.9421
  131MOL0     C17588   7.778   6.550  -1.155 -0.3424 -0.0541 -0.8261
  131MOL0     C17589   7.650   6.510  -1.231  0.0075  0.2185 -0.1551
  131MOL0     C17590   7.539   6.608  -1.238  0.5914 -0.5338  0.1198
  131MOL0     C17591   7.436   6.560  -1.348  0.7784  0.6992  0.1336
  131MOL0     C17592   7.291   6.600  -1.341  0.0255 -1.5487  0.6047
  131MOL0     C17593   7.239   6.617  -1.488  0.3317  0.2909 -0.4059
  131MOL0     C17594   7.246   6.479  -1.562  0.5354  1.2084  0.3327
  131MOL0    Cl17595   7.156   6.368  -1.465  0.0516  0.0928 -0.2739
  131MOL0     C17596   8.108   6.274  -1.163 -0.0637  0.5075  0.0508
  131MOL0     C17597   8.216   6.195  -1.164  0.4371  0.7882 -0.1814
  131MOL0     O17598   8.437   6.120  -0.865  0.0436 -0.1460 -0.0811
  131MOL0     C17599   8.698   6.058  -1.083 -0.3448 -0.1778  0.1999
  131MOL0     C17600   8.807   5.986  -1.102 -0.5711 -0.2002 -0.1533
  131MOL0     N17601   9.372   5.381  -0.869  0.2099 -0.0051 -0.2730
  131MOL0     N17602   9.447   5.375  -0.763 -0.2361  0.5204  0.2104
  131MOL0     C17603  10.507   5.833  -0.042  1.0642  0.6756  0.1503
  131MOL0     C17604  10.612   5.894   0.030 -0.1472 -0.4340  0.1930
  131MOL0     C17605  10.817   6.147   0.361  0.6268  0.2257  0.2120
  131MOL0     C17606  10.899   6.033   0.400 -1.0188 -0.8272  0.5157
  131MOL0     C17607  11.014   6.054   0.484 -1.0134 -0.5918  0.6167
  131MOL0     C17608  11.047   6.188   0.520 -0.5008  0.7820 -0.2621
  131MOL0     O17609  11.165   6.208   0.597 -0.2911 -0.4778  0.2419
  131MOL0     C17610  11.283   6.204   0.519 -0.5591  0.1180  0.3690
  131MOL0     C17611  11.403   6.240   0.622  0.0766  0.2479  0.5862
  131MOL0     C17612  11.532   6.266   0.542  1.0143 -0.6702  0.2754
  131MOL0     C17613  11.655   6.294   0.629  0.0831  0.6784 -0.0187
  131MOL0     C17614  11.635   6.430   0.682 -0.4484 -0.6172 -0.1457
  131MOL0     C17615  11.613   6.540   0.727  0.6331  0.4359  0.5749
  131MOL0     C17616  10.971   6.298   0.480  0.2587  0.8021 -0.3529
  131MOL0     C17617  10.856   6.279   0.399 -0.4016  0.5314 -0.6583
  131MOL0     H17618  10.431   6.043   0.282  0.6276  1.0815  0.5022
  131MOL0     H17619  10.245   5.924   0.155  0.8583 -0.9005  0.7919
  131MOL0     H17620  10.343   5.776  -0.224  1.8124  0.6651  2.4332
  131MOL0     H17621  10.303   5.621  -0.147  0.4005  0.2495  0.6601
  131MOL0     H17622  10.079   5.634  -0.153  1.3391 -2.5657 -1.2910
  131MOL0     H17623  10.076   5.805  -0.238  2.7822  1.3120  0.8758
  131MOL0     H17624  10.163   5.705  -0.434  3.6866 -0.6432  0.7657
  131MOL0     H17625  10.193   5.557  -0.347  0.6112  0.6085  1.1738
  131MOL0     H17626  10.002   5.460  -0.365  0.6025 -0.0678 -1.4147
  131MOL0     H17627   9.914   5.606  -0.315  0.6323  0.7903  0.9548
  131MOL0     H17628   9.941   5.696  -0.543  0.0762  0.8443  1.2511
  131MOL0     H17629   9.979   5.537  -0.601  0.7371  0.2416  0.4289
  131MOL0     H17630   9.778   5.461  -0.451  2.5344 -0.3223  0.8534
  131MOL0     H17631   9.741   5.633  -0.441  2.8123  0.5338  1.8226
  131MOL0     H17632   9.740   5.642  -0.696  1.3921  0.1538 -0.0560
  131MOL0     H17633   9.758   5.468  -0.691 -0.8020 -1.1050  3.2833
  131MOL0     H17634   9.529   5.631  -0.584 -0.0539  0.3577 -0.5465
  131MOL0     H17635   9.535   5.461  -0.557 -0.4242  1.2798  0.6253
  131MOL0     H17636   9.495   5.681  -0.874  1.9164 -1.6991 -2.0218
  131MOL0     H17637   9.401   5.567  -1.131  3.0735  0.7077  2.5196
  131MOL0     H17638   9.254   5.474  -1.104  1.5745 -0.8939  0.7465
  131MOL0     H17639   9.205   5.727  -1.140 -1.1607  1.2329  0.0670
  131MOL0     H17640   9.270   5.748  -0.979 -0.2957  3.2011 -3.5295
  131MOL0     H17641   9.109   5.554  -0.905 -0.8817  0.6972  0.6887
  131MOL0     H17642   9.052   5.553  -1.060  3.2771  0.4780 -2.5199
  131MOL0     H17643   9.072   5.800  -0.879  1.8878  0.0769 -1.9480
  131MOL0     H17644   8.932   5.696  -0.860  0.8455 -2.4848  0.2390
  131MOL0     H17645   8.722   5.725  -0.899  0.1726 -0.0099  0.9943
  131MOL0     H17646   8.482   5.925  -0.751 -0.2689  0.9856 -1.1977
  131MOL0     H17647   8.392   5.859  -0.886 -0.3695 -3.8065 -0.4993
  131MOL0     H17648   8.489   5.752  -0.797 -2.7527  1.5506  2.0035
  131MOL0     H17649   8.416   6.373  -0.962 -0.9449 -0.1176  4.3754
  131MOL0     H17650   8.221   6.520  -0.951  3.1197  0.9355 -1.1758
  131MOL0     H17651   7.876   6.382  -1.248  0.8838  2.1681 -2.1894
  131MOL0     H17652   7.849   6.364  -1.071 -0.7193 -1.5458 -2.3671
  131MOL0     H17653   7.757   6.588  -1.054 -1.1093 -0.7551 -0.7056
  131MOL0     H17654   7.827   6.632  -1.207  0.5351  0.1683  0.2931
  131MOL0     H17655   7.617   6.413  -1.195  2.2389 -0.3630  0.5244
  131MOL0     H17656   7.687   6.501  -1.334  0.8328  0.4829  0.1113
  131MOL0     H17657   7.483   6.616  -1.145 -1.4500 -1.3549 -0.9726
  131MOL0     H17658   7.583   6.708  -1.247 -2.1373  0.6225 -1.8139
  131MOL0     H17659   7.443   6.451  -1.355 -3.3483  0.2158  0.9229
  131MOL0     H17660   7.477   6.600  -1.441 -0.2219 -0.7357 -0.9498
  131MOL0     H17661   7.239   6.521  -1.285  0.2338 -1.6788  0.6144
  131MOL0     H17662   7.287   6.697  -1.290 -1.8016 -2.2313  1.8732
  131MOL0     H17663   7.300   6.693  -1.538  1.0735  1.0149  1.4783
  131MOL0     H17664   7.138   6.659  -1.486 -0.5516 -1.6412 -1.7182
  131MOL0     H17665   7.351   6.451  -1.578 -0.4887 -2.5045 -1.0142
  131MOL0     H17666   7.197   6.477  -1.660  0.1694 -1.2154  0.4957
  131MOL0     H17667   8.024   6.249  -1.227  0.5726  1.2811 -1.1141
  131MOL0     H17668   8.210   6.099  -1.216  1.9740  0.5474  0.0194
  131MOL0     H17669   8.684   6.149  -1.140 -1.3774 -0.7744 -0.5198
  131MOL0     H17670   8.888   6.019  -1.167 -0.2397 -0.9834 -0.1557
  131MOL0     H17671  10.537   5.786  -0.136 -0.1600  2.2814 -1.1064
  131MOL0     H17672  10.716   5.887   0.000  0.3153 -1.1076  1.8574
  131MOL0     H17673  10.872   5.931   0.377  0.1602 -1.7383  2.8867
  131MOL0     H17674  11.079   5.971   0.510  3.0044  0.9277 -3.3098
  131MOL0     H17675  11.292   6.105   0.473 -0.5867 -0.7578  2.1715
  131MOL0     H17676  11.274   6.270   0.432 -1.0996 -2.3591 -1.5625
  131MOL0     H17677  11.411   6.160   0.696 -0.9364 -0.2606  0.1690
  131MOL0     H17678  11.363   6.330   0.670 -1.7791 -1.1019  1.7056
  131MOL0     H17679  11.521   6.350   0.473 -0.2300 -0.1665  1.0362
  131MOL0     H17680  11.558   6.174   0.488  1.8074 -0.0658 -0.3836
  131MOL0     H17681  11.753   6.278   0.582 -0.6722 -2.5428 -0.7201
  131MOL0     H17682  11.652   6.225   0.714 -1.5709 -0.3481 -0.8759
  131MOL0     H17683  11.590   6.642   0.747 -0.4324  0.4814 -0.7118
  131MOL0     H17684  11.016   6.390   0.515  0.9787  0.4647 -0.3844
  131MOL0     H17685  10.810   6.371   0.363 -2.2380 -0.2632 -0.4947
  132MOL0     O17686   6.956   3.216   6.371  0.7053 -0.6983  0.1320
  132MOL0     C17687   7.036   3.153   6.301  0.3409  0.7738  0.3418
  132MOL0     O17688   7.024   3.140   6.164 -0.4384 -0.2395 -0.0300
  132MOL0     C17689   6.914   3.188   6.108  0.6240 -0.7301  0.1559
  132MOL0     C17690   6.806   3.092   6.085 -1.3325 -1.0920 -0.4813
  132MOL0     C17691   6.691   3.132   6.022  0.2493 -0.0773 -0.1869
  132MOL0     C17692   6.670   3.266   5.981 -0.7821  0.0624 -0.3779
  132MOL0     O17693   6.552   3.300   5.922  0.2158  0.2069 -0.8297
  132MOL0     C17694   6.524   3.436   5.885  0.4186 -0.2464  0.0217
  132MOL0     C17695   6.377   3.439   5.834  0.7769 -0.2120  0.1761
  132MOL0     C17696   6.311   3.581   5.828 -0.1770  0.7537 -0.2030
  132MOL0     C17697   6.171   3.574   5.761  0.0770 -0.3839  0.5527
  132MOL0     C17698   6.096   3.705   5.773 -0.1872 -0.0940  1.0108
  132MOL0     C17699   5.969   3.709   5.684 -0.3473  0.3375 -0.2980
  132MOL0     C17700   5.922   3.854   5.654  0.7674  0.1917  0.6183
  132MOL0     C17701   5.789   3.861   5.578 -0.4105  0.5073 -0.5740
  132MOL0     N17702   5.673   3.809   5.658 -0.3822  0.3117  0.0462
  132MOL0     C17703   5.574   3.880   5.716  0.4718  0.2620  0.0133
  132MOL0     C17704   5.505   3.785   5.785 -0.3096 -0.2490  0.5219
  132MOL0     C17705   5.378   3.823   5.864  0.2504 -0.2213 -0.1366
  132MOL0     C17706   5.398   3.869   6.009 -0.4252  0.2475  0.1016
  132MOL0     C17707   5.477   3.772   6.111  0.8419 -0.7849 -0.9643
  132MOL0     C17708   5.388   3.661   6.176 -0.4462 -0.6962  0.4216
  132MOL0     O17709   5.252   3.704   6.203  0.2067  0.5824  0.7319
  132MOL0     C17710   5.135   3.672   6.127  0.0540  0.1191 -0.6123
  132MOL0     C17711   5.024   3.737   6.154  1.0874  0.5281  0.5194
  132MOL0     C17712   4.902   3.728   6.081 -0.1244  0.4165  0.4772
  132MOL0     C17713   4.794   3.815   6.139 -0.4339 -0.4253 -0.1000
  132MOL0     C17714   4.881   3.629   5.981 -0.5692  0.3569  0.6405
  132MOL0     C17715   4.749   3.588   5.922 -0.6463  0.3243  0.1404
  132MOL0     O17716   4.746   3.473   5.847 -0.1086 -0.0740  0.1682
  132MOL0     C17717   4.625   3.424   5.790  0.3804 -0.9187 -0.3197
  132MOL0     C17718   4.587   3.480   5.670 -0.2311  0.5265 -0.4891
  132MOL0     C17719   4.479   3.425   5.612  0.4465  0.2761  0.0167
  132MOL0     C17720   4.403   3.313   5.662 -0.7404  0.5997 -0.4289
  132MOL0     O17721   4.301   3.240   5.605  0.3576  0.5225  0.2274
  132MOL0     C17722   4.232   3.309   5.499  0.7253  0.0940  0.8123
  132MOL0     C17723   4.108   3.234   5.474  0.0727 -0.2642 -0.2474
  132MOL0     C17724   4.019   3.251   5.603 -0.5733  0.1450  0.8113
  132MOL0     C17725   3.898   3.159   5.598  0.3727  0.2230 -0.9372
  132MOL0     C17726   3.828   3.132   5.736  0.1955 -0.2267  0.5630
  132MOL0     C17727   3.740   3.011   5.738 -0.2009 -0.2751  0.3167
  132MOL0     C17728   3.705   2.966   5.874  0.2398 -0.3836 -0.0376
  132MOL0     C17729   3.572   2.893   5.883 -0.7966  0.1229 -1.2784
  132MOL0    Cl17730   3.545   2.776   5.745 -0.0454 -0.2387  0.1986
  132MOL0     C17731   4.443   3.270   5.791 -1.0210 -0.9996  0.3912
  132MOL0     C17732   4.548   3.327   5.858  0.3348 -0.6973  0.1925
  132MOL0     O17733   4.651   3.664   5.931  0.1045  0.5847  0.1623
  132MOL0     C17734   5.000   3.562   5.954 -0.2463 -0.5957  0.6666
  132MOL0     C17735   5.125   3.585   6.019 -0.6158  0.3904  0.4507
  132MOL0     N17736   5.552   3.656   5.759  0.3187  0.1051  0.0915
  132MOL0     N17737   5.656   3.674   5.691  1.0804  0.0270  0.6118
  132MOL0     C17738   6.773   3.357   6.010 -0.1485  0.3620  0.3079
  132MOL0     C17739   6.899   3.316   6.069  0.2110  0.7486  0.8536
  132MOL0     C17740   7.157   3.096   6.367 -0.1589 -0.4943  0.1037
  132MOL0     C17741   7.274   3.057   6.297 -0.6077 -1.1002  0.2220
  132MOL0     C17742   7.385   3.000   6.352 -0.0087 -0.5655 -0.4822
  132MOL0     C17743   7.391   2.997   6.491  0.4406  0.4393 -0.7066
  132MOL0     O17744   7.496   2.939   6.551 -0.1335 -0.1542  0.1707
  132MOL0     C17745   7.500   2.917   6.691  0.1466 -0.2676  0.2894
  132MOL0     C17746   7.611   2.832   6.743 -0.0565 -0.6364 -0.3565
  132MOL0     C17747   7.730   2.912   6.707 -0.4244 -0.1006 -0.3673
  132MOL0     C17748   7.865   2.868   6.775 -0.4427 -0.4814  1.0397
  132MOL0     C17749   7.875   2.910   6.916 -0.5508  0.2777  0.0354
  132MOL0     C17750   7.886   2.978   7.019 -0.0917 -0.9613 -0.1122
  132MOL0     C17751   7.279   3.046   6.570 -0.7001 -0.8975 -0.5619
  132MOL0     C17752   7.169   3.092   6.503  0.1930 -0.0434 -0.1845
  132MOL0     H17753   6.809   2.988   6.117 -1.2832 -0.6194  1.1353
  132MOL0     H17754   6.619   3.057   5.989  0.3798  0.7794 -2.7025
  132MOL0     H17755   6.537   3.510   5.965  1.4341 -3.4389  3.0891
  132MOL0     H17756   6.590   3.456   5.800 -1.2018  1.5383 -0.8899
  132MOL0     H17757   6.363   3.383   5.741 -1.3327  2.4924 -1.3081
  132MOL0     H17758   6.324   3.381   5.910  2.6958  0.1491  1.8695
  132MOL0     H17759   6.308   3.606   5.934  1.4220 -2.4353  0.7015
  132MOL0     H17760   6.377   3.657   5.784  1.0927  1.2140  2.3176
  132MOL0     H17761   6.198   3.543   5.659  2.8114 -0.9975  1.3991
  132MOL0     H17762   6.109   3.493   5.799 -2.8956 -0.6242 -4.0022
  132MOL0     H17763   6.066   3.714   5.878 -0.9956  2.6173  0.6382
  132MOL0     H17764   6.150   3.794   5.738 -2.6791  1.3714  0.6282
  132MOL0     H17765   5.984   3.657   5.589 -0.1787  1.1829 -0.7449
  132MOL0     H17766   5.898   3.658   5.750  2.1075 -1.5500  1.0368
  132MOL0     H17767   5.914   3.918   5.743  2.4125 -0.1291  1.0145
  132MOL0     H17768   5.990   3.905   5.586 -0.1852  0.4641 -0.1639
  132MOL0     H17769   5.808   3.803   5.488 -1.8275 -1.4739  0.3224
  132MOL0     H17770   5.768   3.966   5.558  0.4087  0.9039  0.5575
  132MOL0     H17771   5.551   3.984   5.695  1.9643  1.6551  4.1817
  132MOL0     H17772   5.331   3.899   5.801 -1.4178 -2.6802 -2.0952
  132MOL0     H17773   5.316   3.734   5.876  0.7048 -0.3628  1.3317
  132MOL0     H17774   5.305   3.905   6.055  0.4978 -0.5852  2.8039
  132MOL0     H17775   5.464   3.955   6.010  0.7836 -0.6501  1.2779
  132MOL0     H17776   5.514   3.828   6.198 -0.3695  0.2934 -1.1141
  132MOL0     H17777   5.556   3.720   6.056  1.6186 -0.9334  0.2495
  132MOL0     H17778   5.438   3.638   6.270 -1.5909 -0.6085  1.0731
  132MOL0     H17779   5.384   3.576   6.106 -3.1286 -0.2779 -0.0565
  132MOL0     H17780   5.021   3.802   6.241  1.0547  0.7149  0.3814
  132MOL0     H17781   4.835   3.879   6.217 -1.3928 -1.7930  1.5884
  132MOL0     H17782   4.745   3.884   6.069 -0.3802 -0.8559 -0.5668
  132MOL0     H17783   4.703   3.766   6.175  0.2111 -0.3829  1.6613
  132MOL0     H17784   4.637   3.569   5.634 -1.0930  0.7223 -1.2607
  132MOL0     H17785   4.454   3.457   5.511 -1.2317  0.3584  0.4319
  132MOL0     H17786   4.213   3.415   5.518  2.0121  0.4511  0.1841
  132MOL0     H17787   4.290   3.282   5.410 -2.2037 -1.8281 -0.7037
  132MOL0     H17788   4.059   3.267   5.382  3.5436 -2.7179 -3.2637
  132MOL0     H17789   4.145   3.134   5.452  1.0056  0.1198 -0.4854
  132MOL0     H17790   3.971   3.349   5.612 -2.4602 -0.6133 -0.3098
  132MOL0     H17791   4.086   3.232   5.687 -0.2150  1.8690  0.9435
  132MOL0     H17792   3.829   3.204   5.527  0.5998  0.2203 -1.1638
  132MOL0     H17793   3.931   3.061   5.561  1.0438  0.2589 -0.4658
  132MOL0     H17794   3.769   3.218   5.771  0.9182 -0.4548  2.4940
  132MOL0     H17795   3.906   3.129   5.813  0.0989 -2.2473  0.6456
  132MOL0     H17796   3.651   3.031   5.678  0.9612  2.2211 -0.7225
  132MOL0     H17797   3.783   2.919   5.696 -2.3254 -1.4205  0.5290
  132MOL0     H17798   3.702   3.050   5.945  0.4352  0.5836 -1.1440
  132MOL0     H17799   3.784   2.906   5.920  0.9074  1.0051  0.6937
  132MOL0     H17800   3.494   2.969   5.885 -0.0662  0.9120  0.8720
  132MOL0     H17801   3.567   2.831   5.973 -0.2407 -0.6247 -1.7512
  132MOL0     H17802   4.389   3.192   5.844  3.5391 -2.4486  3.4576
  132MOL0     H17803   4.581   3.290   5.955  0.4225 -1.1697 -0.0151
  132MOL0     H17804   4.982   3.492   5.873 -3.4856  0.3921  0.4024
  132MOL0     H17805   5.213   3.530   5.986  0.1294  1.8130  0.0119
  132MOL0     H17806   6.774   3.463   5.990 -0.7805  1.0973  3.6081
  132MOL0     H17807   6.985   3.374   6.103  0.4321 -0.4649  2.5061
  132MOL0     H17808   7.265   3.060   6.189  0.0365  0.7124  0.1815
  132MOL0     H17809   7.458   2.957   6.285  0.1359 -1.7301  0.4074
  132MOL0     H17810   7.492   3.016   6.738 -2.3750  0.0437 -0.6189
  132MOL0     H17811   7.409   2.858   6.703 -0.5104  0.8222  0.8649
  132MOL0     H17812   7.599   2.729   6.708  0.9813 -0.8538 -0.1223
  132MOL0     H17813   7.594   2.832   6.851 -3.2113  1.4869 -0.7239
  132MOL0     H17814   7.717   3.010   6.753  0.2089 -0.0266 -0.3454
  132MOL0     H17815   7.742   2.914   6.598 -1.0550 -3.3013 -0.6151
  132MOL0     H17816   7.945   2.919   6.720 -2.4613  0.3500 -1.3415
  132MOL0     H17817   7.891   2.764   6.755  2.8996  0.6356 -1.4533
  132MOL0     H17818   7.892   3.048   7.100  2.4525  2.3700 -2.8178
  132MOL0     H17819   7.282   3.062   6.677  1.6665  1.1938 -0.8590
  132MOL0     H17820   7.088   3.134   6.561  0.8243 -1.5097  1.9113
  133MOL0     O17821   8.391   0.864   9.219 -0.4230  0.1804 -0.0425
  133MOL0     C17822   8.478   0.939   9.169  1.0546  0.7827  0.0358
  133MOL0     O17823   8.459   1.055   9.106 -0.4769  0.3443 -0.2867
  133MOL0     C17824   8.339   1.120   9.111  0.1948  0.4773  0.4022
  133MOL0     C17825   8.315   1.236   9.188 -0.8528  1.2267 -0.2834
  133MOL0     C17826   8.190   1.297   9.195 -0.1338 -0.4112 -0.6536
  133MOL0     C17827   8.086   1.261   9.112 -0.1065 -0.4790  0.0992
  133MOL0     O17828   7.966   1.324   9.125  0.4879  0.2609  0.0875
  133MOL0     C17829   7.847   1.280   9.044 -0.7190  0.4738 -0.1761
  133MOL0     C17830   7.727   1.359   9.103  0.0937  0.5766 -0.2455
  133MOL0     C17831   7.595   1.285   9.078  0.1287  0.0311 -0.0022
  133MOL0     C17832   7.563   1.271   8.935 -0.1579 -0.0778  0.1074
  133MOL0     C17833   7.518   1.400   8.873 -0.0496  0.0892 -0.4007
  133MOL0     C17834   7.612   1.447   8.754  1.1465 -0.0273  0.3153
  133MOL0     C17835   7.599   1.377   8.620 -0.0327  0.2363 -0.0829
  133MOL0     C17836   7.490   1.428   8.522 -0.4402  0.0566  0.0396
  133MOL0     N17837   7.358   1.439   8.586 -0.4853 -0.6195 -0.0249
  133MOL0     C17838   7.265   1.334   8.596  0.4615 -0.3622  0.1351
  133MOL0     C17839   7.161   1.385   8.669  0.1133 -0.9587 -0.0167
  133MOL0     C17840   7.040   1.302   8.726 -0.3806 -0.5921  0.5257
  133MOL0     C17841   6.963   1.243   8.605 -0.2459 -1.0033  0.3940
  133MOL0     C17842   6.875   1.359   8.540 -0.1309  0.0284 -0.4075
  133MOL0     C17843   6.785   1.317   8.429  0.2346  0.5167 -0.0553
  133MOL0     O17844   6.698   1.213   8.477 -0.8826  0.3664 -0.4098
  133MOL0     C17845   6.584   1.192   8.407  0.3320 -0.3858  0.2448
  133MOL0     C17846   6.472   1.147   8.475 -0.0275  0.4291 -0.1133
  133MOL0     C17847   6.348   1.116   8.417 -0.0955  1.1159 -0.3125
  133MOL0     C17848   6.236   1.046   8.503 -0.6754  0.3441  1.3322
  133MOL0     C17849   6.339   1.137   8.281 -1.1297 -0.3243  0.2992
  133MOL0     C17850   6.199   1.114   8.210 -0.7842  0.2477 -0.7487
  133MOL0     O17851   6.088   1.135   8.295 -0.2737 -0.5330  0.2046
  133MOL0     C17852   5.963   1.130   8.252  0.4203  0.7900 -0.6211
  133MOL0     C17853   5.869   1.128   8.351  0.9182  0.1961  0.0664
  133MOL0     C17854   5.730   1.109   8.322 -0.5890  0.0434 -1.1311
  133MOL0     C17855   5.690   1.098   8.192 -0.3584  0.3521  0.4809
  133MOL0     O17856   5.553   1.074   8.176 -0.0505 -0.1987 -0.0868
  133MOL0     C17857   5.522   0.969   8.081 -0.4194  0.1402 -1.1306
  133MOL0     C17858   5.363   0.963   8.075 -0.8432  0.6091 -0.0468
  133MOL0     C17859   5.308   0.835   8.008  0.6807  0.2960  0.9175
  133MOL0     C17860   5.159   0.848   7.962  0.2220 -0.2103 -0.1463
  133MOL0     C17861   5.063   0.782   8.071 -0.1280  0.2637 -0.4458
  133MOL0     C17862   4.912   0.799   8.039 -0.3130  1.0889  0.5549
  133MOL0     C17863   4.867   0.749   7.897  0.3167  0.1813  0.0092
  133MOL0     C17864   4.713   0.774   7.885 -0.6779  0.6302  0.0870
  133MOL0    Cl17865   4.608   0.648   7.959 -0.2718  0.1453 -0.0333
  133MOL0     C17866   5.781   1.107   8.085  0.7275  0.6291  0.1221
  133MOL0     C17867   5.919   1.119   8.121  0.9331  0.2502  0.2912
  133MOL0     O17868   6.195   1.089   8.090 -0.8105  0.3248  0.1387
  133MOL0     C17869   6.444   1.196   8.201  1.0973  0.5839 -0.2725
  133MOL0     C17870   6.572   1.216   8.263  0.4250 -0.0519 -0.3579
  133MOL0     N17871   7.191   1.515   8.699 -0.6532  0.3474 -0.1978
  133MOL0     N17872   7.310   1.541   8.656  0.4941  0.1169 -0.1991
  133MOL0     C17873   8.112   1.152   9.023  0.1284 -0.2884 -0.2479
  133MOL0     C17874   8.234   1.085   9.032 -0.4137 -0.1275 -0.0876
  133MOL0     C17875   8.614   0.890   9.157  0.4276 -0.4502  0.7759
  133MOL0     C17876   8.709   0.951   9.077 -0.1196 -0.2180 -0.2808
  133MOL0     C17877   8.834   0.901   9.067 -0.2725  0.6971  0.7291
  133MOL0     C17878   8.878   0.791   9.148 -1.0101 -0.5280 -0.1007
  133MOL0     O17879   9.009   0.765   9.181  0.9059  0.0904  0.4570
  133MOL0     C17880   9.110   0.816   9.098  0.5231  0.4446  0.6316
  133MOL0     C17881   9.249   0.783   9.141  0.2511  0.3135 -0.4903
  133MOL0     C17882   9.342   0.870   9.059  0.2726 -0.3501 -0.7643
  133MOL0     C17883   9.362   0.838   8.917 -0.0841  0.1782  0.2856
  133MOL0     C17884   9.467   0.927   8.856  0.1420 -0.6925 -0.6696
  133MOL0     C17885   9.560   1.001   8.819  1.2650  1.0004 -0.0145
  133MOL0     C17886   8.786   0.732   9.229  0.5460 -0.4013  0.2874
  133MOL0     C17887   8.660   0.783   9.239  0.0887 -0.7327 -0.2503
  133MOL0     H17888   8.399   1.268   9.249 -1.8260  1.3949  1.0226
  133MOL0     H17889   8.178   1.380   9.264 -1.2934  0.3877 -1.7706
  133MOL0     H17890   7.864   1.310   8.940 -0.2759  2.8343  0.5032
  133MOL0     H17891   7.832   1.172   9.033  1.9989 -0.0413  0.6556
  133MOL0     H17892   7.749   1.370   9.210 -0.3833  0.3894 -0.1245
  133MOL0     H17893   7.721   1.459   9.060 -0.0582  0.6742 -0.0023
  133MOL0     H17894   7.604   1.185   9.122 -1.7282 -0.3325 -0.3314
  133MOL0     H17895   7.508   1.329   9.130 -1.7872 -0.8395 -2.2969
  133MOL0     H17896   7.655   1.230   8.893 -0.7442 -3.4215  1.7326
  133MOL0     H17897   7.485   1.195   8.930 -0.5538  0.3277  0.0244
  133MOL0     H17898   7.416   1.380   8.840 -0.2146 -3.0329  1.5864
  133MOL0     H17899   7.523   1.482   8.945 -1.6957 -0.3411  0.2543
  133MOL0     H17900   7.577   1.548   8.727 -1.8828 -0.8526  0.8280
  133MOL0     H17901   7.715   1.442   8.789  1.1397  2.3248  0.8878
  133MOL0     H17902   7.698   1.378   8.573 -0.2852 -3.3831 -0.9850
  133MOL0     H17903   7.579   1.270   8.634  4.1625 -0.8607 -1.1624
  133MOL0     H17904   7.487   1.373   8.428  2.2755 -0.0517 -0.0877
  133MOL0     H17905   7.517   1.526   8.482 -0.6764 -0.0987 -0.5046
  133MOL0     H17906   7.276   1.236   8.551 -0.1611  0.5142 -2.0449
  133MOL0     H17907   7.077   1.221   8.789 -1.0070 -0.4791  1.0549
  133MOL0     H17908   6.978   1.362   8.793  0.6114  0.2567  0.7094
  133MOL0     H17909   6.895   1.169   8.648 -0.0666 -1.1747  0.3839
  133MOL0     H17910   7.024   1.192   8.530 -0.2285 -1.4237  0.6980
  133MOL0     H17911   6.941   1.436   8.499  0.0797 -0.5323 -1.1371
  133MOL0     H17912   6.823   1.402   8.626  3.6688  0.1654  2.0955
  133MOL0     H17913   6.838   1.289   8.338 -2.6431  0.9964 -1.9731
  133MOL0     H17914   6.733   1.408   8.397 -3.4508 -2.0409 -1.9588
  133MOL0     H17915   6.489   1.133   8.582  0.9776 -1.0929 -0.4346
  133MOL0     H17916   6.192   0.968   8.441 -0.4759  1.8052 -0.7763
  133MOL0     H17917   6.282   0.999   8.591  1.4654 -0.2036  0.0097
  133MOL0     H17918   6.152   1.113   8.523 -1.9624 -0.6368 -0.5006
  133MOL0     H17919   5.901   1.126   8.454 -1.6553  2.3753  1.0480
  133MOL0     H17920   5.659   1.095   8.402 -1.3941  0.9913 -1.6630
  133MOL0     H17921   5.565   1.003   7.986  1.4947  2.4675  0.4606
  133MOL0     H17922   5.567   0.877   8.120  0.0413  0.9810  0.4016
  133MOL0     H17923   5.313   0.975   8.172 -0.1354 -0.9595  0.5492
  133MOL0     H17924   5.332   1.054   8.022  1.2852  1.8265  0.6757
  133MOL0     H17925   5.324   0.752   8.077  0.7562  1.0816  1.8568
  133MOL0     H17926   5.361   0.823   7.913 -0.8961 -1.4143  0.1883
  133MOL0     H17927   5.141   0.954   7.945 -0.1622 -0.0237  1.2746
  133MOL0     H17928   5.138   0.793   7.870 -0.2571 -1.9710  0.9697
  133MOL0     H17929   5.079   0.812   8.175 -1.4502 -2.9010  0.7735
  133MOL0     H17930   5.082   0.674   8.070 -0.5872  0.1861 -0.7514
  133MOL0     H17931   4.854   0.749   8.117  3.4365 -2.6490  1.3038
  133MOL0     H17932   4.887   0.903   8.059 -1.4622  0.6990  1.2136
  133MOL0     H17933   4.890   0.643   7.886  1.4229  0.4197 -0.0883
  133MOL0     H17934   4.927   0.804   7.824  0.8469  1.9190  1.6635
  133MOL0     H17935   4.693   0.787   7.778  1.6015  1.3976 -0.2969
  133MOL0     H17936   4.680   0.861   7.943 -0.2710 -0.4855  2.0781
  133MOL0     H17937   5.752   1.135   7.985  0.2944  1.1160  0.3827
  133MOL0     H17938   5.986   1.133   8.037  2.8804  2.1529  2.0782
  133MOL0     H17939   6.419   1.220   8.098 -2.9311 -1.4899  0.0277
  133MOL0     H17940   6.648   1.257   8.197  1.0776 -1.5126 -0.5527
  133MOL0     H17941   8.041   1.101   8.960 -1.4662  2.4703 -0.8581
  133MOL0     H17942   8.251   0.990   8.983  1.5473  0.2391 -0.1965
  133MOL0     H17943   8.675   1.036   9.020  0.8408 -0.4261 -1.2046
  133MOL0     H17944   8.911   0.949   9.008 -0.4442 -0.0240 -0.1186
  133MOL0     H17945   9.100   0.781   8.995  1.0231 -0.4513  0.8781
  133MOL0     H17946   9.100   0.925   9.103  2.2897  0.6107  1.1982
  133MOL0     H17947   9.273   0.677   9.125  0.8304  0.1816  1.0716
  133MOL0     H17948   9.261   0.815   9.245  1.6794  2.2796 -1.1948
  133MOL0     H17949   9.438   0.872   9.113 -0.9925  3.1649  1.7708
  133MOL0     H17950   9.301   0.971   9.046 -1.9346 -1.2187 -0.8899
  133MOL0     H17951   9.269   0.854   8.861 -0.0272  0.8083  0.3645
  133MOL0     H17952   9.390   0.732   8.911 -0.2806  0.0490  1.4710
  133MOL0     H17953   9.638   1.068   8.789  3.1388 -0.6450  0.8985
  133MOL0     H17954   8.810   0.640   9.281  0.8029 -0.3244  0.3054
  133MOL0     H17955   8.581   0.723   9.283 -1.7878 -1.8911 -4.6498
  134MOL0     O17956   7.498   9.858   9.806  0.4263  0.0570 -0.2217
  134MOL0     C17957   7.550   9.845   9.917 -0.5568 -0.6722 -0.1351
  134MOL0     O17958   7.481   9.801  10.028 -0.5763 -0.2378 -0.1695
  134MOL0     C17959   7.349   9.757  10.023 -0.3461  0.2643  0.6144
  134MOL0     C17960   7.245   9.853  10.022 -0.4675  0.4544  0.8521
  134MOL0     C17961   7.113   9.797  10.026  0.3531 -0.1093  0.4844
  134MOL0     C17962   7.077   9.666  10.017 -0.1590  0.0487 -0.1566
  134MOL0     O17963   6.952   9.609  10.024  0.4295 -0.9272  0.1507
  134MOL0     C17964   6.840   9.705  10.018  0.4193  0.0844 -0.7176
  134MOL0     C17965   6.700   9.640   9.987 -0.4980  0.7270  0.7403
  134MOL0     C17966   6.678   9.530  10.092  0.3363 -1.2724  0.4734
  134MOL0     C17967   6.559   9.438  10.053 -0.5520 -0.1167 -0.8040
  134MOL0     C17968   6.556   9.343  10.180  0.6083  0.0314 -0.2420
  134MOL0     C17969   6.488   9.392  10.317  0.5766 -0.0316  0.0262
  134MOL0     C17970   6.476   9.289  10.430  0.3531  0.4147 -0.4107
  134MOL0     C17971   6.378   9.168  10.404  0.5320 -0.0850 -0.2463
  134MOL0     N17972   6.235   9.211  10.388 -0.6370 -0.6411 -0.2654
  134MOL0     C17973   6.189   9.263  10.270 -0.0105 -0.0219  0.7502
  134MOL0     C17974   6.070   9.323  10.300  0.3945  0.1052  0.3173
  134MOL0     C17975   5.962   9.390  10.219  0.3651  0.4396 -0.1647
  134MOL0     C17976   5.857   9.285  10.175 -0.7552 -0.5596 -0.7781
  134MOL0     C17977   5.727   9.353  10.128 -0.0520  0.6625 -0.1875
  134MOL0     C17978   5.620   9.251  10.088  1.1548 -0.3915 -0.9275
  134MOL0     O17979   5.619   9.193   9.954 -0.0813  0.0924  0.3090
  134MOL0     C17980   5.510   9.149   9.889  0.0554  0.3115  0.4322
  134MOL0     C17981   5.375   9.203   9.910  0.3361  0.8350  0.2114
  134MOL0     C17982   5.266   9.171   9.830 -0.1323 -0.1558  0.0107
  134MOL0     C17983   5.144   9.245   9.851  0.6547 -0.3150  0.1562
  134MOL0     C17984   5.280   9.075   9.718  0.7296 -1.3219  0.1803
  134MOL0     C17985   5.166   9.036   9.634  0.5181 -0.4367  0.3160
  134MOL0     O17986   5.197   9.006   9.506  0.0925 -0.6892 -0.5838
  134MOL0     C17987   5.114   8.949   9.415  0.2820 -1.0698  0.0167
  134MOL0     C17988   5.154   8.825   9.358  0.3338 -0.8325  0.8460
  134MOL0     C17989   5.062   8.765   9.263  0.2859 -0.2304 -0.2163
  134MOL0     C17990   4.933   8.809   9.239 -0.8368  0.7574 -0.6268
  134MOL0     O17991   4.848   8.728   9.173  0.7576  0.2223  0.1086
  134MOL0     C17992   4.715   8.781   9.168 -0.5242 -0.0342  0.0726
  134MOL0     C17993   4.611   8.677   9.149 -0.0518  1.0129  0.1124
  134MOL0     C17994   4.541   8.650   9.282  0.1564  0.3578  0.8731
  134MOL0     C17995   4.423   8.559   9.247  0.2000  0.8058  0.7639
  134MOL0     C17996   4.320   8.550   9.362  0.4611 -0.2805  0.0896
  134MOL0     C17997   4.375   8.493   9.501  0.7255  0.4394 -0.8118
  134MOL0     C17998   4.450   8.359   9.493  0.4548  0.0619 -0.7336
  134MOL0     C17999   4.390   8.249   9.405  0.0050  0.1291  0.8844
  134MOL0    Cl18000   4.222   8.205   9.454  0.5269 -0.0845 -0.1090
  134MOL0     C18001   4.902   8.944   9.297 -0.2235 -0.0297 -0.1203
  134MOL0     C18002   4.986   9.005   9.390  0.5004 -1.2606  0.7130
  134MOL0     O18003   5.062   9.012   9.692  0.2703 -0.0198  0.1037
  134MOL0     C18004   5.409   9.032   9.699  0.1431 -1.1808  0.1335
  134MOL0     C18005   5.526   9.060   9.781  0.7567  0.1423 -0.3537
  134MOL0     N18006   6.043   9.302  10.438  0.5548  0.3964 -0.5901
  134MOL0     N18007   6.143   9.234  10.487  0.0772  0.3798  0.2175
  134MOL0     C18008   7.184   9.568  10.010  0.3514  0.3624  0.1531
  134MOL0     C18009   7.318   9.615  10.013 -0.3821  0.3528  0.2127
  134MOL0     C18010   7.687   9.887   9.932  0.4287  0.7874 -0.2619
  134MOL0     C18011   7.743   9.895  10.054 -0.2327  0.2139 -0.0655
  134MOL0     C18012   7.876   9.932  10.068  0.0014  0.0589 -0.4284
  134MOL0     C18013   7.956   9.953   9.956  0.4014  0.0671  0.1985
  134MOL0     O18014   8.094   9.991   9.956  0.2898  0.0768  0.1808
  134MOL0     C18015   8.150  10.039  10.076  0.0125  0.3479  0.0761
  134MOL0     C18016   8.293  10.087  10.055 -0.0126  0.8788 -0.7013
  134MOL0     C18017   8.375   9.972   9.994 -0.5387  0.1420  0.1753
  134MOL0     C18018   8.418   9.975   9.847  0.1031 -0.1816 -0.1517
  134MOL0     C18019   8.503  10.086   9.805  0.0247  1.0575  0.4434
  134MOL0     C18020   8.583  10.168   9.773 -0.7990 -0.1413  0.3667
  134MOL0     C18021   7.902   9.936   9.831  0.3163  1.0794  0.8428
  134MOL0     C18022   7.766   9.904   9.817  0.1019  0.6819  0.8183
  134MOL0     H18023   7.283   9.953  10.004  1.3671 -0.3230  0.1652
  134MOL0     H18024   7.036   9.873  10.030 -0.8229 -1.1675 -0.8642
  134MOL0     H18025   6.840   9.749  10.117  1.5152 -0.6476 -0.3653
  134MOL0     H18026   6.852   9.788   9.948 -1.0408  2.1657  1.3625
  134MOL0     H18027   6.633   9.727   9.983 -2.1533 -0.4956  0.4492
  134MOL0     H18028   6.711   9.589   9.891 -2.9899 -2.7848  2.0891
  134MOL0     H18029   6.764   9.462  10.095  0.7293 -1.0323 -2.4425
  134MOL0     H18030   6.654   9.563  10.194 -1.3795  1.3421 -0.6857
  134MOL0     H18031   6.458   9.477  10.040 -0.1940  0.6126 -1.4888
  134MOL0     H18032   6.577   9.372   9.967 -0.6477 -2.0026  0.5638
  134MOL0     H18033   6.496   9.254  10.158  4.5020 -3.0730  0.4486
  134MOL0     H18034   6.654   9.296  10.195 -0.4929 -1.9377  1.3729
  134MOL0     H18035   6.541   9.473  10.367  1.9843 -0.4518 -0.6873
  134MOL0     H18036   6.387   9.426  10.292  0.9556 -0.0274 -1.6206
  134MOL0     H18037   6.574   9.256  10.466 -0.2390 -0.6043  0.3173
  134MOL0     H18038   6.422   9.344  10.508  0.9339  0.0999  0.2193
  134MOL0     H18039   6.376   9.111  10.498  0.7050  1.7081  0.8960
  134MOL0     H18040   6.413   9.107  10.320 -0.0220 -0.0382 -0.5190
  134MOL0     H18041   6.238   9.257  10.173  0.0231  3.8205  0.3925
  134MOL0     H18042   5.906   9.471  10.267 -1.5079 -0.1589 -1.2691
  134MOL0     H18043   6.004   9.428  10.126 -3.9721  2.1753 -1.6468
  134MOL0     H18044   5.830   9.228  10.265  0.2870 -0.1598 -0.1969
  134MOL0     H18045   5.895   9.217  10.098 -0.5909  1.4358 -2.5719
  134MOL0     H18046   5.745   9.420  10.043 -1.8334 -1.0511 -2.0572
  134MOL0     H18047   5.694   9.408  10.216 -0.9185 -1.0724  0.6244
  134MOL0     H18048   5.521   9.297  10.103  0.8478 -0.7099 -1.8819
  134MOL0     H18049   5.615   9.176  10.168  0.2098  2.3637  1.7993
  134MOL0     H18050   5.353   9.281   9.982 -1.6731  0.8733 -0.3866
  134MOL0     H18051   5.109   9.281   9.754 -1.1473 -0.3548  0.7662
  134MOL0     H18052   5.074   9.175   9.897  2.3500 -0.2782  3.0002
  134MOL0     H18053   5.161   9.318   9.931  3.8634 -0.1393 -0.5297
  134MOL0     H18054   5.249   8.776   9.372 -0.1154 -1.2173  2.7993
  134MOL0     H18055   5.089   8.679   9.203 -2.3132 -1.2371 -0.0427
  134MOL0     H18056   4.682   8.839   9.255 -0.9765 -1.4698  0.8943
  134MOL0     H18057   4.710   8.847   9.081  4.3447  1.9314  0.9628
  134MOL0     H18058   4.540   8.714   9.074 -1.5635 -3.2282 -0.7964
  134MOL0     H18059   4.648   8.582   9.109 -2.7006  0.2021 -0.5743
  134MOL0     H18060   4.499   8.745   9.315 -2.6548 -0.4606 -0.1155
  134MOL0     H18061   4.625   8.609   9.339  3.1585  2.1867 -1.8298
  134MOL0     H18062   4.371   8.596   9.159  2.2959 -0.8720 -1.2939
  134MOL0     H18063   4.460   8.457   9.231  0.0904  1.0284 -1.0401
  134MOL0     H18064   4.241   8.484   9.325  1.6287 -1.8377  0.2820
  134MOL0     H18065   4.275   8.649   9.374  0.1692 -0.2698 -0.9756
  134MOL0     H18066   4.443   8.573   9.532 -0.1480  0.9905 -0.2736
  134MOL0     H18067   4.296   8.495   9.578  3.4429 -0.0823  2.2048
  134MOL0     H18068   4.472   8.313   9.590 -0.6905 -0.7250 -0.8277
  134MOL0     H18069   4.551   8.386   9.463  0.8720  0.5247  0.9888
  134MOL0     H18070   4.463   8.167   9.402  1.0620  1.0536  0.7990
  134MOL0     H18071   4.382   8.265   9.297  1.8039  0.0253  0.6959
  134MOL0     H18072   4.807   8.994   9.281  0.2783  1.7737  2.0982
  134MOL0     H18073   4.944   9.094   9.434  1.8120 -1.3942  2.3312
  134MOL0     H18074   5.418   8.965   9.614 -3.7925 -0.0251 -1.4237
  134MOL0     H18075   5.621   9.014   9.756  0.1377 -2.0917  1.1323
  134MOL0     H18076   7.147   9.466  10.010 -2.6771  1.3443  1.6018
  134MOL0     H18077   7.401   9.546  10.007  0.1357  1.0477 -0.8943
  134MOL0     H18078   7.678   9.878  10.139 -2.3211 -1.0642 -1.8234
  134MOL0     H18079   7.907   9.948  10.171 -2.3259  0.9956  0.1944
  134MOL0     H18080   8.094  10.123  10.117  0.5779 -0.4554  2.7173
  134MOL0     H18081   8.141   9.960  10.152  1.1752  0.0238 -0.1042
  134MOL0     H18082   8.327  10.107  10.157 -0.0579  1.5322 -0.8096
  134MOL0     H18083   8.296  10.179   9.996 -0.0781  0.9606 -0.5775
  134MOL0     H18084   8.326   9.877  10.019 -0.3815  0.1467  0.5033
  134MOL0     H18085   8.459   9.975  10.063  0.0651 -1.4030 -0.4519
  134MOL0     H18086   8.330   9.979   9.782 -0.7366  0.9084  1.0337
  134MOL0     H18087   8.466   9.881   9.817 -1.6632 -1.2812  0.3366
  134MOL0     H18088   8.641  10.251   9.738  0.5895 -1.1466  0.1747
  134MOL0     H18089   7.954   9.954   9.738 -0.1933  0.3117  0.3994
  134MOL0     H18090   7.725   9.896   9.716 -1.6665  1.1216  1.4670
  135MOL0     O18091   0.847   6.156   0.570 -0.0115  0.9480  0.0432
  135MOL0     C18092   0.884   6.041   0.551  0.0056 -0.0656 -0.4606
  135MOL0     O18093   0.818   5.946   0.481  0.2877 -1.2164 -0.6769
  135MOL0     C18094   0.693   5.983   0.428 -0.3324 -0.1545 -1.1066
  135MOL0     C18095   0.671   5.955   0.290 -0.6158 -0.3178 -0.3411
  135MOL0     C18096   0.548   5.977   0.235  0.1873 -0.2839 -0.1929
  135MOL0     C18097   0.436   6.009   0.313 -0.3463 -0.2751 -0.9949
  135MOL0     O18098   0.302   6.013   0.279 -0.1443  0.5562  0.1472
  135MOL0     C18099   0.272   5.979   0.136  0.3878  0.6136  0.6026
  135MOL0     C18100   0.125   6.010   0.104 -0.2831  0.7479 -0.5441
  135MOL0     C18101   0.089   6.142   0.034  0.1938 -0.8957 -0.7307
  135MOL0     C18102   0.080   6.266   0.134  0.6182 -0.4034  0.6450
  135MOL0     C18103   0.101   6.398   0.056  0.8280 -0.9515 -0.6740
  135MOL0     C18104   0.019   6.521   0.111 -0.3911 -0.0808 -0.5490
  135MOL0     C18105   0.011   6.523   0.260  0.2274  1.1095 -0.3969
  135MOL0     C18106  -0.015   6.666   0.313  0.2567  0.4331 -0.6405
  135MOL0     N18107  -0.014   6.674   0.462  0.7850  0.2580  0.4651
  135MOL0     C18108  -0.084   6.593   0.553  0.7176  0.2538 -0.4958
  135MOL0     C18109  -0.075   6.659   0.671  0.4746  0.7560  0.2378
  135MOL0     C18110  -0.136   6.599   0.799  0.2880 -0.1445 -0.2166
  135MOL0     C18111  -0.289   6.580   0.793 -0.5990 -0.7379 -0.2883
  135MOL0     C18112  -0.360   6.718   0.822  0.5323  0.1720 -0.4753
  135MOL0     C18113  -0.504   6.674   0.855  0.3224  0.0378  0.0355
  135MOL0     O18114  -0.593   6.789   0.857 -0.1833  0.0602 -0.0834
  135MOL0     C18115  -0.720   6.751   0.871 -0.2250  0.1607 -0.7679
  135MOL0     C18116  -0.776   6.722   0.996 -0.0925 -0.0856  0.3041
  135MOL0     C18117  -0.911   6.697   1.008  0.1703  0.5810  0.2010
  135MOL0     C18118  -0.959   6.657   1.146 -0.6194  0.4819  0.1752
  135MOL0     C18119  -0.993   6.714   0.893  1.0987  0.6675  0.3324
  135MOL0     C18120  -1.147   6.705   0.887  0.8172 -0.1824 -0.4710
  135MOL0     O18121  -1.216   6.799   0.806 -0.0562  0.3382  0.0136
  135MOL0     C18122  -1.349   6.790   0.765 -0.3026 -1.0552  0.4024
  135MOL0     C18123  -1.424   6.674   0.756 -0.1763 -0.4790 -0.4059
  135MOL0     C18124  -1.548   6.670   0.702  0.8028 -0.3400 -0.2438
  135MOL0     C18125  -1.607   6.785   0.646 -1.0296 -0.2503 -0.2431
  135MOL0     O18126  -1.733   6.771   0.594  0.0425 -0.3412 -0.0608
  135MOL0     C18127  -1.821   6.885   0.598 -0.1615  0.0036 -0.5792
  135MOL0     C18128  -1.970   6.839   0.589  0.5619  0.0609  0.2590
  135MOL0     C18129  -2.016   6.751   0.467 -0.2497 -0.9065  0.3517
  135MOL0     C18130  -2.173   6.733   0.461  0.4836  0.8915 -0.2232
  135MOL0     C18131  -2.213   6.602   0.396  0.3400 -0.5959 -0.3851
  135MOL0     C18132  -2.368   6.577   0.408 -0.4452  0.4674 -0.3904
  135MOL0     C18133  -2.452   6.674   0.324 -0.3421 -0.0367 -0.8589
  135MOL0     C18134  -2.601   6.616   0.336 -0.0684  0.1835 -0.2036
  135MOL0    Cl18135  -2.646   6.528   0.194 -0.1127  0.0210 -0.1162
  135MOL0     C18136  -1.541   6.907   0.657  0.0314  0.1965  0.5445
  135MOL0     C18137  -1.411   6.906   0.715 -0.5538 -0.2753  0.2538
  135MOL0     O18138  -1.203   6.624   0.958  0.2833  0.1098 -0.0299
  135MOL0     C18139  -0.944   6.772   0.774 -0.5279  0.3103  0.3113
  135MOL0     C18140  -0.801   6.781   0.760  0.8876  0.5223  0.3817
  135MOL0     N18141  -0.006   6.777   0.656 -0.0357 -0.2062 -0.0163
  135MOL0     N18142   0.038   6.780   0.533 -0.0695 -0.5457 -0.0935
  135MOL0     C18143   0.455   6.028   0.450 -0.0359  0.0397  0.3159
  135MOL0     C18144   0.580   6.010   0.506  0.5381 -0.3439 -0.5498
  135MOL0     C18145   1.023   5.994   0.603  0.0346 -0.7803  0.9635
  135MOL0     C18146   1.061   5.860   0.629  0.0284  0.0075 -0.8386
  135MOL0     C18147   1.181   5.825   0.672 -0.3741 -0.0785  0.6255
  135MOL0     C18148   1.281   5.921   0.672  0.0082  0.3860 -0.8941
  135MOL0     O18149   1.413   5.899   0.707 -0.8193 -0.3038  0.0325
  135MOL0     C18150   1.453   5.769   0.712  0.5911  0.1421  0.2344
  135MOL0     C18151   1.601   5.758   0.678  0.1464  0.5008  0.4357
  135MOL0     C18152   1.701   5.819   0.778 -0.1703 -0.0452 -0.4962
  135MOL0     C18153   1.714   5.756   0.914 -0.3961 -0.0810 -0.3399
  135MOL0     C18154   1.616   5.807   1.006 -1.0909  0.6222 -0.9367
  135MOL0     C18155   1.546   5.836   1.099  1.0104 -0.5683  0.0463
  135MOL0     C18156   1.246   6.051   0.643  0.3493  0.6729 -0.4713
  135MOL0     C18157   1.123   6.091   0.614  0.2801  0.1723  0.4454
  135MOL0     H18158   0.768   5.929   0.249  2.9334  4.2142  3.8913
  135MOL0     H18159   0.539   5.961   0.128 -0.1621 -1.5211  0.0099
  135MOL0     H18160   0.335   6.049   0.079 -0.6796  2.0905  1.1622
  135MOL0     H18161   0.300   5.875   0.115 -1.8781 -0.0468  0.6520
  135MOL0     H18162   0.087   5.919   0.055 -0.2913  0.9273 -0.8736
  135MOL0     H18163   0.077   6.021   0.201  3.0974 -0.0540  1.3627
  135MOL0     H18164   0.174   6.160  -0.032  0.2253  0.9359 -0.2269
  135MOL0     H18165  -0.006   6.121  -0.017  0.2165 -1.2965 -0.6115
  135MOL0     H18166  -0.014   6.260   0.189 -0.3694 -1.1007 -1.0848
  135MOL0     H18167   0.152   6.260   0.217  0.5154  1.3665  0.8957
  135MOL0     H18168   0.210   6.410   0.055  0.9485 -1.9180 -0.2419
  135MOL0     H18169   0.076   6.379  -0.049  0.0866 -0.6348 -0.5579
  135MOL0     H18170   0.069   6.611   0.075  1.9273 -0.4567  1.5129
  135MOL0     H18171  -0.081   6.526   0.066 -1.3832  0.9650  1.6342
  135MOL0     H18172  -0.064   6.451   0.295  1.9902 -0.9081 -0.5767
  135MOL0     H18173   0.107   6.483   0.294  0.7690  0.5460 -2.4846
  135MOL0     H18174  -0.111   6.691   0.268 -0.7945 -1.9411  0.1145
  135MOL0     H18175   0.063   6.737   0.285  2.0759 -0.0497  2.6163
  135MOL0     H18176  -0.136   6.500   0.534 -2.0572  1.9081 -1.7461
  135MOL0     H18177  -0.091   6.500   0.810  0.7093 -0.0116 -0.6979
  135MOL0     H18178  -0.112   6.666   0.882  0.0257  1.2004 -1.1875
  135MOL0     H18179  -0.327   6.497   0.854  0.0414 -1.3297 -0.6788
  135MOL0     H18180  -0.332   6.555   0.696 -0.8602  0.4704 -0.4972
  135MOL0     H18181  -0.366   6.786   0.736 -0.8799  2.7237  1.5019
  135MOL0     H18182  -0.317   6.774   0.905  4.2922  0.4336 -2.3857
  135MOL0     H18183  -0.497   6.638   0.958  3.2445  1.6795  0.5248
  135MOL0     H18184  -0.533   6.592   0.789  2.4611 -1.2942  0.6668
  135MOL0     H18185  -0.709   6.725   1.081 -0.7922 -0.0839  0.8674
  135MOL0     H18186  -1.061   6.688   1.172 -0.2982  0.8020  1.0663
  135MOL0     H18187  -0.960   6.548   1.156  0.8106  0.4755  0.4214
  135MOL0     H18188  -0.886   6.699   1.215  1.9967  1.7944 -3.0792
  135MOL0     H18189  -1.382   6.591   0.813  2.8841  0.5217 -1.0142
  135MOL0     H18190  -1.618   6.587   0.699 -0.4626  0.5901  1.6005
  135MOL0     H18191  -1.821   6.952   0.684  1.1314  3.2194 -2.8727
  135MOL0     H18192  -1.813   6.950   0.510 -1.0607 -0.1894 -0.8192
  135MOL0     H18193  -1.974   6.792   0.687  3.1921  1.6141  1.2285
  135MOL0     H18194  -2.036   6.926   0.590 -2.3434 -1.9525  3.2186
  135MOL0     H18195  -1.957   6.659   0.474  2.4593  0.6406 -0.6429
  135MOL0     H18196  -1.982   6.797   0.373 -1.5643 -0.6949 -0.0363
  135MOL0     H18197  -2.211   6.734   0.563  3.0699 -0.9545  0.8673
  135MOL0     H18198  -2.217   6.814   0.401  0.9581 -0.1402 -2.0555
  135MOL0     H18199  -2.161   6.519   0.446  1.0561 -2.1124 -3.3719
  135MOL0     H18200  -2.190   6.589   0.289  1.7325  3.7075 -0.8203
  135MOL0     H18201  -2.395   6.477   0.375 -1.2009  0.4968  0.1306
  135MOL0     H18202  -2.402   6.592   0.511 -4.0523  1.4506 -1.5632
  135MOL0     H18203  -2.413   6.686   0.223  2.6020  0.3179  0.2404
  135MOL0     H18204  -2.453   6.771   0.375  2.8034 -1.3540  2.1518
  135MOL0     H18205  -2.668   6.702   0.332  0.3558  0.4903 -1.8112
  135MOL0     H18206  -2.621   6.555   0.424  0.1106  1.6534  0.8958
  135MOL0     H18207  -1.574   7.001   0.614  2.5406 -0.5641 -3.5194
  135MOL0     H18208  -1.354   6.998   0.716 -0.0665 -0.5150 -1.5459
  135MOL0     H18209  -1.011   6.805   0.695 -0.4531 -1.5128 -0.5691
  135MOL0     H18210  -0.745   6.815   0.673  2.4977  0.0610  1.1903
  135MOL0     H18211   0.373   6.022   0.521 -1.7384 -0.5516 -1.6071
  135MOL0     H18212   0.586   6.012   0.615  3.4758 -0.3943 -0.6315
  135MOL0     H18213   0.984   5.784   0.635  1.6595 -1.8017 -1.6039
  135MOL0     H18214   1.196   5.722   0.700  0.7079  0.6660  3.0538
  135MOL0     H18215   1.441   5.721   0.809  0.7296  0.4234  0.3910
  135MOL0     H18216   1.398   5.707   0.640 -0.0238 -0.2814  1.0575
  135MOL0     H18217   1.615   5.811   0.583 -1.5683 -0.1936 -0.2592
  135MOL0     H18218   1.616   5.651   0.660  0.2530  0.5913 -0.0248
  135MOL0     H18219   1.670   5.923   0.789 -2.1713 -0.5036 -1.3757
  135MOL0     H18220   1.800   5.812   0.730 -0.4849 -0.1412 -1.1446
  135MOL0     H18221   1.816   5.785   0.940  0.3575 -1.3888 -1.6840
  135MOL0     H18222   1.710   5.648   0.898  0.1826  0.1124 -1.9021
  135MOL0     H18223   1.498   5.868   1.189  2.5815  1.1971  0.3391
  135MOL0     H18224   1.331   6.119   0.640  2.3514 -1.5570  1.2775
  135MOL0     H18225   1.111   6.197   0.594  0.3776  0.6012  2.4551
  136MOL0     O18226   0.413   5.042   4.527  0.8209  0.1754  0.0430
  136MOL0     C18227   0.332   5.105   4.597 -0.2690  0.7449  0.1661
  136MOL0     O18228   0.368   5.189   4.699  0.3190 -0.1725 -0.1403
  136MOL0     C18229   0.500   5.214   4.734  0.0607 -0.0784  0.3617
  136MOL0     C18230   0.581   5.110   4.777  0.4554  0.4370 -0.0704
  136MOL0     C18231   0.716   5.154   4.815  0.6148  0.1431  0.2774
  136MOL0     C18232   0.762   5.287   4.799 -0.1770 -0.5226 -0.6622
  136MOL0     O18233   0.881   5.326   4.844  0.2060 -0.2128  0.4587
  136MOL0     C18234   0.948   5.423   4.758  0.0877 -0.1874  0.1720
  136MOL0     C18235   1.093   5.432   4.791  0.2478 -0.4639 -0.6418
  136MOL0     C18236   1.163   5.293   4.782  0.2550 -0.5698  0.0048
  136MOL0     C18237   1.191   5.241   4.641 -0.2233 -0.7194  0.8962
  136MOL0     C18238   1.277   5.318   4.547 -0.4207 -0.0762 -0.4963
  136MOL0     C18239   1.302   5.236   4.421 -0.5970 -0.0548  0.2866
  136MOL0     C18240   1.404   5.297   4.329 -0.5015  0.5877 -0.1976
  136MOL0     C18241   1.549   5.277   4.385  1.0716  0.4704  0.5898
  136MOL0     N18242   1.638   5.299   4.278  0.4905  0.0165 -0.6337
  136MOL0     C18243   1.647   5.241   4.154  0.1194  0.0828 -0.6737
  136MOL0     C18244   1.764   5.270   4.098 -0.0787 -0.6592 -0.3459
  136MOL0     C18245   1.822   5.220   3.966 -0.3225  0.2397 -0.3180
  136MOL0     C18246   1.748   5.300   3.859  0.8745 -0.8341  0.0119
  136MOL0     C18247   1.815   5.274   3.719  0.4390 -0.3491  0.0828
  136MOL0     C18248   1.744   5.345   3.609 -0.0106 -0.8571  0.2248
  136MOL0     O18249   1.599   5.313   3.611  0.2238 -0.1976 -0.6612
  136MOL0     C18250   1.514   5.400   3.552  0.1863  0.6135  0.3387
  136MOL0     C18251   1.517   5.431   3.414  0.2067  1.0501  1.0912
  136MOL0     C18252   1.420   5.508   3.352  1.3642 -0.7443 -0.4898
  136MOL0     C18253   1.436   5.518   3.199 -0.0831 -0.1841 -0.0000
  136MOL0     C18254   1.297   5.539   3.418 -0.5578  0.2673  0.3315
  136MOL0     C18255   1.184   5.606   3.352  0.3526  0.0250 -0.4905
  136MOL0     O18256   1.095   5.666   3.435 -0.2806 -0.0898  0.3338
  136MOL0     C18257   0.964   5.687   3.401 -0.3857  1.1187 -0.4226
  136MOL0     C18258   0.907   5.808   3.447 -0.9664  0.8723  0.0892
  136MOL0     C18259   0.775   5.838   3.411  0.5869  0.0261 -0.5972
  136MOL0     C18260   0.692   5.749   3.341 -0.0077  0.0454  0.2757
  136MOL0     O18261   0.555   5.759   3.307  0.1666  0.3476 -0.3869
  136MOL0     C18262   0.479   5.874   3.347 -0.1010 -0.4612  0.4364
  136MOL0     C18263   0.413   5.854   3.486 -0.5015  0.8054 -0.6788
  136MOL0     C18264   0.302   5.755   3.505  0.9470 -0.4741 -0.1149
  136MOL0     C18265   0.179   5.788   3.414  0.3062  1.0683  0.1151
  136MOL0     C18266   0.057   5.690   3.448 -0.6692 -0.3278 -0.1669
  136MOL0     C18267  -0.062   5.732   3.367  0.0180  0.2928  0.6572
  136MOL0     C18268  -0.189   5.676   3.432 -0.4605 -0.4090  0.1224
  136MOL0     C18269  -0.312   5.712   3.351  0.6647 -0.0735  0.5624
  136MOL0    Cl18270  -0.309   5.893   3.317 -0.0900 -0.3333 -0.3471
  136MOL0     C18271   0.749   5.624   3.301 -0.4516 -0.6154 -0.6113
  136MOL0     C18272   0.881   5.596   3.328  0.2846 -0.2111  0.2915
  136MOL0     O18273   1.165   5.594   3.227 -0.0300 -0.2393  0.3388
  136MOL0     C18274   1.300   5.514   3.559  0.4530  0.3957 -0.3833
  136MOL0     C18275   1.402   5.448   3.626  0.3224  0.0153  0.4443
  136MOL0     N18276   1.822   5.367   4.183 -0.0466  0.5252  0.5447
  136MOL0     N18277   1.748   5.372   4.289  0.0020 -0.2868 -0.8913
  136MOL0     C18278   0.672   5.378   4.754  0.0356 -0.1972 -0.2013
  136MOL0     C18279   0.545   5.343   4.722  0.0427 -0.1445 -0.3473
  136MOL0     C18280   0.189   5.087   4.573  0.3425  0.3919 -0.2349
  136MOL0     C18281   0.086   5.120   4.666  0.5540 -0.7189 -0.3673
  136MOL0     C18282  -0.049   5.120   4.627  0.5934 -0.1444  0.6036
  136MOL0     C18283  -0.089   5.076   4.500  0.9442 -0.0315 -0.5654
  136MOL0     O18284  -0.229   5.072   4.479 -0.1655  0.4624 -0.5002
  136MOL0     C18285  -0.278   5.026   4.350  0.4905  0.3509 -1.0912
  136MOL0     C18286  -0.421   4.970   4.370  0.1341  0.7697  0.2830
  136MOL0     C18287  -0.418   4.817   4.362 -0.3104 -1.3171 -0.2358
  136MOL0     C18288  -0.412   4.765   4.223 -0.3496  0.0111 -0.0030
  136MOL0     C18289  -0.425   4.612   4.229  0.0074 -0.4798 -0.9803
  136MOL0     C18290  -0.431   4.487   4.225  0.3229 -0.7290 -0.6185
  136MOL0     C18291   0.010   5.042   4.407  0.0960 -0.2188 -0.5207
  136MOL0     C18292   0.144   5.048   4.447 -0.5243  0.2042  0.9064
  136MOL0     H18293   0.542   5.010   4.791 -0.3762  0.6662 -0.7023
  136MOL0     H18294   0.785   5.085   4.862  0.9723 -0.6348 -1.2992
  136MOL0     H18295   0.947   5.394   4.652  0.0565 -0.8449  0.3489
  136MOL0     H18296   0.909   5.524   4.776  0.2922 -0.3154  1.3712
  136MOL0     H18297   1.132   5.504   4.718 -0.8773 -0.3363 -1.1467
  136MOL0     H18298   1.101   5.465   4.895  0.2516  2.2372 -1.4189
  136MOL0     H18299   1.255   5.293   4.841 -1.2357 -0.0557  2.4828
  136MOL0     H18300   1.089   5.228   4.831 -3.4966  3.4585  0.3381
  136MOL0     H18301   1.243   5.146   4.651 -3.3071 -2.5864  0.6909
  136MOL0     H18302   1.099   5.219   4.586  0.5672 -1.4706 -0.1626
  136MOL0     H18303   1.228   5.407   4.506  0.4407 -0.0118 -1.4255
  136MOL0     H18304   1.366   5.352   4.601 -0.7840  0.8833 -0.4733
  136MOL0     H18305   1.331   5.134   4.449 -0.3343  0.4615  2.0462
  136MOL0     H18306   1.211   5.235   4.361 -0.4949 -1.5365  0.1233
  136MOL0     H18307   1.400   5.243   4.234 -1.0449  0.7339 -0.2586
  136MOL0     H18308   1.388   5.401   4.300 -1.9542  0.9210  1.6228
  136MOL0     H18309   1.552   5.173   4.418 -0.5406  0.1059 -0.3290
  136MOL0     H18310   1.572   5.344   4.470  0.7066  1.5698 -0.1532
  136MOL0     H18311   1.574   5.179   4.103  1.3298  0.5301 -3.0887
  136MOL0     H18312   1.929   5.238   3.956 -0.6202  2.2394 -0.4082
  136MOL0     H18313   1.782   5.119   3.956 -1.8933  0.5817  1.6874
  136MOL0     H18314   1.758   5.407   3.879 -3.9872 -0.4098  1.6277
  136MOL0     H18315   1.641   5.278   3.863  0.4365  1.0732 -0.0595
  136MOL0     H18316   1.826   5.169   3.692  0.1097 -0.2512 -0.4373
  136MOL0     H18317   1.918   5.309   3.729  0.4797  0.7252 -3.0535
  136MOL0     H18318   1.792   5.328   3.513 -0.5137 -1.0579  0.0055
  136MOL0     H18319   1.762   5.453   3.623  0.7133 -0.9942  0.4058
  136MOL0     H18320   1.581   5.378   3.345 -1.0875 -0.5704  1.0644
  136MOL0     H18321   1.433   5.620   3.159  1.7863 -0.3344 -0.6567
  136MOL0     H18322   1.539   5.495   3.168  0.5366  2.0436  0.2259
  136MOL0     H18323   1.362   5.456   3.148  1.8217  0.1003 -3.4314
  136MOL0     H18324   0.970   5.860   3.519  0.6555  0.1440 -0.7471
  136MOL0     H18325   0.739   5.937   3.439 -1.2519 -0.6364 -0.5179
  136MOL0     H18326   0.538   5.964   3.361  1.2817 -1.1836 -0.5590
  136MOL0     H18327   0.402   5.893   3.271  2.2602 -1.9843 -2.5797
  136MOL0     H18328   0.498   5.826   3.549  0.3597  0.1012 -2.0722
  136MOL0     H18329   0.377   5.948   3.529  0.7164  0.4817  1.1576
  136MOL0     H18330   0.260   5.758   3.606  1.3962  0.1707  0.0606
  136MOL0     H18331   0.329   5.650   3.492 -4.1257 -2.2490  1.0576
  136MOL0     H18332   0.141   5.890   3.427  0.7388  1.1245  1.0281
  136MOL0     H18333   0.211   5.779   3.310 -1.4691  1.2776 -0.4863
  136MOL0     H18334   0.027   5.688   3.553 -4.0694 -2.2430 -1.0062
  136MOL0     H18335   0.082   5.588   3.418  2.6791  0.6202 -1.0399
  136MOL0     H18336  -0.076   5.840   3.368 -0.1089  0.3286 -1.0372
  136MOL0     H18337  -0.044   5.700   3.264  0.4727  1.4138  0.3721
  136MOL0     H18338  -0.185   5.731   3.527 -0.7124 -1.7871  0.9478
  136MOL0     H18339  -0.199   5.568   3.445  0.2336 -0.8458 -2.3926
  136MOL0     H18340  -0.397   5.675   3.410  0.0467  1.1950  0.4866
  136MOL0     H18341  -0.310   5.655   3.257 -2.6542  3.6114 -2.0207
  136MOL0     H18342   0.676   5.557   3.256 -0.5762  0.5268 -2.1800
  136MOL0     H18343   0.910   5.497   3.293 -0.6697  0.3013 -2.0847
  136MOL0     H18344   1.221   5.550   3.624  1.1386  0.0655  0.6512
  136MOL0     H18345   1.387   5.420   3.730 -2.8677 -2.1754 -0.4647
  136MOL0     H18346   0.700   5.483   4.746 -1.3997  0.2280  0.1621
  136MOL0     H18347   0.479   5.422   4.690  2.3588  2.1054  0.1050
  136MOL0     H18348   0.109   5.137   4.771  0.6563 -2.2369 -0.1221
  136MOL0     H18349  -0.130   5.113   4.700 -0.7322  0.3779 -0.7591
  136MOL0     H18350  -0.276   5.102   4.272 -0.6450 -0.0703 -1.5438
  136MOL0     H18351  -0.222   4.938   4.318  1.6840  0.4986  0.4599
  136MOL0     H18352  -0.481   5.008   4.287  0.7347  0.4810 -0.3013
  136MOL0     H18353  -0.462   5.003   4.466 -1.3581  1.2027 -0.4702
  136MOL0     H18354  -0.511   4.781   4.406  0.0887  0.8239  2.6422
  136MOL0     H18355  -0.337   4.775   4.423  0.0243  0.0933  0.3347
  136MOL0     H18356  -0.321   4.790   4.167  0.6873 -1.9289  0.7012
  136MOL0     H18357  -0.498   4.801   4.167  0.5611  2.1452 -0.1188
  136MOL0     H18358  -0.431   4.382   4.204  0.0787 -0.7569 -0.4957
  136MOL0     H18359  -0.023   5.016   4.307 -1.6426 -0.9277  0.1967
  136MOL0     H18360   0.226   5.027   4.379 -1.0792 -0.4459  0.4187
  137MOL0     O18361   3.604   3.393  10.428 -1.0072 -0.1175 -0.1749
  137MOL0     C18362   3.593   3.319  10.334  0.0039  0.2181  0.4476
  137MOL0     O18363   3.474   3.283  10.279 -0.0166  0.1728 -0.0460
  137MOL0     C18364   3.354   3.268  10.343  0.7712  0.1000 -0.3285
  137MOL0     C18365   3.254   3.216  10.270 -0.2193  0.0637 -0.0104
  137MOL0     C18366   3.126   3.189  10.319 -0.8402 -0.2238  0.0043
  137MOL0     C18367   3.096   3.194  10.451 -0.0522 -0.4301  0.5870
  137MOL0     O18368   2.978   3.142  10.496 -0.0351 -0.1657  0.6669
  137MOL0     C18369   2.927   3.185  10.625 -0.6285  0.1711  0.2415
  137MOL0     C18370   2.776   3.192  10.613 -0.6540  0.3315  0.5119
  137MOL0     C18371   2.710   3.211  10.744  0.2081  0.6298  0.8997
  137MOL0     C18372   2.559   3.165  10.753 -0.1380  0.4751 -0.0780
  137MOL0     C18373   2.472   3.253  10.657  0.2932 -0.4900  0.2323
  137MOL0     C18374   2.331   3.207  10.672 -0.5944 -0.0149 -0.2100
  137MOL0     C18375   2.243   3.314  10.602  1.0577 -0.0489  0.0139
  137MOL0     C18376   2.094   3.275  10.620 -0.6562  0.4830  0.8976
  137MOL0     N18377   2.056   3.132  10.584 -0.1430  0.1671  0.0392
  137MOL0     C18378   1.966   3.069  10.662 -0.0338 -0.9001 -0.2694
  137MOL0     C18379   1.889   2.998  10.582 -0.2215  0.5962 -0.8056
  137MOL0     C18380   1.767   2.925  10.635  0.2702  0.2919 -0.0815
  137MOL0     C18381   1.640   3.014  10.607  0.3472 -0.2832  0.1844
  137MOL0     C18382   1.517   2.921  10.600  0.3721 -0.6980 -0.1822
  137MOL0     C18383   1.400   2.995  10.647  0.4356 -0.8130 -0.8803
  137MOL0     O18384   1.276   2.918  10.625 -0.3351 -0.3102 -0.8065
  137MOL0     C18385   1.158   2.988  10.614  0.2927  0.3969 -0.1356
  137MOL0     C18386   1.136   3.128  10.626 -0.2938 -0.7924  0.7154
  137MOL0     C18387   1.011   3.185  10.591  0.1737 -1.1114  0.3764
  137MOL0     C18388   1.009   3.340  10.600 -0.1594 -0.1937 -0.3901
  137MOL0     C18389   0.898   3.104  10.550 -0.6740 -0.5343 -0.2862
  137MOL0     C18390   0.762   3.156  10.511 -0.7803  0.1854  1.2924
  137MOL0     O18391   0.732   3.288  10.522 -0.4222 -0.2170  0.5402
  137MOL0     C18392   0.605   3.321  10.472  0.0398 -0.4280 -0.1587
  137MOL0     C18393   0.599   3.358  10.344  0.5483  0.3752 -0.0991
  137MOL0     C18394   0.472   3.385  10.287 -0.2334  0.5386  0.1184
  137MOL0     C18395   0.363   3.385  10.363  0.0446 -0.2380  0.0959
  137MOL0     O18396   0.244   3.428  10.309  0.7184  0.8303 -0.0477
  137MOL0     C18397   0.153   3.320  10.275 -0.4393  0.4486  0.5617
  137MOL0     C18398   0.017   3.380  10.218  0.0188 -0.1428 -0.2098
  137MOL0     C18399  -0.091   3.271  10.199  0.5016  0.7008 -0.6937
  137MOL0     C18400  -0.224   3.331  10.168 -0.0469 -0.3779  0.5443
  137MOL0     C18401  -0.321   3.225  10.125 -0.4314 -0.2432 -0.4082
  137MOL0     C18402  -0.373   3.261   9.996 -0.2802  0.4443  0.2195
  137MOL0     C18403  -0.270   3.239   9.879 -0.2078 -0.2391 -0.5681
  137MOL0     C18404  -0.317   3.295   9.740 -0.0371  0.4235  0.2794
  137MOL0    Cl18405  -0.466   3.212   9.690 -0.0958  0.1388  0.5023
  137MOL0     C18406   0.365   3.352  10.500 -0.1401 -0.5895  1.1609
  137MOL0     C18407   0.490   3.310  10.552  0.1546 -0.0070  0.6919
  137MOL0     O18408   0.701   3.071  10.445 -0.4398 -0.2708  0.3215
  137MOL0     C18409   0.921   2.972  10.542 -0.3656  1.0131  0.2466
  137MOL0     C18410   1.042   2.917  10.568  0.0041 -0.3826 -0.7224
  137MOL0     N18411   1.939   3.014  10.452  0.9494 -0.0438  0.6246
  137MOL0     N18412   2.044   3.084  10.460 -0.3294  0.4560  0.8028
  137MOL0     C18413   3.194   3.254  10.526 -0.3177 -0.8871  0.5207
  137MOL0     C18414   3.317   3.300  10.477 -0.9698  0.3302 -0.5494
  137MOL0     C18415   3.717   3.266  10.268  0.1447 -1.2036  0.2932
  137MOL0     C18416   3.700   3.194  10.153 -0.1239 -0.0907  0.8389
  137MOL0     C18417   3.818   3.146  10.083  0.2608  0.5017 -0.2048
  137MOL0     C18418   3.948   3.165  10.131 -0.5317  1.0500  0.3227
  137MOL0     O18419   4.045   3.117  10.050 -0.0187  0.2267  0.0825
  137MOL0     C18420   4.179   3.167  10.082  0.2031 -0.8380  0.3972
  137MOL0     C18421   4.272   3.120   9.963  0.4526 -0.0956  0.8562
  137MOL0     C18422   4.402   3.198   9.962 -0.2022 -0.6619 -0.4802
  137MOL0     C18423   4.469   3.189   9.823 -0.0713 -0.1322 -0.4649
  137MOL0     C18424   4.597   3.259   9.826 -0.6637 -0.5338 -0.6656
  137MOL0     C18425   4.712   3.305   9.820  0.4152 -0.6811  0.8059
  137MOL0     C18426   3.962   3.250  10.242 -0.1261  0.5633  0.3837
  137MOL0     C18427   3.848   3.297  10.309 -0.5084 -0.8368  0.2499
  137MOL0     H18428   3.280   3.197  10.166 -1.0396 -2.6051  0.1853
  137MOL0     H18429   3.056   3.153  10.244 -0.3749  0.5684 -0.8467
  137MOL0     H18430   2.960   3.109  10.696 -0.4925  0.3520  0.3746
  137MOL0     H18431   2.957   3.285  10.660 -1.3687  0.2245  0.7669
  137MOL0     H18432   2.735   3.273  10.552  0.8348  0.4442 -0.3973
  137MOL0     H18433   2.739   3.100  10.565 -0.1713  0.7354 -0.6678
  137MOL0     H18434   2.768   3.153  10.816 -1.5131 -2.8409 -0.2910
  137MOL0     H18435   2.718   3.314  10.780  1.4852 -0.0372  2.6532
  137MOL0     H18436   2.532   3.064  10.724  0.6858  0.9668 -2.8616
  137MOL0     H18437   2.527   3.168  10.858 -3.2340 -0.3374 -0.8861
  137MOL0     H18438   2.484   3.355  10.694  0.0779  0.0840 -1.2411
  137MOL0     H18439   2.512   3.237  10.557 -1.5333 -0.4437 -0.5563
  137MOL0     H18440   2.328   3.113  10.616  1.1152 -0.8777  1.0301
  137MOL0     H18441   2.304   3.197  10.777 -1.2166  0.5347 -0.3146
  137MOL0     H18442   2.260   3.412  10.648 -2.1432  0.0865  1.1352
  137MOL0     H18443   2.266   3.309  10.496  0.0862  2.6580 -0.4015
  137MOL0     H18444   2.036   3.343  10.557 -1.6559 -0.5230  0.6918
  137MOL0     H18445   2.054   3.291  10.720 -0.2253 -0.4022  1.2188
  137MOL0     H18446   1.948   3.086  10.768  0.2559  0.0456 -0.3638
  137MOL0     H18447   1.761   2.829  10.584  0.4214  0.4546 -0.4052
  137MOL0     H18448   1.776   2.917  10.744  1.2260  1.1495 -0.0839
  137MOL0     H18449   1.648   3.068  10.512 -2.3375  0.6602  0.3994
  137MOL0     H18450   1.623   3.089  10.685  1.5307 -1.4493  1.6121
  137MOL0     H18451   1.522   2.832  10.664 -1.2430 -0.0241  0.9217
  137MOL0     H18452   1.498   2.889  10.497  0.7928 -0.9191 -0.1962
  137MOL0     H18453   1.402   3.094  10.600  2.2255 -0.1936  0.3969
  137MOL0     H18454   1.421   3.006  10.753 -0.3557  0.0343 -0.8051
  137MOL0     H18455   1.219   3.193  10.652  3.9364 -4.7611 -1.4972
  137MOL0     H18456   0.985   3.387  10.504 -1.8003 -0.5747 -0.1975
  137MOL0     H18457   0.942   3.380  10.676  0.0294 -1.1375  0.2943
  137MOL0     H18458   1.106   3.378  10.632 -0.7121  0.9814 -0.0574
  137MOL0     H18459   0.689   3.360  10.284  1.0457  2.4290  0.6235
  137MOL0     H18460   0.457   3.418  10.185 -2.4965  1.8057  0.7882
  137MOL0     H18461   0.189   3.249  10.200 -0.4334  1.1196 -0.0884
  137MOL0     H18462   0.154   3.278  10.376  3.2928  2.2173  1.4316
  137MOL0     H18463  -0.020   3.460  10.282 -0.3187  0.0202 -0.6075
  137MOL0     H18464   0.042   3.428  10.123  1.5102  4.9108  2.3880
  137MOL0     H18465  -0.095   3.229  10.300 -2.0964  3.5954  0.5510
  137MOL0     H18466  -0.051   3.193  10.134  1.1731  1.7099 -1.5118
  137MOL0     H18467  -0.269   3.383  10.253  0.7418 -1.9800  1.9894
  137MOL0     H18468  -0.209   3.407  10.091 -0.5509  0.2735  1.0753
  137MOL0     H18469  -0.397   3.218  10.203  0.3552  1.4118  0.5769
  137MOL0     H18470  -0.266   3.131  10.115 -0.1715 -0.1396 -0.0022
  137MOL0     H18471  -0.464   3.203   9.975  0.0756 -0.2448  0.5491
  137MOL0     H18472  -0.396   3.368   9.994  1.3455  0.8162  0.5487
  137MOL0     H18473  -0.260   3.130   9.871 -0.1917 -0.4178  1.3831
  137MOL0     H18474  -0.173   3.278   9.911 -1.0184 -0.4941  2.5474
  137MOL0     H18475  -0.242   3.269   9.664  1.0819  1.7267  0.9069
  137MOL0     H18476  -0.333   3.402   9.734  2.6923  0.8726 -0.5515
  137MOL0     H18477   0.277   3.343  10.562 -1.4399  2.3723 -0.0596
  137MOL0     H18478   0.478   3.257  10.646 -2.7408  1.0154  1.0179
  137MOL0     H18479   0.840   2.911  10.503 -1.5075  2.1501  0.7208
  137MOL0     H18480   1.052   2.810  10.553 -1.8438 -0.4992 -1.3267
  137MOL0     H18481   3.189   3.273  10.633 -1.4785  1.8465  0.0713
  137MOL0     H18482   3.390   3.334  10.549  0.1119 -0.1014 -1.4164
  137MOL0     H18483   3.603   3.195  10.104  1.2085 -0.0910 -2.0232
  137MOL0     H18484   3.788   3.103   9.987 -2.3726 -0.0713  0.7941
  137MOL0     H18485   4.178   3.277  10.081 -2.3982 -0.7914 -0.0959
  137MOL0     H18486   4.208   3.129  10.181  1.4011 -0.6229  0.1363
  137MOL0     H18487   4.231   3.123   9.861  1.7707 -1.4869  0.2404
  137MOL0     H18488   4.294   3.014   9.980 -2.4972 -1.2076 -1.3284
  137MOL0     H18489   4.465   3.157  10.042 -2.5148  0.4349  2.0932
  137MOL0     H18490   4.382   3.305   9.967 -1.3568 -0.7348 -2.3938
  137MOL0     H18491   4.406   3.233   9.745  1.7346  1.4319 -1.1253
  137MOL0     H18492   4.480   3.082   9.803  3.5314  0.2538 -1.1877
  137MOL0     H18493   4.807   3.354   9.806 -0.2118  0.0594 -1.1880
  137MOL0     H18494   4.060   3.278  10.280  1.1355 -1.5462 -1.0636
  137MOL0     H18495   3.874   3.359  10.394  4.0916 -0.1840 -1.3523
  138MOL0     O18496   7.237   0.934   3.059  0.2016 -0.6293  0.1262
  138MOL0     C18497   7.300   0.855   2.986  0.2977  0.3792 -1.1349
  138MOL0     O18498   7.242   0.788   2.888 -0.2220  0.0486 -0.3208
  138MOL0     C18499   7.105   0.798   2.867  0.0512  1.2309  0.8846
  138MOL0     C18500   7.047   0.872   2.764  0.3082 -0.6215 -0.1036
  138MOL0     C18501   6.909   0.874   2.754  0.3715 -0.2200 -0.4767
  138MOL0     C18502   6.825   0.796   2.834  1.1882  0.3327  0.0103
  138MOL0     O18503   6.680   0.792   2.824 -0.2648  0.6388 -0.0921
  138MOL0     C18504   6.611   0.888   2.747 -0.3053 -0.6984  0.1922
  138MOL0     C18505   6.455   0.874   2.742  0.2175  0.4585  0.1242
  138MOL0     C18506   6.384   0.945   2.624 -0.3628 -0.2106  1.0608
  138MOL0     C18507   6.351   1.098   2.661 -0.7229  0.3492  0.7327
  138MOL0     C18508   6.251   1.154   2.558 -0.7610  0.1502 -0.5557
  138MOL0     C18509   6.113   1.082   2.576 -0.2510 -0.1276 -0.2934
  138MOL0     C18510   6.011   1.143   2.480 -0.2377  0.5620  0.5739
  138MOL0     C18511   5.877   1.064   2.503  1.2281 -0.3625 -0.8029
  138MOL0     N18512   5.771   1.100   2.407 -0.1849 -0.7789 -0.2879
  138MOL0     C18513   5.701   1.217   2.393 -0.1988 -0.2927  0.3803
  138MOL0     C18514   5.640   1.213   2.273 -0.2528  0.9744  1.0963
  138MOL0     C18515   5.556   1.321   2.214  1.0844  0.1125  0.1515
  138MOL0     C18516   5.554   1.320   2.057 -0.0998 -0.5403 -0.4340
  138MOL0     C18517   5.471   1.217   1.979  0.5118  0.3909  0.3090
  138MOL0     C18518   5.333   1.195   2.040  0.6436 -0.6413 -0.8964
  138MOL0     O18519   5.252   1.147   1.932 -0.2424 -0.2298 -0.1941
  138MOL0     C18520   5.121   1.138   1.955 -0.6940  0.1293 -0.1634
  138MOL0     C18521   5.058   1.132   2.082 -0.5084 -0.2308  0.5989
  138MOL0     C18522   4.920   1.130   2.095 -0.0344 -0.2390  0.5710
  138MOL0     C18523   4.873   1.141   2.237 -0.0032 -0.5752  0.5989
  138MOL0     C18524   4.834   1.131   1.981 -0.1581 -0.2524 -0.7856
  138MOL0     C18525   4.679   1.132   1.981 -0.7890  1.0018  0.1798
  138MOL0     O18526   4.620   1.170   1.867 -0.4920 -0.7146  0.9836
  138MOL0     C18527   4.487   1.138   1.845 -0.9107 -0.1045 -0.1860
  138MOL0     C18528   4.379   1.179   1.930 -0.7169 -0.8203 -0.4514
  138MOL0     C18529   4.254   1.150   1.893  0.2614 -0.0955 -0.4834
  138MOL0     C18530   4.218   1.108   1.766  0.1623 -0.4437 -0.4608
  138MOL0     O18531   4.087   1.113   1.718 -0.8091  0.3515  0.3464
  138MOL0     C18532   3.981   1.129   1.814 -1.0159  0.6500  0.4864
  138MOL0     C18533   3.839   1.094   1.760 -0.2898 -0.5567  0.7377
  138MOL0     C18534   3.745   1.020   1.852  0.3513  0.3769  0.8642
  138MOL0     C18535   3.616   0.983   1.776 -0.7543 -0.2997  0.0917
  138MOL0     C18536   3.506   0.930   1.877  0.0240  0.1866 -0.2201
  138MOL0     C18537   3.361   0.945   1.832 -0.8563 -0.3762  0.1505
  138MOL0     C18538   3.260   0.874   1.929  0.5006 -0.2772 -0.0517
  138MOL0     C18539   3.117   0.902   1.885  0.5735  0.2847  0.5191
  138MOL0    Cl18540   3.106   0.827   1.724  0.2371 -0.2993  0.4304
  138MOL0     C18541   4.323   1.076   1.676 -0.9106 -0.2377 -0.4447
  138MOL0     C18542   4.458   1.096   1.718  0.4290 -0.1945  0.0789
  138MOL0     O18543   4.616   1.084   2.078  0.0882 -0.3043  0.3928
  138MOL0     C18544   4.896   1.132   1.855 -0.7072  0.1844 -0.6055
  138MOL0     C18545   5.037   1.137   1.847  0.7020 -0.2305  0.4370
  138MOL0     N18546   5.676   1.092   2.211  0.5298 -0.6229 -0.7083
  138MOL0     N18547   5.750   1.030   2.296  0.0305  0.0252 -0.3965
  138MOL0     C18548   6.880   0.723   2.938  0.4842 -0.1592 -0.2618
  138MOL0     C18549   7.020   0.724   2.958 -0.2978 -0.6029  0.5957
  138MOL0     C18550   7.445   0.847   3.000 -0.4259  0.0635  0.3142
  138MOL0     C18551   7.510   0.746   2.933  0.8840 -0.1699 -0.6725
  138MOL0     C18552   7.649   0.727   2.939 -0.8037 -0.7329 -0.2736
  138MOL0     C18553   7.724   0.805   3.039  0.0156  0.7582 -0.0243
  138MOL0     O18554   7.859   0.798   3.053  0.4981 -0.3520  0.3080
  138MOL0     C18555   7.933   0.701   2.976  0.2906 -0.7790  0.2079
  138MOL0     C18556   8.073   0.663   3.040 -0.1312  0.0763  0.3407
  138MOL0     C18557   8.185   0.733   2.959 -0.2458  0.0237  0.3099
  138MOL0     C18558   8.326   0.683   3.000  0.9251  0.6833  0.6484
  138MOL0     C18559   8.434   0.759   2.941 -0.6431 -0.0300  0.4080
  138MOL0     C18560   8.534   0.784   2.878  0.7956 -0.2562 -0.1844
  138MOL0     C18561   7.650   0.896   3.127 -0.4095  0.0200 -0.1995
  138MOL0     C18562   7.517   0.920   3.100  0.8222 -0.2950  0.4785
  138MOL0     H18563   7.112   0.927   2.697 -2.0669 -0.4535 -2.3989
  138MOL0     H18564   6.865   0.932   2.674 -3.8904 -2.5226 -0.1122
  138MOL0     H18565   6.640   0.992   2.766 -0.9399  0.2402 -3.2468
  138MOL0     H18566   6.638   0.871   2.643 -1.3526 -1.4658  0.0290
  138MOL0     H18567   6.433   0.767   2.736 -0.8901  0.7112 -4.8901
  138MOL0     H18568   6.412   0.911   2.835  0.2726  1.0864 -0.0959
  138MOL0     H18569   6.442   0.943   2.531 -1.7610 -2.3929  0.1288
  138MOL0     H18570   6.289   0.897   2.597  0.2808  0.4274 -2.9784
  138MOL0     H18571   6.311   1.103   2.763 -0.3604  1.3685  0.8339
  138MOL0     H18572   6.443   1.156   2.659 -0.3266 -0.1777  2.2715
  138MOL0     H18573   6.231   1.261   2.575 -0.9823  0.0129  0.1053
  138MOL0     H18574   6.295   1.146   2.459  0.4140 -1.7827  0.0733
  138MOL0     H18575   6.122   0.976   2.552 -0.9346 -0.1917 -0.2714
  138MOL0     H18576   6.071   1.093   2.676 -1.4278  0.0725 -0.7984
  138MOL0     H18577   6.000   1.251   2.496  1.7905  1.2155 -1.8174
  138MOL0     H18578   6.041   1.126   2.376 -4.8320 -1.9861 -0.6067
  138MOL0     H18579   5.834   1.090   2.600 -2.0479 -0.8586 -2.0067
  138MOL0     H18580   5.910   0.959   2.503  4.5189  0.5291  0.7052
  138MOL0     H18581   5.713   1.314   2.440 -1.6237 -0.1401  0.4454
  138MOL0     H18582   5.453   1.331   2.252 -0.2308 -3.8069 -1.8812
  138MOL0     H18583   5.609   1.413   2.240  0.0357  0.8340 -0.1743
  138MOL0     H18584   5.660   1.325   2.032  0.1871  1.8256  0.9863
  138MOL0     H18585   5.522   1.419   2.022  0.3928 -0.5337 -0.8766
  138MOL0     H18586   5.522   1.121   1.974  0.2943  0.3085 -0.4485
  138MOL0     H18587   5.463   1.238   1.872  1.0021 -0.2110  0.1457
  138MOL0     H18588   5.300   1.295   2.069 -0.2393 -1.0990 -0.2872
  138MOL0     H18589   5.339   1.125   2.123  3.0726  0.3474 -0.1537
  138MOL0     H18590   5.119   1.119   2.171  0.4653  0.3141  0.0351
  138MOL0     H18591   4.960   1.136   2.304 -1.0787  3.3475  2.5643
  138MOL0     H18592   4.836   1.243   2.248  0.4641 -0.2216 -0.8687
  138MOL0     H18593   4.792   1.070   2.258  0.8982 -1.9270 -0.3003
  138MOL0     H18594   4.409   1.236   2.018 -0.1784 -1.8455  0.0472
  138MOL0     H18595   4.179   1.176   1.967 -0.2288  0.9237 -1.3131
  138MOL0     H18596   4.006   1.057   1.892 -0.0708 -0.3107 -0.6722
  138MOL0     H18597   3.982   1.234   1.844  0.8850  0.9185 -0.3330
  138MOL0     H18598   3.792   1.184   1.719  1.2232 -0.6677 -1.3865
  138MOL0     H18599   3.856   1.030   1.673  0.7393 -0.6941  1.0303
  138MOL0     H18600   3.718   1.096   1.926  1.2371  1.0829  0.4829
  138MOL0     H18601   3.803   0.935   1.888  1.3912 -0.0281 -1.5928
  138MOL0     H18602   3.578   1.069   1.720 -0.4151  0.0711  0.4284
  138MOL0     H18603   3.625   0.904   1.700 -0.4148  0.0905 -0.2787
  138MOL0     H18604   3.510   0.964   1.981  2.1812 -0.8645  0.1139
  138MOL0     H18605   3.527   0.823   1.886 -2.7923 -0.4522 -0.4199
  138MOL0     H18606   3.336   1.051   1.822  0.0733 -0.3370 -2.6120
  138MOL0     H18607   3.336   0.896   1.737  0.5746  0.7316 -0.8534
  138MOL0     H18608   3.276   0.912   2.031  1.0933  2.2853 -1.0043
  138MOL0     H18609   3.273   0.766   1.930 -0.8130 -0.4490  0.1022
  138MOL0     H18610   3.101   1.010   1.887 -1.0237  0.1881 -1.8003
  138MOL0     H18611   3.036   0.856   1.941 -1.9908 -1.8609 -4.3129
  138MOL0     H18612   4.305   1.045   1.573 -4.6069 -1.2569  0.3381
  138MOL0     H18613   4.539   1.082   1.648 -0.9502  0.5320 -1.7370
  138MOL0     H18614   4.830   1.121   1.769 -0.8094 -3.2036 -0.2231
  138MOL0     H18615   5.082   1.148   1.748  0.3777  1.7730  0.4614
  138MOL0     H18616   6.821   0.667   3.011 -1.4857  1.5635 -0.4339
  138MOL0     H18617   7.057   0.662   3.039  0.9817 -1.1136 -0.3541
  138MOL0     H18618   7.446   0.684   2.871 -3.1091 -0.4217  3.2147
  138MOL0     H18619   7.688   0.652   2.871  2.5879 -0.3794  1.0804
  138MOL0     H18620   7.869   0.616   2.952  0.2103 -1.4655  2.6359
  138MOL0     H18621   7.955   0.744   2.878  4.0520 -2.3826  0.1479
  138MOL0     H18622   8.084   0.555   3.048  2.3441  0.2176 -0.1437
  138MOL0     H18623   8.071   0.706   3.140  0.0648 -0.4901  0.5922
  138MOL0     H18624   8.160   0.837   2.982 -0.5990 -0.8081  4.2673
  138MOL0     H18625   8.184   0.704   2.853  4.4377 -1.3987  0.4214
  138MOL0     H18626   8.328   0.576   2.977  3.7290  0.3123  2.1384
  138MOL0     H18627   8.338   0.697   3.108 -1.2454  1.1136  0.8823
  138MOL0     H18628   8.628   0.810   2.834  0.9894 -1.4882 -0.5372
  138MOL0     H18629   7.686   0.957   3.209  3.5917 -0.1397 -1.6266
  138MOL0     H18630   7.450   0.984   3.158 -2.4861 -2.3417 -0.7900
  139MOL0     O18631   9.594   8.545   5.948 -0.0196 -0.4917  0.3108
  139MOL0     C18632   9.672   8.624   6.009  0.0221  0.9625 -0.7699
  139MOL0     O18633   9.645   8.688   6.132 -1.1016 -0.6243  0.1692
  139MOL0     C18634   9.523   8.651   6.196 -0.5104  0.6749 -0.0444
  139MOL0     C18635   9.429   8.743   6.236  0.4052  0.1734  0.2677
  139MOL0     C18636   9.306   8.709   6.299  1.2788 -0.2078 -0.4366
  139MOL0     C18637   9.276   8.581   6.334  0.4647  0.3074 -0.3004
  139MOL0     O18638   9.155   8.549   6.403  0.6482 -1.1897 -0.2800
  139MOL0     C18639   9.126   8.410   6.430 -0.7848 -0.2312 -0.2283
  139MOL0     C18640   9.003   8.389   6.512 -0.6564 -0.0359 -0.0815
  139MOL0     C18641   8.883   8.447   6.427 -0.7704  0.3086 -0.2945
  139MOL0     C18642   8.816   8.344   6.331  0.8869  0.5106  0.6361
  139MOL0     C18643   8.724   8.417   6.225  0.0074 -0.2073  0.3886
  139MOL0     C18644   8.689   8.333   6.105 -0.5197 -0.1630 -0.6328
  139MOL0     C18645   8.586   8.225   6.145 -1.6678  0.0646  0.3148
  139MOL0     C18646   8.474   8.262   6.234  1.2582 -0.3336 -0.0323
  139MOL0     N18647   8.389   8.373   6.173 -0.7538  0.0345 -0.4945
  139MOL0     C18648   8.365   8.395   6.041 -0.1127 -0.0458 -0.2257
  139MOL0     C18649   8.267   8.489   6.051  0.0132 -0.0062 -0.4910
  139MOL0     C18650   8.191   8.543   5.932  0.6624  0.0970 -0.2295
  139MOL0     C18651   8.219   8.691   5.915 -0.1487 -0.7671  0.1816
  139MOL0     C18652   8.152   8.745   5.796 -0.6338  0.1999  0.0841
  139MOL0     C18653   8.002   8.731   5.806 -0.0013  0.3124  0.0205
  139MOL0     O18654   7.943   8.799   5.699  0.2029 -0.3547  0.4855
  139MOL0     C18655   7.806   8.820   5.698  0.2602 -0.0694  0.0873
  139MOL0     C18656   7.766   8.917   5.597 -0.0292 -0.2029 -0.2214
  139MOL0     C18657   7.628   8.955   5.582 -0.2031 -0.0589 -0.5127
  139MOL0     C18658   7.600   9.061   5.470  0.6572  0.3333 -0.3104
  139MOL0     C18659   7.527   8.901   5.671  0.4941  0.1874  0.3751
  139MOL0     C18660   7.378   8.926   5.662 -1.2733  0.0164  1.4047
  139MOL0     O18661   7.310   8.890   5.776  0.2317 -0.5926  0.6265
  139MOL0     C18662   7.173   8.878   5.787  0.0038 -1.0270 -0.2797
  139MOL0     C18663   7.076   8.918   5.687 -0.8377 -0.2821 -0.3640
  139MOL0     C18664   6.940   8.911   5.708 -0.6485  0.3615 -0.3958
  139MOL0     C18665   6.887   8.862   5.825 -0.7446 -0.0638 -0.4892
  139MOL0     O18666   6.753   8.862   5.839  0.0360 -0.0290  0.2672
  139MOL0     C18667   6.698   8.798   5.958  0.7609  0.0301  0.3706
  139MOL0     C18668   6.550   8.793   5.934 -0.3125  0.4832  0.4660
  139MOL0     C18669   6.487   8.707   6.041  0.3001  0.0647  0.5573
  139MOL0     C18670   6.355   8.665   5.981  1.2509 -0.0909  0.6777
  139MOL0     C18671   6.296   8.552   6.060 -0.7349  0.3339  0.2416
  139MOL0     C18672   6.164   8.494   5.991 -0.1919 -0.1824 -1.0449
  139MOL0     C18673   6.050   8.596   6.004  0.4864 -0.2274  0.0726
  139MOL0     C18674   5.949   8.566   5.900 -0.1399 -0.1632 -0.6843
  139MOL0    Cl18675   5.795   8.659   5.931  0.0794  0.3783 -0.2160
  139MOL0     C18676   6.980   8.836   5.932  0.1883 -0.4608  0.8436
  139MOL0     C18677   7.124   8.838   5.908  0.2054 -0.2624  0.2313
  139MOL0     O18678   7.339   8.959   5.552 -0.1291  0.1474  0.8343
  139MOL0     C18679   7.575   8.807   5.771  0.1287  0.1145 -0.3886
  139MOL0     C18680   7.707   8.772   5.786 -0.1118  0.4501  0.3300
  139MOL0     N18681   8.233   8.514   6.181 -0.2280 -0.0388 -0.5266
  139MOL0     N18682   8.312   8.447   6.254  0.1042  0.5679  0.3699
  139MOL0     C18683   9.371   8.486   6.300 -0.6179 -0.6153 -0.2990
  139MOL0     C18684   9.497   8.514   6.231 -0.2875 -1.0640  0.8118
  139MOL0     C18685   9.812   8.642   5.956 -0.4849 -0.0219 -1.4129
  139MOL0     C18686   9.859   8.567   5.842 -0.2881 -0.0781  0.1674
  139MOL0     C18687   9.983   8.591   5.783  0.6075  0.0139  0.4112
  139MOL0     C18688  10.057   8.704   5.827  0.8890 -0.0939  0.5573
  139MOL0     O18689  10.172   8.751   5.768  0.0060  0.1852  0.4570
  139MOL0     C18690  10.203   8.709   5.632 -0.8513  0.4100 -0.3954
  139MOL0     C18691  10.268   8.839   5.581 -0.6571 -0.2608  1.0493
  139MOL0     C18692  10.300   8.828   5.428  0.2259 -0.4688  0.2674
  139MOL0     C18693  10.373   8.955   5.377 -0.6773 -0.1955  0.2722
  139MOL0     C18694  10.285   9.073   5.377  0.3813  0.1279 -0.2420
  139MOL0     C18695  10.224   9.178   5.378  0.0749 -0.0905  0.6413
  139MOL0     C18696  10.023   8.779   5.938 -0.8546  0.7405  0.6007
  139MOL0     C18697   9.900   8.737   6.005 -0.3241 -0.2907 -0.0454
  139MOL0     H18698   9.436   8.846   6.204  5.5970 -0.0515 -0.0328
  139MOL0     H18699   9.245   8.792   6.333  1.6957  0.0256 -0.2471
  139MOL0     H18700   9.113   8.365   6.331 -0.0475  0.0942 -0.4809
  139MOL0     H18701   9.208   8.360   6.482 -0.4197 -0.3321 -0.8858
  139MOL0     H18702   8.991   8.281   6.524  0.7226 -0.1630  0.2545
  139MOL0     H18703   9.012   8.441   6.607 -1.3924  3.1351 -1.6094
  139MOL0     H18704   8.803   8.482   6.493 -0.6163 -0.5210  0.3530
  139MOL0     H18705   8.912   8.540   6.378 -3.8238  3.2791  3.0055
  139MOL0     H18706   8.903   8.299   6.282  0.4759  1.4601 -1.0438
  139MOL0     H18707   8.760   8.275   6.395  1.7854 -1.6576 -0.7989
  139MOL0     H18708   8.636   8.450   6.281  0.0542  0.2496  0.1971
  139MOL0     H18709   8.779   8.505   6.194 -0.7201  0.6294  1.3856
  139MOL0     H18710   8.647   8.392   6.023 -0.0037 -1.0981 -1.5970
  139MOL0     H18711   8.782   8.296   6.062 -1.2870  0.5931 -3.1420
  139MOL0     H18712   8.543   8.177   6.057 -0.1002  0.7848 -0.8750
  139MOL0     H18713   8.638   8.148   6.202 -0.7814 -1.5874 -2.5505
  139MOL0     H18714   8.509   8.292   6.333 -1.9638  0.8339  0.8783
  139MOL0     H18715   8.415   8.173   6.257 -0.1144  1.5310  4.7344
  139MOL0     H18716   8.408   8.342   5.957  0.6671  0.8165 -0.3858
  139MOL0     H18717   8.220   8.486   5.843  0.2532  0.1276 -0.3811
  139MOL0     H18718   8.090   8.520   5.964  1.8700 -2.1040  2.3763
  139MOL0     H18719   8.326   8.712   5.923 -0.4498  0.0258  3.1576
  139MOL0     H18720   8.180   8.745   6.002 -0.3861 -3.6168  1.9710
  139MOL0     H18721   8.193   8.698   5.706 -1.2277 -1.9161  0.8567
  139MOL0     H18722   8.167   8.853   5.788 -1.1865  0.2507 -0.3141
  139MOL0     H18723   7.959   8.772   5.898 -1.7447  2.0534 -1.4872
  139MOL0     H18724   7.978   8.625   5.804  1.6235 -0.1101  0.6476
  139MOL0     H18725   7.839   8.952   5.525  0.8346  1.3028  1.3213
  139MOL0     H18726   7.529   9.134   5.512  1.9643  1.4159  0.0656
  139MOL0     H18727   7.690   9.108   5.430  0.3547 -1.4814 -3.4767
  139MOL0     H18728   7.555   9.020   5.380  1.0567  1.2620 -0.9509
  139MOL0     H18729   7.107   8.960   5.592  1.9661  1.3233  1.1400
  139MOL0     H18730   6.870   8.941   5.631 -0.2013 -2.9218 -2.2546
  139MOL0     H18731   6.744   8.699   5.974  0.3895 -0.4717 -1.4765
  139MOL0     H18732   6.717   8.859   6.047  4.5918 -1.7447  0.9854
  139MOL0     H18733   6.502   8.891   5.931  0.6935  1.0454 -3.3610
  139MOL0     H18734   6.532   8.747   5.836  0.8000 -1.1270  0.9783
  139MOL0     H18735   6.473   8.763   6.134 -0.3185  1.1758 -0.1693
  139MOL0     H18736   6.547   8.619   6.063 -0.3802 -0.3890  0.6089
  139MOL0     H18737   6.290   8.753   5.981 -1.2955 -1.8259 -0.7245
  139MOL0     H18738   6.376   8.624   5.881  0.9110 -2.5589  1.5743
  139MOL0     H18739   6.284   8.581   6.165 -1.5394 -1.0093  0.5389
  139MOL0     H18740   6.378   8.480   6.052  1.5247  2.7577  0.0301
  139MOL0     H18741   6.203   8.493   5.889  3.1049  0.0826  0.1166
  139MOL0     H18742   6.126   8.399   6.030 -1.9927  0.8143 -0.2285
  139MOL0     H18743   6.081   8.701   5.998  0.5266 -0.2401  0.0463
  139MOL0     H18744   6.021   8.583   6.109 -0.5949 -3.7552 -0.5524
  139MOL0     H18745   5.929   8.461   5.919 -1.1846  0.0648 -0.4530
  139MOL0     H18746   5.988   8.593   5.801 -1.5516  0.7796 -1.0192
  139MOL0     H18747   6.944   8.823   6.033  1.2192 -0.0684  1.2735
  139MOL0     H18748   7.190   8.803   5.987 -0.0385  2.2074  1.6319
  139MOL0     H18749   7.505   8.764   5.842 -0.2543  0.6116 -0.4555
  139MOL0     H18750   7.750   8.696   5.851  1.4386  0.5336 -0.5455
  139MOL0     H18751   9.353   8.383   6.330 -1.5370 -0.6891 -1.0548
  139MOL0     H18752   9.563   8.434   6.199  1.3883  1.3013 -2.1883
  139MOL0     H18753   9.792   8.495   5.796 -0.4552  0.7814 -0.9880
  139MOL0     H18754  10.025   8.542   5.695  4.5050  1.7534  1.1023
  139MOL0     H18755  10.277   8.629   5.625  1.8323  2.8238 -2.0208
  139MOL0     H18756  10.112   8.683   5.577 -0.2163 -2.5725 -0.1691
  139MOL0     H18757  10.366   8.863   5.625 -1.0400  0.9792  1.2790
  139MOL0     H18758  10.205   8.926   5.601 -0.1800  0.4573 -0.4234
  139MOL0     H18759  10.206   8.820   5.374 -0.5606 -2.0800  1.8068
  139MOL0     H18760  10.372   8.747   5.414  1.8135  0.5809  1.7890
  139MOL0     H18761  10.409   8.940   5.275  0.1140 -1.1574  0.6877
  139MOL0     H18762  10.456   8.973   5.445 -2.5243  0.6290  2.4466
  139MOL0     H18763  10.154   9.258   5.388 -0.9052 -0.7348 -0.6388
  139MOL0     H18764  10.085   8.857   5.980  0.7359  1.2022 -2.3175
  139MOL0     H18765   9.873   8.787   6.098  1.4544  1.7654 -0.5518
  140MOL0     O18766  10.993   8.219   7.514  0.0918 -0.1313  0.0376
  140MOL0     C18767  10.912   8.246   7.602 -0.4506  0.1566 -0.7286
  140MOL0     O18768  10.883   8.366   7.659 -0.1781 -0.6089 -0.5302
  140MOL0     C18769  10.915   8.488   7.592 -0.2501 -0.5363  0.9014
  140MOL0     C18770  10.919   8.604   7.670  0.2782 -0.4645  0.0482
  140MOL0     C18771  10.945   8.728   7.635  0.8096  0.0425 -0.1811
  140MOL0     C18772  10.963   8.749   7.495 -0.3860  0.3789 -0.1411
  140MOL0     O18773  11.019   8.874   7.458 -0.0366  0.4711  0.2584
  140MOL0     C18774  10.954   8.964   7.367 -0.2416 -0.8108  0.5028
  140MOL0     C18775  10.834   9.026   7.436 -0.3934  0.3877 -0.3161
  140MOL0     C18776  10.877   9.135   7.536 -0.2889  0.2096 -0.0481
  140MOL0     C18777  10.922   9.084   7.681 -0.4182 -0.1645  1.2317
  140MOL0     C18778  10.965   9.205   7.766 -0.8388 -0.1779 -0.1105
  140MOL0     C18779  10.856   9.296   7.812 -0.0644  1.1487  0.8609
  140MOL0     C18780  10.792   9.407   7.722  0.1678  0.5709 -0.8875
  140MOL0     C18781  10.747   9.535   7.794  0.2526 -0.4041 -0.9012
  140MOL0     N18782  10.620   9.518   7.858  0.2459  0.3936  0.5859
  140MOL0     C18783  10.502   9.529   7.794  0.1868 -0.0530  0.3862
  140MOL0     C18784  10.402   9.489   7.882  0.1857  0.5298  0.3634
  140MOL0     C18785  10.250   9.478   7.864 -0.0233 -0.1094  0.6580
  140MOL0     C18786  10.159   9.529   7.977 -0.9951  0.0320  0.4759
  140MOL0     C18787  10.009   9.541   7.962  0.1212  0.2264 -0.0030
  140MOL0     C18788   9.955   9.601   8.100  0.1901 -0.7102 -0.3728
  140MOL0     O18789   9.828   9.658   8.082  0.5088 -0.4273 -0.0220
  140MOL0     C18790   9.764   9.743   8.171 -0.7103  0.3453 -0.0461
  140MOL0     C18791   9.805   9.754   8.302  0.3186  0.1206 -1.2863
  140MOL0     C18792   9.755   9.859   8.386 -0.0182  0.5409  0.1357
  140MOL0     C18793   9.806   9.859   8.529 -0.6611  0.0998 -0.6075
  140MOL0     C18794   9.671   9.957   8.329 -0.4299 -0.9900  0.0729
  140MOL0     C18795   9.607  10.064   8.418  0.5672  0.4276 -0.1509
  140MOL0     O18796   9.465  10.084   8.408  0.3899  0.1327 -0.3781
  140MOL0     C18797   9.422  10.192   8.469  0.1139  0.5041 -0.8425
  140MOL0     C18798   9.342  10.174   8.585 -0.0265 -0.0276 -0.6622
  140MOL0     C18799   9.277  10.273   8.649  1.0998 -0.0868  1.4117
  140MOL0     C18800   9.287  10.405   8.596 -0.0618  0.4598 -0.0774
  140MOL0     O18801   9.219  10.503   8.659  0.3666 -0.2696  1.0485
  140MOL0     C18802   9.273  10.529   8.790 -0.1381 -0.6789 -0.2887
  140MOL0     C18803   9.366  10.654   8.770 -0.3465 -0.3487 -0.3916
  140MOL0     C18804   9.408  10.723   8.904 -0.1542 -0.5456 -0.0857
  140MOL0     C18805   9.283  10.768   8.981  0.7799 -0.3843 -0.8589
  140MOL0     C18806   9.337  10.848   9.102 -0.1760 -0.4307  1.4506
  140MOL0     C18807   9.221  10.898   9.191 -0.4250 -0.4263  0.4846
  140MOL0     C18808   9.202  10.810   9.314  0.4392  0.7835  0.2450
  140MOL0     C18809   9.134  10.897   9.417  1.0680 -0.5933 -0.1102
  140MOL0    Cl18810   8.955  10.915   9.390  0.1377 -0.1419 -0.2803
  140MOL0     C18811   9.373  10.431   8.486  0.2172  0.1695  0.2333
  140MOL0     C18812   9.447  10.323   8.434 -0.1935 -0.2168  0.6651
  140MOL0     O18813   9.687  10.131   8.481 -0.5317  0.3062 -0.4197
  140MOL0     C18814   9.628   9.935   8.196 -0.0013 -0.4488  0.6942
  140MOL0     C18815   9.667   9.830   8.122 -0.6030 -0.4992 -1.2008
  140MOL0     N18816  10.470   9.455   7.997  0.7830 -0.1592 -0.0568
  140MOL0     N18817  10.596   9.475   7.984 -0.1709  0.0991 -0.1945
  140MOL0     C18818  10.958   8.636   7.407 -0.4560 -0.7231 -0.7134
  140MOL0     C18819  10.932   8.506   7.462 -0.2973  0.0985 -0.4065
  140MOL0     C18820  10.831   8.124   7.657 -0.1840  0.4607  0.2303
  140MOL0     C18821  10.727   8.140   7.752 -0.1417  0.1314 -0.3884
  140MOL0     C18822  10.677   8.031   7.820  0.9083 -0.4850  0.0508
  140MOL0     C18823  10.738   7.902   7.803  0.2934 -0.7200  0.7932
  140MOL0     O18824  10.707   7.798   7.875  0.2336 -0.4009 -0.1090
  140MOL0     C18825  10.643   7.809   8.001 -0.4414  1.5027 -0.1002
  140MOL0     C18826  10.725   7.888   8.102 -0.4129 -0.5450 -0.2059
  140MOL0     C18827  10.861   7.818   8.136 -0.0350 -0.2789 -0.4529
  140MOL0     C18828  10.916   7.874   8.267 -0.1655  0.2445  0.8926
  140MOL0     C18829  10.821   7.891   8.383 -0.0591  0.8625 -0.3483
  140MOL0     C18830  10.756   7.901   8.486 -0.2321  0.0866  0.5734
  140MOL0     C18831  10.823   7.880   7.695 -0.7133 -0.1910  0.1651
  140MOL0     C18832  10.878   7.989   7.628  0.6077 -0.1109 -1.1662
  140MOL0     H18833  10.903   8.588   7.776  2.4126 -3.3837  0.0529
  140MOL0     H18834  10.936   8.816   7.698  0.4439 -0.6436  0.7491
  140MOL0     H18835  11.024   9.043   7.340  0.3402 -1.4716  0.0142
  140MOL0     H18836  10.921   8.905   7.280 -2.9194 -0.9747  1.5296
  140MOL0     H18837  10.756   9.059   7.367 -1.6347 -3.0158 -0.7200
  140MOL0     H18838  10.776   8.953   7.493  0.5397 -1.2142 -1.3692
  140MOL0     H18839  10.951   9.201   7.491 -0.2009 -1.5588 -2.6725
  140MOL0     H18840  10.781   9.187   7.551 -0.5559 -0.2434 -0.1735
  140MOL0     H18841  10.833   9.029   7.714 -1.8592  1.3405  0.0369
  140MOL0     H18842  10.998   9.007   7.667 -0.1223  0.2202  0.7011
  140MOL0     H18843  11.018   9.161   7.851 -0.2229  1.5560  0.4585
  140MOL0     H18844  11.038   9.269   7.716  0.1353 -2.1424 -1.2900
  140MOL0     H18845  10.771   9.237   7.846  0.0917  0.8264  0.7005
  140MOL0     H18846  10.893   9.353   7.897  0.1526  0.5356  1.1829
  140MOL0     H18847  10.864   9.427   7.642  2.8186 -1.2822  0.8430
  140MOL0     H18848  10.705   9.357   7.678 -0.8189  1.4438  0.0247
  140MOL0     H18849  10.739   9.613   7.718  0.0934 -1.4603 -1.9870
  140MOL0     H18850  10.819   9.566   7.870 -0.9290 -4.9713  2.5848
  140MOL0     H18851  10.492   9.567   7.693  1.2928  0.7957  0.5722
  140MOL0     H18852  10.218   9.533   7.775 -1.0998  2.3216  2.4640
  140MOL0     H18853  10.233   9.371   7.849  2.2769 -0.2505 -1.7913
  140MOL0     H18854  10.191   9.629   8.008 -1.4675  0.7659 -1.2875
  140MOL0     H18855  10.187   9.462   8.059 -0.8473 -1.8586 -1.0543
  140MOL0     H18856   9.956   9.450   7.935 -0.4603  0.5459  0.0462
  140MOL0     H18857   9.985   9.615   7.884 -4.0442 -0.7655  0.1453
  140MOL0     H18858  10.024   9.674   8.144 -1.2643 -0.7092  2.0884
  140MOL0     H18859   9.935   9.522   8.173 -1.9956  1.3501  1.4106
  140MOL0     H18860   9.874   9.681   8.342  1.6291  1.6974 -0.5018
  140MOL0     H18861   9.736   9.902   8.601 -0.1966  0.4109 -0.3381
  140MOL0     H18862   9.840   9.761   8.565 -0.3565  0.8730  1.3300
  140MOL0     H18863   9.893   9.924   8.539  0.8170 -1.9770  0.9646
  140MOL0     H18864   9.322  10.075   8.625  0.7025 -0.6874 -1.8707
  140MOL0     H18865   9.209  10.265   8.734  0.2655 -1.9224  0.6318
  140MOL0     H18866   9.187  10.546   8.856  1.6794  2.1272  1.6472
  140MOL0     H18867   9.324  10.444   8.836  1.3306  0.8934  1.1942
  140MOL0     H18868   9.453  10.623   8.712 -1.4707  1.8789 -3.5477
  140MOL0     H18869   9.303  10.730   8.724 -2.0710 -1.8335 -0.6026
  140MOL0     H18870   9.475  10.807   8.883 -1.3028 -0.5013 -4.6534
  140MOL0     H18871   9.462  10.653   8.968  3.1845 -0.3317 -2.4203
  140MOL0     H18872   9.216  10.834   8.923 -2.3417  0.4650  3.2395
  140MOL0     H18873   9.225  10.683   9.017 -2.0271  0.0447 -3.8253
  140MOL0     H18874   9.377  10.939   9.057 -5.9663  1.0490 -1.7126
  140MOL0     H18875   9.419  10.794   9.150  0.7918 -1.6933 -1.3897
  140MOL0     H18876   9.255  10.997   9.223  0.7687 -0.5481 -0.3767
  140MOL0     H18877   9.133  10.926   9.133 -0.1778 -0.1726  0.2300
  140MOL0     H18878   9.293  10.777   9.363 -0.4414  0.2278  1.5557
  140MOL0     H18879   9.135  10.726   9.293  2.7990 -0.7162 -1.9485
  140MOL0     H18880   9.185  10.994   9.425  0.7346 -0.3452 -0.9035
  140MOL0     H18881   9.149  10.843   9.511  1.0941 -1.1279 -0.4232
  140MOL0     H18882   9.394  10.529   8.446 -1.8627  1.0657  1.2341
  140MOL0     H18883   9.524  10.346   8.361  1.1692  0.2391  2.1818
  140MOL0     H18884   9.553  10.003   8.158  0.1088 -1.2753 -1.1656
  140MOL0     H18885   9.626   9.827   8.022 -1.3622 -0.8067 -0.8867
  140MOL0     H18886  10.994   8.665   7.308  2.0995  1.3939  0.6928
  140MOL0     H18887  10.929   8.424   7.390 -0.1446 -0.3659  0.1113
  140MOL0     H18888  10.702   8.245   7.768 -0.5396 -0.2483  1.9250
  140MOL0     H18889  10.598   8.041   7.894  0.0694 -1.4829 -0.6673
  140MOL0     H18890  10.541   7.845   7.987 -1.1239 -1.3084 -4.1678
  140MOL0     H18891  10.631   7.711   8.047  2.8708  0.4566 -1.1941
  140MOL0     H18892  10.659   7.880   8.188 -0.9658 -1.1623 -0.6728
  140MOL0     H18893  10.736   7.994   8.080 -1.8609 -0.2798  0.2788
  140MOL0     H18894  10.930   7.833   8.053  0.9574 -2.1014 -0.0230
  140MOL0     H18895  10.839   7.711   8.151 -1.2275  0.0256  0.1216
  140MOL0     H18896  10.961   7.973   8.252  0.8207 -0.3792 -0.4758
  140MOL0     H18897  10.994   7.799   8.287  0.3591 -0.1945 -2.3195
  140MOL0     H18898  10.695   7.910   8.574 -2.9229 -0.2048 -1.1235
  140MOL0     H18899  10.869   7.783   7.682  1.0089  0.3207  1.9436
  140MOL0     H18900  10.955   7.971   7.554  0.0329 -1.8697 -1.3919
  141MOL0     O18901  10.130   4.812   1.135 -0.1918  0.0220 -0.3528
  141MOL0     C18902  10.158   4.901   1.213  1.0332 -0.9430  0.2870
  141MOL0     O18903  10.066   5.004   1.243 -0.2650  0.1219 -0.5214
  141MOL0     C18904   9.945   5.000   1.177  0.6001  0.6393 -0.9195
  141MOL0     C18905   9.920   5.052   1.055  0.4094  0.4621  0.2626
  141MOL0     C18906   9.791   5.041   0.992 -0.1512  0.0285  0.4046
  141MOL0     C18907   9.687   4.985   1.050 -0.0261  0.0303 -0.1345
  141MOL0     O18908   9.563   4.946   0.993 -0.1177 -0.4690 -0.1301
  141MOL0     C18909   9.512   5.007   0.869  0.3563  0.1605  0.0049
  141MOL0     C18910   9.409   4.920   0.802  0.0064  0.3354 -0.2170
  141MOL0     C18911   9.383   4.992   0.667 -0.9435 -0.1189 -0.4934
  141MOL0     C18912   9.330   4.904   0.551  0.2103 -0.8772 -0.2912
  141MOL0     C18913   9.192   4.954   0.499 -0.1160 -1.0531 -0.8046
  141MOL0     C18914   9.089   4.950   0.622  0.9058 -0.1666  0.5704
  141MOL0     C18915   8.937   4.984   0.597 -0.0493 -0.5951  0.7175
  141MOL0     C18916   8.876   4.975   0.733 -0.1389  0.2381 -1.2276
  141MOL0     N18917   8.727   4.979   0.748 -0.7669 -0.1540 -0.6553
  141MOL0     C18918   8.640   4.916   0.663  0.6910 -0.2862  0.6186
  141MOL0     C18919   8.523   4.920   0.724  0.2375  0.4098  0.4585
  141MOL0     C18920   8.393   4.863   0.669  0.1956 -0.6952 -0.1595
  141MOL0     C18921   8.334   4.983   0.583  0.4595  0.6507 -0.2245
  141MOL0     C18922   8.187   4.960   0.546 -0.2771 -0.1091 -0.0480
  141MOL0     C18923   8.146   5.070   0.454  0.8467 -1.0875 -0.2026
  141MOL0     O18924   8.156   5.200   0.520 -0.2320 -0.2249  0.3724
  141MOL0     C18925   8.091   5.305   0.471 -0.2301  0.3615  1.0054
  141MOL0     C18926   8.106   5.428   0.524  0.2792  0.1741  0.3857
  141MOL0     C18927   8.040   5.542   0.475 -0.4471 -0.1529 -1.0154
  141MOL0     C18928   8.078   5.675   0.542  0.5437  0.8611  0.3644
  141MOL0     C18929   7.941   5.532   0.376  0.8953  0.0717 -0.6697
  141MOL0     C18930   7.852   5.642   0.330  0.9379 -0.5816  0.0339
  141MOL0     O18931   7.777   5.621   0.225 -0.1229  0.0729  0.4805
  141MOL0     C18932   7.670   5.700   0.196  0.7815  0.3495  0.4737
  141MOL0     C18933   7.687   5.807   0.100 -0.3413  0.5403 -0.7144
  141MOL0     C18934   7.584   5.883   0.059 -0.1988 -0.2115 -0.4029
  141MOL0     C18935   7.453   5.870   0.114  0.4729 -0.0387 -0.3004
  141MOL0     O18936   7.358   5.962   0.070  0.2051 -0.0163 -0.1832
  141MOL0     C18937   7.236   5.954   0.147  0.0399  0.1819  0.0188
  141MOL0     C18938   7.141   6.060   0.087  0.4238  0.2080  0.0003
  141MOL0     C18939   7.007   6.070   0.167 -0.2335  0.9785  0.3418
  141MOL0     C18940   6.931   6.200   0.129  0.3432  0.1774 -0.9481
  141MOL0     C18941   6.788   6.193   0.192 -0.2938 -0.0008 -0.5284
  141MOL0     C18942   6.710   6.326   0.181 -0.5651  0.2458 -0.4185
  141MOL0     C18943   6.560   6.293   0.212 -1.1192 -1.3639 -0.1380
  141MOL0     C18944   6.477   6.310   0.079  1.1031 -0.2062 -0.5191
  141MOL0    Cl18945   6.316   6.337   0.128  0.1957 -0.1939  0.0133
  141MOL0     C18946   7.439   5.774   0.217  0.4266  0.0891 -0.2625
  141MOL0     C18947   7.539   5.685   0.254  0.7820 -0.9015 -0.0416
  141MOL0     O18948   7.839   5.746   0.398 -0.2057 -0.4985 -0.6136
  141MOL0     C18949   7.922   5.399   0.323 -0.8385 -0.5761  0.2183
  141MOL0     C18950   7.999   5.296   0.372 -0.6084  0.0081 -0.2581
  141MOL0     N18951   8.546   4.979   0.841 -0.1640 -0.4241 -0.4758
  141MOL0     N18952   8.662   5.013   0.867 -0.9127 -0.0533  0.1318
  141MOL0     C18953   9.712   4.927   1.176 -0.2511  0.4335 -0.3885
  141MOL0     C18954   9.840   4.931   1.238  0.3219  0.0092 -0.2254
  141MOL0     C18955  10.299   4.919   1.257  0.0509 -1.2306  0.4868
  141MOL0     C18956  10.346   5.036   1.323 -0.0150 -0.2641 -1.1307
  141MOL0     C18957  10.471   5.062   1.371 -0.3878 -0.3070  0.2813
  141MOL0     C18958  10.567   4.962   1.351 -0.3052  0.8431 -0.5660
  141MOL0     O18959  10.694   4.973   1.396 -0.9717  0.3519  0.3262
  141MOL0     C18960  10.733   4.853   1.467 -0.2464 -0.0395 -0.6900
  141MOL0     C18961  10.857   4.886   1.536 -0.9483 -0.8771 -0.1596
  141MOL0     C18962  10.906   4.785   1.650  0.4400  0.1259  0.7581
  141MOL0     C18963  10.928   4.649   1.614  0.0631  0.4499 -0.0016
  141MOL0     C18964  10.805   4.570   1.599  0.0578 -0.8963 -0.5926
  141MOL0     C18965  10.710   4.498   1.592  0.2419 -0.7603  0.3289
  141MOL0     C18966  10.529   4.837   1.282 -0.3603 -0.2728  0.0347
  141MOL0     C18967  10.396   4.822   1.239  0.5641 -0.4142  0.1507
  141MOL0     H18968   9.992   5.109   0.996  1.7486 -0.5157  0.9087
  141MOL0     H18969   9.789   5.080   0.891  3.8907 -0.0069  0.1417
  141MOL0     H18970   9.468   5.105   0.889 -1.3788 -0.5936  0.0445
  141MOL0     H18971   9.593   5.005   0.796 -1.4175 -2.8328 -2.0832
  141MOL0     H18972   9.444   4.821   0.771 -1.0347  0.2108 -1.0688
  141MOL0     H18973   9.316   4.909   0.858  0.9960  0.9208  1.6274
  141MOL0     H18974   9.325   5.083   0.688  0.6572  1.1013 -1.1643
  141MOL0     H18975   9.476   5.028   0.623  0.4051  0.0427  2.2603
  141MOL0     H18976   9.407   4.907   0.474  0.5234 -0.2937  0.0422
  141MOL0     H18977   9.321   4.803   0.593  0.5303  0.1001  2.3257
  141MOL0     H18978   9.205   5.052   0.453 -0.9014 -0.3257  0.4883
  141MOL0     H18979   9.158   4.879   0.426  0.2829 -2.0031 -0.0250
  141MOL0     H18980   9.084   4.845   0.654  1.0575 -0.1029  0.8007
  141MOL0     H18981   9.128   5.006   0.707  3.6944  0.0707 -0.7551
  141MOL0     H18982   8.923   5.086   0.558  0.3830 -0.7129  0.2489
  141MOL0     H18983   8.886   4.922   0.523  1.0586 -0.2486 -0.3578
  141MOL0     H18984   8.930   5.047   0.794  0.8520  0.4289 -2.3015
  141MOL0     H18985   8.911   4.881   0.777  2.8675  1.1329 -1.5062
  141MOL0     H18986   8.647   4.870   0.565 -1.0837 -1.8943  1.1769
  141MOL0     H18987   8.407   4.773   0.610  1.7523  0.4018 -1.5590
  141MOL0     H18988   8.327   4.845   0.755  0.3488 -1.1357 -0.1336
  141MOL0     H18989   8.380   4.964   0.485  1.7331 -1.3208  0.6786
  141MOL0     H18990   8.352   5.083   0.622 -2.7943  0.2020  2.8688
  141MOL0     H18991   8.115   4.949   0.628 -1.6274  1.3152 -0.9591
  141MOL0     H18992   8.188   4.865   0.491  2.1211  0.6844 -1.5276
  141MOL0     H18993   8.045   5.053   0.415  1.8304 -1.5776 -2.7479
  141MOL0     H18994   8.207   5.070   0.363  1.7165  0.5739  0.3375
  141MOL0     H18995   8.184   5.447   0.598 -0.4963  4.0480  0.4129
  141MOL0     H18996   8.142   5.650   0.627 -0.7967 -2.0445  0.6166
  141MOL0     H18997   8.124   5.739   0.466  0.6643 -0.3161 -0.5801
  141MOL0     H18998   7.988   5.724   0.581  0.6340  0.3417  1.2528
  141MOL0     H18999   7.787   5.806   0.058  1.4557 -1.0952  3.0351
  141MOL0     H19000   7.581   5.958  -0.020 -1.7485 -1.0396 -1.1963
  141MOL0     H19001   7.197   5.853   0.132  1.9422 -0.5082 -0.4430
  141MOL0     H19002   7.249   5.969   0.255 -1.1674  3.0734 -0.1394
  141MOL0     H19003   7.186   6.158   0.105 -1.3019  0.7129  2.0443
  141MOL0     H19004   7.125   6.038  -0.019  0.7704  0.3783 -0.0874
  141MOL0     H19005   7.025   6.078   0.274  1.5302 -0.9728  0.2584
  141MOL0     H19006   6.942   5.983   0.152  0.5309  0.3370  0.6955
  141MOL0     H19007   6.995   6.283   0.161  2.4863 -1.5002 -0.6185
  141MOL0     H19008   6.906   6.210   0.023 -0.9164  0.2667 -0.6581
  141MOL0     H19009   6.803   6.172   0.299  1.5322 -0.9948 -0.9318
  141MOL0     H19010   6.725   6.111   0.156  0.8270  0.0380 -2.7361
  141MOL0     H19011   6.749   6.393   0.260 -0.1449  0.9258 -1.1841
  141MOL0     H19012   6.732   6.364   0.081 -1.2715 -0.4823 -0.8546
  141MOL0     H19013   6.526   6.359   0.293  1.2309 -1.3139  0.8919
  141MOL0     H19014   6.539   6.193   0.250  3.5475 -2.3368  0.4846
  141MOL0     H19015   6.484   6.222   0.014  0.4054  0.3793 -1.4150
  141MOL0     H19016   6.500   6.402   0.025 -0.5924 -0.1084 -1.1407
  141MOL0     H19017   7.349   5.766   0.278  1.1870  0.0141  0.8797
  141MOL0     H19018   7.517   5.608   0.327 -1.5503  0.3313  0.6454
  141MOL0     H19019   7.849   5.393   0.243  0.8132  1.8052 -1.6279
  141MOL0     H19020   7.983   5.204   0.316 -1.6682 -0.3148  0.5374
  141MOL0     H19021   9.643   4.872   1.239  1.4312 -0.9674  0.3002
  141MOL0     H19022   9.875   4.888   1.332  0.8030  2.2272  0.6665
  141MOL0     H19023  10.271   5.109   1.352  2.2136  0.2234  4.7546
  141MOL0     H19024  10.500   5.159   1.411 -2.0225 -0.2364  1.3748
  141MOL0     H19025  10.655   4.808   1.529 -1.1855  1.4935 -0.7118
  141MOL0     H19026  10.768   4.778   1.395  1.5000 -0.7060  0.7478
  141MOL0     H19027  10.847   4.980   1.590 -0.6105 -2.0694  2.0867
  141MOL0     H19028  10.943   4.910   1.472  1.8725  1.6787  4.0914
  141MOL0     H19029  10.833   4.781   1.731 -2.6686 -1.4197 -1.8897
  141MOL0     H19030  10.996   4.838   1.684  0.0085  2.0799 -0.9502
  141MOL0     H19031  10.982   4.602   1.696 -0.9446 -1.7956 -0.5585
  141MOL0     H19032  10.995   4.634   1.529  0.8778  5.1470 -0.5091
  141MOL0     H19033  10.636   4.421   1.593  0.1101 -0.6366  0.2457
  141MOL0     H19034  10.598   4.753   1.279  2.4443  1.8071  2.0716
  141MOL0     H19035  10.360   4.731   1.191 -2.9368  0.6651  0.4554
  142MOL0     O19036   7.159   5.059   0.421 -0.0454  0.0177 -0.3770
  142MOL0     C19037   7.113   4.949   0.469 -0.2629 -0.6608 -0.2207
  142MOL0     O19038   6.989   4.911   0.452  0.3697  0.1900 -0.0085
  142MOL0     C19039   6.914   4.984   0.362 -0.2197  0.2324  0.1258
  142MOL0     C19040   6.923   4.962   0.218 -0.0188  0.0622  0.6553
  142MOL0     C19041   6.842   5.036   0.136 -0.2919  1.1573  0.0325
  142MOL0     C19042   6.752   5.130   0.184 -0.7767 -0.2671 -1.1919
  142MOL0     O19043   6.677   5.203   0.097  0.0425 -0.3194 -0.1611
  142MOL0     C19044   6.597   5.118   0.012  0.1149  0.5194  0.8546
  142MOL0     C19045   6.494   5.202  -0.057  0.2886  0.2370  0.9479
  142MOL0     C19046   6.445   5.125  -0.184  0.5260  0.8356 -1.1666
  142MOL0     C19047   6.327   5.192  -0.253  0.4063 -0.3054 -0.1679
  142MOL0     C19048   6.205   5.217  -0.165  0.3712  0.1292  0.3260
  142MOL0     C19049   6.125   5.080  -0.165  0.0301 -0.1896 -0.2585
  142MOL0     C19050   6.000   5.086  -0.093  1.3247 -0.7998  0.3347
  142MOL0     C19051   5.878   5.171  -0.140  0.6372 -0.2490 -0.2495
  142MOL0     N19052   5.834   5.126  -0.274 -0.2087 -0.6378  0.6145
  142MOL0     C19053   5.829   5.215  -0.375  0.0957 -0.9328  1.1224
  142MOL0     C19054   5.736   5.165  -0.456 -0.0523 -0.6067 -0.1153
  142MOL0     C19055   5.685   5.249  -0.564  0.0850 -0.2944 -0.2163
  142MOL0     C19056   5.769   5.273  -0.684 -0.2070 -0.6549  0.4990
  142MOL0     C19057   5.705   5.354  -0.802 -0.5413  0.5215  0.8204
  142MOL0     C19058   5.554   5.373  -0.802 -0.3426  0.0596  0.1020
  142MOL0     O19059   5.484   5.257  -0.836  0.0828 -0.2795 -1.0120
  142MOL0     C19060   5.348   5.252  -0.823  0.4614 -1.0772 -0.2013
  142MOL0     C19061   5.282   5.130  -0.812 -0.3382  1.3503  0.0272
  142MOL0     C19062   5.143   5.111  -0.798 -0.5296  0.0096  0.6135
  142MOL0     C19063   5.097   4.969  -0.776 -0.0127  0.3070  0.1859
  142MOL0     C19064   5.063   5.214  -0.803 -0.0422  0.1151  0.4070
  142MOL0     C19065   4.920   5.198  -0.804  0.9289  0.4625 -0.0635
  142MOL0     O19066   4.857   5.263  -0.909  0.8906 -0.2123 -0.2803
  142MOL0     C19067   4.720   5.229  -0.929  0.0356 -0.4518 -0.1348
  142MOL0     C19068   4.658   5.105  -0.903  0.7876 -0.1886  0.1786
  142MOL0     C19069   4.515   5.102  -0.913 -0.2292  0.0504 -0.5462
  142MOL0     C19070   4.435   5.213  -0.946 -0.3793 -0.3613 -0.6811
  142MOL0     O19071   4.296   5.203  -0.935  0.0468 -0.2764  1.0938
  142MOL0     C19072   4.217   5.199  -1.061  0.4811  0.0211 -0.5049
  142MOL0     C19073   4.076   5.173  -1.019 -0.2032 -0.3802  0.3048
  142MOL0     C19074   3.992   5.132  -1.145 -0.1215 -0.0624 -0.4353
  142MOL0     C19075   3.837   5.113  -1.100 -0.4301  0.6113 -0.5274
  142MOL0     C19076   3.814   4.980  -1.040  0.0340 -0.0742 -0.5481
  142MOL0     C19077   3.704   4.987  -0.931  0.0297  0.4168  0.3705
  142MOL0     C19078   3.559   5.015  -0.984  0.2015  0.4967  0.7514
  142MOL0     C19079   3.516   4.922  -1.094 -0.5786  0.6982 -0.5211
  142MOL0    Cl19080   3.333   4.923  -1.106 -0.1826 -0.3998  0.4718
  142MOL0     C19081   4.499   5.333  -0.985 -0.9269  0.5575 -0.1552
  142MOL0     C19082   4.639   5.343  -0.979 -0.3889 -0.6266  0.1754
  142MOL0     O19083   4.863   5.156  -0.706 -0.6955 -0.3474  0.3948
  142MOL0     C19084   5.125   5.347  -0.822 -0.0558  0.0467  0.9896
  142MOL0     C19085   5.262   5.363  -0.828 -0.1595 -0.3095  0.1176
  142MOL0     N19086   5.689   5.047  -0.414 -0.5183 -0.1340  0.1313
  142MOL0     N19087   5.757   5.017  -0.311 -1.4390 -0.1541 -0.7879
  142MOL0     C19088   6.750   5.167   0.317  0.1783  0.5145  0.7534
  142MOL0     C19089   6.832   5.085   0.407 -0.2112 -0.0471  0.9860
  142MOL0     C19090   7.196   4.841   0.520  0.1679 -0.1884 -0.4746
  142MOL0     C19091   7.152   4.727   0.594 -0.0498  0.3099  0.1018
  142MOL0     C19092   7.243   4.626   0.628 -0.7015  0.0563  0.1875
  142MOL0     C19093   7.384   4.645   0.611 -0.3795 -1.2115 -0.5241
  142MOL0     O19094   7.479   4.559   0.661  0.1797  0.1651  0.2569
  142MOL0     C19095   7.457   4.419   0.642  0.5865 -0.0199 -0.0864
  142MOL0     C19096   7.465   4.378   0.499 -0.1099 -0.3559 -0.2881
  142MOL0     C19097   7.433   4.229   0.480  0.3182 -0.2055  0.2097
  142MOL0     C19098   7.460   4.178   0.332 -0.5633 -0.3724 -1.2376
  142MOL0     C19099   7.395   4.256   0.230 -0.0093  0.4816  0.1897
  142MOL0     C19100   7.339   4.318   0.147  0.3500  0.5673  0.9252
  142MOL0     C19101   7.426   4.749   0.525 -0.3260  0.4991 -0.5672
  142MOL0     C19102   7.334   4.843   0.483  0.4440  0.3254  1.3240
  142MOL0     H19103   6.999   4.892   0.184  0.1948  1.5606 -2.1927
  142MOL0     H19104   6.852   5.024   0.029  1.0321  2.1754  0.0125
  142MOL0     H19105   6.662   5.078  -0.066  0.0225  1.1530  0.4544
  142MOL0     H19106   6.562   5.036   0.076  2.5351 -1.4236 -0.1510
  142MOL0     H19107   6.415   5.237   0.009  0.0343  1.2516  0.1347
  142MOL0     H19108   6.534   5.296  -0.096 -2.0535 -0.7970 -5.0421
  142MOL0     H19109   6.522   5.112  -0.261  1.1329 -1.1373 -0.2759
  142MOL0     H19110   6.413   5.025  -0.155  0.4119  1.2976  0.3670
  142MOL0     H19111   6.368   5.290  -0.279  2.2888 -0.5713  1.5212
  142MOL0     H19112   6.295   5.138  -0.343  0.0421  1.0445 -0.8727
  142MOL0     H19113   6.219   5.252  -0.062  0.6788 -0.4310  0.4782
  142MOL0     H19114   6.139   5.289  -0.216  1.1804  0.7787  0.1655
  142MOL0     H19115   6.111   5.032  -0.262 -0.1347 -3.7107  1.3774
  142MOL0     H19116   6.187   5.012  -0.107 -0.9222 -1.8357 -1.0817
  142MOL0     H19117   5.973   4.980  -0.086  0.4409 -0.5676  0.5471
  142MOL0     H19118   6.015   5.104   0.014 -1.2924 -2.1427  1.0009
  142MOL0     H19119   5.898   5.278  -0.155 -2.2168  0.6171  1.3505
  142MOL0     H19120   5.797   5.162  -0.068 -1.2557 -0.9786 -2.3705
  142MOL0     H19121   5.881   5.311  -0.373 -2.7436  0.6986  1.1834
  142MOL0     H19122   5.591   5.203  -0.594 -0.7185  0.3236  1.2760
  142MOL0     H19123   5.669   5.347  -0.518 -1.9106 -0.9836  0.6490
  142MOL0     H19124   5.805   5.178  -0.724  2.7932  0.0871  1.2027
  142MOL0     H19125   5.854   5.328  -0.643 -1.0992 -1.2534  3.3759
  142MOL0     H19126   5.728   5.304  -0.897 -0.2793  2.6472 -0.3060
  142MOL0     H19127   5.752   5.453  -0.807  2.0962 -0.6885 -0.3448
  142MOL0     H19128   5.523   5.449  -0.874  1.3767 -2.3539 -3.4522
  142MOL0     H19129   5.517   5.411  -0.706 -1.8112 -1.5395  0.2147
  142MOL0     H19130   5.351   5.046  -0.814 -1.7831  0.1098 -2.6836
  142MOL0     H19131   5.137   4.928  -0.683 -3.3088 -3.2970  0.3227
  142MOL0     H19132   4.989   4.956  -0.787  0.2098 -0.1752 -1.7976
  142MOL0     H19133   5.140   4.912  -0.859  1.6574  1.1145  0.4637
  142MOL0     H19134   4.709   5.017  -0.867 -2.3572 -1.5280  1.7150
  142MOL0     H19135   4.459   5.011  -0.899 -1.4517  0.9659  0.8800
  142MOL0     H19136   4.226   5.285  -1.128 -1.2332  0.1601 -0.6167
  142MOL0     H19137   4.253   5.119  -1.125  1.5105  0.0987 -0.0387
  142MOL0     H19138   4.075   5.095  -0.942  0.4289 -3.0043 -2.1603
  142MOL0     H19139   4.040   5.264  -0.970 -0.8069 -1.0191  1.0821
  142MOL0     H19140   4.029   5.036  -1.181 -0.5488 -0.1996 -0.5103
  142MOL0     H19141   4.001   5.206  -1.225 -1.2903  0.0115 -0.5144
  142MOL0     H19142   3.803   5.191  -1.031  0.1951  1.2573 -0.9431
  142MOL0     H19143   3.772   5.125  -1.187 -2.4490 -1.9922  0.4666
  142MOL0     H19144   3.912   4.951  -1.003  0.3144 -0.2190 -1.3856
  142MOL0     H19145   3.788   4.910  -1.120 -1.4525  0.5548 -0.6518
  142MOL0     H19146   3.697   4.889  -0.884  0.7475  0.6203  0.9335
  142MOL0     H19147   3.730   5.059  -0.853 -0.0853 -1.0631  1.8115
  142MOL0     H19148   3.547   5.118  -1.017  0.1796 -0.6632 -3.3100
  142MOL0     H19149   3.502   4.989  -0.894 -0.2402 -1.1852  0.0167
  142MOL0     H19150   3.557   4.824  -1.070  2.3575  1.6973 -0.9904
  142MOL0     H19151   3.564   4.947  -1.189 -0.1477 -0.3699 -0.5950
  142MOL0     H19152   4.453   5.427  -1.017 -2.9723 -0.0574  0.8210
  142MOL0     H19153   4.688   5.436  -1.005 -0.2094 -0.9013 -0.4798
  142MOL0     H19154   5.075   5.438  -0.853  0.6253  0.1103  0.0205
  142MOL0     H19155   5.312   5.457  -0.848  1.3198 -0.6789  1.8187
  142MOL0     H19156   6.693   5.254   0.348  1.4785  2.2978 -1.5702
  142MOL0     H19157   6.804   5.099   0.510 -1.5157 -0.5710  0.7225
  142MOL0     H19158   7.047   4.709   0.610 -0.0089 -2.1863 -1.9056
  142MOL0     H19159   7.214   4.545   0.694  2.3299  0.2428  1.9668
  142MOL0     H19160   7.531   4.360   0.698 -1.9937 -0.0914  3.6317
  142MOL0     H19161   7.357   4.397   0.679  0.4623 -0.3336 -0.6108
  142MOL0     H19162   7.568   4.395   0.466  0.3648 -1.1287  0.7220
  142MOL0     H19163   7.403   4.446   0.439  2.0873  0.7271 -1.4327
  142MOL0     H19164   7.329   4.210   0.506  0.3931  1.1523  1.6525
  142MOL0     H19165   7.494   4.162   0.541 -0.4800 -1.6351 -0.5020
  142MOL0     H19166   7.436   4.073   0.314  2.2060 -1.8209  2.4396
  142MOL0     H19167   7.564   4.174   0.299 -0.4766  3.8388 -2.0285
  142MOL0     H19168   7.285   4.360   0.065  1.0175 -1.7327 -0.7839
  142MOL0     H19169   7.529   4.763   0.492 -0.3515  0.4790 -0.6535
  142MOL0     H19170   7.369   4.914   0.408 -1.0984 -1.6253 -1.4396
  143MOL0     O19171   2.265  10.351   1.036  0.3868  0.4808  1.0157
  143MOL0     C19172   2.354  10.426   1.076 -0.4529 -0.2616 -0.2777
  143MOL0     O19173   2.375  10.465   1.204  0.0223  0.0550 -0.1949
  143MOL0     C19174   2.302  10.429   1.312 -1.0244 -0.0618 -0.4984
  143MOL0     C19175   2.249  10.302   1.322  0.4395  0.3336  0.1070
  143MOL0     C19176   2.171  10.255   1.433  0.5188  0.3369  0.8816
  143MOL0     C19177   2.165  10.329   1.550  0.5796 -0.3999  0.0537
  143MOL0     O19178   2.120  10.258   1.664  0.3290  0.4983 -0.3085
  143MOL0     C19179   2.099  10.326   1.789 -0.5963 -0.2943  0.3498
  143MOL0     C19180   1.956  10.373   1.777 -0.0940 -0.0850  0.3057
  143MOL0     C19181   1.932  10.477   1.886 -0.8588  0.3639  0.3092
  143MOL0     C19182   1.783  10.515   1.897 -0.1228 -0.5307 -0.4083
  143MOL0     C19183   1.760  10.651   1.970  0.0525 -0.3341 -0.0641
  143MOL0     C19184   1.608  10.696   1.959 -0.3209  0.5807 -0.4754
  143MOL0     C19185   1.599  10.837   2.013  0.4562 -0.0986 -0.3130
  143MOL0     C19186   1.662  10.956   1.933 -1.3625  0.9278  0.6731
  143MOL0     N19187   1.612  10.963   1.799 -0.0996  0.1269 -0.0153
  143MOL0     C19188   1.663  10.894   1.692  0.4338 -0.2701  0.6222
  143MOL0     C19189   1.563  10.905   1.597 -0.2387 -0.1067 -0.0591
  143MOL0     C19190   1.560  10.825   1.468 -0.2182  0.0372  0.2249
  143MOL0     C19191   1.654  10.880   1.362 -0.0277 -0.2366 -0.5286
  143MOL0     C19192   1.662  10.791   1.244 -0.0257 -0.0816  0.7371
  143MOL0     C19193   1.554  10.781   1.133  0.0326  1.5520 -0.3082
  143MOL0     O19194   1.501  10.913   1.102 -0.8554 -0.3537 -0.4284
  143MOL0     C19195   1.371  10.919   1.057 -0.0496  0.8290  0.1162
  143MOL0     C19196   1.280  10.808   1.050 -0.7571 -0.0885 -0.0135
  143MOL0     C19197   1.144  10.824   1.022  0.0489 -0.2953  0.0964
  143MOL0     C19198   1.062  10.689   1.012 -0.0351 -0.3013 -0.0457
  143MOL0     C19199   1.098  10.958   1.009  0.2848 -0.1113 -0.3510
  143MOL0     C19200   0.957  10.982   0.976  0.4620  0.0945 -0.0811
  143MOL0     O19201   0.864  10.912   1.037 -0.1728 -0.6921 -0.2628
  143MOL0     C19202   0.730  10.940   1.010  0.0582 -0.3346  0.0940
  143MOL0     C19203   0.640  10.837   0.969  0.0806 -0.5282  0.0866
  143MOL0     C19204   0.504  10.863   0.954  0.0549  0.2567  0.8868
  143MOL0     C19205   0.454  10.997   0.960 -1.3844  0.3956 -0.5066
  143MOL0     O19206   0.318  11.017   0.941 -0.1613 -0.2240  0.1286
  143MOL0     C19207   0.271  11.148   0.907  0.2589 -0.1430  0.3230
  143MOL0     C19208   0.208  11.149   0.764 -0.6400  0.2685 -0.9053
  143MOL0     C19209   0.056  11.136   0.779 -1.6464 -0.3814  0.6749
  143MOL0     C19210  -0.015  11.266   0.815 -0.1464  0.6910  0.3702
  143MOL0     C19211  -0.156  11.232   0.858  0.5936 -0.3653 -0.4320
  143MOL0     C19212  -0.238  11.151   0.770  0.5143  0.1453  0.0236
  143MOL0     C19213  -0.381  11.134   0.823  0.4612  0.7720 -0.4763
  143MOL0     C19214  -0.475  11.044   0.745  0.3237  0.0283 -0.1794
  143MOL0    Cl19215  -0.647  11.046   0.798 -0.0787 -0.3821 -0.3427
  143MOL0     C19216   0.542  11.090   1.019  0.3009 -0.1704 -0.3603
  143MOL0     C19217   0.676  11.061   1.041  0.1102 -0.3300  0.4113
  143MOL0     O19218   0.941  11.082   0.908 -0.3440  0.8183  0.7504
  143MOL0     C19219   1.185  11.067   1.017 -0.3706  0.6773  0.7137
  143MOL0     C19220   1.321  11.049   1.037 -0.2362  0.8495 -0.0596
  143MOL0     N19221   1.469  10.991   1.653  0.4566  0.4325  0.1249
  143MOL0     N19222   1.487  11.019   1.772 -0.3519  0.6566  0.1624
  143MOL0     C19223   2.221  10.456   1.540 -0.6918  0.2791 -0.6405
  143MOL0     C19224   2.284  10.512   1.427  0.4313  0.8170  0.0357
  143MOL0     C19225   2.457  10.474   0.973  0.0765  0.4560 -0.4999
  143MOL0     C19226   2.452  10.436   0.838  0.5918 -0.1172  1.0668
  143MOL0     C19227   2.547  10.476   0.747 -0.7983 -0.4407 -0.1339
  143MOL0     C19228   2.647  10.563   0.791 -0.2022  0.6294 -0.5627
  143MOL0     O19229   2.740  10.608   0.697  0.0988 -0.0679 -0.4678
  143MOL0     C19230   2.813  10.731   0.719 -0.2477  0.2308  0.0554
  143MOL0     C19231   2.952  10.699   0.781  0.0232 -0.1829 -0.0948
  143MOL0     C19232   3.059  10.698   0.668 -0.0084 -0.4731  0.6411
  143MOL0     C19233   3.193  10.667   0.742  0.2889 -0.2565  0.4683
  143MOL0     C19234   3.307  10.655   0.650 -0.5146  0.5542 -0.9471
  143MOL0     C19235   3.402  10.628   0.576  1.6854  0.2582 -0.3705
  143MOL0     C19236   2.650  10.601   0.925 -0.1212 -0.1977 -1.1067
  143MOL0     C19237   2.567  10.548   1.023  0.9685  0.4783  0.3332
  143MOL0     H19238   2.271  10.240   1.236  2.5330  0.8529  0.2084
  143MOL0     H19239   2.141  10.152   1.413 -0.2892  0.9222 -1.0842
  143MOL0     H19240   2.109  10.255   1.871  1.8601  1.6240  1.8174
  143MOL0     H19241   2.160  10.414   1.806  0.2116 -0.7397 -0.1618
  143MOL0     H19242   1.944  10.424   1.681  0.8453 -0.2649  0.0840
  143MOL0     H19243   1.883  10.291   1.771 -1.6728  1.3068 -0.1288
  143MOL0     H19244   1.963  10.447   1.987 -1.2738 -0.2087  0.2720
  143MOL0     H19245   1.987  10.566   1.855 -0.4673  1.0605  2.7304
  143MOL0     H19246   1.743  10.502   1.796 -1.3111  1.3429 -0.2317
  143MOL0     H19247   1.737  10.435   1.954  1.6883 -0.2505  1.5789
  143MOL0     H19248   1.779  10.637   2.077 -2.2562  0.2688  0.4623
  143MOL0     H19249   1.833  10.721   1.929  0.3656 -1.1262 -0.9001
  143MOL0     H19250   1.575  10.700   1.855  1.0363 -1.9699 -1.0904
  143MOL0     H19251   1.545  10.627   2.016 -0.0569  0.3976 -0.4015
  143MOL0     H19252   1.491  10.853   2.021  0.6472  0.3973  2.2563
  143MOL0     H19253   1.641  10.846   2.114  1.1847 -0.0167 -0.6129
  143MOL0     H19254   1.770  10.967   1.941 -1.0515 -0.2947 -1.1297
  143MOL0     H19255   1.634  11.049   1.982  0.5775  0.1210  3.5019
  143MOL0     H19256   1.743  10.823   1.679  0.5265  0.1796 -1.6679
  143MOL0     H19257   1.583  10.721   1.493 -0.5078 -0.2080 -0.5126
  143MOL0     H19258   1.458  10.823   1.429 -0.4200  2.1631  0.5052
  143MOL0     H19259   1.752  10.899   1.407 -0.4862  0.3129  0.2599
  143MOL0     H19260   1.613  10.973   1.322  0.7571 -0.2740 -1.4419
  143MOL0     H19261   1.685  10.691   1.283 -0.5147 -0.8533 -0.8493
  143MOL0     H19262   1.752  10.829   1.195 -0.5476 -0.0002 -0.1749
  143MOL0     H19263   1.481  10.716   1.183  2.3849 -0.3042  0.9297
  143MOL0     H19264   1.589  10.727   1.045  0.9300 -0.2858  1.0909
  143MOL0     H19265   1.314  10.707   1.069  0.3679  0.2354 -0.1872
  143MOL0     H19266   1.017  10.666   1.109 -2.0408  0.2252 -0.7944
  143MOL0     H19267   0.980  10.704   0.941 -1.1325 -2.4266  0.6792
  143MOL0     H19268   1.129  10.609   0.980  0.1295 -0.1024 -0.2101
  143MOL0     H19269   0.665  10.731   0.965 -2.3357 -1.1159 -0.9793
  143MOL0     H19270   0.434  10.786   0.924 -1.0113  0.5551  2.4794
  143MOL0     H19271   0.204  11.183   0.987  0.4565 -1.4547  1.0991
  143MOL0     H19272   0.346  11.228   0.908 -0.8403  1.0094 -2.0979
  143MOL0     H19273   0.237  11.236   0.705 -0.8239  3.2662  3.0346
  143MOL0     H19274   0.231  11.057   0.709 -2.4197 -0.6197 -0.2376
  143MOL0     H19275   0.028  11.048   0.839 -0.5258 -1.1007  0.1792
  143MOL0     H19276   0.034  11.105   0.677 -1.6833  2.4379 -0.2327
  143MOL0     H19277   0.036  11.324   0.893 -0.0300  1.3068 -0.1552
  143MOL0     H19278  -0.034  11.314   0.719 -1.7610 -1.6660 -0.5947
  143MOL0     H19279  -0.205  11.328   0.872  2.3293  1.1062 -3.5144
  143MOL0     H19280  -0.155  11.172   0.950  2.9330  1.5526  0.8963
  143MOL0     H19281  -0.236  11.205   0.675  0.8845  0.1803  0.0481
  143MOL0     H19282  -0.196  11.052   0.752 -2.1059 -1.3840  1.6699
  143MOL0     H19283  -0.432  11.231   0.830  2.3082  1.6823  1.5909
  143MOL0     H19284  -0.380  11.083   0.920  3.3609 -1.6906 -1.6412
  143MOL0     H19285  -0.430  10.944   0.748  1.6733  0.6460  0.8558
  143MOL0     H19286  -0.477  11.076   0.640  3.0450 -1.1402 -0.6531
  143MOL0     H19287   0.501  11.184   1.054  1.5749  0.4619 -0.5458
  143MOL0     H19288   0.748  11.130   1.083 -1.0166 -0.8571  3.4366
  143MOL0     H19289   1.160  11.173   1.014  3.6224  1.8213  2.1630
  143MOL0     H19290   1.384  11.136   1.053 -2.8309  2.3012  3.8324
  143MOL0     H19291   2.237  10.504   1.636  0.7021 -0.1271 -0.6544
  143MOL0     H19292   2.338  10.605   1.443  0.4260  1.1711 -1.8533
  143MOL0     H19293   2.376  10.372   0.795  2.8103  0.7716 -5.3844
  143MOL0     H19294   2.547  10.436   0.646  0.1201 -1.0132  0.0794
  143MOL0     H19295   2.822  10.769   0.616 -1.6801  3.5187  0.9937
  143MOL0     H19296   2.761  10.810   0.773 -1.0457  0.2111 -0.6587
  143MOL0     H19297   2.945  10.599   0.823 -1.3682 -1.0658 -2.2091
  143MOL0     H19298   2.978  10.772   0.857 -0.0326 -1.5966  1.3302
  143MOL0     H19299   3.064  10.792   0.612  1.2967  1.0782  3.1531
  143MOL0     H19300   3.045  10.614   0.600  1.6429 -0.2319 -0.0353
  143MOL0     H19301   3.185  10.568   0.788  0.2897  0.2422  1.5475
  143MOL0     H19302   3.213  10.742   0.818  1.2451  0.1532 -0.1681
  143MOL0     H19303   3.483  10.609   0.508 -0.6139  0.2305 -3.2993
  143MOL0     H19304   2.732  10.666   0.954  0.9161 -1.5354 -0.9411
  143MOL0     H19305   2.575  10.574   1.128  1.7370  0.6362  0.2435
  144MOL0     O19306   2.122   6.150  10.864  0.4945 -0.0028  0.6079
  144MOL0     C19307   2.044   6.092  10.787 -0.1447 -0.7457 -0.7913
  144MOL0     O19308   1.910   6.129  10.767  0.5074 -0.0543  0.1470
  144MOL0     C19309   1.866   6.252  10.821 -0.8686  0.5493  0.3558
  144MOL0     C19310   1.931   6.374  10.806 -0.7161  0.4354  0.5144
  144MOL0     C19311   1.885   6.478  10.880  1.8128  0.2535  0.6625
  144MOL0     C19312   1.771   6.478  10.967 -0.3208  0.0686  0.3764
  144MOL0     O19313   1.745   6.593  11.041  0.0149  0.3733  0.2268
  144MOL0     C19314   1.619   6.604  11.107 -0.4108  0.3942 -0.1986
  144MOL0     C19315   1.509   6.620  10.997  0.2839 -0.1855 -0.4138
  144MOL0     C19316   1.366   6.618  11.058  0.2077  1.0105 -0.0469
  144MOL0     C19317   1.255   6.602  10.950  0.5045  0.0624  0.5802
  144MOL0     C19318   1.136   6.656  11.017  0.0938  0.0048 -0.2630
  144MOL0     C19319   1.031   6.720  10.918 -0.8299 -0.2773 -0.0003
  144MOL0     C19320   0.946   6.610  10.849  0.5543 -0.2309  0.0435
  144MOL0     C19321   0.861   6.543  10.959 -0.2966  0.3787  0.5414
  144MOL0     N19322   0.730   6.504  10.892  0.1139 -0.1117  0.3981
  144MOL0     C19323   0.626   6.585  10.884  0.5196 -0.5741 -0.0437
  144MOL0     C19324   0.516   6.507  10.844 -0.5425 -0.7248 -0.3804
  144MOL0     C19325   0.382   6.557  10.809  0.4022 -0.1033 -0.1951
  144MOL0     C19326   0.292   6.569  10.933 -0.3680 -0.2445  0.5887
  144MOL0     C19327   0.233   6.444  11.000 -0.6351 -0.0088  0.1093
  144MOL0     C19328   0.173   6.338  10.911  0.5628 -0.1517  0.6304
  144MOL0     O19329   0.123   6.220  10.978  0.2089 -0.6498  0.5921
  144MOL0     C19330   0.031   6.143  10.910 -1.3313  0.1348 -0.4953
  144MOL0     C19331  -0.033   6.042  10.979 -0.3462 -0.4912  0.5563
  144MOL0     C19332  -0.131   5.959  10.922  0.1135  0.0024  0.9492
  144MOL0     C19333  -0.193   5.857  11.011 -1.0567  0.1477 -0.8473
  144MOL0     C19334  -0.174   5.982  10.781 -0.1290  0.0663 -0.1000
  144MOL0     C19335  -0.265   5.904  10.710 -0.3237  0.3660  0.1128
  144MOL0     O19336  -0.292   5.947  10.579 -0.0538  0.4185  0.4397
  144MOL0     C19337  -0.369   5.869  10.488 -0.1946 -0.4886 -0.3869
  144MOL0     C19338  -0.479   5.789  10.527  0.5302  0.3641 -0.1984
  144MOL0     C19339  -0.554   5.715  10.434 -0.9126  0.5410  0.1302
  144MOL0     C19340  -0.534   5.731  10.294 -0.5954 -0.0353  0.7939
  144MOL0     O19341  -0.603   5.679  10.186 -0.4083  0.3350 -0.3741
  144MOL0     C19342  -0.731   5.626  10.218 -0.3529 -0.0283 -0.2183
  144MOL0     C19343  -0.809   5.627  10.090 -0.8353 -0.4235  0.3740
  144MOL0     C19344  -0.952   5.599  10.132  0.7007 -0.3281  0.2007
  144MOL0     C19345  -1.048   5.622  10.011 -0.3858 -0.3202  0.3532
  144MOL0     C19346  -1.195   5.566  10.036 -0.3433 -0.3420 -0.3696
  144MOL0     C19347  -1.271   5.652  10.142  0.4366  0.2143  0.8575
  144MOL0     C19348  -1.397   5.566  10.178  0.1740  0.0590  0.1309
  144MOL0     C19349  -1.488   5.623  10.295 -0.9914 -0.0090  0.2838
  144MOL0    Cl19350  -1.647   5.563  10.284 -0.2956  0.1914 -0.2120
  144MOL0     C19351  -0.427   5.806  10.257 -0.6247 -0.4427  0.5089
  144MOL0     C19352  -0.351   5.876  10.347  0.9215 -0.0012  0.7499
  144MOL0     O19353  -0.319   5.808  10.766  0.7957  0.7427  0.0454
  144MOL0     C19354  -0.101   6.076  10.714  0.2256  0.9601 -0.3800
  144MOL0     C19355   0.000   6.159  10.772 -0.1020 -0.2202 -0.1738
  144MOL0     N19356   0.562   6.385  10.810 -0.8559  0.5077  0.3169
  144MOL0     N19357   0.693   6.384  10.839  0.0337 -0.1290  0.2882
  144MOL0     C19358   1.700   6.356  10.977 -0.2140  0.0717  1.0482
  144MOL0     C19359   1.758   6.249  10.905 -0.0405  0.3100 -0.0592
  144MOL0     C19360   2.100   5.971  10.724 -0.4301  0.9233  0.2854
  144MOL0     C19361   2.021   5.889  10.644 -0.1973 -0.2856 -0.2571
  144MOL0     C19362   2.078   5.778  10.577  0.3452 -0.7131  0.4906
  144MOL0     C19363   2.215   5.752  10.599 -0.2762  0.6677 -0.2302
  144MOL0     O19364   2.283   5.647  10.538  0.1162  0.6923  0.3032
  144MOL0     C19365   2.213   5.575  10.435  0.5171 -0.7225 -0.2435
  144MOL0     C19366   2.309   5.472  10.376 -0.3018  0.2852  0.4971
  144MOL0     C19367   2.261   5.405  10.242  0.2573 -0.6235 -0.2674
  144MOL0     C19368   2.367   5.302  10.194  0.3451 -0.2640  0.4672
  144MOL0     C19369   2.351   5.170  10.256 -0.0187 -0.2406 -0.1250
  144MOL0     C19370   2.336   5.069  10.317 -0.0967 -0.3497  0.4050
  144MOL0     C19371   2.293   5.831  10.683  0.4926  0.2060 -0.4225
  144MOL0     C19372   2.235   5.935  10.750  0.5872  0.6778  0.9151
  144MOL0     H19373   2.025   6.389  10.753 -0.3869 -0.2639  0.8758
  144MOL0     H19374   1.933   6.576  10.875 -1.0503  1.7733  0.6486
  144MOL0     H19375   1.609   6.520  11.177  1.4991  0.8291  0.6479
  144MOL0     H19376   1.629   6.691  11.172  1.8249  0.0401 -0.0042
  144MOL0     H19377   1.520   6.720  10.952  1.4189  0.8229  1.9475
  144MOL0     H19378   1.512   6.545  10.917  2.7494  1.2811 -1.8576
  144MOL0     H19379   1.362   6.530  11.123 -0.7414 -0.2729 -1.7561
  144MOL0     H19380   1.346   6.710  11.114 -1.5920  0.0355  0.9902
  144MOL0     H19381   1.284   6.670  10.870  0.6081 -1.0417 -0.3354
  144MOL0     H19382   1.235   6.506  10.902 -2.6576  0.3948  1.0074
  144MOL0     H19383   1.079   6.578  11.069 -0.2174  0.3466 -0.0872
  144MOL0     H19384   1.137   6.746  11.078 -3.2104  1.2591 -1.8182
  144MOL0     H19385   0.957   6.788  10.959 -3.4556 -0.6860 -3.5798
  144MOL0     H19386   1.094   6.784  10.855  2.7869 -2.1086  1.4210
  144MOL0     H19387   0.879   6.650  10.772  1.0511 -1.2456 -0.9486
  144MOL0     H19388   1.013   6.538  10.801 -0.4585 -1.7696  0.8553
  144MOL0     H19389   0.839   6.617  11.037 -1.6566  3.2443 -2.2812
  144MOL0     H19390   0.910   6.456  11.002 -0.7462 -0.5206 -0.6892
  144MOL0     H19391   0.632   6.693  10.895  1.9761 -0.7029  0.7357
  144MOL0     H19392   0.400   6.657  10.770  1.9849  0.7352  2.4759
  144MOL0     H19393   0.328   6.486  10.745 -1.0207 -0.7655  1.6668
  144MOL0     H19394   0.213   6.643  10.915  0.4755  1.2966  2.8102
  144MOL0     H19395   0.350   6.620  11.010  0.3692 -0.3934  0.1485
  144MOL0     H19396   0.155   6.481  11.066 -1.1439  3.2135 -2.0844
  144MOL0     H19397   0.312   6.401  11.063 -0.5845  0.5251  0.4113
  144MOL0     H19398   0.250   6.316  10.836 -1.2168  1.3231 -1.7538
  144MOL0     H19399   0.098   6.391  10.852  0.9946 -1.7325 -1.4820
  144MOL0     H19400  -0.006   6.019  11.082  0.7642  0.5926  0.5355
  144MOL0     H19401  -0.168   5.883  11.114 -2.2000  1.3530 -0.8542
  144MOL0     H19402  -0.301   5.863  10.993 -1.3516 -3.2208 -0.7972
  144MOL0     H19403  -0.158   5.754  10.995  1.2052  0.3941  1.7012
  144MOL0     H19404  -0.498   5.771  10.633  2.1576  0.9090  0.2111
  144MOL0     H19405  -0.633   5.659  10.483 -1.8339  1.0365 -0.7406
  144MOL0     H19406  -0.723   5.524  10.256 -0.1952  0.4544  1.1091
  144MOL0     H19407  -0.789   5.691  10.285 -0.3217 -0.2669  0.0402
  144MOL0     H19408  -0.795   5.725  10.045  2.2963 -2.2688 -3.3319
  144MOL0     H19409  -0.767   5.550  10.024 -3.4328 -2.8857  1.4056
  144MOL0     H19410  -0.981   5.664  10.215  1.6987 -1.1759  1.2487
  144MOL0     H19411  -0.967   5.496  10.167 -2.6492  0.3482  1.0278
  144MOL0     H19412  -1.046   5.730   9.996  0.6557 -0.4381 -0.4406
  144MOL0     H19413  -1.013   5.569   9.923 -0.3599 -0.5546  0.5023
  144MOL0     H19414  -1.191   5.462  10.072 -1.2141  0.4580  2.2998
  144MOL0     H19415  -1.264   5.579   9.953  1.1444  3.8568 -1.1596
  144MOL0     H19416  -1.225   5.674  10.238  0.3494  0.0096  0.9457
  144MOL0     H19417  -1.298   5.745  10.090 -1.8775 -1.6342 -1.5579
  144MOL0     H19418  -1.354   5.471  10.211 -3.0138 -2.1797 -1.7232
  144MOL0     H19419  -1.454   5.554  10.086  3.0198 -1.6227 -1.5743
  144MOL0     H19420  -1.492   5.732  10.290 -2.2215 -0.0433  0.1685
  144MOL0     H19421  -1.437   5.609  10.391  2.1815  0.5958 -1.1974
  144MOL0     H19422  -0.412   5.811  10.150 -1.9159  1.9461  0.3721
  144MOL0     H19423  -0.265   5.929  10.308  2.6676 -2.8982  0.4389
  144MOL0     H19424  -0.144   6.118  10.624 -1.5434 -1.5783 -0.8245
  144MOL0     H19425   0.046   6.236  10.710  0.9159 -3.0215 -3.1980
  144MOL0     H19426   1.619   6.337  11.047 -1.5173 -1.0300 -0.6546
  144MOL0     H19427   1.724   6.148  10.924  0.7168 -0.0385 -0.5119
  144MOL0     H19428   1.918   5.921  10.629  0.0805  0.8490  0.1590
  144MOL0     H19429   2.017   5.710  10.518 -1.4239 -0.5422  2.0200
  144MOL0     H19430   2.124   5.524  10.474 -2.1569  0.5952 -4.0390
  144MOL0     H19431   2.176   5.639  10.354  0.1826 -0.6872 -0.0662
  144MOL0     H19432   2.320   5.397  10.454 -0.9859  1.0488  1.3614
  144MOL0     H19433   2.395   5.528  10.338 -0.9309  0.0024 -1.4132
  144MOL0     H19434   2.257   5.483  10.165  1.3534 -1.3186 -1.0413
  144MOL0     H19435   2.164   5.354  10.239  0.8071 -1.6877 -0.0984
  144MOL0     H19436   2.460   5.350  10.224 -0.4628  1.4451  0.3470
  144MOL0     H19437   2.372   5.296  10.085 -0.3997  1.0816  0.3292
  144MOL0     H19438   2.321   4.980  10.374  0.5359 -1.8769 -1.6845
  144MOL0     H19439   2.398   5.807  10.683  1.5660  4.1200  0.9453
  144MOL0     H19440   2.301   6.002  10.803 -0.6619  3.0188 -0.3257
  145MOL0     O19441  11.177   4.950   2.360 -0.1985  0.0212 -0.1910
  145MOL0     C19442  11.212   4.856   2.433  0.9917 -0.5209 -0.1103
  145MOL0     O19443  11.135   4.771   2.504  0.8164 -0.4965 -0.4708
  145MOL0     C19444  10.998   4.788   2.508 -0.6826 -0.5673 -0.6761
  145MOL0     C19445  10.910   4.742   2.409 -0.2551  1.3356  0.3025
  145MOL0     C19446  10.768   4.755   2.424  0.8405  0.3632 -0.2701
  145MOL0     C19447  10.714   4.818   2.539  0.7744  0.2376  0.6520
  145MOL0     O19448  10.580   4.829   2.575  0.0001  0.4422  0.0340
  145MOL0     C19449  10.483   4.790   2.476  0.3991 -0.1027  0.3779
  145MOL0     C19450  10.348   4.841   2.530 -0.4159  0.1847 -0.4248
  145MOL0     C19451  10.313   4.761   2.658 -0.6602 -0.3020 -1.0713
  145MOL0     C19452  10.162   4.753   2.679 -0.6612  0.1690 -0.0073
  145MOL0     C19453  10.090   4.888   2.707  0.4001  0.1214 -0.1061
  145MOL0     C19454   9.948   4.867   2.761 -0.3062  0.8356 -0.0778
  145MOL0     C19455   9.882   4.996   2.803  0.5112  0.0606  0.6305
  145MOL0     C19456   9.859   5.100   2.692 -0.5902  0.2446  0.0357
  145MOL0     N19457   9.774   5.049   2.582 -0.7696 -0.9612 -0.3563
  145MOL0     C19458   9.667   4.963   2.586  0.2018  0.1542 -1.1530
  145MOL0     C19459   9.641   4.944   2.452 -0.2838  0.2380  0.7688
  145MOL0     C19460   9.541   4.840   2.418 -0.4683 -0.1098  1.1102
  145MOL0     C19461   9.425   4.901   2.339 -0.5610 -1.1627  0.0283
  145MOL0     C19462   9.319   4.798   2.292 -0.0731 -0.3056 -0.0089
  145MOL0     C19463   9.195   4.857   2.240 -0.0009 -0.1633  0.8764
  145MOL0     O19464   9.098   4.755   2.191 -0.6834 -0.1199  0.2467
  145MOL0     C19465   8.997   4.784   2.112 -0.4505  0.8580 -0.6503
  145MOL0     C19466   8.934   4.671   2.064  0.3165 -0.1136  1.1436
  145MOL0     C19467   8.823   4.685   1.978  0.2490  0.8802 -0.3842
  145MOL0     C19468   8.776   4.554   1.906  0.1283  0.0085  0.4091
  145MOL0     C19469   8.765   4.815   1.961 -0.6364 -0.7859  0.6619
  145MOL0     C19470   8.624   4.838   1.899  0.0443  0.2057 -0.9228
  145MOL0     O19471   8.584   4.960   1.845  0.1231  0.3716  0.0442
  145MOL0     C19472   8.449   4.973   1.800 -1.0988 -0.1795 -0.7555
  145MOL0     C19473   8.423   4.971   1.662 -0.6756  0.5560 -0.5705
  145MOL0     C19474   8.289   4.990   1.618  0.3552 -0.3562 -0.0130
  145MOL0     C19475   8.183   5.015   1.710 -0.5070  0.1089  0.3609
  145MOL0     O19476   8.052   5.040   1.689  0.3925  0.0510  0.3628
  145MOL0     C19477   8.011   5.033   1.546 -0.5038 -0.3285 -0.8237
  145MOL0     C19478   7.873   5.080   1.529  0.8749 -0.9450 -1.0403
  145MOL0     C19479   7.810   5.009   1.405  0.0738 -0.2961  0.7279
  145MOL0     C19480   7.658   4.995   1.393  0.6734 -0.4104 -0.2950
  145MOL0     C19481   7.584   5.126   1.404 -0.1377 -0.2839  0.6859
  145MOL0     C19482   7.432   5.102   1.385 -0.2876 -0.2055 -0.0272
  145MOL0     C19483   7.359   5.233   1.352 -0.6069  0.6173  0.1933
  145MOL0     C19484   7.386   5.339   1.461 -1.0494  0.1251  0.3356
  145MOL0    Cl19485   7.327   5.285   1.620  0.4731  0.5388 -0.2557
  145MOL0     C19486   8.221   5.025   1.846 -0.6381 -0.4041 -0.6300
  145MOL0     C19487   8.355   5.010   1.899 -0.5571 -0.1289 -0.2153
  145MOL0     O19488   8.545   4.741   1.919  0.1975  0.0605  0.4922
  145MOL0     C19489   8.830   4.927   2.015  0.6597  0.1393  0.5347
  145MOL0     C19490   8.949   4.906   2.090 -0.0209  0.8013  0.5731
  145MOL0     N19491   9.731   5.015   2.374  0.2050  0.9385 -0.0745
  145MOL0     N19492   9.811   5.076   2.459 -0.3984  0.1326  0.9476
  145MOL0     C19493  10.798   4.870   2.633 -1.1566 -0.3332  0.0435
  145MOL0     C19494  10.940   4.853   2.621  0.3337 -0.3255 -0.1494
  145MOL0     C19495  11.363   4.850   2.430 -0.4856 -0.2447  0.4374
  145MOL0     C19496  11.442   4.931   2.341 -0.2801  0.5604  1.0513
  145MOL0     C19497  11.588   4.913   2.338  0.1242 -0.0051  0.9928
  145MOL0     C19498  11.646   4.827   2.427  0.5761 -0.8384  0.2713
  145MOL0     O19499  11.782   4.831   2.426 -0.3950 -0.7967 -0.0266
  145MOL0     C19500  11.853   4.856   2.552  0.3723  0.3999 -0.0853
  145MOL0     C19501  11.982   4.766   2.574  0.1504 -0.6011  0.2029
  145MOL0     C19502  12.070   4.715   2.455 -0.5312 -0.8042 -0.7321
  145MOL0     C19503  12.123   4.820   2.355 -0.2884  0.2977  0.0557
  145MOL0     C19504  12.234   4.888   2.415  0.1758 -1.0256 -0.4392
  145MOL0     C19505  12.334   4.945   2.463  1.0079 -0.2914  0.4631
  145MOL0     C19506  11.569   4.756   2.523  0.5193  0.0666  0.1702
  145MOL0     C19507  11.426   4.764   2.515  0.5363  0.0406  0.5004
  145MOL0     H19508  10.947   4.699   2.316  2.5774  1.9425  1.0491
  145MOL0     H19509  10.707   4.725   2.340 -0.5249  1.4616  0.2971
  145MOL0     H19510  10.500   4.838   2.379 -1.0487  0.8842  0.5866
  145MOL0     H19511  10.488   4.681   2.463  2.7662 -0.3906  2.8500
  145MOL0     H19512  10.356   4.946   2.557 -0.6419 -0.2225  1.3041
  145MOL0     H19513  10.266   4.833   2.458  1.6928 -1.3573 -2.8417
  145MOL0     H19514  10.347   4.658   2.643  0.6756 -0.2972  1.3824
  145MOL0     H19515  10.366   4.801   2.745 -0.8318 -1.3072 -0.4933
  145MOL0     H19516  10.104   4.701   2.602 -3.1442  1.3437  0.9730
  145MOL0     H19517  10.149   4.692   2.769  0.7670  0.1519  0.2167
  145MOL0     H19518  10.155   4.948   2.771  0.3297  1.4517 -1.2225
  145MOL0     H19519  10.081   4.946   2.614 -3.4354 -0.7682 -0.4856
  145MOL0     H19520   9.892   4.813   2.685  2.9484 -1.0678 -1.3338
  145MOL0     H19521   9.963   4.798   2.845  2.0226 -0.2949 -1.3003
  145MOL0     H19522   9.784   4.967   2.840 -0.5113 -0.3909 -2.2000
  145MOL0     H19523   9.935   5.040   2.888 -0.1390 -2.1288  2.2576
  145MOL0     H19524   9.954   5.130   2.648 -1.4618  0.3586 -1.8911
  145MOL0     H19525   9.812   5.190   2.733  2.4220  2.2495 -0.6171
  145MOL0     H19526   9.614   4.927   2.674 -1.6904 -0.3474 -2.4586
  145MOL0     H19527   9.587   4.760   2.359  0.8620  0.8593  0.7660
  145MOL0     H19528   9.492   4.802   2.507 -2.9681 -0.6338 -0.3968
  145MOL0     H19529   9.469   4.951   2.253  0.5759 -2.0259  0.0821
  145MOL0     H19530   9.375   4.971   2.407  1.7503 -0.6909  1.3237
  145MOL0     H19531   9.293   4.731   2.374 -0.0659  0.3270  0.5172
  145MOL0     H19532   9.363   4.740   2.210 -0.3348 -0.9161  0.2742
  145MOL0     H19533   9.232   4.925   2.162  0.2561 -0.7487  0.4735
  145MOL0     H19534   9.146   4.919   2.315 -0.8034  0.2000  0.0653
  145MOL0     H19535   8.961   4.572   2.099  2.4145  0.7214  2.0237
  145MOL0     H19536   8.669   4.552   1.882  0.6718  3.2403 -3.3468
  145MOL0     H19537   8.830   4.537   1.812  0.3068 -0.5629  0.6099
  145MOL0     H19538   8.806   4.464   1.961  3.9708 -0.7379 -2.4672
  145MOL0     H19539   8.507   4.959   1.594  0.5380 -0.1919  0.9687
  145MOL0     H19540   8.272   4.980   1.511  1.7061  0.1345 -0.2956
  145MOL0     H19541   8.068   5.097   1.478  0.1600 -2.8951 -2.8292
  145MOL0     H19542   8.032   4.933   1.507  1.2430  0.1191 -1.1194
  145MOL0     H19543   7.825   5.040   1.619  0.6833 -2.7403 -1.8916
  145MOL0     H19544   7.858   5.188   1.529  1.1143 -0.8937  0.2828
  145MOL0     H19545   7.855   4.909   1.405  1.5366  0.3353  1.2652
  145MOL0     H19546   7.844   5.064   1.316 -1.4308 -2.3360 -1.2315
  145MOL0     H19547   7.643   4.953   1.294  5.5515  1.3371 -2.0775
  145MOL0     H19548   7.620   4.926   1.469 -0.0730 -1.5121 -1.6390
  145MOL0     H19549   7.624   5.187   1.323  1.6311 -1.4398  0.6358
  145MOL0     H19550   7.613   5.161   1.503 -1.3853 -0.1406  1.0152
  145MOL0     H19551   7.415   5.032   1.303 -1.8442 -0.6134  0.6086
  145MOL0     H19552   7.384   5.054   1.470 -2.4012  1.1394 -0.3813
  145MOL0     H19553   7.252   5.210   1.346  0.1107 -3.6119  0.5369
  145MOL0     H19554   7.383   5.282   1.257 -0.8533  1.8157  0.7370
  145MOL0     H19555   7.352   5.438   1.428  2.2472  0.8803 -1.2945
  145MOL0     H19556   7.494   5.356   1.472 -0.6106 -0.0418 -2.7237
  145MOL0     H19557   8.143   5.052   1.917 -0.7906  2.2263 -1.6988
  145MOL0     H19558   8.376   5.024   2.004 -1.8083  0.5562 -0.0366
  145MOL0     H19559   8.776   5.020   2.002 -0.8905 -0.9392 -1.3602
  145MOL0     H19560   9.001   4.994   2.126  2.3383  1.4243 -3.7560
  145MOL0     H19561  10.759   4.929   2.716 -0.3219 -0.1606  0.3233
  145MOL0     H19562  11.003   4.897   2.698 -0.5919 -0.6337  0.8098
  145MOL0     H19563  11.401   5.000   2.268  0.7631 -0.5269 -0.6484
  145MOL0     H19564  11.656   4.968   2.273  0.7373 -0.4990  1.2069
  145MOL0     H19565  11.868   4.963   2.565  3.3434  0.0823 -0.3905
  145MOL0     H19566  11.784   4.833   2.635 -1.2695 -0.8357 -1.6995
  145MOL0     H19567  11.963   4.680   2.639  2.2193 -1.7357 -0.5930
  145MOL0     H19568  12.057   4.822   2.632  0.1177  2.3033 -2.2802
  145MOL0     H19569  12.001   4.654   2.396  1.1122 -0.3394 -3.3149
  145MOL0     H19570  12.150   4.648   2.489  0.6586  0.2471 -1.3417
  145MOL0     H19571  12.046   4.891   2.323 -1.6030 -0.2318  1.8642
  145MOL0     H19572  12.165   4.763   2.272 -0.6464 -3.8026  2.4569
  145MOL0     H19573  12.418   4.981   2.519  0.7971  2.0016 -0.6087
  145MOL0     H19574  11.609   4.697   2.605  0.3900  1.8667  1.5866
  145MOL0     H19575  11.366   4.695   2.573 -2.0113  0.4326 -1.5233
  146MOL0     O19576   5.477   5.027   0.269  0.4074  0.1371  0.3024
  146MOL0     C19577   5.578   5.085   0.225  0.6384  0.7726 -0.0900
  146MOL0     O19578   5.587   5.124   0.093 -0.2713  0.1226  0.5413
  146MOL0     C19579   5.472   5.116   0.017  0.7008 -0.5723  0.1988
  146MOL0     C19580   5.352   5.192   0.048 -0.0878 -0.0395 -0.2868
  146MOL0     C19581   5.244   5.191  -0.045 -0.2498  0.9197 -0.1663
  146MOL0     C19582   5.235   5.098  -0.152  0.1068 -0.6644  0.0838
  146MOL0     O19583   5.114   5.082  -0.214  0.2584  0.3836  0.8162
  146MOL0     C19584   5.101   5.017  -0.343 -0.1957  0.3425 -0.2657
  146MOL0     C19585   4.955   5.030  -0.395  0.9458  0.0044 -0.6445
  146MOL0     C19586   4.843   4.992  -0.302  0.4701 -0.2954  0.2597
  146MOL0     C19587   4.704   5.026  -0.363 -0.2181 -0.9538 -0.4094
  146MOL0     C19588   4.573   4.990  -0.285 -0.9369  0.1361  0.1760
  146MOL0     C19589   4.568   5.053  -0.148  0.5714  0.9538 -0.4300
  146MOL0     C19590   4.437   5.011  -0.072  0.9422  0.0426  0.2374
  146MOL0     C19591   4.458   4.893   0.026  0.0841 -0.9288  0.4828
  146MOL0     N19592   4.505   4.770  -0.027 -0.8914  0.3297  0.1859
  146MOL0     C19593   4.637   4.734  -0.040 -0.7289  0.2345  0.4650
  146MOL0     C19594   4.628   4.603  -0.064 -0.2364  0.4350  0.6330
  146MOL0     C19595   4.746   4.512  -0.109  0.2232  0.5982 -0.0850
  146MOL0     C19596   4.831   4.559  -0.219 -1.1038  0.6391  0.1943
  146MOL0     C19597   4.958   4.471  -0.243  0.6221 -0.7837 -0.2321
  146MOL0     C19598   5.055   4.548  -0.321  0.1338 -0.1971  0.2489
  146MOL0     O19599   5.001   4.594  -0.448 -0.3757 -0.4907  0.4951
  146MOL0     C19600   5.099   4.634  -0.539  0.3482  0.3293  0.2132
  146MOL0     C19601   5.215   4.690  -0.501  0.3667 -0.4595  0.6042
  146MOL0     C19602   5.313   4.721  -0.604  0.7847 -0.1700 -0.6928
  146MOL0     C19603   5.438   4.781  -0.554  0.2637  0.1537  0.1583
  146MOL0     C19604   5.287   4.695  -0.745 -0.5721 -0.0139  0.1516
  146MOL0     C19605   5.386   4.722  -0.851 -0.3022  0.7560 -0.1542
  146MOL0     O19606   5.493   4.799  -0.825 -0.0416 -0.2872  0.0573
  146MOL0     C19607   5.606   4.796  -0.903 -0.3665 -0.5373  0.5481
  146MOL0     C19608   5.661   4.670  -0.946 -0.9279 -0.1303  0.5764
  146MOL0     C19609   5.801   4.664  -0.988  0.2467 -0.5591  0.1319
  146MOL0     C19610   5.881   4.784  -0.987 -0.9329  0.8521  0.0200
  146MOL0     O19611   6.009   4.783  -1.036 -0.1426 -0.1180  0.2148
  146MOL0     C19612   6.103   4.686  -0.973  0.4549 -0.7246 -0.0901
  146MOL0     C19613   6.251   4.718  -1.003 -0.1112 -0.0719 -0.6378
  146MOL0     C19614   6.276   4.870  -0.984  0.5303  0.6304  0.5488
  146MOL0     C19615   6.417   4.899  -1.021 -0.1309  0.4906  0.0451
  146MOL0     C19616   6.475   5.045  -0.995  0.5865  0.9880  0.1665
  146MOL0     C19617   6.610   5.075  -1.065  0.6253 -0.4870 -0.1796
  146MOL0     C19618   6.637   5.221  -1.048  0.0295 -0.1488 -0.3305
  146MOL0     C19619   6.755   5.269  -1.138  0.4715 -0.3618  0.5181
  146MOL0    Cl19620   6.806   5.433  -1.100 -0.6377 -0.0122 -0.1742
  146MOL0     C19621   5.826   4.907  -0.952  0.1843  0.1784  0.0803
  146MOL0     C19622   5.694   4.911  -0.906  0.6776  0.0017 -0.0252
  146MOL0     O19623   5.369   4.654  -0.956 -0.4580  0.3344  0.3209
  146MOL0     C19624   5.165   4.636  -0.778  0.2331 -0.2889 -0.4420
  146MOL0     C19625   5.074   4.605  -0.677  1.0216  0.1332 -0.5663
  146MOL0     N19626   4.496   4.555  -0.067  0.5227 -0.5819 -0.0819
  146MOL0     N19627   4.422   4.659  -0.037  0.0538  0.5432 -0.8279
  146MOL0     C19628   5.352   5.022  -0.168  0.3035  0.4502  0.7133
  146MOL0     C19629   5.471   5.031  -0.096 -0.2265 -1.4925 -0.3294
  146MOL0     C19630   5.696   5.111   0.314  0.2053  0.4695 -0.4144
  146MOL0     C19631   5.825   5.140   0.268 -1.2052 -0.3983 -0.1238
  146MOL0     C19632   5.931   5.156   0.361 -0.7183 -0.9858 -0.8786
  146MOL0     C19633   5.905   5.157   0.499  0.3104 -0.5999 -0.1953
  146MOL0     O19634   5.997   5.185   0.595  0.6744  0.1172  0.3566
  146MOL0     C19635   6.119   5.254   0.559  0.3679 -0.0462  0.0463
  146MOL0     C19636   6.216   5.259   0.679 -0.5798 -0.6805  0.3914
  146MOL0     C19637   6.299   5.130   0.690 -0.0336 -0.9455  0.3037
  146MOL0     C19638   6.217   5.015   0.744 -0.1788 -1.1245  0.6842
  146MOL0     C19639   6.296   4.927   0.830  0.0902  0.4668 -0.0197
  146MOL0     C19640   6.375   4.872   0.903 -0.4555  1.1520  0.1905
  146MOL0     C19641   5.773   5.139   0.543  0.1985 -0.8193 -0.6855
  146MOL0     C19642   5.673   5.101   0.457  0.3934  0.3736  0.1513
  146MOL0     H19643   5.344   5.262   0.131  2.8012 -0.8008  0.7765
  146MOL0     H19644   5.165   5.257  -0.011 -1.1925 -1.5972  3.1172
  146MOL0     H19645   5.172   5.060  -0.414  2.8760 -4.1188 -0.2826
  146MOL0     H19646   5.129   4.914  -0.318 -0.9005  0.7736  2.5330
  146MOL0     H19647   4.940   5.136  -0.414  1.4261  0.9134  3.2132
  146MOL0     H19648   4.946   4.971  -0.487 -1.9211 -1.0633  0.2174
  146MOL0     H19649   4.858   4.887  -0.273  1.4960 -0.4762 -0.8356
  146MOL0     H19650   4.856   5.052  -0.211  0.4682 -0.8249  0.6184
  146MOL0     H19651   4.696   5.135  -0.376 -2.0415 -1.0033  0.0391
  146MOL0     H19652   4.693   4.974  -0.459 -0.8664 -3.2941  0.8522
  146MOL0     H19653   4.484   5.011  -0.345 -1.8162 -1.8043  0.7171
  146MOL0     H19654   4.580   4.882  -0.272  1.8597  0.5039  2.9889
  146MOL0     H19655   4.650   5.031  -0.080 -1.1574 -3.2237  0.6448
  146MOL0     H19656   4.573   5.162  -0.149  2.3171  0.9430  1.3405
  146MOL0     H19657   4.401   5.101  -0.023  2.4406  1.1315 -0.5865
  146MOL0     H19658   4.360   4.982  -0.144  1.1314  1.0610 -0.3892
  146MOL0     H19659   4.363   4.876   0.078  0.8006  1.1618  2.6929
  146MOL0     H19660   4.532   4.937   0.094 -1.1185 -0.8698  1.7915
  146MOL0     H19661   4.729   4.791  -0.046 -1.5147  1.5225  0.4575
  146MOL0     H19662   4.813   4.504  -0.023  0.5286 -0.8179 -0.4416
  146MOL0     H19663   4.703   4.414  -0.130 -3.2409  1.7561  0.8502
  146MOL0     H19664   4.869   4.659  -0.196 -1.9690  1.3528 -1.3790
  146MOL0     H19665   4.781   4.556  -0.316 -0.9389 -0.9277  0.1236
  146MOL0     H19666   4.929   4.377  -0.292 -0.6771 -1.0547  0.9906
  146MOL0     H19667   5.007   4.451  -0.146  0.6100 -1.6577 -0.3923
  146MOL0     H19668   5.146   4.488  -0.329 -0.6261 -1.0850 -3.8593
  146MOL0     H19669   5.077   4.640  -0.267 -1.6064  0.0549  0.5943
  146MOL0     H19670   5.236   4.713  -0.397  1.3756  0.5174  0.2037
  146MOL0     H19671   5.528   4.730  -0.587  1.3712  2.4882 -0.6475
  146MOL0     H19672   5.440   4.882  -0.595 -0.2035 -0.9498 -2.7879
  146MOL0     H19673   5.439   4.783  -0.444  1.3174 -1.3488  0.2091
  146MOL0     H19674   5.617   4.571  -0.941 -1.5809 -0.2583 -3.6252
  146MOL0     H19675   5.837   4.569  -1.025  1.0415  1.0732 -3.6460
  146MOL0     H19676   6.078   4.700  -0.868 -0.1708  2.1902 -0.5495
  146MOL0     H19677   6.085   4.585  -1.010  0.0893 -0.0467 -1.8916
  146MOL0     H19678   6.314   4.657  -0.937  0.1395 -0.9206 -1.6305
  146MOL0     H19679   6.287   4.686  -1.101  2.6744 -1.3014  0.6596
  146MOL0     H19680   6.275   4.888  -0.876  2.9023 -0.8028  0.8661
  146MOL0     H19681   6.208   4.939  -1.035  1.9039  2.0567  0.5757
  146MOL0     H19682   6.483   4.843  -0.954  1.9472  0.4562 -1.9162
  146MOL0     H19683   6.423   4.866  -1.125 -0.3469 -1.6082  0.6547
  146MOL0     H19684   6.492   5.059  -0.888 -0.3663 -1.0749  0.6384
  146MOL0     H19685   6.402   5.123  -1.018 -0.5257  0.1187  0.6495
  146MOL0     H19686   6.682   5.016  -1.007  0.3207  0.3914  1.1180
  146MOL0     H19687   6.617   5.050  -1.171  0.0430 -4.0863  0.4768
  146MOL0     H19688   6.657   5.241  -0.942  0.2091  1.4364 -0.6379
  146MOL0     H19689   6.556   5.285  -1.083  0.1382 -0.3122 -0.9021
  146MOL0     H19690   6.726   5.256  -1.243  1.8464 -3.8128  0.4202
  146MOL0     H19691   6.836   5.197  -1.122 -1.1222 -2.2310  0.4682
  146MOL0     H19692   5.879   5.002  -0.947 -0.0924  0.3073  0.7213
  146MOL0     H19693   5.642   4.997  -0.864  1.2859  0.3059  0.1082
  146MOL0     H19694   5.143   4.621  -0.883  5.8092  3.6065 -2.6704
  146MOL0     H19695   4.982   4.550  -0.696  0.2292  1.7737 -1.6637
  146MOL0     H19696   5.342   4.951  -0.250 -0.5216 -0.2144  1.3708
  146MOL0     H19697   5.562   4.979  -0.124  0.7069 -0.3335  0.4512
  146MOL0     H19698   5.848   5.153   0.162  2.0534  2.8718  0.7484
  146MOL0     H19699   6.031   5.179   0.326 -1.3730 -0.9235 -2.8319
  146MOL0     H19700   6.169   5.206   0.475  1.4379  1.5063 -0.2377
  146MOL0     H19701   6.084   5.349   0.517  0.8821  0.3468  0.5051
  146MOL0     H19702   6.161   5.275   0.773 -0.2875  2.5265  0.1404
  146MOL0     H19703   6.284   5.344   0.668  0.2499 -1.6932 -3.4696
  146MOL0     H19704   6.384   5.158   0.752 -0.7361  3.1364 -0.2672
  146MOL0     H19705   6.331   5.102   0.589 -3.3250 -2.8858 -0.3506
  146MOL0     H19706   6.177   4.950   0.666  1.8575  0.1559 -1.5654
  146MOL0     H19707   6.128   5.040   0.803 -0.9141 -1.2027 -0.3710
  146MOL0     H19708   6.447   4.805   0.946 -1.7173 -0.9497 -0.7640
  146MOL0     H19709   5.758   5.143   0.650  2.0375 -0.4870 -0.4160
  146MOL0     H19710   5.578   5.064   0.495 -0.9198  2.0152 -1.3327
  147MOL0     O19711   3.868  10.644   0.360  0.0202 -0.5456 -0.2781
  147MOL0     C19712   3.866  10.737   0.284 -0.1070 -0.1238  0.0549
  147MOL0     O19713   3.968  10.818   0.256  0.3262  0.0717  0.0962
  147MOL0     C19714   4.096  10.802   0.312  0.1144  0.3285 -0.1824
  147MOL0     C19715   4.173  10.914   0.297 -0.7660 -0.7547 -0.1095
  147MOL0     C19716   4.304  10.913   0.337 -0.4098  1.4315 -0.2078
  147MOL0     C19717   4.366  10.792   0.382  0.2678 -0.6247 -0.4683
  147MOL0     O19718   4.501  10.802   0.405 -0.1322  0.5657  0.5424
  147MOL0     C19719   4.577  10.686   0.414 -0.2269 -0.1515  0.2739
  147MOL0     C19720   4.708  10.703   0.332  0.1480 -0.2069 -1.0701
  147MOL0     C19721   4.785  10.810   0.393 -1.0378  0.4570  0.2229
  147MOL0     C19722   4.928  10.824   0.338  0.2148  0.1903  0.3188
  147MOL0     C19723   5.021  10.909   0.417  1.0725  0.5560  0.0146
  147MOL0     C19724   5.180  10.937   0.377  0.0575 -0.5227  0.2653
  147MOL0     C19725   5.192  11.043   0.261 -0.8312 -0.3682 -0.9225
  147MOL0     C19726   5.335  11.100   0.237 -0.2781 -0.6542  0.4511
  147MOL0     N19727   5.353  11.175   0.109  0.3808  0.3115 -0.2232
  147MOL0     C19728   5.289  11.159  -0.015 -1.1289  0.6480 -0.8769
  147MOL0     C19729   5.326  11.265  -0.096  0.2363 -0.4052 -0.1433
  147MOL0     C19730   5.272  11.293  -0.234 -0.3447 -0.3259 -0.0780
  147MOL0     C19731   5.182  11.181  -0.294 -0.5640 -0.6521 -0.4574
  147MOL0     C19732   5.149  11.191  -0.434 -0.6646 -0.0766 -0.0068
  147MOL0     C19733   5.268  11.151  -0.532 -0.3405  0.4117  0.4150
  147MOL0     O19734   5.254  11.174  -0.675  0.2294 -0.3650  0.6746
  147MOL0     C19735   5.368  11.170  -0.760  0.8588 -0.1209  0.0688
  147MOL0     C19736   5.344  11.184  -0.895 -0.1032  0.1410  0.2940
  147MOL0     C19737   5.445  11.168  -0.989 -0.4103 -0.0664 -0.8099
  147MOL0     C19738   5.408  11.176  -1.139  0.1303 -0.1270 -0.1717
  147MOL0     C19739   5.583  11.138  -0.953 -0.4075 -0.1088 -0.2634
  147MOL0     C19740   5.702  11.135  -1.038 -0.0598  0.2281  0.4714
  147MOL0     O19741   5.811  11.069  -0.994 -0.1874  0.2510  0.0361
  147MOL0     C19742   5.919  11.040  -1.078  0.7639 -0.6797  0.3139
  147MOL0     C19743   5.891  10.973  -1.207  0.0908  0.0938 -0.8788
  147MOL0     C19744   5.991  10.949  -1.303 -0.1069 -0.6087 -0.4797
  147MOL0     C19745   6.124  10.964  -1.268 -0.7275  0.1758  0.0887
  147MOL0     O19746   6.224  10.948  -1.361 -0.1414 -0.0075  0.1700
  147MOL0     C19747   6.234  10.814  -1.416 -0.3272 -0.5556  0.0665
  147MOL0     C19748   6.382  10.759  -1.413  0.6488 -0.1980 -0.5189
  147MOL0     C19749   6.476  10.832  -1.506  0.0428 -0.2976  0.0533
  147MOL0     C19750   6.617  10.774  -1.483  0.3872  0.8351  0.2216
  147MOL0     C19751   6.723  10.879  -1.537  1.4907  0.0925 -0.9665
  147MOL0     C19752   6.864  10.822  -1.547  0.6173  0.4690 -0.1404
  147MOL0     C19753   6.964  10.931  -1.596 -0.1738  0.8959 -0.2303
  147MOL0     C19754   7.106  10.889  -1.559  0.0019  0.3856  0.9219
  147MOL0    Cl19755   7.129  10.907  -1.381  0.3223 -0.2005 -0.0274
  147MOL0     C19756   6.152  11.032  -1.143 -0.0507  0.7242 -0.0967
  147MOL0     C19757   6.051  11.068  -1.049  0.1354  0.1171  0.1247
  147MOL0     O19758   5.695  11.191  -1.148  0.0188 -0.4731  0.3590
  147MOL0     C19759   5.603  11.116  -0.814 -0.4163 -0.6177  0.0572
  147MOL0     C19760   5.501  11.132  -0.720  0.4815  0.0587  0.0230
  147MOL0     N19761   5.408  11.345  -0.022  0.3544 -0.3262  0.0945
  147MOL0     N19762   5.433  11.288   0.100 -0.2138 -0.0827 -0.9379
  147MOL0     C19763   4.287  10.686   0.407  0.3806 -0.3758 -0.1904
  147MOL0     C19764   4.148  10.690   0.375  0.3432 -0.5577 -0.0783
  147MOL0     C19765   3.734  10.784   0.243  0.5183 -0.1296 -0.6286
  147MOL0     C19766   3.610  10.720   0.287 -0.6845 -0.6081  0.3327
  147MOL0     C19767   3.491  10.778   0.259 -0.0694 -0.6662  0.0888
  147MOL0     C19768   3.474  10.896   0.189 -0.2637 -0.7444  0.6502
  147MOL0     O19769   3.347  10.924   0.159 -0.8028 -0.1310  0.1937
  147MOL0     C19770   3.340  11.011   0.042  0.5475 -0.4335 -0.1748
  147MOL0     C19771   3.196  11.056   0.024  0.0434  0.3670  0.3055
  147MOL0     C19772   3.110  10.931   0.013 -0.2752  0.9309 -0.3885
  147MOL0     C19773   2.955  10.946  -0.010 -0.7601 -0.8050  0.1512
  147MOL0     C19774   2.897  11.015   0.105  0.7509  0.7801  0.4865
  147MOL0     C19775   2.855  11.076   0.198 -0.6568 -0.4219  0.1952
  147MOL0     C19776   3.591  10.968   0.156  0.0092  0.1537  0.0427
  147MOL0     C19777   3.717  10.909   0.179  0.4758 -0.5194  0.7636
  147MOL0     H19778   4.133  11.001   0.246  0.7634  2.4806  3.6633
  147MOL0     H19779   4.363  11.002   0.317  0.2281  0.4545 -3.1014
  147MOL0     H19780   4.599  10.669   0.519 -0.2003  0.0238  0.2980
  147MOL0     H19781   4.525  10.602   0.367 -1.6259  1.3993 -1.1240
  147MOL0     H19782   4.761  10.608   0.342 -1.2002 -1.0039 -1.2455
  147MOL0     H19783   4.674  10.729   0.231  0.0023  0.6125 -0.8162
  147MOL0     H19784   4.732  10.905   0.380  0.8339  1.5009 -0.2004
  147MOL0     H19785   4.793  10.785   0.499 -2.2790 -2.9682 -0.3831
  147MOL0     H19786   4.978  10.727   0.333  1.5096  0.8772 -0.7140
  147MOL0     H19787   4.910  10.860   0.236 -2.4332 -0.8242  0.3687
  147MOL0     H19788   4.960  11.000   0.414 -2.1385 -1.4256 -1.1337
  147MOL0     H19789   5.021  10.880   0.522 -0.4351 -2.0321 -0.6129
  147MOL0     H19790   5.245  10.982   0.452  1.0176  0.6348 -1.2186
  147MOL0     H19791   5.231  10.843   0.352  2.6550  1.2034 -1.2709
  147MOL0     H19792   5.161  10.992   0.169  0.2843 -1.8391 -0.5240
  147MOL0     H19793   5.123  11.124   0.287  0.2767 -0.0222  1.1048
  147MOL0     H19794   5.406  11.017   0.243 -1.2578 -1.5169  0.3812
  147MOL0     H19795   5.348  11.166   0.323  0.0748 -1.2806  0.8856
  147MOL0     H19796   5.237  11.069  -0.046  2.3173 -2.1211  0.6639
  147MOL0     H19797   5.218  11.388  -0.227  0.3127 -0.0487  1.7981
  147MOL0     H19798   5.364  11.303  -0.292  0.2557 -1.1512  0.7080
  147MOL0     H19799   5.092  11.166  -0.233 -2.1488  1.8630 -1.9969
  147MOL0     H19800   5.245  11.092  -0.290 -1.5731 -1.3863 -0.6220
  147MOL0     H19801   5.119  11.296  -0.440 -2.6042 -0.2996  3.2130
  147MOL0     H19802   5.063  11.132  -0.465 -3.3146  4.5571 -2.4401
  147MOL0     H19803   5.296  11.051  -0.500 -0.8698  1.1058  3.4313
  147MOL0     H19804   5.352  11.212  -0.496 -0.6232  1.5994 -0.8444
  147MOL0     H19805   5.240  11.200  -0.922 -0.6041  1.4716  2.7707
  147MOL0     H19806   5.300  11.164  -1.153  0.2598 -1.7086 -0.0597
  147MOL0     H19807   5.429  11.270  -1.191 -2.8545 -0.8119 -2.9936
  147MOL0     H19808   5.459  11.105  -1.205  1.5072  1.4870 -0.9064
  147MOL0     H19809   5.787  10.955  -1.234 -0.6942  3.1982 -0.3235
  147MOL0     H19810   5.958  10.915  -1.401  0.6709 -3.6642  0.2410
  147MOL0     H19811   6.175  10.740  -1.362  0.2506 -0.1052  1.3462
  147MOL0     H19812   6.194  10.805  -1.518 -2.6620 -0.9354  0.9582
  147MOL0     H19813   6.411  10.762  -1.308 -1.0935 -1.2370  0.0424
  147MOL0     H19814   6.380  10.654  -1.443 -1.9765 -0.9361  1.8474
  147MOL0     H19815   6.477  10.941  -1.497  2.8466 -0.1714 -0.9323
  147MOL0     H19816   6.436  10.810  -1.605 -0.5518  0.1868  0.1783
  147MOL0     H19817   6.641  10.757  -1.377  0.6694  3.5439  0.6503
  147MOL0     H19818   6.621  10.675  -1.529 -0.1110  1.3006 -0.8566
  147MOL0     H19819   6.720  10.966  -1.471 -1.3823 -0.4427 -0.2125
  147MOL0     H19820   6.686  10.910  -1.635  1.4654  1.8409 -0.4339
  147MOL0     H19821   6.895  10.798  -1.445  3.0223  1.1566 -0.6235
  147MOL0     H19822   6.859  10.733  -1.610  0.0995  0.3282  0.0956
  147MOL0     H19823   6.956  11.019  -1.532  1.5014 -0.7833  2.5534
  147MOL0     H19824   6.957  10.954  -1.702  2.6816 -3.3783 -1.6231
  147MOL0     H19825   7.179  10.938  -1.623 -0.3382  1.5259  1.3766
  147MOL0     H19826   7.121  10.783  -1.582  1.1236  1.0030 -1.5347
  147MOL0     H19827   6.257  11.045  -1.120  0.2001 -1.2732  0.0137
  147MOL0     H19828   6.074  11.115  -0.954 -1.4215  0.1914  0.4859
  147MOL0     H19829   5.699  11.081  -0.780 -2.0362 -3.3164  2.3332
  147MOL0     H19830   5.527  11.110  -0.617  1.5011  1.1557  0.0200
  147MOL0     H19831   4.340  10.598   0.441 -0.2988  0.6111  4.0060
  147MOL0     H19832   4.098  10.594   0.381  0.8455 -0.9589 -1.8347
  147MOL0     H19833   3.629  10.628   0.342  1.3983  0.2989  1.2688
  147MOL0     H19834   3.401  10.721   0.282 -0.2968 -1.0739 -1.6750
  147MOL0     H19835   3.393  11.104   0.063 -4.0461  2.2065  1.2161
  147MOL0     H19836   3.387  10.967  -0.047  2.1114  0.0989  0.3488
  147MOL0     H19837   3.182  11.116  -0.066  0.1088 -0.2318 -0.1039
  147MOL0     H19838   3.166  11.127   0.103  1.8804  2.2842 -0.6181
  147MOL0     H19839   3.117  10.885   0.112 -0.7696 -0.3571 -0.9224
  147MOL0     H19840   3.160  10.856  -0.050  1.3487  2.1027 -0.5514
  147MOL0     H19841   2.904  10.850  -0.015 -0.5062 -0.9630  0.4816
  147MOL0     H19842   2.948  11.007  -0.100  0.2792  0.0962  0.6510
  147MOL0     H19843   2.816  11.130   0.282 -1.2939 -3.7169  2.1917
  147MOL0     H19844   3.597  11.065   0.109  1.8589  0.4949  0.8871
  147MOL0     H19845   3.797  10.976   0.149 -2.1176  2.6785  0.4374
  148MOL0     O19846   0.906   6.981   5.429 -0.3042  0.0290  0.4297
  148MOL0     C19847   0.955   6.954   5.317 -0.4747 -0.0416  0.2017
  148MOL0     O19848   0.886   6.945   5.199 -0.1774 -0.0795 -0.7211
  148MOL0     C19849   0.743   6.953   5.197  0.5687 -0.3243  0.3667
  148MOL0     C19850   0.663   6.903   5.299 -0.0794 -0.1208 -0.8793
  148MOL0     C19851   0.525   6.904   5.299 -0.6220 -0.6609  0.0416
  148MOL0     C19852   0.461   6.955   5.181 -0.3883  0.1099 -0.4019
  148MOL0     O19853   0.321   6.959   5.166 -0.0617  0.9474 -0.0891
  148MOL0     C19854   0.236   6.959   5.277  0.1282 -1.0847  0.9361
  148MOL0     C19855   0.102   7.011   5.233  0.2490  0.5466  0.6292
  148MOL0     C19856   0.023   6.925   5.127  0.0700 -0.1155 -0.7418
  148MOL0     C19857  -0.115   6.989   5.106 -0.6088 -0.0267  1.5180
  148MOL0     C19858  -0.205   6.982   5.225  0.3945  0.3032 -0.3233
  148MOL0     C19859  -0.271   7.112   5.266  0.8732  0.3665 -0.3381
  148MOL0     C19860  -0.175   7.217   5.303 -0.4199 -0.2063 -0.1143
  148MOL0     C19861  -0.255   7.330   5.372 -0.0455  0.0428  0.4829
  148MOL0     N19862  -0.361   7.379   5.287  0.7824  0.2029 -0.5581
  148MOL0     C19863  -0.347   7.442   5.165 -0.7371 -0.1779  0.2150
  148MOL0     C19864  -0.476   7.462   5.122  0.3379  0.0336 -0.1713
  148MOL0     C19865  -0.501   7.512   4.989  0.3734 -0.7232  0.2903
  148MOL0     C19866  -0.644   7.523   4.946  0.0067  0.5125  0.5265
  148MOL0     C19867  -0.663   7.621   4.828 -0.0815  0.8060 -0.1582
  148MOL0     C19868  -0.806   7.681   4.825  0.2152  1.3219 -0.1994
  148MOL0     O19869  -0.816   7.793   4.913 -0.3119 -0.1227  0.4290
  148MOL0     C19870  -0.918   7.885   4.895 -0.7994 -0.6187 -0.8475
  148MOL0     C19871  -0.879   8.016   4.910  0.0522  0.4907 -0.1591
  148MOL0     C19872  -0.986   8.115   4.907 -0.5199  0.9473  0.9778
  148MOL0     C19873  -0.947   8.261   4.915  0.2718 -0.0969  0.2605
  148MOL0     C19874  -1.122   8.077   4.893  0.5324  0.0143 -1.0184
  148MOL0     C19875  -1.245   8.174   4.889  0.1923 -0.0759  0.0697
  148MOL0     O19876  -1.355   8.136   4.809 -0.3437  0.2157  0.4968
  148MOL0     C19877  -1.459   8.216   4.805 -0.1781 -0.9158 -0.3735
  148MOL0     C19878  -1.539   8.253   4.910 -0.1702  0.0700 -0.1875
  148MOL0     C19879  -1.665   8.312   4.869  0.3325 -0.0618 -0.5850
  148MOL0     C19880  -1.707   8.351   4.740  0.0366  0.0780 -0.2858
  148MOL0     O19881  -1.839   8.402   4.726  0.2009 -0.0385 -0.2219
  148MOL0     C19882  -1.856   8.465   4.601  0.4505 -0.0740 -0.2628
  148MOL0     C19883  -1.977   8.557   4.582  0.2390  0.6278  0.8637
  148MOL0     C19884  -1.979   8.684   4.661 -0.3187  1.1918  0.6200
  148MOL0     C19885  -2.115   8.749   4.662 -0.1557  0.5898  0.0959
  148MOL0     C19886  -2.102   8.882   4.728  0.0697  0.0932 -0.1597
  148MOL0     C19887  -2.235   8.957   4.725 -0.0565 -1.4425 -0.0131
  148MOL0     C19888  -2.342   8.922   4.831  0.1523  0.3814 -0.3363
  148MOL0     C19889  -2.475   8.886   4.772 -0.6440 -0.4722 -0.2935
  148MOL0    Cl19890  -2.567   9.029   4.716 -0.0427  0.5051 -0.2952
  148MOL0     C19891  -1.602   8.341   4.646 -0.3467 -0.4718 -0.3608
  148MOL0     C19892  -1.490   8.263   4.672 -0.7730  0.6056  0.0208
  148MOL0     O19893  -1.231   8.279   4.943 -0.4307 -0.5672 -0.1099
  148MOL0     C19894  -1.151   7.940   4.874 -0.4454  0.4018 -0.2315
  148MOL0     C19895  -1.049   7.845   4.892  0.1337 -0.1136 -0.3768
  148MOL0     N19896  -0.565   7.414   5.215  0.3977  0.1072  0.4436
  148MOL0     N19897  -0.494   7.356   5.313 -0.2263  0.0923  0.1942
  148MOL0     C19898   0.538   6.992   5.074  0.5296  0.8345  0.6700
  148MOL0     C19899   0.677   6.994   5.081  0.4694  0.1086 -0.5943
  148MOL0     C19900   1.104   6.934   5.312  0.8392 -0.4228  0.5759
  148MOL0     C19901   1.182   6.889   5.415  0.0614 -0.0560  0.3063
  148MOL0     C19902   1.319   6.863   5.402  0.5337 -0.4357 -0.5434
  148MOL0     C19903   1.381   6.880   5.280 -0.4179 -0.6500 -0.7185
  148MOL0     O19904   1.503   6.832   5.262 -0.3060  0.4499  0.5881
  148MOL0     C19905   1.615   6.916   5.293 -0.6450 -1.0040 -0.2306
  148MOL0     C19906   1.753   6.837   5.284 -0.2133  0.0815 -0.5111
  148MOL0     C19907   1.875   6.922   5.308 -0.1496  0.0128 -0.1194
  148MOL0     C19908   1.994   6.848   5.244  0.0481  0.4110 -0.6268
  148MOL0     C19909   2.119   6.903   5.300 -0.1527  0.7741  0.1838
  148MOL0     C19910   2.219   6.954   5.347 -0.2464  0.0247  0.2584
  148MOL0     C19911   1.307   6.936   5.176 -0.8070 -0.0823 -0.4604
  148MOL0     C19912   1.169   6.957   5.191  0.4306 -0.1723 -0.0261
  148MOL0     H19913   0.713   6.860   5.385  2.3539  1.4778 -1.3938
  148MOL0     H19914   0.461   6.871   5.380 -1.8295  1.7182  0.1358
  148MOL0     H19915   0.227   6.855   5.310  0.8931 -0.7490  2.2803
  148MOL0     H19916   0.286   7.009   5.359  2.2194 -0.4267 -0.6620
  148MOL0     H19917   0.037   7.015   5.322 -1.6075  3.6472 -0.6660
  148MOL0     H19918   0.126   7.109   5.190  0.8774  0.7357  1.3954
  148MOL0     H19919   0.078   6.941   5.034 -0.2226  0.7537 -0.7720
  148MOL0     H19920   0.013   6.819   5.151 -2.8842 -0.1495 -1.7410
  148MOL0     H19921  -0.099   7.092   5.075 -0.0913 -0.2340  1.0881
  148MOL0     H19922  -0.176   6.936   5.032  0.7065 -2.1687  1.8772
  148MOL0     H19923  -0.279   6.907   5.195 -0.4890  1.2334 -0.5538
  148MOL0     H19924  -0.166   6.937   5.317 -1.7923 -0.9744  0.0660
  148MOL0     H19925  -0.341   7.148   5.190 -1.7682 -0.4824  1.5433
  148MOL0     H19926  -0.330   7.082   5.353  1.2934 -2.4448 -0.9462
  148MOL0     H19927  -0.113   7.174   5.381 -1.4706 -1.5692 -0.0012
  148MOL0     H19928  -0.120   7.257   5.217 -1.9510 -0.0622 -1.0719
  148MOL0     H19929  -0.179   7.407   5.391  1.2812 -1.0907 -0.0952
  148MOL0     H19930  -0.316   7.290   5.454 -0.8384 -1.1699 -0.6684
  148MOL0     H19931  -0.265   7.443   5.094  1.0237 -2.5062  2.0737
  148MOL0     H19932  -0.455   7.611   4.983  1.7475 -1.3128  0.6610
  148MOL0     H19933  -0.454   7.452   4.911 -1.6075 -1.6290 -0.2637
  148MOL0     H19934  -0.700   7.562   5.032 -0.9026 -0.6701  0.4935
  148MOL0     H19935  -0.677   7.421   4.927 -3.7907  1.4601  1.1363
  148MOL0     H19936  -0.662   7.557   4.740 -1.2887 -4.0762  3.0178
  148MOL0     H19937  -0.582   7.694   4.817 -0.0360  0.6145 -1.2155
  148MOL0     H19938  -0.866   7.601   4.868  1.2511  0.4991 -0.2258
  148MOL0     H19939  -0.820   7.684   4.716  1.2338 -1.2461 -0.4723
  148MOL0     H19940  -0.773   8.035   4.901  0.7543 -2.0781  1.5309
  148MOL0     H19941  -0.840   8.283   4.905  0.2537  1.7701  3.1253
  148MOL0     H19942  -0.997   8.314   4.834  1.0218  0.5037  0.1795
  148MOL0     H19943  -0.978   8.302   5.011 -0.0813  1.8157 -0.6367
  148MOL0     H19944  -1.507   8.230   5.011  2.1279  0.0379 -0.8643
  148MOL0     H19945  -1.739   8.324   4.947  2.6657  1.8958  1.4980
  148MOL0     H19946  -1.774   8.533   4.575 -0.0274  0.6833  0.1660
  148MOL0     H19947  -1.855   8.376   4.538  1.0448 -0.9570  0.9621
  148MOL0     H19948  -1.980   8.581   4.475  0.3409  1.7796  1.1064
  148MOL0     H19949  -2.064   8.494   4.602 -0.9844  0.8484 -2.8819
  148MOL0     H19950  -1.904   8.755   4.625  1.9877 -1.3209  0.2248
  148MOL0     H19951  -1.953   8.669   4.766 -4.5326  3.2637  2.2056
  148MOL0     H19952  -2.158   8.765   4.563 -2.3410 -0.5856  0.7829
  148MOL0     H19953  -2.186   8.688   4.718  0.8463 -1.7477 -1.0439
  148MOL0     H19954  -2.034   8.945   4.671 -0.9514 -0.0512 -1.5888
  148MOL0     H19955  -2.066   8.875   4.831  0.4347  0.2883 -0.2729
  148MOL0     H19956  -2.224   9.065   4.732 -0.3534 -1.5412  3.6800
  148MOL0     H19957  -2.284   8.939   4.629 -2.8626 -3.4652  1.6314
  148MOL0     H19958  -2.347   8.995   4.913 -2.5816  2.9475 -2.5631
  148MOL0     H19959  -2.308   8.828   4.875  0.3785  1.1277  1.1320
  148MOL0     H19960  -2.530   8.826   4.846 -0.3175 -0.2209  0.1587
  148MOL0     H19961  -2.461   8.818   4.688 -2.6082  0.6955 -1.6749
  148MOL0     H19962  -1.617   8.369   4.542  1.2593  1.3747 -0.1598
  148MOL0     H19963  -1.431   8.233   4.587  2.6560 -0.2330  2.4637
  148MOL0     H19964  -1.254   7.908   4.863 -1.0575  2.6759 -1.9865
  148MOL0     H19965  -1.059   7.740   4.867  1.5841 -0.6357  1.0483
  148MOL0     H19966   0.487   7.021   4.983  1.1155 -0.7195 -0.1871
  148MOL0     H19967   0.734   7.036   4.999 -1.1442  1.7598 -0.9459
  148MOL0     H19968   1.135   6.853   5.506  1.3776 -1.1471  0.5946
  148MOL0     H19969   1.377   6.836   5.490  1.7717  3.0745 -0.1501
  148MOL0     H19970   1.625   6.999   5.222  1.2516 -1.3628 -0.4274
  148MOL0     H19971   1.602   6.967   5.389 -2.3495 -1.7390 -0.0307
  148MOL0     H19972   1.752   6.802   5.180 -1.9337  0.2433 -0.5713
  148MOL0     H19973   1.747   6.746   5.344  1.1592  0.8592  0.8541
  148MOL0     H19974   1.891   6.944   5.415  0.0989  0.4683 -0.2434
  148MOL0     H19975   1.873   7.018   5.255 -1.9526 -1.4965 -3.0133
  148MOL0     H19976   1.987   6.850   5.135 -6.6971  1.0053 -0.6107
  148MOL0     H19977   1.982   6.742   5.270 -0.3849 -0.1614 -2.9388
  148MOL0     H19978   2.303   7.001   5.393  1.3159 -0.9085 -1.5188
  148MOL0     H19979   1.354   6.955   5.080 -0.3598  3.0965  0.2728
  148MOL0     H19980   1.125   7.000   5.102  0.1984 -0.6537 -0.1457
  149MOL0     O19981   8.611   2.670   9.800 -0.1113 -0.3614 -0.0881
  149MOL0     C19982   8.572   2.558   9.834 -0.1892 -0.4397 -0.2104
  149MOL0     O19983   8.444   2.521   9.843  0.1067  0.3243 -0.1449
  149MOL0     C19984   8.344   2.605   9.803 -0.6559  0.5961 -0.0805
  149MOL0     C19985   8.328   2.710   9.885  0.8958 -0.0956  0.0499
  149MOL0     C19986   8.221   2.800   9.860 -0.6106 -0.2419  0.4840
  149MOL0     C19987   8.135   2.785   9.750 -0.2702  0.2131 -1.2884
  149MOL0     O19988   8.049   2.884   9.728 -0.4864 -0.4164  0.7441
  149MOL0     C19989   7.982   2.890   9.601 -0.1556  0.7797 -0.7390
  149MOL0     C19990   7.897   3.016   9.605 -0.2317  0.5469 -0.8516
  149MOL0     C19991   7.824   3.029   9.471  0.0682  0.2826  0.0219
  149MOL0     C19992   7.736   3.150   9.465  0.3823  0.5132 -1.0808
  149MOL0     C19993   7.679   3.171   9.323 -0.1927  0.5827 -0.2339
  149MOL0     C19994   7.570   3.060   9.287  0.6074  0.2028 -0.3886
  149MOL0     C19995   7.475   3.110   9.177 -0.4357 -0.5963 -0.2713
  149MOL0     C19996   7.469   3.029   9.049  0.0985  0.2527 -0.2543
  149MOL0     N19997   7.355   3.076   8.967 -0.2644  0.4620 -0.0648
  149MOL0     C19998   7.234   3.019   8.948  0.7176 -0.4516 -0.0795
  149MOL0     C19999   7.191   3.044   8.820 -0.0220 -0.0598  0.6946
  149MOL0     C20000   7.079   2.997   8.735  0.5332  0.0561  0.1599
  149MOL0     C20001   6.990   3.114   8.692  0.5487 -0.2315 -0.2588
  149MOL0     C20002   6.867   3.072   8.622  0.6278  0.2052  0.6902
  149MOL0     C20003   6.753   3.037   8.724 -0.3929  0.3592 -0.9296
  149MOL0     O20004   6.631   3.071   8.658 -0.4890 -1.0622  0.4089
  149MOL0     C20005   6.519   3.072   8.738 -0.1436 -0.3199  0.7962
  149MOL0     C20006   6.503   3.046   8.875 -0.7315  0.3240 -0.0708
  149MOL0     C20007   6.383   3.053   8.945 -0.4072  0.1436 -0.3937
  149MOL0     C20008   6.381   3.041   9.098  0.5661  0.0574 -0.9927
  149MOL0     C20009   6.263   3.084   8.875  0.3441  0.3542  0.2900
  149MOL0     C20010   6.123   3.092   8.925 -0.1263 -0.2034  0.3470
  149MOL0     O20011   6.021   3.090   8.835  0.0983  0.0112  0.0148
  149MOL0     C20012   5.894   3.055   8.877 -0.0848  0.2800 -0.2843
  149MOL0     C20013   5.821   2.979   8.787 -0.4516  0.0857  0.5616
  149MOL0     C20014   5.686   2.951   8.810  0.3492  0.4908  0.3810
  149MOL0     C20015   5.622   2.996   8.929 -0.1432  0.2870  0.1286
  149MOL0     O20016   5.491   2.963   8.958 -0.5471 -0.5413  0.3789
  149MOL0     C20017   5.385   2.990   8.865 -0.8842 -0.9580  0.3360
  149MOL0     C20018   5.258   3.042   8.935 -0.1024  0.5999  0.1474
  149MOL0     C20019   5.310   3.156   9.034  0.5939  0.7245  0.9346
  149MOL0     C20020   5.183   3.224   9.081  0.9625  1.0771 -0.3487
  149MOL0     C20021   5.224   3.319   9.196  0.3092 -0.0362 -0.7867
  149MOL0     C20022   5.116   3.420   9.237 -0.3651 -0.3034 -0.2586
  149MOL0     C20023   4.992   3.362   9.309  0.5209 -0.1391 -0.9760
  149MOL0     C20024   5.034   3.277   9.432  0.0409  0.3739 -0.2399
  149MOL0    Cl20025   4.889   3.259   9.531 -0.1834 -0.3303  0.3525
  149MOL0     C20026   5.696   3.078   9.021  0.0464 -0.2648  1.4182
  149MOL0     C20027   5.823   3.109   8.990 -0.6321 -0.1508  0.3512
  149MOL0     O20028   6.106   3.100   9.043 -0.6948  1.2599 -0.2554
  149MOL0     C20029   6.281   3.122   8.743 -0.1261 -0.7303 -0.0144
  149MOL0     C20030   6.401   3.111   8.677  0.0653 -0.1636  0.0358
  149MOL0     N20031   7.285   3.131   8.759 -0.2732  0.1530 -0.0266
  149MOL0     N20032   7.381   3.149   8.854  0.3707  0.5088  0.0800
  149MOL0     C20033   8.155   2.675   9.662  0.2859  0.3414  0.5498
  149MOL0     C20034   8.260   2.583   9.694  0.8094  0.4671  0.7467
  149MOL0     C20035   8.667   2.457   9.883 -0.1409  0.8265 -0.1776
  149MOL0     C20036   8.809   2.484   9.884 -0.1193 -0.3663 -0.4191
  149MOL0     C20037   8.898   2.380   9.922 -0.4753  0.0504 -0.1556
  149MOL0     C20038   8.848   2.252   9.953 -0.1412  0.2283  0.2409
  149MOL0     O20039   8.925   2.142   9.988 -0.3094  0.3423 -0.2169
  149MOL0     C20040   9.068   2.147   9.981 -0.0145  0.0730  0.6215
  149MOL0     C20041   9.136   2.210  10.103 -0.1706  0.0526 -0.0077
  149MOL0     C20042   9.285   2.198  10.092 -0.0640 -0.5366  0.0921
  149MOL0     C20043   9.334   2.271  10.214  0.0098 -0.6521  0.0372
  149MOL0     C20044   9.476   2.263  10.224  0.5068 -0.6046 -0.4152
  149MOL0     C20045   9.596   2.261  10.220 -0.8232 -0.3585 -1.2947
  149MOL0     C20046   8.714   2.224   9.955 -0.1774  1.3476  0.2230
  149MOL0     C20047   8.624   2.326   9.924 -0.8746  0.3379  1.2112
  149MOL0     H20048   8.387   2.725   9.975  0.5596  4.7485 -0.2640
  149MOL0     H20049   8.208   2.890   9.920  1.3115  1.9592 -2.1549
  149MOL0     H20050   8.048   2.904   9.515  0.2792  2.2392 -0.1952
  149MOL0     H20051   7.924   2.798   9.593  1.3303 -0.4049  1.3395
  149MOL0     H20052   7.828   3.009   9.689  2.1803 -0.3811  1.1824
  149MOL0     H20053   7.965   3.098   9.630 -1.0685  0.7993  0.7401
  149MOL0     H20054   7.904   3.041   9.396  2.0646 -3.5927  1.2695
  149MOL0     H20055   7.763   2.940   9.455 -0.8590  0.9077 -0.0171
  149MOL0     H20056   7.656   3.138   9.538 -2.0400  2.8249 -3.1468
  149MOL0     H20057   7.791   3.238   9.500 -2.1136  1.2723  1.3386
  149MOL0     H20058   7.642   3.273   9.309 -1.4892  0.0026 -1.2082
  149MOL0     H20059   7.764   3.169   9.255 -0.2395 -2.7689 -0.3315
  149MOL0     H20060   7.610   2.962   9.258 -1.4712 -1.0619  0.7779
  149MOL0     H20061   7.494   3.051   9.366 -0.8137 -4.6670 -1.9714
  149MOL0     H20062   7.379   3.091   9.227 -1.4272  1.2301 -1.3693
  149MOL0     H20063   7.491   3.217   9.163  0.2217 -0.3593  1.9915
  149MOL0     H20064   7.458   2.926   9.083  0.6671  0.0344 -0.7054
  149MOL0     H20065   7.564   3.033   8.995 -0.1502  0.7019 -0.6761
  149MOL0     H20066   7.190   2.950   9.020 -0.0239  0.5156  0.4191
  149MOL0     H20067   7.117   2.948   8.645  0.9847 -2.0861  1.4416
  149MOL0     H20068   7.027   2.917   8.788  2.1262 -0.3426  1.1570
  149MOL0     H20069   7.051   3.163   8.615  1.3492 -4.0385 -2.2869
  149MOL0     H20070   6.976   3.179   8.779 -2.3973 -0.8458 -0.1644
  149MOL0     H20071   6.885   2.991   8.550  1.4937 -0.2898  1.4452
  149MOL0     H20072   6.833   3.155   8.560  0.8614 -0.1222  0.1169
  149MOL0     H20073   6.776   3.096   8.813  0.1691 -2.1265  0.6693
  149MOL0     H20074   6.739   2.934   8.758 -0.6986  1.1850  1.6494
  149MOL0     H20075   6.595   3.019   8.926  0.2741 -0.4092 -2.1478
  149MOL0     H20076   6.317   3.117   9.143 -1.8443 -2.4182  0.0207
  149MOL0     H20077   6.329   2.951   9.130  1.7269  0.1782  1.4360
  149MOL0     H20078   6.477   3.050   9.151 -0.9534  1.8171  1.7033
  149MOL0     H20079   5.864   2.937   8.696  0.0298 -0.8423  1.2072
  149MOL0     H20080   5.624   2.887   8.749  0.1133  0.3675  0.7528
  149MOL0     H20081   5.415   3.059   8.786  0.9636 -1.0869  0.8755
  149MOL0     H20082   5.367   2.891   8.823  3.8052 -1.9968  0.3253
  149MOL0     H20083   5.190   3.078   8.857  0.8317 -2.3598 -2.2540
  149MOL0     H20084   5.211   2.958   8.986  1.0495 -0.9030 -1.1375
  149MOL0     H20085   5.364   3.230   8.974  0.7916  0.1177  0.3505
  149MOL0     H20086   5.369   3.124   9.121 -0.8066 -3.1541  0.6467
  149MOL0     H20087   5.142   3.287   9.001  1.4479  0.6412 -0.9413
  149MOL0     H20088   5.099   3.162   9.114 -0.1917  3.0649  0.6730
  149MOL0     H20089   5.315   3.376   9.177  0.9319  0.7639  3.5592
  149MOL0     H20090   5.250   3.254   9.280 -0.2842  2.2142  1.2669
  149MOL0     H20091   5.165   3.499   9.293  0.2289  1.2550 -2.8266
  149MOL0     H20092   5.076   3.468   9.147 -1.0090  0.4710  0.4234
  149MOL0     H20093   4.933   3.304   9.237 -2.4032 -0.1258  1.2589
  149MOL0     H20094   4.917   3.437   9.332  0.1904 -0.3971 -1.1992
  149MOL0     H20095   5.118   3.327   9.483  0.4949 -0.1604 -0.4572
  149MOL0     H20096   5.073   3.181   9.399  0.5720  0.5654 -0.1926
  149MOL0     H20097   5.654   3.126   9.109  2.5690  3.4810  0.8164
  149MOL0     H20098   5.869   3.189   9.047 -1.6685  0.5601  0.2146
  149MOL0     H20099   6.200   3.163   8.684  1.3455  1.6850 -0.5114
  149MOL0     H20100   6.406   3.150   8.576 -2.2499  1.9218  0.6056
  149MOL0     H20101   8.095   2.651   9.575  3.1449 -0.5688 -1.3503
  149MOL0     H20102   8.285   2.490   9.644 -1.1654 -0.0120  0.5528
  149MOL0     H20103   8.853   2.579   9.854  0.0106 -0.0004  0.8834
  149MOL0     H20104   9.002   2.403   9.906 -0.8864  1.2387 -1.3061
  149MOL0     H20105   9.111   2.046   9.983  2.7925  1.2057  0.3960
  149MOL0     H20106   9.098   2.196   9.889  0.1816  1.5056  1.4270
  149MOL0     H20107   9.102   2.154  10.190 -1.4885  2.0202  0.8315
  149MOL0     H20108   9.101   2.312  10.124 -0.6237  0.0032 -0.4882
  149MOL0     H20109   9.317   2.250  10.001  0.3748  0.1282  0.6222
  149MOL0     H20110   9.332   2.099  10.085  2.1417  0.3954  0.8562
  149MOL0     H20111   9.290   2.226  10.303 -1.6061 -0.8105 -0.8068
  149MOL0     H20112   9.304   2.376  10.221  0.3950 -0.3700 -1.9175
  149MOL0     H20113   9.700   2.289  10.224 -1.5910  2.7642  1.9909
  149MOL0     H20114   8.671   2.130   9.989  1.3017  0.3493 -0.5551
  149MOL0     H20115   8.519   2.302   9.937 -0.5209 -2.5065 -0.4317
  150MOL0     O20116   7.609   3.760   0.099  0.0470 -1.0288 -0.2675
  150MOL0     C20117   7.640   3.718  -0.015 -0.8219 -0.2511 -0.0910
  150MOL0     O20118   7.558   3.706  -0.122 -0.4662 -0.2945 -0.6497
  150MOL0     C20119   7.430   3.761  -0.128  0.0717  0.6819  0.1547
  150MOL0     C20120   7.348   3.711  -0.235 -0.3194 -0.3175  0.1689
  150MOL0     C20121   7.224   3.752  -0.257  0.3981  0.5072  0.8130
  150MOL0     C20122   7.168   3.847  -0.170 -0.3887 -0.1866  0.5982
  150MOL0     O20123   7.044   3.873  -0.218  0.1378 -0.6480  0.1866
  150MOL0     C20124   6.975   3.984  -0.152 -0.5832  0.0688  0.6091
  150MOL0     C20125   6.838   4.013  -0.207 -0.2459  0.1748  0.4254
  150MOL0     C20126   6.735   3.898  -0.187  0.2423 -0.0096  0.2100
  150MOL0     C20127   6.604   3.915  -0.255 -0.5903 -0.0563 -0.6969
  150MOL0     C20128   6.518   3.788  -0.245 -0.7731  1.0428 -0.0489
  150MOL0     C20129   6.464   3.744  -0.113  0.4540  0.0433 -0.3282
  150MOL0     C20130   6.363   3.625  -0.123 -0.6757 -0.2452  0.0052
  150MOL0     C20131   6.313   3.570   0.015  1.0942  0.4469 -0.8874
  150MOL0     N20132   6.205   3.477  -0.020 -0.4500 -0.2735  0.5795
  150MOL0     C20133   6.087   3.510  -0.081 -0.1725  0.0667  0.0228
  150MOL0     C20134   6.030   3.400  -0.124 -1.4908  0.6901 -0.3027
  150MOL0     C20135   5.897   3.375  -0.192  0.8731  0.2414 -0.6256
  150MOL0     C20136   5.805   3.328  -0.091  0.5703  0.5680 -0.0530
  150MOL0     C20137   5.689   3.269  -0.161  0.4665  0.1939 -0.7683
  150MOL0     C20138   5.610   3.185  -0.062 -0.1631  0.0628 -0.1937
  150MOL0     O20139   5.482   3.154  -0.127  0.0477 -0.2307 -0.2396
  150MOL0     C20140   5.388   3.103  -0.037 -0.6224 -0.0514 -0.4451
  150MOL0     C20141   5.405   3.059   0.092 -0.1606 -0.8552  0.5478
  150MOL0     C20142   5.300   3.048   0.183  0.4570  0.4212 -0.9369
  150MOL0     C20143   5.335   3.024   0.334 -0.0651 -0.3572 -0.4809
  150MOL0     C20144   5.168   3.045   0.130  0.2086 -0.3946 -0.2983
  150MOL0     C20145   5.051   3.016   0.213  0.0167 -0.3834  1.2179
  150MOL0     O20146   4.922   3.052   0.162 -0.0360  0.3930 -0.3237
  150MOL0     C20147   4.815   3.070   0.236  0.7334  0.0798 -0.9386
  150MOL0     C20148   4.692   3.076   0.172 -0.7682 -0.2315  0.1580
  150MOL0     C20149   4.573   3.088   0.246  0.0320  0.4734  0.5345
  150MOL0     C20150   4.577   3.083   0.391 -0.1923  0.8383 -0.2081
  150MOL0     O20151   4.459   3.065   0.460 -0.3903  0.0721 -0.7359
  150MOL0     C20152   4.387   2.952   0.432  0.0325 -0.4096  0.9016
  150MOL0     C20153   4.272   2.926   0.525  0.2411 -0.1529 -0.4995
  150MOL0     C20154   4.208   2.786   0.494 -0.3429 -0.6657 -0.0000
  150MOL0     C20155   4.086   2.745   0.573  0.1306 -0.4333 -0.2764
  150MOL0     C20156   4.020   2.609   0.528  0.0441  0.9352  0.1999
  150MOL0     C20157   3.987   2.525   0.656  0.0695 -0.1728  0.1671
  150MOL0     C20158   3.911   2.399   0.623  0.5721  0.2701  0.9960
  150MOL0     C20159   3.903   2.298   0.744  0.1339 -0.8987  0.2295
  150MOL0    Cl20160   3.759   2.318   0.838 -0.0347  0.1096  0.4806
  150MOL0     C20161   4.709   3.084   0.447  0.0664  0.2493  0.2788
  150MOL0     C20162   4.821   3.081   0.380 -0.5847  0.1819  0.2012
  150MOL0     O20163   5.066   2.933   0.306  0.7112 -0.5901 -0.2020
  150MOL0     C20164   5.144   3.080  -0.007  0.3129 -0.6038  0.2547
  150MOL0     C20165   5.257   3.113  -0.086  0.5036  0.3538 -0.2638
  150MOL0     N20166   6.125   3.295  -0.106 -0.4002 -0.3771  0.0039
  150MOL0     N20167   6.229   3.344  -0.038  0.4344  0.1068 -0.1344
  150MOL0     C20168   7.240   3.891  -0.058 -0.1664 -0.1958  0.1979
  150MOL0     C20169   7.367   3.847  -0.036  0.2849  0.3269  0.4149
  150MOL0     C20170   7.777   3.654  -0.026  0.2146 -0.3227  0.2333
  150MOL0     C20171   7.869   3.665   0.087  0.6425  0.6729  0.1326
  150MOL0     C20172   7.983   3.593   0.089 -0.7219  0.1271 -0.6801
  150MOL0     C20173   8.016   3.506  -0.019  0.5904  0.2394 -0.4634
  150MOL0     O20174   8.127   3.423  -0.028  0.4711  0.4260 -0.7371
  150MOL0     C20175   8.250   3.487   0.017  0.3293  0.1067  0.3768
  150MOL0     C20176   8.371   3.434  -0.046 -0.4461  0.3478 -0.3439
  150MOL0     C20177   8.389   3.285  -0.020 -0.1647  0.0091 -0.1107
  150MOL0     C20178   8.511   3.225  -0.098 -0.5292  0.0268 -0.5835
  150MOL0     C20179   8.509   3.080  -0.116 -0.4045  0.4496  0.6644
  150MOL0     C20180   8.512   2.956  -0.123 -0.2730 -0.3955 -0.1650
  150MOL0     C20181   7.938   3.507  -0.134  0.0223  0.6087  0.1615
  150MOL0     C20182   7.816   3.575  -0.137  0.5431  0.5571 -0.3600
  150MOL0     H20183   7.387   3.633  -0.300  3.1234 -0.3557  2.0365
  150MOL0     H20184   7.164   3.699  -0.331  1.0469 -0.2767  0.8413
  150MOL0     H20185   6.966   3.959  -0.046  0.8060 -1.1716  0.4760
  150MOL0     H20186   7.039   4.072  -0.157  2.1520 -1.8068  0.5731
  150MOL0     H20187   6.808   4.103  -0.151  0.9928 -0.3892  2.0932
  150MOL0     H20188   6.850   4.034  -0.314  2.7211 -3.7937 -0.2253
  150MOL0     H20189   6.781   3.808  -0.229  0.7435  0.4445 -0.2302
  150MOL0     H20190   6.716   3.878  -0.082  2.5506  0.2524  0.7315
  150MOL0     H20191   6.551   4.000  -0.209  0.7469 -0.0117  0.8464
  150MOL0     H20192   6.630   3.948  -0.356  1.7466  0.7698  0.1104
  150MOL0     H20193   6.434   3.814  -0.310  0.2592  2.1232 -1.0075
  150MOL0     H20194   6.574   3.704  -0.289  0.0390  1.1096  0.8171
  150MOL0     H20195   6.550   3.721  -0.049  0.4096 -1.5528 -0.7815
  150MOL0     H20196   6.396   3.820  -0.074  0.8072 -0.3933  1.2166
  150MOL0     H20197   6.273   3.642  -0.183 -1.7366 -3.3541  0.5492
  150MOL0     H20198   6.419   3.546  -0.173  1.5562 -0.3345  2.4685
  150MOL0     H20199   6.274   3.637   0.092  2.1680  1.2041 -0.9845
  150MOL0     H20200   6.394   3.512   0.061  1.5680  0.7452 -1.3357
  150MOL0     H20201   6.035   3.605  -0.087  2.2373  1.4368 -0.5412
  150MOL0     H20202   5.857   3.468  -0.233  2.2495  1.4819  0.6740
  150MOL0     H20203   5.907   3.308  -0.277  0.0617 -0.0910 -0.4676
  150MOL0     H20204   5.784   3.413  -0.025 -1.6289  0.1906 -0.2086
  150MOL0     H20205   5.850   3.249  -0.031  1.3840 -0.1494 -1.5346
  150MOL0     H20206   5.719   3.204  -0.243 -0.7477  1.3977 -2.2120
  150MOL0     H20207   5.623   3.347  -0.201 -0.0407 -0.4374 -1.1970
  150MOL0     H20208   5.590   3.250   0.024 -2.2032 -1.8328  0.8776
  150MOL0     H20209   5.658   3.094  -0.024 -2.5876  0.0711  3.4004
  150MOL0     H20210   5.507   3.033   0.118  0.1765 -2.9057 -2.3511
  150MOL0     H20211   5.254   3.039   0.406 -0.3542 -2.2537 -0.3497
  150MOL0     H20212   5.389   2.932   0.360  1.8767  1.3163  1.8527
  150MOL0     H20213   5.415   3.093   0.360  1.7228 -1.9815 -1.4244
  150MOL0     H20214   4.708   3.066   0.065 -0.9859 -1.1096  0.1967
  150MOL0     H20215   4.480   3.080   0.192  0.2210  0.1151  0.2570
  150MOL0     H20216   4.368   2.956   0.325  1.1092 -2.2214  0.5977
  150MOL0     H20217   4.457   2.869   0.446  2.1724  1.2787  0.7771
  150MOL0     H20218   4.314   2.921   0.626  1.2075 -1.1021 -0.9300
  150MOL0     H20219   4.191   2.999   0.512 -1.2741 -1.1433  2.4477
  150MOL0     H20220   4.285   2.708   0.490 -0.3749 -0.6700 -0.8264
  150MOL0     H20221   4.173   2.791   0.390 -1.4969 -3.7696  0.1224
  150MOL0     H20222   4.121   2.742   0.677 -1.4577  2.9686  0.4988
  150MOL0     H20223   3.998   2.810   0.566 -0.3802 -0.9217  1.2813
  150MOL0     H20224   4.093   2.560   0.462 -3.6659 -0.9135 -2.9404
  150MOL0     H20225   3.933   2.619   0.462  1.0469 -0.0718 -1.3508
  150MOL0     H20226   4.083   2.498   0.699 -0.5548  0.9113  2.3606
  150MOL0     H20227   3.932   2.596   0.719  1.8747  0.9379  0.5456
  150MOL0     H20228   3.947   2.339   0.540 -2.0290 -0.0604  0.0071
  150MOL0     H20229   3.815   2.431   0.582  0.3871 -2.8023 -1.2666
  150MOL0     H20230   3.995   2.301   0.802  0.5820  3.9694 -0.2419
  150MOL0     H20231   3.869   2.202   0.703 -3.7544  0.7451 -0.9481
  150MOL0     H20232   4.724   3.065   0.553 -0.3483 -0.8754  0.1461
  150MOL0     H20233   4.917   3.066   0.430 -0.1100 -0.2438 -0.8190
  150MOL0     H20234   5.043   3.082  -0.048  0.3174 -5.6902 -0.5927
  150MOL0     H20235   5.242   3.150  -0.187  1.8227  1.5428 -0.0693
  150MOL0     H20236   7.200   3.958   0.017  1.5016  0.0023  0.9367
  150MOL0     H20237   7.419   3.889   0.049  0.4172  0.4083  0.2951
  150MOL0     H20238   7.844   3.726   0.172  2.3593  0.2585  0.9897
  150MOL0     H20239   8.049   3.592   0.175 -1.4778 -2.0481 -0.0610
  150MOL0     H20240   8.248   3.594  -0.005  1.3254 -0.2061 -1.4690
  150MOL0     H20241   8.256   3.473   0.125 -1.3124  0.1823  0.5044
  150MOL0     H20242   8.450   3.484   0.012 -1.1578 -1.6755  2.6225
  150MOL0     H20243   8.362   3.452  -0.153 -0.3222 -0.2092 -0.4476
  150MOL0     H20244   8.305   3.228  -0.062  0.3913  0.6647 -2.2600
  150MOL0     H20245   8.401   3.257   0.085  0.4962 -0.6720 -0.3509
  150MOL0     H20246   8.592   3.255  -0.031 -0.1771  1.2599 -1.5377
  150MOL0     H20247   8.522   3.285  -0.189 -0.8376  0.0919 -0.5804
  150MOL0     H20248   8.517   2.850  -0.136  1.1375 -0.3627 -0.0433
  150MOL0     H20249   7.961   3.443  -0.218 -0.0855  0.8264 -0.0353
  150MOL0     H20250   7.748   3.583  -0.221 -0.7504  2.3933  0.7912
  151MOL0     O20251   2.702   4.796   1.952 -0.0733 -0.0369 -0.0009
  151MOL0     C20252   2.750   4.703   2.018  0.0488 -0.0738  0.0896
  151MOL0     O20253   2.683   4.638   2.125  0.2136  0.8712 -0.0903
  151MOL0     C20254   2.553   4.668   2.154  0.1403 -0.2272  0.4009
  151MOL0     C20255   2.494   4.794   2.157  0.4987  0.2514  0.0688
  151MOL0     C20256   2.358   4.810   2.199 -0.2863 -0.0353 -0.3970
  151MOL0     C20257   2.274   4.689   2.222 -0.7509 -0.0020  0.4752
  151MOL0     O20258   2.149   4.713   2.244 -0.8694 -0.2793 -0.4514
  151MOL0     C20259   2.079   4.607   2.309 -0.1025 -0.4581  0.6608
  151MOL0     C20260   1.947   4.678   2.360  0.0380  0.9451  0.1874
  151MOL0     C20261   1.851   4.702   2.238 -0.1551  0.3524 -0.3458
  151MOL0     C20262   1.709   4.723   2.282 -0.3770 -0.6786  1.0518
  151MOL0     C20263   1.630   4.785   2.164  0.4723  0.2146 -0.2148
  151MOL0     C20264   1.647   4.931   2.135  0.3241  0.1100 -0.1405
  151MOL0     C20265   1.590   4.970   1.997  0.0026 -0.0061 -0.1813
  151MOL0     C20266   1.633   5.105   1.957  0.1358 -0.5071  0.8112
  151MOL0     N20267   1.567   5.172   1.838  0.0351  0.6342 -0.0286
  151MOL0     C20268   1.540   5.118   1.712 -0.7325  0.6585 -0.4805
  151MOL0     C20269   1.488   5.216   1.646  0.6154  0.0447  0.0231
  151MOL0     C20270   1.453   5.206   1.496  0.5604 -0.4278 -0.4402
  151MOL0     C20271   1.517   5.333   1.426  0.5198  0.3238  0.7137
  151MOL0     C20272   1.503   5.318   1.277  0.1936 -0.1711  0.0863
  151MOL0     C20273   1.358   5.324   1.211 -0.1509 -0.3354 -0.0655
  151MOL0     O20274   1.273   5.215   1.249  0.0987  0.3669  0.3446
  151MOL0     C20275   1.143   5.219   1.207 -0.3488 -0.4142  0.7109
  151MOL0     C20276   1.075   5.334   1.161 -0.0573 -0.0491 -0.6489
  151MOL0     C20277   0.943   5.310   1.115  0.0977 -0.1847 -0.0247
  151MOL0     C20278   0.872   5.430   1.055 -0.6393  0.6203 -0.5949
  151MOL0     C20279   0.877   5.187   1.115  0.7932  0.7188 -0.5188
  151MOL0     C20280   0.731   5.169   1.105  0.4474  0.1886  1.0221
  151MOL0     O20281   0.691   5.080   1.007 -0.1504 -0.0834 -0.2133
  151MOL0     C20282   0.560   5.095   0.972 -0.6906  0.2697 -0.1513
  151MOL0     C20283   0.503   5.192   0.898  1.3110 -0.6600  0.3114
  151MOL0     C20284   0.368   5.196   0.850  0.2351 -0.1883 -0.1548
  151MOL0     C20285   0.291   5.085   0.866 -0.4013 -0.1061 -0.8301
  151MOL0     O20286   0.160   5.073   0.826 -0.0265  0.3930 -0.1982
  151MOL0     C20287   0.074   4.979   0.896 -0.1750 -0.1562  0.7766
  151MOL0     C20288  -0.067   4.995   0.839 -0.7113 -0.4512  0.3221
  151MOL0     C20289  -0.127   5.138   0.871  1.1054  0.2674 -1.1264
  151MOL0     C20290  -0.279   5.143   0.841 -0.0826 -0.2945 -0.0579
  151MOL0     C20291  -0.335   5.293   0.839  0.0095 -0.1847  0.3151
  151MOL0     C20292  -0.488   5.307   0.803  0.4890  0.4599  0.4244
  151MOL0     C20293  -0.544   5.189   0.712 -0.3524  0.7446  0.9939
  151MOL0     C20294  -0.674   5.239   0.649 -0.3390  0.3504 -0.3372
  151MOL0    Cl20295  -0.744   5.117   0.545 -0.1842  0.1378  0.4420
  151MOL0     C20296   0.353   4.971   0.934 -0.0670  0.0260 -0.0402
  151MOL0     C20297   0.484   4.972   0.986  0.1519  0.2257 -0.3003
  151MOL0     O20298   0.652   5.243   1.165  0.0066  0.2946  0.2865
  151MOL0     C20299   0.955   5.079   1.150 -0.5039 -0.6670 -0.4234
  151MOL0     C20300   1.089   5.092   1.199  0.1809 -0.9234  0.4180
  151MOL0     N20301   1.473   5.323   1.731 -0.1677 -0.0324  0.4854
  151MOL0     N20302   1.518   5.299   1.849  0.7349  1.1268 -0.0252
  151MOL0     C20303   2.336   4.568   2.224 -0.2280  0.4157  0.3372
  151MOL0     C20304   2.472   4.557   2.198 -0.4573 -0.6654 -0.1967
  151MOL0     C20305   2.896   4.674   2.005  0.7454 -0.7840  0.2743
  151MOL0     C20306   2.953   4.552   2.051 -0.5533 -0.9775 -0.0535
  151MOL0     C20307   3.092   4.529   2.035  0.2135  0.2401  0.2603
  151MOL0     C20308   3.177   4.613   1.955 -0.1157 -0.3229 -0.5621
  151MOL0     O20309   3.313   4.580   1.963  0.5621 -0.4113  0.4017
  151MOL0     C20310   3.406   4.628   1.858 -0.1188 -0.3454 -0.8904
  151MOL0     C20311   3.367   4.615   1.713 -0.1480 -0.5044 -0.5941
  151MOL0     C20312   3.476   4.669   1.615  0.7157 -0.2185  0.5761
  151MOL0     C20313   3.455   4.616   1.468  0.4439  0.1872 -0.6053
  151MOL0     C20314   3.312   4.615   1.434  0.5165  0.4638  0.2327
  151MOL0     C20315   3.191   4.616   1.415 -0.2217 -0.0020 -0.0867
  151MOL0     C20316   3.112   4.727   1.914 -0.2162  0.4890  0.6366
  151MOL0     C20317   2.975   4.762   1.937 -0.3494  0.6082  0.7829
  151MOL0     H20318   2.558   4.878   2.133 -0.4904  0.2633 -2.9023
  151MOL0     H20319   2.309   4.906   2.207  0.9486  0.4602  2.8203
  151MOL0     H20320   2.048   4.519   2.252  3.4752 -1.2963 -0.2970
  151MOL0     H20321   2.136   4.579   2.398  0.2407 -0.3460  0.4794
  151MOL0     H20322   1.908   4.593   2.417 -0.5426  0.4486 -0.9304
  151MOL0     H20323   1.970   4.768   2.419 -2.1918  2.3336 -0.8958
  151MOL0     H20324   1.887   4.790   2.183  1.2999 -0.0439 -0.0454
  151MOL0     H20325   1.856   4.621   2.164 -3.2886  0.0571 -0.4039
  151MOL0     H20326   1.666   4.623   2.297 -0.0340 -1.0410 -0.2478
  151MOL0     H20327   1.697   4.777   2.376 -0.5438  2.0857 -0.4419
  151MOL0     H20328   1.655   4.730   2.073 -1.2569  0.9636 -1.2044
  151MOL0     H20329   1.526   4.769   2.194  0.8615 -1.4468  0.3198
  151MOL0     H20330   1.600   5.002   2.204 -0.3099 -0.7944  0.3817
  151MOL0     H20331   1.754   4.952   2.125  0.8731 -2.6256 -0.8724
  151MOL0     H20332   1.636   4.912   1.917  1.7394  0.4049  0.4580
  151MOL0     H20333   1.483   4.947   1.993  0.1374 -0.5137 -0.9038
  151MOL0     H20334   1.740   5.102   1.937  0.0728  2.5676 -0.5618
  151MOL0     H20335   1.620   5.175   2.041  2.2349  0.4236  0.4379
  151MOL0     H20336   1.559   5.015   1.681 -0.3277  0.4260  0.4979
  151MOL0     H20337   1.495   5.117   1.447  1.6142  0.2074 -0.7190
  151MOL0     H20338   1.344   5.205   1.496  0.4975  0.5100  1.8648
  151MOL0     H20339   1.616   5.358   1.465  2.0522 -0.9677 -2.0743
  151MOL0     H20340   1.455   5.411   1.471  1.8409  0.5170  2.2908
  151MOL0     H20341   1.551   5.226   1.242 -1.9872 -1.7510  1.0402
  151MOL0     H20342   1.559   5.394   1.221  0.1923 -1.2690 -1.4590
  151MOL0     H20343   1.377   5.324   1.103  0.4587  1.5490  0.0098
  151MOL0     H20344   1.317   5.424   1.232  1.2329  0.2318  0.0102
  151MOL0     H20345   1.126   5.428   1.143 -0.6339  0.2039 -0.9909
  151MOL0     H20346   0.947   5.493   1.007  1.1379  0.3206  1.6468
  151MOL0     H20347   0.802   5.386   0.983 -1.1182 -2.1446  1.3869
  151MOL0     H20348   0.821   5.483   1.136 -1.1842 -1.3224  0.3998
  151MOL0     H20349   0.564   5.280   0.880  0.1201  0.1529  0.1226
  151MOL0     H20350   0.334   5.284   0.796 -3.0617 -0.7176  0.7900
  151MOL0     H20351   0.116   4.882   0.867 -2.0353 -1.1139  1.1098
  151MOL0     H20352   0.075   4.994   1.004 -0.6047  2.2369  0.4962
  151MOL0     H20353  -0.060   4.983   0.730  0.2673  0.9344  0.2040
  151MOL0     H20354  -0.126   4.914   0.881  1.9117 -3.2508 -0.9826
  151MOL0     H20355  -0.086   5.211   0.801  1.0003  2.0742  0.5947
  151MOL0     H20356  -0.102   5.168   0.974  1.4769 -0.4653 -0.9957
  151MOL0     H20357  -0.285   5.107   0.738  0.0527  2.0358 -0.9307
  151MOL0     H20358  -0.342   5.077   0.901 -0.4464 -0.1545 -0.2792
  151MOL0     H20359  -0.285   5.351   0.761  1.4728 -1.4977  0.2279
  151MOL0     H20360  -0.320   5.339   0.937 -0.2352  0.1824  0.1809
  151MOL0     H20361  -0.550   5.312   0.893 -0.2525  0.7197 -0.0958
  151MOL0     H20362  -0.496   5.405   0.755  3.1165  0.7365  0.3723
  151MOL0     H20363  -0.559   5.096   0.769 -0.6335  0.8762  1.1369
  151MOL0     H20364  -0.474   5.166   0.631 -2.0191 -1.9475  0.1670
  151MOL0     H20365  -0.661   5.326   0.585 -0.2012 -0.1047 -0.9369
  151MOL0     H20366  -0.737   5.251   0.737 -0.4599  0.4905 -0.4441
  151MOL0     H20367   0.313   4.871   0.949  1.6532 -0.7521 -0.4566
  151MOL0     H20368   0.525   4.876   1.019  0.8392  0.8327  0.6909
  151MOL0     H20369   0.924   4.976   1.135  0.8088 -1.3543  1.2928
  151MOL0     H20370   1.148   5.003   1.220  0.2524 -1.1874 -0.8215
  151MOL0     H20371   2.284   4.478   2.256  2.4664 -0.3110  3.2135
  151MOL0     H20372   2.524   4.461   2.198  1.4993  0.3453  0.6633
  151MOL0     H20373   2.899   4.488   2.119 -1.7054 -1.2571 -1.2037
  151MOL0     H20374   3.151   4.454   2.085  1.9671  1.3843 -0.0133
  151MOL0     H20375   3.432   4.734   1.872  3.2246 -1.2690  1.0211
  151MOL0     H20376   3.501   4.576   1.872  0.9057  1.4839 -0.7155
  151MOL0     H20377   3.272   4.667   1.693  0.3773  0.9572  0.4686
  151MOL0     H20378   3.350   4.507   1.704 -1.6909 -0.6307  2.3591
  151MOL0     H20379   3.579   4.638   1.638  0.9294 -0.0062 -0.0746
  151MOL0     H20380   3.468   4.778   1.612  1.7633 -0.1463 -2.4418
  151MOL0     H20381   3.522   4.530   1.460 -0.9668 -0.9186 -0.8570
  151MOL0     H20382   3.500   4.687   1.397  0.1606  0.0896 -0.8861
  151MOL0     H20383   3.086   4.612   1.396  0.1232  1.9531 -3.0147
  151MOL0     H20384   3.172   4.807   1.871  2.5284 -1.9165 -0.3698
  151MOL0     H20385   2.942   4.855   1.894 -2.6537 -0.9458 -1.0658
  152MOL0     O20386   2.593   6.695  10.585  0.1069  0.5173 -0.1900
  152MOL0     C20387   2.686   6.751  10.533  0.8001  0.0280  0.0883
  152MOL0     O20388   2.669   6.852  10.444  1.1468  1.2734 -0.1211
  152MOL0     C20389   2.544   6.878  10.394  0.1964  0.4080 -0.2211
  152MOL0     C20390   2.469   6.987  10.448 -0.5104 -0.3138  0.4202
  152MOL0     C20391   2.352   7.019  10.382 -0.3120  0.5435 -0.0186
  152MOL0     C20392   2.304   6.955  10.266 -0.3177  0.3051  0.0585
  152MOL0     O20393   2.196   6.997  10.188 -0.4596  0.0372 -0.3798
  152MOL0     C20394   2.151   7.130  10.202  0.8997  0.2321 -0.8688
  152MOL0     C20395   2.039   7.143  10.309 -0.1983  0.4433  1.6232
  152MOL0     C20396   1.914   7.064  10.289  0.8652  0.4115 -0.2210
  152MOL0     C20397   1.804   7.140  10.210  0.2104  0.0892  0.0778
  152MOL0     C20398   1.685   7.042  10.211  0.0074 -0.6768 -0.5965
  152MOL0     C20399   1.564   7.106  10.145  0.5306 -0.4970 -0.5567
  152MOL0     C20400   1.441   7.028  10.182  0.5162  0.9931  0.3006
  152MOL0     C20401   1.319   7.109  10.142  0.5007 -0.1281  0.2856
  152MOL0     N20402   1.194   7.044  10.180 -0.2334  0.7395 -0.3012
  152MOL0     C20403   1.084   7.118  10.193  0.1224  0.2319  0.3451
  152MOL0     C20404   0.984   7.024  10.199  0.6783  0.0672 -0.3468
  152MOL0     C20405   0.856   7.059  10.259  0.0621 -0.4021 -0.6139
  152MOL0     C20406   0.751   6.963  10.210 -0.3568  0.0158 -0.4256
  152MOL0     C20407   0.611   6.999  10.248  1.0381 -0.3828 -0.5595
  152MOL0     C20408   0.600   6.991  10.399 -0.3020  0.6587 -0.1075
  152MOL0     O20409   0.466   6.976  10.444  0.7430  0.1335  0.2543
  152MOL0     C20410   0.411   6.848  10.449  0.5046 -0.0288 -0.1252
  152MOL0     C20411   0.282   6.837  10.497 -0.3572 -0.0010 -0.4083
  152MOL0     C20412   0.218   6.718  10.505  0.0204 -0.0747  1.1386
  152MOL0     C20413   0.081   6.723  10.559 -0.2440 -0.4488  0.1819
  152MOL0     C20414   0.288   6.599  10.453  0.5498  0.0265  0.1149
  152MOL0     C20415   0.230   6.458  10.456 -0.8420  0.4540  0.6974
  152MOL0     O20416   0.300   6.354  10.391  0.1525  0.3467  0.6787
  152MOL0     C20417   0.265   6.226  10.415  0.4800 -0.2698  0.5019
  152MOL0     C20418   0.322   6.159  10.531 -0.0795 -0.4511  0.2167
  152MOL0     C20419   0.264   6.040  10.574  0.9221  0.2533  0.6840
  152MOL0     C20420   0.159   5.985  10.495  0.1431 -0.1592  0.3198
  152MOL0     O20421   0.097   5.869  10.516 -0.0809 -0.5101 -0.2892
  152MOL0     C20422   0.125   5.785  10.632 -0.1943  0.5238 -0.7593
  152MOL0     C20423   0.078   5.638  10.599 -0.6432  0.4818  0.4373
  152MOL0     C20424  -0.074   5.642  10.583  0.8787  0.3615 -0.5217
  152MOL0     C20425  -0.135   5.510  10.534 -0.5081  0.4726 -0.8771
  152MOL0     C20426  -0.292   5.483  10.548 -0.7817  0.9838 -0.0608
  152MOL0     C20427  -0.344   5.343  10.536  0.2583  0.1723 -0.1216
  152MOL0     C20428  -0.495   5.330  10.563  0.2676  0.0240 -0.3195
  152MOL0     C20429  -0.560   5.303  10.429 -0.0719  0.3700  0.9160
  152MOL0    Cl20430  -0.741   5.295  10.449  0.0546  0.1882  0.9153
  152MOL0     C20431   0.102   6.045  10.387 -0.0806 -0.4217  1.2482
  152MOL0     C20432   0.161   6.171  10.336  0.5026  0.1675  0.3120
  152MOL0     O20433   0.138   6.437  10.535 -0.0091  0.7279  1.0492
  152MOL0     C20434   0.413   6.610  10.403  0.1609 -0.8914  0.3952
  152MOL0     C20435   0.470   6.734  10.386  0.1571 -0.2128 -0.4252
  152MOL0     N20436   1.032   6.900  10.175  0.1720  0.8596  0.4884
  152MOL0     N20437   1.160   6.913  10.158 -0.6772  0.2752  0.7451
  152MOL0     C20438   2.377   6.840  10.221  0.3352 -0.4497 -0.0999
  152MOL0     C20439   2.490   6.797  10.286  0.2807  0.6627  0.3489
  152MOL0     C20440   2.824   6.712  10.564  0.2150 -0.4179 -0.9970
  152MOL0     C20441   2.862   6.633  10.676 -0.5740  0.0442  0.1048
  152MOL0     C20442   2.995   6.611  10.706 -0.0504 -0.8745 -0.4267
  152MOL0     C20443   3.095   6.654  10.620 -0.2365 -0.0766 -0.4095
  152MOL0     O20444   3.225   6.620  10.665 -0.0037  0.4882 -0.3453
  152MOL0     C20445   3.328   6.637  10.566 -0.1894  0.8551  0.7732
  152MOL0     C20446   3.465   6.594  10.621  0.9475  0.6330 -0.8220
  152MOL0     C20447   3.568   6.556  10.518 -0.4504  0.8272 -0.4160
  152MOL0     C20448   3.710   6.542  10.566  0.5368 -0.4411 -0.3003
  152MOL0     C20449   3.769   6.667  10.614  0.6992 -0.2028 -0.4119
  152MOL0     C20450   3.804   6.774  10.649 -0.3051 -0.2041  0.3310
  152MOL0     C20451   3.067   6.711  10.510 -0.2405  0.0331 -0.2150
  152MOL0     C20452   2.931   6.740  10.479  0.1996 -0.6251 -0.4889
  152MOL0     H20453   2.504   7.029  10.542 -0.8223 -3.1553  1.9155
  152MOL0     H20454   2.298   7.101  10.429  2.4430  2.0675  0.6680
  152MOL0     H20455   2.226   7.202  10.238 -1.0670  1.6210  0.6761
  152MOL0     H20456   2.116   7.165  10.105 -1.4606  1.5790  0.3743
  152MOL0     H20457   2.090   7.102  10.396  0.0038 -0.1485  1.2258
  152MOL0     H20458   2.015   7.247  10.335 -1.9435  0.9897 -1.6155
  152MOL0     H20459   1.935   6.970  10.237 -1.7657 -1.1244  1.3068
  152MOL0     H20460   1.880   7.036  10.388 -0.2494 -2.0993 -1.2309
  152MOL0     H20461   1.799   7.244  10.244  1.7331  1.7490 -4.0958
  152MOL0     H20462   1.824   7.151  10.103  1.9948 -1.3758  0.2182
  152MOL0     H20463   1.721   6.951  10.163 -0.0547 -1.9105  1.5530
  152MOL0     H20464   1.664   7.011  10.314 -0.9265  0.0877 -0.5424
  152MOL0     H20465   1.553   7.206  10.189  1.2588  0.3388 -2.1661
  152MOL0     H20466   1.582   7.097  10.037  2.3739 -1.4042 -0.2027
  152MOL0     H20467   1.442   6.933  10.128 -0.2594  0.8496  0.5350
  152MOL0     H20468   1.422   7.010  10.288 -4.1041 -1.0796 -0.6413
  152MOL0     H20469   1.313   7.128  10.034 -1.1603 -2.0434 -0.0002
  152MOL0     H20470   1.330   7.206  10.192  0.2627 -1.0298  2.1635
  152MOL0     H20471   1.069   7.222  10.219 -3.1580 -0.8028  3.3827
  152MOL0     H20472   0.864   7.059  10.368 -2.3103  0.6661 -0.3686
  152MOL0     H20473   0.824   7.161  10.236 -0.6702  0.4106  3.2684
  152MOL0     H20474   0.779   6.863  10.244 -0.9078 -0.1269 -0.3844
  152MOL0     H20475   0.740   6.956  10.102  1.4819 -2.6441 -0.5429
  152MOL0     H20476   0.536   6.934  10.202 -1.9186  0.2086  2.9203
  152MOL0     H20477   0.587   7.101  10.215  3.3475  0.7210  0.8944
  152MOL0     H20478   0.633   7.091  10.429  0.4300  0.0064  1.3099
  152MOL0     H20479   0.668   6.918  10.442 -1.3539 -2.0056 -2.5797
  152MOL0     H20480   0.234   6.930  10.528 -1.7416 -0.6278 -0.6100
  152MOL0     H20481   0.069   6.669  10.653  0.0350  2.5203  2.0432
  152MOL0     H20482   0.054   6.828  10.571  2.3447  0.3399 -0.1336
  152MOL0     H20483   0.008   6.693  10.484 -0.3267  0.5999 -0.1840
  152MOL0     H20484   0.419   6.186  10.571 -0.4639 -0.6481  1.3087
  152MOL0     H20485   0.310   5.988  10.658  0.5849 -1.8918 -0.3775
  152MOL0     H20486   0.232   5.785  10.655 -0.6832 -2.7566  2.6945
  152MOL0     H20487   0.073   5.833  10.715 -0.6526  3.9032 -2.8236
  152MOL0     H20488   0.126   5.589  10.514 -0.8516 -0.0767  0.6415
  152MOL0     H20489   0.101   5.575  10.685  1.6403  0.6272  0.0091
  152MOL0     H20490  -0.104   5.721  10.513  0.7790 -0.0864 -0.9901
  152MOL0     H20491  -0.117   5.669  10.680 -0.1536  2.4382 -1.4851
  152MOL0     H20492  -0.106   5.503  10.429 -1.1604  3.0080 -1.2980
  152MOL0     H20493  -0.086   5.425  10.582 -0.3045  0.1072 -1.7119
  152MOL0     H20494  -0.343   5.550  10.479 -0.7388  0.9970 -0.0792
  152MOL0     H20495  -0.325   5.512  10.648 -2.4904 -1.5680  0.2279
  152MOL0     H20496  -0.312   5.290  10.445  3.1130 -0.0090  0.8725
  152MOL0     H20497  -0.305   5.293  10.624 -2.2477  0.3950  1.1979
  152MOL0     H20498  -0.536   5.421  10.607  1.4649  0.6089 -0.3818
  152MOL0     H20499  -0.515   5.248  10.633  1.3208  1.5522  1.8694
  152MOL0     H20500  -0.521   5.207  10.392 -1.1347  0.0605  0.5535
  152MOL0     H20501  -0.540   5.389  10.364  0.9883  0.1382  0.9021
  152MOL0     H20502   0.031   5.983  10.333  0.1566  0.5715 -0.2544
  152MOL0     H20503   0.134   6.228  10.248  1.1102  1.2810  0.8166
  152MOL0     H20504   0.479   6.528  10.379  1.6083 -0.3512  2.3064
  152MOL0     H20505   0.570   6.743  10.345 -0.0279 -0.2907 -0.9017
  152MOL0     H20506   2.334   6.776  10.145  0.9729 -0.0930 -0.7754
  152MOL0     H20507   2.534   6.715  10.232 -1.6308  0.0119 -0.2750
  152MOL0     H20508   2.789   6.588  10.742 -1.1416  1.2694  0.3317
  152MOL0     H20509   3.029   6.550  10.789  2.4521  0.3567 -0.4534
  152MOL0     H20510   3.306   6.579  10.476 -0.4545 -2.1937  2.6623
  152MOL0     H20511   3.344   6.738  10.527  2.3245  0.4346  0.5646
  152MOL0     H20512   3.444   6.519  10.698 -0.5010 -0.2457 -2.0261
  152MOL0     H20513   3.501   6.678  10.681 -0.6868  0.6287  0.2266
  152MOL0     H20514   3.565   6.636  10.443  0.0890  1.1254 -0.1251
  152MOL0     H20515   3.532   6.458  10.487 -1.0135  1.6938 -2.7026
  152MOL0     H20516   3.772   6.516  10.480  2.3089  2.7216 -0.1307
  152MOL0     H20517   3.728   6.476  10.652 -2.1612  1.5125  1.9686
  152MOL0     H20518   3.852   6.866  10.673  1.1372 -1.0878  0.9574
  152MOL0     H20519   3.133   6.745  10.431 -2.2974  2.5029 -0.9982
  152MOL0     H20520   2.909   6.787  10.384  1.4488 -0.6414 -0.7923
  153MOL0     O20521   9.441   6.209  11.274  0.2471 -0.0485  0.5193
  153MOL0     C20522   9.461   6.333  11.294 -0.1059  0.6124 -0.0963
  153MOL0     O20523   9.382   6.405  11.373  0.1955 -0.8998  0.2627
  153MOL0     C20524   9.285   6.330  11.445 -0.0590 -0.8476 -0.6163
  153MOL0     C20525   9.321   6.222  11.526  0.2389 -1.0578  0.8626
  153MOL0     C20526   9.222   6.164  11.615  0.4839  0.1657  0.3350
  153MOL0     C20527   9.086   6.199  11.609 -0.5335  0.2431  0.7213
  153MOL0     O20528   8.990   6.149  11.696 -0.0077 -0.0221 -0.2535
  153MOL0     C20529   8.850   6.169  11.667  0.0229  0.3017 -0.4905
  153MOL0     C20530   8.771   6.073  11.757  0.7296  0.2602  0.1244
  153MOL0     C20531   8.622   6.104  11.732 -0.2713  1.3113 -0.0710
  153MOL0     C20532   8.522   6.017  11.813 -0.4328 -0.2836 -0.2931
  153MOL0     C20533   8.384   6.065  11.773 -0.4003 -0.0647 -0.6357
  153MOL0     C20534   8.270   5.980  11.839 -0.1479  0.2858  0.5285
  153MOL0     C20535   8.132   6.048  11.840  0.0268  0.4551 -0.0814
  153MOL0     C20536   8.080   6.087  11.692 -0.5251  0.8137 -0.3520
  153MOL0     N20537   7.944   6.149  11.715  0.2930 -0.1839 -0.6034
  153MOL0     C20538   7.831   6.083  11.674 -0.5524  0.5944  0.6456
  153MOL0     C20539   7.729   6.146  11.736 -0.2203  0.0925  0.0474
  153MOL0     C20540   7.585   6.102  11.722  0.3549  0.0156  1.0872
  153MOL0     C20541   7.502   6.195  11.806 -0.4062 -0.2439 -0.2247
  153MOL0     C20542   7.361   6.147  11.798  0.1440  0.7627 -0.2422
  153MOL0     C20543   7.274   6.217  11.904  0.9015  0.4030  1.0214
  153MOL0     O20544   7.138   6.195  11.866 -0.1640  0.2571 -0.9761
  153MOL0     C20545   7.040   6.226  11.961  0.5375 -0.5375  0.8680
  153MOL0     C20546   6.914   6.265  11.910 -0.3542  0.3471 -0.2436
  153MOL0     C20547   6.807   6.298  11.999 -0.2911  0.3543 -0.9931
  153MOL0     C20548   6.673   6.342  11.939 -1.1163  0.7983 -0.1214
  153MOL0     C20549   6.827   6.281  12.142  0.5519 -0.7863 -0.2567
  153MOL0     C20550   6.718   6.293  12.243 -0.3655  0.2419  0.6942
  153MOL0     O20551   6.591   6.283  12.198 -0.0434  0.2695  0.6167
  153MOL0     C20552   6.498   6.298  12.290  0.1705 -0.5577  0.9050
  153MOL0     C20553   6.414   6.411  12.283 -0.4911  0.4902 -0.2733
  153MOL0     C20554   6.304   6.421  12.368 -0.2018 -0.3625 -1.3475
  153MOL0     C20555   6.288   6.339  12.477  0.7652 -0.1341 -0.5064
  153MOL0     O20556   6.170   6.368  12.549 -0.9486 -0.2374  0.1817
  153MOL0     C20557   6.147   6.298  12.675 -1.3430  0.4522  0.1281
  153MOL0     C20558   6.028   6.368  12.742  0.3557 -0.0572  0.6709
  153MOL0     C20559   6.005   6.310  12.872 -0.5020 -0.1819  0.0725
  153MOL0     C20560   5.949   6.420  12.976  1.3510  0.2867  0.3217
  153MOL0     C20561   5.941   6.378  13.123  0.2267  0.0469 -0.1947
  153MOL0     C20562   5.903   6.498  13.217 -1.2711  0.3047  0.8686
  153MOL0     C20563   5.969   6.476  13.355 -0.3632  0.1911 -0.1371
  153MOL0     C20564   5.938   6.585  13.456 -0.3214  0.3611  0.2773
  153MOL0    Cl20565   5.983   6.535  13.627 -0.1843  0.0246 -0.0235
  153MOL0     C20566   6.368   6.220  12.485 -0.6670  0.2585  0.0147
  153MOL0     C20567   6.477   6.207  12.389  0.1227  1.2574 -1.0113
  153MOL0     O20568   6.753   6.306  12.362  0.5886 -0.0240  0.8429
  153MOL0     C20569   6.952   6.241  12.185 -0.6912  1.0250  0.1070
  153MOL0     C20570   7.051   6.214  12.095  1.0604  0.9476 -0.3147
  153MOL0     N20571   7.783   6.243  11.819 -0.0634 -0.4300 -0.0515
  153MOL0     N20572   7.909   6.243  11.810 -0.0856 -0.3641 -0.4650
  153MOL0     C20573   9.053   6.314  11.528  0.1938  0.0354 -0.2637
  153MOL0     C20574   9.151   6.378  11.452  0.5440 -0.7657 -0.0001
  153MOL0     C20575   9.592   6.386  11.241  0.1050  0.2628 -0.8591
  153MOL0     C20576   9.678   6.304  11.167 -0.0197 -0.1347  1.0876
  153MOL0     C20577   9.800   6.342  11.114  0.4093 -0.1550  0.1267
  153MOL0     C20578   9.845   6.474  11.142  0.0805  0.8556 -0.8692
  153MOL0     O20579   9.973   6.503  11.102  0.3665 -0.6390 -0.1761
  153MOL0     C20580  10.037   6.629  11.141  0.1782  0.1344 -0.2260
  153MOL0     C20581  10.158   6.640  11.056 -0.0166 -0.3339 -0.3146
  153MOL0     C20582  10.239   6.765  11.074  0.1023 -0.3512  0.1172
  153MOL0     C20583  10.368   6.775  10.997  0.7472  0.0891  0.3721
  153MOL0     C20584  10.352   6.789  10.855 -0.1327  0.7190 -0.0207
  153MOL0     C20585  10.351   6.799  10.732 -0.4266 -1.0559  0.2529
  153MOL0     C20586   9.759   6.548  11.231 -0.0093 -0.8579  0.5453
  153MOL0     C20587   9.636   6.504  11.278 -0.0055 -0.1432  0.0504
  153MOL0     H20588   9.425   6.195  11.534  0.5519 -0.1838 -0.1799
  153MOL0     H20589   9.240   6.091  11.693 -0.7931  0.6630  1.1109
  153MOL0     H20590   8.830   6.268  11.709  0.5530 -0.8626  2.7909
  153MOL0     H20591   8.826   6.160  11.561 -0.2565  0.3710 -0.4332
  153MOL0     H20592   8.777   5.968  11.730  2.3671  0.3719 -0.0287
  153MOL0     H20593   8.799   6.082  11.863 -1.5424  0.2054  0.7853
  153MOL0     H20594   8.616   6.210  11.756  2.2323  2.3222 -3.1473
  153MOL0     H20595   8.598   6.101  11.625 -1.0642 -0.2780  0.1240
  153MOL0     H20596   8.527   5.911  11.787 -0.1066 -0.0722 -1.1100
  153MOL0     H20597   8.541   6.034  11.920  0.8174 -2.4243 -0.1145
  153MOL0     H20598   8.368   6.171  11.798 -1.8495 -0.4242  0.0930
  153MOL0     H20599   8.376   6.065  11.664 -0.5030  1.4967 -0.6595
  153MOL0     H20600   8.263   5.893  11.774 -3.8813  0.2294  0.8006
  153MOL0     H20601   8.300   5.952  11.940 -0.2027 -1.5124  0.0725
  153MOL0     H20602   8.056   5.981  11.881  1.5295 -1.4392 -0.2352
  153MOL0     H20603   8.145   6.137  11.902  3.2534 -1.5922  2.4790
  153MOL0     H20604   8.067   5.997  11.631  0.7551 -1.3270  2.3046
  153MOL0     H20605   8.143   6.157  11.636  2.4580 -2.3405 -1.2829
  153MOL0     H20606   7.828   5.994  11.612  0.9522 -1.2513  3.0608
  153MOL0     H20607   7.545   6.100  11.620  1.9558 -0.6811  0.4525
  153MOL0     H20608   7.578   6.001  11.763 -2.5924 -0.3429  0.0176
  153MOL0     H20609   7.505   6.294  11.761  0.5347 -0.3125 -0.3219
  153MOL0     H20610   7.546   6.198  11.906  0.4533 -0.0747 -0.5995
  153MOL0     H20611   7.345   6.040  11.809 -0.9109  1.0686  1.6694
  153MOL0     H20612   7.312   6.178  11.705  0.5867  0.2360 -0.6575
  153MOL0     H20613   7.299   6.323  11.912  2.6671  0.2313 -1.1535
  153MOL0     H20614   7.305   6.180  12.002 -0.8587 -2.0019  0.7518
  153MOL0     H20615   6.896   6.268  11.803  0.8885 -0.1231 -0.4806
  153MOL0     H20616   6.623   6.423  11.992 -2.6821  1.2223 -2.1001
  153MOL0     H20617   6.694   6.375  11.837 -1.3534  0.1935 -0.3753
  153MOL0     H20618   6.607   6.255  11.932  0.9738 -0.8847  0.0098
  153MOL0     H20619   6.434   6.484  12.205 -0.2815  0.0681 -0.6147
  153MOL0     H20620   6.244   6.511  12.357 -1.6460 -0.8511  1.5483
  153MOL0     H20621   6.130   6.193  12.653  2.1447  0.1681 -2.0452
  153MOL0     H20622   6.231   6.304  12.745 -0.3649  0.1209 -0.9958
  153MOL0     H20623   6.050   6.475  12.751 -1.6065  0.5102 -0.6184
  153MOL0     H20624   5.933   6.348  12.690 -0.4820 -0.0284  2.1256
  153MOL0     H20625   6.094   6.266  12.919 -1.1831 -2.0150 -0.2401
  153MOL0     H20626   5.936   6.225  12.879 -1.3243  0.5132  0.7536
  153MOL0     H20627   6.024   6.499  12.963  3.1660 -1.4787 -0.3872
  153MOL0     H20628   5.857   6.467  12.940  2.0319  0.9802 -0.5708
  153MOL0     H20629   6.043   6.350  13.147  1.0746  1.4273 -1.9348
  153MOL0     H20630   5.878   6.289  13.138  1.1666 -0.4096  1.2396
  153MOL0     H20631   5.946   6.587  13.171 -0.1097 -1.2229 -1.1443
  153MOL0     H20632   5.794   6.502  13.227 -1.6054  0.7058 -2.1999
  153MOL0     H20633   6.077   6.483  13.335 -0.5467  0.9354 -0.9568
  153MOL0     H20634   5.946   6.389  13.416  1.7829  1.7719  3.2861
  153MOL0     H20635   5.830   6.603  13.454  0.0007  2.7104  0.3650
  153MOL0     H20636   5.976   6.684  13.429 -2.8965  0.9404 -1.5888
  153MOL0     H20637   6.360   6.143  12.561  0.3571 -1.6167 -1.6936
  153MOL0     H20638   6.546   6.124  12.403  1.5910  2.6644  0.6986
  153MOL0     H20639   6.970   6.219  12.290 -0.2090 -1.2165 -0.3980
  153MOL0     H20640   7.150   6.193  12.133  0.7702 -0.0877 -0.0965
  153MOL0     H20641   8.953   6.355  11.525  0.4276  1.0080  2.2782
  153MOL0     H20642   9.118   6.468  11.402 -0.5231 -0.0677  1.8535
  153MOL0     H20643   9.643   6.206  11.134  0.2093 -0.4977  1.8919
  153MOL0     H20644   9.865   6.284  11.050  0.0344  0.6458 -1.0233
  153MOL0     H20645   9.965   6.711  11.136 -2.6679 -2.1256 -5.1238
  153MOL0     H20646  10.075   6.615  11.242 -4.0422 -2.2979  1.3009
  153MOL0     H20647  10.123   6.637  10.952  2.0735  0.1406 -1.0928
  153MOL0     H20648  10.214   6.551  11.083  1.6648  1.2598  1.7988
  153MOL0     H20649  10.263   6.793  11.177 -0.8164 -0.3906  0.3509
  153MOL0     H20650  10.161   6.839  11.051 -1.3947 -1.2936  1.8271
  153MOL0     H20651  10.433   6.687  11.005 -0.9204 -1.3169 -0.7129
  153MOL0     H20652  10.422   6.867  11.020 -1.1338  2.0959 -2.6557
  153MOL0     H20653  10.346   6.807  10.625 -3.3109 -3.4206  0.1026
  153MOL0     H20654   9.790   6.649  11.256 -0.5602  0.0814 -2.1562
  153MOL0     H20655   9.574   6.562  11.346 -0.6010 -2.9385  2.0613
  154MOL0     O20656  11.004   1.217   9.455  0.1535  0.2288  0.3790
  154MOL0     C20657  11.122   1.192   9.490  0.5348  0.6054 -0.4958
  154MOL0     O20658  11.158   1.131   9.617  0.6877 -0.2901  0.3994
  154MOL0     C20659  11.046   1.086   9.690 -0.0638 -0.0482 -0.0595
  154MOL0     C20660  10.982   0.967   9.674 -0.1014  0.0719 -0.6093
  154MOL0     C20661  10.870   0.934   9.745 -0.1134 -0.2023 -0.9491
  154MOL0     C20662  10.827   1.013   9.851 -0.7606  0.1246  0.6773
  154MOL0     O20663  10.714   0.989   9.926 -0.6662  0.1177  1.3522
  154MOL0     C20664  10.637   1.101   9.996  0.0719  0.7575  0.5417
  154MOL0     C20665  10.487   1.061  10.013 -0.3780 -0.0427 -0.4029
  154MOL0     C20666  10.471   0.945  10.112  0.6367 -0.4877 -0.1390
  154MOL0     C20667  10.327   0.908  10.125  0.8722  0.8733 -0.4619
  154MOL0     C20668  10.298   0.794  10.229 -0.0193  0.3763  0.0839
  154MOL0     C20669  10.369   0.659  10.212  0.2216 -0.0961 -0.0121
  154MOL0     C20670  10.330   0.567  10.338  0.1588  0.2406 -0.3620
  154MOL0     C20671  10.398   0.615  10.465 -0.2314 -0.0912 -0.3045
  154MOL0     N20672  10.381   0.519  10.569 -0.1047 -0.2246  0.6013
  154MOL0     C20673  10.287   0.549  10.661 -0.1362 -0.4142 -0.6931
  154MOL0     C20674  10.301   0.458  10.754 -0.2770  0.8211  0.2536
  154MOL0     C20675  10.218   0.447  10.878 -0.3835  0.7540 -0.1850
  154MOL0     C20676  10.146   0.310  10.890 -0.4599 -0.2861 -0.3261
  154MOL0     C20677  10.098   0.299  11.036  0.5460  0.3180  0.4277
  154MOL0     C20678  10.025   0.167  11.073 -0.2269  0.1020  0.6735
  154MOL0     O20679   9.975   0.184  11.203 -0.6459 -0.3612  0.6540
  154MOL0     C20680   9.846   0.143  11.229  0.6037 -0.4465 -0.0460
  154MOL0     C20681   9.758   0.236  11.299  0.0135  0.7776  0.2182
  154MOL0     C20682   9.628   0.204  11.337  0.6803  0.7059 -0.3284
  154MOL0     C20683   9.549   0.308  11.407 -0.3643  0.4108  0.1411
  154MOL0     C20684   9.577   0.079  11.285  0.1759  0.0567 -0.0829
  154MOL0     C20685   9.436   0.051  11.304  0.0464 -0.3838  0.1896
  154MOL0     O20686   9.378   0.066  11.435  0.3116  0.5423  0.4571
  154MOL0     C20687   9.248   0.044  11.459  0.6196  0.1317 -0.3867
  154MOL0     C20688   9.138   0.111  11.395 -0.2524 -0.2966  0.8208
  154MOL0     C20689   9.003   0.097  11.427 -0.1123 -0.2106 -0.3579
  154MOL0     C20690   8.964   0.015  11.531  0.3804 -1.4106  0.2390
  154MOL0     O20691   8.842   0.012  11.582  0.5303  0.3157  0.6140
  154MOL0     C20692   8.729   0.049  11.497 -1.0245  0.5473 -0.1569
  154MOL0     C20693   8.594   0.011  11.555 -0.1550 -0.4496 -0.3810
  154MOL0     C20694   8.568   0.063  11.698 -0.5226 -0.1745  0.1206
  154MOL0     C20695   8.439   0.014  11.760  0.1200 -0.2583  0.8714
  154MOL0     C20696   8.380   0.099  11.874  0.0655 -0.9945 -0.4618
  154MOL0     C20697   8.250   0.055  11.927 -0.3536  0.6830 -0.5715
  154MOL0     C20698   8.257  -0.079  12.004  0.2698 -0.3113 -0.0037
  154MOL0     C20699   8.114  -0.112  12.033  0.2277 -0.1998  0.6816
  154MOL0    Cl20700   8.032   0.003  12.127 -0.1691  0.3804  0.2331
  154MOL0     C20701   9.071  -0.059  11.607  0.6656 -0.2352 -0.3610
  154MOL0     C20702   9.207  -0.040  11.572 -0.5423  0.0624 -0.1344
  154MOL0     O20703   9.382  -0.007  11.219 -0.4400 -0.0434  0.4200
  154MOL0     C20704   9.665  -0.007  11.206  0.7692  0.2654  0.0018
  154MOL0     C20705   9.794   0.023  11.186  0.8242  0.6693 -0.2425
  154MOL0     N20706  10.408   0.373  10.718 -0.0331  0.0031 -0.2878
  154MOL0     N20707  10.449   0.405  10.605 -0.2376 -0.2992 -0.4479
  154MOL0     C20708  10.893   1.136   9.865 -0.3306  0.2098  0.9239
  154MOL0     C20709  10.999   1.171   9.793 -0.3653 -0.3143  0.2380
  154MOL0     C20710  11.233   1.246   9.414 -0.9169  0.1742 -0.5722
  154MOL0     C20711  11.204   1.335   9.303 -0.8986 -0.5245  0.5398
  154MOL0     C20712  11.305   1.410   9.248 -0.8460  0.6247  0.3239
  154MOL0     C20713  11.438   1.397   9.288  0.2672  0.3539 -0.8464
  154MOL0     O20714  11.532   1.476   9.220 -0.1532 -0.8796  0.4749
  154MOL0     C20715  11.670   1.458   9.246  0.1451 -0.6545 -0.1675
  154MOL0     C20716  11.752   1.557   9.173  0.1895 -0.1823  0.1995
  154MOL0     C20717  11.781   1.685   9.249  1.2078 -0.8070 -0.5254
  154MOL0     C20718  11.864   1.792   9.175 -0.1992 -0.0890 -0.3799
  154MOL0     C20719  11.910   1.901   9.267 -0.8176 -1.2477 -0.3265
  154MOL0     C20720  11.923   1.990   9.353  0.5240 -0.8036  0.0807
  154MOL0     C20721  11.465   1.323   9.401 -0.0718  0.6345 -0.6094
  154MOL0     C20722  11.368   1.247   9.459 -0.4471  0.3215  0.6644
  154MOL0     H20723  11.024   0.895   9.603  1.6012 -1.9401  2.2162
  154MOL0     H20724  10.819   0.844   9.713  0.5081  0.2756 -3.5302
  154MOL0     H20725  10.675   1.118  10.097  2.4489  2.0623 -0.4918
  154MOL0     H20726  10.640   1.195   9.941  0.1713 -0.7581 -2.2672
  154MOL0     H20727  10.418   1.144  10.029  0.9507  1.4662 -2.0752
  154MOL0     H20728  10.465   1.025   9.911 -0.5757 -1.9793  0.2750
  154MOL0     H20729  10.520   0.855  10.076 -0.4832 -0.6935 -1.2424
  154MOL0     H20730  10.513   0.977  10.208 -0.9616 -1.7340  1.0507
  154MOL0     H20731  10.277   1.003  10.148  2.3311  1.1879  1.6993
  154MOL0     H20732  10.282   0.872  10.032  1.5179 -1.2017 -0.0168
  154MOL0     H20733  10.308   0.836  10.329  1.2805  0.2369  0.0370
  154MOL0     H20734  10.189   0.792  10.220 -0.2293  2.5548  1.4391
  154MOL0     H20735  10.334   0.609  10.122  1.9416 -0.7181 -0.3825
  154MOL0     H20736  10.478   0.669  10.207  0.2464  1.3029  2.0571
  154MOL0     H20737  10.221   0.567  10.354 -0.1546  1.9917 -2.0532
  154MOL0     H20738  10.371   0.469  10.315  2.5732  1.4071 -1.4190
  154MOL0     H20739  10.364   0.710  10.508  1.1666  0.1248  0.3747
  154MOL0     H20740  10.502   0.626  10.434 -0.4957  3.8828 -0.2230
  154MOL0     H20741  10.216   0.632  10.660 -0.9364 -1.0517  0.5708
  154MOL0     H20742  10.282   0.471  10.963 -0.7770  0.5261  0.1863
  154MOL0     H20743  10.141   0.524  10.868 -2.1391 -1.0703 -1.6166
  154MOL0     H20744  10.223   0.233  10.875  1.4659  1.2668  1.0676
  154MOL0     H20745  10.065   0.291  10.819 -1.7191 -0.6531  1.1447
  154MOL0     H20746  10.039   0.388  11.059 -0.4503  0.4964 -2.4274
  154MOL0     H20747  10.188   0.301  11.097  1.4249 -2.2145 -0.6539
  154MOL0     H20748  10.092   0.081  11.068  0.0899  0.4131 -1.2966
  154MOL0     H20749   9.939   0.150  11.009  0.5362 -3.4860  0.3979
  154MOL0     H20750   9.801   0.334  11.318 -0.5378  0.9729  0.4731
  154MOL0     H20751   9.588   0.408  11.388 -0.2094  0.0699 -1.4254
  154MOL0     H20752   9.451   0.303  11.358 -0.3000 -3.0275  0.1068
  154MOL0     H20753   9.536   0.289  11.514  0.6506 -1.0182  0.0423
  154MOL0     H20754   9.172   0.174  11.313  0.6287 -0.2608  1.2030
  154MOL0     H20755   8.926   0.149  11.370  1.3358  0.3970 -1.8395
  154MOL0     H20756   8.720   0.158  11.496  0.7197  0.7935  2.1631
  154MOL0     H20757   8.748   0.011  11.396 -0.4109 -2.5686  1.0173
  154MOL0     H20758   8.532   0.063  11.481 -0.7889  0.7273  0.9401
  154MOL0     H20759   8.565  -0.094  11.545 -0.8663 -0.2263 -0.7265
  154MOL0     H20760   8.566   0.172  11.706  1.8585 -0.0654  0.0275
  154MOL0     H20761   8.652   0.038  11.764  1.0738  1.2157 -1.2814
  154MOL0     H20762   8.373   0.004  11.673 -0.3914 -1.3523  1.3594
  154MOL0     H20763   8.453  -0.092  11.784 -1.3612 -1.0668 -1.4798
  154MOL0     H20764   8.377   0.203  11.842  4.4132  0.0794  1.7828
  154MOL0     H20765   8.454   0.093  11.955  0.6952  0.9391 -0.8416
  154MOL0     H20766   8.218   0.131  11.999 -1.3389  0.2303 -0.5159
  154MOL0     H20767   8.171   0.038  11.853 -0.5902 -2.2250  0.1945
  154MOL0     H20768   8.321  -0.071  12.092  0.4290  0.2443 -0.1681
  154MOL0     H20769   8.317  -0.148  11.944  2.6920  0.8080  0.9945
  154MOL0     H20770   8.101  -0.210  12.081 -0.3789 -2.0678 -2.8991
  154MOL0     H20771   8.055  -0.118  11.941  0.7428  0.8959  0.2626
  154MOL0     H20772   9.048  -0.129  11.686  0.0509 -0.5460 -0.8141
  154MOL0     H20773   9.283  -0.105  11.614 -0.7557 -1.8400 -2.4870
  154MOL0     H20774   9.636  -0.103  11.167  0.1292  1.4242 -2.5851
  154MOL0     H20775   9.863  -0.039  11.128  0.9826  1.9532 -1.4812
  154MOL0     H20776  10.857   1.214   9.931 -0.6763  1.3001 -0.5114
  154MOL0     H20777  11.040   1.271   9.801 -0.6252 -0.1547 -0.3410
  154MOL0     H20778  11.105   1.353   9.263  0.8187  1.4983 -3.4407
  154MOL0     H20779  11.286   1.484   9.171  0.7144  1.8626  1.0466
  154MOL0     H20780  11.691   1.464   9.353  2.2532  2.9390 -0.6097
  154MOL0     H20781  11.696   1.355   9.220  1.4966 -0.7129  1.3053
  154MOL0     H20782  11.711   1.575   9.073 -1.6131  0.7370  1.0450
  154MOL0     H20783  11.845   1.501   9.166 -0.5469 -1.2367 -2.7063
  154MOL0     H20784  11.838   1.653   9.337  1.1480 -3.8612 -1.4724
  154MOL0     H20785  11.687   1.725   9.286  1.1674 -0.1777 -1.2786
  154MOL0     H20786  11.812   1.844   9.094  0.4040  0.3082 -0.5201
  154MOL0     H20787  11.949   1.748   9.122  0.3165 -1.9305  1.8494
  154MOL0     H20788  11.943   2.078   9.411  0.4470 -1.1298  0.6146
  154MOL0     H20789  11.567   1.315   9.436  0.2779 -3.3921 -2.0116
  154MOL0     H20790  11.399   1.195   9.549 -0.4620 -1.1332 -0.1440
  155MOL0     O20791  11.183   6.670   5.282 -0.0498  1.3685  0.2709
  155MOL0     C20792  11.239   6.578   5.208  0.6777 -0.3564 -0.5262
  155MOL0     O20793  11.163   6.488   5.141 -0.2161 -0.0886  0.0773
  155MOL0     C20794  11.030   6.525   5.123  0.3430  1.3847  0.8730
  155MOL0     C20795  10.972   6.653   5.077 -0.5779  0.6929 -0.6345
  155MOL0     C20796  10.831   6.672   5.063 -0.8022 -0.2902 -0.0439
  155MOL0     C20797  10.745   6.565   5.079  0.3597 -0.1531 -0.5624
  155MOL0     O20798  10.611   6.597   5.072 -0.6031 -0.7959 -0.1930
  155MOL0     C20799  10.507   6.492   5.104 -1.4571 -0.2608 -0.0520
  155MOL0     C20800  10.369   6.563   5.119 -0.4578  0.3579  1.5711
  155MOL0     C20801  10.372   6.685   5.206 -0.3491  0.1863  0.3134
  155MOL0     C20802  10.234   6.725   5.275 -0.4485  0.3942  0.3566
  155MOL0     C20803  10.148   6.828   5.193 -0.0860  0.2798 -0.0935
  155MOL0     C20804  10.001   6.828   5.237 -0.7476  0.5187 -0.4916
  155MOL0     C20805   9.920   6.916   5.146 -0.4103 -0.2354  0.0254
  155MOL0     C20806   9.932   7.067   5.185 -0.1136  0.6615 -0.0966
  155MOL0     N20807   9.846   7.159   5.117  0.7339 -0.6058  0.2164
  155MOL0     C20808   9.720   7.190   5.138 -0.2580 -0.2536 -0.7100
  155MOL0     C20809   9.684   7.270   5.029  0.6773  0.7482 -0.1568
  155MOL0     C20810   9.544   7.333   5.018 -0.1134  1.4068 -0.6745
  155MOL0     C20811   9.461   7.259   4.908 -0.1571  0.1854 -0.1730
  155MOL0     C20812   9.343   7.346   4.882 -0.6534 -0.4640  0.1550
  155MOL0     C20813   9.255   7.292   4.766 -0.2947 -0.3136 -0.4628
  155MOL0     O20814   9.151   7.216   4.813 -0.0527  0.4480 -0.0985
  155MOL0     C20815   9.026   7.271   4.821  0.7071  1.1796  0.7400
  155MOL0     C20816   8.926   7.178   4.852  1.2394 -0.6771 -0.1875
  155MOL0     C20817   8.800   7.213   4.892 -0.3295 -0.4788  0.7807
  155MOL0     C20818   8.713   7.098   4.939  0.1254 -0.1968 -0.2707
  155MOL0     C20819   8.764   7.354   4.878  0.9150 -0.3905  0.8620
  155MOL0     C20820   8.635   7.403   4.901  0.2442  1.1149 -0.7319
  155MOL0     O20821   8.606   7.529   4.857  0.0360 -0.1443  1.3020
  155MOL0     C20822   8.485   7.596   4.882 -0.0820  1.2146 -0.1792
  155MOL0     C20823   8.406   7.595   5.002  0.1282 -0.1575 -0.1788
  155MOL0     C20824   8.292   7.678   5.019 -1.2175 -0.6928  0.2939
  155MOL0     C20825   8.256   7.763   4.920 -0.0577 -0.2118  0.1296
  155MOL0     O20826   8.130   7.822   4.929 -0.7139 -0.3205  0.3687
  155MOL0     C20827   8.081   7.891   4.815 -0.1336  0.5758  0.3656
  155MOL0     C20828   7.932   7.907   4.843 -1.0353 -0.3303 -0.3125
  155MOL0     C20829   7.864   7.770   4.819  0.3576 -0.6155 -0.4480
  155MOL0     C20830   7.828   7.749   4.670 -0.1455 -0.7332 -0.5884
  155MOL0     C20831   7.782   7.599   4.673  0.1046 -0.0132  0.2765
  155MOL0     C20832   7.726   7.553   4.536  0.8820 -0.8147  0.4774
  155MOL0     C20833   7.672   7.410   4.535 -0.0223 -0.2643  0.2873
  155MOL0     C20834   7.641   7.363   4.390 -0.7747  0.1167 -0.0594
  155MOL0    Cl20835   7.509   7.459   4.335 -0.0926  0.0133 -0.0373
  155MOL0     C20836   8.344   7.784   4.816  0.2339  0.3103 -0.2973
  155MOL0     C20837   8.450   7.694   4.789 -0.1496 -0.4902 -0.1858
  155MOL0     O20838   8.547   7.324   4.951 -0.9760 -0.1796 -0.2623
  155MOL0     C20839   8.861   7.448   4.839  0.0251 -0.3752  0.7893
  155MOL0     C20840   8.991   7.408   4.812 -0.0862 -0.9761  0.3471
  155MOL0     N20841   9.793   7.283   4.945  0.1624 -0.1638 -0.2353
  155MOL0     N20842   9.890   7.223   5.004 -0.7271  0.2433  0.0377
  155MOL0     C20843  10.793   6.444   5.112 -1.1529  0.5485 -0.1885
  155MOL0     C20844  10.932   6.424   5.137  0.7028  0.4242  0.0851
  155MOL0     C20845  11.377   6.549   5.236  0.3047  0.7570  0.0106
  155MOL0     C20846  11.453   6.612   5.335  0.1871  0.7355 -0.5001
  155MOL0     C20847  11.588   6.577   5.360 -0.1226  0.4895  0.4066
  155MOL0     C20848  11.647   6.476   5.286 -0.2025 -0.1866 -0.7711
  155MOL0     O20849  11.773   6.438   5.322  0.4795 -0.5573 -0.3236
  155MOL0     C20850  11.878   6.504   5.253  0.1386  0.1214  0.6466
  155MOL0     C20851  12.000   6.479   5.336 -0.3882 -1.0656  0.8026
  155MOL0     C20852  12.118   6.533   5.257  0.5109 -0.1722 -0.3219
  155MOL0     C20853  12.236   6.541   5.351  1.0127 -0.5735 -0.0949
  155MOL0     C20854  12.355   6.589   5.278  0.3361  0.0097  0.0626
  155MOL0     C20855  12.456   6.615   5.219 -0.3758  0.0135 -1.1039
  155MOL0     C20856  11.574   6.411   5.180 -0.0741 -0.4931  0.4592
  155MOL0     C20857  11.439   6.448   5.162 -0.3093 -0.3453 -0.3026
  155MOL0     H20858  11.027   6.742   5.051  1.3786  0.3724  1.9365
  155MOL0     H20859  10.800   6.768   5.022  3.7121  0.4686 -2.3888
  155MOL0     H20860  10.505   6.404   5.039  0.8591 -1.0440  0.8359
  155MOL0     H20861  10.536   6.455   5.202 -0.4172 -0.7610 -0.5332
  155MOL0     H20862  10.344   6.592   5.017  2.9456  0.4958  0.6647
  155MOL0     H20863  10.297   6.489   5.156 -1.7577  0.3730 -0.7367
  155MOL0     H20864  10.447   6.661   5.282 -2.5880  0.7016  2.8330
  155MOL0     H20865  10.402   6.772   5.147  0.9569 -1.4690 -1.5860
  155MOL0     H20866  10.181   6.635   5.307 -0.9982  0.8045  0.6273
  155MOL0     H20867  10.263   6.782   5.364  0.9983  2.1410 -1.1666
  155MOL0     H20868  10.200   6.923   5.207  3.3559 -1.5503  0.6246
  155MOL0     H20869  10.143   6.794   5.089  0.0296 -3.3058  0.9496
  155MOL0     H20870   9.973   6.723   5.224  3.9177 -0.8543 -1.1689
  155MOL0     H20871   9.988   6.852   5.343 -0.3211  0.5016 -0.4346
  155MOL0     H20872   9.944   6.921   5.039 -0.1251 -0.1838  0.0924
  155MOL0     H20873   9.821   6.872   5.161 -1.0490  0.4693 -1.7934
  155MOL0     H20874  10.037   7.096   5.179 -0.7849  3.5101  0.5761
  155MOL0     H20875   9.901   7.056   5.289  1.8012 -5.0023  0.1968
  155MOL0     H20876   9.657   7.159   5.221 -0.2585 -0.1466 -0.6706
  155MOL0     H20877   9.490   7.321   5.112 -1.5874  2.2622 -1.3722
  155MOL0     H20878   9.555   7.438   4.990 -1.6814  1.7332 -0.1660
  155MOL0     H20879   9.436   7.162   4.952  1.3731 -1.6515 -3.0857
  155MOL0     H20880   9.518   7.243   4.816 -1.4477  2.2137 -1.4107
  155MOL0     H20881   9.386   7.442   4.855  0.1590 -0.5806  0.9582
  155MOL0     H20882   9.279   7.370   4.968 -0.9480  3.9384 -1.0715
  155MOL0     H20883   9.310   7.237   4.689 -4.0039 -0.8081 -3.0259
  155MOL0     H20884   9.213   7.378   4.713  1.2677  1.4142  0.9589
  155MOL0     H20885   8.949   7.072   4.848 -1.3716 -1.2961 -1.7590
  155MOL0     H20886   8.665   7.061   4.847  0.3304 -0.1217 -0.4089
  155MOL0     H20887   8.774   7.014   4.972 -0.1518 -0.7002 -1.0078
  155MOL0     H20888   8.640   7.109   5.020 -2.1832 -2.4896 -1.8504
  155MOL0     H20889   8.451   7.536   5.082  1.7337 -1.8027 -2.1744
  155MOL0     H20890   8.237   7.680   5.113  0.3443  1.9247  1.2925
  155MOL0     H20891   8.132   7.987   4.805 -0.4754  0.8731  1.3141
  155MOL0     H20892   8.084   7.826   4.727 -0.7532 -0.4204  1.0508
  155MOL0     H20893   7.932   7.945   4.945  1.8775 -0.6474 -0.1024
  155MOL0     H20894   7.888   7.981   4.775 -0.4837  2.4547  2.1391
  155MOL0     H20895   7.774   7.761   4.881 -0.0549  0.2548 -0.9078
  155MOL0     H20896   7.927   7.690   4.860  0.1916  0.0813  1.2809
  155MOL0     H20897   7.744   7.815   4.645 -1.2826 -0.7938  2.6045
  155MOL0     H20898   7.904   7.763   4.593 -0.8649  1.3902 -0.9745
  155MOL0     H20899   7.704   7.591   4.749  0.1448  1.2147  0.4647
  155MOL0     H20900   7.864   7.528   4.688 -0.8711 -2.0712 -3.0750
  155MOL0     H20901   7.649   7.624   4.501  1.2555 -1.6255 -2.2404
  155MOL0     H20902   7.808   7.559   4.464  3.4841 -0.6414  3.2550
  155MOL0     H20903   7.579   7.394   4.590 -0.1387  0.9981  0.4699
  155MOL0     H20904   7.763   7.352   4.555  0.2772 -1.9266 -4.4257
  155MOL0     H20905   7.617   7.257   4.394 -0.0019 -0.0641 -0.0619
  155MOL0     H20906   7.733   7.378   4.333 -0.3774 -0.9866  0.2698
  155MOL0     H20907   8.322   7.852   4.734 -1.2831  0.0643 -0.1123
  155MOL0     H20908   8.513   7.699   4.700  0.6825 -1.4699  0.3286
  155MOL0     H20909   8.831   7.551   4.828  0.6499 -0.4282 -2.0905
  155MOL0     H20910   9.069   7.483   4.805  0.5183 -1.7707 -3.9215
  155MOL0     H20911  10.729   6.357   5.121 -0.5492 -0.0398 -1.3363
  155MOL0     H20912  10.950   6.318   5.155  0.0236 -0.2233 -2.5275
  155MOL0     H20913  11.396   6.684   5.392  0.0823 -0.9077  1.6175
  155MOL0     H20914  11.635   6.615   5.450  0.0797  3.5639 -0.8736
  155MOL0     H20915  11.882   6.453   5.156 -1.1063  2.3574 -0.6478
  155MOL0     H20916  11.859   6.611   5.246  3.1735  1.0291  3.6133
  155MOL0     H20917  12.005   6.371   5.356  2.3137 -1.5834 -1.9265
  155MOL0     H20918  11.985   6.540   5.426  2.4551  1.1511 -0.0633
  155MOL0     H20919  12.086   6.630   5.220 -1.8247  0.2748  2.5388
  155MOL0     H20920  12.138   6.465   5.173 -1.1410  0.4305 -1.2496
  155MOL0     H20921  12.262   6.440   5.383  0.0072 -0.2257  1.9971
  155MOL0     H20922  12.213   6.610   5.432 -0.2970 -0.7229 -0.3148
  155MOL0     H20923  12.559   6.638   5.200 -0.1339  0.3394  0.4236
  155MOL0     H20924  11.609   6.333   5.113 -1.2202  0.3805 -1.2269
  155MOL0     H20925  11.380   6.407   5.080 -0.2734  1.7816 -1.4609
  156MOL0     O20926   6.888   5.141   4.244  0.3413 -0.8038 -0.4029
  156MOL0     C20927   6.938   5.067   4.163  0.3943  0.2407  0.4347
  156MOL0     O20928   6.877   5.009   4.047 -0.6922 -0.9730 -0.0876
  156MOL0     C20929   6.748   5.057   4.024 -0.7631 -0.3272 -0.0106
  156MOL0     C20930   6.642   5.029   4.111  0.0784 -0.1703  0.8844
  156MOL0     C20931   6.513   5.067   4.079  0.3406  0.3766  0.2414
  156MOL0     C20932   6.489   5.132   3.955 -0.3940  0.3932  0.2484
  156MOL0     O20933   6.355   5.145   3.918 -0.2310 -0.2510  0.6055
  156MOL0     C20934   6.305   5.275   3.952 -0.0301  1.0514 -0.0170
  156MOL0     C20935   6.175   5.244   4.015 -0.9718  0.5718  0.2202
  156MOL0     C20936   6.103   5.370   4.034 -0.5405 -0.8762 -0.0097
  156MOL0     C20937   5.966   5.349   4.110 -0.1220 -0.2818 -0.2204
  156MOL0     C20938   5.935   5.456   4.217 -0.3664 -0.1447  0.0486
  156MOL0     C20939   5.803   5.424   4.297  0.2452 -0.4175  0.1629
  156MOL0     C20940   5.679   5.476   4.217 -0.4050  0.2407 -0.3643
  156MOL0     C20941   5.544   5.428   4.272  0.1806 -0.2093 -0.1620
  156MOL0     N20942   5.442   5.481   4.183  0.8736  0.2380 -0.2447
  156MOL0     C20943   5.396   5.615   4.179  0.4419 -0.5215 -1.2257
  156MOL0     C20944   5.310   5.625   4.076  0.8778  0.6704  0.0326
  156MOL0     C20945   5.214   5.724   4.045  0.0283 -0.0210  0.4752
  156MOL0     C20946   5.082   5.709   4.125  0.0684 -0.4562 -0.0754
  156MOL0     C20947   4.976   5.622   4.060  0.2927 -1.2358  0.9897
  156MOL0     C20948   4.841   5.631   4.136  0.9365 -0.1984  1.0781
  156MOL0     O20949   4.799   5.770   4.161  0.8101  0.3057 -0.3595
  156MOL0     C20950   4.674   5.821   4.160 -0.7956 -0.0259 -0.0450
  156MOL0     C20951   4.669   5.964   4.187 -0.1040 -0.1926 -0.3022
  156MOL0     C20952   4.543   6.023   4.193  0.5712  1.0305 -0.1149
  156MOL0     C20953   4.539   6.182   4.220  0.1231  0.7091 -0.3050
  156MOL0     C20954   4.427   5.950   4.185  0.2178 -0.1125  0.5094
  156MOL0     C20955   4.281   6.003   4.194  0.1121 -0.4098 -0.2104
  156MOL0     O20956   4.181   5.934   4.131  0.7439 -0.0258 -0.4495
  156MOL0     C20957   4.048   5.947   4.161  0.1805 -0.3513  0.3543
  156MOL0     C20958   3.976   6.036   4.244  0.3001 -0.5404  0.1489
  156MOL0     C20959   3.837   6.041   4.260 -0.1287  0.0537 -0.3354
  156MOL0     C20960   3.761   5.965   4.171 -0.7344  0.3314 -0.1090
  156MOL0     O20961   3.621   5.976   4.169 -0.2386 -0.6075 -0.9801
  156MOL0     C20962   3.558   5.962   4.041 -1.4963 -0.2261  0.0661
  156MOL0     C20963   3.407   5.961   4.040  0.6064  0.7080 -0.2417
  156MOL0     C20964   3.343   5.884   4.147 -0.1704  0.0185  0.0882
  156MOL0     C20965   3.194   5.857   4.111  0.6617  0.1883 -0.6112
  156MOL0     C20966   3.112   5.808   4.240  0.3357  0.4045 -0.0106
  156MOL0     C20967   2.956   5.799   4.222 -1.4112  0.0757 -0.8446
  156MOL0     C20968   2.882   5.742   4.351  0.0852 -0.4069  0.0343
  156MOL0     C20969   2.867   5.595   4.349  0.0640 -0.4978 -0.2347
  156MOL0    Cl20970   2.768   5.539   4.200  0.1647 -0.0319  0.2085
  156MOL0     C20971   3.831   5.868   4.095  0.2106 -0.1457 -0.2789
  156MOL0     C20972   3.974   5.866   4.084 -0.1877 -0.4710  0.4430
  156MOL0     O20973   4.260   6.103   4.267  0.2867  0.3933 -0.7587
  156MOL0     C20974   4.436   5.812   4.166  0.1175 -0.8832  0.4560
  156MOL0     C20975   4.556   5.747   4.155  0.2125  0.6306 -0.5244
  156MOL0     N20976   5.287   5.492   4.026 -0.2037  0.1151 -0.3512
  156MOL0     N20977   5.367   5.409   4.091 -0.7108 -0.3655 -0.0685
  156MOL0     C20978   6.590   5.155   3.865 -0.6466 -0.5696  0.1213
  156MOL0     C20979   6.727   5.121   3.907  0.3787  0.0441 -0.7013
  156MOL0     C20980   7.079   5.024   4.176 -0.3913 -0.2017 -0.6769
  156MOL0     C20981   7.136   5.034   4.305  0.7501  0.5177  0.7345
  156MOL0     C20982   7.269   5.015   4.332 -0.1839  0.3764 -0.1548
  156MOL0     C20983   7.367   4.992   4.228 -0.2723  0.0840  0.3451
  156MOL0     O20984   7.497   4.994   4.257 -0.5086  0.3232  0.2765
  156MOL0     C20985   7.570   4.877   4.215 -0.3985  0.3596 -0.5069
  156MOL0     C20986   7.533   4.746   4.296 -1.3978 -0.4062  0.7328
  156MOL0     C20987   7.560   4.759   4.441 -0.8277 -0.0018 -0.1963
  156MOL0     C20988   7.712   4.736   4.463 -0.1907  0.3147 -0.1218
  156MOL0     C20989   7.725   4.758   4.606  0.0935 -0.1663  0.0720
  156MOL0     C20990   7.735   4.793   4.722 -0.7657 -0.3027  0.0071
  156MOL0     C20991   7.310   4.988   4.101  0.3048  0.0861  0.0090
  156MOL0     C20992   7.168   5.017   4.075 -0.3570  1.0464 -0.0722
  156MOL0     H20993   6.659   4.974   4.202  3.0813 -2.2976 -0.7569
  156MOL0     H20994   6.431   5.056   4.150 -0.3034 -0.1659 -0.5796
  156MOL0     H20995   6.363   5.330   4.027 -0.2795 -1.8138  2.4530
  156MOL0     H20996   6.289   5.336   3.863 -1.0375  1.1353  0.2109
  156MOL0     H20997   6.113   5.183   3.949 -0.5261 -0.8790  1.0836
  156MOL0     H20998   6.187   5.187   4.108 -0.8647  1.6166  0.8715
  156MOL0     H20999   6.171   5.443   4.080 -0.8560  1.9293 -3.5196
  156MOL0     H21000   6.082   5.419   3.938  0.9088  1.1135  0.6121
  156MOL0     H21001   5.877   5.330   4.049 -1.2176  0.8246  0.9677
  156MOL0     H21002   5.972   5.259   4.172 -1.3638 -0.7283 -0.7365
  156MOL0     H21003   6.021   5.454   4.285 -0.6583 -1.8941  0.4205
  156MOL0     H21004   5.913   5.555   4.178 -1.1833  0.1850  1.2934
  156MOL0     H21005   5.785   5.318   4.314 -0.5641  0.2421  4.6118
  156MOL0     H21006   5.793   5.471   4.395 -1.0946  0.7549 -0.5009
  156MOL0     H21007   5.688   5.584   4.227  0.9904  0.1447 -0.4079
  156MOL0     H21008   5.684   5.444   4.113 -0.1651 -0.0036 -0.2802
  156MOL0     H21009   5.532   5.471   4.372 -0.7390  0.0019 -0.3558
  156MOL0     H21010   5.541   5.319   4.271 -0.0191 -0.2671 -3.3019
  156MOL0     H21011   5.423   5.696   4.246 -2.7844 -0.3613  0.0527
  156MOL0     H21012   5.260   5.817   4.082 -2.1018  0.1189  3.1264
  156MOL0     H21013   5.188   5.736   3.940 -0.8886  1.9270  0.8670
  156MOL0     H21014   5.045   5.811   4.141 -0.4409 -0.4415 -1.2607
  156MOL0     H21015   5.111   5.666   4.222 -2.7472  1.2340  1.6563
  156MOL0     H21016   5.004   5.516   4.062 -0.0456 -1.3176  1.4135
  156MOL0     H21017   4.955   5.643   3.954 -0.0951  0.3327  1.3487
  156MOL0     H21018   4.838   5.576   4.231 -0.0376  0.2974  1.3483
  156MOL0     H21019   4.774   5.569   4.075  2.0095  0.5606 -0.9805
  156MOL0     H21020   4.763   6.015   4.202  0.4309 -1.2108 -0.1165
  156MOL0     H21021   4.485   6.227   4.136 -0.3284 -1.8367 -1.4901
  156MOL0     H21022   4.479   6.200   4.309  0.6343 -1.6209  0.5960
  156MOL0     H21023   4.632   6.234   4.242  1.9110 -2.5885  0.6983
  156MOL0     H21024   4.030   6.086   4.323  1.3091 -2.0740  0.4827
  156MOL0     H21025   3.794   6.112   4.329  1.0809  0.6739 -0.2093
  156MOL0     H21026   3.591   6.048   3.981 -1.2147 -0.7763 -0.5809
  156MOL0     H21027   3.593   5.874   3.987  0.8489  0.5235  0.2459
  156MOL0     H21028   3.387   6.068   4.051 -1.4285  0.4020 -0.5792
  156MOL0     H21029   3.362   5.925   3.947 -0.5603  1.0074  0.1952
  156MOL0     H21030   3.345   5.939   4.242 -0.5657 -1.4714  0.9990
  156MOL0     H21031   3.393   5.789   4.170  0.8187  0.8154  1.4045
  156MOL0     H21032   3.154   5.950   4.069 -0.0989  1.0725  1.8909
  156MOL0     H21033   3.192   5.777   4.037  3.2366 -1.9961  1.4913
  156MOL0     H21034   3.128   5.870   4.328 -2.8834  0.0252  0.9663
  156MOL0     H21035   3.146   5.706   4.261  1.3030  0.2568 -2.0891
  156MOL0     H21036   2.917   5.899   4.204  2.6667  2.1931  0.9246
  156MOL0     H21037   2.939   5.740   4.131 -0.0049 -0.5794 -0.7142
  156MOL0     H21038   2.785   5.793   4.350 -0.6561 -1.7455  0.7557
  156MOL0     H21039   2.938   5.771   4.440  1.6992 -0.9494 -0.7794
  156MOL0     H21040   2.822   5.576   4.447 -1.2674  4.1162  0.2739
  156MOL0     H21041   2.961   5.539   4.342  1.4239  1.6759 -0.1044
  156MOL0     H21042   3.764   5.800   4.043 -2.3469  1.0152  1.3026
  156MOL0     H21043   4.024   5.793   4.022  0.5424 -2.4253  3.1407
  156MOL0     H21044   4.349   5.747   4.166 -0.0019 -0.7239 -0.3866
  156MOL0     H21045   4.554   5.640   4.135  2.2820  0.7212 -1.4963
  156MOL0     H21046   6.565   5.190   3.764 -2.8576  3.2033  1.7209
  156MOL0     H21047   6.815   5.153   3.852  1.4064 -0.4677  0.5790
  156MOL0     H21048   7.065   5.072   4.378 -1.2616 -1.0885 -0.2725
  156MOL0     H21049   7.288   5.016   4.439  2.1792  0.4214 -0.5221
  156MOL0     H21050   7.540   4.861   4.111  2.8302 -0.8440 -1.3984
  156MOL0     H21051   7.676   4.902   4.203  0.5057 -2.6419  0.3563
  156MOL0     H21052   7.596   4.673   4.244 -2.1465  0.1743 -1.0585
  156MOL0     H21053   7.430   4.718   4.270 -0.9716  0.2434 -1.8210
  156MOL0     H21054   7.497   4.684   4.489 -0.0191 -0.1283  0.7088
  156MOL0     H21055   7.536   4.859   4.480  1.2141  0.5241 -0.1919
  156MOL0     H21056   7.777   4.812   4.418  0.3816 -0.1437 -0.0773
  156MOL0     H21057   7.738   4.633   4.437 -4.5497 -1.0853  0.2461
  156MOL0     H21058   7.735   4.808   4.828  1.1351 -0.7561  0.1193
  156MOL0     H21059   7.373   4.978   4.013  2.0646  0.7339  1.1485
  156MOL0     H21060   7.132   5.033   3.974 -1.9636 -0.9323  0.1118
  157MOL0     O21061   7.711   3.779   6.280  0.1029  0.3221  0.1278
  157MOL0     C21062   7.744   3.761   6.396 -0.6212 -0.5136  0.8792
  157MOL0     O21063   7.855   3.687   6.437 -0.0888  0.4910 -0.3990
  157MOL0     C21064   7.921   3.614   6.343  0.0446 -0.1046 -0.2083
  157MOL0     C21065   8.061   3.619   6.363  0.1588 -0.5806  0.4548
  157MOL0     C21066   8.146   3.534   6.292  0.8026 -0.0106 -0.1321
  157MOL0     C21067   8.091   3.463   6.191  0.4414  0.8020  0.9910
  157MOL0     O21068   8.169   3.386   6.100  0.5706 -0.6840 -0.5064
  157MOL0     C21069   8.310   3.393   6.101  0.7292 -0.2524  0.2019
  157MOL0     C21070   8.378   3.310   5.990 -0.0354  0.4168 -0.3351
  157MOL0     C21071   8.309   3.324   5.858  0.2602  0.2208 -0.3658
  157MOL0     C21072   8.396   3.271   5.740 -0.2793 -0.7441 -0.5018
  157MOL0     C21073   8.336   3.323   5.607 -0.2996  0.0436 -0.2266
  157MOL0     C21074   8.391   3.241   5.485  0.0651  0.0444 -0.7985
  157MOL0     C21075   8.327   3.277   5.354 -0.5457  0.5287 -0.5505
  157MOL0     C21076   8.327   3.423   5.333 -0.3171 -0.3163  0.4690
  157MOL0     N21077   8.290   3.467   5.200  0.6057  0.3080  0.3047
  157MOL0     C21078   8.160   3.462   5.152 -0.2445  0.4340  0.4303
  157MOL0     C21079   8.156   3.532   5.044 -0.0604 -0.1792 -0.5722
  157MOL0     C21080   8.040   3.535   4.945 -0.0328  0.6720 -0.3708
  157MOL0     C21081   8.068   3.593   4.804  0.3570  0.1409 -0.4089
  157MOL0     C21082   8.121   3.735   4.799 -0.4084 -0.2416  0.4812
  157MOL0     C21083   8.066   3.828   4.908  0.3203 -0.2855  0.5101
  157MOL0     O21084   8.094   3.966   4.877 -0.4149  0.4411  0.4036
  157MOL0     C21085   8.208   4.022   4.921 -0.6896  0.6527 -0.0825
  157MOL0     C21086   8.315   3.959   4.982 -0.7408 -0.5710 -0.1432
  157MOL0     C21087   8.428   4.031   5.034 -0.3885 -0.2652 -0.5685
  157MOL0     C21088   8.540   3.962   5.107  0.1277  1.1415  0.5809
  157MOL0     C21089   8.422   4.177   5.022 -0.3036  0.4257 -0.0742
  157MOL0     C21090   8.531   4.260   5.053  0.1269 -0.8049 -0.3264
  157MOL0     O21091   8.590   4.243   5.174 -0.3704  0.0073  0.3130
  157MOL0     C21092   8.709   4.300   5.195  0.2661 -0.0336 -0.9714
  157MOL0     C21093   8.704   4.439   5.225 -0.4018 -0.3180 -0.6807
  157MOL0     C21094   8.823   4.510   5.240  0.0356  0.0632 -1.0548
  157MOL0     C21095   8.947   4.450   5.228  1.0644 -0.5036 -0.3956
  157MOL0     O21096   9.049   4.533   5.219  0.2000  0.3403 -0.0263
  157MOL0     C21097   9.103   4.544   5.082  0.6978 -0.3109  0.3971
  157MOL0     C21098   9.231   4.612   5.088  0.4346  0.1559 -0.3596
  157MOL0     C21099   9.291   4.627   4.952  0.2024 -0.4479 -0.4058
  157MOL0     C21100   9.429   4.674   4.984 -0.0451  0.0960 -0.0080
  157MOL0     C21101   9.509   4.714   4.865 -0.1932 -0.5721  0.1131
  157MOL0     C21102   9.656   4.744   4.908  0.3778  0.2010  0.1607
  157MOL0     C21103   9.734   4.808   4.792 -0.0009  0.4016 -0.1255
  157MOL0     C21104   9.772   4.716   4.681  0.0451 -0.6180  0.3049
  157MOL0    Cl21105   9.798   4.787   4.524 -0.2471 -0.4730 -0.3401
  157MOL0     C21106   8.950   4.310   5.197 -0.0985 -0.0554  1.2013
  157MOL0     C21107   8.836   4.233   5.171  0.5316  0.4969 -0.3434
  157MOL0     O21108   8.558   4.346   4.969 -0.9376  0.6872 -0.3517
  157MOL0     C21109   8.313   4.236   4.964  0.7560  0.7629 -0.0147
  157MOL0     C21110   8.205   4.159   4.914  1.0688 -0.2544 -0.4912
  157MOL0     N21111   8.289   3.568   5.013 -0.7011  0.4780  0.0493
  157MOL0     N21112   8.373   3.530   5.115 -0.2272  0.3249  0.5091
  157MOL0     C21113   7.948   3.452   6.168  0.8935 -0.1637 -0.2617
  157MOL0     C21114   7.863   3.530   6.254 -0.2819 -0.4191  1.1626
  157MOL0     C21115   7.671   3.838   6.506  0.2852 -0.5614  0.3243
  157MOL0     C21116   7.726   3.851   6.630 -0.7357 -0.0996  1.2195
  157MOL0     C21117   7.671   3.929   6.735  0.1744 -0.4802 -0.4369
  157MOL0     C21118   7.548   3.994   6.714  0.5039 -0.1798  0.1379
  157MOL0     O21119   7.482   4.081   6.802 -0.1061 -0.7259 -0.0674
  157MOL0     C21120   7.563   4.129   6.913  0.3950  0.3037  0.2716
  157MOL0     C21121   7.664   4.235   6.865 -0.3629  0.5291  0.7796
  157MOL0     C21122   7.800   4.219   6.945 -0.2600 -0.2888  0.6473
  157MOL0     C21123   7.911   4.288   6.853  0.0758  0.8747  0.1652
  157MOL0     C21124   7.893   4.430   6.851 -1.1053 -0.0763  0.3067
  157MOL0     C21125   7.859   4.545   6.864 -0.2630  0.0920  0.6808
  157MOL0     C21126   7.490   3.992   6.584  0.4266 -0.0603 -0.2770
  157MOL0     C21127   7.553   3.913   6.482  1.0148  0.2249  0.8410
  157MOL0     H21128   8.097   3.681   6.444 -1.2422 -4.2157  4.2484
  157MOL0     H21129   8.253   3.541   6.310  0.6304  1.1283  0.5302
  157MOL0     H21130   8.347   3.496   6.098  0.1206 -0.0405 -0.0829
  157MOL0     H21131   8.340   3.357   6.200  0.4101  0.8206  0.6982
  157MOL0     H21132   8.484   3.336   5.981  0.1870 -0.4498 -0.2560
  157MOL0     H21133   8.389   3.205   6.019  1.1611 -0.1717 -2.6331
  157MOL0     H21134   8.212   3.274   5.854  0.0038  0.7560 -2.7138
  157MOL0     H21135   8.282   3.428   5.837 -0.8234  0.0432  0.1038
  157MOL0     H21136   8.500   3.302   5.748 -0.1415 -0.6797 -2.2357
  157MOL0     H21137   8.400   3.162   5.738 -2.6575 -0.9358  0.7141
  157MOL0     H21138   8.227   3.316   5.609 -0.2948 -0.0425 -0.2226
  157MOL0     H21139   8.363   3.428   5.597  1.7256 -0.4115 -0.0173
  157MOL0     H21140   8.497   3.264   5.473  0.0165 -0.0700 -1.5157
  157MOL0     H21141   8.388   3.133   5.504 -0.9519  0.3866  1.2961
  157MOL0     H21142   8.377   3.218   5.276  0.5467 -1.7493  1.7311
  157MOL0     H21143   8.221   3.252   5.358 -0.2274 -0.7421  2.9061
  157MOL0     H21144   8.426   3.464   5.356 -0.5790 -0.4108  1.8832
  157MOL0     H21145   8.263   3.466   5.411 -1.8191  0.0918 -0.9508
  157MOL0     H21146   8.068   3.419   5.191 -1.0412 -0.5757 -2.3304
  157MOL0     H21147   8.007   3.432   4.931  3.3223 -0.8400  1.5166
  157MOL0     H21148   7.959   3.598   4.983 -0.4353  2.3506 -3.7027
  157MOL0     H21149   7.969   3.598   4.757 -1.3996  2.8992  3.1271
  157MOL0     H21150   8.140   3.534   4.747  0.4961 -0.9197  0.8209
  157MOL0     H21151   8.107   3.770   4.696  1.4185 -4.0802 -1.2794
  157MOL0     H21152   8.230   3.743   4.809 -0.1364  0.4794 -2.2092
  157MOL0     H21153   8.104   3.811   5.009 -0.3649  0.8722  0.9800
  157MOL0     H21154   7.958   3.814   4.918  0.4871 -2.6922 -0.3418
  157MOL0     H21155   8.325   3.852   4.989  1.5215 -0.3452  1.0503
  157MOL0     H21156   8.551   3.992   5.212 -0.7375  5.7161 -0.4138
  157MOL0     H21157   8.523   3.854   5.100 -2.0153  1.3820  1.3614
  157MOL0     H21158   8.634   3.992   5.060  0.1888  1.9945  1.2291
  157MOL0     H21159   8.613   4.497   5.230 -0.2653  0.0416 -2.1127
  157MOL0     H21160   8.822   4.618   5.256 -0.1659  0.1968 -1.9112
  157MOL0     H21161   9.106   4.454   5.020 -2.7361 -0.8555  0.8271
  157MOL0     H21162   9.028   4.608   5.033 -0.3559 -0.9640  1.1097
  157MOL0     H21163   9.203   4.711   5.126 -0.8788 -0.3265  0.0242
  157MOL0     H21164   9.303   4.559   5.150  1.6022  0.8568 -1.0869
  157MOL0     H21165   9.239   4.700   4.889  1.1839  0.0799 -0.6332
  157MOL0     H21166   9.286   4.532   4.898 -3.7810  0.2356 -1.5571
  157MOL0     H21167   9.435   4.755   5.057  1.8106  0.0225 -0.0465
  157MOL0     H21168   9.479   4.586   5.026 -0.2598  0.9410  2.1284
  157MOL0     H21169   9.464   4.804   4.821  1.0747  1.8827  3.3460
  157MOL0     H21170   9.514   4.638   4.787 -0.7487  0.5603 -1.0648
  157MOL0     H21171   9.658   4.813   4.993  0.2562 -0.7636  0.9793
  157MOL0     H21172   9.710   4.652   4.935  2.1152  0.9083 -0.7893
  157MOL0     H21173   9.825   4.860   4.825 -1.6418  1.7150  2.7474
  157MOL0     H21174   9.674   4.880   4.737  1.3145  0.1426 -1.9875
  157MOL0     H21175   9.683   4.655   4.671 -1.5610  1.9312 -2.6617
  157MOL0     H21176   9.860   4.652   4.695  0.6117 -0.9293 -3.6322
  157MOL0     H21177   9.046   4.260   5.184  0.8341  2.1304 -1.2364
  157MOL0     H21178   8.847   4.126   5.152 -2.1153 -0.1353  1.1859
  157MOL0     H21179   8.309   4.342   4.939  1.8234  0.8661  0.1737
  157MOL0     H21180   8.127   4.199   4.849  1.5659  1.4645 -0.0927
  157MOL0     H21181   7.901   3.379   6.103  2.5259 -1.4911 -0.0449
  157MOL0     H21182   7.755   3.528   6.254 -0.2880 -0.9340  0.0817
  157MOL0     H21183   7.821   3.805   6.652 -0.8391 -1.3652 -0.7401
  157MOL0     H21184   7.725   3.939   6.829 -2.9652 -1.5289  1.6498
  157MOL0     H21185   7.503   4.181   6.988 -2.9433 -1.4784 -0.9712
  157MOL0     H21186   7.606   4.043   6.964 -2.6578 -1.6671 -0.2280
  157MOL0     H21187   7.620   4.335   6.874 -1.8127 -0.0923  0.8428
  157MOL0     H21188   7.689   4.215   6.760 -3.0067  1.8494 -0.1905
  157MOL0     H21189   7.826   4.118   6.978  2.6314  0.7945  2.0452
  157MOL0     H21190   7.800   4.279   7.036 -1.4933 -0.7144  0.9366
  157MOL0     H21191   7.902   4.238   6.756 -3.5949  1.2727  0.1342
  157MOL0     H21192   8.003   4.259   6.904 -0.5467 -2.3402 -0.3440
  157MOL0     H21193   7.842   4.649   6.847  0.3984  0.4928  2.2816
  157MOL0     H21194   7.404   4.053   6.558 -0.1890 -0.2539  1.1645
  157MOL0     H21195   7.508   3.912   6.383 -0.4511  5.3416  1.1438
  158MOL0     O21196   8.611   0.355   9.790 -0.2683  0.6126  0.2796
  158MOL0     C21197   8.672   0.385   9.898  1.1312  0.2795  0.0767
  158MOL0     O21198   8.608   0.438  10.000  0.3106  0.2441 -0.4588
  158MOL0     C21199   8.470   0.464  10.008  0.1381  0.1457  0.6547
  158MOL0     C21200   8.402   0.417  10.124 -0.2290 -0.5538 -0.4416
  158MOL0     C21201   8.271   0.450  10.144 -0.5251  0.1156  0.0418
  158MOL0     C21202   8.197   0.513  10.042  0.0603 -0.4363  0.1641
  158MOL0     O21203   8.065   0.544  10.071 -0.1366 -0.0786  0.7618
  158MOL0     C21204   7.974   0.607   9.981  1.1805  0.2614 -0.5163
  158MOL0     C21205   7.824   0.586  10.006  0.6344 -0.0276 -0.0877
  158MOL0     C21206   7.725   0.655   9.919  0.1455 -0.8723  0.2238
  158MOL0     C21207   7.579   0.610   9.933 -0.6224 -0.5858 -0.1896
  158MOL0     C21208   7.475   0.687   9.851 -0.2487  0.1894 -0.1206
  158MOL0     C21209   7.339   0.620   9.855 -0.4389  0.6366 -0.4127
  158MOL0     C21210   7.239   0.705   9.781  0.1080  1.4321  0.1260
  158MOL0     C21211   7.104   0.642   9.793  0.5615  0.0724  0.2822
  158MOL0     N21212   7.013   0.694   9.697 -0.8068  0.4425 -0.0393
  158MOL0     C21213   6.931   0.801   9.723 -0.5667 -0.4292 -0.3000
  158MOL0     C21214   6.852   0.815   9.618  0.7732 -0.2069 -0.9631
  158MOL0     C21215   6.771   0.934   9.596 -0.5606  0.3246  0.0441
  158MOL0     C21216   6.635   0.937   9.672 -0.9981  0.3243 -0.1641
  158MOL0     C21217   6.537   0.848   9.607  0.0937  0.3806  0.1949
  158MOL0     C21218   6.449   0.901   9.500 -0.3674  0.3991  0.0957
  158MOL0     O21219   6.397   0.780   9.451  0.4940  0.4222  0.2966
  158MOL0     C21220   6.292   0.783   9.362  0.4798  0.2629  0.5813
  158MOL0     C21221   6.206   0.892   9.345  0.1745  0.2183  0.0367
  158MOL0     C21222   6.104   0.895   9.249 -0.2058 -0.4335 -0.7572
  158MOL0     C21223   6.033   1.022   9.234  0.3983 -0.8756 -0.1223
  158MOL0     C21224   6.059   0.771   9.195  0.2035  0.3058  0.2979
  158MOL0     C21225   5.931   0.745   9.125  0.0358  0.6896  0.1127
  158MOL0     O21226   5.835   0.839   9.136 -0.0303 -0.5796  0.1275
  158MOL0     C21227   5.703   0.818   9.088  0.2373  0.2488 -0.3603
  158MOL0     C21228   5.644   0.920   9.006  0.1541  0.1547  0.0596
  158MOL0     C21229   5.510   0.893   8.965  0.3034  0.5743  0.2641
  158MOL0     C21230   5.440   0.773   9.001  0.5611  0.1157  0.1501
  158MOL0     O21231   5.308   0.740   8.967 -0.1442  0.6332  0.2440
  158MOL0     C21232   5.231   0.848   8.905  0.3961 -0.1062  0.0672
  158MOL0     C21233   5.085   0.813   8.891 -0.0014  0.2880 -0.3470
  158MOL0     C21234   5.079   0.681   8.813  0.2398 -0.2859 -0.7156
  158MOL0     C21235   4.947   0.671   8.734 -0.0852 -0.1237 -0.3306
  158MOL0     C21236   4.827   0.701   8.821 -0.3451  0.1901 -0.0267
  158MOL0     C21237   4.693   0.655   8.760 -0.5842  0.4285 -0.0158
  158MOL0     C21238   4.650   0.718   8.628  0.7321 -0.2492 -0.3926
  158MOL0     C21239   4.630   0.869   8.645  0.2821  0.4742  1.2682
  158MOL0    Cl21240   4.510   0.913   8.777  0.0404 -0.3351 -0.0073
  158MOL0     C21241   5.499   0.689   9.090  0.2256  0.7131 -0.0360
  158MOL0     C21242   5.628   0.710   9.139 -0.9959  0.0571 -0.3300
  158MOL0     O21243   5.919   0.631   9.081  0.7596  0.3025  0.6616
  158MOL0     C21244   6.144   0.662   9.210  0.3630 -0.7367  0.5231
  158MOL0     C21245   6.266   0.671   9.279  0.1771  0.2573 -0.6098
  158MOL0     N21246   6.902   0.718   9.521  0.3617  0.0713 -0.4740
  158MOL0     N21247   7.002   0.657   9.574  0.2997 -0.5530  0.4757
  158MOL0     C21248   8.262   0.559   9.933  0.2925  0.7181 -0.0289
  158MOL0     C21249   8.401   0.534   9.914  0.3863 -0.8187 -0.0174
  158MOL0     C21250   8.816   0.390   9.888 -1.1282  0.5314 -0.5554
  158MOL0     C21251   8.892   0.340   9.777  0.7641  0.5520 -0.6976
  158MOL0     C21252   9.022   0.365   9.759  0.6234 -0.1727 -0.4148
  158MOL0     C21253   9.097   0.422   9.862  0.0296 -0.7727 -0.9498
  158MOL0     O21254   9.229   0.454   9.869 -0.2040 -0.0288 -0.1508
  158MOL0     C21255   9.298   0.492   9.750  0.5442 -1.1261 -0.8856
  158MOL0     C21256   9.441   0.433   9.767  0.0484 -0.7647 -0.1197
  158MOL0     C21257   9.517   0.497   9.890  0.2027  0.1012  0.1782
  158MOL0     C21258   9.658   0.442   9.899 -0.4876 -0.5874 -0.6496
  158MOL0     C21259   9.648   0.309   9.954 -0.6763 -0.1887  0.2366
  158MOL0     C21260   9.637   0.199   9.998  0.6952  0.5656  0.5310
  158MOL0     C21261   9.029   0.458   9.983 -1.0201 -1.1117  0.4494
  158MOL0     C21262   8.894   0.449   9.996  0.0514  0.0790 -0.7220
  158MOL0     H21263   8.456   0.354  10.194 -1.8879 -0.6276  0.8503
  158MOL0     H21264   8.224   0.420  10.238 -3.4315  1.4528 -0.8787
  158MOL0     H21265   7.986   0.715   9.988  0.8114  0.2796 -0.1021
  158MOL0     H21266   7.990   0.569   9.879  1.2174  1.1793 -0.8629
  158MOL0     H21267   7.797   0.480   9.992  0.3679  0.3652 -3.4655
  158MOL0     H21268   7.808   0.610  10.111  0.4257  0.5631 -0.2492
  158MOL0     H21269   7.731   0.762   9.944  4.8223 -1.7272  4.6630
  158MOL0     H21270   7.761   0.633   9.819  1.5430  2.4756 -0.1534
  158MOL0     H21271   7.568   0.508   9.895  0.2103 -0.5221 -0.6463
  158MOL0     H21272   7.556   0.616  10.039  0.7379 -0.3023  0.1145
  158MOL0     H21273   7.460   0.788   9.890 -0.0960  0.1904 -0.0671
  158MOL0     H21274   7.513   0.688   9.748  1.2583  1.1873  0.4166
  158MOL0     H21275   7.361   0.527   9.802  0.0742 -1.1408  2.6460
  158MOL0     H21276   7.306   0.605   9.958 -1.9379  1.2874 -0.7709
  158MOL0     H21277   7.227   0.807   9.820 -0.5528  0.8808  1.4433
  158MOL0     H21278   7.264   0.712   9.675 -1.6571 -0.0105 -0.4307
  158MOL0     H21279   7.060   0.662   9.891 -0.8958  0.1961 -0.3605
  158MOL0     H21280   7.113   0.533   9.779 -1.2426  0.1426 -2.0876
  158MOL0     H21281   6.929   0.869   9.808  1.9145  2.7745 -2.5744
  158MOL0     H21282   6.822   1.027   9.623 -0.5059  1.3545 -3.1707
  158MOL0     H21283   6.743   0.937   9.490 -1.6845 -0.9599  0.2745
  158MOL0     H21284   6.598   1.039   9.659  3.5582  1.9660 -2.0999
  158MOL0     H21285   6.661   0.915   9.776  2.3883  1.7207 -0.6229
  158MOL0     H21286   6.455   0.817   9.673 -0.5565  0.4315 -0.5599
  158MOL0     H21287   6.584   0.758   9.567 -1.2642  0.3188 -1.3773
  158MOL0     H21288   6.511   0.953   9.426  1.5094  1.4820  2.2819
  158MOL0     H21289   6.373   0.970   9.537 -0.8998 -1.7177  3.2892
  158MOL0     H21290   6.211   0.983   9.403 -1.5069  0.5421 -0.2814
  158MOL0     H21291   6.107   1.103   9.232  0.1364 -0.0917  5.5149
  158MOL0     H21292   5.962   1.038   9.152 -1.6054  0.3937  1.7281
  158MOL0     H21293   5.977   1.035   9.327 -2.8886  1.3427 -2.1892
  158MOL0     H21294   5.700   1.008   8.976  3.4234 -2.3391 -1.8080
  158MOL0     H21295   5.469   0.970   8.901  0.9616  0.4255 -0.3582
  158MOL0     H21296   5.233   0.939   8.965 -0.2832  2.1415 -3.0480
  158MOL0     H21297   5.275   0.873   8.808  2.7718  1.0789  1.3561
  158MOL0     H21298   5.041   0.824   8.991  1.9064 -1.8106  0.8178
  158MOL0     H21299   5.036   0.896   8.839 -0.6129  1.0555  1.3797
  158MOL0     H21300   5.074   0.601   8.888  0.3468  1.4131  1.1890
  158MOL0     H21301   5.168   0.658   8.754 -1.5613 -2.0495 -2.9135
  158MOL0     H21302   4.944   0.743   8.652  0.6526 -0.7651 -0.9365
  158MOL0     H21303   4.945   0.568   8.698 -0.7805 -0.0565 -0.4987
  158MOL0     H21304   4.825   0.809   8.839  1.4263 -0.0042  1.7481
  158MOL0     H21305   4.838   0.653   8.918 -0.4289 -0.2456 -0.2323
  158MOL0     H21306   4.706   0.549   8.736  0.5965  0.2136  1.4676
  158MOL0     H21307   4.619   0.653   8.840 -0.1437  1.1711  0.4302
  158MOL0     H21308   4.552   0.686   8.592  0.8196 -0.2466 -0.6382
  158MOL0     H21309   4.710   0.701   8.538 -0.8421 -2.5538 -1.0744
  158MOL0     H21310   4.590   0.905   8.549 -0.6255 -0.7974  1.1407
  158MOL0     H21311   4.724   0.920   8.671 -0.0606  0.5202  2.4469
  158MOL0     H21312   5.444   0.608   9.137 -1.3520  1.8005  0.0653
  158MOL0     H21313   5.681   0.653   9.216 -0.4865  0.9039 -0.0370
  158MOL0     H21314   6.129   0.568   9.158  0.9710 -1.0668  0.9386
  158MOL0     H21315   6.335   0.589   9.294  0.8771  1.2742  2.2552
  158MOL0     H21316   8.225   0.633   9.864  0.8418  0.7127 -0.3337
  158MOL0     H21317   8.452   0.575   9.828  1.5567  1.1291  1.5334
  158MOL0     H21318   8.830   0.304   9.696 -1.4612  2.5965 -0.0333
  158MOL0     H21319   9.066   0.335   9.665 -2.6270 -1.0845 -1.7373
  158MOL0     H21320   9.242   0.456   9.664  0.6243  2.4175 -2.5957
  158MOL0     H21321   9.307   0.601   9.750  1.3215 -1.1866 -1.0678
  158MOL0     H21322   9.502   0.457   9.679  2.2644 -1.6217  1.0942
  158MOL0     H21323   9.438   0.324   9.781  3.3385 -0.9983 -0.5252
  158MOL0     H21324   9.470   0.489   9.988 -0.4078  2.5965  0.1583
  158MOL0     H21325   9.521   0.605   9.873 -2.5485  0.0484 -1.4812
  158MOL0     H21326   9.730   0.498   9.959  0.3406  2.0013 -3.8305
  158MOL0     H21327   9.694   0.447   9.796 -0.0730 -1.2028 -0.5388
  158MOL0     H21328   9.622   0.097  10.027  1.4416  0.1037 -0.6304
  158MOL0     H21329   9.087   0.512  10.057  1.3768 -0.1544 -1.9633
  158MOL0     H21330   8.836   0.475  10.084 -0.9685 -0.3721 -1.2363
  159MOL0     O21331  10.062   3.965   9.010 -0.1762 -0.6155  0.0871
  159MOL0     C21332  10.022   3.844   8.976  0.8307 -0.6832  0.6648
  159MOL0     O21333   9.908   3.806   8.915 -0.1485  0.7602 -0.1787
  159MOL0     C21334   9.816   3.902   8.875  0.5556 -0.4847  0.1619
  159MOL0     C21335   9.688   3.859   8.864 -0.1853 -1.5054 -0.3455
  159MOL0     C21336   9.582   3.942   8.839  0.0464  0.1751  0.2313
  159MOL0     C21337   9.604   4.076   8.790 -0.8107  0.7161 -0.0292
  159MOL0     O21338   9.513   4.161   8.740 -0.5351 -0.3794  0.1100
  159MOL0     C21339   9.375   4.131   8.759  0.1679  0.3729  0.3392
  159MOL0     C21340   9.293   4.255   8.758  0.3859 -0.0807 -0.0074
  159MOL0     C21341   9.141   4.223   8.764 -0.2377 -0.6648 -0.3402
  159MOL0     C21342   9.069   4.358   8.799 -1.0872  0.6797 -0.1181
  159MOL0     C21343   8.927   4.350   8.740  0.5851  0.5237  0.2960
  159MOL0     C21344   8.845   4.479   8.769  0.8325 -0.7787 -0.8569
  159MOL0     C21345   8.830   4.508   8.918 -0.2725 -0.0222 -0.0420
  159MOL0     C21346   8.720   4.614   8.942  0.1941  0.3002 -0.7074
  159MOL0     N21347   8.584   4.571   8.932  0.0213 -0.0717 -0.7408
  159MOL0     C21348   8.498   4.575   8.826 -0.4333 -0.2527 -0.5208
  159MOL0     C21349   8.396   4.487   8.842  0.3365  0.3296  0.2910
  159MOL0     C21350   8.292   4.446   8.745 -0.3094  0.0476  0.1298
  159MOL0     C21351   8.167   4.533   8.752 -0.9680 -0.8722 -0.0038
  159MOL0     C21352   8.089   4.542   8.619 -0.0410  0.4133 -0.3493
  159MOL0     C21353   7.967   4.632   8.636 -0.1122 -0.0915 -0.9774
  159MOL0     O21354   7.884   4.588   8.749  0.3377  0.1300  0.0798
  159MOL0     C21355   7.751   4.596   8.717  0.9402 -0.6361  1.2506
  159MOL0     C21356   7.675   4.712   8.741  0.3941  0.3668  0.0870
  159MOL0     C21357   7.528   4.718   8.716  0.5051 -0.2601 -0.0495
  159MOL0     C21358   7.450   4.842   8.730 -0.2899  0.9004  0.7836
  159MOL0     C21359   7.472   4.597   8.671  0.6232  0.4011 -0.7064
  159MOL0     C21360   7.325   4.573   8.659  0.4040  0.3076  0.3925
  159MOL0     O21361   7.281   4.479   8.568 -0.3479 -0.0191  0.2733
  159MOL0     C21362   7.157   4.432   8.569 -0.1142  0.2726 -0.4283
  159MOL0     C21363   7.142   4.292   8.567 -0.1104 -0.6579  1.4797
  159MOL0     C21364   7.021   4.238   8.534  0.9184  0.1748 -0.9155
  159MOL0     C21365   6.910   4.319   8.529  0.6088  0.5960 -1.2102
  159MOL0     O21366   6.792   4.265   8.481  0.0954  0.4770 -0.6194
  159MOL0     C21367   6.684   4.282   8.568  0.8533 -0.7922  0.7257
  159MOL0     C21368   6.567   4.206   8.504  0.6442 -0.2816  0.4050
  159MOL0     C21369   6.441   4.217   8.597  0.6284 -0.5085 -0.5264
  159MOL0     C21370   6.320   4.137   8.539  0.7000  0.9830 -0.7449
  159MOL0     C21371   6.197   4.133   8.637 -0.5517  0.5497  0.2043
  159MOL0     C21372   6.074   4.067   8.577  0.9301 -0.5053 -0.4603
  159MOL0     C21373   5.950   4.074   8.665  0.7340 -0.0034  0.6249
  159MOL0     C21374   5.828   4.030   8.594  0.8219  0.4385 -0.0584
  159MOL0    Cl21375   5.678   4.061   8.688  0.3763 -0.1435  0.2676
  159MOL0     C21376   6.918   4.458   8.563  0.4317  0.3817  0.6614
  159MOL0     C21377   7.044   4.518   8.581  0.2948  0.7350 -0.3949
  159MOL0     O21378   7.250   4.633   8.733 -0.6667 -0.3361 -0.6727
  159MOL0     C21379   7.547   4.492   8.635 -0.1661 -0.5039  1.0711
  159MOL0     C21380   7.682   4.497   8.646 -0.4346 -0.5693  0.5603
  159MOL0     N21381   8.415   4.431   8.973 -0.3450  0.2330 -0.2736
  159MOL0     N21382   8.528   4.475   9.022 -0.2037  0.2294  0.2910
  159MOL0     C21383   9.737   4.118   8.794  0.5091  0.1253  0.2699
  159MOL0     C21384   9.840   4.034   8.827 -0.0099 -0.1170 -0.5419
  159MOL0     C21385  10.112   3.737   9.005  0.1780  0.3874 -0.1138
  159MOL0     C21386  10.066   3.604   9.008  0.8777 -0.5194  0.2572
  159MOL0     C21387  10.151   3.503   9.032  0.0756  0.5535  0.2191
  159MOL0     C21388  10.287   3.522   9.065  0.2070 -0.1832  0.5425
  159MOL0     O21389  10.371   3.414   9.096 -0.2032 -0.2393  0.6086
  159MOL0     C21390  10.456   3.420   9.206 -0.0781 -0.5962 -0.2550
  159MOL0     C21391  10.561   3.316   9.202 -0.3919  0.0828 -0.2956
  159MOL0     C21392  10.661   3.347   9.087  0.2285  0.9186  0.7554
  159MOL0     C21393  10.777   3.250   9.081 -0.3064  0.6476  0.1063
  159MOL0     C21394  10.864   3.271   9.202 -0.7953 -0.1950 -0.2665
  159MOL0     C21395  10.939   3.268   9.301 -0.4911 -0.9460  0.1436
  159MOL0     C21396  10.335   3.653   9.071 -0.5866  0.3276  0.2791
  159MOL0     C21397  10.247   3.759   9.046  0.0585 -0.2205  0.5401
  159MOL0     H21398   9.658   3.758   8.890 -0.7335 -1.2136  0.1639
  159MOL0     H21399   9.478   3.911   8.846 -0.9299  3.0227  0.0183
  159MOL0     H21400   9.343   4.062   8.681 -0.4510  0.3496  0.6073
  159MOL0     H21401   9.354   4.083   8.855  0.1379 -0.3919 -0.0415
  159MOL0     H21402   9.329   4.310   8.846  1.4309  0.4872 -0.7597
  159MOL0     H21403   9.317   4.310   8.667  1.4192 -0.9068 -0.2571
  159MOL0     H21404   9.101   4.176   8.674 -0.0622 -2.2480  0.3668
  159MOL0     H21405   9.113   4.157   8.848  0.6692  0.7796  1.1576
  159MOL0     H21406   9.063   4.373   8.907 -2.7926 -0.4834 -0.0055
  159MOL0     H21407   9.110   4.446   8.750 -1.3685  0.0242 -1.5915
  159MOL0     H21408   8.928   4.326   8.634 -0.8014 -1.5620  0.7034
  159MOL0     H21409   8.884   4.263   8.790  1.1009  0.0361 -0.0955
  159MOL0     H21410   8.874   4.564   8.706 -0.4226 -0.5882 -1.2117
  159MOL0     H21411   8.741   4.458   8.743 -0.1389  0.5894  1.6021
  159MOL0     H21412   8.806   4.418   8.976 -4.0542  0.7736 -0.1142
  159MOL0     H21413   8.921   4.548   8.963 -0.7575  1.9414 -0.6811
  159MOL0     H21414   8.728   4.702   8.877  1.4814  0.4389 -0.3920
  159MOL0     H21415   8.736   4.657   9.041  0.9841  2.8954 -1.8682
  159MOL0     H21416   8.513   4.638   8.740 -0.0477  0.3804  0.0032
  159MOL0     H21417   8.333   4.455   8.644 -0.7374  2.8164  0.1325
  159MOL0     H21418   8.270   4.341   8.767  0.0061 -0.1554 -0.4991
  159MOL0     H21419   8.187   4.635   8.785 -3.2764 -0.7264  1.1610
  159MOL0     H21420   8.114   4.494   8.840 -0.7803  0.7362  0.8550
  159MOL0     H21421   8.058   4.444   8.582  0.9761  0.5566 -1.6487
  159MOL0     H21422   8.154   4.586   8.543 -0.2303 -0.2074 -0.8874
  159MOL0     H21423   7.910   4.641   8.543  0.1753  0.3729 -1.1166
  159MOL0     H21424   7.996   4.735   8.658 -0.6185 -0.0287 -0.5864
  159MOL0     H21425   7.711   4.802   8.788 -3.2600  2.7071 -1.2031
  159MOL0     H21426   7.415   4.892   8.640 -0.1104 -0.1087  0.1368
  159MOL0     H21427   7.372   4.834   8.806 -1.1214 -4.0140 -0.2542
  159MOL0     H21428   7.521   4.914   8.773  2.0223 -0.8265  0.1099
  159MOL0     H21429   7.228   4.226   8.576  1.1352  0.4520 -1.0289
  159MOL0     H21430   6.997   4.132   8.529  0.9672  0.0656  0.5933
  159MOL0     H21431   6.699   4.233   8.665  0.1291 -1.3422  0.5718
  159MOL0     H21432   6.657   4.387   8.583  2.8882  0.1261 -1.3202
  159MOL0     H21433   6.544   4.255   8.409  0.1571 -0.1735  0.5760
  159MOL0     H21434   6.592   4.101   8.487  1.6487 -0.2779  1.6969
  159MOL0     H21435   6.421   4.324   8.611 -0.4430 -0.7554 -0.0440
  159MOL0     H21436   6.460   4.178   8.697 -1.2490  1.2473  0.6132
  159MOL0     H21437   6.277   4.173   8.445  1.9618  1.7043 -1.0578
  159MOL0     H21438   6.352   4.037   8.509 -2.2784  0.3825 -2.3860
  159MOL0     H21439   6.179   4.238   8.659  0.4751  1.0457 -1.1617
  159MOL0     H21440   6.225   4.084   8.730 -1.5642 -1.2923 -0.3902
  159MOL0     H21441   6.064   4.123   8.484 -1.7319  2.6824  1.4860
  159MOL0     H21442   6.094   3.963   8.551  2.7472 -0.3571  0.2011
  159MOL0     H21443   5.937   4.172   8.712  2.3813  1.0733 -1.0026
  159MOL0     H21444   5.967   3.996   8.740 -1.4979 -0.8196  0.3697
  159MOL0     H21445   5.834   3.922   8.577  2.1112  0.4117  0.4066
  159MOL0     H21446   5.821   4.085   8.500 -1.2102  0.2002 -0.0894
  159MOL0     H21447   6.827   4.516   8.576  1.1820  1.5588  0.8685
  159MOL0     H21448   7.051   4.624   8.604 -1.4674  0.0468  4.2415
  159MOL0     H21449   7.499   4.404   8.595 -0.2444 -0.4651  1.0786
  159MOL0     H21450   7.729   4.406   8.610 -1.1553  0.0237 -2.0825
  159MOL0     H21451   9.767   4.218   8.763 -0.9816  1.1071  1.8367
  159MOL0     H21452   9.941   4.071   8.815 -0.5910  1.7176 -0.0416
  159MOL0     H21453   9.963   3.575   8.989  1.1846 -0.2675 -2.0321
  159MOL0     H21454  10.108   3.404   9.042 -3.0238  1.4909 -2.0433
  159MOL0     H21455  10.509   3.516   9.205 -1.2803  0.0919 -2.4994
  159MOL0     H21456  10.404   3.412   9.302 -1.4660 -0.3590 -0.9616
  159MOL0     H21457  10.512   3.218   9.207 -2.6019  1.1736  4.4034
  159MOL0     H21458  10.613   3.331   9.297 -2.9527 -2.6513  1.7163
  159MOL0     H21459  10.695   3.449   9.107  0.2929  0.7577  1.4734
  159MOL0     H21460  10.606   3.345   8.992 -0.6764  0.1381  1.2825
  159MOL0     H21461  10.835   3.275   8.991  0.5846  1.7320  0.9410
  159MOL0     H21462  10.748   3.145   9.073 -0.8972  0.9065 -1.6004
  159MOL0     H21463  11.000   3.269   9.388  1.2718  1.3585 -1.0195
  159MOL0     H21464  10.438   3.669   9.101 -0.7431 -0.7215  1.4610
  159MOL0     H21465  10.289   3.858   9.056 -0.2712 -0.1306  1.0677
  160MOL0     O21466   1.299   9.275   8.696 -0.4229 -0.5286  0.2035
  160MOL0     C21467   1.384   9.203   8.750  0.1043  0.1128 -0.7604
  160MOL0     O21468   1.362   9.102   8.846  0.2694  0.4307  1.0736
  160MOL0     C21469   1.231   9.066   8.883  0.5403  0.2728 -0.1477
  160MOL0     C21470   1.152   9.152   8.960 -0.3998  0.0511  0.0734
  160MOL0     C21471   1.016   9.111   8.985 -0.0381  0.1418 -0.0072
  160MOL0     C21472   0.967   8.982   8.956 -0.5189 -0.2400  0.1547
  160MOL0     O21473   0.844   8.949   9.005 -0.2399 -0.4292 -0.0127
  160MOL0     C21474   0.824   8.816   9.043  0.2092 -0.7157  0.3055
  160MOL0     C21475   0.914   8.786   9.170  0.3023 -0.2729 -0.4373
  160MOL0     C21476   0.878   8.647   9.232  0.6165 -0.3714  0.5541
  160MOL0     C21477   0.737   8.645   9.306  0.4869  0.0157  0.2143
  160MOL0     C21478   0.704   8.537   9.402  0.5837 -0.3601  0.3288
  160MOL0     C21479   0.563   8.563   9.470  0.9263 -0.6556  0.6483
  160MOL0     C21480   0.448   8.593   9.373 -0.4002 -0.0819  0.1022
  160MOL0     C21481   0.438   8.489   9.259  0.0189 -0.0949  0.5443
  160MOL0     N21482   0.315   8.509   9.179  0.1018  1.0765 -0.4759
  160MOL0     C21483   0.301   8.530   9.047  0.0728  0.6712  0.0740
  160MOL0     C21484   0.174   8.517   9.017 -0.0970  0.5769 -0.5584
  160MOL0     C21485   0.117   8.518   8.875  0.9297  0.0585 -0.4480
  160MOL0     C21486   0.120   8.369   8.840 -0.0938  0.2480 -0.5405
  160MOL0     C21487   0.101   8.351   8.694  0.6058  0.0791 -1.1849
  160MOL0     C21488  -0.039   8.364   8.641  0.1150  0.2307 -0.7886
  160MOL0     O21489  -0.025   8.335   8.509 -1.3114  0.1657 -0.0060
  160MOL0     C21490  -0.134   8.324   8.427  0.2731 -0.3292  0.0671
  160MOL0     C21491  -0.122   8.313   8.286  0.2010  0.0836  0.1367
  160MOL0     C21492  -0.234   8.305   8.195 -0.3745 -0.7078 -1.0025
  160MOL0     C21493  -0.196   8.290   8.052  0.8899  0.6276 -0.7775
  160MOL0     C21494  -0.366   8.303   8.247  0.6743 -0.1853  0.1851
  160MOL0     C21495  -0.483   8.275   8.165  0.4094  0.1819 -0.0252
  160MOL0     O21496  -0.600   8.321   8.232 -0.4705  0.0118 -1.1907
  160MOL0     C21497  -0.717   8.265   8.180 -0.2377  0.5912 -0.3919
  160MOL0     C21498  -0.771   8.168   8.259  0.6725 -0.1614 -0.4586
  160MOL0     C21499  -0.897   8.105   8.223  0.1723  0.0631 -0.3054
  160MOL0     C21500  -0.963   8.153   8.117  0.3962 -0.3870  0.0543
  160MOL0     O21501  -1.084   8.088   8.078 -0.1933  0.5218  0.0050
  160MOL0     C21502  -1.189   8.189   8.115 -0.3446 -0.7000 -0.4669
  160MOL0     C21503  -1.320   8.121   8.143 -0.4331  0.0675 -0.0505
  160MOL0     C21504  -1.377   8.017   8.037 -0.8572  0.4941  0.0690
  160MOL0     C21505  -1.508   7.951   8.085 -0.5893 -0.5553 -0.1002
  160MOL0     C21506  -1.624   8.044   8.085 -0.1760 -0.6902  0.2351
  160MOL0     C21507  -1.739   7.982   8.164 -0.4826  0.4650 -0.3838
  160MOL0     C21508  -1.860   8.080   8.185 -0.1224 -0.7972 -0.6600
  160MOL0     C21509  -1.974   7.993   8.254  0.4899  0.5442  0.7560
  160MOL0    Cl21510  -2.026   7.856   8.140  0.6552 -0.2130 -0.0364
  160MOL0     C21511  -0.906   8.263   8.047  0.5972  0.9073  0.5088
  160MOL0     C21512  -0.777   8.308   8.072  0.4985 -0.3492 -0.1277
  160MOL0     O21513  -0.486   8.209   8.060 -0.1482  0.6188 -0.1616
  160MOL0     C21514  -0.383   8.308   8.382  0.0474  0.0340  0.3302
  160MOL0     C21515  -0.269   8.323   8.471  0.0959  0.2311  0.0775
  160MOL0     N21516   0.109   8.488   9.140  0.0681 -0.1233  0.0544
  160MOL0     N21517   0.194   8.476   9.240  0.0612  0.9444  0.5553
  160MOL0     C21518   1.050   8.901   8.874 -0.0929  0.0574  0.2761
  160MOL0     C21519   1.183   8.942   8.838  0.5453 -0.5751 -0.1368
  160MOL0     C21520   1.526   9.232   8.703 -0.7203 -0.6572 -0.4097
  160MOL0     C21521   1.547   9.344   8.616  0.3032 -0.4439 -0.7701
  160MOL0     C21522   1.676   9.364   8.570 -0.1185 -0.9537 -0.4493
  160MOL0     C21523   1.784   9.289   8.612 -0.0141  0.4616  0.2059
  160MOL0     O21524   1.919   9.322   8.583 -0.0214 -0.4297 -0.4593
  160MOL0     C21525   1.954   9.421   8.482  0.8192 -0.3222 -0.1022
  160MOL0     C21526   1.902   9.369   8.346 -0.6453  0.2483  0.0450
  160MOL0     C21527   1.930   9.215   8.320 -0.0768 -0.3589 -0.1450
  160MOL0     C21528   1.843   9.149   8.205 -0.2031 -0.1450 -0.9249
  160MOL0     C21529   1.697   9.168   8.216 -0.5136  0.2867 -0.7814
  160MOL0     C21530   1.576   9.197   8.230 -0.1884  0.2050 -0.2916
  160MOL0     C21531   1.756   9.180   8.694 -0.5035 -0.2642 -0.2188
  160MOL0     C21532   1.637   9.154   8.740  0.8856  0.2855 -0.4611
  160MOL0     H21533   1.180   9.252   8.993  1.0874 -0.7401  1.2991
  160MOL0     H21534   0.950   9.182   9.033 -0.7674 -0.8325  0.4638
  160MOL0     H21535   0.722   8.792   9.076 -1.4049  2.0889 -2.0902
  160MOL0     H21536   0.846   8.753   8.957  0.3742 -1.0175  0.5673
  160MOL0     H21537   1.017   8.777   9.131 -0.3019  0.6703 -2.4077
  160MOL0     H21538   0.907   8.866   9.244 -0.5298 -2.3735  1.8769
  160MOL0     H21539   0.864   8.575   9.151 -2.7922 -1.2911  1.8124
  160MOL0     H21540   0.952   8.602   9.298  1.6483  0.5998  0.1210
  160MOL0     H21541   0.717   8.738   9.361 -3.8792  0.0036 -0.9267
  160MOL0     H21542   0.656   8.643   9.232  0.4119 -2.4110  0.2840
  160MOL0     H21543   0.695   8.440   9.353  3.4300 -1.2257  1.3677
  160MOL0     H21544   0.778   8.533   9.482 -1.2343  3.3570  2.4970
  160MOL0     H21545   0.532   8.470   9.519 -1.2676  0.1410  0.8549
  160MOL0     H21546   0.569   8.643   9.543 -0.5642 -0.7199  0.8635
  160MOL0     H21547   0.362   8.594   9.440 -1.7610  0.2909 -1.5714
  160MOL0     H21548   0.462   8.686   9.318 -2.6788 -1.1056 -2.4385
  160MOL0     H21549   0.434   8.386   9.296 -1.7070  0.1964  1.2374
  160MOL0     H21550   0.528   8.486   9.196 -0.1792 -1.4926  0.3079
  160MOL0     H21551   0.374   8.556   8.970 -1.2423 -1.1958 -1.9100
  160MOL0     H21552   0.015   8.558   8.871  0.6490 -0.5133  0.5555
  160MOL0     H21553   0.175   8.572   8.800  0.1360  1.3021 -0.2093
  160MOL0     H21554   0.053   8.307   8.899  0.2023  0.2305 -0.2198
  160MOL0     H21555   0.216   8.322   8.862  0.6676  2.0037  0.0456
  160MOL0     H21556   0.153   8.259   8.666 -1.1200 -1.1308 -0.5636
  160MOL0     H21557   0.161   8.422   8.636  0.8789  1.2776  0.4746
  160MOL0     H21558  -0.078   8.465   8.655 -3.2648 -1.2807  2.4200
  160MOL0     H21559  -0.097   8.290   8.697  0.3953  1.1416  0.7701
  160MOL0     H21560  -0.019   8.289   8.260  0.2753  2.8506 -2.6489
  160MOL0     H21561  -0.088   8.305   8.037  1.0925  0.2597  0.1591
  160MOL0     H21562  -0.229   8.190   8.024 -0.2895  0.5282  0.8546
  160MOL0     H21563  -0.253   8.364   7.995  1.7270  1.6324 -0.3505
  160MOL0     H21564  -0.732   8.145   8.358  0.0551 -3.1921 -0.8119
  160MOL0     H21565  -0.946   8.024   8.277  0.9816 -0.8737 -0.9324
  160MOL0     H21566  -1.155   8.249   8.200  0.6266 -3.2059  1.0300
  160MOL0     H21567  -1.199   8.258   8.031 -2.3795 -0.6745 -0.2511
  160MOL0     H21568  -1.298   8.061   8.232  0.8521 -2.5277 -1.9912
  160MOL0     H21569  -1.390   8.202   8.167  0.8801  1.1032  0.4312
  160MOL0     H21570  -1.308   7.932   8.034 -2.7902 -1.1603  0.0455
  160MOL0     H21571  -1.381   8.057   7.935  1.8898 -1.5867 -0.9949
  160MOL0     H21572  -1.507   7.870   8.012  1.4197  1.2713 -2.2982
  160MOL0     H21573  -1.491   7.915   8.187 -1.3115 -1.8907 -0.4312
  160MOL0     H21574  -1.664   8.067   7.985  0.2641 -0.4644  0.1094
  160MOL0     H21575  -1.603   8.144   8.125 -0.8739  0.8399 -2.9415
  160MOL0     H21576  -1.761   7.894   8.104 -0.6918  0.3109 -0.0858
  160MOL0     H21577  -1.709   7.942   8.262 -0.2911 -2.8881 -1.6836
  160MOL0     H21578  -1.893   8.125   8.091 -1.6613 -0.2715  0.1182
  160MOL0     H21579  -1.821   8.160   8.248  1.1708 -1.1118 -1.0169
  160MOL0     H21580  -2.065   8.048   8.277 -1.6953 -1.8429 -1.5659
  160MOL0     H21581  -1.945   7.954   8.352 -0.2769  2.0570  1.6242
  160MOL0     H21582  -0.959   8.303   7.961 -1.1450  3.6782  2.7063
  160MOL0     H21583  -0.738   8.394   8.017  0.1483 -0.3442 -0.3738
  160MOL0     H21584  -0.481   8.294   8.427 -0.0572 -0.1402  0.0518
  160MOL0     H21585  -0.275   8.331   8.579  4.4920 -2.3953  0.7557
  160MOL0     H21586   1.026   8.799   8.845 -1.7776  0.7961 -1.1388
  160MOL0     H21587   1.242   8.871   8.782 -0.0101 -1.2047  0.0590
  160MOL0     H21588   1.468   9.407   8.577 -0.0381  0.5414  1.3785
  160MOL0     H21589   1.682   9.458   8.518 -0.9556 -0.4806  0.2727
  160MOL0     H21590   1.913   9.522   8.497  0.7273  0.1386 -2.8364
  160MOL0     H21591   2.063   9.425   8.483  0.8345 -0.7768  0.0229
  160MOL0     H21592   1.944   9.436   8.271 -2.5306 -1.5139 -2.7516
  160MOL0     H21593   1.794   9.380   8.337 -1.1984 -3.4187  0.5693
  160MOL0     H21594   1.912   9.150   8.406  1.6787 -1.2816 -0.4253
  160MOL0     H21595   2.035   9.210   8.289  0.1913  3.4355 -0.2511
  160MOL0     H21596   1.859   9.041   8.205  0.0079 -0.1283  0.1813
  160MOL0     H21597   1.866   9.190   8.107 -1.1701 -0.9036 -1.4827
  160MOL0     H21598   1.478   9.231   8.257  0.3972  0.9318  1.0138
  160MOL0     H21599   1.840   9.115   8.715 -0.6789 -0.4485 -0.0846
  160MOL0     H21600   1.611   9.068   8.801 -0.9733  0.8518 -0.3718
  161MOL0     O21601   7.072   2.176  10.195  0.6421 -0.2015 -0.2267
  161MOL0     C21602   7.011   2.076  10.228 -0.3125  0.8475  0.3065
  161MOL0     O21603   7.076   1.955  10.242  0.1810 -0.6040  0.8692
  161MOL0     C21604   7.209   1.956  10.238 -0.1725 -0.1843 -0.1750
  161MOL0     C21605   7.264   1.894  10.130 -0.4387  0.2228 -0.2135
  161MOL0     C21606   7.405   1.870  10.130 -0.1463  0.0924 -0.5363
  161MOL0     C21607   7.490   1.910  10.233 -0.3821 -0.2183 -0.8777
  161MOL0     O21608   7.627   1.876  10.224 -0.3667 -0.0689  0.0387
  161MOL0     C21609   7.694   1.871  10.362  1.0211 -0.4178 -0.0967
  161MOL0     C21610   7.839   1.844  10.338  0.2390 -1.5618 -0.5402
  161MOL0     C21611   7.903   1.835  10.479 -0.4997 -0.5450  0.5541
  161MOL0     C21612   8.053   1.803  10.462  0.1948  0.9799  0.8649
  161MOL0     C21613   8.128   1.802  10.605  0.2626 -0.1874 -0.5498
  161MOL0     C21614   8.275   1.756  10.605 -0.5047  0.4618  0.9663
  161MOL0     C21615   8.325   1.716  10.741  0.6225  0.6287  0.0147
  161MOL0     C21616   8.474   1.725  10.743  0.5506  0.0192 -0.4151
  161MOL0     N21617   8.534   1.677  10.870  0.2681  0.1449  0.6197
  161MOL0     C21618   8.517   1.747  10.989  0.0617  0.7039  0.4207
  161MOL0     C21619   8.603   1.684  11.072 -0.1808  0.0751 -1.5961
  161MOL0     C21620   8.601   1.707  11.218 -0.3500  0.2820 -0.3074
  161MOL0     C21621   8.509   1.593  11.271  0.1385  0.0758  0.2138
  161MOL0     C21622   8.506   1.584  11.422 -1.2421 -0.4196  0.0290
  161MOL0     C21623   8.389   1.496  11.469  0.2193 -0.2980  0.0820
  161MOL0     O21624   8.263   1.558  11.452  0.2189  0.0254  0.2747
  161MOL0     C21625   8.146   1.480  11.462 -1.0690 -0.2094  0.2204
  161MOL0     C21626   8.148   1.352  11.525  0.9129 -0.4438 -0.8564
  161MOL0     C21627   8.036   1.270  11.522  0.3076 -0.1302 -0.9308
  161MOL0     C21628   8.053   1.127  11.573  1.0600 -0.1881  0.9435
  161MOL0     C21629   7.923   1.310  11.443 -0.5806  0.7085 -0.5041
  161MOL0     C21630   7.807   1.215  11.414 -0.7804 -1.1446  0.2705
  161MOL0     O21631   7.714   1.260  11.318 -0.1338  0.6408 -0.4139
  161MOL0     C21632   7.607   1.175  11.284 -0.1092  0.2496  0.2678
  161MOL0     C21633   7.627   1.037  11.254 -0.0915 -0.5086  0.2283
  161MOL0     C21634   7.513   0.951  11.230 -0.5293 -0.0153  0.4277
  161MOL0     C21635   7.380   1.008  11.231 -0.2384  0.8244 -0.0160
  161MOL0     O21636   7.279   0.911  11.199  0.0489  0.4576 -0.0912
  161MOL0     C21637   7.143   0.949  11.199  0.1662  0.3440 -1.2698
  161MOL0     C21638   7.088   0.999  11.071  0.4425  0.5285  0.8344
  161MOL0     C21639   6.971   1.089  11.105  0.8526 -0.2231 -0.1559
  161MOL0     C21640   6.915   1.152  10.982  0.2704 -0.7460  0.0402
  161MOL0     C21641   6.806   1.264  11.002 -0.2007 -0.7914  0.3005
  161MOL0     C21642   6.678   1.206  11.062  0.7013 -0.5547 -0.1202
  161MOL0     C21643   6.550   1.295  11.048 -0.6214 -0.7822 -0.1412
  161MOL0     C21644   6.528   1.369  10.918 -0.2488  0.0453  0.3069
  161MOL0    Cl21645   6.538   1.238  10.800  0.0642  0.9365 -0.0401
  161MOL0     C21646   7.358   1.146  11.258 -0.4093 -0.1736 -0.4832
  161MOL0     C21647   7.477   1.231  11.289  0.2554  0.2639 -0.4886
  161MOL0     O21648   7.784   1.119  11.487 -0.1072 -0.0047  0.1105
  161MOL0     C21649   7.919   1.437  11.390 -0.9403  0.0747  0.1032
  161MOL0     C21650   8.034   1.522  11.406  1.2652  0.1880 -0.2073
  161MOL0     N21651   8.672   1.586  11.003  0.0485 -0.1958 -0.0766
  161MOL0     N21652   8.629   1.578  10.879  0.4844  0.5221 -1.0243
  161MOL0     C21653   7.431   1.983  10.339  0.6990  0.7758 -0.7280
  161MOL0     C21654   7.288   2.001  10.346  0.5507  0.4818  0.3453
  161MOL0     C21655   6.868   2.094  10.263  0.5796  0.1283 -0.1977
  161MOL0     C21656   6.812   2.225  10.279 -1.2273  0.1246  0.4710
  161MOL0     C21657   6.682   2.241  10.308  0.2188 -0.5644 -0.0739
  161MOL0     C21658   6.593   2.140  10.318  0.9097  0.0857  0.3084
  161MOL0     O21659   6.466   2.181  10.346  0.0703  0.1349  0.2719
  161MOL0     C21660   6.373   2.083  10.385  0.1904 -0.5635 -0.4401
  161MOL0     C21661   6.263   2.149  10.467 -0.4239 -1.4398 -0.8403
  161MOL0     C21662   6.210   2.287  10.420  0.0115  0.3719 -1.2189
  161MOL0     C21663   6.151   2.292  10.278 -0.9000 -0.6224 -0.8328
  161MOL0     C21664   6.066   2.175  10.256 -0.4274  0.3319  0.8118
  161MOL0     C21665   5.991   2.081  10.233 -0.5633 -0.7982  0.1210
  161MOL0     C21666   6.641   2.011  10.313 -0.1918  1.0052 -0.4527
  161MOL0     C21667   6.779   1.984  10.293  0.7447 -0.5069  0.3317
  161MOL0     H21668   7.210   1.858  10.042 -0.8663 -2.7201  1.1303
  161MOL0     H21669   7.440   1.813  10.044  1.8565 -0.3419  0.5165
  161MOL0     H21670   7.686   1.972  10.404  2.9096  0.1341 -0.9627
  161MOL0     H21671   7.654   1.797  10.431  3.6347 -0.0707  1.9920
  161MOL0     H21672   7.844   1.744  10.293  0.9929 -1.8614  0.1949
  161MOL0     H21673   7.883   1.919  10.271 -1.1250 -1.5713 -1.4763
  161MOL0     H21674   7.891   1.929  10.533  2.3291 -1.7110  3.5552
  161MOL0     H21675   7.848   1.756  10.532 -0.3085 -0.3119  1.1134
  161MOL0     H21676   8.065   1.706  10.412  0.7425  2.3933 -1.9219
  161MOL0     H21677   8.097   1.877  10.395 -0.3010 -0.5950 -1.3021
  161MOL0     H21678   8.121   1.901  10.652 -1.2749  0.1902 -1.5060
  161MOL0     H21679   8.064   1.739  10.668 -1.3836 -1.0164 -2.9382
  161MOL0     H21680   8.281   1.673  10.533  0.0226 -0.5724  2.1500
  161MOL0     H21681   8.333   1.841  10.568  0.5001 -0.9820 -1.0010
  161MOL0     H21682   8.269   1.765  10.821 -0.7973  0.6738 -0.9680
  161MOL0     H21683   8.303   1.610  10.757  4.3974  0.0744  3.0308
  161MOL0     H21684   8.516   1.825  10.726  1.1611 -0.3452 -1.1019
  161MOL0     H21685   8.524   1.664  10.668  0.0154 -0.8550 -0.0724
  161MOL0     H21686   8.449   1.829  11.009  0.6379  0.8886  1.7606
  161MOL0     H21687   8.702   1.692  11.256  0.8170 -1.3463 -3.7166
  161MOL0     H21688   8.562   1.805  11.250 -1.4772 -0.2744  0.0772
  161MOL0     H21689   8.543   1.495  11.236  2.3787  0.5997  0.7780
  161MOL0     H21690   8.407   1.607  11.232  0.8688 -1.4838 -2.6149
  161MOL0     H21691   8.484   1.685  11.458 -0.5703  0.7960 -2.6731
  161MOL0     H21692   8.604   1.552  11.457  0.2307  3.7167  0.1421
  161MOL0     H21693   8.411   1.459  11.570 -0.2785  0.3491  0.4352
  161MOL0     H21694   8.387   1.410  11.402  0.5647  1.0592 -1.7453
  161MOL0     H21695   8.237   1.317  11.576  1.7247  1.8897 -0.5313
  161MOL0     H21696   8.043   1.060  11.487 -0.5010 -0.7923  1.5673
  161MOL0     H21697   8.154   1.121  11.615  0.1271 -0.1200  3.2978
  161MOL0     H21698   7.978   1.103  11.648 -3.8484  3.4207 -2.1969
  161MOL0     H21699   7.727   0.994  11.251  0.1227  0.0494 -1.7329
  161MOL0     H21700   7.541   0.847  11.213 -0.3710  0.1237 -0.1772
  161MOL0     H21701   7.082   0.866  11.235 -1.0415  1.5514 -0.4391
  161MOL0     H21702   7.138   1.025  11.277  1.0119 -0.3168 -0.5507
  161MOL0     H21703   7.160   1.055  11.011  0.1979 -1.4615 -1.4453
  161MOL0     H21704   7.044   0.918  11.013 -0.5498  1.8442 -0.2983
  161MOL0     H21705   7.000   1.167  11.176 -3.2945  0.9131  0.5736
  161MOL0     H21706   6.895   1.031  11.160 -2.7637  3.6011 -0.6062
  161MOL0     H21707   7.004   1.196  10.934  0.3740 -0.9094  0.0832
  161MOL0     H21708   6.880   1.073  10.916  3.5568 -1.2318 -1.3264
  161MOL0     H21709   6.794   1.306  10.901 -1.6057 -3.0580 -0.5366
  161MOL0     H21710   6.850   1.334  11.074  0.0971  0.7764 -1.2985
  161MOL0     H21711   6.653   1.107  11.022 -3.5880 -0.0523  0.8621
  161MOL0     H21712   6.689   1.195  11.170 -1.3666 -2.0610 -0.0016
  161MOL0     H21713   6.543   1.362  11.134  1.9375 -0.8467  0.1786
  161MOL0     H21714   6.468   1.226  11.073  0.5851 -1.7498  1.2872
  161MOL0     H21715   6.604   1.447  10.907 -0.1390  0.0160  0.8420
  161MOL0     H21716   6.429   1.416  10.916 -0.2302  0.1443  1.3842
  161MOL0     H21717   7.263   1.197  11.257 -0.0644  0.4638 -0.8753
  161MOL0     H21718   7.463   1.334  11.318  2.5813  0.4749  0.0392
  161MOL0     H21719   7.831   1.475  11.340 -0.7593  0.6601  0.2161
  161MOL0     H21720   8.033   1.617  11.353  2.5267  0.0339 -0.5432
  161MOL0     H21721   7.481   2.019  10.428 -2.1367  3.9245 -0.1997
  161MOL0     H21722   7.236   2.050  10.427  0.4611 -1.0796  1.2768
  161MOL0     H21723   6.871   2.311  10.251 -0.0391 -1.3121 -1.7650
  161MOL0     H21724   6.637   2.339  10.298 -0.6437 -0.8629  0.6970
  161MOL0     H21725   6.314   2.044  10.301 -1.1672 -3.6442  1.7193
  161MOL0     H21726   6.423   1.996  10.429  3.3942  1.3153 -0.0495
  161MOL0     H21727   6.304   2.176  10.564 -4.6808  1.5336  0.4567
  161MOL0     H21728   6.185   2.074  10.486 -0.9026 -0.4923  1.1698
  161MOL0     H21729   6.285   2.365  10.435  1.0494 -0.2786 -2.7440
  161MOL0     H21730   6.123   2.308  10.483  1.4045  2.1896  0.1807
  161MOL0     H21731   6.233   2.293  10.206 -0.5583 -2.6627 -0.5119
  161MOL0     H21732   6.097   2.386  10.263  1.9640  2.1559  3.8451
  161MOL0     H21733   5.952   1.984  10.211  0.1686 -1.2861  0.9083
  161MOL0     H21734   6.583   1.919  10.317  1.4538 -0.0321  1.1685
  161MOL0     H21735   6.811   1.881  10.283  0.3184 -1.0749  3.6412
  162MOL0     O21736   8.017   6.851   7.593  0.0776 -0.2045  0.5017
  162MOL0     C21737   8.120   6.918   7.585 -0.6625  0.2032  0.1806
  162MOL0     O21738   8.126   7.058   7.586 -0.3493  0.4230 -0.0048
  162MOL0     C21739   8.002   7.114   7.604 -0.3135 -0.3442  0.4067
  162MOL0     C21740   7.908   7.110   7.500  0.2131 -0.3373 -0.7321
  162MOL0     C21741   7.782   7.168   7.523 -0.1611  0.6450  0.0982
  162MOL0     C21742   7.752   7.244   7.632  1.1871 -0.0227 -0.2905
  162MOL0     O21743   7.634   7.327   7.634 -0.3299 -0.3295  0.1356
  162MOL0     C21744   7.592   7.385   7.756  0.6719 -0.3845  0.0721
  162MOL0     C21745   7.443   7.409   7.754 -0.0052  0.2692 -0.3596
  162MOL0     C21746   7.355   7.288   7.701 -0.2476  0.0834 -0.3735
  162MOL0     C21747   7.225   7.317   7.645 -0.2035 -0.5136 -0.2752
  162MOL0     C21748   7.148   7.200   7.598 -0.0387 -0.0001 -0.8042
  162MOL0     C21749   7.031   7.244   7.508 -0.2435 -0.0525 -0.4456
  162MOL0     C21750   6.931   7.126   7.495 -0.2870 -0.8229 -0.7681
  162MOL0     C21751   6.810   7.173   7.407  0.4002 -0.8657 -0.0296
  162MOL0     N21752   6.689   7.083   7.402  0.4080  0.5640  0.5244
  162MOL0     C21753   6.557   7.109   7.425  0.0885 -0.8020  0.6085
  162MOL0     C21754   6.497   6.996   7.398  0.5783 -0.3673  0.3531
  162MOL0     C21755   6.348   6.955   7.399 -0.3756  0.3197  0.3602
  162MOL0     C21756   6.252   7.051   7.328 -1.0348  0.6003  0.2052
  162MOL0     C21757   6.274   7.077   7.176 -0.0588 -0.1649  0.4492
  162MOL0     C21758   6.269   6.950   7.092  0.4990 -0.3041 -0.3531
  162MOL0     O21759   6.136   6.912   7.084  0.5601 -0.1765  0.5751
  162MOL0     C21760   6.114   6.787   7.040  0.3711  0.7578  0.2410
  162MOL0     C21761   6.202   6.692   6.992 -0.2558  0.2266 -0.8859
  162MOL0     C21762   6.160   6.554   6.957 -0.8429  0.1756 -0.1674
  162MOL0     C21763   6.270   6.468   6.907 -0.2194 -0.0826  0.4459
  162MOL0     C21764   6.029   6.512   6.993  0.1914 -0.4023 -0.4196
  162MOL0     C21765   5.978   6.379   6.963  0.9292 -0.4727 -0.5699
  162MOL0     O21766   5.842   6.367   6.988  0.0077 -0.6545  0.2408
  162MOL0     C21767   5.772   6.245   6.977  0.3550 -1.3181 -0.6093
  162MOL0     C21768   5.784   6.152   6.876  0.8753 -0.1404  0.1306
  162MOL0     C21769   5.713   6.034   6.883  0.2814 -0.4221  0.2418
  162MOL0     C21770   5.622   6.014   6.980  0.0357  0.3241 -0.7116
  162MOL0     O21771   5.547   5.895   6.991 -0.7871 -0.6399 -0.4188
  162MOL0     C21772   5.467   5.873   6.874  0.3153 -0.3535 -0.9082
  162MOL0     C21773   5.348   5.962   6.833  0.1141 -0.2223 -0.5139
  162MOL0     C21774   5.268   6.014   6.952 -0.5981  1.2747  0.3903
  162MOL0     C21775   5.166   5.907   6.981 -0.0188 -0.3894 -0.4138
  162MOL0     C21776   5.088   5.976   7.103  0.2567  0.7075 -0.3703
  162MOL0     C21777   4.948   5.915   7.127  0.5215 -0.6518  1.0755
  162MOL0     C21778   4.960   5.777   7.173  1.2081  0.2589 -0.2279
  162MOL0     C21779   4.824   5.709   7.199 -0.9200 -0.4959  0.6717
  162MOL0    Cl21780   4.858   5.548   7.253 -0.4090 -0.1711  0.3185
  162MOL0     C21781   5.594   6.102   7.078 -1.5773  0.4326 -1.1357
  162MOL0     C21782   5.676   6.217   7.084  0.8711  0.3337 -0.4358
  162MOL0     O21783   6.042   6.285   6.920 -0.2608  0.5807 -0.0196
  162MOL0     C21784   5.939   6.609   7.046 -0.1512  0.2960 -0.0536
  162MOL0     C21785   5.981   6.742   7.065  0.0459 -0.0045 -0.4081
  162MOL0     N21786   6.588   6.902   7.377 -0.8585  0.0791  0.3691
  162MOL0     N21787   6.701   6.952   7.383  0.2691  0.4562 -0.5973
  162MOL0     C21788   7.847   7.252   7.735  0.3176  0.5278 -0.4288
  162MOL0     C21789   7.978   7.185   7.726  0.5860 -0.1720 -0.3038
  162MOL0     C21790   8.245   6.836   7.576  0.2397 -0.6830 -0.0979
  162MOL0     C21791   8.370   6.902   7.570  0.4979 -0.7273 -0.1313
  162MOL0     C21792   8.490   6.830   7.550  0.1207  0.0697 -0.2581
  162MOL0     C21793   8.482   6.691   7.540  0.1786 -1.0183 -0.3237
  162MOL0     O21794   8.591   6.606   7.547 -0.1455  0.1414 -0.1738
  162MOL0     C21795   8.728   6.645   7.552 -0.7376 -0.1306  0.1620
  162MOL0     C21796   8.795   6.619   7.689  1.2085 -0.0163 -0.6525
  162MOL0     C21797   8.763   6.479   7.754  1.0319  0.0484  0.2882
  162MOL0     C21798   8.804   6.467   7.900 -0.0130 -0.6774 -0.1971
  162MOL0     C21799   8.755   6.345   7.954  1.1564  1.0387  0.0255
  162MOL0     C21800   8.709   6.241   8.006 -0.0150  0.1739 -0.0225
  162MOL0     C21801   8.362   6.624   7.549 -0.5391 -0.2121  0.4120
  162MOL0     C21802   8.245   6.694   7.571 -0.4432 -0.9809 -0.7766
  162MOL0     H21803   7.931   7.063   7.405  1.7930 -0.1918 -0.4389
  162MOL0     H21804   7.722   7.161   7.433  1.3402 -1.5474 -0.8431
  162MOL0     H21805   7.620   7.323   7.842  1.3815 -0.2241 -0.0364
  162MOL0     H21806   7.645   7.480   7.766 -2.4293  1.7843 -2.2390
  162MOL0     H21807   7.424   7.439   7.858  2.2120 -1.5052  0.6626
  162MOL0     H21808   7.427   7.495   7.688 -2.1956  2.3044  2.5456
  162MOL0     H21809   7.402   7.232   7.620 -1.5017 -0.8506 -0.4857
  162MOL0     H21810   7.346   7.214   7.780  1.0637 -0.1215 -0.3982
  162MOL0     H21811   7.169   7.374   7.720 -0.0718 -0.6726 -0.0539
  162MOL0     H21812   7.247   7.385   7.562 -2.1675 -0.4435 -0.7859
  162MOL0     H21813   7.205   7.129   7.538 -0.2390  0.5719 -1.6995
  162MOL0     H21814   7.107   7.160   7.691  0.3284  0.0826 -0.6043
  162MOL0     H21815   6.977   7.326   7.556  0.8336 -0.3207  1.3308
  162MOL0     H21816   7.055   7.272   7.405 -0.4762  0.1717 -0.4410
  162MOL0     H21817   6.983   7.044   7.446  1.9645  0.7085 -1.1020
  162MOL0     H21818   6.894   7.098   7.594  1.3202 -0.4863 -0.0339
  162MOL0     H21819   6.845   7.191   7.305  0.1335 -2.5347 -0.4431
  162MOL0     H21820   6.776   7.267   7.450  3.2300 -0.2876  1.1931
  162MOL0     H21821   6.517   7.208   7.444 -1.3786 -1.3556  0.5292
  162MOL0     H21822   6.352   6.858   7.350  2.1603 -0.0268  1.1388
  162MOL0     H21823   6.306   6.939   7.498 -1.5802 -0.8873 -0.3179
  162MOL0     H21824   6.253   7.144   7.386 -1.4905  1.5276 -1.2211
  162MOL0     H21825   6.154   7.003   7.337 -0.2171 -1.8053 -2.3014
  162MOL0     H21826   6.370   7.125   7.158 -0.5355  0.7562  0.2998
  162MOL0     H21827   6.198   7.151   7.148 -1.0428 -0.9639  0.9130
  162MOL0     H21828   6.327   6.869   7.136  1.7422 -0.2150 -1.7443
  162MOL0     H21829   6.313   6.979   6.996  3.5500  2.6218  1.7244
  162MOL0     H21830   6.307   6.714   7.009 -0.6314  0.2452  1.9282
  162MOL0     H21831   6.352   6.537   6.886 -0.0348  0.3137  2.3271
  162MOL0     H21832   6.302   6.396   6.982  0.9139 -1.7886 -1.5583
  162MOL0     H21833   6.238   6.427   6.811  0.9917 -1.6263  0.6646
  162MOL0     H21834   5.847   6.176   6.791 -2.4975  1.2229 -2.1855
  162MOL0     H21835   5.729   5.964   6.800  0.1921 -1.0726  0.7670
  162MOL0     H21836   5.533   5.839   6.794  2.2855 -0.2965  0.5897
  162MOL0     H21837   5.416   5.780   6.901  0.0592 -0.3567 -1.4030
  162MOL0     H21838   5.387   6.041   6.768 -1.9068  0.5658 -0.8468
  162MOL0     H21839   5.285   5.901   6.766  1.5607 -3.2472  0.7048
  162MOL0     H21840   5.228   6.111   6.923  0.7865  1.3026 -1.5932
  162MOL0     H21841   5.327   6.030   7.042  0.8882 -0.9706 -0.0984
  162MOL0     H21842   5.104   5.888   6.893 -2.1528 -2.1439  1.3371
  162MOL0     H21843   5.203   5.810   7.015 -0.0821 -0.0197  0.7479
  162MOL0     H21844   5.055   6.076   7.073 -0.4015 -0.5706 -4.4453
  162MOL0     H21845   5.149   5.974   7.194 -0.7916 -0.2663  0.3444
  162MOL0     H21846   4.896   5.966   7.209 -1.5143  1.3636 -1.3418
  162MOL0     H21847   4.884   5.931   7.040 -0.5784  1.1452  2.1660
  162MOL0     H21848   5.007   5.763   7.270  1.4470 -4.3801 -0.7941
  162MOL0     H21849   5.020   5.715   7.105  0.3177 -1.1811  0.2610
  162MOL0     H21850   4.772   5.695   7.103 -1.4136  0.0902  0.8469
  162MOL0     H21851   4.756   5.757   7.269 -0.7577  0.1737  0.3875
  162MOL0     H21852   5.519   6.077   7.152 -0.7673 -1.5870 -0.9304
  162MOL0     H21853   5.664   6.291   7.161  1.4359 -1.0232  1.0155
  162MOL0     H21854   5.838   6.577   7.069  0.6133 -2.7198 -0.4065
  162MOL0     H21855   5.903   6.809   7.098 -0.0979 -0.3310 -0.0718
  162MOL0     H21856   7.832   7.322   7.817  1.4078 -0.0679  0.3148
  162MOL0     H21857   8.063   7.181   7.794  1.8146  0.9890 -1.7051
  162MOL0     H21858   8.375   7.010   7.577 -0.9695 -0.6138 -0.6302
  162MOL0     H21859   8.581   6.888   7.561  1.9684 -2.4535 -1.2740
  162MOL0     H21860   8.763   6.585   7.467  0.9557 -3.7664  3.1577
  162MOL0     H21861   8.745   6.752   7.533 -3.4424  0.4760  0.8101
  162MOL0     H21862   8.748   6.696   7.751 -0.4778  1.3239 -3.3938
  162MOL0     H21863   8.904   6.632   7.690  1.3510 -0.3749  3.0875
  162MOL0     H21864   8.816   6.409   7.689 -0.0594  1.0012 -1.6950
  162MOL0     H21865   8.654   6.470   7.753  0.6066  3.3053  2.8559
  162MOL0     H21866   8.760   6.551   7.953 -1.1794 -2.3202  1.5419
  162MOL0     H21867   8.913   6.468   7.913 -0.0956 -0.1617  0.4850
  162MOL0     H21868   8.653   6.156   8.038 -1.8800  2.3366  2.9410
  162MOL0     H21869   8.371   6.516   7.538 -0.4944 -0.2573  0.8970
  162MOL0     H21870   8.161   6.627   7.585  0.7380 -2.4879 -0.6471
  163MOL0     O21871   9.172   2.844   8.879 -0.5115  0.3723 -0.7227
  163MOL0     C21872   9.168   2.780   8.774  0.0495  0.5269  0.2376
  163MOL0     O21873   9.062   2.776   8.680  0.2287 -0.2636  0.7480
  163MOL0     C21874   8.962   2.875   8.703 -0.4212  0.1141  0.6771
  163MOL0     C21875   8.831   2.836   8.663 -0.1605  0.0147  0.0651
  163MOL0     C21876   8.719   2.926   8.680 -0.1152 -0.2658  0.9644
  163MOL0     C21877   8.730   3.051   8.742  0.9923  1.8911 -0.4118
  163MOL0     O21878   8.630   3.137   8.774  0.0207 -0.1453  0.7136
  163MOL0     C21879   8.498   3.091   8.784 -0.0539  0.6002 -0.0768
  163MOL0     C21880   8.426   3.156   8.661 -0.2369  0.3967  0.6503
  163MOL0     C21881   8.271   3.132   8.651  0.1359  1.0441  0.1369
  163MOL0     C21882   8.186   3.229   8.568  0.0196  1.0495  0.1418
  163MOL0     C21883   8.032   3.209   8.564 -0.1529 -0.1375 -0.5775
  163MOL0     C21884   7.955   3.333   8.516 -0.4091 -0.1391  0.6571
  163MOL0     C21885   7.808   3.313   8.539 -0.5149 -0.3525  0.0924
  163MOL0     C21886   7.733   3.445   8.509 -0.3712  0.6825  0.6857
  163MOL0     N21887   7.594   3.441   8.528  0.6188  0.0633 -0.2850
  163MOL0     C21888   7.530   3.453   8.647  0.0521  0.6852 -0.0781
  163MOL0     C21889   7.394   3.453   8.627  0.4311  0.3302  0.9192
  163MOL0     C21890   7.299   3.491   8.737  0.1406 -0.1077 -0.4917
  163MOL0     C21891   7.156   3.459   8.686  0.3493 -0.1750  0.8060
  163MOL0     C21892   7.062   3.484   8.804  0.0927 -0.0642  0.0887
  163MOL0     C21893   6.919   3.484   8.756 -0.2482  0.0236  0.7880
  163MOL0     O21894   6.832   3.476   8.869 -0.2711  0.4629  0.2017
  163MOL0     C21895   6.697   3.465   8.833  1.2095 -0.2959 -0.2882
  163MOL0     C21896   6.609   3.453   8.944 -0.5117 -0.4340  0.6229
  163MOL0     C21897   6.468   3.455   8.930  0.2516  0.8583  0.5070
  163MOL0     C21898   6.393   3.425   9.056  0.5952 -0.2378 -0.6416
  163MOL0     C21899   6.407   3.466   8.803 -0.9827  0.3998  0.6892
  163MOL0     C21900   6.261   3.469   8.773 -0.4787 -0.6787  0.7057
  163MOL0     O21901   6.183   3.538   8.861  0.1330 -0.0159  0.4214
  163MOL0     C21902   6.051   3.555   8.835  0.0042  0.1440 -0.1353
  163MOL0     C21903   5.965   3.450   8.824 -0.8964  0.4367  0.7103
  163MOL0     C21904   5.831   3.468   8.812  0.6953 -0.4317  0.8583
  163MOL0     C21905   5.769   3.598   8.821 -0.3198 -0.1994 -0.5381
  163MOL0     O21906   5.633   3.605   8.815 -0.2042 -0.8869 -0.0625
  163MOL0     C21907   5.567   3.735   8.809 -0.7016  0.3075  0.1526
  163MOL0     C21908   5.419   3.720   8.802  0.1206 -0.4203  0.7100
  163MOL0     C21909   5.391   3.656   8.660  0.3971  0.1196  0.8372
  163MOL0     C21910   5.239   3.615   8.648  0.9273  0.3479  0.3883
  163MOL0     C21911   5.189   3.514   8.754 -0.2665  0.9979 -0.6542
  163MOL0     C21912   5.060   3.454   8.700 -0.2426 -0.9646  0.3729
  163MOL0     C21913   4.952   3.557   8.681 -0.2364  1.6029 -0.0175
  163MOL0     C21914   4.819   3.488   8.670 -0.5575  0.1443  0.1741
  163MOL0    Cl21915   4.828   3.372   8.539 -0.1231  0.6127 -0.0220
  163MOL0     C21916   5.850   3.709   8.830 -0.5999  0.2959 -0.0410
  163MOL0     C21917   5.993   3.688   8.849 -0.2394 -0.2492 -0.3309
  163MOL0     O21918   6.226   3.417   8.666  0.6635 -0.3188 -0.2133
  163MOL0     C21919   6.493   3.457   8.685 -0.9895  0.1819 -0.0524
  163MOL0     C21920   6.629   3.460   8.707 -0.3524  0.2746  0.4322
  163MOL0     N21921   7.380   3.422   8.488  0.4959 -0.2454 -0.1453
  163MOL0     N21922   7.499   3.415   8.435 -0.8143 -1.0109  0.6228
  163MOL0     C21923   8.865   3.091   8.771 -0.1178  0.0299 -0.2515
  163MOL0     C21924   8.971   3.003   8.764 -0.3194  0.0651  0.6831
  163MOL0     C21925   9.297   2.704   8.738 -0.0841 -0.6250 -0.2568
  163MOL0     C21926   9.421   2.731   8.797  0.5983  0.4795  1.4952
  163MOL0     C21927   9.527   2.642   8.762  0.3505 -0.1230 -0.9450
  163MOL0     C21928   9.519   2.538   8.669  0.6461  0.1647  0.5927
  163MOL0     O21929   9.619   2.457   8.627 -0.1218 -0.4076  0.0961
  163MOL0     C21930   9.756   2.481   8.673 -0.2320 -0.1133  0.2333
  163MOL0     C21931   9.865   2.410   8.594 -0.3654 -0.1953  0.2471
  163MOL0     C21932   9.998   2.437   8.670 -0.9724  1.1012 -0.4830
  163MOL0     C21933  10.112   2.368   8.600  0.1439 -0.6418  0.4837
  163MOL0     C21934  10.247   2.400   8.649 -0.2549 -0.0227 -0.3744
  163MOL0     C21935  10.356   2.439   8.667 -0.5250  0.4198  0.1984
  163MOL0     C21936   9.388   2.520   8.620  0.1213 -0.6405 -0.1393
  163MOL0     C21937   9.283   2.603   8.641  0.3708  0.6641  0.2270
  163MOL0     H21938   8.816   2.748   8.602  0.5547  1.5890 -2.5132
  163MOL0     H21939   8.620   2.892   8.649  0.5571 -0.5734 -1.0119
  163MOL0     H21940   8.480   2.983   8.777 -2.0504  0.8372  0.6050
  163MOL0     H21941   8.450   3.127   8.876 -1.0403 -1.4688  0.2884
  163MOL0     H21942   8.429   3.264   8.672  0.4577  0.3758  0.7001
  163MOL0     H21943   8.477   3.123   8.569 -0.9283 -1.5372  0.8956
  163MOL0     H21944   8.253   3.031   8.613  2.7394  0.0021  1.3977
  163MOL0     H21945   8.228   3.133   8.752 -2.5556 -4.1660 -0.6179
  163MOL0     H21946   8.205   3.328   8.610 -0.9791  2.0950 -1.7095
  163MOL0     H21947   8.227   3.240   8.467  0.9412  0.6566  0.4630
  163MOL0     H21948   8.016   3.117   8.507 -2.4027  1.1762 -2.2456
  163MOL0     H21949   8.018   3.209   8.673  0.2720  2.1248 -0.4822
  163MOL0     H21950   7.995   3.421   8.567  1.2402  0.1923 -1.0940
  163MOL0     H21951   7.968   3.347   8.408 -2.1773  0.0846  0.4532
  163MOL0     H21952   7.764   3.233   8.479 -1.8250  2.3027 -2.7970
  163MOL0     H21953   7.800   3.278   8.642 -4.6408  0.3527  0.1551
  163MOL0     H21954   7.748   3.487   8.410 -0.1772 -0.2382  0.3192
  163MOL0     H21955   7.777   3.521   8.575 -0.7137 -1.0716  3.1037
  163MOL0     H21956   7.592   3.471   8.734 -1.9959  0.3509  1.5342
  163MOL0     H21957   7.324   3.426   8.821 -0.3863 -0.8615 -0.9168
  163MOL0     H21958   7.305   3.597   8.765  1.8244 -0.4276  0.5354
  163MOL0     H21959   7.150   3.354   8.656 -1.0129 -1.1439  4.0554
  163MOL0     H21960   7.133   3.528   8.605 -1.4232 -0.5810  0.9218
  163MOL0     H21961   7.092   3.574   8.858  1.8021 -0.5101 -0.0477
  163MOL0     H21962   7.077   3.407   8.881  2.0652  1.7317  1.5972
  163MOL0     H21963   6.896   3.406   8.684 -3.7372  2.7963 -1.4364
  163MOL0     H21964   6.894   3.575   8.700  1.0893 -0.8841 -1.4376
  163MOL0     H21965   6.660   3.445   9.039  0.4643 -0.0239  0.1431
  163MOL0     H21966   6.451   3.371   9.132 -0.5822 -0.5420  0.0721
  163MOL0     H21967   6.354   3.515   9.105 -0.0977 -0.8963  0.0674
  163MOL0     H21968   6.304   3.364   9.034  0.3011  0.2795 -0.8990
  163MOL0     H21969   6.015   3.353   8.822  0.7817  1.2678 -0.5025
  163MOL0     H21970   5.766   3.391   8.772  1.8019 -1.4757  1.0056
  163MOL0     H21971   5.588   3.788   8.903 -1.1631 -1.6569  1.4195
  163MOL0     H21972   5.612   3.798   8.731  2.1866  0.2317  1.6507
  163MOL0     H21973   5.389   3.660   8.888  1.3966 -0.9818  0.7968
  163MOL0     H21974   5.367   3.814   8.821 -2.3206 -2.2640  4.3835
  163MOL0     H21975   5.468   3.581   8.638  1.0604  0.9260  0.3072
  163MOL0     H21976   5.425   3.728   8.585  3.9539  0.2901  2.4112
  163MOL0     H21977   5.179   3.706   8.657 -4.7155 -2.7344 -0.8819
  163MOL0     H21978   5.224   3.581   8.545  2.7380  0.8793 -0.0712
  163MOL0     H21979   5.165   3.557   8.852 -3.2597  3.2697 -2.2199
  163MOL0     H21980   5.265   3.437   8.772 -0.7580  0.9940  1.6682
  163MOL0     H21981   5.091   3.414   8.603  0.9661  1.5564 -0.3686
  163MOL0     H21982   5.026   3.371   8.763 -1.6442 -2.1797 -1.8287
  163MOL0     H21983   4.976   3.614   8.590 -0.3330  0.9770 -0.4424
  163MOL0     H21984   4.955   3.620   8.770 -0.3969  2.2077 -0.4317
  163MOL0     H21985   4.739   3.559   8.652 -0.3685 -0.2164 -2.4737
  163MOL0     H21986   4.803   3.441   8.767 -3.1807  0.0926 -0.2147
  163MOL0     H21987   5.793   3.801   8.823 -0.8252  0.0566 -1.8081
  163MOL0     H21988   6.051   3.779   8.867 -1.9644  0.3111  3.3881
  163MOL0     H21989   6.456   3.458   8.583  1.0953 -0.5743 -0.8806
  163MOL0     H21990   6.705   3.468   8.629 -0.1189 -2.5219  0.2867
  163MOL0     H21991   8.888   3.184   8.822  0.2202  0.6403 -1.4929
  163MOL0     H21992   9.068   3.043   8.793 -0.8561  1.8838  0.0587
  163MOL0     H21993   9.427   2.809   8.872 -3.9214  0.9122  1.6392
  163MOL0     H21994   9.617   2.661   8.821  0.8244 -1.0610 -1.3516
  163MOL0     H21995   9.777   2.588   8.667  4.1530 -0.8196  0.0562
  163MOL0     H21996   9.758   2.457   8.780 -1.5588  0.7801  0.4905
  163MOL0     H21997   9.861   2.451   8.493 -1.6559 -2.9579 -0.9398
  163MOL0     H21998   9.837   2.304   8.592 -1.8334  0.1942 -0.5037
  163MOL0     H21999   9.990   2.413   8.777 -0.9793 -0.9230 -0.8949
  163MOL0     H22000  10.021   2.543   8.682  3.5614  0.0366  3.2492
  163MOL0     H22001  10.108   2.410   8.499  3.1828  3.8873  1.9513
  163MOL0     H22002  10.089   2.262   8.611  0.2427 -0.7100  0.0494
  163MOL0     H22003  10.461   2.459   8.678 -0.2514 -1.0551  0.5539
  163MOL0     H22004   9.371   2.439   8.550  1.4810 -0.7062 -0.4173
  163MOL0     H22005   9.187   2.592   8.592  0.6309 -0.0712 -0.1266
  164MOL0     O22006   5.079   7.857   8.744  0.1883 -0.3777 -0.3134
  164MOL0     C22007   5.122   7.955   8.684 -0.8907 -0.0888  0.3815
  164MOL0     O22008   5.071   8.002   8.566  0.2778  0.1790  0.0439
  164MOL0     C22009   4.950   7.966   8.513  0.1157 -0.1369 -0.1517
  164MOL0     C22010   4.946   7.906   8.381  0.9551 -0.2562  1.0686
  164MOL0     C22011   4.818   7.842   8.344  0.1053 -0.5923  0.7503
  164MOL0     C22012   4.698   7.856   8.424  0.3476  0.6980 -0.0422
  164MOL0     O22013   4.573   7.811   8.376 -0.3899  0.3322 -0.2914
  164MOL0     C22014   4.554   7.794   8.237 -0.1427  0.1539  0.0687
  164MOL0     C22015   4.413   7.773   8.189  0.3357 -0.5791  0.0622
  164MOL0     C22016   4.404   7.768   8.038  0.0952 -0.2277  0.0402
  164MOL0     C22017   4.265   7.729   7.994  0.1203  0.6978  0.3137
  164MOL0     C22018   4.250   7.715   7.839  0.5134  0.4568 -0.7044
  164MOL0     C22019   4.346   7.611   7.794 -0.4877  0.7888  0.4271
  164MOL0     C22020   4.295   7.550   7.660  0.1572  0.0362  0.7605
  164MOL0     C22021   4.344   7.632   7.541 -0.7602 -0.0899  0.2973
  164MOL0     N22022   4.492   7.635   7.523  0.4885 -0.0325 -0.0243
  164MOL0     C22023   4.565   7.531   7.469 -0.3398 -0.5510  0.1287
  164MOL0     C22024   4.687   7.584   7.426  0.2242  0.0261 -0.1108
  164MOL0     C22025   4.792   7.503   7.366  0.7839 -0.5304  0.2017
  164MOL0     C22026   4.931   7.559   7.400  0.1990  0.1517 -0.7880
  164MOL0     C22027   5.034   7.477   7.317  0.3276 -0.5703 -0.7402
  164MOL0     C22028   5.175   7.510   7.353  0.0133 -0.3938  0.4573
  164MOL0     O22029   5.208   7.652   7.337 -0.6782 -0.4892  0.4422
  164MOL0     C22030   5.334   7.707   7.357 -0.0043 -0.8247  0.9093
  164MOL0     C22031   5.443   7.638   7.415 -0.1626  0.2096  0.7333
  164MOL0     C22032   5.574   7.699   7.430 -0.0870  0.3956  0.2953
  164MOL0     C22033   5.685   7.603   7.464 -0.0849  0.9795 -0.1382
  164MOL0     C22034   5.588   7.835   7.407 -0.2017 -0.2934 -0.1046
  164MOL0     C22035   5.712   7.913   7.428  0.1519  0.0894  0.2313
  164MOL0     O22036   5.709   8.046   7.402 -0.2213 -0.0906 -0.1171
  164MOL0     C22037   5.820   8.125   7.429 -0.5804 -0.0585  1.1123
  164MOL0     C22038   5.918   8.132   7.333  0.5966  0.5824 -0.6286
  164MOL0     C22039   6.035   8.207   7.366  0.7664  0.0473  0.5614
  164MOL0     C22040   6.044   8.283   7.480  1.2228  0.4510  1.3950
  164MOL0     O22041   6.142   8.375   7.511  0.0284  0.7976  0.0485
  164MOL0     C22042   6.124   8.506   7.450 -0.3331  0.2925 -0.5125
  164MOL0     C22043   6.181   8.618   7.534 -1.0748  0.1705 -0.5324
  164MOL0     C22044   6.333   8.604   7.579 -0.2451  0.7009  0.4740
  164MOL0     C22045   6.428   8.651   7.457  0.5847  0.4125  0.9652
  164MOL0     C22046   6.571   8.646   7.509  0.4354  0.3005  0.2672
  164MOL0     C22047   6.667   8.669   7.393  1.2594  0.0420  0.0586
  164MOL0     C22048   6.814   8.681   7.444  0.3649  0.0067 -0.1321
  164MOL0     C22049   6.909   8.683   7.324  0.5045  0.3685  0.8493
  164MOL0    Cl22050   6.885   8.529   7.233  0.3259  0.3216 -0.0936
  164MOL0     C22051   5.943   8.286   7.565  0.1246 -0.1911 -0.1264
  164MOL0     C22052   5.836   8.198   7.544  0.3528 -0.2461 -0.0347
  164MOL0     O22053   5.816   7.855   7.467 -0.3721  0.1308 -0.1182
  164MOL0     C22054   5.475   7.908   7.361  0.6575  0.4439 -0.4222
  164MOL0     C22055   5.353   7.840   7.332 -0.8752 -0.3392 -0.1333
  164MOL0     N22056   4.679   7.721   7.453 -0.0045  0.4434 -0.7560
  164MOL0     N22057   4.561   7.751   7.504 -0.0279  0.2580 -0.7131
  164MOL0     C22058   4.708   7.923   8.543 -0.0253 -0.5262  0.1214
  164MOL0     C22059   4.833   7.960   8.590 -0.9830 -0.0597 -0.0786
  164MOL0     C22060   5.244   8.015   8.731  0.3988 -0.5248  0.1673
  164MOL0     C22061   5.268   8.031   8.869 -0.0782 -0.7359  0.2309
  164MOL0     C22062   5.373   8.112   8.914 -0.2565 -0.8046  0.8196
  164MOL0     C22063   5.462   8.172   8.811  0.2864  0.2321  0.5945
  164MOL0     O22064   5.561   8.254   8.851 -0.0933 -0.4707  0.0942
  164MOL0     C22065   5.679   8.265   8.777  0.0896 -0.1767  1.2059
  164MOL0     C22066   5.784   8.342   8.846  0.4521 -1.4151 -0.0396
  164MOL0     C22067   5.850   8.269   8.959  0.7554 -0.1076  0.4436
  164MOL0     C22068   5.940   8.362   9.038  1.0078 -0.6436 -0.7546
  164MOL0     C22069   6.040   8.430   8.954  0.2061  0.5664  0.5058
  164MOL0     C22070   6.123   8.490   8.885  0.7568  0.4454  0.2184
  164MOL0     C22071   5.436   8.149   8.680  0.4825 -0.0245  0.1053
  164MOL0     C22072   5.341   8.059   8.639  0.0489 -0.9626 -0.5669
  164MOL0     H22073   5.031   7.897   8.314 -0.6307 -0.0515 -1.0383
  164MOL0     H22074   4.809   7.806   8.242 -0.5050  2.1456 -0.2271
  164MOL0     H22075   4.595   7.881   8.185 -0.3138 -0.9590 -2.0845
  164MOL0     H22076   4.616   7.710   8.201 -0.0825  1.0535 -2.1235
  164MOL0     H22077   4.365   7.686   8.236 -0.2164 -1.4213 -1.9669
  164MOL0     H22078   4.346   7.853   8.221  1.1994  1.2941 -2.4889
  164MOL0     H22079   4.427   7.868   8.001  2.0638 -0.2668  1.0513
  164MOL0     H22080   4.478   7.695   8.006  1.7481  1.3334  0.1986
  164MOL0     H22081   4.229   7.635   8.039  0.2138  1.3903  1.9145
  164MOL0     H22082   4.188   7.793   8.037  0.1467 -1.0212  3.1808
  164MOL0     H22083   4.145   7.706   7.810  0.0531  1.3710  0.6107
  164MOL0     H22084   4.277   7.805   7.783 -2.8217  0.0751 -3.2648
  164MOL0     H22085   4.450   7.645   7.787 -0.0954 -0.0241  1.7850
  164MOL0     H22086   4.351   7.538   7.876 -3.2747  2.6129  2.4173
  164MOL0     H22087   4.329   7.447   7.643 -2.0947 -0.5771 -0.4640
  164MOL0     H22088   4.186   7.548   7.655  0.1430 -1.3395  1.0193
  164MOL0     H22089   4.325   7.739   7.551  1.2508  0.2658  0.6721
  164MOL0     H22090   4.299   7.619   7.441  0.4416  1.5313 -0.4946
  164MOL0     H22091   4.533   7.427   7.466 -1.2254 -0.2643 -1.3123
  164MOL0     H22092   4.795   7.401   7.406  3.0869  0.1704  2.0118
  164MOL0     H22093   4.780   7.495   7.257 -1.1308 -1.1050  0.4183
  164MOL0     H22094   4.957   7.553   7.506  0.8911  0.3716 -0.9403
  164MOL0     H22095   4.931   7.665   7.373  0.9130 -0.1096 -1.8843
  164MOL0     H22096   5.015   7.479   7.209 -1.7324  0.6075 -0.4164
  164MOL0     H22097   5.009   7.374   7.346  2.6294 -0.1021  3.7473
  164MOL0     H22098   5.246   7.466   7.283  1.6281  1.7563  0.6480
  164MOL0     H22099   5.187   7.468   7.454  0.0506  2.8284  1.9103
  164MOL0     H22100   5.437   7.530   7.417 -1.2382  0.2679  0.9978
  164MOL0     H22101   5.731   7.632   7.559  0.1649 -1.3653  0.5324
  164MOL0     H22102   5.648   7.502   7.483 -1.3619  1.2215 -1.1878
  164MOL0     H22103   5.761   7.602   7.385  2.4831  2.0292  2.1322
  164MOL0     H22104   5.907   8.067   7.247  0.0375  1.1657 -1.0087
  164MOL0     H22105   6.129   8.208   7.312  2.2523  4.5152  2.7251
  164MOL0     H22106   6.169   8.511   7.350  1.4628  3.2713  0.3433
  164MOL0     H22107   6.016   8.518   7.442 -0.5747 -1.0053  0.4664
  164MOL0     H22108   6.173   8.718   7.491  0.7227  1.8781  2.7262
  164MOL0     H22109   6.123   8.627   7.627 -0.3666 -3.1715  0.3814
  164MOL0     H22110   6.358   8.501   7.605  1.4756 -0.8333 -5.5884
  164MOL0     H22111   6.353   8.661   7.670  0.2056  1.7172 -0.2325
  164MOL0     H22112   6.408   8.582   7.374 -3.6280 -0.5279  2.4857
  164MOL0     H22113   6.403   8.749   7.417 -0.8529  0.2531  1.3850
  164MOL0     H22114   6.589   8.547   7.550 -1.5698 -0.7472 -1.1788
  164MOL0     H22115   6.580   8.718   7.591  0.1029 -0.2016  0.7469
  164MOL0     H22116   6.662   8.578   7.333 -0.1130 -1.3852  2.1763
  164MOL0     H22117   6.634   8.755   7.335 -1.4193 -0.1724  1.1021
  164MOL0     H22118   6.830   8.591   7.504 -0.5817 -0.5944 -0.7448
  164MOL0     H22119   6.823   8.777   7.494  0.0444 -0.4761  0.8826
  164MOL0     H22120   7.011   8.679   7.363  0.6694  0.8639  0.4801
  164MOL0     H22121   6.891   8.777   7.272 -1.1957  0.4142  1.4681
  164MOL0     H22122   5.950   8.361   7.643 -1.1917  1.3347 -1.4019
  164MOL0     H22123   5.761   8.203   7.622  0.7008  1.0185  0.2374
  164MOL0     H22124   5.468   8.015   7.347 -2.6414  0.1114 -2.2625
  164MOL0     H22125   5.276   7.905   7.290  2.1333  1.7303 -2.9075
  164MOL0     H22126   4.629   7.942   8.615  0.8254  0.2079  0.8878
  164MOL0     H22127   4.841   7.992   8.694  1.8748  2.0662 -0.8168
  164MOL0     H22128   5.186   7.994   8.929 -2.0516  2.6636 -0.0845
  164MOL0     H22129   5.380   8.143   9.018  1.7997  2.5029 -0.1541
  164MOL0     H22130   5.721   8.170   8.743 -0.6668 -1.6330  4.0477
  164MOL0     H22131   5.667   8.318   8.682  2.6156  1.0134  1.4388
  164MOL0     H22132   5.735   8.431   8.888 -1.1010 -2.1758 -0.1554
  164MOL0     H22133   5.862   8.362   8.772  2.0951 -0.4514  1.8661
  164MOL0     H22134   5.914   8.197   8.908  3.0251  1.5773  0.7666
  164MOL0     H22135   5.767   8.229   9.018  0.3679 -1.0622 -0.7091
  164MOL0     H22136   6.005   8.314   9.112  0.9927  0.6371  0.1306
  164MOL0     H22137   5.870   8.429   9.088 -0.3323 -2.2058 -0.4422
  164MOL0     H22138   6.183   8.546   8.816  0.3178  0.6980  0.0450
  164MOL0     H22139   5.500   8.202   8.609  0.1016 -0.7860 -0.8227
  164MOL0     H22140   5.329   8.046   8.532 -1.9322  4.0548 -1.2284
  165MOL0     O22141   9.708   6.434   9.146 -0.2953 -0.1656  0.3205
  165MOL0     C22142   9.751   6.542   9.102 -0.4945  0.4112 -1.8311
  165MOL0     O22143   9.686   6.633   9.026 -0.2389  0.4724  0.4420
  165MOL0     C22144   9.561   6.614   8.977  0.2555  0.3356 -0.1090
  165MOL0     C22145   9.491   6.722   8.928 -0.5512  0.7392 -0.2319
  165MOL0     C22146   9.378   6.699   8.835  1.1878 -0.2581 -0.2270
  165MOL0     C22147   9.324   6.575   8.814 -0.7021  0.1090 -0.3203
  165MOL0     O22148   9.215   6.545   8.737 -0.4236  0.8870  0.7872
  165MOL0     C22149   9.139   6.656   8.700 -0.1752 -0.3165  0.9850
  165MOL0     C22150   9.173   6.703   8.557  0.7070 -0.6470  0.3256
  165MOL0     C22151   9.170   6.605   8.453  0.2729 -0.0838  0.6534
  165MOL0     C22152   9.173   6.675   8.317  0.4051  0.2839 -0.0257
  165MOL0     C22153   9.184   6.570   8.206  0.2930 -0.1830  0.1656
  165MOL0     C22154   9.192   6.629   8.060  0.6653 -0.1595 -0.3164
  165MOL0     C22155   9.243   6.526   7.963 -0.1454  0.1516 -0.6409
  165MOL0     C22156   9.276   6.586   7.821  0.0087  0.0204 -0.2273
  165MOL0     N22157   9.394   6.669   7.822  0.6369 -0.1459 -0.2315
  165MOL0     C22158   9.522   6.627   7.845  0.1666 -0.7806 -0.5543
  165MOL0     C22159   9.600   6.733   7.805  0.5344  0.4850  0.2083
  165MOL0     C22160   9.749   6.752   7.818  0.0924 -0.0432  0.0220
  165MOL0     C22161   9.789   6.833   7.944 -0.3214  0.8727 -0.3833
  165MOL0     C22162   9.776   6.745   8.068 -0.2888 -0.6098  0.1840
  165MOL0     C22163   9.868   6.812   8.171 -0.2520  0.6914 -0.2568
  165MOL0     O22164   9.814   6.930   8.228  0.0863 -0.6852 -0.8359
  165MOL0     C22165   9.890   7.010   8.307 -0.3405  1.2193  0.0469
  165MOL0     C22166  10.016   6.979   8.377  0.6867  0.4428  0.3911
  165MOL0     C22167  10.081   7.076   8.457 -0.4595 -0.1862 -0.6702
  165MOL0     C22168  10.231   7.047   8.501  0.2980  1.2736 -0.2494
  165MOL0     C22169  10.027   7.206   8.465  0.9245  0.0927  0.3394
  165MOL0     C22170  10.090   7.326   8.534 -0.9031 -0.5417  0.0282
  165MOL0     O22171  10.210   7.318   8.591 -0.4330 -0.2662 -0.1287
  165MOL0     C22172  10.260   7.418   8.664 -0.1067  0.5681 -0.1610
  165MOL0     C22173  10.284   7.383   8.795 -0.7823  0.2914  0.9011
  165MOL0     C22174  10.350   7.471   8.880  0.1119 -0.1882  0.3120
  165MOL0     C22175  10.392   7.600   8.841  0.5284  0.7958 -0.1119
  165MOL0     O22176  10.456   7.670   8.934 -0.0031  0.1842  0.1198
  165MOL0     C22177  10.480   7.812   8.918  0.2549  1.0364  0.6003
  165MOL0     C22178  10.374   7.898   8.983 -0.7464 -0.9599  0.3737
  165MOL0     C22179  10.242   7.903   8.905  0.0939 -0.1480 -0.0902
  165MOL0     C22180  10.113   7.892   8.984 -0.4226 -0.0645 -1.2679
  165MOL0     C22181  10.092   7.747   9.034 -0.4792  0.4985  1.2898
  165MOL0     C22182  10.002   7.677   8.929  0.9053 -0.4162 -0.2257
  165MOL0     C22183   9.939   7.553   8.992  0.0626  0.8090 -0.5819
  165MOL0     C22184   9.868   7.461   8.896  0.3215  1.1414 -0.0873
  165MOL0    Cl22185   9.702   7.531   8.860 -0.1159 -0.5243  0.3309
  165MOL0     C22186  10.386   7.620   8.701 -0.4627  0.1130 -0.1536
  165MOL0     C22187  10.321   7.532   8.613  0.9164 -0.3765  0.2932
  165MOL0     O22188  10.019   7.428   8.538 -0.6544 -0.6721  0.7711
  165MOL0     C22189   9.894   7.231   8.399 -0.5232 -0.2447 -0.4311
  165MOL0     C22190   9.831   7.136   8.330  0.1499  0.0774  0.3360
  165MOL0     N22191   9.515   6.833   7.755 -0.4387  0.0265  0.6825
  165MOL0     N22192   9.395   6.793   7.758 -0.7986  0.1158 -0.7109
  165MOL0     C22193   9.399   6.472   8.867  0.3137 -0.6781  0.5905
  165MOL0     C22194   9.513   6.484   8.938  0.5059  0.1721  0.5216
  165MOL0     C22195   9.890   6.585   9.143  0.4292  0.1196  0.1957
  165MOL0     C22196   9.909   6.721   9.182  0.6679  0.3397  0.7468
  165MOL0     C22197  10.017   6.758   9.254 -0.2160 -0.2432 -0.1509
  165MOL0     C22198  10.124   6.672   9.265 -0.1815  0.2976 -0.4695
  165MOL0     O22199  10.246   6.715   9.310  0.0558 -0.3863 -0.1291
  165MOL0     C22200  10.271   6.853   9.321 -0.6877 -0.2084  0.3511
  165MOL0     C22201  10.237   6.913   9.460  0.2238 -0.1995  0.9573
  165MOL0     C22202  10.282   7.065   9.480 -0.4957  0.6191  1.1403
  165MOL0     C22203  10.246   7.101   9.622 -0.0021  0.0718 -0.7554
  165MOL0     C22204  10.100   7.109   9.646  0.3111 -0.2438 -0.1886
  165MOL0     C22205   9.977   7.114   9.661 -0.0966 -0.0084  0.1882
  165MOL0     C22206  10.111   6.537   9.221  0.4902 -0.4694  0.2595
  165MOL0     C22207   9.992   6.488   9.165  1.0582 -0.4012 -1.3191
  165MOL0     H22208   9.533   6.820   8.949 -0.7270  1.0657 -1.3468
  165MOL0     H22209   9.332   6.790   8.798 -1.1295  0.3225  3.5617
  165MOL0     H22210   9.035   6.623   8.690  0.1998 -1.1597 -0.4171
  165MOL0     H22211   9.141   6.738   8.772 -1.4681  0.9651 -0.3692
  165MOL0     H22212   9.092   6.772   8.533  1.1119 -0.3926 -0.3445
  165MOL0     H22213   9.259   6.771   8.558 -0.3659  0.8212  2.6575
  165MOL0     H22214   9.249   6.531   8.466 -0.2542 -1.0880 -1.3744
  165MOL0     H22215   9.073   6.555   8.458  1.1155 -1.9064 -0.2740
  165MOL0     H22216   9.082   6.735   8.303 -0.2150 -0.1001  2.0502
  165MOL0     H22217   9.260   6.741   8.320  0.7175 -0.1513  0.7559
  165MOL0     H22218   9.277   6.518   8.228 -0.1085 -0.4858  1.1791
  165MOL0     H22219   9.101   6.500   8.214  0.1677  0.0817  1.4060
  165MOL0     H22220   9.104   6.675   8.014  0.7174 -1.2661 -1.5747
  165MOL0     H22221   9.264   6.712   8.063  1.8858 -1.1701 -0.5480
  165MOL0     H22222   9.319   6.463   8.008  1.2395  1.5073 -1.0040
  165MOL0     H22223   9.164   6.451   7.954 -0.5918  0.3520  1.1677
  165MOL0     H22224   9.201   6.645   7.767  1.5988 -1.0485 -3.9094
  165MOL0     H22225   9.286   6.502   7.752 -1.5870  0.2405 -0.7761
  165MOL0     H22226   9.555   6.540   7.901  0.8747  0.2338  0.6845
  165MOL0     H22227   9.797   6.654   7.814  0.7150  0.2592 -0.1317
  165MOL0     H22228   9.777   6.807   7.727 -0.4524 -1.8148 -1.2688
  165MOL0     H22229   9.730   6.926   7.944 -2.2878 -0.2560 -2.9346
  165MOL0     H22230   9.895   6.858   7.937  0.0588 -0.3836  0.5143
  165MOL0     H22231   9.817   6.648   8.036  1.2263 -0.0204  0.2834
  165MOL0     H22232   9.671   6.734   8.097 -0.0225 -0.1268  1.3737
  165MOL0     H22233   9.967   6.827   8.128  0.7761 -1.8077  1.0414
  165MOL0     H22234   9.872   6.740   8.254  0.4658  0.7539 -0.2307
  165MOL0     H22235  10.058   6.880   8.361 -0.2846 -0.1537  1.4666
  165MOL0     H22236  10.289   7.121   8.446  1.0174  0.2611 -0.8592
  165MOL0     H22237  10.238   7.055   8.610  3.5354 -0.2504 -0.2335
  165MOL0     H22238  10.255   6.946   8.467 -2.1225  1.1894 -1.9666
  165MOL0     H22239  10.245   7.285   8.822 -3.5809  1.0802  0.1266
  165MOL0     H22240  10.365   7.436   8.981 -2.7272 -1.0804  0.5056
  165MOL0     H22241  10.578   7.839   8.958 -0.2592  1.1521  1.8285
  165MOL0     H22242  10.482   7.845   8.814 -0.8545 -0.0401  0.2090
  165MOL0     H22243  10.362   7.853   9.082 -0.8482  0.2216  0.9182
  165MOL0     H22244  10.412   8.000   8.977  0.3790 -1.3305  0.9779
  165MOL0     H22245  10.223   7.825   8.831 -0.2377 -2.2531  2.1012
  165MOL0     H22246  10.235   7.994   8.844  0.7206 -0.5667 -0.8071
  165MOL0     H22247  10.120   7.959   9.070  0.5118  0.9796 -2.1254
  165MOL0     H22248  10.030   7.919   8.917  1.8321 -2.5944 -5.4864
  165MOL0     H22249  10.055   7.754   9.137  2.5887  1.0884  2.4530
  165MOL0     H22250  10.182   7.686   9.050 -1.2859 -0.0505  4.5012
  165MOL0     H22251   9.920   7.746   8.906  0.8649 -0.0087  1.0326
  165MOL0     H22252  10.049   7.650   8.834 -0.4320 -2.6531 -0.3254
  165MOL0     H22253   9.878   7.587   9.077  0.9867 -0.0158  0.4293
  165MOL0     H22254  10.026   7.496   9.025 -0.9179  0.0688  0.8385
  165MOL0     H22255   9.853   7.359   8.935  2.1231  1.4313  1.5265
  165MOL0     H22256   9.921   7.455   8.801 -0.0528 -0.2771 -0.2349
  165MOL0     H22257  10.443   7.707   8.668  1.2735 -0.6484  0.6998
  165MOL0     H22258  10.325   7.557   8.508  0.2621 -1.4003  0.0110
  165MOL0     H22259   9.844   7.327   8.410  1.2160  0.4505  2.6411
  165MOL0     H22260   9.736   7.165   8.286 -0.5477 -3.7330 -1.0901
  165MOL0     H22261   9.364   6.370   8.857  0.8285 -1.0704  2.3454
  165MOL0     H22262   9.567   6.392   8.957  0.6093 -0.0588 -0.8163
  165MOL0     H22263   9.827   6.793   9.179  0.1142 -0.2550 -2.6137
  165MOL0     H22264  10.013   6.861   9.288  1.3479 -0.1932 -0.0666
  165MOL0     H22265  10.374   6.880   9.297 -0.5355  1.0434  2.1989
  165MOL0     H22266  10.218   6.907   9.241 -1.3052 -0.7532  0.3887
  165MOL0     H22267  10.279   6.855   9.542 -0.1978  0.1256  1.4106
  165MOL0     H22268  10.130   6.903   9.476  0.0684 -0.9896 -0.3846
  165MOL0     H22269  10.236   7.140   9.415  0.9141  2.1619  1.8336
  165MOL0     H22270  10.389   7.085   9.468 -0.8176  1.5451 -0.4861
  165MOL0     H22271  10.274   7.204   9.645 -3.3857  0.6479  1.4484
  165MOL0     H22272  10.298   7.035   9.691 -1.2273 -2.3665 -2.0149
  165MOL0     H22273   9.875   7.093   9.687 -0.7561  1.8677 -0.6806
  165MOL0     H22274  10.205   6.483   9.228  1.4793  0.5231 -3.2369
  165MOL0     H22275   9.993   6.382   9.143  3.8228 -0.5209 -0.9924
  166MOL0     O22276   8.928   8.018   6.262  0.9488  0.5971  0.9128
  166MOL0     C22277   9.003   7.957   6.335 -0.5944  0.2718 -0.7609
  166MOL0     O22278   8.961   7.868   6.436 -0.0814  0.9764  0.1933
  166MOL0     C22279   8.830   7.828   6.462 -0.6781 -0.8479 -0.2441
  166MOL0     C22280   8.813   7.722   6.559 -0.0126 -0.9261 -0.0565
  166MOL0     C22281   8.686   7.681   6.588  0.7137  0.9378  0.4911
  166MOL0     C22282   8.577   7.729   6.518 -0.0427  1.3227 -0.2103
  166MOL0     O22283   8.447   7.674   6.539 -0.0693 -0.2836  0.0761
  166MOL0     C22284   8.426   7.587   6.651 -0.0843 -0.0070 -0.1195
  166MOL0     C22285   8.281   7.599   6.687  0.1910 -0.4017  0.1303
  166MOL0     C22286   8.210   7.734   6.704  0.2995 -0.4807 -0.2559
  166MOL0     C22287   8.062   7.739   6.740 -0.0886  0.9180  0.4537
  166MOL0     C22288   8.000   7.883   6.755  0.3345  0.5346  0.1159
  166MOL0     C22289   7.850   7.884   6.804 -0.6045  0.1655 -0.4902
  166MOL0     C22290   7.776   8.023   6.786 -0.4123  1.1225  0.0489
  166MOL0     C22291   7.857   8.137   6.851  0.0682 -0.4087 -0.4392
  166MOL0     N22292   7.837   8.143   6.994  0.4822  0.3780 -0.4585
  166MOL0     C22293   7.721   8.193   7.047  0.4356  0.1647  0.7267
  166MOL0     C22294   7.736   8.166   7.179  0.5911 -0.1400  0.1871
  166MOL0     C22295   7.649   8.213   7.289 -1.0584  0.0739  0.0051
  166MOL0     C22296   7.554   8.098   7.319  0.3361  0.1317 -1.0234
  166MOL0     C22297   7.411   8.107   7.252 -0.5250 -0.4109 -0.1323
  166MOL0     C22298   7.313   7.992   7.303  0.7668  0.2595 -0.2793
  166MOL0     O22299   7.187   8.006   7.251 -0.2409 -0.1174 -0.3089
  166MOL0     C22300   7.111   7.890   7.248 -0.1354  0.1073  0.3111
  166MOL0     C22301   6.997   7.895   7.169  0.5431 -0.2505  0.2916
  166MOL0     C22302   6.913   7.786   7.144 -0.3937 -0.5057 -0.6029
  166MOL0     C22303   6.792   7.814   7.059  0.8429 -0.3548  0.4966
  166MOL0     C22304   6.942   7.663   7.212  0.1420 -0.0876  0.5160
  166MOL0     C22305   6.874   7.528   7.188  0.2622  0.2304 -0.1358
  166MOL0     O22306   6.768   7.522   7.098 -0.0621  0.5399 -0.8693
  166MOL0     C22307   6.715   7.402   7.061 -0.2960  0.8694 -0.1957
  166MOL0     C22308   6.789   7.278   7.042  0.5118 -0.5827  0.3570
  166MOL0     C22309   6.739   7.166   6.986  0.8479 -0.2575 -0.0477
  166MOL0     C22310   6.609   7.159   6.940 -1.0263  0.5764  0.5148
  166MOL0     O22311   6.568   7.059   6.859  0.6642 -0.1304 -0.0609
  166MOL0     C22312   6.622   6.923   6.874 -0.6330  0.9754 -0.2210
  166MOL0     C22313   6.531   6.819   6.816 -0.4425  0.4723 -0.1473
  166MOL0     C22314   6.511   6.847   6.668 -0.2783 -0.0533  0.9353
  166MOL0     C22315   6.407   6.740   6.632  0.3347  0.3260  0.6308
  166MOL0     C22316   6.367   6.749   6.481  0.2645  0.4021 -0.0824
  166MOL0     C22317   6.248   6.653   6.443 -0.3078 -0.6915 -0.6036
  166MOL0     C22318   6.195   6.658   6.295 -0.1435  0.6184  0.4912
  166MOL0     C22319   6.079   6.575   6.264  0.1935  0.4066  0.1955
  166MOL0    Cl22320   6.024   6.574   6.096  0.2370 -0.1009 -0.1504
  166MOL0     C22321   6.535   7.278   6.949 -0.0317 -0.8886 -0.0509
  166MOL0     C22322   6.579   7.390   7.017 -0.5055 -0.3941 -0.1934
  166MOL0     O22323   6.901   7.439   7.267  0.8699  1.2320 -0.2148
  166MOL0     C22324   7.064   7.663   7.293  0.0391  0.7338 -0.5431
  166MOL0     C22325   7.144   7.770   7.318  0.1496 -0.3773 -0.2734
  166MOL0     N22326   7.857   8.101   7.197  0.1217  0.6343 -0.1784
  166MOL0     N22327   7.916   8.082   7.081 -0.9831  0.5022  0.6200
  166MOL0     C22328   8.586   7.825   6.426 -0.6850 -0.4380  0.1726
  166MOL0     C22329   8.715   7.878   6.402 -0.4880  0.8470  0.9583
  166MOL0     C22330   9.142   7.972   6.301  0.1754  0.4487 -0.7411
  166MOL0     C22331   9.241   7.887   6.365 -0.0810  0.2833  0.6687
  166MOL0     C22332   9.380   7.908   6.335  1.1531  0.7763 -0.0960
  166MOL0     C22333   9.420   8.012   6.253 -0.5127  0.5308 -0.1459
  166MOL0     O22334   9.552   8.030   6.235  0.9337  0.5020 -0.4021
  166MOL0     C22335   9.600   8.121   6.142  0.3776  0.3113 -0.8170
  166MOL0     C22336   9.755   8.100   6.153  0.7583 -0.3362 -0.3064
  166MOL0     C22337   9.819   8.171   6.274  0.7807 -0.0943  0.6928
  166MOL0     C22338   9.971   8.185   6.258 -1.0337 -0.0587 -0.6677
  166MOL0     C22339  10.001   8.296   6.166  0.3159 -0.1258 -0.1515
  166MOL0     C22340  10.020   8.389   6.100  1.2459  0.2395 -0.2990
  166MOL0     C22341   9.335   8.102   6.199 -0.1773  0.2934 -0.1293
  166MOL0     C22342   9.197   8.082   6.229  0.4166  0.1473  0.3543
  166MOL0     H22343   8.899   7.689   6.617  2.2233  1.6998 -1.6602
  166MOL0     H22344   8.689   7.601   6.661  2.5016  0.5161  0.0007
  166MOL0     H22345   8.452   7.484   6.627 -0.2618  0.0856 -0.7159
  166MOL0     H22346   8.473   7.630   6.740 -1.7851 -0.1476  0.9041
  166MOL0     H22347   8.216   7.543   6.619  0.1600  0.1193 -0.2774
  166MOL0     H22348   8.269   7.552   6.785  1.0046 -1.1657 -0.1290
  166MOL0     H22349   8.264   7.793   6.778 -2.2703  0.1074  1.2585
  166MOL0     H22350   8.227   7.789   6.611  1.7982 -3.6939 -2.0659
  166MOL0     H22351   8.001   7.692   6.662 -5.4301  4.2202  2.0690
  166MOL0     H22352   8.050   7.677   6.829 -1.6419 -0.9290 -0.9473
  166MOL0     H22353   8.053   7.943   6.829 -2.2449  0.4465  2.1638
  166MOL0     H22354   7.995   7.928   6.655 -2.5496 -1.3190 -0.7314
  166MOL0     H22355   7.792   7.810   6.748 -0.2246 -0.8118  0.3793
  166MOL0     H22356   7.844   7.854   6.909  0.5942 -0.0538 -0.4689
  166MOL0     H22357   7.756   8.042   6.680 -3.4404 -4.0609 -0.6595
  166MOL0     H22358   7.676   8.012   6.827 -1.1389  3.1453 -1.0213
  166MOL0     H22359   7.826   8.236   6.815  0.5763  0.2337  0.8325
  166MOL0     H22360   7.961   8.136   6.815 -0.9631 -2.2076 -3.8615
  166MOL0     H22361   7.642   8.255   7.007  1.1092  0.1624 -0.6320
  166MOL0     H22362   7.718   8.246   7.368 -0.6801  3.7537 -1.6795
  166MOL0     H22363   7.602   8.306   7.256  3.1639  1.9026 -1.6211
  166MOL0     H22364   7.540   8.094   7.427  0.5019 -0.9184 -1.0292
  166MOL0     H22365   7.607   8.007   7.287  1.0802 -0.3863  1.4713
  166MOL0     H22366   7.414   8.102   7.143  2.3233 -0.8449 -0.1021
  166MOL0     H22367   7.371   8.206   7.279 -0.8079 -0.7225  0.6204
  166MOL0     H22368   7.314   8.000   7.413  0.7962 -0.5244 -0.2180
  166MOL0     H22369   7.364   7.900   7.275  0.7740 -0.0785  0.8012
  166MOL0     H22370   6.981   7.995   7.129 -1.3734 -0.9361 -0.7958
  166MOL0     H22371   6.743   7.911   7.072  0.0341 -0.5782 -0.6239
  166MOL0     H22372   6.812   7.815   6.951 -3.1686 -0.0220 -0.4229
  166MOL0     H22373   6.716   7.735   7.066 -0.4591  0.9262  1.6043
  166MOL0     H22374   6.895   7.276   7.063  0.8383  1.4571 -0.7778
  166MOL0     H22375   6.810   7.084   6.982  0.1420 -1.0050  1.6691
  166MOL0     H22376   6.724   6.907   6.837 -0.0825  0.5311  1.4267
  166MOL0     H22377   6.640   6.901   6.979  2.2962 -0.8002 -0.9603
  166MOL0     H22378   6.567   6.717   6.830  0.5974  1.0996  2.3905
  166MOL0     H22379   6.434   6.827   6.867 -0.7857  0.8324 -0.8447
  166MOL0     H22380   6.611   6.833   6.625  0.6818  0.5484  2.8515
  166MOL0     H22381   6.466   6.942   6.638  0.3958  0.3281  1.1236
  166MOL0     H22382   6.427   6.633   6.642 -0.5322 -0.0283 -0.9045
  166MOL0     H22383   6.321   6.770   6.692 -0.1482  1.7673 -0.6945
  166MOL0     H22384   6.454   6.720   6.422  1.2175  1.4917  0.7452
  166MOL0     H22385   6.332   6.851   6.462 -0.9880 -0.3085 -1.8726
  166MOL0     H22386   6.290   6.557   6.475 -0.8486 -0.5137  0.7357
  166MOL0     H22387   6.163   6.685   6.504  0.6265  2.6475 -0.8504
  166MOL0     H22388   6.278   6.620   6.234  0.4151  1.0115  0.9906
  166MOL0     H22389   6.166   6.761   6.275  0.8652  1.0635  1.2151
  166MOL0     H22390   6.004   6.624   6.326  0.1413  4.8006 -2.8601
  166MOL0     H22391   6.106   6.473   6.294  0.3608  0.6686  0.9493
  166MOL0     H22392   6.438   7.284   6.901  0.6952  0.0368 -1.5072
  166MOL0     H22393   6.515   7.477   7.026 -1.5295 -1.3843  3.1565
  166MOL0     H22394   7.090   7.576   7.351  0.7950  0.0086 -1.9049
  166MOL0     H22395   7.217   7.755   7.396 -1.4138  1.5407  1.6777
  166MOL0     H22396   8.505   7.867   6.367 -0.1533 -1.3429 -1.2564
  166MOL0     H22397   8.722   7.946   6.317  0.5334 -0.9782 -0.4925
  166MOL0     H22398   9.206   7.799   6.418 -1.2964 -0.7105 -1.6334
  166MOL0     H22399   9.446   7.830   6.373 -1.6884 -2.5210 -1.4277
  166MOL0     H22400   9.565   8.099   6.041  0.5125 -0.2133 -0.7508
  166MOL0     H22401   9.576   8.221   6.179 -0.3500 -0.7212  1.7360
  166MOL0     H22402   9.800   8.140   6.062  0.8457  0.0520 -0.0947
  166MOL0     H22403   9.769   7.992   6.142 -1.0828 -0.4600 -2.1158
  166MOL0     H22404   9.789   8.107   6.358 -1.2645  0.4329  0.4289
  166MOL0     H22405   9.778   8.271   6.291  1.3543  0.9221 -3.1003
  166MOL0     H22406  10.015   8.090   6.227 -0.6498 -0.1074  0.0053
  166MOL0     H22407  10.013   8.217   6.354 -1.4581  1.5436 -0.9934
  166MOL0     H22408  10.030   8.479   6.043  3.3794  0.1602 -0.0993
  166MOL0     H22409   9.364   8.189   6.141  2.0427  0.7898  1.6084
  166MOL0     H22410   9.119   8.144   6.186 -1.9403 -3.7673 -1.6045
  167MOL0     O22411   0.046   8.315   1.121 -0.4566 -0.3687 -0.6705
  167MOL0     C22412   0.071   8.380   1.021  0.6681 -0.6091  0.4808
  167MOL0     O22413  -0.015   8.439   0.945 -0.1328  0.3365  0.2357
  167MOL0     C22414  -0.143   8.400   0.950  1.0844 -0.1153 -0.0367
  167MOL0     C22415  -0.188   8.273   0.930 -0.0521  0.3389  0.2224
  167MOL0     C22416  -0.319   8.242   0.918  0.0400  0.3269  0.6124
  167MOL0     C22417  -0.421   8.334   0.940  0.1530 -0.0722  0.8989
  167MOL0     O22418  -0.548   8.303   0.911 -0.3807 -0.6140  0.7401
  167MOL0     C22419  -0.581   8.166   0.872 -0.4993  0.5211  0.5691
  167MOL0     C22420  -0.734   8.171   0.883 -0.1056  0.5359 -0.3464
  167MOL0     C22421  -0.794   8.035   0.858  0.3591  0.7361 -0.0707
  167MOL0     C22422  -0.943   8.044   0.812 -0.1686 -0.6485 -1.3290
  167MOL0     C22423  -1.029   8.104   0.929  0.4769 -0.0715  0.2229
  167MOL0     C22424  -1.182   8.065   0.933  0.1721 -0.5725 -0.3934
  167MOL0     C22425  -1.264   8.147   1.041 -0.3462  0.2037  0.9866
  167MOL0     C22426  -1.409   8.100   1.036 -0.2164  0.5566 -0.5389
  167MOL0     N22427  -1.496   8.169   1.126  1.3328  0.2353  0.4980
  167MOL0     C22428  -1.557   8.106   1.233 -0.2755  0.8274 -0.1473
  167MOL0     C22429  -1.652   8.190   1.279 -0.8163  0.5786 -0.0891
  167MOL0     C22430  -1.752   8.173   1.390  0.3543  0.8174 -0.6439
  167MOL0     C22431  -1.888   8.111   1.343  0.3347  0.0179  0.6693
  167MOL0     C22432  -1.965   8.229   1.271 -0.4118 -0.1315  0.1865
  167MOL0     C22433  -2.118   8.202   1.280  0.0211 -0.2983 -1.1084
  167MOL0     O22434  -2.141   8.056   1.273  0.0577  0.3997  0.5901
  167MOL0     C22435  -2.261   8.008   1.305  0.2205  0.3827 -0.5656
  167MOL0     C22436  -2.252   7.903   1.400  0.2920 -0.0638 -0.0613
  167MOL0     C22437  -2.368   7.845   1.456 -0.0361  0.7901  0.2729
  167MOL0     C22438  -2.355   7.730   1.553 -0.2940 -0.2648 -0.1399
  167MOL0     C22439  -2.495   7.895   1.419  0.7001 -0.1262 -0.1203
  167MOL0     C22440  -2.626   7.840   1.470 -0.2654 -0.5457  0.0470
  167MOL0     O22441  -2.728   7.841   1.392  0.0053  0.3246  0.1018
  167MOL0     C22442  -2.846   7.835   1.449 -0.3912 -0.4196 -0.9370
  167MOL0     C22443  -2.906   7.708   1.464  0.1699 -0.5756 -0.6418
  167MOL0     C22444  -3.028   7.708   1.514  0.2311 -1.2899 -0.1837
  167MOL0     C22445  -3.093   7.828   1.544 -0.0482  0.0335  0.1598
  167MOL0     O22446  -3.218   7.837   1.606  0.2990 -0.0704 -0.3530
  167MOL0     C22447  -3.318   7.763   1.541 -0.2889  0.1197 -1.1588
  167MOL0     C22448  -3.444   7.847   1.537  0.2529  0.2502  0.9774
  167MOL0     C22449  -3.540   7.770   1.440  0.7144 -0.3273 -0.3900
  167MOL0     C22450  -3.672   7.842   1.454 -0.9904  0.8275  0.0002
  167MOL0     C22451  -3.767   7.779   1.354 -0.6198 -0.3247 -0.8868
  167MOL0     C22452  -3.903   7.841   1.344 -0.1115 -0.4658 -0.5507
  167MOL0     C22453  -3.976   7.805   1.217 -0.4336  0.4620  0.5356
  167MOL0     C22454  -4.118   7.853   1.228  0.8014  0.0594  0.4717
  167MOL0    Cl22455  -4.240   7.732   1.251  0.0113 -0.2805  0.1215
  167MOL0     C22456  -3.032   7.952   1.525 -0.0221  0.2272 -0.3191
  167MOL0     C22457  -2.901   7.960   1.479 -0.4890  0.1988  0.0464
  167MOL0     O22458  -2.634   7.807   1.589 -0.1196 -0.0483  0.0404
  167MOL0     C22459  -2.503   7.992   1.316  0.1344 -0.1819  0.2299
  167MOL0     C22460  -2.388   8.055   1.258 -0.1173  0.5849 -0.2348
  167MOL0     N22461  -1.638   8.308   1.210  0.2775  0.5792 -0.4334
  167MOL0     N22462  -1.547   8.293   1.121 -0.0496  0.2210  0.4467
  167MOL0     C22463  -0.381   8.473   0.962 -0.1608  0.6137 -1.0884
  167MOL0     C22464  -0.243   8.504   0.966  0.1192 -0.0838  0.0277
  167MOL0     C22465   0.219   8.408   0.991 -0.3424 -0.3302 -0.4904
  167MOL0     C22466   0.260   8.487   0.888 -0.1287  0.4585  1.1718
  167MOL0     C22467   0.389   8.501   0.847  0.2894 -0.3509  0.3465
  167MOL0     C22468   0.493   8.456   0.924  0.7227  0.4293  0.6595
  167MOL0     O22469   0.609   8.503   0.884  0.2322  0.3595 -0.7144
  167MOL0     C22470   0.729   8.473   0.966 -0.0712 -0.4956  0.7892
  167MOL0     C22471   0.846   8.544   0.898  0.7758 -0.2447  0.4129
  167MOL0     C22472   0.822   8.693   0.875  0.1267 -0.0096  0.1710
  167MOL0     C22473   0.910   8.752   0.763 -0.3714 -0.4468  0.2537
  167MOL0     C22474   1.057   8.722   0.776 -0.0562 -0.2035 -0.8072
  167MOL0     C22475   1.173   8.687   0.786 -0.2846 -0.0989  0.2900
  167MOL0     C22476   0.464   8.382   1.040 -0.4747  0.3121 -0.7643
  167MOL0     C22477   0.331   8.352   1.072  0.1691 -1.5097  0.7184
  167MOL0     H22478  -0.114   8.194   0.932 -2.1285 -1.7072  0.3906
  167MOL0     H22479  -0.348   8.140   0.896  1.1045  0.3875 -1.2704
  167MOL0     H22480  -0.541   8.135   0.775  0.8912 -0.0758  1.3110
  167MOL0     H22481  -0.541   8.091   0.940 -1.4323 -0.0719  0.4802
  167MOL0     H22482  -0.746   8.180   0.991  3.5788 -0.3751  0.2552
  167MOL0     H22483  -0.780   8.250   0.823 -1.6129 -0.5643 -0.7045
  167MOL0     H22484  -0.736   7.977   0.786 -0.8272 -1.7466  0.8459
  167MOL0     H22485  -0.801   7.968   0.944  3.2223 -0.9149 -1.0025
  167MOL0     H22486  -0.950   8.091   0.713  1.7207  1.4767 -0.5410
  167MOL0     H22487  -0.966   7.939   0.791 -1.3403 -0.4656 -1.0212
  167MOL0     H22488  -0.992   8.090   1.031 -0.9818 -0.3324  0.7338
  167MOL0     H22489  -1.016   8.211   0.908  0.7209 -0.5292 -2.2449
  167MOL0     H22490  -1.228   8.082   0.835  0.1810  1.2243 -0.1226
  167MOL0     H22491  -1.190   7.961   0.965  0.7321  0.1209  2.1741
  167MOL0     H22492  -1.216   8.151   1.139  0.2854 -0.8412  0.7440
  167MOL0     H22493  -1.274   8.252   1.014 -0.7294 -0.0762 -0.0158
  167MOL0     H22494  -1.410   7.993   1.056  2.0749  0.4984 -0.3981
  167MOL0     H22495  -1.449   8.119   0.936 -1.7608  0.5053  0.0391
  167MOL0     H22496  -1.537   8.005   1.265  0.1085  1.0971  0.4770
  167MOL0     H22497  -1.698   8.109   1.460  0.4666  1.5363 -0.0468
  167MOL0     H22498  -1.765   8.255   1.462 -1.6574 -0.1477  0.1597
  167MOL0     H22499  -1.946   8.065   1.423 -0.8691  0.3297  0.0041
  167MOL0     H22500  -1.879   8.027   1.273 -4.4128  0.0649 -0.3327
  167MOL0     H22501  -1.934   8.223   1.166 -1.6784  0.2477 -0.2295
  167MOL0     H22502  -1.947   8.323   1.322 -3.2266  0.9442 -0.6384
  167MOL0     H22503  -2.178   8.249   1.201 -0.4374  0.9321 -0.0734
  167MOL0     H22504  -2.155   8.234   1.378 -2.1593  1.3713 -2.3797
  167MOL0     H22505  -2.154   7.863   1.423  2.2906  2.7758 -2.8651
  167MOL0     H22506  -2.415   7.646   1.516  3.2369 -3.4381  0.7871
  167MOL0     H22507  -2.250   7.703   1.562 -0.5828 -1.5643 -0.5240
  167MOL0     H22508  -2.394   7.753   1.653 -2.9322  2.3006 -1.6050
  167MOL0     H22509  -2.864   7.613   1.432  0.4814 -0.5672 -0.2593
  167MOL0     H22510  -3.089   7.618   1.526 -2.8183  0.7123  0.5771
  167MOL0     H22511  -3.286   7.732   1.441  2.3013  0.0846 -0.3842
  167MOL0     H22512  -3.330   7.670   1.596  0.6590  1.4978  1.5348
  167MOL0     H22513  -3.491   7.858   1.635 -0.2486  0.4146  0.7227
  167MOL0     H22514  -3.426   7.952   1.512 -1.8921  0.3601 -0.3800
  167MOL0     H22515  -3.548   7.666   1.471  2.1044 -0.5038 -0.5356
  167MOL0     H22516  -3.507   7.777   1.336  1.8633 -0.2670 -0.0434
  167MOL0     H22517  -3.708   7.827   1.556 -1.9348  3.6472  0.1830
  167MOL0     H22518  -3.661   7.951   1.447  0.5947  0.6056 -2.0188
  167MOL0     H22519  -3.779   7.674   1.382  1.5062 -0.8164 -1.6210
  167MOL0     H22520  -3.722   7.773   1.254  2.1155 -0.4508  0.2758
  167MOL0     H22521  -3.962   7.811   1.431  1.2062  2.3371  1.4734
  167MOL0     H22522  -3.893   7.950   1.345  0.8306 -0.5206 -1.7078
  167MOL0     H22523  -3.968   7.697   1.204  1.9618  0.5498  0.7520
  167MOL0     H22524  -3.934   7.861   1.133  1.0153 -0.6229  0.4933
  167MOL0     H22525  -4.141   7.905   1.135  0.8050  3.5032  2.2238
  167MOL0     H22526  -4.137   7.931   1.302 -2.6813  0.5600 -0.7725
  167MOL0     H22527  -3.092   8.041   1.540  2.1608  2.0147 -1.5416
  167MOL0     H22528  -2.858   8.058   1.460  0.6095 -0.3107 -0.2086
  167MOL0     H22529  -2.598   8.032   1.283 -1.0471 -2.4744  0.6108
  167MOL0     H22530  -2.404   8.118   1.171  0.3592 -1.3252 -1.7706
  167MOL0     H22531  -0.453   8.554   0.970 -0.7779  0.2223 -2.4148
  167MOL0     H22532  -0.217   8.609   0.980  1.4438 -0.4146  0.1569
  167MOL0     H22533   0.190   8.541   0.825 -1.3971 -1.7507  0.5561
  167MOL0     H22534   0.410   8.572   0.767  0.0322 -0.1315  0.4720
  167MOL0     H22535   0.721   8.511   1.068 -0.9642 -0.7734  0.8321
  167MOL0     H22536   0.731   8.365   0.982  1.6583 -0.4995  0.7379
  167MOL0     H22537   0.869   8.505   0.799  2.9729 -2.0701  1.5247
  167MOL0     H22538   0.941   8.527   0.951  1.7492 -0.7403 -1.4227
  167MOL0     H22539   0.840   8.744   0.970  0.5565 -0.9076  0.5822
  167MOL0     H22540   0.719   8.705   0.840  0.0880  0.1337  0.3311
  167MOL0     H22541   0.896   8.861   0.765  2.4165 -0.0282  0.8532
  167MOL0     H22542   0.884   8.710   0.665 -0.2657  1.2806 -0.5478
  167MOL0     H22543   1.271   8.643   0.782 -0.0393  0.2422  1.9691
  167MOL0     H22544   0.539   8.333   1.102 -1.7052 -2.0493 -1.0269
  167MOL0     H22545   0.306   8.295   1.161 -3.3559  0.4691  1.1926
  168MOL0     O22546   4.065   3.314   8.378  0.9545  0.8150  0.7555
  168MOL0     C22547   4.024   3.337   8.266  0.3755 -0.5936  1.3183
  168MOL0     O22548   3.925   3.275   8.198  0.7659  0.1034 -0.3133
  168MOL0     C22549   3.831   3.196   8.264  0.0241 -0.1123  0.0489
  168MOL0     C22550   3.747   3.232   8.371 -0.4696 -0.0728  0.1099
  168MOL0     C22551   3.650   3.140   8.422 -0.5603  0.9615 -0.1748
  168MOL0     C22552   3.638   3.009   8.354  0.5992 -0.7948 -0.1229
  168MOL0     O22553   3.543   2.918   8.407  0.2918 -0.0446 -0.0463
  168MOL0     C22554   3.417   2.955   8.368 -0.1904  0.6490 -0.0641
  168MOL0     C22555   3.325   2.900   8.475 -0.2836 -0.1579  0.9266
  168MOL0     C22556   3.324   2.977   8.610  0.4863 -0.2894  0.7905
  168MOL0     C22557   3.397   2.910   8.721 -0.4352  0.4252 -0.4468
  168MOL0     C22558   3.419   3.016   8.830 -0.2791  0.3821  0.0255
  168MOL0     C22559   3.287   3.076   8.883  0.7536  0.5965  0.3851
  168MOL0     C22560   3.290   3.181   8.999 -0.7621 -0.2028 -0.2384
  168MOL0     C22561   3.153   3.251   9.023  0.0586 -0.0336  0.6222
  168MOL0     N22562   3.046   3.152   9.061  0.2552 -0.1455  0.0813
  168MOL0     C22563   3.036   3.098   9.188  0.2743  0.0932 -0.3963
  168MOL0     C22564   2.925   3.014   9.168 -0.6215 -0.5277 -0.5978
  168MOL0     C22565   2.867   2.944   9.287  0.0868 -0.5752 -0.7158
  168MOL0     C22566   2.917   2.803   9.299 -0.1626 -0.4865  0.0071
  168MOL0     C22567   2.897   2.723   9.170  0.3364 -0.2845 -0.0120
  168MOL0     C22568   2.748   2.696   9.127 -0.3453  0.2633  1.2306
  168MOL0     O22569   2.691   2.607   9.220  0.1635  0.6318  0.0798
  168MOL0     C22570   2.563   2.543   9.203 -0.6295 -0.2516 -0.1125
  168MOL0     C22571   2.515   2.484   9.087  0.2753  1.2279 -0.7100
  168MOL0     C22572   2.384   2.436   9.075 -0.1764  0.5957  0.4041
  168MOL0     C22573   2.342   2.367   8.945  0.7916 -1.0662  0.6695
  168MOL0     C22574   2.293   2.464   9.183 -0.2910 -0.1410  0.2332
  168MOL0     C22575   2.154   2.433   9.181 -0.6403 -0.1686  0.3976
  168MOL0     O22576   2.083   2.447   9.066 -0.8957 -0.6415 -0.1635
  168MOL0     C22577   1.955   2.399   9.038 -0.6760 -0.6803 -0.6390
  168MOL0     C22578   1.926   2.352   8.915 -0.6271  0.6460  0.2000
  168MOL0     C22579   1.808   2.285   8.891 -0.1084 -0.3842  0.8624
  168MOL0     C22580   1.704   2.278   8.980 -0.7059  0.5259 -0.4175
  168MOL0     O22581   1.594   2.212   8.946 -0.6958  1.1437  0.0178
  168MOL0     C22582   1.501   2.169   9.048  0.2596 -0.8686  0.0099
  168MOL0     C22583   1.448   2.035   9.000 -0.0591  0.1157 -0.1026
  168MOL0     C22584   1.380   1.949   9.105  0.0529 -0.7388 -0.9274
  168MOL0     C22585   1.266   2.020   9.179  0.1564  0.0429  0.7962
  168MOL0     C22586   1.218   1.934   9.297 -0.3243 -0.0531  0.4398
  168MOL0     C22587   1.077   1.974   9.334 -0.3618 -1.3779  0.6660
  168MOL0     C22588   1.004   1.901   9.443  0.7181  0.0694  0.2958
  168MOL0     C22589   1.075   1.928   9.578  0.2402 -0.5190  0.0918
  168MOL0    Cl22590   1.098   2.101   9.615 -0.0553  0.4123 -0.0832
  168MOL0     C22591   1.727   2.342   9.108  0.5531  0.7297 -0.1583
  168MOL0     C22592   1.849   2.406   9.129  0.2516 -0.0118  0.5480
  168MOL0     O22593   2.107   2.393   9.287  0.1712  0.0888 -0.0751
  168MOL0     C22594   2.343   2.517   9.308  0.0634 -0.1387 -0.5525
  168MOL0     C22595   2.479   2.551   9.310  0.0040  0.5084  0.4843
  168MOL0     N22596   2.875   3.031   9.043  0.8735  1.5678  0.2773
  168MOL0     N22597   2.944   3.116   8.985  0.4759 -0.4328  0.0153
  168MOL0     C22598   3.718   2.975   8.243 -0.4522 -0.1746  0.2738
  168MOL0     C22599   3.816   3.067   8.204 -0.0871  0.1710  1.5181
  168MOL0     C22600   4.095   3.442   8.202  0.5709 -0.1472  1.0072
  168MOL0     C22601   4.237   3.459   8.224  0.2057 -0.1149 -0.4178
  168MOL0     C22602   4.322   3.539   8.145  1.0598 -0.1803  0.6880
  168MOL0     C22603   4.267   3.604   8.031 -0.6229  0.0394  0.2232
  168MOL0     O22604   4.338   3.690   7.951  0.3729  0.6564 -0.1481
  168MOL0     C22605   4.471   3.743   7.985  0.6229 -0.4466 -0.0625
  168MOL0     C22606   4.450   3.863   8.074  0.4044 -0.3220  0.0600
  168MOL0     C22607   4.371   3.987   8.024 -0.0377  0.2102  0.2156
  168MOL0     C22608   4.402   4.111   8.111  0.2724  0.1969  0.0644
  168MOL0     C22609   4.545   4.145   8.125  0.4414 -0.5439 -1.0587
  168MOL0     C22610   4.659   4.177   8.136 -0.5857  0.8279  0.3807
  168MOL0     C22611   4.127   3.582   8.008 -0.0992  0.0432  0.5680
  168MOL0     C22612   4.040   3.510   8.093  0.5917  0.1505  0.2506
  168MOL0     H22613   3.760   3.329   8.416 -0.6880  0.0985 -0.1898
  168MOL0     H22614   3.597   3.156   8.515  1.2398  1.6181  0.7844
  168MOL0     H22615   3.412   3.063   8.355 -0.4608  1.1403  3.2196
  168MOL0     H22616   3.393   2.897   8.278  0.2559 -0.8889  0.7611
  168MOL0     H22617   3.226   2.901   8.430 -0.0137 -1.4745  0.2502
  168MOL0     H22618   3.348   2.794   8.492  3.2820  0.1476 -0.9454
  168MOL0     H22619   3.356   3.081   8.598  1.1613 -0.6908 -1.4059
  168MOL0     H22620   3.219   2.980   8.641 -1.7910  1.8267 -5.4378
  168MOL0     H22621   3.343   2.825   8.763 -0.0845  1.5070  2.4740
  168MOL0     H22622   3.488   2.878   8.669 -0.5219 -0.7635  0.0884
  168MOL0     H22623   3.457   2.961   8.917 -3.8997 -0.7955  1.0458
  168MOL0     H22624   3.469   3.107   8.795 -1.7883  0.7774 -1.1708
  168MOL0     H22625   3.252   3.134   8.797 -0.1258  0.2677  0.5211
  168MOL0     H22626   3.204   3.012   8.914 -0.6275  3.1100  2.2973
  168MOL0     H22627   3.321   3.123   9.087  2.7360 -1.4560 -2.1236
  168MOL0     H22628   3.359   3.265   8.993 -0.1571 -0.7200 -0.6438
  168MOL0     H22629   3.118   3.307   8.936  0.1428 -2.0973 -0.8156
  168MOL0     H22630   3.176   3.320   9.104 -0.5779  2.0160 -0.8669
  168MOL0     H22631   3.088   3.121   9.281 -0.8927  0.5799  0.1626
  168MOL0     H22632   2.898   2.997   9.377  0.0074 -0.9750 -0.4491
  168MOL0     H22633   2.759   2.954   9.273  0.1838  0.6830 -0.6995
  168MOL0     H22634   2.853   2.762   9.378 -3.1423  3.3380 -0.1609
  168MOL0     H22635   3.024   2.800   9.322  1.0010  1.0600 -4.1826
  168MOL0     H22636   2.944   2.627   9.190  4.5848  1.9034  1.7227
  168MOL0     H22637   2.952   2.764   9.086 -0.2660 -1.1789 -0.8643
  168MOL0     H22638   2.750   2.648   9.028 -1.0988  1.3640  0.6587
  168MOL0     H22639   2.689   2.788   9.116 -0.3602  0.2895  1.5170
  168MOL0     H22640   2.588   2.445   9.017 -0.8716 -0.7896 -0.8666
  168MOL0     H22641   2.302   2.444   8.879  1.6783 -0.8505  0.3638
  168MOL0     H22642   2.427   2.310   8.905  0.2894 -0.2353 -1.7640
  168MOL0     H22643   2.267   2.293   8.976 -0.5464 -1.0117 -2.1789
  168MOL0     H22644   2.003   2.354   8.839 -1.3898 -2.7687 -0.8439
  168MOL0     H22645   1.800   2.246   8.790  1.1507  0.3107  0.4707
  168MOL0     H22646   1.545   2.145   9.145 -1.4047 -0.5905  0.8765
  168MOL0     H22647   1.420   2.240   9.066  2.2790  1.1216  1.9823
  168MOL0     H22648   1.387   2.050   8.910  0.5441  0.1905 -0.5051
  168MOL0     H22649   1.534   1.975   8.968 -0.3014 -1.2278  1.6538
  168MOL0     H22650   1.460   1.926   9.176 -1.2811  1.2363  1.3730
  168MOL0     H22651   1.348   1.861   9.049 -1.7742 -0.9640  0.3649
  168MOL0     H22652   1.305   2.117   9.210  1.4067 -0.2427  0.1947
  168MOL0     H22653   1.175   2.037   9.120 -0.5489  2.7453  2.5121
  168MOL0     H22654   1.288   1.942   9.381 -1.2454  0.2832  1.1883
  168MOL0     H22655   1.223   1.828   9.273  3.3705  0.4763 -1.9305
  168MOL0     H22656   1.095   2.080   9.352  0.3351 -1.0337 -1.6224
  168MOL0     H22657   1.017   1.974   9.242  1.2378 -0.1130 -0.4451
  168MOL0     H22658   0.995   1.793   9.430 -1.9663  0.4633 -2.0880
  168MOL0     H22659   0.901   1.939   9.450 -0.2634 -1.9657 -1.9797
  168MOL0     H22660   1.172   1.879   9.581  1.8373  2.2941 -1.3563
  168MOL0     H22661   1.016   1.884   9.659  1.0083 -0.1541  0.8595
  168MOL0     H22662   1.643   2.343   9.176  0.1008  1.9279 -0.7074
  168MOL0     H22663   1.866   2.443   9.230  0.6138  0.3137  0.3721
  168MOL0     H22664   2.294   2.536   9.403 -2.2213  1.5935 -1.9353
  168MOL0     H22665   2.531   2.588   9.398  3.8802 -0.3130 -1.2552
  168MOL0     H22666   3.710   2.882   8.189 -2.2884  0.5179 -0.7362
  168MOL0     H22667   3.878   3.050   8.117  1.0724  3.8995  1.4223
  168MOL0     H22668   4.296   3.405   8.297  0.4025  1.1009  0.3399
  168MOL0     H22669   4.424   3.555   8.178  1.3247  0.2292 -0.2830
  168MOL0     H22670   4.529   3.667   8.039  0.9820  0.5803  1.0278
  168MOL0     H22671   4.521   3.781   7.895 -0.3589  2.0029  0.3646
  168MOL0     H22672   4.553   3.897   8.083  0.2995  0.1200 -0.3940
  168MOL0     H22673   4.414   3.832   8.173  1.8282 -5.2710 -0.7142
  168MOL0     H22674   4.264   3.965   8.033  0.0727  0.6070  3.4894
  168MOL0     H22675   4.399   3.995   7.918  1.1547 -1.2666  0.3749
  168MOL0     H22676   4.352   4.093   8.207  1.6725  0.1774  0.8225
  168MOL0     H22677   4.357   4.194   8.056  1.9115 -0.3711 -2.3233
  168MOL0     H22678   4.763   4.197   8.146 -0.9182  1.5812  2.8349
  168MOL0     H22679   4.092   3.639   7.923  1.8414  0.2974 -0.1006
  168MOL0     H22680   3.934   3.510   8.075  0.1106  1.9104  2.5259
  169MOL0     O22681  10.240  10.796   3.761  0.8991  0.3595  0.8005
  169MOL0     C22682  10.205  10.869   3.665  0.3677  0.3306 -0.7575
  169MOL0     O22683  10.289  10.955   3.600 -0.0344  0.1860  0.1854
  169MOL0     C22684  10.424  10.970   3.636  1.4112  0.3882  0.4153
  169MOL0     C22685  10.474  11.016   3.755 -0.3879 -0.4162 -0.4107
  169MOL0     C22686  10.608  11.023   3.781 -0.2594  0.1880 -0.1382
  169MOL0     C22687  10.705  10.978   3.691 -0.6229 -0.1889  1.1325
  169MOL0     O22688  10.834  10.966   3.729  0.1151  0.6118 -0.0369
  169MOL0     C22689  10.939  10.924   3.643 -0.1720 -0.4834 -0.6628
  169MOL0     C22690  11.080  10.945   3.695  0.5534  0.3995  0.2166
  169MOL0     C22691  11.188  10.905   3.598  0.0063  0.2972  0.7726
  169MOL0     C22692  11.330  10.932   3.656  0.6577  0.4915  0.3623
  169MOL0     C22693  11.401  11.054   3.593 -1.2061  0.8052  0.6567
  169MOL0     C22694  11.452  11.014   3.456  0.1993 -0.7660  0.1610
  169MOL0     C22695  11.546  11.116   3.392 -0.0178  0.3494  0.2284
  169MOL0     C22696  11.677  11.058   3.389  0.1776  0.0830  0.2108
  169MOL0     N22697  11.778  11.137   3.305  1.0027  0.0495 -0.5067
  169MOL0     C22698  11.895  11.080   3.270 -1.2061  0.2106 -0.5413
  169MOL0     C22699  11.973  11.187   3.232  0.3327 -0.4040  0.2423
  169MOL0     C22700  12.113  11.197   3.180 -1.1289 -0.3539 -0.9341
  169MOL0     C22701  12.186  11.317   3.248  0.2461 -0.2341  0.5333
  169MOL0     C22702  12.333  11.320   3.198 -0.0716 -0.1725 -0.0843
  169MOL0     C22703  12.395  11.460   3.201  0.7680 -0.2024  1.0219
  169MOL0     O22704  12.531  11.460   3.156 -0.3817  0.1423  0.2584
  169MOL0     C22705  12.606  11.571   3.140  0.3906  0.5207  0.3900
  169MOL0     C22706  12.556  11.704   3.151  0.9069  0.6602 -0.3958
  169MOL0     C22707  12.619  11.816   3.119 -0.8410 -0.2775 -0.1169
  169MOL0     C22708  12.538  11.942   3.136 -0.2601  0.8891  0.1729
  169MOL0     C22709  12.762  11.799   3.085  0.2081  0.6147  0.4117
  169MOL0     C22710  12.851  11.917   3.054  0.3113  0.1940 -0.6229
  169MOL0     O22711  12.960  11.892   2.972 -0.2023  0.4091  0.1803
  169MOL0     C22712  13.042  12.003   2.969 -0.3024 -0.0900  1.1283
  169MOL0     C22713  13.127  12.030   3.070  0.5815 -0.2419  0.1702
  169MOL0     C22714  13.214  12.146   3.067 -0.5809 -0.0454  0.0343
  169MOL0     C22715  13.225  12.224   2.944  0.0337 -0.0091  0.6488
  169MOL0     O22716  13.319  12.323   2.919 -0.8554 -0.8754  0.2398
  169MOL0     C22717  13.377  12.398   3.021 -0.6438 -0.6092 -0.2711
  169MOL0     C22718  13.483  12.493   2.967  0.2187 -0.6525 -0.4026
  169MOL0     C22719  13.614  12.428   2.926 -0.3702  0.3681  0.1095
  169MOL0     C22720  13.629  12.377   2.777 -0.1738  0.6125  0.9465
  169MOL0     C22721  13.772  12.350   2.743  0.8562  0.1716 -0.6047
  169MOL0     C22722  13.791  12.298   2.598  0.1363 -0.6105  0.0065
  169MOL0     C22723  13.941  12.268   2.569  0.0898  0.4215 -1.0206
  169MOL0     C22724  13.955  12.192   2.441 -0.1620 -0.1113  0.3036
  169MOL0    Cl22725  14.127  12.197   2.406 -0.1031  0.1469 -0.0975
  169MOL0     C22726  13.149  12.183   2.830  0.3194 -0.2465  0.3337
  169MOL0     C22727  13.056  12.074   2.844 -0.2723  0.3687  1.1081
  169MOL0     O22728  12.817  12.024   3.100 -0.5658 -0.3768 -0.4487
  169MOL0     C22729  12.810  11.662   3.075 -0.0467  0.0826  0.3298
  169MOL0     C22730  12.740  11.551   3.098  0.8085 -0.4615  0.8906
  169MOL0     N22731  11.892  11.299   3.239  0.1363 -0.1082 -0.0334
  169MOL0     N22732  11.779  11.263   3.283  1.0265 -0.2914  0.5851
  169MOL0     C22733  10.662  10.929   3.568 -1.1651  0.6925 -0.8101
  169MOL0     C22734  10.519  10.916   3.543  0.3110 -1.0939  0.2362
  169MOL0     C22735  10.062  10.895   3.637  0.2410  0.6293  0.0592
  169MOL0     C22736  10.012  10.929   3.504 -0.2699  0.0893  0.3928
  169MOL0     C22737   9.872  10.931   3.484  0.4978 -0.2864  0.1286
  169MOL0     C22738   9.783  10.917   3.594  0.3267 -0.8438  0.4856
  169MOL0     O22739   9.644  10.926   3.560 -0.2154 -0.1547 -0.2225
  169MOL0     C22740   9.559  10.980   3.667 -0.7287  0.3191 -0.3449
  169MOL0     C22741   9.413  10.966   3.628 -0.0142  0.6161  0.0716
  169MOL0     C22742   9.374  11.087   3.546  0.1282 -0.6423 -0.5325
  169MOL0     C22743   9.226  11.085   3.500 -0.0288  0.4800 -0.8710
  169MOL0     C22744   9.120  11.100   3.603  0.0200  0.3719  0.1102
  169MOL0     C22745   9.038  11.121   3.698  1.4036 -0.8399  0.1164
  169MOL0     C22746   9.836  10.900   3.723 -0.0970  0.1255 -0.2371
  169MOL0     C22747   9.973  10.891   3.745  0.9910  0.1528  0.1456
  169MOL0     H22748  10.395  11.041   3.826 -1.1654 -3.6871  0.0413
  169MOL0     H22749  10.632  11.072   3.875 -1.4079  1.5446 -0.5105
  169MOL0     H22750  10.918  10.818   3.622 -3.5928 -0.4795  1.9470
  169MOL0     H22751  10.932  10.972   3.545 -0.6464 -2.5142 -1.6777
  169MOL0     H22752  11.087  11.047   3.733 -0.0473  1.1349 -1.5334
  169MOL0     H22753  11.083  10.874   3.778 -0.1687  0.4102  0.2599
  169MOL0     H22754  11.181  10.798   3.577 -3.4994  0.7251 -0.9258
  169MOL0     H22755  11.181  10.958   3.502  2.0138 -1.8925 -0.7279
  169MOL0     H22756  11.332  10.947   3.764 -1.7297  1.5496  0.3092
  169MOL0     H22757  11.390  10.841   3.647  0.2339  0.0483  1.8149
  169MOL0     H22758  11.340  11.144   3.581 -1.2592  0.8359  1.1430
  169MOL0     H22759  11.488  11.083   3.653 -0.8588  1.6510 -0.2403
  169MOL0     H22760  11.504  10.918   3.453 -1.4805 -1.7320  0.6874
  169MOL0     H22761  11.364  11.003   3.393  1.5415  0.3783 -2.0348
  169MOL0     H22762  11.512  11.151   3.294 -0.2292  3.4112  1.2840
  169MOL0     H22763  11.546  11.213   3.443 -1.2286  1.4041 -1.6407
  169MOL0     H22764  11.669  10.953   3.357 -0.7932  0.6573 -1.5722
  169MOL0     H22765  11.719  11.058   3.490  1.3494  0.8103 -0.2602
  169MOL0     H22766  11.927  10.978   3.286  0.1464  0.6756 -0.1431
  169MOL0     H22767  12.169  11.106   3.200  0.6240  0.7148 -0.7999
  169MOL0     H22768  12.107  11.214   3.072 -1.5492 -0.1526 -0.8825
  169MOL0     H22769  12.182  11.311   3.357  1.3778 -0.4700  0.5751
  169MOL0     H22770  12.141  11.409   3.210 -1.5815 -1.2258  0.2080
  169MOL0     H22771  12.338  11.294   3.092 -1.3245  2.6944 -0.9636
  169MOL0     H22772  12.378  11.241   3.257 -0.7336 -0.8078 -0.4185
  169MOL0     H22773  12.392  11.486   3.307  2.7072  1.2062  0.7822
  169MOL0     H22774  12.330  11.534   3.153  0.2299 -1.5338 -0.3672
  169MOL0     H22775  12.454  11.706   3.188  0.9860 -1.2548  0.0510
  169MOL0     H22776  12.554  12.016   3.057  3.8981  1.9383  1.7361
  169MOL0     H22777  12.433  11.921   3.155 -1.0839  3.0547 -1.5626
  169MOL0     H22778  12.573  12.001   3.221  0.8241 -1.0211  1.1316
  169MOL0     H22779  13.119  11.965   3.157 -0.0707  1.1908  1.2214
  169MOL0     H22780  13.271  12.178   3.153 -2.5770 -2.2538  2.3160
  169MOL0     H22781  13.298  12.447   3.079 -0.8194 -0.3629 -0.7127
  169MOL0     H22782  13.420  12.321   3.087 -1.4674  0.1230  1.1677
  169MOL0     H22783  13.434  12.550   2.888  2.4847 -1.4849 -2.5691
  169MOL0     H22784  13.514  12.562   3.045 -4.0356  0.9319  0.1190
  169MOL0     H22785  13.632  12.337   2.984  1.4657 -0.3162 -1.4343
  169MOL0     H22786  13.701  12.492   2.943 -0.6480  0.0886  3.0836
  169MOL0     H22787  13.564  12.290   2.765  1.0703 -0.2621  0.2167
  169MOL0     H22788  13.590  12.454   2.710 -2.5848  0.5885  2.2361
  169MOL0     H22789  13.819  12.295   2.825 -0.4910  2.1089  1.5858
  169MOL0     H22790  13.823  12.447   2.746  1.1299  0.0385 -0.8043
  169MOL0     H22791  13.735  12.205   2.583  0.1202 -0.7723  0.9735
  169MOL0     H22792  13.756  12.362   2.517 -0.7254 -1.1942 -0.0976
  169MOL0     H22793  13.980  12.196   2.641 -0.4869  0.8752 -0.2407
  169MOL0     H22794  14.004  12.357   2.576  2.9522 -1.6159  2.3963
  169MOL0     H22795  13.896  12.244   2.364 -0.6465 -0.3284  0.5271
  169MOL0     H22796  13.924  12.088   2.445 -0.4759 -0.0495 -0.3342
  169MOL0     H22797  13.165  12.240   2.739 -4.4777  0.7396 -0.1642
  169MOL0     H22798  12.999  12.043   2.757 -1.2222  1.0287  1.4867
  169MOL0     H22799  12.918  11.657   3.061  0.1569  0.4803  1.5611
  169MOL0     H22800  12.793  11.457   3.087 -1.6905 -1.8317 -0.3646
  169MOL0     H22801  10.729  10.881   3.497  1.7980  1.3683  1.3597
  169MOL0     H22802  10.473  10.879   3.453 -0.5896 -2.3025  1.1621
  169MOL0     H22803  10.071  10.917   3.414 -1.4965 -1.4943 -0.2479
  169MOL0     H22804   9.836  10.964   3.388  1.0507  2.6535  0.8172
  169MOL0     H22805   9.576  10.925   3.760  0.1696  0.9493 -0.1199
  169MOL0     H22806   9.586  11.085   3.682 -1.5506  0.4628  0.1758
  169MOL0     H22807   9.358  10.967   3.723 -1.8809 -0.9169 -0.9212
  169MOL0     H22808   9.392  10.871   3.578  0.0586  0.5165  0.2293
  169MOL0     H22809   9.434  11.080   3.454 -0.5074 -0.8296 -0.9402
  169MOL0     H22810   9.384  11.183   3.598 -1.8483 -1.0021  0.6126
  169MOL0     H22811   9.216  10.991   3.446  1.4617  1.6797 -3.4467
  169MOL0     H22812   9.211  11.166   3.428  1.8267  0.5059 -1.2830
  169MOL0     H22813   8.962  11.152   3.767  1.0168 -1.2522 -0.1184
  169MOL0     H22814   9.768  10.904   3.807 -0.2888  1.4649 -0.4355
  169MOL0     H22815  10.003  10.880   3.849  0.0198 -1.0836  0.3097
  170MOL0     O22816   9.459   2.795   3.425  0.1887  0.9222  0.1532
  170MOL0     C22817   9.480   2.902   3.368  0.4585  0.2875 -0.3937
  170MOL0     O22818   9.393   2.975   3.292 -0.2957  0.1420  0.0603
  170MOL0     C22819   9.287   2.911   3.233 -0.8373  0.4450  0.6171
  170MOL0     C22820   9.303   2.796   3.154 -0.6163 -0.0635  0.7360
  170MOL0     C22821   9.195   2.739   3.087  0.0501  0.0606 -0.4922
  170MOL0     C22822   9.068   2.788   3.101 -0.2715  0.3430 -1.0959
  170MOL0     O22823   8.951   2.725   3.073 -0.0891 -0.4165  0.3143
  170MOL0     C22824   8.941   2.656   2.943  0.4751  0.6078 -0.2754
  170MOL0     C22825   8.793   2.616   2.933  0.3825  0.1184  0.3004
  170MOL0     C22826   8.696   2.724   2.953  0.0266 -0.1404 -0.2908
  170MOL0     C22827   8.557   2.657   2.963 -0.6675  0.1809 -0.5146
  170MOL0     C22828   8.435   2.763   3.002 -0.0189  0.1387 -0.1050
  170MOL0     C22829   8.298   2.695   3.027  0.5045 -1.3994  0.1777
  170MOL0     C22830   8.227   2.663   2.896  0.2910  0.3262  0.0533
  170MOL0     C22831   8.135   2.768   2.843  0.5589 -0.3092  0.2192
  170MOL0     N22832   8.084   2.739   2.701  0.2857 -0.5034 -0.0275
  170MOL0     C22833   8.005   2.632   2.657 -0.3906  0.0800 -0.1238
  170MOL0     C22834   7.956   2.686   2.545 -0.8951  0.4939 -1.0431
  170MOL0     C22835   7.882   2.622   2.432  0.8435  0.4967  0.2248
  170MOL0     C22836   7.767   2.534   2.468 -0.1732  0.2897 -0.8496
  170MOL0     C22837   7.704   2.470   2.340 -0.6187 -0.1260 -0.8592
  170MOL0     C22838   7.590   2.376   2.370 -0.6455 -1.0294  0.1735
  170MOL0     O22839   7.489   2.428   2.447  0.0665 -0.5095 -0.2757
  170MOL0     C22840   7.377   2.484   2.386  0.8147  0.3780 -0.1415
  170MOL0     C22841   7.371   2.530   2.253  0.0774  0.2931 -0.7463
  170MOL0     C22842   7.255   2.585   2.197  1.0069 -0.0361  0.1340
  170MOL0     C22843   7.278   2.667   2.071 -0.7591 -0.0599 -0.3027
  170MOL0     C22844   7.128   2.564   2.264  0.4759 -0.1849 -0.3823
  170MOL0     C22845   6.990   2.618   2.228  0.4892 -0.2503 -0.6241
  170MOL0     O22846   6.889   2.574   2.309 -0.0253 -0.2048  0.2623
  170MOL0     C22847   6.767   2.566   2.258 -0.0444  0.5581  0.8395
  170MOL0     C22848   6.704   2.441   2.226  0.2374 -0.8986 -0.0543
  170MOL0     C22849   6.574   2.449   2.174  0.0916  0.2054  0.1370
  170MOL0     C22850   6.506   2.575   2.151 -0.0953 -0.1709 -0.1314
  170MOL0     O22851   6.387   2.585   2.090  0.2473 -0.3513 -0.6484
  170MOL0     C22852   6.288   2.472   2.099 -0.3530 -0.1586  0.6426
  170MOL0     C22853   6.168   2.483   2.013  0.7756  0.5179 -0.0649
  170MOL0     C22854   6.074   2.370   2.021  0.5258  0.5926 -0.5919
  170MOL0     C22855   5.947   2.377   1.937  0.5698 -0.0306 -0.7458
  170MOL0     C22856   5.969   2.421   1.794  1.0140  0.4428  0.7278
  170MOL0     C22857   5.819   2.409   1.736  0.1946 -0.1485 -0.3695
  170MOL0     C22858   5.812   2.463   1.601  0.0409  0.0671 -0.2389
  170MOL0     C22859   5.666   2.452   1.559 -0.0377 -0.3928 -0.7542
  170MOL0    Cl22860   5.602   2.284   1.557  0.2270  0.1367 -0.3229
  170MOL0     C22861   6.573   2.695   2.190 -0.2183  0.4033 -1.0360
  170MOL0     C22862   6.704   2.686   2.245 -0.3664  0.5001  0.9388
  170MOL0     O22863   6.976   2.672   2.119  0.8589  0.4756 -0.8188
  170MOL0     C22864   7.136   2.482   2.387 -0.5708 -0.0399 -0.5663
  170MOL0     C22865   7.254   2.459   2.453 -0.5519  0.1746 -0.0428
  170MOL0     N22866   8.007   2.807   2.518 -0.1266 -0.0954 -0.6749
  170MOL0     N22867   8.100   2.832   2.603 -0.2318  0.0895  0.4180
  170MOL0     C22868   9.052   2.899   3.179 -0.3215 -0.2306 -0.4049
  170MOL0     C22869   9.162   2.962   3.232 -0.1410 -0.9922  0.3067
  170MOL0     C22870   9.609   2.952   3.385 -0.0142  0.7226 -1.5253
  170MOL0     C22871   9.717   2.878   3.447  0.5169 -0.2377 -0.6592
  170MOL0     C22872   9.843   2.926   3.448 -1.0304 -0.5928 -0.0831
  170MOL0     C22873   9.867   3.057   3.409  0.2267 -0.3147 -0.1040
  170MOL0     O22874   9.988   3.119   3.413 -0.2700  0.2653  0.2249
  170MOL0     C22875  10.100   3.057   3.483  1.3174 -0.1606 -0.1305
  170MOL0     C22876  10.206   3.167   3.516 -1.0876  0.2170  0.4584
  170MOL0     C22877  10.275   3.227   3.399 -0.7818  1.0556  0.0850
  170MOL0     C22878  10.368   3.339   3.437  0.1380  0.3657  0.3864
  170MOL0     C22879  10.487   3.284   3.498 -0.4642  0.9886 -0.8602
  170MOL0     C22880  10.568   3.217   3.555 -0.0474  0.0542 -1.1132
  170MOL0     C22881   9.765   3.135   3.346  0.0826 -1.0556 -0.1881
  170MOL0     C22882   9.637   3.083   3.334  0.2105  0.4027  0.5561
  170MOL0     H22883   9.394   2.737   3.151 -1.4251 -1.3048 -1.6988
  170MOL0     H22884   9.216   2.644   3.038  2.2866  1.7650 -3.1515
  170MOL0     H22885   8.964   2.721   2.858 -0.4396  1.9446  0.4699
  170MOL0     H22886   9.005   2.567   2.945  2.4777  1.8253 -3.0524
  170MOL0     H22887   8.777   2.584   2.830 -1.7891 -1.0691  0.9494
  170MOL0     H22888   8.775   2.534   3.004  0.6453 -1.3313 -1.2292
  170MOL0     H22889   8.712   2.779   3.047 -1.3413 -3.4298  2.0593
  170MOL0     H22890   8.690   2.790   2.866 -1.5840  0.6722  0.3882
  170MOL0     H22891   8.525   2.617   2.866 -1.0270 -2.2083  0.5305
  170MOL0     H22892   8.560   2.575   3.034  0.9801 -1.2300 -2.1224
  170MOL0     H22893   8.451   2.817   3.095  1.3567  0.2626 -0.3858
  170MOL0     H22894   8.430   2.840   2.924  1.2211  0.7623  0.3985
  170MOL0     H22895   8.313   2.610   3.093 -1.3130 -0.7591  1.5152
  170MOL0     H22896   8.234   2.765   3.083  1.5908 -0.8074  0.7066
  170MOL0     H22897   8.305   2.634   2.825 -0.3668 -0.7690 -0.2491
  170MOL0     H22898   8.161   2.578   2.916 -1.7705  2.0979  1.2340
  170MOL0     H22899   8.198   2.856   2.828  1.4881 -1.2085 -1.3827
  170MOL0     H22900   8.060   2.788   2.921  1.1278  0.1130  0.6727
  170MOL0     H22901   7.983   2.541   2.712  1.7599  0.5748  1.6914
  170MOL0     H22902   7.860   2.706   2.365  0.9823  1.0727  0.8826
  170MOL0     H22903   7.954   2.553   2.387 -0.4475 -1.8781  1.6213
  170MOL0     H22904   7.702   2.592   2.535  2.9228  0.3028  2.4425
  170MOL0     H22905   7.793   2.444   2.524 -1.9032 -0.5091 -1.2444
  170MOL0     H22906   7.775   2.405   2.287  0.7948 -0.0982  0.9157
  170MOL0     H22907   7.683   2.540   2.258  1.7345  0.0481 -1.3775
  170MOL0     H22908   7.632   2.294   2.429  0.2199 -1.2997 -0.7821
  170MOL0     H22909   7.551   2.328   2.280 -1.3251 -1.2550  0.5788
  170MOL0     H22910   7.463   2.552   2.200  0.0227  1.2459 -0.4665
  170MOL0     H22911   7.381   2.654   2.034 -1.4058 -2.4776 -1.4863
  170MOL0     H22912   7.217   2.635   1.986  0.8695  0.2387 -1.6555
  170MOL0     H22913   7.274   2.775   2.087 -1.0135  0.0060 -0.7857
  170MOL0     H22914   6.750   2.349   2.260  1.4001  0.4464  2.3213
  170MOL0     H22915   6.534   2.354   2.139 -4.6462  2.5658 -1.7430
  170MOL0     H22916   6.338   2.383   2.060  0.7294 -0.0485  1.7238
  170MOL0     H22917   6.272   2.455   2.206 -1.2348  0.7136  0.6556
  170MOL0     H22918   6.123   2.582   2.016  1.4877  0.9015 -1.4215
  170MOL0     H22919   6.218   2.478   1.916 -0.3891 -4.7282 -0.6948
  170MOL0     H22920   6.033   2.366   2.122 -0.4808 -0.5031 -1.0117
  170MOL0     H22921   6.129   2.278   1.997  1.6242  1.1473 -0.2850
  170MOL0     H22922   5.904   2.277   1.930 -0.1904  0.2119  0.1775
  170MOL0     H22923   5.872   2.440   1.987  2.0634  2.2445 -1.1958
  170MOL0     H22924   6.050   2.362   1.751  2.1003  1.4082  1.4039
  170MOL0     H22925   6.008   2.522   1.785 -0.6852  1.0869  0.1684
  170MOL0     H22926   5.791   2.303   1.744 -1.2892  0.2479 -0.1519
  170MOL0     H22927   5.755   2.464   1.804  2.3390 -0.7845  2.3388
  170MOL0     H22928   5.877   2.406   1.535  0.6108 -1.0839  1.2529
  170MOL0     H22929   5.838   2.569   1.614  0.0660 -0.0793  0.9949
  170MOL0     H22930   5.660   2.488   1.457 -0.8813 -0.9931 -0.9295
  170MOL0     H22931   5.611   2.515   1.630 -0.2271 -1.0352 -0.3177
  170MOL0     H22932   6.511   2.784   2.204 -0.5437  0.0391 -0.0491
  170MOL0     H22933   6.746   2.776   2.289 -2.4233  2.1554 -0.2771
  170MOL0     H22934   7.044   2.468   2.442  0.4060  1.3617  1.5518
  170MOL0     H22935   7.259   2.402   2.545  3.1203  0.6716  0.2178
  170MOL0     H22936   8.962   2.946   3.215 -0.6136 -1.1468  0.1005
  170MOL0     H22937   9.138   3.052   3.287 -0.5745 -0.1625 -1.1724
  170MOL0     H22938   9.699   2.775   3.480 -1.0943  0.3250  0.3705
  170MOL0     H22939   9.929   2.867   3.476  0.7747  1.7633 -0.3183
  170MOL0     H22940  10.065   3.012   3.575  0.4493 -0.7950 -0.7576
  170MOL0     H22941  10.145   2.973   3.429 -0.7285 -0.9676 -0.6742
  170MOL0     H22942  10.282   3.139   3.589 -0.2039 -3.7155 -1.6807
  170MOL0     H22943  10.150   3.247   3.564 -1.1411  0.4421  0.0214
  170MOL0     H22944  10.196   3.264   3.334 -2.2119 -2.8026 -0.6509
  170MOL0     H22945  10.336   3.145   3.358  0.1045  0.9059  1.6301
  170MOL0     H22946  10.316   3.418   3.492  1.7267  0.6155  1.6003
  170MOL0     H22947  10.394   3.379   3.339 -0.5937  0.4409  0.2125
  170MOL0     H22948  10.640   3.147   3.593 -1.7120 -1.5940 -0.8285
  170MOL0     H22949   9.793   3.234   3.311 -1.7853  0.6946  2.8460
  170MOL0     H22950   9.564   3.146   3.286  0.7228  1.6204  1.3306
  171MOL0     O22951  10.651   9.399   8.599  0.0867  0.2082  0.0770
  171MOL0     C22952  10.696   9.520   8.603  0.3151 -1.0459 -0.2004
  171MOL0     O22953  10.627   9.628   8.645  0.0490  1.0607 -0.2791
  171MOL0     C22954  10.499   9.599   8.676 -1.0164  0.4049  0.0589
  171MOL0     C22955  10.411   9.560   8.575  0.5854 -0.2245  0.7046
  171MOL0     C22956  10.277   9.542   8.610 -0.7965  0.7636 -0.6817
  171MOL0     C22957  10.231   9.564   8.740 -0.9575  0.5188  0.3585
  171MOL0     O22958  10.095   9.557   8.764 -0.1084  0.2425  0.1446
  171MOL0     C22959  10.049   9.422   8.770  0.2901  0.0146 -0.3229
  171MOL0     C22960   9.906   9.415   8.810  0.4848 -0.6566  0.0357
  171MOL0     C22961   9.817   9.496   8.713 -0.3737  0.4015 -0.6843
  171MOL0     C22962   9.677   9.472   8.745  0.4186  0.1466  0.4764
  171MOL0     C22963   9.584   9.578   8.674  0.0126  0.2389  0.4484
  171MOL0     C22964   9.446   9.561   8.744 -0.7082 -0.1506  0.2875
  171MOL0     C22965   9.334   9.644   8.661 -0.1227 -0.0158 -0.4757
  171MOL0     C22966   9.349   9.791   8.635 -0.7743  0.3463  0.3909
  171MOL0     N22967   9.393   9.854   8.768  0.8245  0.6094  0.1320
  171MOL0     C22968   9.498   9.936   8.781 -0.7714  0.3648 -0.2524
  171MOL0     C22969   9.477   9.998   8.903 -0.3905 -0.7794 -0.5481
  171MOL0     C22970   9.554  10.111   8.976  0.4087 -0.0757  0.3667
  171MOL0     C22971   9.694  10.148   8.911 -1.5539  0.2717  1.0148
  171MOL0     C22972   9.675  10.240   8.790 -0.1839  0.5998  0.2455
  171MOL0     C22973   9.800  10.265   8.717 -0.4440  0.7530 -0.0564
  171MOL0     O22974   9.896  10.349   8.789  0.7256 -0.1424 -1.0302
  171MOL0     C22975  10.015  10.379   8.736 -1.0768 -0.4020 -0.6245
  171MOL0     C22976  10.043  10.346   8.598  1.0048  0.3729  0.2272
  171MOL0     C22977  10.164  10.375   8.534 -0.8520  0.6224  0.5552
  171MOL0     C22978  10.178  10.331   8.387 -0.0319 -0.1073 -0.3512
  171MOL0     C22979  10.265  10.446   8.602 -0.4720 -0.1148  0.5755
  171MOL0     C22980  10.396  10.486   8.545  0.0974  0.0522 -0.1315
  171MOL0     O22981  10.453  10.597   8.602  0.6100 -0.0524  0.3144
  171MOL0     C22982  10.558  10.662   8.538  0.0978  0.2617 -0.0597
  171MOL0     C22983  10.587  10.661   8.399  0.4027 -0.1805 -1.0276
  171MOL0     C22984  10.687  10.743   8.354  0.4528 -0.7614 -0.8820
  171MOL0     C22985  10.762  10.830   8.442  0.7308  0.7628 -0.1818
  171MOL0     O22986  10.841  10.926   8.407 -0.5617 -0.2141 -0.2359
  171MOL0     C22987  10.786  11.010   8.310 -0.4684 -0.9256  0.4520
  171MOL0     C22988  10.891  11.128   8.288 -0.3063  0.8575  0.7971
  171MOL0     C22989  11.021  11.070   8.228  0.8242 -0.6976  0.2487
  171MOL0     C22990  11.126  11.064   8.337  0.3434 -0.0974 -0.2373
  171MOL0     C22991  11.266  11.025   8.280 -0.0748  0.0936 -0.8512
  171MOL0     C22992  11.357  11.053   8.405  0.4321  0.3680  0.5202
  171MOL0     C22993  11.493  11.020   8.362 -0.5870 -0.4561 -0.1591
  171MOL0     C22994  11.587  11.066   8.471  0.0328 -0.0742 -0.3604
  171MOL0    Cl22995  11.755  11.003   8.439  0.0247  0.3205 -0.0928
  171MOL0     C22996  10.746  10.821   8.578 -0.4677 -0.3600 -0.3265
  171MOL0     C22997  10.644  10.739   8.620  0.5040 -0.5473  0.3717
  171MOL0     O22998  10.444  10.412   8.464 -0.2701  0.3357  0.4237
  171MOL0     C22999  10.234  10.483   8.733  0.2552 -0.1666 -0.1934
  171MOL0     C23000  10.114  10.453   8.798 -0.0151  0.0061  0.2303
  171MOL0     N23001   9.363   9.949   8.960  0.4587 -0.1608  0.5447
  171MOL0     N23002   9.315   9.864   8.880  0.7149  0.6936 -0.1825
  171MOL0     C23003  10.319   9.620   8.829 -0.4194  0.2500  0.4186
  171MOL0     C23004  10.453   9.646   8.799 -1.2143 -0.0576  0.4075
  171MOL0     C23005  10.834   9.550   8.567  0.0578  0.5207 -0.0551
  171MOL0     C23006  10.887   9.682   8.558 -0.2515  0.7551 -0.5013
  171MOL0     C23007  11.015   9.705   8.532 -0.6824  0.1263  0.3896
  171MOL0     C23008  11.102   9.593   8.500  0.5605 -0.1667  0.3430
  171MOL0     O23009  11.229   9.591   8.450 -0.0904 -0.2155 -0.6214
  171MOL0     C23010  11.296   9.710   8.450  0.3414 -0.3749  0.0937
  171MOL0     C23011  11.351   9.728   8.599  0.1250  0.7052 -0.2252
  171MOL0     C23012  11.436   9.849   8.597  0.1766  0.0889 -0.5603
  171MOL0     C23013  11.571   9.820   8.541 -0.0437 -0.4478 -0.3481
  171MOL0     C23014  11.669   9.914   8.595  0.1321  0.1958  0.4260
  171MOL0     C23015  11.754   9.985   8.646  0.2171 -0.1117  0.2987
  171MOL0     C23016  11.052   9.465   8.492  0.0692 -0.0689  0.4196
  171MOL0     C23017  10.915   9.440   8.520 -0.3817  0.1140 -0.0027
  171MOL0     H23018  10.438   9.539   8.473 -0.0530  0.3873  0.4005
  171MOL0     H23019  10.202   9.508   8.540  0.2890  0.2462 -1.6388
  171MOL0     H23020  10.053   9.378   8.669 -0.9288 -0.6150 -0.1094
  171MOL0     H23021  10.116   9.378   8.844  0.2821  2.0212  0.9129
  171MOL0     H23022   9.872   9.312   8.817 -0.0540 -0.3828  3.3007
  171MOL0     H23023   9.893   9.453   8.912  0.1629  1.7089 -0.8225
  171MOL0     H23024   9.846   9.601   8.718 -1.2962  0.6543 -0.5246
  171MOL0     H23025   9.844   9.459   8.614  0.3456 -3.2522  0.7018
  171MOL0     H23026   9.652   9.368   8.723 -0.4203  0.2933  0.7234
  171MOL0     H23027   9.666   9.487   8.853  1.5449  2.5803  0.3129
  171MOL0     H23028   9.625   9.678   8.689  2.8720 -0.8014  0.0909
  171MOL0     H23029   9.575   9.549   8.569 -2.4561 -1.2944  0.9848
  171MOL0     H23030   9.423   9.455   8.757  1.3578 -0.8984 -1.6270
  171MOL0     H23031   9.465   9.603   8.844  1.8709 -2.2629  0.7672
  171MOL0     H23032   9.312   9.593   8.567  2.1900  1.1228 -1.7147
  171MOL0     H23033   9.246   9.639   8.727 -0.5756 -0.7564 -1.1238
  171MOL0     H23034   9.250   9.831   8.607 -0.5235  1.6722  1.3098
  171MOL0     H23035   9.416   9.805   8.550  1.5530 -1.2808  1.8763
  171MOL0     H23036   9.582   9.955   8.715 -1.5941  1.0637 -1.1240
  171MOL0     H23037   9.479  10.190   8.979 -0.7304 -1.1080 -0.4119
  171MOL0     H23038   9.575  10.071   9.076 -1.3010 -1.1243  0.3370
  171MOL0     H23039   9.752  10.060   8.881 -3.3369 -0.0832 -1.7325
  171MOL0     H23040   9.745  10.198   8.993 -0.5440  0.5729  0.2321
  171MOL0     H23041   9.639  10.330   8.840 -0.8512  0.2569  0.4000
  171MOL0     H23042   9.598  10.205   8.720  1.4616 -1.4092 -0.6536
  171MOL0     H23043   9.775  10.316   8.623 -0.9414  0.3573 -0.1434
  171MOL0     H23044   9.848  10.168   8.699  1.0397  0.6767  3.5156
  171MOL0     H23045   9.967  10.285   8.550  0.8471 -0.6038  1.6429
  171MOL0     H23046  10.091  10.281   8.344  0.7436 -2.3094  0.5173
  171MOL0     H23047  10.193  10.425   8.333 -0.3253  0.3553  0.3610
  171MOL0     H23048  10.271  10.278   8.367  0.4321  0.2420  0.8367
  171MOL0     H23049  10.524  10.626   8.318  0.3424  3.2024 -2.5916
  171MOL0     H23050  10.705  10.764   8.249  0.7574 -1.7297 -1.0323
  171MOL0     H23051  10.775  10.960   8.213  1.0379 -0.2993 -0.0875
  171MOL0     H23052  10.687  11.043   8.343 -2.1915 -3.4501 -1.7660
  171MOL0     H23053  10.852  11.204   8.219 -1.9561 -0.4677  0.1817
  171MOL0     H23054  10.919  11.175   8.383  2.3076  0.0693  0.4934
  171MOL0     H23055  11.053  11.146   8.156 -3.1220  0.3084 -0.6747
  171MOL0     H23056  11.012  10.977   8.171 -0.3008  0.4249 -1.5328
  171MOL0     H23057  11.136  11.165   8.376 -0.5504  0.5509 -1.6133
  171MOL0     H23058  11.097  10.985   8.407  0.1880  0.1371 -0.0385
  171MOL0     H23059  11.304  11.073   8.190 -1.6293  0.9061 -1.1039
  171MOL0     H23060  11.275  10.918   8.260 -0.8428  0.4955 -3.6406
  171MOL0     H23061  11.353  11.158   8.434 -2.1302  0.6263 -0.5427
  171MOL0     H23062  11.333  10.997   8.496 -1.0267  2.4103  1.4630
  171MOL0     H23063  11.513  11.091   8.281 -0.3736  1.4726  1.4849
  171MOL0     H23064  11.495  10.917   8.325 -3.7039 -0.3395 -0.9952
  171MOL0     H23065  11.547  11.030   8.566 -1.2435  3.5716  0.6788
  171MOL0     H23066  11.599  11.172   8.497 -0.6320 -0.2273  0.6014
  171MOL0     H23067  10.803  10.874   8.654 -0.5892 -1.4478  0.5521
  171MOL0     H23068  10.629  10.723   8.726  0.1029 -0.9848  0.2544
  171MOL0     H23069  10.306  10.549   8.780  0.7207 -0.1720 -0.8797
  171MOL0     H23070  10.088  10.499   8.893  0.8139 -1.2500  1.0910
  171MOL0     H23071  10.268   9.639   8.923 -2.2626 -1.4483 -0.1611
  171MOL0     H23072  10.524   9.682   8.873 -0.5085 -2.0823  0.7862
  171MOL0     H23073  10.817   9.763   8.580 -2.2334 -0.7819 -0.8711
  171MOL0     H23074  11.048   9.807   8.550  0.2748 -0.0451 -0.3264
  171MOL0     H23075  11.386   9.715   8.388  0.7216 -3.7014  0.2478
  171MOL0     H23076  11.225   9.788   8.421 -0.4338 -0.4816  1.5964
  171MOL0     H23077  11.413   9.642   8.625 -2.0929 -0.5480  1.1934
  171MOL0     H23078  11.266   9.739   8.667  0.3685 -0.1131  0.2154
  171MOL0     H23079  11.448   9.872   8.703  1.7797  0.7478 -0.8495
  171MOL0     H23080  11.393   9.940   8.553 -0.4166  1.1011  1.9570
  171MOL0     H23081  11.546   9.835   8.436 -0.3705 -1.3586 -0.4154
  171MOL0     H23082  11.598   9.715   8.557 -1.4459 -1.0320 -1.5575
  171MOL0     H23083  11.808  10.065   8.692 -0.6065 -0.5213  2.0234
  171MOL0     H23084  11.108   9.386   8.443 -1.0081 -0.7787  0.2749
  171MOL0     H23085  10.874   9.340   8.510  1.6445 -0.6326 -1.8776
  172MOL0     O23086   0.805   7.630  10.060  0.2497  0.3686 -0.5837
  172MOL0     C23087   0.784   7.653   9.943 -0.4330 -0.2971  0.5681
  172MOL0     O23088   0.664   7.680   9.883  0.0711 -0.0572  0.0963
  172MOL0     C23089   0.548   7.694   9.953 -0.5542 -0.3524  1.2815
  172MOL0     C23090   0.538   7.758  10.075  0.4671 -0.2691 -0.8668
  172MOL0     C23091   0.412   7.772  10.128 -0.1259 -0.2399 -0.1648
  172MOL0     C23092   0.290   7.730  10.065 -0.2379 -0.1229 -0.0246
  172MOL0     O23093   0.169   7.745  10.116 -0.5159 -0.7749 -0.5562
  172MOL0     C23094   0.147   7.811  10.245 -0.2047 -1.0111 -0.2815
  172MOL0     C23095   0.108   7.722  10.361  0.4641  0.4811  0.1094
  172MOL0     C23096  -0.041   7.684  10.364  0.8204 -0.0574  0.4084
  172MOL0     C23097  -0.069   7.580  10.480 -0.8727 -0.4267  0.7838
  172MOL0     C23098  -0.213   7.577  10.519 -0.5357 -0.6731 -0.0834
  172MOL0     C23099  -0.328   7.549  10.416 -0.7765  0.8669  0.5022
  172MOL0     C23100  -0.451   7.501  10.490 -0.9916 -0.0828 -0.0438
  172MOL0     C23101  -0.430   7.355  10.529 -0.4264 -0.6090  0.0735
  172MOL0     N23102  -0.554   7.290  10.556 -0.3576  0.2403 -0.3521
  172MOL0     C23103  -0.641   7.327  10.658  0.0880 -0.0889  0.5079
  172MOL0     C23104  -0.743   7.235  10.648 -0.6836 -0.8599  0.3044
  172MOL0     C23105  -0.879   7.223  10.728 -1.0484 -0.2224 -0.5234
  172MOL0     C23106  -0.999   7.216  10.645  0.2843  0.1209  0.4056
  172MOL0     C23107  -1.122   7.184  10.733  0.7422 -0.0532  0.2264
  172MOL0     C23108  -1.246   7.176  10.640 -0.1606 -0.2012  0.3970
  172MOL0     O23109  -1.270   7.298  10.579  0.5503 -0.2687  0.3092
  172MOL0     C23110  -1.366   7.293  10.477  0.3375  0.1252 -1.0202
  172MOL0     C23111  -1.327   7.265  10.349 -0.2436 -0.1299 -0.3555
  172MOL0     C23112  -1.419   7.251  10.241  0.3673 -1.4544  0.6001
  172MOL0     C23113  -1.364   7.235  10.101 -0.8270  0.3967  0.3257
  172MOL0     C23114  -1.554   7.265  10.281 -0.7977  0.5953 -0.9836
  172MOL0     C23115  -1.673   7.254  10.184 -0.1529  0.1008 -0.5414
  172MOL0     O23116  -1.799   7.217  10.224  0.1467 -1.1667  0.0649
  172MOL0     C23117  -1.907   7.224  10.142  0.0049  0.8889 -0.6607
  172MOL0     C23118  -1.963   7.338  10.099 -0.5062 -0.6859  0.2846
  172MOL0     C23119  -2.090   7.334  10.036 -0.0353  0.0807  0.2691
  172MOL0     C23120  -2.150   7.215   9.995 -0.3305  0.9316  0.3418
  172MOL0     O23121  -2.271   7.204   9.930  0.4531 -0.2465  0.3286
  172MOL0     C23122  -2.361   7.320   9.914  0.2842  0.1597  0.7123
  172MOL0     C23123  -2.500   7.277   9.874 -0.6602 -0.7462  0.2745
  172MOL0     C23124  -2.598   7.400   9.859  1.0002 -0.2521 -0.0438
  172MOL0     C23125  -2.744   7.334   9.851 -0.5773 -0.2325  0.5518
  172MOL0     C23126  -2.854   7.444   9.828  0.1896 -0.4359 -0.0248
  172MOL0     C23127  -2.987   7.382   9.802 -0.1623  0.0619 -0.3229
  172MOL0     C23128  -3.100   7.477   9.827  0.2777 -0.2670  0.9431
  172MOL0     C23129  -3.242   7.411   9.799  0.1837  0.3987  0.2319
  172MOL0    Cl23130  -3.382   7.513   9.841 -0.1137  0.3421 -0.4457
  172MOL0     C23131  -2.091   7.096  10.035 -1.1366  0.1832 -0.4252
  172MOL0     C23132  -1.964   7.100  10.105  0.9336  0.4320  0.6147
  172MOL0     O23133  -1.644   7.300  10.073 -0.7650  0.4327  0.1778
  172MOL0     C23134  -1.590   7.269  10.423  0.8057 -0.0492 -0.5082
  172MOL0     C23135  -1.499   7.290  10.516 -0.0898  1.1221  0.1136
  172MOL0     N23136  -0.700   7.138  10.558  0.1612 -0.5495  0.2045
  172MOL0     N23137  -0.592   7.174  10.496  0.3364 -0.1301 -0.5745
  172MOL0     C23138   0.301   7.662   9.940 -0.3758  0.3749  0.1449
  172MOL0     C23139   0.432   7.643   9.893 -0.5090  0.9674 -0.6415
  172MOL0     C23140   0.905   7.681   9.863  0.2046 -0.4709 -0.4442
  172MOL0     C23141   0.896   7.748   9.734  0.4220 -0.3523  0.3822
  172MOL0     C23142   1.011   7.772   9.660 -0.0056  0.1087 -0.4694
  172MOL0     C23143   1.138   7.742   9.708  0.0010 -0.5678 -0.1528
  172MOL0     O23144   1.240   7.767   9.621 -0.9678 -0.1446  0.2981
  172MOL0     C23145   1.364   7.701   9.656 -0.4394 -0.5849 -1.4379
  172MOL0     C23146   1.443   7.712   9.523 -0.4787  0.0751  0.2548
  172MOL0     C23147   1.576   7.628   9.533 -0.5655  0.6085 -0.5847
  172MOL0     C23148   1.591   7.532   9.411  0.2567 -0.4189  0.9524
  172MOL0     C23149   1.587   7.601   9.282  0.2217  0.7917  0.6009
  172MOL0     C23150   1.599   7.662   9.178 -0.0077 -0.1766 -0.1240
  172MOL0     C23151   1.141   7.693   9.841  0.3106 -0.4695  0.1240
  172MOL0     C23152   1.030   7.666   9.923 -0.0521  0.6297  0.2473
  172MOL0     H23153   0.628   7.804  10.115 -0.5524  2.0318 -1.0656
  172MOL0     H23154   0.413   7.825  10.223 -1.7599 -1.1833  0.4342
  172MOL0     H23155   0.233   7.865  10.285  0.0858  0.9996 -3.3109
  172MOL0     H23156   0.062   7.877  10.227 -1.0813 -2.4026 -1.5434
  172MOL0     H23157   0.141   7.619  10.347 -2.6987 -0.6016 -0.3856
  172MOL0     H23158   0.151   7.760  10.454  2.6215 -0.0135 -0.6483
  172MOL0     H23159  -0.108   7.768  10.381 -0.1819 -0.4602 -1.3078
  172MOL0     H23160  -0.078   7.632  10.275  0.6511 -1.9164  1.4846
  172MOL0     H23161  -0.031   7.482  10.449 -2.0755 -0.7082  0.1369
  172MOL0     H23162  -0.001   7.608  10.561 -2.7001  0.6475  1.9918
  172MOL0     H23163  -0.213   7.500  10.597 -0.7909 -0.3685  0.2254
  172MOL0     H23164  -0.253   7.672  10.558 -2.6650 -1.3892 -0.3615
  172MOL0     H23165  -0.356   7.643  10.366  0.4443  1.4454  0.8501
  172MOL0     H23166  -0.300   7.478  10.338 -1.1134  1.8644 -0.5614
  172MOL0     H23167  -0.476   7.573  10.569  0.8573  2.3904 -1.5857
  172MOL0     H23168  -0.538   7.497  10.424 -1.7130 -0.3954  0.8944
  172MOL0     H23169  -0.372   7.366  10.621 -3.2311  0.8453  1.8097
  172MOL0     H23170  -0.372   7.291  10.462 -2.4224 -0.8799 -1.5248
  172MOL0     H23171  -0.622   7.409  10.727  0.8014 -1.0224  1.4441
  172MOL0     H23172  -0.875   7.127  10.782  1.8506  0.4408  0.5948
  172MOL0     H23173  -0.873   7.301  10.805  1.7149  0.0568 -0.9387
  172MOL0     H23174  -0.990   7.120  10.593 -0.6126  0.5472 -0.5514
  172MOL0     H23175  -1.021   7.306  10.588  0.1228  0.4864  1.0293
  172MOL0     H23176  -1.135   7.258  10.812 -0.5611  0.1306 -0.1332
  172MOL0     H23177  -1.106   7.094  10.793 -0.1362 -1.5180 -1.6169
  172MOL0     H23178  -1.333   7.137  10.695  0.7608 -2.6657  0.2350
  172MOL0     H23179  -1.235   7.095  10.568 -2.4688 -0.0394 -0.2328
  172MOL0     H23180  -1.227   7.226  10.331 -1.0404 -2.3015 -0.3977
  172MOL0     H23181  -1.428   7.174  10.037  1.6727 -2.0721  0.0145
  172MOL0     H23182  -1.363   7.331  10.048  0.5934 -0.5839 -1.5308
  172MOL0     H23183  -1.262   7.195  10.105 -0.6253  0.9444  2.9364
  172MOL0     H23184  -1.913   7.430  10.127  0.4387 -0.2682 -2.4549
  172MOL0     H23185  -2.132   7.433  10.022 -1.7443 -0.7579 -0.7793
  172MOL0     H23186  -2.370   7.365  10.013  0.6296  0.3212  0.6726
  172MOL0     H23187  -2.323   7.400   9.849  0.8318 -0.3600  0.3827
  172MOL0     H23188  -2.495   7.219   9.782  0.6046 -0.6602  0.2811
  172MOL0     H23189  -2.534   7.203   9.947  2.2958 -1.6202  0.8839
  172MOL0     H23190  -2.570   7.448   9.765 -1.2303 -1.5476 -1.4700
  172MOL0     H23191  -2.584   7.474   9.939 -0.5325  2.0625 -1.7784
  172MOL0     H23192  -2.749   7.255   9.775 -1.1484  2.0938 -1.9714
  172MOL0     H23193  -2.762   7.290   9.950  3.4193 -1.0676  1.0861
  172MOL0     H23194  -2.825   7.508   9.744 -2.2864  1.1890  0.2754
  172MOL0     H23195  -2.856   7.506   9.918 -3.1258  0.4810 -0.6134
  172MOL0     H23196  -2.989   7.349   9.697  2.7189 -3.6212  0.5832
  172MOL0     H23197  -3.008   7.301   9.872 -2.1262  0.9580  0.2307
  172MOL0     H23198  -3.095   7.561   9.757 -1.2980 -1.8123 -1.1707
  172MOL0     H23199  -3.093   7.516   9.929 -1.1578 -1.8985  1.7174
  172MOL0     H23200  -3.236   7.337   9.879  5.2618  0.8382  0.6144
  172MOL0     H23201  -3.249   7.369   9.698 -1.5599 -2.4032  1.3970
  172MOL0     H23202  -2.143   7.002  10.023 -0.7671 -0.8541  4.3596
  172MOL0     H23203  -1.922   7.009  10.147  0.4284 -0.7671 -1.3475
  172MOL0     H23204  -1.696   7.273  10.446  0.7120 -0.6918 -0.8153
  172MOL0     H23205  -1.527   7.299  10.620  0.9321  1.6283  0.3527
  172MOL0     H23206   0.208   7.625   9.900  0.7074 -4.8687  1.6372
  172MOL0     H23207   0.444   7.590   9.799 -3.6116  0.3733 -0.8207
  172MOL0     H23208   0.803   7.781   9.689  0.0179  0.9646  2.0960
  172MOL0     H23209   0.996   7.805   9.557  1.4840 -3.8311 -2.1587
  172MOL0     H23210   1.419   7.748   9.738  2.5089 -1.7675 -2.5909
  172MOL0     H23211   1.349   7.596   9.683 -1.4094 -0.2870 -0.7624
  172MOL0     H23212   1.469   7.814   9.496  1.2037 -0.9215 -2.2101
  172MOL0     H23213   1.374   7.666   9.452 -0.4890 -0.2276  0.4575
  172MOL0     H23214   1.575   7.572   9.627 -0.3084  0.4062 -0.7015
  172MOL0     H23215   1.663   7.693   9.547 -0.1141 -0.0443 -0.3099
  172MOL0     H23216   1.512   7.456   9.400 -0.5905  0.7568 -1.9223
  172MOL0     H23217   1.684   7.475   9.416  0.2383 -0.3948  1.6282
  172MOL0     H23218   1.603   7.721   9.089  0.8793  1.4042  0.9265
  172MOL0     H23219   1.235   7.678   9.892  0.6937 -0.6538 -0.6319
  172MOL0     H23220   1.052   7.632  10.024  1.3282  1.0524  0.1037
  173MOL0     O23221   4.366   7.367   3.895  0.7158  0.6959 -0.2334
  173MOL0     C23222   4.430   7.433   3.978 -0.1234  0.8028  0.1055
  173MOL0     O23223   4.374   7.494   4.081 -0.0549  0.1028  0.3631
  173MOL0     C23224   4.239   7.507   4.081 -0.0987 -0.1235  0.6084
  173MOL0     C23225   4.161   7.398   4.123 -0.1043  0.1135 -0.5185
  173MOL0     C23226   4.020   7.397   4.117 -0.9071  0.4145 -0.0577
  173MOL0     C23227   3.956   7.511   4.075 -0.6631 -0.1917 -0.3373
  173MOL0     O23228   3.816   7.511   4.079 -0.1267 -0.1334 -0.4911
  173MOL0     C23229   3.738   7.626   4.024  1.3249 -0.1425  0.2169
  173MOL0     C23230   3.586   7.628   4.073  0.0655  0.3767 -0.1634
  173MOL0     C23231   3.566   7.605   4.224  0.7971  0.3079  0.2744
  173MOL0     C23232   3.424   7.537   4.259 -0.5748 -0.5329  0.3692
  173MOL0     C23233   3.309   7.632   4.225  0.2143 -0.4232  0.1836
  173MOL0     C23234   3.181   7.594   4.307  0.3736  0.3354  0.5666
  173MOL0     C23235   3.069   7.689   4.261  0.1043 -0.4601  0.3223
  173MOL0     C23236   3.030   7.672   4.118  0.9016 -1.1121  0.2856
  173MOL0     N23237   2.901   7.740   4.094  0.5430 -0.2911  0.1025
  173MOL0     C23238   2.894   7.847   4.008  0.7763 -1.1806 -0.2273
  173MOL0     C23239   2.770   7.904   4.029  1.1072 -0.3803 -0.1119
  173MOL0     C23240   2.726   8.039   3.983  0.6021 -0.7518  0.3304
  173MOL0     C23241   2.684   8.037   3.836 -0.3026  0.1968 -0.1991
  173MOL0     C23242   2.540   8.000   3.803 -0.0699 -0.6537 -0.0165
  173MOL0     C23243   2.490   7.866   3.857 -0.6947  0.6646 -0.3993
  173MOL0     O23244   2.348   7.856   3.825  0.1621  0.5657  0.3649
  173MOL0     C23245   2.266   7.755   3.866  0.2374 -0.1487 -0.5462
  173MOL0     C23246   2.291   7.678   3.979  0.1432  0.3319 -0.3392
  173MOL0     C23247   2.198   7.598   4.047 -0.1213  0.3940 -0.3985
  173MOL0     C23248   2.241   7.515   4.165 -0.7613 -0.0361 -0.0135
  173MOL0     C23249   2.064   7.593   3.993 -0.8256  0.0507 -0.0025
  173MOL0     C23250   1.950   7.518   4.053  1.5465  0.1059 -0.1206
  173MOL0     O23251   1.861   7.474   3.971  0.0786  0.7592  0.1879
  173MOL0     C23252   1.744   7.421   4.023  0.1972 -0.3513  0.4630
  173MOL0     C23253   1.743   7.298   4.094 -0.1426 -0.1616 -0.1967
  173MOL0     C23254   1.630   7.249   4.155 -0.0357  0.4421 -0.6237
  173MOL0     C23255   1.516   7.335   4.170 -0.3440  0.8026 -0.1333
  173MOL0     O23256   1.400   7.306   4.238  0.4139  0.1806 -0.5875
  173MOL0     C23257   1.353   7.164   4.222  0.2545  0.2555  0.5902
  173MOL0     C23258   1.199   7.160   4.239  0.8643 -1.0660  0.2243
  173MOL0     C23259   1.126   7.052   4.173 -0.5681 -0.0892 -0.4412
  173MOL0     C23260   0.982   7.041   4.192  0.2273 -0.2982  0.5048
  173MOL0     C23261   0.933   6.903   4.148  0.1268  0.0821  0.8529
  173MOL0     C23262   0.787   6.910   4.160 -0.3949 -0.8907 -0.4922
  173MOL0     C23263   0.727   6.771   4.163  0.0306 -0.9209  0.6126
  173MOL0     C23264   0.575   6.770   4.174 -0.0870  0.0342 -0.0706
  173MOL0    Cl23265   0.516   6.818   4.335  0.2414  0.1202  0.0125
  173MOL0     C23266   1.521   7.463   4.104  0.1459 -0.8366 -0.6898
  173MOL0     C23267   1.627   7.501   4.030  1.1400 -0.3113  0.1714
  173MOL0     O23268   1.938   7.522   4.179 -0.0687 -0.0320 -0.1853
  173MOL0     C23269   2.036   7.665   3.872 -0.2548 -0.3984  0.3001
  173MOL0     C23270   2.137   7.755   3.818 -0.0436  0.4406 -0.2319
  173MOL0     N23271   2.703   7.820   4.120 -0.6208 -0.1952  0.3542
  173MOL0     N23272   2.783   7.722   4.150  0.1122 -0.3206  0.7303
  173MOL0     C23273   4.034   7.632   4.039 -0.5826 -0.0620  0.4640
  173MOL0     C23274   4.171   7.621   4.040 -0.2463 -0.1000  1.1206
  173MOL0     C23275   4.581   7.423   3.957  0.4958  0.9602 -1.4635
  173MOL0     C23276   4.669   7.475   4.058  0.8618  0.4618  0.1477
  173MOL0     C23277   4.807   7.454   4.054 -0.3543  0.1213  0.1207
  173MOL0     C23278   4.869   7.390   3.946  0.7522 -0.1424  0.1888
  173MOL0     O23279   5.006   7.373   3.940  0.2622  0.4565  0.1727
  173MOL0     C23280   5.073   7.353   3.818 -1.0951 -0.2772 -0.3928
  173MOL0     C23281   5.215   7.415   3.848 -0.2311 -0.3240 -0.0783
  173MOL0     C23282   5.320   7.381   3.740 -0.1404  0.3993  0.2971
  173MOL0     C23283   5.445   7.458   3.749 -0.0450 -0.5712 -0.7138
  173MOL0     C23284   5.529   7.418   3.862 -0.4153 -0.1600 -0.1605
  173MOL0     C23285   5.607   7.414   3.952 -0.0822 -0.3328 -0.3507
  173MOL0     C23286   4.783   7.332   3.846  0.2651  0.6208  0.0714
  173MOL0     C23287   4.643   7.340   3.860  0.2121  0.0891 -0.1367
  173MOL0     H23288   4.211   7.309   4.160  0.5794 -0.5171 -2.8492
  173MOL0     H23289   3.970   7.306   4.149  1.0611 -0.7509 -0.1498
  173MOL0     H23290   3.775   7.722   4.059 -0.6568  2.7070 -4.5428
  173MOL0     H23291   3.729   7.639   3.916 -0.6575  1.5464  0.5244
  173MOL0     H23292   3.543   7.721   4.035  1.1752  1.4744  1.1722
  173MOL0     H23293   3.546   7.538   4.025  0.3189  1.2760 -2.1725
  173MOL0     H23294   3.649   7.550   4.270 -1.5863 -0.8550  3.5498
  173MOL0     H23295   3.556   7.705   4.267  0.6789  0.0144  0.9506
  173MOL0     H23296   3.419   7.441   4.206  1.7889 -1.0580  0.9865
  173MOL0     H23297   3.428   7.514   4.366  1.5210 -1.5092  0.1278
  173MOL0     H23298   3.335   7.734   4.254 -0.5324 -0.5421  1.3240
  173MOL0     H23299   3.294   7.628   4.117  4.9392 -0.1506 -0.6980
  173MOL0     H23300   3.166   7.488   4.284 -0.2391  0.7056 -0.8154
  173MOL0     H23301   3.203   7.617   4.412  3.7738  2.8553 -0.4777
  173MOL0     H23302   2.984   7.678   4.328  0.2822  1.7353  0.9906
  173MOL0     H23303   3.099   7.794   4.271 -3.3607  1.1451 -3.2007
  173MOL0     H23304   3.041   7.570   4.080  2.0776  0.2650 -3.4576
  173MOL0     H23305   3.099   7.735   4.063 -1.6404  1.1828 -0.4967
  173MOL0     H23306   2.972   7.898   3.952 -1.1481  2.6728  0.2403
  173MOL0     H23307   2.638   8.066   4.042  0.3811  0.3652 -0.4814
  173MOL0     H23308   2.799   8.120   3.989 -0.4655  0.6599 -3.2238
  173MOL0     H23309   2.744   7.967   3.777  0.3401  1.1211 -0.6482
  173MOL0     H23310   2.702   8.135   3.792 -3.5231  0.6516 -0.7531
  173MOL0     H23311   2.528   7.999   3.695 -0.8797 -0.1713  0.0606
  173MOL0     H23312   2.485   8.084   3.845 -1.4742 -1.7242  0.3580
  173MOL0     H23313   2.492   7.864   3.966 -1.8488  1.0394 -0.3561
  173MOL0     H23314   2.548   7.785   3.813 -1.4623  2.2069 -4.7427
  173MOL0     H23315   2.391   7.684   4.020 -0.4995  1.9227  1.1703
  173MOL0     H23316   2.218   7.568   4.258  0.1407  1.0870 -0.3992
  173MOL0     H23317   2.180   7.425   4.167 -1.5720  0.4141 -2.1886
  173MOL0     H23318   2.347   7.487   4.161 -1.3075 -2.8591  2.1390
  173MOL0     H23319   1.838   7.249   4.113  1.0631  2.3719  0.8471
  173MOL0     H23320   1.631   7.151   4.201 -2.1748  0.7849  0.2971
  173MOL0     H23321   1.359   7.124   4.121  3.5953 -3.8571  2.1528
  173MOL0     H23322   1.402   7.091   4.287 -1.8813 -4.0452 -2.1362
  173MOL0     H23323   1.178   7.152   4.346 -0.3857  1.9034  0.2971
  173MOL0     H23324   1.153   7.256   4.210  1.3004 -0.7572  0.5454
  173MOL0     H23325   1.167   6.960   4.214 -1.7567 -1.4223 -2.0938
  173MOL0     H23326   1.149   7.057   4.066 -1.0361 -0.6632 -0.5744
  173MOL0     H23327   0.955   7.070   4.294  1.6026 -0.7336  1.0213
  173MOL0     H23328   0.934   7.122   4.137  1.4817 -0.2897 -0.6385
  173MOL0     H23329   0.976   6.841   4.228 -0.9526  0.4985  1.7869
  173MOL0     H23330   0.966   6.861   4.053 -1.4241 -1.2988  0.8586
  173MOL0     H23331   0.758   6.958   4.253 -0.0435 -1.7933  0.1029
  173MOL0     H23332   0.753   6.975   4.079  0.2384 -0.5885 -0.5177
  173MOL0     H23333   0.771   6.712   4.245 -1.9562 -2.4347  0.6552
  173MOL0     H23334   0.757   6.725   4.069  4.8176  1.3963  0.6987
  173MOL0     H23335   0.527   6.675   4.150 -5.1698  1.7244  1.9272
  173MOL0     H23336   0.526   6.835   4.100 -1.6712 -1.1826 -0.1382
  173MOL0     H23337   1.429   7.518   4.120  1.9522  2.8035 -1.8196
  173MOL0     H23338   1.621   7.600   3.985 -2.4547 -0.7242 -0.6096
  173MOL0     H23339   1.934   7.667   3.837 -1.3860  3.1888  3.1029
  173MOL0     H23340   2.121   7.809   3.725  1.0623  0.6882 -0.2832
  173MOL0     H23341   3.982   7.721   4.003  0.5046  0.3300 -0.1898
  173MOL0     H23342   4.232   7.703   4.006 -1.7328  1.0430  1.1153
  173MOL0     H23343   4.633   7.542   4.135  1.1362  1.6204 -0.7095
  173MOL0     H23344   4.878   7.483   4.130 -2.1757 -0.6677  2.2556
  173MOL0     H23345   5.080   7.246   3.798 -0.3505 -0.5422  1.1113
  173MOL0     H23346   5.037   7.413   3.734  1.9868  1.9340 -0.2822
  173MOL0     H23347   5.242   7.355   3.935 -1.9575 -1.1551 -0.0820
  173MOL0     H23348   5.207   7.524   3.862 -2.1143 -0.1274 -2.1926
  173MOL0     H23349   5.281   7.388   3.638 -0.4238 -1.4136  0.2405
  173MOL0     H23350   5.344   7.276   3.760  0.7652  0.3378 -0.9554
  173MOL0     H23351   5.426   7.566   3.756  0.1233 -0.6288  0.9114
  173MOL0     H23352   5.506   7.433   3.661  0.5461 -1.1503 -0.1402
  173MOL0     H23353   5.661   7.406   4.044  0.7181 -0.1542 -0.7902
  173MOL0     H23354   4.824   7.269   3.768 -0.5035  1.1011 -0.7387
  173MOL0     H23355   4.585   7.302   3.776  0.4566 -0.0230 -0.2540
  174MOL0     O23356   9.406   4.439   1.688  0.3333 -0.0547  1.0216
  174MOL0     C23357   9.483   4.377   1.614  0.3610  0.3182 -0.4316
  174MOL0     O23358   9.433   4.272   1.536  0.3432  0.2183 -0.8168
  174MOL0     C23359   9.297   4.243   1.525 -0.5365 -0.1536  0.2594
  174MOL0     C23360   9.257   4.115   1.482  0.5581 -0.0231 -0.4465
  174MOL0     C23361   9.123   4.080   1.466 -0.3177 -0.5211  0.1549
  174MOL0     C23362   9.023   4.176   1.487  0.0697 -0.2392 -0.5888
  174MOL0     O23363   8.897   4.132   1.475  0.1384  0.2928  0.5354
  174MOL0     C23364   8.784   4.220   1.503 -0.6857 -0.0706 -0.1916
  174MOL0     C23365   8.730   4.300   1.390 -0.0503  0.0222 -0.0195
  174MOL0     C23366   8.617   4.391   1.428  1.1919 -0.7254  0.5066
  174MOL0     C23367   8.494   4.302   1.472 -0.6739 -0.3496 -0.0713
  174MOL0     C23368   8.379   4.386   1.496  0.0421 -0.2556 -0.1101
  174MOL0     C23369   8.392   4.478   1.623 -0.2550 -1.1123 -0.0029
  174MOL0     C23370   8.269   4.581   1.625  0.8672  0.1365 -0.4712
  174MOL0     C23371   8.154   4.546   1.723 -0.3201  0.4813 -0.9205
  174MOL0     N23372   8.041   4.637   1.727 -0.2510  0.3009  0.0642
  174MOL0     C23373   7.998   4.711   1.830 -0.4246 -0.2980  0.3991
  174MOL0     C23374   7.882   4.765   1.792  0.8833 -0.1271 -0.0847
  174MOL0     C23375   7.788   4.860   1.869 -0.5608  0.1995 -0.0899
  174MOL0     C23376   7.637   4.850   1.815 -0.5813  0.0779 -0.2079
  174MOL0     C23377   7.543   4.919   1.909  0.7647  0.6764  0.4189
  174MOL0     C23378   7.401   4.936   1.855 -0.5227  0.0528 -0.0933
  174MOL0     O23379   7.325   4.989   1.965 -0.2384 -0.3302 -0.5097
  174MOL0     C23380   7.195   5.030   1.946 -0.1637  0.4700 -0.2672
  174MOL0     C23381   7.137   5.077   2.070  0.1068  0.2763  0.0247
  174MOL0     C23382   6.999   5.124   2.066 -0.3770  0.5125  0.4836
  174MOL0     C23383   6.942   5.168   2.200  0.9840 -0.2299 -1.2812
  174MOL0     C23384   6.927   5.130   1.947  0.1363 -0.7308 -1.1231
  174MOL0     C23385   6.789   5.182   1.943 -0.0995 -1.0856 -0.6018
  174MOL0     O23386   6.704   5.110   1.862  0.4345 -0.6612 -0.0969
  174MOL0     C23387   6.579   5.152   1.831  0.2269  0.5714 -0.8349
  174MOL0     C23388   6.542   5.284   1.811 -0.9684  0.2404 -0.0274
  174MOL0     C23389   6.410   5.325   1.787 -0.2246  0.5945  0.2428
  174MOL0     C23390   6.311   5.225   1.765  0.4566 -0.6491  0.6701
  174MOL0     O23391   6.183   5.251   1.728 -0.2866 -0.2921 -0.2131
  174MOL0     C23392   6.130   5.380   1.772  0.6350 -0.2367 -0.1317
  174MOL0     C23393   5.977   5.382   1.759 -0.5367  0.8952  0.2110
  174MOL0     C23394   5.907   5.271   1.836  0.0639 -0.3677  0.2137
  174MOL0     C23395   5.749   5.286   1.847  0.0417 -0.1773  0.2217
  174MOL0     C23396   5.668   5.286   1.714 -0.2239 -0.0696 -0.1183
  174MOL0     C23397   5.648   5.139   1.679  0.9170 -0.5922  1.1357
  174MOL0     C23398   5.589   5.125   1.530  0.2822 -0.9054  0.6691
  174MOL0     C23399   5.630   4.980   1.499  0.1090 -1.2630 -0.8679
  174MOL0    Cl23400   5.539   4.936   1.347 -0.4678  0.2469  0.3306
  174MOL0     C23401   6.349   5.090   1.771 -0.2655  0.2620  0.1358
  174MOL0     C23402   6.487   5.050   1.806 -0.0623 -0.2996  0.3107
  174MOL0     O23403   6.757   5.278   2.009  0.0583 -0.5756 -0.1656
  174MOL0     C23404   6.993   5.082   1.830  0.7721  0.7718  0.0661
  174MOL0     C23405   7.117   5.033   1.830  0.0964 -0.2351  0.1403
  174MOL0     N23406   7.859   4.727   1.661  0.2861 -0.6939  0.0937
  174MOL0     N23407   7.953   4.643   1.624 -0.3683  0.0308 -0.2516
  174MOL0     C23408   9.057   4.309   1.521 -0.2344  0.0566 -0.2377
  174MOL0     C23409   9.195   4.342   1.528 -0.0374  0.2467  0.8162
  174MOL0     C23410   9.618   4.406   1.608  0.9715 -0.0480  0.5294
  174MOL0     C23411   9.697   4.331   1.514  0.6771  0.3023 -0.8187
  174MOL0     C23412   9.832   4.351   1.509  0.8238 -0.2480  0.5824
  174MOL0     C23413   9.903   4.456   1.575  0.0233  0.5313 -0.5775
  174MOL0     O23414  10.031   4.474   1.552  0.3100  0.9064  0.0253
  174MOL0     C23415  10.099   4.570   1.621  0.2208 -0.9965 -0.7947
  174MOL0     C23416  10.235   4.581   1.559 -0.2734 -0.6836  0.4484
  174MOL0     C23417  10.337   4.665   1.619  0.3419 -0.0192 -0.0058
  174MOL0     C23418  10.298   4.819   1.631  0.0749  0.0608 -0.6021
  174MOL0     C23419  10.403   4.900   1.687 -0.1067 -0.9328  0.0172
  174MOL0     C23420  10.495   4.972   1.715  1.2502  0.0988 -0.3160
  174MOL0     C23421   9.821   4.533   1.662  0.1931 -0.3688 -0.7756
  174MOL0     C23422   9.683   4.511   1.682 -0.3873  0.5084  0.1064
  174MOL0     H23423   9.332   4.039   1.460  1.9207  0.5027  1.9844
  174MOL0     H23424   9.101   3.976   1.441  0.9840 -0.7468 -0.1210
  174MOL0     H23425   8.704   4.152   1.533  0.4807 -0.8173  1.3458
  174MOL0     H23426   8.802   4.289   1.586 -2.5614  0.7607 -0.4364
  174MOL0     H23427   8.805   4.356   1.335  0.1881  0.2287  0.5158
  174MOL0     H23428   8.693   4.231   1.313  1.7600  1.0393 -1.8828
  174MOL0     H23429   8.650   4.460   1.506 -0.0853  2.1547 -1.3532
  174MOL0     H23430   8.586   4.451   1.342  0.6224 -1.9093 -0.1395
  174MOL0     H23431   8.469   4.223   1.400 -2.1935 -0.5900  0.6723
  174MOL0     H23432   8.509   4.258   1.570 -0.3519  0.7952  0.4167
  174MOL0     H23433   8.357   4.445   1.407 -0.7224  0.1772  0.3484
  174MOL0     H23434   8.289   4.326   1.511 -2.6654  3.1792 -1.2288
  174MOL0     H23435   8.396   4.415   1.712  2.1639  2.3013  2.5960
  174MOL0     H23436   8.485   4.536   1.624  0.1657 -1.6676 -1.9852
  174MOL0     H23437   8.316   4.677   1.649  1.2620 -0.6007  2.0331
  174MOL0     H23438   8.218   4.583   1.528  0.7575 -4.0259 -0.6658
  174MOL0     H23439   8.191   4.535   1.826  0.7325 -1.7652 -1.4729
  174MOL0     H23440   8.126   4.444   1.695 -0.9223  0.2144  0.5342
  174MOL0     H23441   8.056   4.723   1.921 -1.2560 -2.7990  1.3256
  174MOL0     H23442   7.793   4.837   1.976  2.2502  0.1456 -0.1669
  174MOL0     H23443   7.824   4.962   1.859  2.3035 -0.7586 -0.3876
  174MOL0     H23444   7.605   4.748   1.794  3.0015 -1.1018 -0.6542
  174MOL0     H23445   7.631   4.905   1.720 -0.2449  2.8705  1.2859
  174MOL0     H23446   7.582   5.021   1.920  1.5990  0.4470 -0.2862
  174MOL0     H23447   7.553   4.867   2.005  0.3471  1.7607  1.0731
  174MOL0     H23448   7.375   4.832   1.836  1.4322 -0.5409  0.2803
  174MOL0     H23449   7.406   4.995   1.763 -2.6606 -3.1049 -2.4272
  174MOL0     H23450   7.199   5.081   2.158 -0.7603 -0.4732  0.6917
  174MOL0     H23451   6.966   5.275   2.202  1.8902 -0.4232 -1.2183
  174MOL0     H23452   6.836   5.152   2.217  1.3237 -3.2730 -1.5356
  174MOL0     H23453   6.996   5.125   2.285 -0.9927  0.5233  0.4305
  174MOL0     H23454   6.619   5.359   1.823  2.4193 -2.8609 -0.4572
  174MOL0     H23455   6.385   5.430   1.786  0.8848  0.8610 -0.0771
  174MOL0     H23456   6.158   5.396   1.877 -0.3030  3.2674 -0.3216
  174MOL0     H23457   6.166   5.469   1.721 -1.1679  0.1214 -0.8284
  174MOL0     H23458   5.930   5.479   1.778 -1.6726  0.0550  1.9366
  174MOL0     H23459   5.962   5.362   1.653 -3.8432  2.7496  0.1986
  174MOL0     H23460   5.952   5.271   1.936  1.7434  1.1745 -0.4943
  174MOL0     H23461   5.930   5.169   1.801 -0.6971 -1.3850  2.4600
  174MOL0     H23462   5.708   5.221   1.925 -0.4886  0.7997  0.7802
  174MOL0     H23463   5.737   5.382   1.898 -1.4878 -1.2379  2.0210
  174MOL0     H23464   5.725   5.329   1.631  4.5204 -3.6090  0.8522
  174MOL0     H23465   5.574   5.335   1.743  0.5901 -0.0381  2.8083
  174MOL0     H23466   5.741   5.080   1.682  0.7608 -1.0642 -1.2330
  174MOL0     H23467   5.581   5.093   1.752  1.1343  1.6369  2.8395
  174MOL0     H23468   5.634   5.197   1.461  0.5433 -2.3527 -0.7420
  174MOL0     H23469   5.480   5.132   1.543  0.5231 -0.4699  2.8058
  174MOL0     H23470   5.592   4.923   1.584  0.6813  1.1312  1.1372
  174MOL0     H23471   5.739   4.969   1.500  0.3109  0.2194  1.5357
  174MOL0     H23472   6.273   5.014   1.755  2.0334 -2.4544  1.1760
  174MOL0     H23473   6.510   4.947   1.828 -0.9664 -0.5334  0.1779
  174MOL0     H23474   6.933   5.078   1.739 -0.7596  0.8131  1.0417
  174MOL0     H23475   7.161   4.992   1.739 -1.9646 -0.2278 -0.9222
  174MOL0     H23476   8.994   4.396   1.540  0.2102  0.5624 -1.0216
  174MOL0     H23477   9.224   4.445   1.545 -2.7957  1.4653 -1.0927
  174MOL0     H23478   9.657   4.239   1.471 -3.8941  1.0598  1.1705
  174MOL0     H23479   9.877   4.294   1.428  0.8518  0.5683  0.0107
  174MOL0     H23480  10.046   4.666   1.614 -0.6398 -1.4458 -0.6290
  174MOL0     H23481  10.096   4.536   1.725  0.2877  1.0899 -0.0562
  174MOL0     H23482  10.215   4.600   1.453 -2.3956  0.1567  0.9535
  174MOL0     H23483  10.279   4.482   1.543  5.1330  1.5088 -0.6076
  174MOL0     H23484  10.420   4.666   1.548  0.6681  0.5069  0.3720
  174MOL0     H23485  10.348   4.620   1.718 -0.7040 -2.7254 -1.0370
  174MOL0     H23486  10.211   4.817   1.696  1.4239  0.6189  1.2950
  174MOL0     H23487  10.266   4.861   1.535 -3.6716 -1.9034 -0.3828
  174MOL0     H23488  10.581   5.030   1.745 -0.0898  0.1999  3.9600
  174MOL0     H23489   9.857   4.626   1.705  0.1735  0.5429 -2.6280
  174MOL0     H23490   9.626   4.579   1.744  0.5657  0.7020  0.7852
  175MOL0     O23491   3.433   8.456  10.292  0.3950 -0.7291  0.0120
  175MOL0     C23492   3.457   8.467  10.414 -0.2055  0.3273  0.4883
  175MOL0     O23493   3.357   8.477  10.506  0.2439  0.1378  0.1123
  175MOL0     C23494   3.222   8.483  10.471 -0.7083 -1.4808 -0.2153
  175MOL0     C23495   3.148   8.371  10.492  0.2037  0.2144  0.4088
  175MOL0     C23496   3.014   8.383  10.471  0.0022  1.0314 -0.2787
  175MOL0     C23497   2.951   8.489  10.420 -0.1083 -0.2479 -0.0696
  175MOL0     O23498   2.821   8.465  10.380  0.2919 -0.2364  0.0574
  175MOL0     C23499   2.746   8.576  10.363  0.5385 -0.2765 -0.5240
  175MOL0     C23500   2.603   8.540  10.315  0.6347  0.9806 -0.0766
  175MOL0     C23501   2.509   8.665  10.308 -0.4280  0.4251 -0.3413
  175MOL0     C23502   2.378   8.624  10.245  0.0627 -0.0651  0.3381
  175MOL0     C23503   2.281   8.747  10.238 -0.1800 -0.3702  0.1904
  175MOL0     C23504   2.158   8.682  10.168  0.0401  0.5570 -0.6003
  175MOL0     C23505   2.050   8.789  10.155  0.4678  0.0634  0.1399
  175MOL0     C23506   1.933   8.752  10.059 -0.2104 -0.1472 -0.2062
  175MOL0     N23507   1.838   8.871  10.054 -0.3063  0.5121 -0.9735
  175MOL0     C23508   1.742   8.895  10.143  0.4318 -0.4105 -0.0310
  175MOL0     C23509   1.681   9.011  10.105 -0.9137  0.1367  1.0038
  175MOL0     C23510   1.584   9.090  10.186  0.5473 -0.1979  0.4479
  175MOL0     C23511   1.647   9.215  10.249 -0.6036 -0.4640 -0.6462
  175MOL0     C23512   1.555   9.255  10.366  0.4683 -0.1336 -0.0310
  175MOL0     C23513   1.445   9.348  10.308 -0.1831  0.4463 -0.7683
  175MOL0     O23514   1.368   9.399  10.410  0.3689  0.5242 -0.5898
  175MOL0     C23515   1.229   9.393  10.393  0.0290  0.3304  0.5565
  175MOL0     C23516   1.158   9.514  10.380 -0.1397  0.1473  0.0752
  175MOL0     C23517   1.012   9.520  10.391 -0.6841 -0.0931 -0.3914
  175MOL0     C23518   0.969   9.662  10.369 -0.8606 -0.2018  0.6788
  175MOL0     C23519   0.941   9.404  10.429 -0.3389 -0.2004 -0.1086
  175MOL0     C23520   0.798   9.410  10.457  0.0142  0.6748 -0.8243
  175MOL0     O23521   0.745   9.282  10.465 -0.4307 -0.9014  0.3859
  175MOL0     C23522   0.605   9.261  10.462  0.1310 -0.6992 -0.1776
  175MOL0     C23523   0.526   9.262  10.346 -0.2275 -0.1473  0.3418
  175MOL0     C23524   0.390   9.240  10.349  0.0992 -0.2956  0.0872
  175MOL0     C23525   0.326   9.208  10.467 -0.2650  0.3193 -1.1580
  175MOL0     O23526   0.202   9.173  10.476 -0.2904 -0.1068  0.5368
  175MOL0     C23527   0.107   9.210  10.383  0.0482 -1.0156  0.0841
  175MOL0     C23528  -0.042   9.183  10.431  0.3161  0.1130  0.8162
  175MOL0     C23529  -0.070   9.026  10.441  0.0479 -0.2661 -0.1241
  175MOL0     C23530  -0.218   8.997  10.409  0.2353 -0.3369  0.3200
  175MOL0     C23531  -0.319   9.018  10.524  0.5860  0.4784  0.1089
  175MOL0     C23532  -0.448   8.933  10.502  0.1038 -0.2037 -0.3166
  175MOL0     C23533  -0.544   8.957  10.620 -0.1038 -0.4015  0.6770
  175MOL0     C23534  -0.648   8.844  10.625  0.7166  0.4267  1.0385
  175MOL0    Cl23535  -0.562   8.688  10.656 -0.3964 -0.0021 -0.0069
  175MOL0     C23536   0.403   9.204  10.587  0.3909 -0.3983  0.5291
  175MOL0     C23537   0.535   9.240  10.583 -0.6212 -0.3012 -1.0815
  175MOL0     O23538   0.729   9.512  10.473  0.5472 -0.1166 -0.5027
  175MOL0     C23539   1.021   9.288  10.456 -0.0323 -0.0762 -0.8860
  175MOL0     C23540   1.159   9.289  10.445 -0.2213 -0.0376 -0.8592
  175MOL0     N23541   1.765   9.065  10.007  0.0180  0.0829 -0.3337
  175MOL0     N23542   1.851   8.976   9.970 -0.2618 -0.5014  0.7065
  175MOL0     C23543   3.031   8.601  10.399  0.6707 -0.3095 -0.7782
  175MOL0     C23544   3.165   8.607  10.435  0.4685  0.2251  0.1759
  175MOL0     C23545   3.596   8.479  10.466  0.5219  0.2261 -0.5471
  175MOL0     C23546   3.700   8.428  10.389 -0.3466 -0.7010  0.3944
  175MOL0     C23547   3.826   8.456  10.442  0.2359  0.8820  0.2233
  175MOL0     C23548   3.854   8.516  10.561  0.5484 -0.1214 -0.1204
  175MOL0     O23549   3.989   8.546  10.594  0.9075  0.2968  0.1225
  175MOL0     C23550   4.070   8.619  10.492 -0.2916 -0.3016 -0.8089
  175MOL0     C23551   4.203   8.642  10.558 -0.0219 -0.4731  0.3868
  175MOL0     C23552   4.298   8.725  10.471 -0.4929 -0.3819 -0.5446
  175MOL0     C23553   4.389   8.636  10.375  0.4645  0.2678 -0.7855
  175MOL0     C23554   4.530   8.680  10.359  0.4197  0.1618 -0.5419
  175MOL0     C23555   4.645   8.718  10.361 -0.0063 -0.2858  0.5429
  175MOL0     C23556   3.743   8.550  10.644 -0.9307  0.6962 -1.1956
  175MOL0     C23557   3.617   8.532  10.594 -0.1772  0.6606  1.0110
  175MOL0     H23558   3.202   8.285  10.530  2.4884  0.5041 -1.9745
  175MOL0     H23559   2.943   8.302  10.483 -0.1150  1.2564  0.6830
  175MOL0     H23560   2.749   8.628  10.459  2.7858 -0.6767 -0.3312
  175MOL0     H23561   2.791   8.646  10.292  0.2421  0.6530  0.1779
  175MOL0     H23562   2.612   8.500  10.214 -0.5005 -0.8332  0.4998
  175MOL0     H23563   2.566   8.466  10.386  1.9488  1.5703  1.2843
  175MOL0     H23564   2.511   8.701  10.411 -2.3045  2.2332 -0.8953
  175MOL0     H23565   2.564   8.737  10.246  2.8948  0.0116  1.8545
  175MOL0     H23566   2.401   8.583  10.146 -0.4594 -1.9021  0.9340
  175MOL0     H23567   2.325   8.544  10.297 -3.2230  0.4223 -1.9151
  175MOL0     H23568   2.264   8.784  10.339  1.7824  0.1136  0.3847
  175MOL0     H23569   2.321   8.830  10.178  2.0135 -0.5048  1.3691
  175MOL0     H23570   2.184   8.638  10.071 -0.2217 -0.4950 -0.2108
  175MOL0     H23571   2.120   8.601  10.232  3.6143  0.8919  2.2907
  175MOL0     H23572   2.009   8.804  10.255  0.3227  1.2270 -0.0898
  175MOL0     H23573   2.098   8.881  10.121 -0.7496  1.4902  2.0580
  175MOL0     H23574   1.873   8.678  10.112 -2.0959  2.0230  0.8241
  175MOL0     H23575   1.972   8.712   9.965  1.8458 -0.6013  0.7774
  175MOL0     H23576   1.708   8.835  10.227  1.4783 -2.1193 -0.7799
  175MOL0     H23577   1.499   9.117  10.123  2.0810  1.3788 -1.0237
  175MOL0     H23578   1.553   9.018  10.263 -0.5128 -2.9681 -2.3202
  175MOL0     H23579   1.665   9.302  10.186  0.8485  2.2365  3.0910
  175MOL0     H23580   1.745   9.186  10.290 -0.1289 -1.0031 -2.0684
  175MOL0     H23581   1.614   9.293  10.450  1.3619  1.0403 -1.1537
  175MOL0     H23582   1.500   9.176  10.420 -0.7176  0.3318 -0.5201
  175MOL0     H23583   1.377   9.284  10.251  0.9380 -0.8551 -0.7023
  175MOL0     H23584   1.485   9.430  10.248 -0.6649 -0.1074 -1.8793
  175MOL0     H23585   1.217   9.604  10.364 -1.0391  1.2348  2.3154
  175MOL0     H23586   0.869   9.665  10.324 -1.6437  0.7142  2.3640
  175MOL0     H23587   0.951   9.720  10.460 -3.9484 -1.2380  0.8336
  175MOL0     H23588   1.032   9.720  10.301 -2.6959  1.7547  0.5356
  175MOL0     H23589   0.582   9.270  10.253  0.1183 -0.2714  0.5383
  175MOL0     H23590   0.350   9.230  10.249 -1.2494  1.8204  0.3592
  175MOL0     H23591   0.116   9.316  10.358  1.4357 -0.3655  2.8338
  175MOL0     H23592   0.123   9.154  10.290 -0.0870  0.8970 -1.1307
  175MOL0     H23593  -0.055   9.236  10.525  0.1760  0.9042  0.3553
  175MOL0     H23594  -0.120   9.233  10.373  0.2284  0.6311  1.3772
  175MOL0     H23595  -0.042   8.975  10.534 -0.2380 -2.2809 -1.0795
  175MOL0     H23596  -0.015   8.988  10.354  1.1556  0.5878  0.1895
  175MOL0     H23597  -0.261   9.036  10.317  1.4899 -0.9097 -0.5317
  175MOL0     H23598  -0.218   8.888  10.394  0.7169 -0.7396  2.8109
  175MOL0     H23599  -0.347   9.124  10.520 -0.4437  0.2053 -0.2249
  175MOL0     H23600  -0.275   8.991  10.620 -0.9207  1.1878  1.0213
  175MOL0     H23601  -0.477   8.963  10.401  1.7753  1.5669 -0.3314
  175MOL0     H23602  -0.421   8.826  10.503  0.8991 -0.0085  0.6894
  175MOL0     H23603  -0.597   9.053  10.609  1.1198  0.3033  0.7400
  175MOL0     H23604  -0.485   8.967  10.712 -0.2844 -0.6571  0.8235
  175MOL0     H23605  -0.697   8.852  10.527  0.1446  2.8402  1.4391
  175MOL0     H23606  -0.728   8.866  10.696 -0.2773 -0.5267  0.2550
  175MOL0     H23607   0.365   9.161  10.679  2.1866 -1.9512  0.5993
  175MOL0     H23608   0.585   9.252  10.678 -4.4717 -1.3781  1.3171
  175MOL0     H23609   0.986   9.198  10.506  1.6143  0.4902  1.4190
  175MOL0     H23610   1.221   9.210  10.485  2.0534  2.7864  1.7009
  175MOL0     H23611   2.985   8.696  10.376 -3.1237 -1.3122  1.7241
  175MOL0     H23612   3.220   8.701  10.435  2.1243 -0.6172  3.2226
  175MOL0     H23613   3.683   8.362  10.304 -1.8916 -1.2867  1.1185
  175MOL0     H23614   3.903   8.410  10.382 -0.6998  0.7848 -0.9572
  175MOL0     H23615   4.081   8.555  10.404  1.3445 -0.2580 -0.6649
  175MOL0     H23616   4.032   8.715  10.457 -0.6146 -0.8128 -1.9216
  175MOL0     H23617   4.239   8.542  10.586 -2.8604 -0.9869  2.5909
  175MOL0     H23618   4.165   8.691  10.648 -2.6097  0.1506 -0.9502
  175MOL0     H23619   4.380   8.783  10.515  1.2955 -2.3028 -1.1879
  175MOL0     H23620   4.246   8.799  10.410 -1.2587  0.5529  1.1777
  175MOL0     H23621   4.339   8.642  10.278  3.0919 -0.3168 -2.2427
  175MOL0     H23622   4.382   8.532  10.408 -1.0228 -0.2165 -2.4333
  175MOL0     H23623   4.750   8.734  10.344 -0.1827 -1.5453 -2.1835
  175MOL0     H23624   3.752   8.602  10.739  0.7658 -0.5322 -0.6522
  175MOL0     H23625   3.533   8.549  10.660 -1.8583 -1.1265 -0.5554
  176MOL0     O23626   4.864  10.645   4.608  0.0722 -0.3612 -0.0798
  176MOL0     C23627   4.921  10.534   4.614 -0.4837 -0.4083 -0.1796
  176MOL0     O23628   4.860  10.415   4.613 -0.4163 -0.0005 -0.4241
  176MOL0     C23629   4.723  10.403   4.616  0.6456 -0.2058 -0.8556
  176MOL0     C23630   4.630  10.504   4.668 -0.2789  0.8517  0.5412
  176MOL0     C23631   4.495  10.484   4.649 -0.1145 -0.7489  0.0266
  176MOL0     C23632   4.440  10.364   4.606 -0.0507 -0.5987 -0.3416
  176MOL0     O23633   4.297  10.354   4.598 -0.0152 -0.4227 -0.1862
  176MOL0     C23634   4.239  10.287   4.707 -0.2120  0.5436  0.1173
  176MOL0     C23635   4.099  10.322   4.724 -0.4281 -0.3704  0.1423
  176MOL0     C23636   4.014  10.222   4.636 -0.6311  0.1241 -0.7184
  176MOL0     C23637   3.871  10.277   4.639  1.0289 -0.0248 -0.0078
  176MOL0     C23638   3.772  10.173   4.586 -0.0521 -0.3876  0.3338
  176MOL0     C23639   3.626  10.219   4.626  0.0599  0.5357 -0.1808
  176MOL0     C23640   3.526  10.101   4.618 -0.5871 -0.1214  0.2110
  176MOL0     C23641   3.379  10.159   4.623  0.4013  0.3523 -0.4833
  176MOL0     N23642   3.324  10.243   4.517  0.5272  0.1008 -0.8481
  176MOL0     C23643   3.364  10.225   4.385  0.1568  0.3556  0.2333
  176MOL0     C23644   3.254  10.265   4.309 -0.5972  0.0802  0.2683
  176MOL0     C23645   3.227  10.243   4.166  0.6492 -0.0265  0.1120
  176MOL0     C23646   3.109  10.138   4.138 -0.9303  0.1485  0.7096
  176MOL0     C23647   2.971  10.196   4.137  0.0389 -0.2621 -0.0053
  176MOL0     C23648   2.860  10.094   4.121  0.6824 -0.9262  0.1657
  176MOL0     O23649   2.739  10.173   4.109 -0.3980 -0.2043  0.5216
  176MOL0     C23650   2.618  10.110   4.122  0.6121 -0.2894  0.7126
  176MOL0     C23651   2.507  10.195   4.108 -0.5998 -0.3490  0.0188
  176MOL0     C23652   2.379  10.153   4.129  0.6091 -0.5011 -0.4115
  176MOL0     C23653   2.275  10.267   4.108  1.1421 -0.4670 -0.1980
  176MOL0     C23654   2.346  10.020   4.153 -0.6981  0.5807  0.0091
  176MOL0     C23655   2.204   9.951   4.143 -0.1856  0.0046 -0.3041
  176MOL0     O23656   2.102  10.033   4.109 -0.3329 -0.0715 -0.0544
  176MOL0     C23657   1.974   9.992   4.071 -0.0645 -0.9570 -0.3515
  176MOL0     C23658   1.906  10.079   3.989  0.6767 -0.5645  0.0955
  176MOL0     C23659   1.768  10.052   3.955 -0.0452  0.1104  0.1865
  176MOL0     C23660   1.710   9.937   4.004 -0.4557 -0.0130  0.6389
  176MOL0     O23661   1.593   9.911   3.946 -0.1579  0.5082 -0.1979
  176MOL0     C23662   1.479   9.859   4.026 -0.5966  0.0908  0.0262
  176MOL0     C23663   1.376   9.970   4.039 -0.1962  0.1911  0.6741
  176MOL0     C23664   1.249   9.920   4.105 -0.2618  0.1242 -0.2822
  176MOL0     C23665   1.156  10.040   4.133  0.0267  0.2646 -0.2610
  176MOL0     C23666   1.040  10.005   4.224  0.0220  0.0952 -0.6258
  176MOL0     C23667   0.945   9.889   4.179  0.6349 -0.1835  0.4081
  176MOL0     C23668   0.815   9.864   4.259 -0.1849 -0.1065 -0.3055
  176MOL0     C23669   0.717   9.982   4.253  0.1204  0.7419  0.2687
  176MOL0    Cl23670   0.622   9.957   4.110  0.2371 -0.5960  0.0243
  176MOL0     C23671   1.766   9.871   4.111  0.2028 -0.1081 -0.9625
  176MOL0     C23672   1.906   9.886   4.135  1.0328 -0.6287 -0.5757
  176MOL0     O23673   2.202   9.828   4.139 -0.5061 -0.0721  0.1074
  176MOL0     C23674   2.459   9.932   4.168 -0.0008 -0.0994 -0.3115
  176MOL0     C23675   2.593   9.974   4.148  0.2527 -0.0834 -0.0354
  176MOL0     N23676   3.153  10.297   4.401 -0.6564  0.2432  0.0720
  176MOL0     N23677   3.194  10.284   4.525 -0.2826  0.5483  0.1525
  176MOL0     C23678   4.526  10.262   4.566 -0.1467 -0.5027  0.2001
  176MOL0     C23679   4.670  10.282   4.578 -0.2344  0.0768  0.6308
  176MOL0     C23680   5.065  10.524   4.615  0.6778  0.1455 -0.1044
  176MOL0     C23681   5.125  10.397   4.618  0.7535 -0.5150  0.4580
  176MOL0     C23682   5.260  10.383   4.593  0.6786 -0.6975 -0.4661
  176MOL0     C23683   5.349  10.498   4.585 -0.2064  0.1329  0.1268
  176MOL0     O23684   5.477  10.487   4.551  0.5003 -0.0782 -0.0947
  176MOL0     C23685   5.519  10.386   4.456  0.7069  0.5907 -0.2458
  176MOL0     C23686   5.641  10.442   4.380  0.3375  0.1622  0.2526
  176MOL0     C23687   5.768  10.435   4.454  0.3036  0.0894 -0.8644
  176MOL0     C23688   5.792  10.538   4.562  0.2362 -0.3852 -0.5353
  176MOL0     C23689   5.934  10.568   4.572  0.2103  0.4415 -0.2064
  176MOL0     C23690   6.053  10.578   4.591  0.2749  0.4845 -0.0850
  176MOL0     C23691   5.295  10.622   4.607  0.3291 -0.7498 -0.6660
  176MOL0     C23692   5.161  10.634   4.620  0.1864  0.3028 -0.5256
  176MOL0     H23693   4.655  10.606   4.695 -2.2273  2.2258 -2.2642
  176MOL0     H23694   4.418  10.555   4.679 -0.3009 -0.5462 -0.9052
  176MOL0     H23695   4.254  10.178   4.705  0.4301  0.6259 -2.4879
  176MOL0     H23696   4.289  10.324   4.797 -0.5183  0.6696  0.2353
  176MOL0     H23697   4.073  10.321   4.830  1.1684  0.5310  0.5638
  176MOL0     H23698   4.089  10.429   4.702 -2.5477  0.3868  3.8861
  176MOL0     H23699   4.045  10.206   4.532 -0.3534 -1.0397 -0.4707
  176MOL0     H23700   4.030  10.126   4.686  2.3491  2.0045  2.3864
  176MOL0     H23701   3.844  10.304   4.742  0.5866 -0.8803  0.1061
  176MOL0     H23702   3.857  10.368   4.580 -1.5177  0.7436  1.6038
  176MOL0     H23703   3.781  10.152   4.479 -0.4851  1.7511 -0.1637
  176MOL0     H23704   3.779  10.075   4.634  0.4800 -0.5440 -0.0403
  176MOL0     H23705   3.625  10.252   4.730 -1.2707  2.9204 -0.8772
  176MOL0     H23706   3.598  10.308   4.568 -1.0588 -0.2790 -0.9387
  176MOL0     H23707   3.538  10.040   4.528 -2.6486 -4.8093  2.7666
  176MOL0     H23708   3.543  10.037   4.705 -2.5852 -2.9610 -1.3483
  176MOL0     H23709   3.370  10.214   4.718  0.5070 -1.3947  0.5862
  176MOL0     H23710   3.316  10.070   4.627 -0.8861  1.2577  1.4084
  176MOL0     H23711   3.455  10.173   4.357 -1.0839 -1.1140 -1.2733
  176MOL0     H23712   3.193  10.338   4.122 -2.2567 -0.1136  1.8695
  176MOL0     H23713   3.320  10.218   4.115  0.8593  2.3042 -0.7673
  176MOL0     H23714   3.113  10.054   4.209  0.5282  0.4186  0.9754
  176MOL0     H23715   3.132  10.094   4.040  4.2745 -1.1519  2.1708
  176MOL0     H23716   2.955  10.264   4.053 -2.9205  0.2492  0.8525
  176MOL0     H23717   2.950  10.265   4.219 -0.0760  2.3352 -2.0902
  176MOL0     H23718   2.854  10.031   4.210  1.7350 -3.2178 -1.2782
  176MOL0     H23719   2.869  10.028   4.034 -1.5194 -0.3932 -0.5248
  176MOL0     H23720   2.532  10.299   4.089 -0.0306 -0.5311 -0.2810
  176MOL0     H23721   2.319  10.367   4.115  0.9192 -0.4727  2.0130
  176MOL0     H23722   2.232  10.267   4.007  0.0230  2.5804  0.1455
  176MOL0     H23723   2.198  10.264   4.186 -0.3606 -0.2568 -1.6249
  176MOL0     H23724   1.939  10.169   3.937 -0.2073 -0.6751 -0.6863
  176MOL0     H23725   1.713  10.111   3.883 -0.4471  1.5195  1.5986
  176MOL0     H23726   1.425   9.774   3.983 -3.5763  0.1392  3.1797
  176MOL0     H23727   1.512   9.829   4.125  1.1635  0.7660 -0.3186
  176MOL0     H23728   1.414  10.060   4.087 -0.9081  0.6151  0.4652
  176MOL0     H23729   1.352  10.001   3.937 -0.6735  3.2724  1.6261
  176MOL0     H23730   1.270   9.860   4.194 -3.0317 -1.1667 -0.3675
  176MOL0     H23731   1.204   9.847   4.036  3.2259 -0.7955 -1.7867
  176MOL0     H23732   1.210  10.127   4.173  0.6564 -0.1026 -0.2970
  176MOL0     H23733   1.122  10.092   4.044 -1.5252  0.6583  0.5218
  176MOL0     H23734   0.982  10.097   4.234  1.3011  0.7018  2.4117
  176MOL0     H23735   1.084   9.969   4.318  1.8531  2.6595 -0.4043
  176MOL0     H23736   0.912   9.915   4.078  0.3864 -0.2888  0.4618
  176MOL0     H23737   1.000   9.794   4.180 -2.9843 -2.4565  1.0060
  176MOL0     H23738   0.839   9.857   4.365  4.2403  2.9434 -0.8426
  176MOL0     H23739   0.776   9.769   4.221  0.9321  0.1782 -2.2695
  176MOL0     H23740   0.788  10.064   4.243  1.0770  0.2811  2.6422
  176MOL0     H23741   0.654  10.009   4.338  3.1808 -0.0014  2.9589
  176MOL0     H23742   1.714   9.793   4.167  0.1320  1.4855  1.3383
  176MOL0     H23743   1.953   9.826   4.213 -0.1504  1.7715  2.1832
  176MOL0     H23744   2.451   9.826   4.189  0.2910  0.3572  2.6669
  176MOL0     H23745   2.680   9.911   4.165  1.3609  1.8995  2.2172
  176MOL0     H23746   4.494  10.164   4.535 -2.6777  0.6420 -1.0777
  176MOL0     H23747   4.738  10.203   4.548  0.1220  0.6595 -0.1193
  176MOL0     H23748   5.067  10.306   4.606  1.1028 -0.7398  0.4638
  176MOL0     H23749   5.302  10.285   4.574  0.5195 -0.9367  0.3765
  176MOL0     H23750   5.540  10.288   4.501  0.8277  1.1034  0.8375
  176MOL0     H23751   5.434  10.378   4.387  0.0740 -0.1215  0.5930
  176MOL0     H23752   5.635  10.548   4.353  2.7153  0.8207  1.9479
  176MOL0     H23753   5.655  10.386   4.287 -0.9151 -0.4747  0.4238
  176MOL0     H23754   5.845  10.439   4.376 -0.2314  1.6678 -1.3631
  176MOL0     H23755   5.781  10.335   4.496 -0.1711  1.5914  3.2954
  176MOL0     H23756   5.752  10.501   4.657 -0.2697  0.2155 -0.5107
  176MOL0     H23757   5.733  10.630   4.555 -1.8500 -1.4332  1.8019
  176MOL0     H23758   6.152  10.580   4.632  1.5963  0.8749 -3.0632
  176MOL0     H23759   5.364  10.706   4.602  1.9061 -1.7321  2.0741
  176MOL0     H23760   5.133  10.739   4.619 -0.4700  0.1471 -2.1084
  177MOL0     O23761   4.841   1.453   5.564 -0.5852 -0.7310 -0.1744
  177MOL0     C23762   4.811   1.347   5.617 -1.1031  0.9007 -0.8655
  177MOL0     O23763   4.874   1.220   5.602 -0.0878  0.8101 -0.0164
  177MOL0     C23764   4.959   1.207   5.500  0.2524 -0.3802 -0.7254
  177MOL0     C23765   5.094   1.248   5.517  0.2206 -0.0929  0.1495
  177MOL0     C23766   5.177   1.244   5.411 -0.3158  0.7277 -0.3191
  177MOL0     C23767   5.140   1.203   5.285  0.3242  0.8963 -0.1933
  177MOL0     O23768   5.249   1.188   5.200 -0.0439  0.5689 -0.1287
  177MOL0     C23769   5.225   1.100   5.086  0.2548 -1.3759 -0.2821
  177MOL0     C23770   5.323   1.151   4.980 -0.1681  0.0495  0.5999
  177MOL0     C23771   5.329   1.059   4.863  0.4209 -0.8605  0.6603
  177MOL0     C23772   5.433   1.101   4.761 -0.4248  0.0836  0.1096
  177MOL0     C23773   5.433   0.988   4.648 -0.5179 -1.1726  0.8578
  177MOL0     C23774   5.553   1.008   4.554 -0.3054 -0.6857 -0.3428
  177MOL0     C23775   5.553   0.917   4.435  0.8525  0.1936 -0.0445
  177MOL0     C23776   5.481   0.991   4.318  0.9985  0.5720  0.0167
  177MOL0     N23777   5.513   0.920   4.196  0.8397  0.7829 -0.6925
  177MOL0     C23778   5.618   0.942   4.114 -0.6882 -0.4618  0.4068
  177MOL0     C23779   5.624   0.829   4.039 -0.1638  0.2939  0.5558
  177MOL0     C23780   5.732   0.792   3.936 -0.4064 -0.3409  0.2113
  177MOL0     C23781   5.691   0.669   3.855  0.1146 -0.7335 -0.3983
  177MOL0     C23782   5.796   0.663   3.743  0.2190  0.1216  0.2166
  177MOL0     C23783   5.759   0.555   3.637 -0.6450  0.7651  0.3358
  177MOL0     O23784   5.622   0.570   3.595 -0.1324  0.6732 -0.3962
  177MOL0     C23785   5.588   0.662   3.496  1.1518 -0.0901 -0.2126
  177MOL0     C23786   5.646   0.672   3.373  0.5696 -0.3098  0.0449
  177MOL0     C23787   5.604   0.766   3.275 -0.2183 -0.1731 -0.4482
  177MOL0     C23788   5.673   0.753   3.134 -0.1646  0.8494 -0.1795
  177MOL0     C23789   5.496   0.852   3.304  0.6502 -0.0001 -1.1804
  177MOL0     C23790   5.454   0.960   3.212 -1.0083 -0.8415 -0.4112
  177MOL0     O23791   5.333   1.014   3.251 -0.0681 -0.6417  0.5685
  177MOL0     C23792   5.269   1.086   3.157  0.7884  0.7008  0.8099
  177MOL0     C23793   5.165   1.021   3.088 -0.3237 -0.1595 -0.2607
  177MOL0     C23794   5.081   1.087   3.002  0.2799 -0.9051  0.1486
  177MOL0     C23795   5.101   1.222   2.973 -0.3482 -0.2382  0.5912
  177MOL0     O23796   5.032   1.287   2.871  0.3237  0.4299  0.3057
  177MOL0     C23797   4.906   1.229   2.824 -0.0966 -0.4056 -0.6443
  177MOL0     C23798   4.799   1.234   2.935  0.3829 -0.1763  0.6799
  177MOL0     C23799   4.663   1.194   2.885  0.5463 -0.1608  0.1389
  177MOL0     C23800   4.539   1.229   2.971  0.0732 -0.0307 -0.0588
  177MOL0     C23801   4.408   1.148   2.919 -0.2728 -0.2521  0.4391
  177MOL0     C23802   4.269   1.181   2.978 -1.4320 -0.1903  0.6251
  177MOL0     C23803   4.257   1.337   2.961  0.2632 -0.1264 -0.2365
  177MOL0     C23804   4.110   1.367   2.922 -0.6519 -0.5629 -0.0587
  177MOL0    Cl23805   4.067   1.295   2.758 -0.0449 -0.1203 -0.1712
  177MOL0     C23806   5.195   1.289   3.047 -0.0243  0.5598 -0.2362
  177MOL0     C23807   5.283   1.220   3.138  1.0720  0.2637 -0.0438
  177MOL0     O23808   5.509   0.974   3.105  0.5083 -0.1931 -0.4258
  177MOL0     C23809   5.437   0.844   3.429  0.1042 -0.2488 -0.8982
  177MOL0     C23810   5.482   0.749   3.523 -0.5375  0.7667 -0.2298
  177MOL0     N23811   5.517   0.739   4.071  0.2993 -0.2053 -0.9201
  177MOL0     N23812   5.455   0.791   4.170 -0.9981 -0.8205 -0.1246
  177MOL0     C23813   5.001   1.158   5.269  0.2371  0.4716 -0.0041
  177MOL0     C23814   4.913   1.170   5.370 -0.2889  1.1631 -0.2278
  177MOL0     C23815   4.722   1.352   5.737  0.4688  0.1930  0.0265
  177MOL0     C23816   4.657   1.469   5.766  0.3755 -1.0797 -0.6856
  177MOL0     C23817   4.557   1.483   5.860  0.5119 -0.0736  0.3250
  177MOL0     C23818   4.507   1.365   5.940  0.5010 -0.7727  0.0043
  177MOL0     O23819   4.419   1.389   6.042 -0.0097  0.5884 -0.0695
  177MOL0     C23820   4.356   1.280   6.119 -0.5646 -0.1454 -0.4353
  177MOL0     C23821   4.268   1.195   6.043 -0.1001  0.0944  0.4429
  177MOL0     C23822   4.161   1.133   6.124  0.7669  0.1202  0.1857
  177MOL0     C23823   4.072   1.029   6.048  0.1331 -0.1446 -0.2817
  177MOL0     C23824   4.164   0.922   6.019 -0.1418  0.2743 -0.6554
  177MOL0     C23825   4.246   0.835   5.993  0.3882 -0.2364 -0.1437
  177MOL0     C23826   4.574   1.242   5.904  0.7685 -0.0406  0.2510
  177MOL0     C23827   4.680   1.236   5.805 -0.1075  0.4692 -0.3315
  177MOL0     H23828   5.116   1.300   5.610 -1.7187  1.4806 -0.1925
  177MOL0     H23829   5.280   1.276   5.420  0.8818 -3.2140  2.0215
  177MOL0     H23830   5.257   0.999   5.113  1.4164 -1.3960 -1.6043
  177MOL0     H23831   5.127   1.109   5.038  0.5375 -2.1361 -1.0147
  177MOL0     H23832   5.297   1.252   4.948 -0.6951  0.3828  2.0151
  177MOL0     H23833   5.424   1.158   5.022 -0.8225  0.3717  2.1815
  177MOL0     H23834   5.335   0.954   4.892 -3.9526 -1.7301 -0.7634
  177MOL0     H23835   5.236   1.061   4.804 -0.3416 -1.2694  1.8176
  177MOL0     H23836   5.408   1.200   4.722 -1.0601 -0.6338 -1.3968
  177MOL0     H23837   5.526   1.095   4.818 -1.6314 -1.2879  2.0475
  177MOL0     H23838   5.420   0.886   4.684 -0.7283 -0.8039  1.8439
  177MOL0     H23839   5.351   1.008   4.579  0.1625 -1.1772  0.0194
  177MOL0     H23840   5.565   1.115   4.535  4.4315 -0.6954  1.1875
  177MOL0     H23841   5.640   0.984   4.615 -0.6750 -1.4493 -0.1094
  177MOL0     H23842   5.660   0.912   4.412  1.4577 -1.0892  2.6430
  177MOL0     H23843   5.502   0.822   4.451 -3.3941  2.5003  1.4347
  177MOL0     H23844   5.503   1.098   4.312 -0.9055  1.1315  1.7340
  177MOL0     H23845   5.372   0.986   4.332  1.2251 -2.0401  1.3988
  177MOL0     H23846   5.702   1.012   4.117 -1.3907  0.3978  0.4460
  177MOL0     H23847   5.752   0.885   3.882 -0.2207 -0.8772 -0.6553
  177MOL0     H23848   5.815   0.773   4.004  0.3358  0.4637 -0.4383
  177MOL0     H23849   5.595   0.692   3.808 -2.0367 -4.0922  1.9494
  177MOL0     H23850   5.677   0.580   3.917  0.7221  1.6141  3.3834
  177MOL0     H23851   5.895   0.657   3.789  0.0366 -1.1218  0.5009
  177MOL0     H23852   5.790   0.758   3.689 -0.3762 -0.1935 -0.2814
  177MOL0     H23853   5.778   0.466   3.698  0.7072 -0.6648 -2.0014
  177MOL0     H23854   5.832   0.564   3.555 -0.1501 -2.1362  0.3331
  177MOL0     H23855   5.715   0.598   3.333  1.2061 -1.5553  3.1250
  177MOL0     H23856   5.712   0.848   3.098 -1.8891  1.6305 -0.0692
  177MOL0     H23857   5.758   0.684   3.139 -0.9457 -0.0582  1.7990
  177MOL0     H23858   5.600   0.708   3.066  0.7586  1.1853 -1.4338
  177MOL0     H23859   5.140   0.917   3.108  1.6788 -0.8289 -1.0268
  177MOL0     H23860   5.002   1.023   2.966  0.0726  0.2976 -1.6765
  177MOL0     H23861   4.876   1.289   2.737  0.2366 -1.7282 -1.7065
  177MOL0     H23862   4.923   1.129   2.785  1.5267  0.1450 -1.4450
  177MOL0     H23863   4.830   1.173   3.020  2.2077 -1.0350 -0.5291
  177MOL0     H23864   4.803   1.339   2.967  2.7480  0.1275 -0.4308
  177MOL0     H23865   4.657   1.087   2.863 -3.5911  0.1619 -1.2386
  177MOL0     H23866   4.647   1.247   2.791  0.3642  0.7228  0.6563
  177MOL0     H23867   4.556   1.205   3.077  1.3768  1.6355  0.1448
  177MOL0     H23868   4.529   1.338   2.973 -0.6557 -0.0441 -1.7941
  177MOL0     H23869   4.437   1.048   2.953 -0.8215 -1.0744 -1.4258
  177MOL0     H23870   4.403   1.147   2.810  2.5169 -0.5384  0.2426
  177MOL0     H23871   4.195   1.114   2.932  0.1734 -1.5842 -0.0473
  177MOL0     H23872   4.285   1.154   3.083  1.8363 -0.0906  0.2779
  177MOL0     H23873   4.331   1.384   2.896  1.5409  1.7452  2.4049
  177MOL0     H23874   4.279   1.387   3.056  1.7641  4.1221 -2.5721
  177MOL0     H23875   4.103   1.476   2.927 -0.2076 -0.5768  4.0802
  177MOL0     H23876   4.050   1.318   2.999  1.1750  1.6818  3.0001
  177MOL0     H23877   5.204   1.398   3.042 -0.2855  0.6006  0.1398
  177MOL0     H23878   5.355   1.269   3.202 -0.9820  1.6323  1.3577
  177MOL0     H23879   5.366   0.919   3.462  2.5955  2.1397 -0.6266
  177MOL0     H23880   5.439   0.737   3.621  0.8122  0.3741  0.3336
  177MOL0     H23881   4.959   1.108   5.183 -1.4865 -2.1421  2.1789
  177MOL0     H23882   4.809   1.147   5.351  0.5152 -2.9462 -0.5801
  177MOL0     H23883   4.693   1.554   5.708 -2.0727 -1.7143 -3.3743
  177MOL0     H23884   4.503   1.575   5.882  2.0631  1.0499 -0.3613
  177MOL0     H23885   4.440   1.218   6.149 -1.0710 -1.8682 -2.3470
  177MOL0     H23886   4.313   1.331   6.205 -0.2020  1.2857 -1.0692
  177MOL0     H23887   4.332   1.129   5.984  0.0864  0.1961  0.5284
  177MOL0     H23888   4.227   1.260   5.965 -1.5775 -1.0235  0.2564
  177MOL0     H23889   4.095   1.211   6.162  1.2597  0.1703  0.9606
  177MOL0     H23890   4.209   1.080   6.207 -0.7073 -0.6501  0.5729
  177MOL0     H23891   4.027   1.061   5.953 -0.5484 -1.9359 -0.5997
  177MOL0     H23892   3.988   1.006   6.113  0.4468  2.6097  1.2370
  177MOL0     H23893   4.316   0.755   5.975 -1.5566 -2.2552  0.6893
  177MOL0     H23894   4.544   1.158   5.966 -0.4748 -0.1645 -0.4755
  177MOL0     H23895   4.735   1.147   5.778  0.3323  1.2456 -2.1065
  178MOL0     O23896   6.277   3.886   1.995 -0.1442  0.8041 -0.9478
  178MOL0     C23897   6.326   3.859   2.104 -0.8800  0.0118 -1.0545
  178MOL0     O23898   6.279   3.904   2.218  0.2986  0.4205  0.4358
  178MOL0     C23899   6.196   4.010   2.230  0.7177 -1.0528 -0.1587
  178MOL0     C23900   6.215   4.124   2.148  0.0178 -0.0495 -0.7566
  178MOL0     C23901   6.137   4.237   2.154  0.9353 -0.1034  0.3431
  178MOL0     C23902   6.026   4.234   2.242  0.3654 -0.0670 -0.4996
  178MOL0     O23903   5.942   4.337   2.256  0.5360 -0.3268 -0.1217
  178MOL0     C23904   5.928   4.440   2.155 -0.3780  0.1924 -0.4672
  178MOL0     C23905   5.840   4.557   2.216 -0.2947  0.0903  0.3091
  178MOL0     C23906   5.693   4.515   2.236 -0.9563 -0.0301 -0.6523
  178MOL0     C23907   5.615   4.619   2.315 -0.3645 -1.1331 -0.1833
  178MOL0     C23908   5.464   4.597   2.309  0.4727  0.1884  0.2454
  178MOL0     C23909   5.388   4.688   2.405 -0.3117 -0.1980  0.3242
  178MOL0     C23910   5.240   4.685   2.377  0.7895  0.5709  0.1066
  178MOL0     C23911   5.177   4.804   2.451 -0.3520  0.1833 -0.5977
  178MOL0     N23912   5.037   4.828   2.426  0.2718 -0.3206 -0.2157
  178MOL0     C23913   4.991   4.873   2.306  0.7582  0.1700  0.7768
  178MOL0     C23914   4.863   4.908   2.339  0.4848 -0.3079 -0.4574
  178MOL0     C23915   4.756   4.965   2.245 -0.5354 -0.1340 -0.2808
  178MOL0     C23916   4.669   4.861   2.174 -0.2663 -0.1506  0.1875
  178MOL0     C23917   4.749   4.788   2.066  0.4528  0.0351 -0.4896
  178MOL0     C23918   4.676   4.670   2.006 -0.3680 -0.4791 -1.6229
  178MOL0     O23919   4.551   4.717   1.958 -0.5382  0.8049  0.3617
  178MOL0     C23920   4.436   4.695   2.024 -0.3258  0.0062  0.0996
  178MOL0     C23921   4.333   4.779   1.979 -0.1600  0.2248 -0.1937
  178MOL0     C23922   4.205   4.778   2.035 -0.4102  0.5074 -0.2324
  178MOL0     C23923   4.110   4.885   1.981  0.2934 -0.6514  0.2661
  178MOL0     C23924   4.178   4.692   2.142 -0.0828  0.4999 -0.4271
  178MOL0     C23925   4.046   4.687   2.215  0.7683 -0.4960  0.4537
  178MOL0     O23926   3.935   4.719   2.138 -0.2928 -0.4625 -0.2915
  178MOL0     C23927   3.818   4.715   2.207  1.1834 -0.0302  0.6968
  178MOL0     C23928   3.709   4.638   2.160  0.4112 -0.2646  0.2076
  178MOL0     C23929   3.591   4.636   2.233 -0.2633 -0.3138  0.1571
  178MOL0     C23930   3.564   4.722   2.344 -0.2411  0.5008  1.0976
  178MOL0     O23931   3.453   4.749   2.404  0.4857 -0.8326 -0.6202
  178MOL0     C23932   3.348   4.786   2.314  0.5863  0.1044  0.1844
  178MOL0     C23933   3.241   4.813   2.417  0.0603 -0.9028  0.5772
  178MOL0     C23934   3.110   4.849   2.350  0.2357 -0.6070 -0.0501
  178MOL0     C23935   2.996   4.869   2.451 -0.2728  0.1751 -0.1114
  178MOL0     C23936   2.854   4.852   2.386 -0.3985  0.1169 -0.8335
  178MOL0     C23937   2.745   4.851   2.498 -0.2019 -0.3366  0.8134
  178MOL0     C23938   2.720   4.993   2.568 -0.4880  0.2861  0.6005
  178MOL0     C23939   2.744   5.119   2.485 -0.1720  0.2099  0.0264
  178MOL0    Cl23940   2.602   5.160   2.390  0.5674  0.1176  0.5835
  178MOL0     C23941   3.666   4.808   2.390 -0.1753 -0.3069 -0.4538
  178MOL0     C23942   3.786   4.808   2.314 -1.1906  0.0967 -0.3848
  178MOL0     O23943   4.041   4.660   2.339 -0.3897 -0.4597 -0.0629
  178MOL0     C23944   4.280   4.610   2.188 -0.5158 -0.4507 -1.2639
  178MOL0     C23945   4.410   4.612   2.137 -0.0999  0.6383  0.8611
  178MOL0     N23946   4.844   4.892   2.477 -0.0430  0.5756  0.0010
  178MOL0     N23947   4.952   4.850   2.524  0.3289  0.0985  0.8013
  178MOL0     C23948   6.006   4.122   2.323 -0.4878  1.0862  0.0452
  178MOL0     C23949   6.087   4.006   2.316 -0.1174 -0.9025  0.3345
  178MOL0     C23950   6.436   3.768   2.115 -0.2356  0.2422  0.3827
  178MOL0     C23951   6.453   3.661   2.026 -0.6881  0.1830  0.0764
  178MOL0     C23952   6.572   3.589   2.024 -0.4656 -0.1454  0.6547
  178MOL0     C23953   6.675   3.624   2.118  0.5585 -0.1222  0.7751
  178MOL0     O23954   6.789   3.555   2.110 -0.2136  0.7515  0.0384
  178MOL0     C23955   6.897   3.643   2.074 -0.1154 -0.3988  0.2990
  178MOL0     C23956   6.896   3.687   1.928 -0.0209 -0.8340 -0.3037
  178MOL0     C23957   6.908   3.573   1.824  0.1402 -0.0551  1.1899
  178MOL0     C23958   6.947   3.619   1.681  0.4328  0.0603 -0.5635
  178MOL0     C23959   6.861   3.721   1.612 -0.0828  0.3883  0.1393
  178MOL0     C23960   6.810   3.803   1.539  0.4076 -0.9686 -0.0167
  178MOL0     C23961   6.647   3.719   2.217 -0.0645  0.4551 -0.2726
  178MOL0     C23962   6.533   3.796   2.216  0.2477  0.1103 -0.1110
  178MOL0     H23963   6.302   4.123   2.082  0.4279 -1.6588 -0.2317
  178MOL0     H23964   6.172   4.323   2.097  0.7804  2.1072  3.3611
  178MOL0     H23965   6.022   4.467   2.106 -1.7940  2.6806 -2.0465
  178MOL0     H23966   5.865   4.396   2.076 -3.0818  2.5791  0.1966
  178MOL0     H23967   5.883   4.603   2.305 -0.6270  0.4666  0.2802
  178MOL0     H23968   5.828   4.632   2.137 -0.1999 -0.4165 -0.1973
  178MOL0     H23969   5.645   4.501   2.139 -0.7192 -3.5183 -0.3940
  178MOL0     H23970   5.692   4.417   2.285 -4.7423  0.6614  1.0756
  178MOL0     H23971   5.651   4.626   2.418  2.7580 -3.1966 -0.9940
  178MOL0     H23972   5.642   4.715   2.270  0.3589 -1.8142 -1.2366
  178MOL0     H23973   5.425   4.627   2.211  0.5462  0.3784  0.2737
  178MOL0     H23974   5.441   4.494   2.338 -2.8371  0.5048 -0.8411
  178MOL0     H23975   5.404   4.647   2.505  2.1676  4.3844  2.1506
  178MOL0     H23976   5.426   4.791   2.402  0.1475 -0.3841 -1.3321
  178MOL0     H23977   5.207   4.674   2.273 -1.9899 -3.5127  1.1802
  178MOL0     H23978   5.204   4.593   2.424  2.2393 -0.0951 -0.0358
  178MOL0     H23979   5.219   4.901   2.424  1.4593 -0.5406 -0.5422
  178MOL0     H23980   5.188   4.781   2.557  0.3876  0.2306 -0.6600
  178MOL0     H23981   5.034   4.864   2.207  0.5978  0.0716  0.7170
  178MOL0     H23982   4.700   5.029   2.314  0.0139 -1.8164  1.8351
  178MOL0     H23983   4.813   5.015   2.167  0.8877 -1.4497 -0.1353
  178MOL0     H23984   4.595   4.917   2.116  0.4120 -0.1710 -0.7256
  178MOL0     H23985   4.616   4.805   2.251  0.8971  0.0595  1.1664
  178MOL0     H23986   4.840   4.759   2.120  0.6879  0.7583 -0.4828
  178MOL0     H23987   4.780   4.860   1.990  1.7387  0.4130  0.3457
  178MOL0     H23988   4.675   4.593   2.083  1.0515 -1.2242 -2.3075
  178MOL0     H23989   4.725   4.637   1.914 -1.9695 -1.5822 -2.1199
  178MOL0     H23990   4.356   4.842   1.894  1.0586 -1.1914 -0.9518
  178MOL0     H23991   4.058   4.931   2.066  1.3331 -0.0914  0.6216
  178MOL0     H23992   4.156   4.970   1.931 -3.0660  2.0387  1.3102
  178MOL0     H23993   4.039   4.843   1.909 -1.2462 -1.0485  1.9295
  178MOL0     H23994   3.721   4.580   2.069 -0.8577  0.6641 -0.5860
  178MOL0     H23995   3.503   4.577   2.209 -0.6227 -0.0551  0.8044
  178MOL0     H23996   3.369   4.874   2.253  0.4916  0.5855  0.8313
  178MOL0     H23997   3.313   4.701   2.255 -0.5579  1.4781 -1.2124
  178MOL0     H23998   3.241   4.737   2.495  2.6897 -0.3073  1.2753
  178MOL0     H23999   3.266   4.909   2.463  0.1080  1.1811 -3.3558
  178MOL0     H24000   3.076   4.771   2.281  0.4017  1.7147 -3.0025
  178MOL0     H24001   3.099   4.941   2.292 -6.3273 -1.4922 -0.9770
  178MOL0     H24002   2.998   4.790   2.526 -2.2272 -0.6771 -0.8954
  178MOL0     H24003   3.004   4.965   2.503 -0.8277 -1.4539  3.2997
  178MOL0     H24004   2.849   4.753   2.341  0.3707  0.4911 -1.7819
  178MOL0     H24005   2.834   4.925   2.307 -2.8398  3.1566  2.2828
  178MOL0     H24006   2.656   4.824   2.440 -0.2474 -0.2905  0.8610
  178MOL0     H24007   2.753   4.771   2.572 -2.1182 -2.0241 -0.6791
  178MOL0     H24008   2.792   5.001   2.650 -0.6469 -1.9726  1.0159
  178MOL0     H24009   2.623   5.002   2.618  0.1457 -2.0652  2.4110
  178MOL0     H24010   2.832   5.105   2.421 -0.9317 -2.9871 -0.4989
  178MOL0     H24011   2.760   5.202   2.554 -1.8850  0.6672 -0.0849
  178MOL0     H24012   3.646   4.884   2.465  2.3813 -1.6592  1.8203
  178MOL0     H24013   3.860   4.885   2.331  0.0013 -1.4523  1.9788
  178MOL0     H24014   4.268   4.536   2.267 -1.1298  0.3818 -0.5574
  178MOL0     H24015   4.478   4.541   2.183  0.3606 -0.0186 -0.7336
  178MOL0     H24016   5.911   4.114   2.374 -2.1712 -0.8590 -3.0282
  178MOL0     H24017   6.085   3.916   2.376 -1.8110  1.2424  3.8542
  178MOL0     H24018   6.383   3.623   1.952 -0.0910 -3.6509  1.2355
  178MOL0     H24019   6.584   3.512   1.948  0.6978  1.1507 -0.5282
  178MOL0     H24020   6.896   3.738   2.128 -1.6798  0.5413 -1.2845
  178MOL0     H24021   7.000   3.610   2.090  0.5748  2.0966  1.5159
  178MOL0     H24022   6.979   3.757   1.918  0.1749 -1.0754 -0.3832
  178MOL0     H24023   6.799   3.733   1.907 -0.0774 -0.7499  0.1283
  178MOL0     H24024   6.811   3.522   1.835  0.6702 -1.3175  0.1728
  178MOL0     H24025   6.982   3.500   1.859  1.3558  0.0811 -0.9767
  178MOL0     H24026   6.958   3.532   1.615  1.6506  0.4225 -0.8615
  178MOL0     H24027   7.048   3.661   1.686  1.7817 -2.6871 -1.9040
  178MOL0     H24028   6.754   3.882   1.493 -0.6622 -1.9615 -0.4757
  178MOL0     H24029   6.725   3.736   2.291  0.5590  3.6242 -1.4744
  178MOL0     H24030   6.516   3.881   2.281 -0.4961 -1.3942  1.7641
  179MOL0     O24031   6.625   7.616   3.972 -0.0734 -0.0405 -0.3283
  179MOL0     C24032   6.635   7.555   4.078 -0.5375  0.8394 -0.0777
  179MOL0     O24033   6.540   7.471   4.131 -0.4089  0.2823  0.0806
  179MOL0     C24034   6.421   7.441   4.067  0.0853 -0.5715  0.7629
  179MOL0     C24035   6.313   7.401   4.149 -0.4661  0.7372  0.3654
  179MOL0     C24036   6.194   7.347   4.094  0.4660 -0.6738 -1.0881
  179MOL0     C24037   6.194   7.315   3.954 -0.1820 -0.2855  0.2851
  179MOL0     O24038   6.097   7.240   3.895  0.3886 -0.2920  0.0526
  179MOL0     C24039   5.961   7.253   3.961 -0.2604  0.8338  0.8303
  179MOL0     C24040   5.854   7.206   3.859 -0.6723  1.0318  0.3819
  179MOL0     C24041   5.844   7.285   3.719  0.1591  1.4758 -0.7995
  179MOL0     C24042   5.890   7.429   3.712 -0.1025  0.5414 -0.3683
  179MOL0     C24043   5.896   7.470   3.564  0.3469  0.3288 -0.2879
  179MOL0     C24044   5.762   7.462   3.481 -0.8033  0.2635  0.3676
  179MOL0     C24045   5.769   7.535   3.342 -0.8139 -0.6627  0.4337
  179MOL0     C24046   5.624   7.543   3.274 -0.7806 -0.1579 -0.1857
  179MOL0     N24047   5.537   7.625   3.367 -1.0069  0.5178  0.1742
  179MOL0     C24048   5.555   7.744   3.430 -0.3770  0.5473 -0.4461
  179MOL0     C24049   5.432   7.783   3.470  0.3728 -0.0527 -0.4487
  179MOL0     C24050   5.403   7.916   3.530  0.1956  0.6185 -0.4576
  179MOL0     C24051   5.263   7.970   3.522 -0.3183  0.5532 -0.3086
  179MOL0     C24052   5.172   7.869   3.582  0.5801 -0.7668 -0.1103
  179MOL0     C24053   5.194   7.844   3.727  0.2527 -0.4661 -0.7004
  179MOL0     O24054   5.106   7.744   3.773 -0.3943  0.2281  0.1660
  179MOL0     C24055   4.975   7.770   3.795  0.4366 -0.7003  0.1020
  179MOL0     C24056   4.940   7.887   3.867  0.4874  0.1649  0.1138
  179MOL0     C24057   4.808   7.928   3.891  0.7692 -0.1354  0.4185
  179MOL0     C24058   4.794   8.068   3.935  0.2446 -1.0558 -0.0828
  179MOL0     C24059   4.710   7.837   3.858  0.2336  0.0779  0.0523
  179MOL0     C24060   4.568   7.854   3.898  0.2100  0.0812  0.5129
  179MOL0     O24061   4.519   7.978   3.899  0.0023  0.3809 -0.5396
  179MOL0     C24062   4.382   7.970   3.890  0.5175 -0.5352  0.1957
  179MOL0     C24063   4.298   7.945   3.779  0.2759 -0.4130  0.4424
  179MOL0     C24064   4.157   7.939   3.801  0.2061  0.1989  0.1101
  179MOL0     C24065   4.102   7.990   3.915 -0.2447  1.0089  0.3519
  179MOL0     O24066   3.968   8.000   3.919 -0.4849  0.1237 -0.8821
  179MOL0     C24067   3.906   8.085   4.008  0.3111  0.6735 -0.1476
  179MOL0     C24068   3.764   8.104   3.966  0.2866 -0.2893 -0.0103
  179MOL0     C24069   3.665   8.182   4.056 -0.5869 -1.1542 -0.4981
  179MOL0     C24070   3.521   8.167   4.015  0.3477 -0.4203 -0.5179
  179MOL0     C24071   3.425   8.254   4.101  0.9125  0.4558  0.3064
  179MOL0     C24072   3.287   8.238   4.031 -0.1104 -0.8474  0.4948
  179MOL0     C24073   3.177   8.312   4.109  0.3061  0.1878 -0.6589
  179MOL0     C24074   3.047   8.300   4.036  0.2700 -0.1262  0.0183
  179MOL0    Cl24075   3.057   8.389   3.873  0.1709  0.1389  0.3092
  179MOL0     C24076   4.186   8.021   4.015 -0.1419 -0.1414 -0.5966
  179MOL0     C24077   4.328   8.026   4.006  0.8839  0.5612 -0.2579
  179MOL0     O24078   4.497   7.752   3.932 -0.1812  0.0847 -0.0137
  179MOL0     C24079   4.746   7.715   3.810  0.5538 -0.7887  0.1636
  179MOL0     C24080   4.869   7.684   3.770 -0.2717  0.0388  1.0244
  179MOL0     N24081   5.348   7.674   3.448 -0.1434 -0.2409  0.6305
  179MOL0     N24082   5.407   7.584   3.378 -0.0669 -0.7427  0.4131
  179MOL0     C24083   6.310   7.347   3.879  0.2615  0.8484  0.5061
  179MOL0     C24084   6.416   7.418   3.928  0.0101 -0.4223  0.1066
  179MOL0     C24085   6.761   7.555   4.147  0.1725 -0.7012  0.0786
  179MOL0     C24086   6.773   7.492   4.270  0.2373  0.0029  0.0714
  179MOL0     C24087   6.890   7.505   4.344  0.4379 -0.1329 -0.0656
  179MOL0     C24088   7.003   7.588   4.298 -0.1377 -0.1267 -0.1274
  179MOL0     O24089   7.118   7.589   4.371  0.1300  0.3535 -0.0510
  179MOL0     C24090   7.226   7.690   4.357  0.3416  0.4708  0.1145
  179MOL0     C24091   7.267   7.701   4.504  0.3286 -0.2910 -0.5032
  179MOL0     C24092   7.361   7.812   4.536  0.8691  0.2886  0.4320
  179MOL0     C24093   7.383   7.833   4.686 -0.1378  1.4331  0.6097
  179MOL0     C24094   7.484   7.931   4.718 -1.0078 -0.0766 -0.3558
  179MOL0     C24095   7.566   8.015   4.740 -0.0121 -1.0351  0.1487
  179MOL0     C24096   6.993   7.644   4.170 -0.1480  1.2831  0.3482
  179MOL0     C24097   6.872   7.621   4.093  0.0918 -1.1725 -0.9164
  179MOL0     H24098   6.323   7.409   4.256  1.2166  1.7458  0.1692
  179MOL0     H24099   6.102   7.330   4.148  0.1383  1.5084 -0.8604
  179MOL0     H24100   5.968   7.194   4.053  4.6865  0.6410  0.6191
  179MOL0     H24101   5.926   7.355   3.982 -2.3425  0.0212  1.5170
  179MOL0     H24102   5.869   7.102   3.829  3.2146  1.6183 -0.2462
  179MOL0     H24103   5.762   7.213   3.917 -0.2649  2.9644  0.8643
  179MOL0     H24104   5.899   7.230   3.642 -0.3538  1.5954 -1.2529
  179MOL0     H24105   5.739   7.286   3.689  0.5984 -1.0504 -2.7227
  179MOL0     H24106   5.802   7.483   3.749 -3.0170 -2.9596 -1.5566
  179MOL0     H24107   5.980   7.442   3.772 -1.2902 -1.9365  2.1904
  179MOL0     H24108   5.925   7.575   3.554  1.1247  0.1080 -0.4256
  179MOL0     H24109   5.964   7.403   3.510 -1.6861 -1.5895 -0.6290
  179MOL0     H24110   5.734   7.357   3.469  3.2313 -0.9099 -0.1318
  179MOL0     H24111   5.692   7.519   3.543 -1.1502 -0.4077  0.6110
  179MOL0     H24112   5.809   7.634   3.366  0.1716 -1.3235  1.6087
  179MOL0     H24113   5.845   7.483   3.284  1.6353  0.7921  2.1646
  179MOL0     H24114   5.593   7.438   3.276  2.3056 -1.1659  2.0776
  179MOL0     H24115   5.632   7.590   3.176 -2.0344  2.4957  0.8855
  179MOL0     H24116   5.646   7.803   3.437  1.0470 -1.7520  2.1690
  179MOL0     H24117   5.430   7.903   3.636 -0.8620  0.2686 -0.2100
  179MOL0     H24118   5.471   7.995   3.498  0.1605  0.8526  0.0350
  179MOL0     H24119   5.241   7.978   3.415  0.0678 -0.4156 -0.4717
  179MOL0     H24120   5.254   8.069   3.566 -4.1265  0.8694 -1.4616
  179MOL0     H24121   5.157   7.787   3.511  0.2968  1.4966 -2.8670
  179MOL0     H24122   5.076   7.922   3.576  2.2007  2.2871 -0.9861
  179MOL0     H24123   5.193   7.933   3.791 -1.5908 -1.4380  0.7307
  179MOL0     H24124   5.295   7.804   3.741  1.7522  3.4006  0.8881
  179MOL0     H24125   5.011   7.956   3.912 -3.7018  3.6537  2.1135
  179MOL0     H24126   4.876   8.135   3.907 -0.2813 -1.0265 -1.6623
  179MOL0     H24127   4.708   8.117   3.888  1.4107  1.3366  0.1152
  179MOL0     H24128   4.785   8.062   4.043  4.4937 -1.0009  0.4539
  179MOL0     H24129   4.345   7.897   3.694  2.5847  2.3617  0.0138
  179MOL0     H24130   4.086   7.904   3.727  3.1925 -3.7105 -1.2745
  179MOL0     H24131   3.917   8.046   4.109  1.9934  1.8947  0.1785
  179MOL0     H24132   3.952   8.183   3.994  0.5836  0.3115 -1.9869
  179MOL0     H24133   3.763   8.156   3.870 -0.1938  0.8448  0.5785
  179MOL0     H24134   3.722   8.005   3.952 -1.0538 -0.1793  2.6113
  179MOL0     H24135   3.698   8.286   4.061 -0.0267 -1.3631  0.3622
  179MOL0     H24136   3.682   8.139   4.155 -0.0017 -1.1367 -0.5843
  179MOL0     H24137   3.506   8.198   3.911 -4.3668 -0.9275 -0.2339
  179MOL0     H24138   3.491   8.062   4.026 -1.2842  0.1287  0.8203
  179MOL0     H24139   3.451   8.361   4.102  0.5527  0.5957 -1.6372
  179MOL0     H24140   3.415   8.220   4.204  0.9394  1.3065  0.6000
  179MOL0     H24141   3.286   8.287   3.934  0.8796 -0.5473  0.6218
  179MOL0     H24142   3.258   8.136   4.001 -0.4339 -0.0621 -2.0876
  179MOL0     H24143   3.206   8.418   4.113 -1.2879  0.6901 -1.4182
  179MOL0     H24144   3.176   8.269   4.209  1.4908 -0.3804 -0.8699
  179MOL0     H24145   2.973   8.351   4.098  0.7680  1.5277 -0.6978
  179MOL0     H24146   3.013   8.196   4.032  0.8000 -0.6938  4.3745
  179MOL0     H24147   4.143   8.056   4.108  1.3974 -1.3494  0.6473
  179MOL0     H24148   4.384   8.062   4.091  0.1201  2.4810 -0.5194
  179MOL0     H24149   4.667   7.644   3.787  1.6177 -1.3244 -2.1134
  179MOL0     H24150   4.897   7.591   3.722  0.9069  1.0565 -0.3534
  179MOL0     H24151   6.295   7.337   3.772  0.6409 -0.9846  0.6035
  179MOL0     H24152   6.488   7.434   3.848 -1.9344  5.1300 -1.0006
  179MOL0     H24153   6.684   7.449   4.315 -1.3574  2.5074 -0.4659
  179MOL0     H24154   6.890   7.452   4.439  0.0042 -2.3940 -1.2611
  179MOL0     H24155   7.306   7.666   4.285  0.7925  4.3752 -0.9199
  179MOL0     H24156   7.187   7.787   4.326 -1.6848 -0.2169  0.3542
  179MOL0     H24157   7.317   7.606   4.527  0.0539 -0.0726  1.1070
  179MOL0     H24158   7.185   7.701   4.576  0.1709 -1.4022 -0.6606
  179MOL0     H24159   7.319   7.890   4.471 -0.3705 -1.3862 -0.8564
  179MOL0     H24160   7.457   7.791   4.487  1.2430  1.4224  0.6345
  179MOL0     H24161   7.410   7.733   4.722 -1.9246  0.0402 -1.6494
  179MOL0     H24162   7.286   7.851   4.732 -0.2189 -2.1938  2.2401
  179MOL0     H24163   7.639   8.088   4.768 -1.7388  0.3388  1.3385
  179MOL0     H24164   7.067   7.719   4.142  0.6230  0.9977  1.5374
  179MOL0     H24165   6.866   7.672   3.997 -2.1877  0.7965  0.1463
  180MOL0     O24166   3.927   8.403   1.709 -0.1279 -0.5732 -0.2257
  180MOL0     C24167   3.819   8.461   1.731 -0.0598 -0.2342  0.3775
  180MOL0     O24168   3.704   8.397   1.777  0.1707 -0.2237  0.2385
  180MOL0     C24169   3.708   8.259   1.793 -1.2537  0.3138  0.3707
  180MOL0     C24170   3.732   8.165   1.689 -0.4065 -0.6099  0.4780
  180MOL0     C24171   3.727   8.036   1.715 -0.3505 -0.9454  1.0296
  180MOL0     C24172   3.704   7.983   1.839  0.3048  0.2631 -0.0706
  180MOL0     O24173   3.707   7.848   1.855 -0.1590 -0.3947 -0.4032
  180MOL0     C24174   3.690   7.801   1.988  0.6526 -0.4938 -0.2600
  180MOL0     C24175   3.535   7.796   2.023 -0.3879 -0.0386  0.3224
  180MOL0     C24176   3.517   7.727   2.156  0.3521 -0.4552  0.1434
  180MOL0     C24177   3.381   7.735   2.229  0.3971  0.4065  0.2304
  180MOL0     C24178   3.289   7.615   2.178 -0.0155  0.2250  0.0427
  180MOL0     C24179   3.141   7.659   2.168  0.5598 -0.4904  0.1881
  180MOL0     C24180   3.077   7.708   2.301  0.6914 -0.3397 -0.0984
  180MOL0     C24181   3.091   7.613   2.425  0.4822  0.3278  0.0954
  180MOL0     N24182   2.981   7.520   2.438  0.1116 -1.1542 -0.4258
  180MOL0     C24183   2.883   7.562   2.526 -0.4251 -0.8469 -0.0118
  180MOL0     C24184   2.815   7.451   2.543 -0.0527  0.1080  0.0374
  180MOL0     C24185   2.679   7.443   2.612 -0.1980 -0.2099  0.5693
  180MOL0     C24186   2.673   7.330   2.718 -0.2219  0.2410  0.5697
  180MOL0     C24187   2.664   7.370   2.861 -0.3558  0.4725 -0.2000
  180MOL0     C24188   2.527   7.379   2.917 -0.0469 -0.3992 -0.4246
  180MOL0     O24189   2.477   7.239   2.941 -0.6850 -0.9523  0.2695
  180MOL0     C24190   2.344   7.231   2.959 -0.7772  0.3158 -0.8409
  180MOL0     C24191   2.274   7.125   2.897 -0.3855 -0.3178 -1.0797
  180MOL0     C24192   2.134   7.092   2.919  0.2383 -1.4135 -0.1801
  180MOL0     C24193   2.089   6.958   2.867 -0.0100  0.2106 -0.3750
  180MOL0     C24194   2.053   7.189   2.990 -0.0312 -0.2779 -0.3551
  180MOL0     C24195   1.908   7.185   3.008 -0.4022  0.1840  0.5431
  180MOL0     O24196   1.844   7.279   3.078 -0.4263 -0.0220  0.3491
  180MOL0     C24197   1.715   7.269   3.118 -0.1594  0.6244  0.4558
  180MOL0     C24198   1.705   7.304   3.248 -0.1755  0.5002 -0.2790
  180MOL0     C24199   1.585   7.310   3.319 -0.4157 -0.8988 -0.6973
  180MOL0     C24200   1.464   7.277   3.246 -0.0288 -0.7094 -0.3244
  180MOL0     O24201   1.350   7.295   3.317  0.0737  0.1629  0.5874
  180MOL0     C24202   1.245   7.200   3.289  0.3793 -0.8068  0.5101
  180MOL0     C24203   1.133   7.236   3.381  0.6764 -0.3359  0.6576
  180MOL0     C24204   1.178   7.285   3.522  1.1699  0.1774 -0.4358
  180MOL0     C24205   1.246   7.169   3.601  0.1648  0.2955  0.7072
  180MOL0     C24206   1.281   7.198   3.747 -0.2880 -0.1493  0.2333
  180MOL0     C24207   1.341   7.342   3.772  0.6526  0.4801 -0.2302
  180MOL0     C24208   1.478   7.366   3.720 -0.2491 -0.2657 -0.0798
  180MOL0     C24209   1.571   7.250   3.715  0.6336  0.3487 -0.4914
  180MOL0    Cl24210   1.724   7.301   3.647 -0.0456 -0.4543 -0.2859
  180MOL0     C24211   1.474   7.231   3.113  1.0115  0.9077  0.2961
  180MOL0     C24212   1.597   7.240   3.048  0.4833  0.2700 -0.2100
  180MOL0     O24213   1.853   7.091   2.951  0.5309  0.2787 -0.0695
  180MOL0     C24214   2.127   7.301   3.044  0.1302  0.3230  1.0388
  180MOL0     C24215   2.271   7.319   3.034 -0.2858  0.1931 -0.0555
  180MOL0     N24216   2.874   7.350   2.470  0.5490  0.8297 -0.5472
  180MOL0     N24217   2.981   7.388   2.420 -0.5565  0.5459  0.2969
  180MOL0     C24218   3.682   8.071   1.942  0.1178 -0.7521 -0.1850
  180MOL0     C24219   3.682   8.216   1.927 -0.4889  0.2665  0.6493
  180MOL0     C24220   3.827   8.603   1.699  0.5695 -1.3160 -0.1159
  180MOL0     C24221   3.941   8.674   1.658  0.9080 -0.1831  0.0869
  180MOL0     C24222   3.932   8.809   1.620  0.9253 -0.3827 -0.3366
  180MOL0     C24223   3.813   8.885   1.652 -0.5843 -0.5266  0.5884
  180MOL0     O24224   3.816   9.020   1.625  0.0329 -0.5008  0.0821
  180MOL0     C24225   3.730   9.106   1.702 -0.8925 -0.1261  0.0364
  180MOL0     C24226   3.756   9.255   1.677 -0.0524 -0.2073 -0.6572
  180MOL0     C24227   3.899   9.299   1.714  0.2449 -0.1255 -0.0562
  180MOL0     C24228   3.928   9.446   1.702  0.1805  0.1515 -0.4275
  180MOL0     C24229   4.048   9.475   1.780  0.6813 -0.9609 -0.0604
  180MOL0     C24230   4.142   9.514   1.841  0.4498  0.2008  0.7377
  180MOL0     C24231   3.705   8.817   1.699  0.6300  0.8679  0.2069
  180MOL0     C24232   3.702   8.678   1.717 -0.3558 -0.6260  0.2104
  180MOL0     H24233   3.754   8.200   1.588 -2.4086 -2.2425 -0.6023
  180MOL0     H24234   3.719   7.973   1.627 -2.4213 -0.8480  1.0884
  180MOL0     H24235   3.727   7.698   1.988 -1.3485 -1.2574 -0.5597
  180MOL0     H24236   3.753   7.858   2.057  0.9601  2.7414 -2.9648
  180MOL0     H24237   3.498   7.898   2.038  1.2778  0.4718  1.1426
  180MOL0     H24238   3.468   7.768   1.940 -2.0839  1.6096  1.0646
  180MOL0     H24239   3.548   7.622   2.148  1.4280 -0.2013  0.7126
  180MOL0     H24240   3.580   7.779   2.229 -1.7493 -0.1175  1.7822
  180MOL0     H24241   3.399   7.718   2.335  0.5040  0.9004  0.2941
  180MOL0     H24242   3.336   7.834   2.214  0.7356  0.6365  0.7234
  180MOL0     H24243   3.307   7.571   2.079 -2.7275  2.4036 -1.5921
  180MOL0     H24244   3.313   7.532   2.245  2.1626  1.5063  0.9514
  180MOL0     H24245   3.139   7.747   2.103  0.0825 -1.0682 -0.5907
  180MOL0     H24246   3.074   7.580   2.133 -1.3856  0.6960  1.0641
  180MOL0     H24247   3.124   7.803   2.326  0.4348 -0.0480 -0.6914
  180MOL0     H24248   2.974   7.738   2.277  0.5453  1.9758  2.7636
  180MOL0     H24249   3.094   7.675   2.515 -0.3048 -0.5780  0.7777
  180MOL0     H24250   3.188   7.563   2.432 -0.6159 -1.6360  3.6794
  180MOL0     H24251   2.867   7.662   2.564  1.4961 -1.1712  1.8266
  180MOL0     H24252   2.674   7.542   2.657  1.2668  1.1842 -2.0824
  180MOL0     H24253   2.599   7.429   2.539  1.7756 -0.1820 -1.7062
  180MOL0     H24254   2.762   7.269   2.699 -1.5594 -0.9108 -2.7002
  180MOL0     H24255   2.584   7.272   2.695 -0.7659  1.2185  0.1482
  180MOL0     H24256   2.716   7.466   2.870  1.2058 -0.4130  0.7347
  180MOL0     H24257   2.723   7.294   2.913 -0.5578 -0.1346 -0.8472
  180MOL0     H24258   2.468   7.424   2.837 -0.6868 -0.8399 -0.2048
  180MOL0     H24259   2.533   7.456   2.995 -0.8514  0.3708 -1.0934
  180MOL0     H24260   2.326   7.046   2.843  0.5248 -2.7493  2.9015
  180MOL0     H24261   2.006   6.966   2.796 -0.8021  0.6446  0.5861
  180MOL0     H24262   2.171   6.910   2.812 -0.4279 -0.2974 -0.5647
  180MOL0     H24263   2.067   6.893   2.952  0.2308  0.4049 -0.1628
  180MOL0     H24264   1.788   7.339   3.307 -1.4360  4.3489 -0.5171
  180MOL0     H24265   1.577   7.345   3.421 -1.9442 -2.9822 -0.0064
  180MOL0     H24266   1.214   7.220   3.186 -2.8127 -1.8319  1.1599
  180MOL0     H24267   1.267   7.094   3.302  1.5121 -0.7091 -0.4563
  180MOL0     H24268   1.080   7.322   3.339 -0.7373 -1.6975 -0.4828
  180MOL0     H24269   1.063   7.152   3.390  0.0434  0.1636  0.4887
  180MOL0     H24270   1.090   7.306   3.584  2.0635  0.7707  0.6856
  180MOL0     H24271   1.233   7.379   3.512 -2.5120  2.7167  0.7305
  180MOL0     H24272   1.180   7.083   3.614 -1.8829  1.9942  2.1162
  180MOL0     H24273   1.336   7.137   3.548  1.5235 -1.1864  3.6704
  180MOL0     H24274   1.347   7.121   3.787  0.3241  0.3687  0.2401
  180MOL0     H24275   1.183   7.194   3.796 -0.6814  0.4870 -0.4692
  180MOL0     H24276   1.281   7.431   3.753  0.8674  1.3152  2.5729
  180MOL0     H24277   1.344   7.350   3.881 -1.0865  0.6505 -0.1694
  180MOL0     H24278   1.525   7.439   3.785 -1.2813 -0.5571  1.0281
  180MOL0     H24279   1.466   7.400   3.616 -1.7338 -3.5047 -1.1262
  180MOL0     H24280   1.537   7.168   3.651  1.4581  2.0384 -3.2662
  180MOL0     H24281   1.588   7.207   3.814 -1.1755 -0.6852 -0.5768
  180MOL0     H24282   1.383   7.191   3.070 -0.2855  0.6924  3.0480
  180MOL0     H24283   1.600   7.210   2.944  0.5071  0.2408 -0.2009
  180MOL0     H24284   2.071   7.382   3.089  2.2804  0.9284  2.7638
  180MOL0     H24285   2.306   7.395   3.103 -2.0204  0.9961 -0.0292
  180MOL0     H24286   3.660   8.026   2.039  3.3783 -0.2690  0.9004
  180MOL0     H24287   3.665   8.292   2.003  1.6235  0.9541  0.5032
  180MOL0     H24288   4.040   8.631   1.652  1.4588  1.2331 -1.8003
  180MOL0     H24289   4.020   8.862   1.586  0.7893  0.7126  0.9197
  180MOL0     H24290   3.631   9.082   1.660  0.2476 -1.6615 -1.9202
  180MOL0     H24291   3.727   9.093   1.810 -1.7303  2.7141  0.4470
  180MOL0     H24292   3.677   9.301   1.736 -1.2067 -1.3481 -1.2743
  180MOL0     H24293   3.747   9.283   1.572 -0.5349  0.4660 -0.4422
  180MOL0     H24294   3.970   9.252   1.645 -0.2000 -1.3920  0.3109
  180MOL0     H24295   3.917   9.278   1.820 -0.7814  2.7584  0.7703
  180MOL0     H24296   3.843   9.500   1.744  1.0653  2.3299 -1.2725
  180MOL0     H24297   3.941   9.471   1.596  1.6099 -0.3141 -0.3782
  180MOL0     H24298   4.225   9.550   1.898  1.5733 -1.3872  0.1846
  180MOL0     H24299   3.617   8.880   1.710  0.4411  0.5351  0.6503
  180MOL0     H24300   3.614   8.630   1.758 -0.7153  0.7814  1.1875
  181MOL0     O24301   7.088   0.235   5.600  0.4660  0.0847  0.4508
  181MOL0     C24302   7.195   0.297   5.621 -0.2979 -0.0427  0.1774
  181MOL0     O24303   7.225   0.376   5.736  0.0360 -0.2877  0.2127
  181MOL0     C24304   7.120   0.367   5.820  0.2073  0.0759 -0.7945
  181MOL0     C24305   7.127   0.283   5.930 -0.3788  0.1312 -0.8070
  181MOL0     C24306   7.018   0.271   6.022  0.4783  0.2439  0.1494
  181MOL0     C24307   6.911   0.356   6.001 -0.8444 -0.1231  0.8463
  181MOL0     O24308   6.805   0.353   6.081  0.6028  0.2352  0.2490
  181MOL0     C24309   6.792   0.468   6.163  0.8966  1.0720 -0.2945
  181MOL0     C24310   6.847   0.437   6.303  0.1691  0.0037  0.1267
  181MOL0     C24311   6.839   0.553   6.403  0.7119 -0.2119 -1.2488
  181MOL0     C24312   6.705   0.556   6.468 -0.6711  0.1255  0.5004
  181MOL0     C24313   6.692   0.656   6.591 -0.6253  0.6395  0.1867
  181MOL0     C24314   6.771   0.611   6.719 -0.3418 -0.0297  0.1937
  181MOL0     C24315   6.718   0.710   6.825 -0.6155  0.0675 -0.3135
  181MOL0     C24316   6.678   0.633   6.959 -0.1885 -0.2347  0.3863
  181MOL0     N24317   6.796   0.611   7.050 -0.8794  0.5808  0.9550
  181MOL0     C24318   6.828   0.681   7.159  0.1200 -0.7056  0.8162
  181MOL0     C24319   6.945   0.630   7.205 -0.4474  0.9196 -0.1321
  181MOL0     C24320   7.020   0.668   7.327  0.1086  0.7555 -0.4898
  181MOL0     C24321   7.127   0.765   7.288  1.3990  0.1468  0.0098
  181MOL0     C24322   7.243   0.701   7.210  0.0386 -0.3050 -0.0966
  181MOL0     C24323   7.316   0.584   7.281  0.4425 -0.5893 -0.3827
  181MOL0     O24324   7.334   0.586   7.424  0.3964 -0.4553  0.3306
  181MOL0     C24325   7.453   0.625   7.473 -0.5680 -0.9616  0.2784
  181MOL0     C24326   7.531   0.734   7.423 -0.2004 -0.5509 -0.7807
  181MOL0     C24327   7.657   0.766   7.483 -0.3246 -0.1673 -0.8368
  181MOL0     C24328   7.748   0.873   7.418 -0.5467 -0.4958  0.1203
  181MOL0     C24329   7.699   0.695   7.594 -0.2713 -0.1593 -0.0974
  181MOL0     C24330   7.832   0.713   7.662  0.1190  0.1322 -0.2926
  181MOL0     O24331   7.824   0.701   7.797  0.1789 -0.1564 -0.7164
  181MOL0     C24332   7.948   0.692   7.855 -0.7179  0.2853 -0.1545
  181MOL0     C24333   8.039   0.799   7.861  0.3881  0.2097  0.1237
  181MOL0     C24334   8.160   0.784   7.927 -0.2785  1.1688 -0.4911
  181MOL0     C24335   8.185   0.668   8.000 -0.2442 -0.5387 -0.5177
  181MOL0     O24336   8.298   0.644   8.084  0.0316 -0.2837  0.5962
  181MOL0     C24337   8.407   0.738   8.076  0.0471  0.6258 -0.2172
  181MOL0     C24338   8.529   0.692   8.152  0.2081  0.0543 -0.7716
  181MOL0     C24339   8.580   0.562   8.098  0.8514 -0.0996 -0.3724
  181MOL0     C24340   8.728   0.537   8.124 -0.0952  0.5524  0.8129
  181MOL0     C24341   8.766   0.390   8.090  1.0526 -0.1090 -0.3873
  181MOL0     C24342   8.890   0.345   8.168 -0.0023  0.6136 -0.4510
  181MOL0     C24343   8.914   0.202   8.165 -0.4677  0.7830  0.2480
  181MOL0     C24344   9.006   0.145   8.267 -0.3188 -0.6824 -0.4388
  181MOL0    Cl24345   9.179   0.213   8.275  0.3695  0.5913  0.3768
  181MOL0     C24346   8.097   0.561   8.004 -0.2376 -0.1290 -0.1270
  181MOL0     C24347   7.974   0.575   7.931 -0.0636 -0.4519  0.7946
  181MOL0     O24348   7.927   0.732   7.589  0.1047  0.2385  0.1145
  181MOL0     C24349   7.611   0.610   7.658  0.5074  0.2157  0.3324
  181MOL0     C24350   7.490   0.573   7.604  0.0764 -0.3117  0.3614
  181MOL0     N24351   6.976   0.516   7.131 -0.0053 -0.4636 -0.6632
  181MOL0     N24352   6.885   0.508   7.038  0.8279  0.6070  0.7872
  181MOL0     C24353   6.906   0.440   5.892  0.8789  0.0771  0.1636
  181MOL0     C24354   7.008   0.441   5.806 -0.8676 -0.4717  0.4056
  181MOL0     C24355   7.310   0.268   5.530  0.5655 -0.2644  0.3897
  181MOL0     C24356   7.294   0.203   5.408 -0.5944 -0.1643 -0.0299
  181MOL0     C24357   7.396   0.202   5.309  0.7327 -0.1458  0.2418
  181MOL0     C24358   7.519   0.258   5.337 -0.1730  0.4180 -0.1375
  181MOL0     O24359   7.610   0.253   5.235 -0.4423 -0.1480 -0.0475
  181MOL0     C24360   7.712   0.352   5.214  0.1192 -0.7872  0.0572
  181MOL0     C24361   7.790   0.321   5.090  0.1913 -0.2335 -0.7828
  181MOL0     C24362   7.694   0.313   4.976 -0.2809  0.2147  0.4378
  181MOL0     C24363   7.770   0.301   4.839  0.0114 -0.9458  0.0666
  181MOL0     C24364   7.682   0.343   4.734 -0.2766 -0.1093  0.0309
  181MOL0     C24365   7.591   0.360   4.654 -0.2020 -1.7549 -0.3810
  181MOL0     C24366   7.537   0.314   5.457  0.1515 -0.8438 -0.4449
  181MOL0     C24367   7.437   0.326   5.545  0.2466  1.3420 -0.1140
  181MOL0     H24368   7.214   0.220   5.948 -0.2723  0.6125  0.4469
  181MOL0     H24369   7.012   0.204   6.107  3.5127  0.3519  0.5639
  181MOL0     H24370   6.837   0.559   6.121  1.3518  1.2675  0.5983
  181MOL0     H24371   6.686   0.494   6.166  0.9614  1.9702 -2.9485
  181MOL0     H24372   6.796   0.350   6.344  1.5023 -0.9539 -0.1921
  181MOL0     H24373   6.954   0.413   6.298  0.4218  0.8776  0.9560
  181MOL0     H24374   6.913   0.536   6.482  0.8845  1.6202 -0.9928
  181MOL0     H24375   6.864   0.649   6.357 -2.2082  2.6122  2.5072
  181MOL0     H24376   6.631   0.593   6.396 -1.4418 -0.2763  1.0746
  181MOL0     H24377   6.666   0.461   6.506 -1.5110  0.4531  0.4802
  181MOL0     H24378   6.714   0.760   6.566  1.5521 -0.0559 -1.0655
  181MOL0     H24379   6.585   0.646   6.614 -0.5931  0.5070  0.2769
  181MOL0     H24380   6.747   0.510   6.753 -0.7957  0.4536  1.3535
  181MOL0     H24381   6.879   0.627   6.710 -0.6389  2.1025  0.0415
  181MOL0     H24382   6.792   0.789   6.838  1.3651 -1.6229 -0.6104
  181MOL0     H24383   6.630   0.771   6.803 -1.7325 -2.1748 -2.6235
  181MOL0     H24384   6.634   0.535   6.938  0.1331 -0.7396  1.9334
  181MOL0     H24385   6.606   0.690   7.019 -1.3362 -2.7587  1.5414
  181MOL0     H24386   6.772   0.753   7.218 -0.3428 -1.4478  1.2909
  181MOL0     H24387   6.949   0.709   7.400  1.2707 -0.5113  1.4291
  181MOL0     H24388   7.073   0.584   7.371  0.7909 -0.0315 -2.7031
  181MOL0     H24389   7.169   0.799   7.382  3.4552  2.8676 -1.7479
  181MOL0     H24390   7.087   0.856   7.243  0.4405  0.4463  1.3886
  181MOL0     H24391   7.310   0.779   7.173 -0.9022  0.9743  0.8025
  181MOL0     H24392   7.199   0.675   7.113 -1.6830  1.8538  0.0038
  181MOL0     H24393   7.412   0.574   7.229  0.1495 -1.1296 -0.8321
  181MOL0     H24394   7.257   0.495   7.259 -1.1178  0.1388  0.7498
  181MOL0     H24395   7.495   0.807   7.352 -2.4306  0.5879  1.3834
  181MOL0     H24396   7.796   0.929   7.499  0.6301 -0.9438 -0.2462
  181MOL0     H24397   7.830   0.822   7.369 -0.6402  0.0348 -0.6089
  181MOL0     H24398   7.687   0.946   7.363 -0.1891  1.2363  1.8734
  181MOL0     H24399   8.029   0.884   7.794 -1.1057 -1.2958 -1.6647
  181MOL0     H24400   8.240   0.858   7.927 -0.9985  1.9976  0.7033
  181MOL0     H24401   8.431   0.761   7.971 -0.1516  3.5190  0.3043
  181MOL0     H24402   8.377   0.833   8.121 -1.0798  1.6878 -2.9642
  181MOL0     H24403   8.616   0.757   8.144 -0.0323  0.3218 -1.2532
  181MOL0     H24404   8.511   0.671   8.258  1.4246 -1.1708 -0.7864
  181MOL0     H24405   8.562   0.560   7.990  0.8109 -0.9334 -0.3541
  181MOL0     H24406   8.527   0.481   8.150 -0.3221  1.1165  0.3944
  181MOL0     H24407   8.783   0.609   8.062  1.0758 -1.1169 -0.1674
  181MOL0     H24408   8.736   0.566   8.229 -0.7616  0.4084  0.9080
  181MOL0     H24409   8.779   0.371   7.983  1.7044  2.1426 -0.7722
  181MOL0     H24410   8.682   0.327   8.123 -0.2641  1.7435 -0.0211
  181MOL0     H24411   8.982   0.393   8.133  2.2599 -2.2010  1.2021
  181MOL0     H24412   8.876   0.362   8.276 -1.7449 -4.4714  0.3684
  181MOL0     H24413   8.956   0.178   8.067  0.7246  2.3734  0.3287
  181MOL0     H24414   8.817   0.152   8.167 -0.3999  0.6662  1.8173
  181MOL0     H24415   9.014   0.039   8.241  0.3710 -0.8749  0.4810
  181MOL0     H24416   8.952   0.148   8.362  2.1284 -2.0622  1.1082
  181MOL0     H24417   8.121   0.484   8.077  0.6470 -1.6282 -1.9119
  181MOL0     H24418   7.916   0.484   7.938  0.0369 -0.3820  3.1903
  181MOL0     H24419   7.635   0.559   7.751  2.2147  2.4205  1.2002
  181MOL0     H24420   7.414   0.514   7.654 -1.2323  0.7975 -0.2492
  181MOL0     H24421   6.824   0.505   5.864  2.2767  1.0996 -1.7553
  181MOL0     H24422   7.000   0.514   5.726 -0.4869 -0.7732  0.0905
  181MOL0     H24423   7.204   0.143   5.393 -1.9083  0.9255  2.7518
  181MOL0     H24424   7.386   0.155   5.212 -2.5246  2.7340 -1.0396
  181MOL0     H24425   7.663   0.446   5.189  1.2391 -0.1252  0.2965
  181MOL0     H24426   7.771   0.369   5.304 -0.1933  0.5115  0.0334
  181MOL0     H24427   7.845   0.228   5.109  1.1213  0.9610  3.2721
  181MOL0     H24428   7.868   0.396   5.072  0.8844 -0.9964 -0.9973
  181MOL0     H24429   7.624   0.395   4.959  0.9769  1.2149 -0.1572
  181MOL0     H24430   7.632   0.225   4.987 -1.9222  1.0977 -1.2463
  181MOL0     H24431   7.810   0.200   4.825  3.5704  0.1751  1.0201
  181MOL0     H24432   7.862   0.361   4.831  0.4507 -1.8122 -2.0780
  181MOL0     H24433   7.505   0.379   4.593 -0.3729  1.0763  0.6287
  181MOL0     H24434   7.624   0.369   5.489 -1.5553  1.6185  0.2744
  181MOL0     H24435   7.453   0.378   5.639 -1.4216  0.2071  0.8527
  182MOL0     O24436   8.695   9.997   0.075 -0.3952  0.4247  0.5623
  182MOL0     C24437   8.708   9.949   0.187 -1.3200  0.4854 -0.0834
  182MOL0     O24438   8.635   9.846   0.234 -1.1279 -0.2140 -0.2373
  182MOL0     C24439   8.509   9.824   0.187 -0.4285  0.2269  0.4807
  182MOL0     C24440   8.474   9.704   0.132  0.4800  0.2738 -0.1614
  182MOL0     C24441   8.344   9.675   0.085 -0.2152 -0.2501 -0.7000
  182MOL0     C24442   8.242   9.770   0.102 -1.0088  0.0845  0.7850
  182MOL0     O24443   8.113   9.756   0.062  0.3788  0.2427  0.0605
  182MOL0     C24444   8.047   9.632   0.036 -0.3560  0.4254  0.3522
  182MOL0     C24445   8.012   9.556   0.168 -0.1914 -0.0286 -0.2598
  182MOL0     C24446   7.911   9.628   0.261 -0.2105  0.2479 -0.6098
  182MOL0     C24447   7.836   9.530   0.350  0.2460 -0.3528  0.1763
  182MOL0     C24448   7.720   9.602   0.421  0.1948  0.2664  0.6892
  182MOL0     C24449   7.639   9.501   0.496  1.1475 -0.5571 -0.2383
  182MOL0     C24450   7.555   9.586   0.589  0.7402 -0.3363  0.3410
  182MOL0     C24451   7.443   9.501   0.658 -1.0333 -0.4253  0.0278
  182MOL0     N24452   7.352   9.446   0.558  0.1345 -0.0275  0.0877
  182MOL0     C24453   7.264   9.514   0.471  0.7292  0.2536  0.4907
  182MOL0     C24454   7.207   9.405   0.403  0.5358 -0.1512 -0.2107
  182MOL0     C24455   7.090   9.410   0.309  0.5023  0.1095 -0.1122
  182MOL0     C24456   7.109   9.325   0.179  0.4895 -0.1963 -0.3629
  182MOL0     C24457   6.978   9.348   0.099 -0.1942 -0.1894 -0.4065
  182MOL0     C24458   6.853   9.286   0.165  0.3886 -0.2285  1.1840
  182MOL0     O24459   6.738   9.314   0.079 -0.3297  0.0018 -0.0514
  182MOL0     C24460   6.610   9.294   0.133 -0.1873 -0.8431 -0.2472
  182MOL0     C24461   6.574   9.224   0.249  0.1036 -0.9897  0.0130
  182MOL0     C24462   6.448   9.222   0.300 -0.2079 -0.4515 -0.0964
  182MOL0     C24463   6.446   9.139   0.428  0.2958  0.8422 -0.7924
  182MOL0     C24464   6.339   9.282   0.241  0.3424 -0.6539 -0.5677
  182MOL0     C24465   6.208   9.302   0.300  1.0386  0.9614 -0.1662
  182MOL0     O24466   6.100   9.322   0.211  0.0976 -0.7514 -0.2476
  182MOL0     C24467   5.977   9.303   0.255 -0.2024 -0.2703 -0.7917
  182MOL0     C24468   5.914   9.411   0.319 -0.2324  0.4021  0.4674
  182MOL0     C24469   5.780   9.406   0.363 -0.1244  0.8269 -0.7229
  182MOL0     C24470   5.702   9.296   0.330 -0.5203  0.1044 -0.0294
  182MOL0     O24471   5.578   9.279   0.371 -0.2023  0.0910  0.2176
  182MOL0     C24472   5.502   9.365   0.452  0.8923  0.6140 -0.0214
  182MOL0     C24473   5.388   9.287   0.528  0.0019  0.6571 -0.5443
  182MOL0     C24474   5.290   9.209   0.430  0.2299 -0.9992  0.1418
  182MOL0     C24475   5.181   9.142   0.517  0.0474  0.6001  0.0626
  182MOL0     C24476   5.070   9.052   0.430  0.2839 -0.2020 -0.3570
  182MOL0     C24477   5.139   8.941   0.362  0.2666  0.5046 -0.6386
  182MOL0     C24478   5.032   8.834   0.313  0.2087 -1.0730 -0.2253
  182MOL0     C24479   5.090   8.700   0.253 -0.6860  0.1537  0.1386
  182MOL0    Cl24480   5.162   8.703   0.089  0.2209  0.1335 -0.6669
  182MOL0     C24481   5.770   9.198   0.247  0.4728  0.1037  0.5796
  182MOL0     C24482   5.903   9.196   0.219 -0.2273 -0.7867  0.6420
  182MOL0     O24483   6.201   9.294   0.422 -0.8997 -0.2920 -0.2714
  182MOL0     C24484   6.367   9.336   0.114 -0.1179  0.4906  0.1928
  182MOL0     C24485   6.499   9.337   0.059 -0.1782  0.3425  0.2115
  182MOL0     N24486   7.266   9.288   0.449  0.2109 -0.5115 -0.0596
  182MOL0     N24487   7.357   9.317   0.526 -0.3995  0.6486 -0.0282
  182MOL0     C24488   8.272   9.895   0.142  0.1156  0.2706 -0.7947
  182MOL0     C24489   8.402   9.923   0.191 -0.5853  0.8099  0.7340
  182MOL0     C24490   8.802  10.018   0.276 -0.7201 -0.3197 -0.3830
  182MOL0     C24491   8.797   9.998   0.415 -0.5293  0.6487  0.5906
  182MOL0     C24492   8.894  10.060   0.499  0.2323  0.0965  0.0680
  182MOL0     C24493   8.986  10.158   0.454  0.4592 -0.4050 -0.1841
  182MOL0     O24494   9.085  10.201   0.545 -0.2775 -0.2736 -0.2483
  182MOL0     C24495   9.194  10.267   0.477  0.6946 -0.5252 -0.3132
  182MOL0     C24496   9.311  10.291   0.584  0.7522 -0.4754 -0.3454
  182MOL0     C24497   9.256  10.365   0.714 -0.3871  0.9044 -0.0413
  182MOL0     C24498   9.361  10.443   0.792  1.0027  0.1596 -0.7373
  182MOL0     C24499   9.294  10.527   0.885  0.0785  0.4791 -1.0235
  182MOL0     C24500   9.251  10.601   0.973 -0.6236  1.5067  0.3640
  182MOL0     C24501   8.985  10.180   0.315  0.1116  0.4544 -0.5425
  182MOL0     C24502   8.892  10.116   0.229  0.1363 -0.0783 -0.1477
  182MOL0     H24503   8.550   9.628   0.119  1.7723  1.1582  1.7655
  182MOL0     H24504   8.322   9.578   0.040 -0.9503 -2.0573  3.2028
  182MOL0     H24505   7.948   9.656  -0.004 -0.9093  2.9318  2.9317
  182MOL0     H24506   8.100   9.570  -0.037  0.0872  1.9078 -0.6265
  182MOL0     H24507   7.957   9.470   0.128 -1.3472 -0.3436  1.8987
  182MOL0     H24508   8.101   9.519   0.218 -2.3471 -4.9417  0.5052
  182MOL0     H24509   7.965   9.698   0.325 -0.1004 -0.5974  0.2250
  182MOL0     H24510   7.848   9.682   0.189  0.3644 -1.3776 -2.4141
  182MOL0     H24511   7.801   9.440   0.299  0.7646 -1.4393  1.6653
  182MOL0     H24512   7.908   9.494   0.425 -0.5466  2.1334  2.2892
  182MOL0     H24513   7.772   9.669   0.490 -2.1963  0.9398  1.9544
  182MOL0     H24514   7.657   9.662   0.354  1.0521  1.7789  1.1887
  182MOL0     H24515   7.582   9.434   0.430  1.1038  0.7548 -1.5664
  182MOL0     H24516   7.708   9.456   0.569  0.7777  3.7049  3.1781
  182MOL0     H24517   7.623   9.630   0.663  0.5711  0.4991  0.0106
  182MOL0     H24518   7.504   9.669   0.540 -1.1174  0.8462  3.9546
  182MOL0     H24519   7.385   9.552   0.735 -1.5590  0.1709 -0.7415
  182MOL0     H24520   7.502   9.422   0.704  1.0709 -0.1786 -2.0270
  182MOL0     H24521   7.237   9.619   0.470 -1.1803 -0.2017 -0.6926
  182MOL0     H24522   7.012   9.360   0.367 -0.2154  0.4184 -0.7956
  182MOL0     H24523   7.060   9.513   0.287 -0.9404 -0.3696 -0.5331
  182MOL0     H24524   7.132   9.220   0.201  3.1993  0.3897  0.0462
  182MOL0     H24525   7.198   9.360   0.126  0.0375  3.8749  1.1992
  182MOL0     H24526   6.987   9.296   0.003  0.6003 -5.0291  2.0362
  182MOL0     H24527   6.952   9.453   0.078  2.4530  0.4245 -1.0659
  182MOL0     H24528   6.835   9.323   0.266  0.3275 -0.0494  1.1080
  182MOL0     H24529   6.863   9.177   0.174  0.5245 -0.3247  0.0358
  182MOL0     H24530   6.657   9.183   0.305 -0.1140  0.8066  1.7251
  182MOL0     H24531   6.343   9.114   0.456 -0.2094  2.6255 -0.9072
  182MOL0     H24532   6.503   9.048   0.414  0.5690  0.6289  1.2972
  182MOL0     H24533   6.481   9.192   0.517  0.7529 -0.1800 -0.3515
  182MOL0     H24534   5.970   9.502   0.337  1.7675 -1.1767  2.7588
  182MOL0     H24535   5.734   9.484   0.422 -6.5860 -3.1184  0.4569
  182MOL0     H24536   5.561   9.406   0.534  0.1928 -3.3420  2.7172
  182MOL0     H24537   5.459   9.441   0.386 -0.9847 -0.7004 -0.4024
  182MOL0     H24538   5.432   9.207   0.589 -3.9540 -0.5965  0.9906
  182MOL0     H24539   5.331   9.353   0.595 -1.6145  0.7741 -1.9640
  182MOL0     H24540   5.345   9.139   0.366 -0.2600 -1.9609  0.7513
  182MOL0     H24541   5.237   9.279   0.365  1.6995 -0.9833 -1.0971
  182MOL0     H24542   5.234   9.065   0.574 -0.5177 -0.4076 -0.7255
  182MOL0     H24543   5.132   9.206   0.591  0.7946  0.0755  1.0415
  182MOL0     H24544   5.026   9.115   0.352  0.4708 -0.1274 -0.4052
  182MOL0     H24545   5.000   9.015   0.505  0.7155  1.9412  1.1853
  182MOL0     H24546   5.196   8.984   0.279  1.3013 -0.3663 -0.4071
  182MOL0     H24547   5.207   8.887   0.429 -2.5241 -1.6383  0.6560
  182MOL0     H24548   4.977   8.876   0.229  1.1802  0.8699  0.0469
  182MOL0     H24549   4.953   8.807   0.385 -0.1293 -1.2360 -0.6537
  182MOL0     H24550   5.010   8.627   0.269 -1.1292  0.6353  0.1463
  182MOL0     H24551   5.171   8.671   0.320 -0.2577  0.7893 -0.0939
  182MOL0     H24552   5.720   9.112   0.204 -0.9268  1.8057 -1.4210
  182MOL0     H24553   5.935   9.115   0.154  1.1437  0.4933 -0.3340
  182MOL0     H24554   6.286   9.379   0.055  2.5316  5.2254 -0.5638
  182MOL0     H24555   6.528   9.370  -0.040 -0.7468 -3.6563 -1.4671
  182MOL0     H24556   8.193   9.970   0.140 -0.6432 -0.4993 -0.6512
  182MOL0     H24557   8.420  10.021   0.233 -2.6864  0.5690  2.3750
  182MOL0     H24558   8.718   9.936   0.456 -0.1194  2.0339  3.7454
  182MOL0     H24559   8.894  10.031   0.604  0.7921 -0.0523  0.0286
  182MOL0     H24560   9.230  10.205   0.394  3.6023  2.7542 -1.7834
  182MOL0     H24561   9.163  10.363   0.435 -1.0825 -1.1983 -0.6207
  182MOL0     H24562   9.396  10.345   0.542  1.9153  0.0084  2.4573
  182MOL0     H24563   9.338  10.188   0.612  1.9931  0.5351  2.5210
  182MOL0     H24564   9.206  10.292   0.778  1.2387 -1.2760 -1.1279
  182MOL0     H24565   9.194  10.444   0.670  0.3861  1.8394  0.5144
  182MOL0     H24566   9.413  10.509   0.722  0.1498  2.4656  0.6892
  182MOL0     H24567   9.420  10.367   0.845 -0.7199  0.5435  1.9101
  182MOL0     H24568   9.224  10.666   1.055 -0.4474 -1.7121  3.1836
  182MOL0     H24569   9.059  10.243   0.268 -0.2037  1.5996  0.4335
  182MOL0     H24570   8.898  10.147   0.125  1.7795  1.0039  0.2232
  183MOL0     O24571   2.321   8.995   3.447  0.5790 -0.1250 -0.2478
  183MOL0     C24572   2.392   8.910   3.500 -0.1323 -0.3532  0.4990
  183MOL0     O24573   2.353   8.823   3.592 -0.1801  0.6356  0.4081
  183MOL0     C24574   2.220   8.806   3.634  0.5317  0.1534 -0.6986
  183MOL0     C24575   2.193   8.681   3.692 -0.5417 -0.3613 -0.3831
  183MOL0     C24576   2.071   8.653   3.754 -0.4113 -0.3700  0.9362
  183MOL0     C24577   1.981   8.751   3.767 -0.7907 -0.5215 -0.6185
  183MOL0     O24578   1.870   8.708   3.833 -0.1077  0.3948  0.1513
  183MOL0     C24579   1.786   8.796   3.906  0.5213  0.3841  0.2927
  183MOL0     C24580   1.698   8.718   4.011  0.3703 -1.2295  0.1742
  183MOL0     C24581   1.597   8.821   4.071  0.1689  0.5539  0.1093
  183MOL0     C24582   1.512   8.773   4.181  0.4827  0.1071  0.0695
  183MOL0     C24583   1.396   8.695   4.125  0.2646  0.3442  0.2182
  183MOL0     C24584   1.280   8.649   4.221 -0.1952 -0.4749  0.3978
  183MOL0     C24585   1.218   8.759   4.305 -0.4990 -0.3614  0.2472
  183MOL0     C24586   1.140   8.863   4.228  0.0328  0.3136 -0.1292
  183MOL0     N24587   1.081   8.947   4.328  1.0239  0.0379 -0.6365
  183MOL0     C24588   0.966   8.918   4.400 -0.6958 -0.3684  0.0979
  183MOL0     C24589   0.911   9.046   4.423 -0.2648 -0.1985  0.2482
  183MOL0     C24590   0.776   9.087   4.471  0.4445  0.0134 -0.6346
  183MOL0     C24591   0.773   9.228   4.546  0.1413 -0.0704  0.0393
  183MOL0     C24592   0.652   9.240   4.644  0.3119 -0.1607 -0.1650
  183MOL0     C24593   0.516   9.272   4.573  0.1455  0.2734  0.6668
  183MOL0     O24594   0.418   9.312   4.668  0.1003 -0.2253 -0.0435
  183MOL0     C24595   0.287   9.325   4.626  0.6277  0.2666  0.5829
  183MOL0     C24596   0.246   9.352   4.496  0.2750  1.0150 -1.2219
  183MOL0     C24597   0.103   9.376   4.471 -0.4273 -0.7134 -0.1220
  183MOL0     C24598   0.067   9.374   4.324  0.1250  0.3195 -0.6681
  183MOL0     C24599   0.008   9.383   4.573 -0.3370  0.1207  0.0795
  183MOL0     C24600  -0.138   9.390   4.558  0.0315 -0.1550  0.5950
  183MOL0     O24601  -0.219   9.347   4.664 -0.1712 -0.4796  0.0797
  183MOL0     C24602  -0.359   9.373   4.684 -0.3595  0.4976  0.3080
  183MOL0     C24603  -0.457   9.391   4.588  0.0098 -0.0397  0.2779
  183MOL0     C24604  -0.588   9.403   4.628 -0.1941  0.2805  0.0190
  183MOL0     C24605  -0.625   9.399   4.766 -0.1503 -0.3530  0.0687
  183MOL0     O24606  -0.759   9.411   4.796 -0.3772 -0.1099  0.8652
  183MOL0     C24607  -0.808   9.307   4.888  0.8164 -0.4391  0.0248
  183MOL0     C24608  -0.950   9.348   4.932 -0.5744  0.0417 -1.0684
  183MOL0     C24609  -1.042   9.364   4.807 -0.2438  0.4821  0.2566
  183MOL0     C24610  -1.189   9.404   4.836 -0.4676  0.2684 -0.6386
  183MOL0     C24611  -1.267   9.417   4.706  0.5666 -0.2681 -0.4781
  183MOL0     C24612  -1.402   9.478   4.728 -0.2744  0.6190 -0.3832
  183MOL0     C24613  -1.399   9.621   4.780 -0.2874 -0.1810 -0.5548
  183MOL0     C24614  -1.520   9.703   4.731 -0.0359  1.1266 -0.3616
  183MOL0    Cl24615  -1.490   9.725   4.559  0.2391  0.0296 -0.2911
  183MOL0     C24616  -0.526   9.383   4.863 -0.7510 -0.3540 -0.3911
  183MOL0     C24617  -0.392   9.378   4.823 -0.2213  0.3197  0.0367
  183MOL0     O24618  -0.187   9.432   4.451 -0.2819  0.1768 -0.3896
  183MOL0     C24619   0.059   9.357   4.701  0.4036 -0.0907 -0.7655
  183MOL0     C24620   0.194   9.329   4.733  0.3251 -0.6494 -0.0295
  183MOL0     N24621   0.990   9.144   4.372 -0.3291  0.4797  0.1018
  183MOL0     N24622   1.086   9.084   4.310 -0.7327 -0.5461 -0.0772
  183MOL0     C24623   2.003   8.879   3.723  0.0595 -0.0491  0.2429
  183MOL0     C24624   2.125   8.914   3.666  0.1655 -0.0165 -0.1026
  183MOL0     C24625   2.530   8.902   3.476  0.4326 -0.1378 -0.1636
  183MOL0     C24626   2.628   8.848   3.559 -0.3554  0.5909  0.9587
  183MOL0     C24627   2.761   8.867   3.528  0.6174 -0.1314 -0.4696
  183MOL0     C24628   2.805   8.918   3.408 -0.5964  0.4640  0.7051
  183MOL0     O24629   2.936   8.910   3.369 -0.0448  0.0845 -0.3681
  183MOL0     C24630   3.045   8.835   3.442 -0.0784 -0.9206  0.7262
  183MOL0     C24631   3.166   8.845   3.350  0.5280  0.5533  0.3565
  183MOL0     C24632   3.135   8.785   3.212  0.1351 -1.3238 -0.5591
  183MOL0     C24633   3.266   8.755   3.124  0.4071 -0.3208  0.3236
  183MOL0     C24634   3.344   8.875   3.115  0.0106 -0.4767 -0.0427
  183MOL0     C24635   3.401   8.985   3.109  0.2236  0.5849  0.1959
  183MOL0     C24636   2.705   8.983   3.331  0.0387 -0.6933  0.0212
  183MOL0     C24637   2.571   8.980   3.369 -0.2493 -0.5738 -0.1299
  183MOL0     H24638   2.265   8.601   3.679 -0.3376  0.0559 -2.0904
  183MOL0     H24639   2.050   8.555   3.795 -0.8709 -1.5833 -2.0062
  183MOL0     H24640   1.845   8.874   3.956  1.3311 -0.6460  0.9884
  183MOL0     H24641   1.724   8.849   3.832 -0.1107 -2.6206 -1.5090
  183MOL0     H24642   1.659   8.634   3.952 -0.5716  1.2300 -2.9814
  183MOL0     H24643   1.766   8.677   4.086  0.1532 -0.3740  0.8429
  183MOL0     H24644   1.651   8.909   4.109 -2.5884  2.8711 -0.9872
  183MOL0     H24645   1.534   8.852   3.988 -2.1948  0.1352  1.6376
  183MOL0     H24646   1.554   8.712   4.260 -1.7090  0.2149  1.4089
  183MOL0     H24647   1.465   8.855   4.237 -3.3531 -1.6886 -0.1683
  183MOL0     H24648   1.343   8.765   4.059 -1.9261 -0.3411  1.1333
  183MOL0     H24649   1.432   8.603   4.078  2.6685  0.7109  1.1902
  183MOL0     H24650   1.196   8.606   4.166 -0.3836 -1.0012  1.0781
  183MOL0     H24651   1.324   8.570   4.282  1.4487 -0.1121 -0.2481
  183MOL0     H24652   1.149   8.704   4.370 -0.3244  0.1232  0.8544
  183MOL0     H24653   1.292   8.815   4.364  0.1630 -0.6270 -0.3186
  183MOL0     H24654   1.061   8.812   4.172 -0.7360  1.1437  0.1690
  183MOL0     H24655   1.209   8.913   4.159  2.5499 -1.4148  1.0057
  183MOL0     H24656   0.921   8.819   4.408  1.2880 -1.6703 -2.8486
  183MOL0     H24657   0.707   9.095   4.387  0.2158  0.1880 -0.4321
  183MOL0     H24658   0.746   9.013   4.547  2.2816 -0.3170 -0.1777
  183MOL0     H24659   0.763   9.303   4.466  0.6123  0.9259  0.8947
  183MOL0     H24660   0.869   9.245   4.596  1.1292  0.2083 -1.8643
  183MOL0     H24661   0.670   9.307   4.728  0.3007 -0.7915  0.3515
  183MOL0     H24662   0.650   9.141   4.692  2.6143 -0.1401  0.0952
  183MOL0     H24663   0.484   9.179   4.524  3.2479 -0.5174 -0.0606
  183MOL0     H24664   0.519   9.344   4.491 -1.8028 -1.8270 -1.4429
  183MOL0     H24665   0.312   9.342   4.410  1.1348 -2.0476 -0.3668
  183MOL0     H24666  -0.032   9.337   4.295 -0.9580  2.5509 -0.0690
  183MOL0     H24667   0.083   9.473   4.280 -0.3313  0.6750 -0.0510
  183MOL0     H24668   0.143   9.310   4.278  0.9085 -0.9100  2.1465
  183MOL0     H24669  -0.436   9.416   4.484  2.1221 -0.2454  0.6053
  183MOL0     H24670  -0.667   9.426   4.558 -2.7496  2.2306  3.2350
  183MOL0     H24671  -0.810   9.213   4.832 -1.7327 -0.1262 -0.5313
  183MOL0     H24672  -0.747   9.289   4.977 -0.5127 -0.1897  1.0239
  183MOL0     H24673  -0.993   9.274   5.001  0.4057 -1.3080 -1.8376
  183MOL0     H24674  -0.934   9.441   4.986  3.4911 -1.5695  0.9667
  183MOL0     H24675  -1.029   9.276   4.744 -0.9364 -0.8022  1.8312
  183MOL0     H24676  -1.000   9.448   4.751  0.9620  0.5869  1.2905
  183MOL0     H24677  -1.234   9.325   4.897 -3.5184  1.7211 -0.8367
  183MOL0     H24678  -1.202   9.496   4.893 -1.0884  0.3987 -0.9851
  183MOL0     H24679  -1.275   9.313   4.675 -2.1670 -0.7313  1.4201
  183MOL0     H24680  -1.210   9.471   4.630  2.1595  2.2721  2.3035
  183MOL0     H24681  -1.453   9.474   4.631 -0.2235  0.8079 -0.4169
  183MOL0     H24682  -1.446   9.404   4.796  1.9250 -3.0212 -2.5231
  183MOL0     H24683  -1.313   9.679   4.745 -0.7850  3.0029  2.9129
  183MOL0     H24684  -1.399   9.620   4.890 -0.4454  2.0212 -0.4908
  183MOL0     H24685  -1.536   9.801   4.777 -3.1820  0.2029  0.7902
  183MOL0     H24686  -1.615   9.649   4.733  0.5048  0.1629  0.4366
  183MOL0     H24687  -0.561   9.392   4.965  1.6567  1.5342  0.3566
  183MOL0     H24688  -0.313   9.365   4.897  0.4295  0.4609 -0.6212
  183MOL0     H24689  -0.009   9.364   4.785  1.9790 -1.5410  0.6974
  183MOL0     H24690   0.222   9.315   4.837 -0.3540 -0.9258  0.1202
  183MOL0     H24691   1.927   8.956   3.734 -0.8168 -0.7892 -0.3850
  183MOL0     H24692   2.152   9.018   3.647 -0.6604 -0.0742 -1.8093
  183MOL0     H24693   2.594   8.800   3.650 -0.6028  1.0326  1.1028
  183MOL0     H24694   2.830   8.831   3.604 -0.3282  0.4356  0.6883
  183MOL0     H24695   3.068   8.883   3.538 -0.8199 -2.7688  1.8907
  183MOL0     H24696   3.012   8.731   3.451 -0.1879 -1.0513 -0.9230
  183MOL0     H24697   3.235   8.776   3.399 -0.0413  0.6181  1.2879
  183MOL0     H24698   3.206   8.947   3.340 -2.1891  1.5413 -1.7520
  183MOL0     H24699   3.062   8.842   3.153 -0.4416 -2.1924 -0.7112
  183MOL0     H24700   3.079   8.696   3.243  0.6957 -1.0969  1.2185
  183MOL0     H24701   3.230   8.723   3.026  0.2139 -0.4515  0.4355
  183MOL0     H24702   3.323   8.671   3.165  0.1402 -0.0440  1.2785
  183MOL0     H24703   3.463   9.073   3.104  0.6393  0.2422 -0.9641
  183MOL0     H24704   2.738   9.038   3.243  1.7647 -0.0202  1.0421
  183MOL0     H24705   2.497   9.027   3.305 -1.2781 -1.3787  0.4397
  184MOL0     O24706   7.490   0.999   9.596 -0.7350 -0.3592 -0.2792
  184MOL0     C24707   7.566   1.014   9.511 -0.1258  0.3538  0.3060
  184MOL0     O24708   7.548   0.978   9.377 -0.1852 -0.3630 -0.0617
  184MOL0     C24709   7.441   0.893   9.344 -0.1358 -0.5527 -0.1107
  184MOL0     C24710   7.369   0.797   9.419 -0.2274 -0.3114  0.1684
  184MOL0     C24711   7.263   0.733   9.357  0.5311 -0.0638 -0.8909
  184MOL0     C24712   7.224   0.757   9.229 -0.2271 -0.5105 -0.3223
  184MOL0     O24713   7.124   0.705   9.148  0.0343  0.3975 -0.0461
  184MOL0     C24714   7.052   0.594   9.196 -0.1531 -0.0733 -0.5853
  184MOL0     C24715   6.911   0.575   9.127  1.2707 -0.0199 -0.2663
  184MOL0     C24716   6.812   0.698   9.150  0.2999 -0.2096  0.1965
  184MOL0     C24717   6.686   0.669   9.066 -0.3415 -0.2141 -0.7377
  184MOL0     C24718   6.598   0.786   9.099  0.9499 -0.0477 -0.2606
  184MOL0     C24719   6.460   0.774   9.022 -0.3142 -0.6054 -0.8960
  184MOL0     C24720   6.462   0.776   8.871  0.2411  0.3963  0.8381
  184MOL0     C24721   6.325   0.769   8.803 -0.0048  0.2372  0.3970
  184MOL0     N24722   6.266   0.633   8.782 -0.3805  0.1740 -0.6031
  184MOL0     C24723   6.141   0.590   8.822 -0.3587 -0.3358 -0.5202
  184MOL0     C24724   6.143   0.456   8.815  0.6348  0.4789 -0.1123
  184MOL0     C24725   6.037   0.358   8.845 -0.5804  0.5570 -0.1120
  184MOL0     C24726   5.920   0.349   8.746  1.3152  0.3533 -0.1584
  184MOL0     C24727   5.951   0.276   8.618 -0.2640  0.9165  0.3331
  184MOL0     C24728   5.815   0.247   8.555  0.5323  0.5862 -0.3919
  184MOL0     O24729   5.838   0.179   8.434 -0.3748  0.5275 -0.8079
  184MOL0     C24730   5.731   0.139   8.361  0.0331 -0.3627  0.2277
  184MOL0     C24731   5.763   0.058   8.250 -0.7038  0.4485 -0.4068
  184MOL0     C24732   5.665   0.021   8.158 -0.2723 -0.8026  1.0518
  184MOL0     C24733   5.706  -0.056   8.035 -0.4158 -0.4999 -0.5217
  184MOL0     C24734   5.529   0.058   8.175 -0.7015  0.2398  0.0665
  184MOL0     C24735   5.418   0.019   8.076  0.1929  0.7308  0.1540
  184MOL0     O24736   5.290   0.065   8.105 -0.2584  0.0181  0.7737
  184MOL0     C24737   5.192   0.044   8.007 -0.3707 -0.7715  0.8528
  184MOL0     C24738   5.082  -0.043   8.045 -0.0356 -0.3757  0.4984
  184MOL0     C24739   4.980  -0.072   7.959  0.1316  0.0133 -0.7200
  184MOL0     C24740   4.980  -0.009   7.836  0.3275  0.7776  0.8137
  184MOL0     O24741   4.892  -0.038   7.728  0.1843 -1.0234 -0.1643
  184MOL0     C24742   4.754  -0.070   7.769  0.3393  0.0774 -0.1019
  184MOL0     C24743   4.674  -0.134   7.657  0.3267 -0.0792 -0.3255
  184MOL0     C24744   4.534  -0.161   7.707 -0.5168 -0.6300 -0.2944
  184MOL0     C24745   4.451  -0.248   7.617 -0.3114 -0.8268  0.0762
  184MOL0     C24746   4.312  -0.271   7.655 -0.3126  0.5025 -0.1109
  184MOL0     C24747   4.310  -0.360   7.779 -0.2415  0.2638  0.9048
  184MOL0     C24748   4.174  -0.422   7.790 -0.0130  1.0442 -0.5085
  184MOL0     C24749   4.187  -0.565   7.841 -0.1558  0.4718  0.2253
  184MOL0    Cl24750   4.036  -0.649   7.828  0.4318 -0.1763 -0.3047
  184MOL0     C24751   5.080   0.077   7.799  0.0907 -0.0860 -0.0624
  184MOL0     C24752   5.187   0.110   7.886 -0.3468  0.2668  0.0139
  184MOL0     O24753   5.438  -0.051   7.979  0.1732  0.6317 -0.0555
  184MOL0     C24754   5.501   0.134   8.282  0.3950  0.4591 -1.0169
  184MOL0     C24755   5.594   0.172   8.382 -0.5494 -0.2475  0.7782
  184MOL0     N24756   6.271   0.419   8.779 -0.0352  0.1189  0.0469
  184MOL0     N24757   6.345   0.520   8.768 -0.7634  0.3741 -0.4228
  184MOL0     C24758   7.305   0.842   9.159 -0.0398  0.2001  0.0754
  184MOL0     C24759   7.410   0.918   9.218  0.7364  0.0171  1.1173
  184MOL0     C24760   7.706   1.046   9.549 -0.5081  0.8986 -0.2598
  184MOL0     C24761   7.752   1.015   9.675 -0.7852  0.2826  0.7597
  184MOL0     C24762   7.895   1.012   9.701 -0.1784 -0.2698  0.5264
  184MOL0     C24763   7.992   1.062   9.608  0.4196 -0.2284  0.1436
  184MOL0     O24764   8.118   1.052   9.641 -0.1202 -0.4961 -0.0796
  184MOL0     C24765   8.223   1.123   9.564 -0.2335 -0.6218  0.4858
  184MOL0     C24766   8.343   1.126   9.659  1.0405  0.2713  0.3936
  184MOL0     C24767   8.460   1.187   9.591 -0.4604 -0.6280 -0.9131
  184MOL0     C24768   8.525   1.095   9.488 -0.4609 -0.8965  0.1457
  184MOL0     C24769   8.647   1.173   9.437  0.3628  0.4993 -0.4613
  184MOL0     C24770   8.745   1.229   9.398  0.0315 -0.4292  0.0511
  184MOL0     C24771   7.945   1.102   9.481 -0.3357  0.4418  0.1913
  184MOL0     C24772   7.806   1.087   9.451  0.0426 -0.4725  0.0520
  184MOL0     H24773   7.385   0.771   9.523  0.6670 -1.2409 -0.1886
  184MOL0     H24774   7.201   0.671   9.421 -0.3653 -0.0693 -1.7337
  184MOL0     H24775   7.106   0.499   9.192  0.8038  0.3704  0.8020
  184MOL0     H24776   7.024   0.611   9.301 -1.0610 -0.3088 -0.7877
  184MOL0     H24777   6.932   0.558   9.020 -0.8446 -1.1019 -0.5605
  184MOL0     H24778   6.859   0.486   9.163  0.3305  1.0913  1.1907
  184MOL0     H24779   6.790   0.699   9.257 -0.2825 -0.6157  0.0832
  184MOL0     H24780   6.858   0.790   9.112  0.1270  0.4230  1.4956
  184MOL0     H24781   6.716   0.672   8.961 -0.5005 -0.8312 -0.8031
  184MOL0     H24782   6.643   0.578   9.108  2.6143 -0.6463  1.6712
  184MOL0     H24783   6.590   0.791   9.208  1.5505 -2.1879 -0.0575
  184MOL0     H24784   6.647   0.879   9.068 -0.2038  0.8655  0.5945
  184MOL0     H24785   6.420   0.682   9.064  2.1201 -0.4379  2.1037
  184MOL0     H24786   6.403   0.852   9.074 -0.6018 -1.6689  0.4313
  184MOL0     H24787   6.516   0.864   8.835  1.3720 -0.4928  0.2441
  184MOL0     H24788   6.516   0.684   8.845 -1.5019 -1.3761  3.0801
  184MOL0     H24789   6.339   0.829   8.713 -1.3912 -0.1129 -0.0817
  184MOL0     H24790   6.253   0.829   8.859 -0.7841 -1.5266  1.3746
  184MOL0     H24791   6.056   0.653   8.841  0.7511  1.3835 -1.0340
  184MOL0     H24792   6.087   0.261   8.850 -1.2537  0.0221 -2.6411
  184MOL0     H24793   5.992   0.389   8.940 -0.9304  1.5079 -0.5744
  184MOL0     H24794   5.889   0.452   8.728  2.8656  0.9293  0.3002
  184MOL0     H24795   5.838   0.299   8.798  0.1032  1.4940 -0.9166
  184MOL0     H24796   6.000   0.180   8.639 -1.1813  0.5640  0.9219
  184MOL0     H24797   6.023   0.333   8.558 -0.1704  1.9010  1.3374
  184MOL0     H24798   5.770   0.345   8.541 -0.0313  0.3189 -0.4890
  184MOL0     H24799   5.757   0.183   8.622  2.7394 -1.0297  0.1192
  184MOL0     H24800   5.864   0.019   8.252 -0.8091  0.1264  2.2759
  184MOL0     H24801   5.814  -0.071   8.029 -0.3781  0.0375 -1.1974
  184MOL0     H24802   5.662  -0.156   8.049 -2.2146  0.5174  1.6630
  184MOL0     H24803   5.674  -0.008   7.943 -0.1723  1.9727  0.6227
  184MOL0     H24804   5.077  -0.075   8.148 -1.8299  0.1520  0.5975
  184MOL0     H24805   4.909  -0.143   8.001 -0.3999  1.3944  0.8664
  184MOL0     H24806   4.746  -0.134   7.857  2.3396  1.1848  0.9746
  184MOL0     H24807   4.722   0.027   7.806 -1.3115 -0.5315  0.1104
  184MOL0     H24808   4.665  -0.061   7.576 -0.7602 -2.1736 -2.2319
  184MOL0     H24809   4.719  -0.226   7.617 -1.7566 -2.0989  1.6934
  184MOL0     H24810   4.481  -0.066   7.714  1.7075  0.6063  0.8730
  184MOL0     H24811   4.532  -0.216   7.802 -0.5443  1.7957  1.1861
  184MOL0     H24812   4.441  -0.193   7.524 -0.4934 -1.1945 -0.1257
  184MOL0     H24813   4.509  -0.340   7.603 -0.6852 -1.1794  0.7952
  184MOL0     H24814   4.258  -0.328   7.578 -2.8553  1.5333  0.7994
  184MOL0     H24815   4.258  -0.177   7.669 -0.0631  0.5173  0.8392
  184MOL0     H24816   4.379  -0.444   7.760 -3.1690 -2.0570 -0.3387
  184MOL0     H24817   4.342  -0.318   7.874 -1.7918 -0.7000  1.8917
  184MOL0     H24818   4.120  -0.434   7.695 -0.1900  1.3081 -0.4435
  184MOL0     H24819   4.107  -0.368   7.858  0.7878  1.7190 -0.2364
  184MOL0     H24820   4.226  -0.561   7.943  2.2506 -3.4806 -0.3328
  184MOL0     H24821   4.266  -0.627   7.799 -0.3247 -0.9959  1.9256
  184MOL0     H24822   5.078   0.133   7.706  0.6929 -0.2043 -0.1457
  184MOL0     H24823   5.271   0.172   7.858  0.0368 -0.4993 -0.5843
  184MOL0     H24824   5.400   0.173   8.288  1.3009  3.0559 -1.3346
  184MOL0     H24825   5.562   0.218   8.475 -0.6863 -2.3658  1.8191
  184MOL0     H24826   7.277   0.867   9.057 -0.1277  0.4124  0.1510
  184MOL0     H24827   7.460   0.993   9.157 -0.0906  0.6032  1.1400
  184MOL0     H24828   7.679   0.985   9.750  0.2983  1.3340  2.3185
  184MOL0     H24829   7.932   1.007   9.802  0.0411 -1.5092  0.4083
  184MOL0     H24830   8.253   1.058   9.482 -0.6572 -1.8716  1.2911
  184MOL0     H24831   8.194   1.220   9.522  0.0183 -0.7355  0.0519
  184MOL0     H24832   8.367   1.021   9.679 -1.8332 -0.0592  3.0174
  184MOL0     H24833   8.316   1.180   9.750 -0.3911  0.2174  0.0226
  184MOL0     H24834   8.540   1.209   9.662 -1.0683 -1.4266  0.0314
  184MOL0     H24835   8.425   1.275   9.536 -1.1429 -0.1733  0.2159
  184MOL0     H24836   8.460   1.063   9.406  1.6995 -1.4273 -1.4209
  184MOL0     H24837   8.563   1.006   9.538 -0.1506 -2.0755 -2.0593
  184MOL0     H24838   8.819   1.300   9.367 -0.5126  2.1388  3.8637
  184MOL0     H24839   8.009   1.140   9.402  1.3182  1.2603  1.8375
  184MOL0     H24840   7.775   1.126   9.355 -2.1454  1.4214  1.4101
  185MOL0     O24841   0.947   3.651   0.814 -0.2373 -0.5722  0.2758
  185MOL0     C24842   1.001   3.751   0.856 -0.3197 -0.6552  0.1166
  185MOL0     O24843   0.946   3.846   0.944  0.6176  0.0130  0.7648
  185MOL0     C24844   0.824   3.805   0.999 -0.0810 -0.0921 -0.6106
  185MOL0     C24845   0.816   3.738   1.115 -0.4627 -0.2728 -0.5272
  185MOL0     C24846   0.688   3.694   1.159 -0.0250  0.9622 -0.2564
  185MOL0     C24847   0.578   3.721   1.084 -0.2487 -0.2761 -0.2330
  185MOL0     O24848   0.450   3.672   1.112 -0.0630  0.2875  0.0237
  185MOL0     C24849   0.395   3.594   0.997 -0.2739 -0.0928 -0.3608
  185MOL0     C24850   0.264   3.659   0.946 -0.0368  0.7115 -0.8733
  185MOL0     C24851   0.178   3.574   0.855 -0.2655 -0.1450 -0.1012
  185MOL0     C24852   0.079   3.659   0.775  0.2280  0.2655 -0.0644
  185MOL0     C24853  -0.032   3.578   0.714  0.8352 -0.5262  0.0705
  185MOL0     C24854  -0.123   3.657   0.618  1.2435 -0.0729  0.3709
  185MOL0     C24855  -0.229   3.577   0.547  1.2372  0.1445 -1.0432
  185MOL0     C24856  -0.289   3.666   0.439 -0.6721 -0.4147  0.0215
  185MOL0     N24857  -0.412   3.599   0.383 -1.0833  0.3197 -0.4401
  185MOL0     C24858  -0.450   3.469   0.406 -0.3049 -0.0760  0.8735
  185MOL0     C24859  -0.584   3.456   0.367 -0.6604 -0.0141  0.2089
  185MOL0     C24860  -0.663   3.331   0.360  0.3956  0.0752  1.2401
  185MOL0     C24861  -0.785   3.332   0.450 -0.8342 -0.2361 -0.0238
  185MOL0     C24862  -0.852   3.187   0.460  0.5464  0.4753 -0.1773
  185MOL0     C24863  -0.972   3.186   0.555  1.1454  0.2452 -0.3468
  185MOL0     O24864  -1.005   3.051   0.586 -0.3647 -0.2286  0.3476
  185MOL0     C24865  -1.132   3.020   0.534 -0.3305 -0.5289 -0.4971
  185MOL0     C24866  -1.158   2.934   0.425  0.2323 -0.4791 -1.2406
  185MOL0     C24867  -1.284   2.906   0.385  0.6623 -0.2515  0.0080
  185MOL0     C24868  -1.305   2.795   0.288  0.5218  0.6419  0.2039
  185MOL0     C24869  -1.394   2.972   0.447  0.4225  0.7595 -0.5358
  185MOL0     C24870  -1.538   2.953   0.415 -0.5688 -0.4175 -0.6487
  185MOL0     O24871  -1.620   3.063   0.425 -0.1974 -0.1550 -0.4206
  185MOL0     C24872  -1.684   3.117   0.312 -0.0689  1.1378 -0.3891
  185MOL0     C24873  -1.760   3.032   0.232 -0.0388 -0.3203  0.4843
  185MOL0     C24874  -1.824   3.080   0.123  0.4810  0.2488 -0.3167
  185MOL0     C24875  -1.829   3.220   0.096 -0.4832  0.0397 -0.5220
  185MOL0     O24876  -1.894   3.274  -0.012 -0.3819 -0.1863 -0.7419
  185MOL0     C24877  -1.980   3.190  -0.099  0.3288  0.0793 -0.2706
  185MOL0     C24878  -2.068   3.277  -0.189  0.9721 -0.2240  0.2164
  185MOL0     C24879  -2.082   3.225  -0.336  0.9195 -0.2333 -0.6852
  185MOL0     C24880  -2.198   3.297  -0.410  0.5202  0.2867 -0.9425
  185MOL0     C24881  -2.215   3.253  -0.563  0.0238 -0.2496 -0.0219
  185MOL0     C24882  -2.306   3.346  -0.642  0.6864 -0.4822  0.8933
  185MOL0     C24883  -2.426   3.420  -0.581  0.7038  0.5744 -0.5825
  185MOL0     C24884  -2.533   3.329  -0.530  0.4227  0.6335  0.2222
  185MOL0    Cl24885  -2.598   3.399  -0.377  0.0643  0.4795  0.2922
  185MOL0     C24886  -1.750   3.304   0.178  0.4152 -0.2057 -0.5757
  185MOL0     C24887  -1.680   3.247   0.288 -1.0045 -0.4867  0.8107
  185MOL0     O24888  -1.580   2.842   0.396 -0.7679 -0.5359  0.4237
  185MOL0     C24889  -1.365   3.065   0.542 -0.7988 -0.3419 -0.3741
  185MOL0     C24890  -1.238   3.090   0.593  0.5717  0.1923 -1.0026
  185MOL0     N24891  -0.627   3.586   0.332 -1.3364  0.0314 -0.5170
  185MOL0     N24892  -0.518   3.663   0.332  0.6516  0.6845  0.6906
  185MOL0     C24893   0.593   3.795   0.973  0.5913 -0.5592 -0.4239
  185MOL0     C24894   0.715   3.831   0.929 -0.1186 -0.8030  0.9630
  185MOL0     C24895   1.144   3.773   0.817  0.3082 -0.9374  0.3575
  185MOL0     C24896   1.217   3.881   0.869  0.3746 -1.1152 -0.8226
  185MOL0     C24897   1.357   3.893   0.841  0.6755  0.2814  0.6133
  185MOL0     C24898   1.421   3.798   0.760 -0.3037 -0.7546  0.1351
  185MOL0     O24899   1.555   3.791   0.741 -0.7430 -0.1209 -0.0873
  185MOL0     C24900   1.645   3.885   0.802  0.1351 -0.1656 -0.0783
  185MOL0     C24901   1.787   3.861   0.767  0.0302  0.0726 -0.4184
  185MOL0     C24902   1.847   3.726   0.813 -0.7566 -0.1871 -0.1007
  185MOL0     C24903   1.985   3.710   0.747 -0.4221  0.4645 -0.3847
  185MOL0     C24904   2.056   3.602   0.819  0.2132 -0.2766 -0.2037
  185MOL0     C24905   2.116   3.521   0.884 -0.2237 -0.2824 -0.4215
  185MOL0     C24906   1.347   3.695   0.702 -1.2069  0.2061 -0.9536
  185MOL0     C24907   1.208   3.684   0.731 -0.6450 -0.2074 -0.8086
  185MOL0     H24908   0.904   3.716   1.174 -1.4672 -0.2561  1.0187
  185MOL0     H24909   0.664   3.633   1.245  1.2369  1.4219  0.4442
  185MOL0     H24910   0.469   3.581   0.917 -0.0366 -1.5051  0.0689
  185MOL0     H24911   0.377   3.492   1.032 -0.0322 -1.3342 -3.5113
  185MOL0     H24912   0.196   3.669   1.032 -0.8886  0.4244 -1.4982
  185MOL0     H24913   0.290   3.757   0.906 -2.9418  1.4947 -1.0692
  185MOL0     H24914   0.227   3.524   0.771  0.0051  2.1803 -1.4218
  185MOL0     H24915   0.119   3.507   0.919  1.6473 -2.2841 -0.4348
  185MOL0     H24916   0.036   3.729   0.847  0.5525 -1.3044  1.7311
  185MOL0     H24917   0.131   3.714   0.696 -0.8091 -0.6078 -1.3925
  185MOL0     H24918   0.005   3.495   0.654 -0.9847 -1.8191  0.6685
  185MOL0     H24919  -0.093   3.530   0.791  2.7937 -0.8402  1.5331
  185MOL0     H24920  -0.169   3.747   0.659  0.9066  1.2325 -2.5750
  185MOL0     H24921  -0.053   3.699   0.544  0.1252  0.0109 -0.6682
  185MOL0     H24922  -0.195   3.476   0.523  2.1670  0.3673 -0.7177
  185MOL0     H24923  -0.311   3.559   0.617  1.0676 -2.0301 -1.7491
  185MOL0     H24924  -0.212   3.677   0.362 -0.1885 -0.1773  0.5278
  185MOL0     H24925  -0.320   3.764   0.475  1.3676  0.7964 -1.3118
  185MOL0     H24926  -0.380   3.393   0.441  2.6818  0.3685 -3.4570
  185MOL0     H24927  -0.701   3.316   0.259  0.3678  1.4107  1.0294
  185MOL0     H24928  -0.604   3.241   0.379  1.5302  0.7200  0.8485
  185MOL0     H24929  -0.856   3.409   0.419  0.3614  1.2598  0.8320
  185MOL0     H24930  -0.754   3.366   0.549 -0.8067 -1.0444  0.2514
  185MOL0     H24931  -0.779   3.109   0.484  1.5542  0.6765 -2.3415
  185MOL0     H24932  -0.896   3.158   0.364  2.0414 -2.4752 -0.0836
  185MOL0     H24933  -1.049   3.240   0.498 -1.1970 -1.1590  1.3119
  185MOL0     H24934  -0.958   3.231   0.654 -2.0356 -2.3560  1.5129
  185MOL0     H24935  -1.076   2.885   0.374 -0.1342  1.5085 -3.9907
  185MOL0     H24936  -1.349   2.704   0.331  0.1674  1.0638  0.7512
  185MOL0     H24937  -1.372   2.833   0.210  0.0167 -0.0724  0.2779
  185MOL0     H24938  -1.212   2.773   0.236  0.4409  1.3531 -0.2582
  185MOL0     H24939  -1.782   2.929   0.259  0.1201 -0.9120 -1.4777
  185MOL0     H24940  -1.876   3.011   0.057 -0.4813  1.6494 -1.0894
  185MOL0     H24941  -1.922   3.120  -0.160 -0.0301 -0.9162  0.5117
  185MOL0     H24942  -2.049   3.144  -0.028 -0.6053  0.1445 -1.1148
  185MOL0     H24943  -2.164   3.286  -0.138 -0.0666  3.6488 -2.0136
  185MOL0     H24944  -2.028   3.378  -0.201  0.3653  0.0494  0.4721
  185MOL0     H24945  -2.104   3.117  -0.338  1.8665 -0.4424 -0.1415
  185MOL0     H24946  -1.985   3.247  -0.381  0.7496  0.0140 -0.9345
  185MOL0     H24947  -2.290   3.289  -0.350  1.2101 -2.6263 -0.1057
  185MOL0     H24948  -2.167   3.402  -0.419 -0.9958  0.8161 -0.4283
  185MOL0     H24949  -2.264   3.155  -0.568 -0.1598 -0.2339  1.1790
  185MOL0     H24950  -2.123   3.225  -0.614  1.0223  0.6945  1.1732
  185MOL0     H24951  -2.245   3.432  -0.670  0.3257 -0.3599  0.4698
  185MOL0     H24952  -2.340   3.305  -0.738 -2.1785  3.4138 -0.0142
  185MOL0     H24953  -2.470   3.485  -0.657 -0.0686 -0.9118 -1.4499
  185MOL0     H24954  -2.400   3.485  -0.497  0.6715 -1.4795  1.1139
  185MOL0     H24955  -2.506   3.225  -0.508 -0.0932 -0.0123 -1.9425
  185MOL0     H24956  -2.617   3.322  -0.599  1.2682 -0.8289 -0.7399
  185MOL0     H24957  -1.744   3.411   0.158  0.7398 -0.3493 -1.2948
  185MOL0     H24958  -1.627   3.316   0.352 -2.1597  1.6149 -0.3957
  185MOL0     H24959  -1.445   3.108   0.601  0.5161 -0.1943  1.3723
  185MOL0     H24960  -1.228   3.148   0.684 -3.3014  3.1325 -2.1288
  185MOL0     H24961   0.508   3.816   0.910 -1.6281 -0.4634  2.4009
  185MOL0     H24962   0.718   3.886   0.836 -1.6766  0.4734  1.6338
  185MOL0     H24963   1.171   3.953   0.936 -0.2204 -3.7629  1.8203
  185MOL0     H24964   1.414   3.972   0.887  1.4734 -1.4747  2.8151
  185MOL0     H24965   1.606   3.966   0.740 -0.3822  0.2838  0.8154
  185MOL0     H24966   1.626   3.902   0.908  0.1959  1.6458 -0.3169
  185MOL0     H24967   1.838   3.947   0.811  0.0508  0.6906 -1.6010
  185MOL0     H24968   1.805   3.870   0.660  1.0601  0.6157 -0.2101
  185MOL0     H24969   1.781   3.645   0.781 -2.5899  0.8161  0.9412
  185MOL0     H24970   1.855   3.751   0.919  1.2591  5.1673 -1.1972
  185MOL0     H24971   2.048   3.799   0.749  1.6913 -0.8852 -2.0921
  185MOL0     H24972   1.979   3.677   0.643  1.4265 -0.7999 -0.1308
  185MOL0     H24973   2.187   3.453   0.927  1.0119  0.4359 -1.2592
  185MOL0     H24974   1.400   3.618   0.647  0.3321  0.0700  0.6421
  185MOL0     H24975   1.150   3.604   0.685 -0.9431 -0.9689  0.8303
  186MOL0     O24976   7.687   2.780   2.822  0.3733 -0.0917  0.0185
  186MOL0     C24977   7.605   2.861   2.790 -0.2525  0.4087  0.3517
  186MOL0     O24978   7.473   2.858   2.815  0.5347  0.1261  0.2965
  186MOL0     C24979   7.414   2.746   2.871 -0.8945  0.4233 -0.2177
  186MOL0     C24980   7.424   2.710   3.009  0.1859 -0.3112 -0.9405
  186MOL0     C24981   7.379   2.588   3.057  0.1951  0.1745 -0.2230
  186MOL0     C24982   7.323   2.496   2.974  0.0852  0.7687 -0.0662
  186MOL0     O24983   7.290   2.373   3.024  0.3748  0.4884 -0.2706
  186MOL0     C24984   7.156   2.341   3.023 -0.4179  0.4953 -0.1135
  186MOL0     C24985   7.125   2.243   3.142  0.7903 -0.1996  0.8051
  186MOL0     C24986   7.030   2.298   3.248  0.0443 -0.1856  0.7403
  186MOL0     C24987   6.889   2.300   3.180 -0.2257 -0.1283 -0.1621
  186MOL0     C24988   6.806   2.179   3.208 -0.3675 -0.1434  0.0560
  186MOL0     C24989   6.692   2.167   3.104  0.2090 -0.2949  0.9950
  186MOL0     C24990   6.580   2.265   3.109  0.4196 -0.0186  0.3662
  186MOL0     C24991   6.519   2.264   2.972 -0.6546  0.8908  0.5227
  186MOL0     N24992   6.413   2.368   2.941 -1.0894  0.8196 -0.6635
  186MOL0     C24993   6.429   2.490   2.886  0.3219  0.2712 -0.4238
  186MOL0     C24994   6.302   2.539   2.887 -0.0570 -1.0630 -0.0856
  186MOL0     C24995   6.266   2.674   2.840 -0.3819  0.4174  0.7940
  186MOL0     C24996   6.110   2.699   2.825 -0.1409  0.1620  0.6988
  186MOL0     C24997   6.069   2.837   2.806  1.0566 -0.7911  0.7082
  186MOL0     C24998   5.922   2.855   2.765 -1.0261 -0.0970  0.4578
  186MOL0     O24999   5.836   2.792   2.857 -0.5726 -0.5103 -0.9311
  186MOL0     C25000   5.708   2.776   2.811  0.1298  0.1805  0.2798
  186MOL0     C25001   5.608   2.867   2.829  0.2911 -0.4505  0.1513
  186MOL0     C25002   5.479   2.838   2.786  0.3760 -0.7203  0.7744
  186MOL0     C25003   5.371   2.949   2.795 -0.5002  0.0743 -0.6799
  186MOL0     C25004   5.452   2.724   2.722 -0.0836  0.4410  0.7543
  186MOL0     C25005   5.329   2.685   2.653  0.4948 -0.0336 -0.6826
  186MOL0     O25006   5.338   2.633   2.523  0.0302  0.4974  0.4703
  186MOL0     C25007   5.218   2.582   2.474 -0.1857 -0.7285  0.2574
  186MOL0     C25008   5.147   2.645   2.363 -0.0123  0.6761  0.0337
  186MOL0     C25009   5.025   2.590   2.311  0.0605 -0.8214  0.2631
  186MOL0     C25010   4.975   2.464   2.360 -0.8746  0.2314  0.6829
  186MOL0     O25011   4.863   2.421   2.302 -0.3080  0.2190 -0.9244
  186MOL0     C25012   4.763   2.360   2.394 -0.7354 -0.4732  0.6339
  186MOL0     C25013   4.641   2.313   2.304 -0.0265  0.3227 -1.1042
  186MOL0     C25014   4.558   2.203   2.377 -0.1485  0.2016 -0.0496
  186MOL0     C25015   4.465   2.260   2.486 -0.4403 -0.0234  0.2702
  186MOL0     C25016   4.398   2.144   2.570  0.2940 -0.1565  0.5579
  186MOL0     C25017   4.282   2.067   2.489 -0.8888 -0.2057  0.1826
  186MOL0     C25018   4.156   2.157   2.479  0.4573 -0.9484 -0.3912
  186MOL0     C25019   4.041   2.072   2.422  0.2646 -0.1694 -0.3662
  186MOL0    Cl25020   3.875   2.134   2.426 -0.3539  0.1103 -0.3170
  186MOL0     C25021   5.054   2.401   2.460  0.9947 -0.1598 -0.3304
  186MOL0     C25022   5.164   2.468   2.518  0.2627  0.5056 -0.9153
  186MOL0     O25023   5.223   2.701   2.720 -0.1727  0.5121  0.0481
  186MOL0     C25024   5.553   2.629   2.715  0.8608  0.2514 -0.4505
  186MOL0     C25025   5.680   2.650   2.750 -0.0080  0.3743  0.2626
  186MOL0     N25026   6.221   2.443   2.928  1.0225 -0.5389  1.1436
  186MOL0     N25027   6.282   2.339   2.958  0.0843  0.6971  0.3633
  186MOL0     C25028   7.305   2.531   2.836  0.0346 -0.2221 -0.7422
  186MOL0     C25029   7.340   2.655   2.792 -0.3923  0.8384 -0.2107
  186MOL0     C25030   7.659   2.974   2.720  1.3207  0.0510 -0.2954
  186MOL0     C25031   7.576   3.079   2.681 -0.4942 -0.5209  0.2930
  186MOL0     C25032   7.625   3.195   2.614  0.5150 -0.4909  0.2590
  186MOL0     C25033   7.763   3.209   2.588 -0.0268  1.0619 -0.0946
  186MOL0     O25034   7.803   3.308   2.502 -0.4380  0.3110  0.0869
  186MOL0     C25035   7.926   3.372   2.536  1.1556  0.4162 -0.2253
  186MOL0     C25036   7.948   3.520   2.480  0.6414 -0.1634  0.5813
  186MOL0     C25037   7.833   3.611   2.513  0.5775 -0.2668  0.1564
  186MOL0     C25038   7.859   3.762   2.504  0.9411  0.5049  0.3468
  186MOL0     C25039   7.883   3.784   2.357  0.2274 -0.5952  0.0947
  186MOL0     C25040   7.894   3.803   2.240 -1.1614 -0.8173  0.0342
  186MOL0     C25041   7.850   3.107   2.633 -1.2023 -1.3524  0.2954
  186MOL0     C25042   7.796   2.995   2.683 -0.0203  0.8740 -0.3775
  186MOL0     H25043   7.489   2.771   3.071 -0.7885  1.0772 -1.2301
  186MOL0     H25044   7.399   2.565   3.162 -1.1408 -1.0089 -0.1936
  186MOL0     H25045   7.108   2.438   3.035  1.4340  1.3775  0.5324
  186MOL0     H25046   7.130   2.290   2.930 -1.5050 -1.2346  1.0734
  186MOL0     H25047   7.080   2.153   3.098 -0.6476  1.4440 -1.2625
  186MOL0     H25048   7.218   2.210   3.189  1.3229 -0.4066 -0.3705
  186MOL0     H25049   7.024   2.234   3.336 -2.1996  1.2462  1.7128
  186MOL0     H25050   7.057   2.399   3.277 -1.9179  1.1727 -1.7347
  186MOL0     H25051   6.839   2.390   3.217 -0.4079 -0.0467 -0.5991
  186MOL0     H25052   6.897   2.312   3.072  2.5557  0.7955  0.0769
  186MOL0     H25053   6.870   2.095   3.182  1.3874  1.6871 -1.9568
  186MOL0     H25054   6.769   2.174   3.310 -0.2878 -1.4233  0.0424
  186MOL0     H25055   6.744   2.163   3.008  0.3310  0.9803  0.9912
  186MOL0     H25056   6.646   2.069   3.114 -0.5144  0.0451  1.0478
  186MOL0     H25057   6.517   2.232   3.192  1.9637  0.3988  1.7627
  186MOL0     H25058   6.615   2.366   3.132  2.3676 -0.2749 -1.1855
  186MOL0     H25059   6.480   2.164   2.953  2.2692 -0.6431  1.9293
  186MOL0     H25060   6.595   2.283   2.895 -0.6786 -0.7496  0.0621
  186MOL0     H25061   6.522   2.535   2.853 -0.7793  3.6575  0.6597
  186MOL0     H25062   6.313   2.744   2.909 -0.2951 -1.2871  2.5693
  186MOL0     H25063   6.314   2.686   2.743  0.4433  1.2285  1.2913
  186MOL0     H25064   6.076   2.682   2.928 -0.3068  2.8092  1.1533
  186MOL0     H25065   6.062   2.634   2.752 -0.4833  2.1016 -0.8951
  186MOL0     H25066   6.128   2.895   2.734 -0.5297  0.4802  0.3702
  186MOL0     H25067   6.088   2.892   2.898  1.1553  0.2318  0.0906
  186MOL0     H25068   5.908   2.807   2.668  0.1294  1.4134 -0.4959
  186MOL0     H25069   5.899   2.962   2.754  0.6443  0.0859 -2.1259
  186MOL0     H25070   5.629   2.963   2.873  0.2085 -0.0394 -0.6885
  186MOL0     H25071   5.281   2.929   2.736 -0.6159 -1.8728  0.0830
  186MOL0     H25072   5.333   2.963   2.897  0.9994  0.4664 -0.1383
  186MOL0     H25073   5.406   3.051   2.778 -0.8077 -0.0220 -1.9662
  186MOL0     H25074   5.199   2.725   2.312  0.6531  0.3495  0.1859
  186MOL0     H25075   4.992   2.657   2.232  2.4384  0.0844 -0.0561
  186MOL0     H25076   4.810   2.276   2.446  0.1721 -0.7352 -0.5756
  186MOL0     H25077   4.735   2.435   2.468  0.1293 -0.4807  0.9733
  186MOL0     H25078   4.579   2.399   2.278  0.8462  0.0605 -4.5838
  186MOL0     H25079   4.691   2.269   2.217  0.3501 -0.6255 -0.4290
  186MOL0     H25080   4.628   2.131   2.421  0.9444  0.1327 -1.7984
  186MOL0     H25081   4.500   2.159   2.295 -0.9124 -0.1361  0.6529
  186MOL0     H25082   4.527   2.321   2.552 -0.7965  1.9980 -1.1820
  186MOL0     H25083   4.396   2.331   2.438  0.1209  1.5866  1.7588
  186MOL0     H25084   4.356   2.191   2.659 -1.4113  0.9321 -0.7677
  186MOL0     H25085   4.477   2.075   2.600  0.7578 -0.6569 -1.6363
  186MOL0     H25086   4.324   2.032   2.394  0.6544 -0.2002  0.8408
  186MOL0     H25087   4.263   1.971   2.539  0.1275 -0.8359 -0.5995
  186MOL0     H25088   4.172   2.249   2.421 -1.5732  0.3208  0.8994
  186MOL0     H25089   4.124   2.202   2.574 -3.1729 -0.7747 -1.5426
  186MOL0     H25090   4.047   1.980   2.480  0.5250  0.9324  1.4319
  186MOL0     H25091   4.076   2.039   2.324  1.6323 -2.2879  0.7728
  186MOL0     H25092   5.015   2.310   2.505  0.6607  0.6183  0.9979
  186MOL0     H25093   5.226   2.428   2.597 -1.6220  2.4712  1.7322
  186MOL0     H25094   5.534   2.532   2.670  0.2457  1.1202 -2.1520
  186MOL0     H25095   5.756   2.573   2.738 -0.5752 -0.1839  0.1979
  186MOL0     H25096   7.242   2.471   2.771 -1.2901  0.4217 -0.0844
  186MOL0     H25097   7.327   2.685   2.689  0.1126  0.6878 -0.3211
  186MOL0     H25098   7.470   3.082   2.702 -0.7832  1.0827 -1.2132
  186MOL0     H25099   7.554   3.276   2.598  1.6362  0.4130 -0.2414
  186MOL0     H25100   7.928   3.380   2.645 -1.9991  1.0513 -0.1265
  186MOL0     H25101   8.009   3.304   2.513  0.1224 -0.9641 -0.0183
  186MOL0     H25102   7.974   3.516   2.373  3.0112 -1.8140  1.1461
  186MOL0     H25103   8.034   3.563   2.533  0.9596 -1.3318  1.0272
  186MOL0     H25104   7.807   3.600   2.619 -1.6393 -3.2791 -0.5584
  186MOL0     H25105   7.749   3.583   2.449 -0.5445  1.7583  0.6872
  186MOL0     H25106   7.946   3.781   2.568  1.0829 -0.6850  0.5307
  186MOL0     H25107   7.770   3.819   2.533  0.5979  0.2234 -0.1384
  186MOL0     H25108   7.903   3.820   2.135 -1.6481 -0.1530  0.0945
  186MOL0     H25109   7.956   3.109   2.609 -1.1301  2.6711  0.2713
  186MOL0     H25110   7.863   2.914   2.709  0.3847  2.0083  2.4991
  187MOL0     O25111   3.777   2.768   8.698  0.5696 -0.2970  0.0728
  187MOL0     C25112   3.759   2.715   8.583  0.4982 -0.4849 -0.0734
  187MOL0     O25113   3.849   2.718   8.482  0.4364 -0.2859  0.1135
  187MOL0     C25114   3.961   2.784   8.502 -0.1158 -0.3573 -0.7020
  187MOL0     C25115   4.082   2.720   8.519 -0.3827 -0.8321 -0.1247
  187MOL0     C25116   4.199   2.791   8.531  1.1095 -0.4923 -0.0455
  187MOL0     C25117   4.206   2.928   8.532  0.5801 -0.4765 -0.5248
  187MOL0     O25118   4.338   2.986   8.551  0.2470  0.0274 -0.2740
  187MOL0     C25119   4.344   3.131   8.545  0.0524  0.1203  0.6983
  187MOL0     C25120   4.470   3.202   8.596  0.6929  0.1892 -0.2133
  187MOL0     C25121   4.486   3.352   8.591 -0.0878 -0.2341  0.4299
  187MOL0     C25122   4.354   3.429   8.622 -0.3449  0.2937  0.3281
  187MOL0     C25123   4.342   3.577   8.590 -0.2271  0.6096  0.1606
  187MOL0     C25124   4.193   3.618   8.580 -0.3682  0.4724 -0.0844
  187MOL0     C25125   4.186   3.762   8.544  1.1442 -0.0187  1.0843
  187MOL0     C25126   4.215   3.862   8.654  0.1432 -0.2170  0.2082
  187MOL0     N25127   4.106   3.864   8.748  0.4647 -0.2204 -0.0901
  187MOL0     C25128   4.120   3.858   8.886 -0.0898  0.2934 -0.4986
  187MOL0     C25129   3.997   3.890   8.934 -0.6517 -0.5451  0.1724
  187MOL0     C25130   3.951   3.905   9.080  0.4995 -0.3522 -0.3979
  187MOL0     C25131   3.878   3.784   9.145  0.1707 -0.4909  0.2771
  187MOL0     C25132   3.739   3.757   9.085 -0.0536 -0.7252 -0.0680
  187MOL0     C25133   3.670   3.643   9.156  0.2222 -0.0703 -0.4707
  187MOL0     O25134   3.542   3.625   9.095 -0.5295 -0.2788 -0.6988
  187MOL0     C25135   3.454   3.550   9.159  0.0279  0.3764 -0.0188
  187MOL0     C25136   3.478   3.432   9.230  0.5287  0.8553 -0.1808
  187MOL0     C25137   3.368   3.377   9.305 -0.4594 -0.4056 -0.2092
  187MOL0     C25138   3.412   3.245   9.367 -0.9228  0.1506  0.9691
  187MOL0     C25139   3.242   3.440   9.321 -0.8927  0.2194  0.7896
  187MOL0     C25140   3.130   3.382   9.399 -0.1267  0.3016  0.1426
  187MOL0     O25141   3.009   3.449   9.380 -0.4308  0.1283  0.2479
  187MOL0     C25142   2.908   3.378   9.440 -0.1831 -0.1924  1.1724
  187MOL0     C25143   2.881   3.391   9.577 -0.5078 -0.0567 -0.4526
  187MOL0     C25144   2.772   3.327   9.638 -1.2600  0.4502 -0.2829
  187MOL0     C25145   2.686   3.251   9.562  0.0792 -0.4237  0.6927
  187MOL0     O25146   2.573   3.197   9.622  0.0994  0.5397  0.6067
  187MOL0     C25147   2.504   3.077   9.560 -0.3134 -0.4251 -0.3781
  187MOL0     C25148   2.415   3.005   9.654  0.0900 -0.0457 -0.4187
  187MOL0     C25149   2.346   2.883   9.577 -0.7021 -0.2425  0.1171
  187MOL0     C25150   2.219   2.826   9.632  0.1528  0.6857  0.5091
  187MOL0     C25151   2.164   2.702   9.554  0.6727 -1.0149  0.6791
  187MOL0     C25152   2.010   2.700   9.586  0.2992 -0.3258  0.1632
  187MOL0     C25153   1.918   2.604   9.500 -0.3041  0.0156 -0.4860
  187MOL0     C25154   1.770   2.634   9.529 -1.0377  0.5418  0.1311
  187MOL0    Cl25155   1.718   2.599   9.695  0.7054  0.4608 -0.0439
  187MOL0     C25156   2.706   3.239   9.424 -0.2976  0.3233  0.0524
  187MOL0     C25157   2.815   3.309   9.365 -0.0297  0.2416 -0.5838
  187MOL0     O25158   3.155   3.283   9.466  0.1017  0.1727 -0.4012
  187MOL0     C25159   3.229   3.564   9.253  0.5646  0.9956 -0.7698
  187MOL0     C25160   3.338   3.612   9.180  0.0984  0.4456  0.4559
  187MOL0     N25161   3.903   3.914   8.830 -0.0613 -0.1967 -0.2007
  187MOL0     N25162   3.977   3.917   8.723 -0.0561 -0.0931 -0.1233
  187MOL0     C25163   4.081   2.994   8.522  0.9110  0.0012 -0.1421
  187MOL0     C25164   3.962   2.924   8.502 -0.0299 -0.4576 -0.6880
  187MOL0     C25165   3.640   2.640   8.552 -0.4636 -1.0364 -0.1615
  187MOL0     C25166   3.581   2.563   8.654  0.5233 -0.4479  0.2943
  187MOL0     C25167   3.465   2.494   8.628 -0.2780 -0.0765  0.0514
  187MOL0     C25168   3.411   2.480   8.501  0.3133  0.0542  0.5350
  187MOL0     O25169   3.295   2.407   8.484 -0.3445  0.2251 -0.4237
  187MOL0     C25170   3.244   2.397   8.352 -0.1031 -0.3749  0.4092
  187MOL0     C25171   3.177   2.521   8.290 -0.7708  0.1461  0.2008
  187MOL0     C25172   3.076   2.594   8.383 -0.2158  0.2734 -0.9144
  187MOL0     C25173   2.985   2.699   8.313  1.1081  0.1533 -0.1241
  187MOL0     C25174   2.917   2.640   8.194 -0.2603  0.1699 -0.2700
  187MOL0     C25175   2.891   2.583   8.091 -0.0823  0.1680  0.3564
  187MOL0     C25176   3.492   2.545   8.395 -0.9636  0.8056 -0.3233
  187MOL0     C25177   3.602   2.622   8.417  0.9709 -0.1172  0.1571
  187MOL0     H25178   4.076   2.612   8.533 -0.8616 -0.7649  0.2031
  187MOL0     H25179   4.290   2.733   8.540  3.1632  2.0587 -2.2842
  187MOL0     H25180   4.334   3.158   8.439 -1.1776  0.8848  0.9913
  187MOL0     H25181   4.266   3.173   8.609 -1.0347  1.6199 -1.4803
  187MOL0     H25182   4.476   3.181   8.703  1.2878  3.2795  0.4505
  187MOL0     H25183   4.559   3.161   8.547  0.1094  0.9353 -1.9516
  187MOL0     H25184   4.564   3.376   8.664 -0.4228  0.7472  0.4825
  187MOL0     H25185   4.535   3.384   8.499 -0.7228 -1.6285 -0.4226
  187MOL0     H25186   4.277   3.378   8.563  1.4757 -1.4625 -0.6167
  187MOL0     H25187   4.325   3.415   8.726  3.2853  1.0030  1.5797
  187MOL0     H25188   4.401   3.640   8.657 -2.5451  2.9603  0.1765
  187MOL0     H25189   4.386   3.588   8.490 -1.2180  1.9186 -0.1670
  187MOL0     H25190   4.143   3.554   8.508  1.0928 -0.0318 -0.7034
  187MOL0     H25191   4.145   3.602   8.677  2.2360 -2.0360  0.9612
  187MOL0     H25192   4.254   3.785   8.462  1.7856 -1.4683  1.1757
  187MOL0     H25193   4.084   3.776   8.505  1.7626 -2.2376 -1.6774
  187MOL0     H25194   4.231   3.964   8.618  1.1148 -0.5349 -0.2867
  187MOL0     H25195   4.298   3.829   8.717  0.6796  0.4470 -0.1444
  187MOL0     H25196   4.209   3.836   8.944  1.5514  2.0459 -2.1866
  187MOL0     H25197   4.033   3.947   9.139  1.7316  0.7429 -2.7668
  187MOL0     H25198   3.868   3.975   9.065 -0.6147 -1.1717  1.5136
  187MOL0     H25199   3.873   3.795   9.253  1.0212 -0.2936  0.3034
  187MOL0     H25200   3.942   3.695   9.138  1.0677  0.2098 -0.6395
  187MOL0     H25201   3.748   3.739   8.977 -1.5558  2.3131 -0.7939
  187MOL0     H25202   3.685   3.852   9.087  1.4240  0.1472 -0.1548
  187MOL0     H25203   3.667   3.662   9.264  0.2063 -1.9721 -0.1023
  187MOL0     H25204   3.711   3.542   9.154 -1.8912 -1.0111  0.1258
  187MOL0     H25205   3.575   3.383   9.227  0.1615  0.1496 -1.4875
  187MOL0     H25206   3.344   3.159   9.364 -1.0103  0.2404 -1.1918
  187MOL0     H25207   3.508   3.219   9.322 -0.2382  2.2253  1.1163
  187MOL0     H25208   3.436   3.270   9.470 -1.4320  4.4108  0.2560
  187MOL0     H25209   2.946   3.445   9.645  1.7292 -2.3744 -0.5821
  187MOL0     H25210   2.754   3.336   9.745 -0.6889  1.8723 -0.2869
  187MOL0     H25211   2.438   3.105   9.478 -1.4380  1.8968  1.2095
  187MOL0     H25212   2.577   3.002   9.529  0.3625  0.2363 -0.4222
  187MOL0     H25213   2.465   2.974   9.746 -1.9594 -0.2554  0.6668
  187MOL0     H25214   2.335   3.073   9.682  0.5247  0.6071 -0.7348
  187MOL0     H25215   2.422   2.805   9.581  1.9580  2.2193  0.7017
  187MOL0     H25216   2.341   2.903   9.470 -0.1519 -1.7119 -0.1931
  187MOL0     H25217   2.233   2.802   9.738 -4.1809 -0.7472  0.9218
  187MOL0     H25218   2.141   2.900   9.620 -1.7189 -1.2834 -0.0853
  187MOL0     H25219   2.208   2.605   9.581 -1.8934 -2.7496 -0.9260
  187MOL0     H25220   2.176   2.717   9.447  3.6821  2.6473  1.3287
  187MOL0     H25221   1.990   2.687   9.692 -1.1865 -2.0917 -0.2950
  187MOL0     H25222   1.965   2.798   9.566  0.2382 -0.1904  0.9553
  187MOL0     H25223   1.942   2.502   9.528 -0.4374 -0.2403 -1.2587
  187MOL0     H25224   1.941   2.627   9.395  0.3352 -1.1630 -0.6255
  187MOL0     H25225   1.706   2.589   9.452  0.3396  2.3646 -2.2175
  187MOL0     H25226   1.758   2.742   9.518 -0.2429  0.5871 -0.3697
  187MOL0     H25227   2.646   3.173   9.362 -2.1679  0.7575  1.3365
  187MOL0     H25228   2.839   3.303   9.259  1.3380 -1.5195 -0.2223
  187MOL0     H25229   3.136   3.619   9.254  0.4923  1.0393  2.5873
  187MOL0     H25230   3.319   3.702   9.123 -5.1006  0.6656  1.9400
  187MOL0     H25231   4.077   3.102   8.529  0.1139 -0.1020  1.5552
  187MOL0     H25232   3.870   2.973   8.471  1.0863  0.7945 -2.2516
  187MOL0     H25233   3.636   2.561   8.748 -0.0866  1.5095  0.7336
  187MOL0     H25234   3.420   2.444   8.713  0.0737  1.6426  1.3017
  187MOL0     H25235   3.319   2.351   8.287 -2.2081 -2.8589 -0.4409
  187MOL0     H25236   3.152   2.339   8.357  0.0473 -0.5732  0.8996
  187MOL0     H25237   3.139   2.493   8.191  2.2096 -0.9950 -0.7135
  187MOL0     H25238   3.255   2.591   8.261 -0.9689  0.2046 -0.1896
  187MOL0     H25239   3.132   2.651   8.458 -1.7107 -0.9442  1.2494
  187MOL0     H25240   3.018   2.516   8.434  0.1686 -0.7011 -1.9330
  187MOL0     H25241   3.047   2.784   8.282 -1.8682  2.6992  0.4003
  187MOL0     H25242   2.910   2.730   8.386  1.2624  0.0592  0.0766
  187MOL0     H25243   2.883   2.531   7.998  0.5465  0.2461  0.2498
  187MOL0     H25244   3.468   2.543   8.289  1.9819 -1.0662 -1.0799
  187MOL0     H25245   3.657   2.677   8.342  0.3739  2.6440  1.6146
  188MOL0     O25246   0.065   7.793   1.020  0.2746  0.3075 -0.7003
  188MOL0     C25247   0.061   7.889   0.939  1.3965  0.0860  0.9536
  188MOL0     O25248  -0.045   7.930   0.865 -0.5984 -0.2108 -0.4653
  188MOL0     C25249  -0.174   7.892   0.903 -0.4104 -0.8867 -0.1185
  188MOL0     C25250  -0.267   7.868   0.805  1.0039  0.7854 -0.1464
  188MOL0     C25251  -0.397   7.811   0.837  0.4499 -0.4204  0.5603
  188MOL0     C25252  -0.437   7.811   0.968 -0.5758  0.2388 -0.3228
  188MOL0     O25253  -0.562   7.760   0.982  0.4271  0.1753 -0.4445
  188MOL0     C25254  -0.639   7.784   1.101 -0.2974  0.1880  0.2978
  188MOL0     C25255  -0.783   7.729   1.083 -0.4177  0.0160 -0.3120
  188MOL0     C25256  -0.875   7.777   1.199 -0.5292 -0.4676  0.0197
  188MOL0     C25257  -1.020   7.726   1.195 -0.2521 -0.4555  0.4207
  188MOL0     C25258  -1.111   7.750   1.314 -0.1884 -1.2959  0.0262
  188MOL0     C25259  -1.126   7.904   1.344 -0.3031  0.2296  0.6543
  188MOL0     C25260  -1.255   7.952   1.402 -0.5403  0.4834 -0.5534
  188MOL0     C25261  -1.269   7.930   1.550 -0.4504  0.2223 -1.2058
  188MOL0     N25262  -1.381   7.999   1.621  0.0019  0.1901  0.2336
  188MOL0     C25263  -1.451   7.942   1.726 -0.1952  0.5996  0.5141
  188MOL0     C25264  -1.560   8.015   1.742 -0.4588  0.0265  0.0912
  188MOL0     C25265  -1.661   7.983   1.846  0.4929 -0.3443 -0.5257
  188MOL0     C25266  -1.624   8.068   1.973 -0.2236  0.0730 -0.1425
  188MOL0     C25267  -1.636   8.226   1.952 -0.4006  0.0480 -0.1508
  188MOL0     C25268  -1.500   8.308   1.923 -0.7188  0.4683 -0.3753
  188MOL0     O25269  -1.379   8.250   1.973 -0.3187 -0.2351  0.0029
  188MOL0     C25270  -1.258   8.286   1.913  0.4494  1.3339  1.0937
  188MOL0     C25271  -1.142   8.229   1.974 -0.3674 -0.8291 -0.2478
  188MOL0     C25272  -1.015   8.263   1.937  0.3688 -0.1549 -0.2487
  188MOL0     C25273  -0.905   8.206   2.018 -1.0281  0.5793  0.1958
  188MOL0     C25274  -0.990   8.339   1.831 -0.2456  0.0668 -0.0851
  188MOL0     C25275  -0.856   8.395   1.795  0.6154  0.6499  0.1668
  188MOL0     O25276  -0.758   8.308   1.758  0.6889  0.6298  0.0751
  188MOL0     C25277  -0.623   8.342   1.758  0.0175 -0.1760  0.0604
  188MOL0     C25278  -0.541   8.232   1.777 -0.2542 -0.4728 -0.3229
  188MOL0     C25279  -0.398   8.237   1.767  0.4493  0.4643  0.2694
  188MOL0     C25280  -0.333   8.353   1.723  0.3137 -0.5501  0.0486
  188MOL0     O25281  -0.199   8.371   1.713  0.0969  0.0008  0.6008
  188MOL0     C25282  -0.102   8.276   1.763 -0.1076  0.9022 -0.0407
  188MOL0     C25283  -0.039   8.312   1.894  0.2123  0.2096 -0.5002
  188MOL0     C25284   0.061   8.198   1.921 -0.5864  0.2600 -0.4556
  188MOL0     C25285   0.139   8.222   2.046  0.2091  0.1103  0.4557
  188MOL0     C25286   0.235   8.105   2.045  0.0288  0.2613 -0.0127
  188MOL0     C25287   0.328   8.109   2.165 -0.8118  0.6866  0.0329
  188MOL0     C25288   0.436   8.000   2.152 -0.6443 -0.5040 -0.0503
  188MOL0     C25289   0.547   8.043   2.249 -0.6949 -0.4623 -0.0854
  188MOL0    Cl25290   0.664   7.914   2.266  0.4555  0.1006 -0.4993
  188MOL0     C25291  -0.415   8.466   1.703 -0.3144 -0.0196 -0.2784
  188MOL0     C25292  -0.556   8.465   1.726  0.1731  1.1822  0.2665
  188MOL0     O25293  -0.839   8.513   1.800  0.4287  0.0629 -0.4034
  188MOL0     C25294  -1.098   8.391   1.755  0.0635 -0.0935 -0.0613
  188MOL0     C25295  -1.227   8.362   1.798  0.9842 -1.2108 -0.0824
  188MOL0     N25296  -1.557   8.119   1.648  0.5705 -0.1208 -0.3833
  188MOL0     N25297  -1.452   8.108   1.578 -0.1695  0.4379 -0.1088
  188MOL0     C25298  -0.348   7.855   1.067 -0.5754  0.5264 -0.8334
  188MOL0     C25299  -0.218   7.890   1.039  0.3093  0.1950 -1.2200
  188MOL0     C25300   0.193   7.951   0.899 -0.0532 -0.0018  0.0368
  188MOL0     C25301   0.311   7.891   0.930 -0.0670  0.3962  0.1822
  188MOL0     C25302   0.430   7.954   0.889 -0.1424 -0.4176  0.2245
  188MOL0     C25303   0.449   8.064   0.816 -0.0105 -0.4613  0.1343
  188MOL0     O25304   0.564   8.124   0.783  0.9268  0.1866 -0.1557
  188MOL0     C25305   0.683   8.055   0.818 -0.4627 -0.5985  0.2129
  188MOL0     C25306   0.798   8.097   0.721  0.7290 -0.4802 -0.3113
  188MOL0     C25307   0.922   8.006   0.761  0.9348  0.1188  0.1417
  188MOL0     C25308   1.055   8.047   0.713  1.1334 -0.2651 -0.3986
  188MOL0     C25309   1.065   8.191   0.746 -0.3735  0.0484 -0.2654
  188MOL0     C25310   1.081   8.310   0.772  0.6776  1.5782 -0.0675
  188MOL0     C25311   0.321   8.121   0.784 -0.0527  0.3278  0.2955
  188MOL0     C25312   0.201   8.064   0.817  0.3852 -0.0698 -0.9399
  188MOL0     H25313  -0.239   7.866   0.700  1.2173  0.7552 -0.0909
  188MOL0     H25314  -0.468   7.785   0.759  0.5529  0.2133  0.2448
  188MOL0     H25315  -0.592   7.744   1.191  1.5640  0.0055 -0.7216
  188MOL0     H25316  -0.650   7.892   1.112  0.3717  0.1862  1.0616
  188MOL0     H25317  -0.838   7.751   0.991 -1.4664  0.3137  0.3717
  188MOL0     H25318  -0.770   7.621   1.091 -0.8451  0.0807  1.8036
  188MOL0     H25319  -0.831   7.743   1.293  1.8338 -1.8589 -1.4952
  188MOL0     H25320  -0.865   7.886   1.195 -3.8849 -0.0947 -1.0803
  188MOL0     H25321  -1.060   7.757   1.098  0.3645 -0.2095  0.2376
  188MOL0     H25322  -1.023   7.616   1.189 -4.3698 -0.4869  0.5594
  188MOL0     H25323  -1.206   7.704   1.287  0.1075 -1.5674 -0.5935
  188MOL0     H25324  -1.061   7.702   1.399  1.7238  0.4749 -0.0010
  188MOL0     H25325  -1.040   7.944   1.397  0.2332 -0.0297  0.0046
  188MOL0     H25326  -1.124   7.947   1.243  0.2250  1.4203  1.1551
  188MOL0     H25327  -1.275   8.056   1.374 -1.7726  0.6586  0.8274
  188MOL0     H25328  -1.332   7.896   1.348 -0.0571 -1.8941  1.0410
  188MOL0     H25329  -1.179   7.962   1.603 -0.6205 -1.0246 -0.1049
  188MOL0     H25330  -1.287   7.824   1.569  2.1857 -0.3548 -1.4566
  188MOL0     H25331  -1.439   7.850   1.782  1.1530 -0.2357 -1.0419
  188MOL0     H25332  -1.757   8.003   1.797  1.1974 -1.8561 -2.6810
  188MOL0     H25333  -1.649   7.878   1.874 -0.6711  0.0454  1.6560
  188MOL0     H25334  -1.525   8.037   2.005 -1.1134 -0.7105  2.0598
  188MOL0     H25335  -1.680   8.033   2.060  2.9192  0.8696  2.3664
  188MOL0     H25336  -1.686   8.281   2.032 -0.0373  2.1405 -1.2933
  188MOL0     H25337  -1.707   8.225   1.869 -0.6864 -3.6747 -0.0499
  188MOL0     H25338  -1.507   8.402   1.978  1.9840 -0.3882  1.6333
  188MOL0     H25339  -1.494   8.328   1.816  0.7560 -0.8550 -0.5799
  188MOL0     H25340  -1.158   8.164   2.060 -2.5035  2.5175  2.1085
  188MOL0     H25341  -0.949   8.123   2.073 -3.8449 -0.1997 -2.8607
  188MOL0     H25342  -0.828   8.165   1.953 -2.4956  0.5873 -1.6510
  188MOL0     H25343  -0.852   8.273   2.086  1.8346  0.2060 -1.5237
  188MOL0     H25344  -0.593   8.142   1.808 -3.7729  1.6942  0.6859
  188MOL0     H25345  -0.339   8.153   1.802  1.0248  1.5693  2.0916
  188MOL0     H25346  -0.139   8.173   1.761  0.1760  0.7742 -2.2734
  188MOL0     H25347  -0.022   8.275   1.688 -2.1088  0.9885 -2.3209
  188MOL0     H25348  -0.001   8.414   1.889  0.1365  0.3540  1.2019
  188MOL0     H25349  -0.118   8.323   1.970  1.7677 -0.1954  1.2371
  188MOL0     H25350   0.116   8.193   1.827 -1.9464  1.8433 -1.3977
  188MOL0     H25351   0.007   8.104   1.935 -0.3556  0.5193  3.3407
  188MOL0     H25352   0.193   8.318   2.044 -0.2182  0.6231  4.3233
  188MOL0     H25353   0.068   8.230   2.129 -0.7216 -0.1431 -0.2952
  188MOL0     H25354   0.289   8.099   1.950  0.0616 -0.3230  0.0361
  188MOL0     H25355   0.177   8.014   2.065 -0.5117  0.3442 -1.1260
  188MOL0     H25356   0.373   8.208   2.168  2.1088 -0.5200 -0.4591
  188MOL0     H25357   0.275   8.103   2.261 -2.7915  1.1520 -0.9723
  188MOL0     H25358   0.466   7.989   2.047 -2.0120  0.6468 -0.6019
  188MOL0     H25359   0.408   7.903   2.193 -0.8091  0.8455  3.3667
  188MOL0     H25360   0.492   8.051   2.343  0.1416  2.5917  0.2471
  188MOL0     H25361   0.592   8.139   2.223 -0.2026 -0.7255 -0.2264
  188MOL0     H25362  -0.370   8.560   1.674  1.7422 -0.6423  0.7052
  188MOL0     H25363  -0.621   8.551   1.712  2.8779  3.2436 -0.4204
  188MOL0     H25364  -1.085   8.464   1.676 -0.0722  0.9687  0.8740
  188MOL0     H25365  -1.310   8.412   1.748 -0.5486 -1.8927  1.6694
  188MOL0     H25366  -0.374   7.833   1.170  0.7984  1.3831 -0.2807
  188MOL0     H25367  -0.155   7.919   1.122 -2.5072 -3.1303  2.4300
  188MOL0     H25368   0.324   7.801   0.989  2.4149  0.1156 -0.6624
  188MOL0     H25369   0.520   7.902   0.922 -0.0846 -1.0393 -0.8853
  188MOL0     H25370   0.721   8.085   0.916  1.3583 -1.9279 -0.0326
  188MOL0     H25371   0.671   7.946   0.809 -0.9979 -0.8667  3.2331
  188MOL0     H25372   0.814   8.205   0.729  0.5035 -0.5684  2.2729
  188MOL0     H25373   0.771   8.082   0.616  1.0963  0.7385 -0.5857
  188MOL0     H25374   0.917   7.906   0.718  1.9022 -0.4853  1.3736
  188MOL0     H25375   0.925   7.986   0.869 -0.3608 -4.2562 -0.4680
  188MOL0     H25376   1.067   8.029   0.606  0.6212 -2.3617 -0.1449
  188MOL0     H25377   1.142   7.995   0.755  1.0841 -1.4297 -1.6690
  188MOL0     H25378   1.088   8.415   0.791 -0.0949  1.5750  0.3112
  188MOL0     H25379   0.325   8.214   0.729 -3.6020 -1.4590 -3.5196
  188MOL0     H25380   0.108   8.119   0.802 -0.3708 -1.4855 -1.6028
  189MOL0     O25381   1.422   1.614  11.263 -0.0650  0.1072 -0.6397
  189MOL0     C25382   1.403   1.491  11.241  0.3161  1.1018  0.1262
  189MOL0     O25383   1.280   1.435  11.200 -0.4502  0.8441 -0.5983
  189MOL0     C25384   1.202   1.518  11.121  0.3481 -0.2977 -0.1796
  189MOL0     C25385   1.248   1.592  11.014  0.7345  0.2026  0.2868
  189MOL0     C25386   1.159   1.661  10.939  1.0736  0.1589 -0.7930
  189MOL0     C25387   1.028   1.670  10.969 -0.2460  0.1020 -0.4246
  189MOL0     O25388   0.948   1.745  10.891 -0.0625  0.3435  0.1782
  189MOL0     C25389   0.812   1.702  10.863 -0.5010 -0.6419  0.1327
  189MOL0     C25390   0.774   1.794  10.748 -0.3428 -0.4527  0.0186
  189MOL0     C25391   0.629   1.798  10.701  0.6753  0.3087  0.3925
  189MOL0     C25392   0.602   1.887  10.579  0.5843 -0.0736  0.2228
  189MOL0     C25393   0.449   1.923  10.569 -0.7791 -0.4673 -0.7448
  189MOL0     C25394   0.358   1.807  10.525 -0.5082  1.3229  0.4412
  189MOL0     C25395   0.204   1.824  10.540 -0.5140 -0.9985 -0.5621
  189MOL0     C25396   0.159   1.927  10.446  0.0463 -0.4393  0.2883
  189MOL0     N25397   0.014   1.940  10.449  0.1225  0.2872 -0.7197
  189MOL0     C25398  -0.079   1.858  10.389  0.3418  0.2185  0.1725
  189MOL0     C25399  -0.195   1.887  10.445  0.2344 -0.1789 -0.4833
  189MOL0     C25400  -0.323   1.800  10.425 -0.7186 -1.5007  0.3650
  189MOL0     C25401  -0.454   1.874  10.467 -0.1736  0.8152  0.5621
  189MOL0     C25402  -0.491   1.978  10.358 -0.0459 -0.2514 -0.3771
  189MOL0     C25403  -0.621   2.052  10.392  1.0374  0.1357  0.3929
  189MOL0     O25404  -0.732   1.959  10.379 -0.0403  0.2020 -0.0026
  189MOL0     C25405  -0.864   2.006  10.395  0.0223 -0.2434  0.6000
  189MOL0     C25406  -0.965   1.905  10.384 -1.3032 -0.3286 -0.0893
  189MOL0     C25407  -1.103   1.928  10.384  0.1755 -0.1626 -0.3570
  189MOL0     C25408  -1.195   1.811  10.365 -0.0009 -0.6558 -0.2009
  189MOL0     C25409  -1.144   2.060  10.401 -0.4758  0.0780  0.5784
  189MOL0     C25410  -1.283   2.104  10.419  0.1435  0.0049  0.9476
  189MOL0     O25411  -1.299   2.222  10.483 -0.0483  0.6010 -0.8607
  189MOL0     C25412  -1.422   2.273  10.505 -0.5356 -0.7606 -0.1630
  189MOL0     C25413  -1.525   2.199  10.542 -0.9076  0.6256 -0.0856
  189MOL0     C25414  -1.655   2.248  10.568 -0.3946 -0.7330 -0.2755
  189MOL0     C25415  -1.679   2.386  10.536  0.6983 -0.7440 -0.6535
  189MOL0     O25416  -1.806   2.450  10.555  0.1488 -0.4143 -0.2584
  189MOL0     C25417  -1.889   2.411  10.665 -0.4549  0.1686 -0.5994
  189MOL0     C25418  -2.006   2.515  10.685  0.6758  0.1873  0.1629
  189MOL0     C25419  -1.967   2.658  10.734 -0.4148 -0.3146  1.1303
  189MOL0     C25420  -2.097   2.713  10.804 -1.0373  0.3864  0.5303
  189MOL0     C25421  -2.068   2.861  10.853 -0.3106 -0.2993  0.6971
  189MOL0     C25422  -1.966   2.864  10.975 -0.5103 -0.1663 -0.2088
  189MOL0     C25423  -2.032   2.830  11.104 -0.2973 -0.5492  0.0714
  189MOL0     C25424  -1.949   2.750  11.198 -0.2015  0.5197 -0.5833
  189MOL0    Cl25425  -1.801   2.823  11.258  0.0212 -0.4342 -0.3248
  189MOL0     C25426  -1.575   2.464  10.485  0.2728 -0.9036  0.4046
  189MOL0     C25427  -1.454   2.404  10.469  0.3126 -0.1495  0.2177
  189MOL0     O25428  -1.369   2.032  10.362  0.0345 -0.7408  0.3318
  189MOL0     C25429  -1.040   2.165  10.416  0.8733  0.0159 -0.8493
  189MOL0     C25430  -0.901   2.140  10.412  0.3903 -0.4104  0.5015
  189MOL0     N25431  -0.180   2.008  10.514  0.0305  0.6399 -0.4123
  189MOL0     N25432  -0.058   2.034  10.513  0.3600 -0.1655 -0.4991
  189MOL0     C25433   0.981   1.605  11.084  0.8609  0.2016 -0.1943
  189MOL0     C25434   1.065   1.525  11.159 -0.4851  0.5772  0.0684
  189MOL0     C25435   1.520   1.406  11.252  0.4167  0.8152 -0.8670
  189MOL0     C25436   1.495   1.267  11.254  1.0032 -0.5847  0.2256
  189MOL0     C25437   1.602   1.173  11.251  0.2954 -0.8344 -0.2317
  189MOL0     C25438   1.733   1.225  11.254  0.5573 -0.3220 -0.9420
  189MOL0     O25439   1.841   1.138  11.245  0.3287 -0.0432  0.4154
  189MOL0     C25440   1.831   1.033  11.145  0.0621 -0.6865  0.4586
  189MOL0     C25441   1.941   0.936  11.190 -0.7830 -0.3991 -0.5069
  189MOL0     C25442   1.918   0.887  11.335 -0.4654  0.4144 -0.5851
  189MOL0     C25443   2.014   0.773  11.366 -0.3806  0.2470 -1.0349
  189MOL0     C25444   1.957   0.639  11.334 -0.4029 -0.0783  0.7956
  189MOL0     C25445   1.925   0.534  11.282 -0.3799 -0.0192  0.2072
  189MOL0     C25446   1.760   1.364  11.263  0.5372  0.5714 -0.3586
  189MOL0     C25447   1.646   1.449  11.269  0.2441 -0.2968  0.2186
  189MOL0     H25448   1.351   1.563  10.997  1.5823  1.3794  2.8965
  189MOL0     H25449   1.198   1.711  10.851  3.8282  0.1776  0.3197
  189MOL0     H25450   0.818   1.595  10.841  1.2542 -1.0599  2.2713
  189MOL0     H25451   0.736   1.723  10.940 -0.6953  3.2159 -0.8824
  189MOL0     H25452   0.810   1.893  10.779  0.2058 -0.8151  0.5527
  189MOL0     H25453   0.829   1.755  10.662 -3.9941 -1.2125 -2.1691
  189MOL0     H25454   0.603   1.696  10.672  0.1724 -0.4841  3.2724
  189MOL0     H25455   0.557   1.824  10.780  0.8066 -0.5249  0.8022
  189MOL0     H25456   0.659   1.978  10.600 -0.4373  0.8492 -0.8835
  189MOL0     H25457   0.648   1.846  10.489 -1.0714 -1.0959 -0.1939
  189MOL0     H25458   0.409   1.958  10.665 -2.1072 -0.8035 -1.1534
  189MOL0     H25459   0.449   2.003  10.494 -0.1172 -1.1794 -1.5224
  189MOL0     H25460   0.385   1.783  10.422  0.5036  1.3334  0.6982
  189MOL0     H25461   0.382   1.718  10.583 -0.2728  0.0799 -1.4740
  189MOL0     H25462   0.146   1.731  10.538  1.9367 -2.9506  3.6697
  189MOL0     H25463   0.197   1.876  10.636  2.6838  0.9848 -1.2604
  189MOL0     H25464   0.186   1.887  10.347  3.1083  0.9510  0.4351
  189MOL0     H25465   0.209   2.025  10.445  1.0900 -0.9537 -0.4049
  189MOL0     H25466  -0.068   1.768  10.329 -2.0456  0.3476 -0.5510
  189MOL0     H25467  -0.328   1.766  10.321  2.4672  2.6033 -1.4749
  189MOL0     H25468  -0.326   1.710  10.486 -0.4519 -0.6176  1.7306
  189MOL0     H25469  -0.434   1.928  10.561  0.3800  2.8952 -0.6725
  189MOL0     H25470  -0.536   1.802  10.471  1.2358 -1.0324 -1.3731
  189MOL0     H25471  -0.510   1.922  10.266 -0.5051 -3.1939  1.3690
  189MOL0     H25472  -0.405   2.045  10.365  1.8504 -2.6428  4.3643
  189MOL0     H25473  -0.625   2.126  10.311 -2.5875 -2.7317 -2.4366
  189MOL0     H25474  -0.617   2.089  10.495 -2.8279 -3.3882  2.1390
  189MOL0     H25475  -0.919   1.814  10.349  0.8988  0.6408  0.1630
  189MOL0     H25476  -1.247   1.831  10.271  1.5780 -1.2500 -1.2533
  189MOL0     H25477  -1.142   1.716  10.354  1.4587  0.1545 -0.4551
  189MOL0     H25478  -1.262   1.796  10.450  0.0551  2.2802  0.4613
  189MOL0     H25479  -1.494   2.100  10.572 -0.2238  0.8496 -0.0293
  189MOL0     H25480  -1.739   2.183  10.589  0.3502 -1.9306 -0.8534
  189MOL0     H25481  -1.928   2.311  10.645  2.0493 -0.5805 -2.1775
  189MOL0     H25482  -1.821   2.417  10.750 -0.8015  2.9877 -0.4206
  189MOL0     H25483  -2.072   2.519  10.598 -0.3638  0.0102  0.9250
  189MOL0     H25484  -2.066   2.472  10.765  2.4350 -2.6935  0.0837
  189MOL0     H25485  -1.943   2.728  10.653 -2.2320 -1.2538 -0.2937
  189MOL0     H25486  -1.891   2.655  10.812  0.7746 -0.6942 -0.0093
  189MOL0     H25487  -2.180   2.715  10.732 -0.2661  2.8818 -0.3965
  189MOL0     H25488  -2.125   2.657  10.893  2.4366  0.7799  2.0308
  189MOL0     H25489  -2.155   2.914  10.893  0.7995  1.0845  1.3167
  189MOL0     H25490  -2.033   2.917  10.766  0.0649 -0.4366  0.7606
  189MOL0     H25491  -1.881   2.799  10.953 -1.9917 -2.2654 -0.0855
  189MOL0     H25492  -1.927   2.966  10.982  0.1819 -0.2611 -2.1738
  189MOL0     H25493  -2.109   2.754  11.085  0.4666 -1.8756  1.9933
  189MOL0     H25494  -2.071   2.922  11.148 -0.5502 -0.1044 -1.0409
  189MOL0     H25495  -1.926   2.652  11.154 -1.2771  0.5657 -1.2867
  189MOL0     H25496  -2.008   2.718  11.285  1.2647  1.0770  0.6665
  189MOL0     H25497  -1.578   2.566  10.447  2.2938  0.0413  2.5538
  189MOL0     H25498  -1.369   2.456  10.426 -1.2568  0.0636 -2.9054
  189MOL0     H25499  -1.085   2.262  10.434 -0.5223 -0.7750  0.1235
  189MOL0     H25500  -0.822   2.214  10.418 -1.0132  1.4041 -1.7723
  189MOL0     H25501   0.876   1.620  11.108  1.2836  2.6227  0.4425
  189MOL0     H25502   1.025   1.456  11.232  0.8730  1.7019  1.9881
  189MOL0     H25503   1.397   1.220  11.260  0.4398  0.6164  0.7606
  189MOL0     H25504   1.575   1.068  11.241 -1.4764 -0.2969 -1.5240
  189MOL0     H25505   1.735   0.981  11.138 -0.1879 -0.0220 -2.1457
  189MOL0     H25506   1.877   1.068  11.052 -0.3136 -0.0018  0.5232
  189MOL0     H25507   2.040   0.982  11.183  0.0327 -1.8046  1.0147
  189MOL0     H25508   1.940   0.845  11.131 -0.4256 -2.5995  2.6433
  189MOL0     H25509   1.813   0.858  11.342 -0.0222 -0.7944  1.8113
  189MOL0     H25510   1.936   0.971  11.403 -3.3705  0.7501 -0.1112
  189MOL0     H25511   2.038   0.780  11.472  1.6725 -2.4537 -1.2092
  189MOL0     H25512   2.109   0.770  11.312  0.5712 -1.3637  0.6232
  189MOL0     H25513   1.898   0.439  11.242 -1.1560 -0.4218  1.6325
  189MOL0     H25514   1.855   1.410  11.288  1.2515 -0.3031 -1.3456
  189MOL0     H25515   1.673   1.551  11.294  2.0931 -0.7665  0.3133
  190MOL0     O25516   9.612   2.699   4.115 -0.3542 -0.8829 -0.5750
  190MOL0     C25517   9.591   2.785   4.199 -0.6046  0.1955 -0.2247
  190MOL0     O25518   9.473   2.802   4.270  0.2562  0.3805  0.4605
  190MOL0     C25519   9.365   2.737   4.224  0.6768  0.2478 -1.2373
  190MOL0     C25520   9.300   2.786   4.112 -0.3259 -0.7331 -0.1341
  190MOL0     C25521   9.179   2.733   4.078 -0.6596  0.2856  0.0734
  190MOL0     C25522   9.127   2.620   4.141 -0.4245 -0.0639 -0.0028
  190MOL0     O25523   9.012   2.552   4.116  0.5106  0.0105 -0.1212
  190MOL0     C25524   8.903   2.638   4.067  0.3289 -0.1104 -0.2989
  190MOL0     C25525   8.772   2.579   4.101  0.8556 -0.3191  0.3054
  190MOL0     C25526   8.659   2.640   4.011 -0.4531 -0.5786  0.2596
  190MOL0     C25527   8.517   2.602   4.059  1.2113 -0.1215  0.1201
  190MOL0     C25528   8.407   2.630   3.958  0.6405  0.4162  0.5383
  190MOL0     C25529   8.279   2.560   4.008 -0.1931  0.1926  0.3823
  190MOL0     C25530   8.166   2.567   3.905  0.3802  0.3609  0.1578
  190MOL0     C25531   8.044   2.487   3.958 -0.1150  0.2326  0.2550
  190MOL0     N25532   7.917   2.507   3.878  0.3404  0.7220 -0.1073
  190MOL0     C25533   7.850   2.623   3.858 -0.2404 -0.2516  0.2167
  190MOL0     C25534   7.747   2.590   3.780  0.3001 -0.6086  0.1326
  190MOL0     C25535   7.657   2.687   3.715  0.4426 -0.7705 -1.2212
  190MOL0     C25536   7.585   2.759   3.835  0.3026  0.5301 -0.1023
  190MOL0     C25537   7.483   2.862   3.797  0.9917 -0.8412  0.0047
  190MOL0     C25538   7.383   2.890   3.919 -0.3954 -0.3098 -0.2433
  190MOL0     O25539   7.301   3.004   3.864 -0.4000  0.1697 -0.3192
  190MOL0     C25540   7.174   2.984   3.833  0.9706  0.6186  0.0496
  190MOL0     C25541   7.076   3.086   3.840  0.7172 -0.1450 -0.5528
  190MOL0     C25542   6.938   3.067   3.822  0.0975 -0.0705 -0.6142
  190MOL0     C25543   6.848   3.188   3.826  0.1379 -0.7006 -0.3928
  190MOL0     C25544   6.891   2.934   3.785 -0.5461 -0.4629  0.5767
  190MOL0     C25545   6.747   2.904   3.763 -0.3014  0.3071 -0.0912
  190MOL0     O25546   6.654   2.999   3.780  0.1328 -0.0431  0.3794
  190MOL0     C25547   6.519   2.977   3.762 -0.6744 -0.3389 -0.0853
  190MOL0     C25548   6.433   3.025   3.851  1.2986  0.0725 -0.4375
  190MOL0     C25549   6.288   3.010   3.841 -0.5260  1.3816 -0.8387
  190MOL0     C25550   6.241   2.938   3.728 -0.6266 -0.3155  0.0918
  190MOL0     O25551   6.108   2.914   3.722 -0.5050 -0.0619 -0.5478
  190MOL0     C25552   6.060   2.839   3.614  0.6132  0.0541  0.0760
  190MOL0     C25553   5.905   2.859   3.611 -1.0545  0.0709  0.6267
  190MOL0     C25554   5.829   2.832   3.741 -0.6169  0.5861  0.1759
  190MOL0     C25555   5.686   2.862   3.734 -0.2751  0.3603  0.9342
  190MOL0     C25556   5.608   2.834   3.860 -0.1884 -0.7903  0.2123
  190MOL0     C25557   5.459   2.802   3.837 -0.5978  0.0275 -0.1348
  190MOL0     C25558   5.405   2.743   3.969  0.2277  0.4516  0.2875
  190MOL0     C25559   5.251   2.710   3.971  0.2500  0.1035 -0.1359
  190MOL0    Cl25560   5.201   2.630   3.816  0.2114  0.2303  0.4706
  190MOL0     C25561   6.328   2.896   3.632  0.4491 -0.1817 -0.6471
  190MOL0     C25562   6.467   2.917   3.646  0.0472  0.2160  0.0442
  190MOL0     O25563   6.718   2.795   3.708  0.0201  0.7780 -0.6062
  190MOL0     C25564   6.986   2.832   3.770  0.6216 -0.1510  0.1342
  190MOL0     C25565   7.120   2.858   3.781 -1.0625  0.5076 -0.5788
  190MOL0     N25566   7.757   2.455   3.742 -0.4264 -0.7707 -0.3084
  190MOL0     N25567   7.859   2.409   3.813 -0.4572 -0.4606  0.1192
  190MOL0     C25568   9.195   2.568   4.253 -0.7249 -0.5434  0.3331
  190MOL0     C25569   9.318   2.628   4.297 -0.4896 -0.4424  0.8569
  190MOL0     C25570   9.708   2.856   4.244  0.1576  0.2479  0.8983
  190MOL0     C25571   9.801   2.906   4.154 -0.0537  0.3657  0.2738
  190MOL0     C25572   9.900   2.997   4.196 -0.8606 -1.1506  0.4691
  190MOL0     C25573   9.907   3.035   4.329 -0.5369 -0.0707  0.1708
  190MOL0     O25574   9.991   3.133   4.381 -0.4362 -0.4511 -0.1896
  190MOL0     C25575  10.116   3.171   4.305 -1.2090 -0.6317 -0.6891
  190MOL0     C25576  10.210   3.242   4.404  0.2716 -0.2909 -0.5796
  190MOL0     C25577  10.271   3.145   4.507  0.5903  0.3613 -0.5221
  190MOL0     C25578  10.328   3.011   4.442  0.1691 -0.5858  0.3598
  190MOL0     C25579  10.391   2.923   4.539 -0.2587 -0.9897 -0.2281
  190MOL0     C25580  10.459   2.871   4.621 -1.4381 -0.3407  0.1278
  190MOL0     C25581   9.817   2.979   4.419 -0.3509 -1.6743 -0.3104
  190MOL0     C25582   9.713   2.900   4.377  0.8143  0.0297 -0.2624
  190MOL0     H25583   9.346   2.875   4.070 -0.0384 -0.5986  0.4522
  190MOL0     H25584   9.122   2.779   3.999 -1.5840 -1.7557 -0.5213
  190MOL0     H25585   8.901   2.741   4.102 -0.0825  0.7706 -2.7667
  190MOL0     H25586   8.910   2.638   3.958  1.2276  0.9084 -0.2545
  190MOL0     H25587   8.775   2.473   4.074  1.2230  0.9200 -6.0085
  190MOL0     H25588   8.753   2.604   4.206 -0.5092 -0.1648  0.0373
  190MOL0     H25589   8.658   2.750   4.015  1.5809 -0.5134 -0.1062
  190MOL0     H25590   8.667   2.609   3.906  0.0390 -0.6447  0.3142
  190MOL0     H25591   8.518   2.498   4.093 -0.8113 -0.3269 -0.3358
  190MOL0     H25592   8.495   2.660   4.150 -3.0342  1.1002 -1.4671
  190MOL0     H25593   8.393   2.735   3.929  0.9416  0.2285 -0.2826
  190MOL0     H25594   8.436   2.583   3.864  0.3449 -0.7675  1.0263
  190MOL0     H25595   8.308   2.457   4.031 -0.4660  0.5202  2.3756
  190MOL0     H25596   8.240   2.601   4.102  1.2984 -2.1490  2.1380
  190MOL0     H25597   8.130   2.669   3.893 -3.3935 -0.5180  2.5333
  190MOL0     H25598   8.207   2.526   3.811  1.2493 -2.1477  1.5280
  190MOL0     H25599   8.006   2.515   4.056  0.0029 -2.6999  1.2526
  190MOL0     H25600   8.068   2.380   3.950 -0.9828 -0.0074  0.6479
  190MOL0     H25601   7.888   2.721   3.885  0.9077 -1.2657  2.5548
  190MOL0     H25602   7.699   2.760   3.644 -3.0612 -0.0269 -2.7316
  190MOL0     H25603   7.584   2.629   3.657  0.6317 -1.0252 -1.2073
  190MOL0     H25604   7.660   2.797   3.905 -1.5692  1.2154  1.6613
  190MOL0     H25605   7.534   2.689   3.902 -0.1575  1.1725  0.2354
  190MOL0     H25606   7.433   2.828   3.705  0.5994 -1.1918  0.3435
  190MOL0     H25607   7.531   2.958   3.780 -0.2964 -0.4214 -1.6181
  190MOL0     H25608   7.430   2.925   4.011 -0.8268  0.1578 -0.1921
  190MOL0     H25609   7.323   2.800   3.931 -2.7867  1.0870 -1.0340
  190MOL0     H25610   7.100   3.182   3.886 -0.7741 -0.6437  1.4060
  190MOL0     H25611   6.793   3.191   3.732  0.9341 -2.4325 -0.9560
  190MOL0     H25612   6.781   3.178   3.912  2.5111  0.4167  1.7458
  190MOL0     H25613   6.910   3.276   3.846 -1.8461 -0.1791  5.7310
  190MOL0     H25614   6.481   3.085   3.928  0.1492  0.0426  0.3421
  190MOL0     H25615   6.216   3.052   3.910 -0.7438  2.5825 -1.7690
  190MOL0     H25616   6.105   2.887   3.526  0.9656 -1.2488 -0.4764
  190MOL0     H25617   6.077   2.732   3.623 -0.7097 -0.1476  0.2997
  190MOL0     H25618   5.896   2.967   3.597  1.7870  0.3043  0.0773
  190MOL0     H25619   5.863   2.811   3.523 -0.3899  2.7584 -1.2873
  190MOL0     H25620   5.867   2.904   3.815 -0.1899  0.6636 -0.1118
  190MOL0     H25621   5.844   2.727   3.768 -0.4678  0.4365 -0.4775
  190MOL0     H25622   5.683   2.969   3.710  0.0703  0.2986  0.5920
  190MOL0     H25623   5.645   2.813   3.645  3.3845 -0.9554 -0.2338
  190MOL0     H25624   5.613   2.925   3.920 -0.1883 -1.3808  1.1309
  190MOL0     H25625   5.648   2.747   3.913 -0.9963 -0.7072  0.9854
  190MOL0     H25626   5.406   2.895   3.814 -3.0161 -0.7592  1.8406
  190MOL0     H25627   5.445   2.729   3.757 -0.5765  1.5692 -1.6003
  190MOL0     H25628   5.429   2.819   4.044 -4.4769 -0.3274  2.9739
  190MOL0     H25629   5.447   2.646   3.998 -2.1266 -0.6699  0.1810
  190MOL0     H25630   5.202   2.808   3.974 -0.3371 -0.1373 -1.2439
  190MOL0     H25631   5.233   2.647   4.059  0.0583  0.6155  0.2007
  190MOL0     H25632   6.301   2.830   3.550  2.3690 -0.6124 -0.9872
  190MOL0     H25633   6.538   2.882   3.571  0.0436 -1.4778  0.7982
  190MOL0     H25634   6.955   2.730   3.746  0.6138 -0.1934  0.3271
  190MOL0     H25635   7.190   2.776   3.768  0.1569  1.5343 -0.6448
  190MOL0     H25636   9.168   2.472   4.295  0.8936 -0.3102  2.0889
  190MOL0     H25637   9.381   2.578   4.370  0.8862  1.2981  0.9272
  190MOL0     H25638   9.784   2.879   4.050  1.2154 -2.0168  0.6251
  190MOL0     H25639   9.963   3.046   4.122 -0.4714 -3.7851 -1.0838
  190MOL0     H25640  10.167   3.098   4.242 -1.0899 -0.0600 -1.2714
  190MOL0     H25641  10.088   3.243   4.228  0.8780 -0.5156 -1.4006
  190MOL0     H25642  10.169   3.336   4.442 -2.1515 -1.7821  0.7384
  190MOL0     H25643  10.295   3.282   4.347 -1.6239  4.4464 -0.5941
  190MOL0     H25644  10.189   3.119   4.574 -0.2168  0.6412 -1.3857
  190MOL0     H25645  10.344   3.191   4.575 -0.5151  1.2400  0.1090
  190MOL0     H25646  10.412   3.034   4.376 -0.2656 -1.3768 -0.4991
  190MOL0     H25647  10.253   2.960   4.380 -0.9056  1.1410  0.1890
  190MOL0     H25648  10.522   2.845   4.704  0.7920  0.5763 -1.1821
  190MOL0     H25649   9.805   3.023   4.517 -0.1117 -2.0291 -0.1222
  190MOL0     H25650   9.645   2.865   4.454 -1.2621  2.8444 -0.6741
  191MOL0     O25651   9.630  10.398   6.949  0.4425  0.0500 -0.4583
  191MOL0     C25652   9.698  10.436   6.853 -0.4599 -0.2381 -0.7542
  191MOL0     O25653   9.635  10.486   6.739 -0.2151 -0.0076  0.0340
  191MOL0     C25654   9.498  10.513   6.731 -1.6031 -0.2515  0.1521
  191MOL0     C25655   9.435  10.622   6.784 -0.5569  0.6367 -0.0165
  191MOL0     C25656   9.296  10.632   6.778 -0.0840 -0.3618  0.3824
  191MOL0     C25657   9.213  10.530   6.719 -0.2034  0.3761 -0.1050
  191MOL0     O25658   9.075  10.535   6.691 -0.6026 -1.0942  0.1490
  191MOL0     C25659   9.021  10.664   6.720 -0.6546  0.2786  0.0352
  191MOL0     C25660   8.887  10.675   6.663 -0.3453 -0.7379  0.9262
  191MOL0     C25661   8.786  10.572   6.716  0.0287  0.5930  0.0871
  191MOL0     C25662   8.635  10.617   6.687 -0.0319 -0.1538 -0.1284
  191MOL0     C25663   8.524  10.518   6.739 -0.1191 -0.3373 -0.6178
  191MOL0     C25664   8.534  10.497   6.897  1.1493 -0.8639  0.0172
  191MOL0     C25665   8.402  10.426   6.942  0.8222  0.2923 -0.5830
  191MOL0     C25666   8.383  10.415   7.090 -0.1925 -0.2002 -0.5727
  191MOL0     N25667   8.246  10.449   7.130  0.2007  0.2577  0.2353
  191MOL0     C25668   8.156  10.366   7.197  0.0221  0.1692 -0.2811
  191MOL0     C25669   8.052  10.438   7.237  0.8562  0.3748 -0.5828
  191MOL0     C25670   7.937  10.387   7.323  0.4031 -1.3354  0.2171
  191MOL0     C25671   7.818  10.338   7.229 -0.2526 -0.1214 -0.1516
  191MOL0     C25672   7.732  10.452   7.163 -0.3997  0.2888 -0.4084
  191MOL0     C25673   7.625  10.411   7.060 -0.0743 -0.2761 -0.7942
  191MOL0     O25674   7.512  10.499   7.062  0.4150  0.6745 -0.1239
  191MOL0     C25675   7.407  10.482   7.146 -0.1825  0.3295 -0.4865
  191MOL0     C25676   7.306  10.583   7.165 -0.1453 -0.5327  0.7028
  191MOL0     C25677   7.206  10.577   7.261  0.8610 -0.0493 -0.1861
  191MOL0     C25678   7.110  10.693   7.264  0.1437 -0.1967 -0.8907
  191MOL0     C25679   7.186  10.452   7.318 -0.4389  0.1631  0.3301
  191MOL0     C25680   7.079  10.424   7.416  0.4854  0.3497  0.5318
  191MOL0     O25681   6.955  10.466   7.385  0.4636  0.1007  0.5006
  191MOL0     C25682   6.853  10.480   7.476 -0.6304 -1.2635 -1.1459
  191MOL0     C25683   6.871  10.502   7.619 -0.0848 -0.0022 -0.0596
  191MOL0     C25684   6.767  10.536   7.708  0.6856 -0.0559  0.1852
  191MOL0     C25685   6.633  10.545   7.657 -0.5296  0.1150  0.5730
  191MOL0     O25686   6.522  10.548   7.739  0.6673  0.8716  0.1784
  191MOL0     C25687   6.499  10.675   7.793  0.0417 -0.4584  0.2412
  191MOL0     C25688   6.356  10.684   7.846 -0.0401 -0.4982  0.1810
  191MOL0     C25689   6.257  10.657   7.739 -0.8544  0.1467 -0.1553
  191MOL0     C25690   6.113  10.678   7.783  0.1726 -0.6438 -0.2531
  191MOL0     C25691   6.014  10.688   7.665  0.3988  0.2252 -0.5745
  191MOL0     C25692   5.979  10.547   7.609 -0.3685 -0.7129  0.8255
  191MOL0     C25693   5.880  10.481   7.699  0.3721 -0.3106 -0.7129
  191MOL0     C25694   5.875  10.329   7.678 -0.3912 -0.0930  0.2296
  191MOL0    Cl25695   5.794  10.288   7.529  0.5012  0.1046  0.0422
  191MOL0     C25696   6.615  10.539   7.515  0.2785 -0.1283  0.5808
  191MOL0     C25697   6.728  10.503   7.431  0.7411 -0.9470 -0.5772
  191MOL0     O25698   7.106  10.360   7.520 -0.4200  0.0560  0.3097
  191MOL0     C25699   7.276  10.345   7.293  2.3348 -0.2677 -0.4026
  191MOL0     C25700   7.386  10.362   7.213  0.1800  0.1008 -0.3457
  191MOL0     N25701   8.074  10.567   7.191 -0.7774 -0.3301 -0.5095
  191MOL0     N25702   8.186  10.574   7.122 -0.4578  0.3508 -0.5889
  191MOL0     C25703   9.286  10.426   6.659 -0.0693  0.2457 -0.2785
  191MOL0     C25704   9.425  10.410   6.663  0.2202 -1.0509  0.7097
  191MOL0     C25705   9.843  10.425   6.858  0.5990 -0.1735 -0.2263
  191MOL0     C25706   9.918  10.378   6.969 -0.1575 -0.3020  0.3029
  191MOL0     C25707  10.061  10.368   6.962  0.1704  0.4550  0.0384
  191MOL0     C25708  10.132  10.399   6.847  0.0397 -0.4488  0.3061
  191MOL0     O25709  10.270  10.376   6.849 -0.2247 -0.5769  0.4129
  191MOL0     C25710  10.339  10.377   6.722 -1.0015 -0.6585 -0.1273
  191MOL0     C25711  10.487  10.337   6.736  0.2118 -0.5632 -0.4128
  191MOL0     C25712  10.488  10.189   6.783 -0.3009 -0.4801 -0.0670
  191MOL0     C25713  10.629  10.138   6.843 -0.4436  0.0862 -0.2705
  191MOL0     C25714  10.740  10.171   6.748  0.0022  0.9329 -0.2504
  191MOL0     C25715  10.837  10.187   6.674  0.5837  0.6020  0.1006
  191MOL0     C25716  10.057  10.433   6.731 -0.6264  0.0056  0.5417
  191MOL0     C25717   9.915  10.451   6.739  0.1379  0.0172 -0.7042
  191MOL0     H25718   9.496  10.701   6.827  0.9115 -0.2854 -0.3415
  191MOL0     H25719   9.254  10.712   6.837  0.2229  0.9299 -1.0929
  191MOL0     H25720   9.004  10.670   6.828 -1.3157 -0.2880 -0.0257
  191MOL0     H25721   9.084  10.748   6.690  1.6741 -1.1606  0.6030
  191MOL0     H25722   8.862  10.776   6.697  1.1358 -1.0712  3.2079
  191MOL0     H25723   8.890  10.681   6.554  3.7376  2.4080  0.9818
  191MOL0     H25724   8.809  10.476   6.669  0.3732  1.3079 -1.2614
  191MOL0     H25725   8.807  10.572   6.823 -2.2767 -0.3767  0.6162
  191MOL0     H25726   8.618  10.717   6.728 -1.1630 -0.7156  0.8272
  191MOL0     H25727   8.632  10.629   6.578 -0.9962  0.6535 -0.0269
  191MOL0     H25728   8.429  10.558   6.701  2.1725  2.4962 -4.0730
  191MOL0     H25729   8.534  10.418   6.695  1.8877 -0.4878  0.0806
  191MOL0     H25730   8.618  10.439   6.935  0.7145 -0.1650  2.1720
  191MOL0     H25731   8.545  10.594   6.946 -0.2945 -0.7502  0.1677
  191MOL0     H25732   8.316  10.468   6.889 -1.0940 -1.1700  1.2152
  191MOL0     H25733   8.412  10.324   6.904 -4.1951 -0.3568 -0.8412
  191MOL0     H25734   8.452  10.493   7.122 -0.3125  1.2799 -3.4978
  191MOL0     H25735   8.411  10.321   7.139 -1.1957 -0.7518 -1.0178
  191MOL0     H25736   8.166  10.260   7.216 -2.1392  0.1678  1.1301
  191MOL0     H25737   7.981  10.305   7.381  2.3049 -0.1468  0.5242
  191MOL0     H25738   7.910  10.470   7.388 -0.4550  0.5813 -2.4289
  191MOL0     H25739   7.749  10.279   7.290  0.3050 -0.8208 -0.1795
  191MOL0     H25740   7.865  10.276   7.153 -0.1015  0.2770 -0.3866
  191MOL0     H25741   7.796  10.531   7.123  0.9800  0.0198  1.1847
  191MOL0     H25742   7.678  10.498   7.246  1.2531 -0.9867  1.4684
  191MOL0     H25743   7.587  10.310   7.078  0.1104 -0.1193  0.6695
  191MOL0     H25744   7.676  10.405   6.963  0.9831  0.1451 -0.2849
  191MOL0     H25745   7.303  10.675   7.108  0.9074 -1.2088 -0.4863
  191MOL0     H25746   7.172  10.783   7.277 -0.5441  0.0274  1.3566
  191MOL0     H25747   7.050  10.701   7.173 -0.4808  1.1612 -0.3921
  191MOL0     H25748   7.040  10.698   7.348  2.5198  1.2675  1.1308
  191MOL0     H25749   6.970  10.498   7.663  0.1827  2.5352 -0.2981
  191MOL0     H25750   6.793  10.563   7.809 -0.8154  0.8230  0.3712
  191MOL0     H25751   6.570  10.699   7.872 -0.7864  1.0359  0.5627
  191MOL0     H25752   6.513  10.756   7.721 -0.4844  1.8211  2.5763
  191MOL0     H25753   6.341  10.610   7.925  4.1796 -0.8285  0.8998
  191MOL0     H25754   6.346  10.785   7.888 -0.9586 -1.3708  2.1854
  191MOL0     H25755   6.268  10.556   7.698 -1.7913  0.3061 -0.8318
  191MOL0     H25756   6.278  10.721   7.652 -0.5644 -1.0675 -1.0072
  191MOL0     H25757   6.091  10.600   7.855  0.8705  2.2915  3.4542
  191MOL0     H25758   6.105  10.771   7.841  1.5039 -0.4837 -0.2847
  191MOL0     H25759   6.061  10.750   7.588 -1.9449  0.8308 -1.5898
  191MOL0     H25760   5.919  10.727   7.701  0.4070 -0.2657 -0.0062
  191MOL0     H25761   5.942  10.559   7.507 -1.4415  2.2100  1.4640
  191MOL0     H25762   6.075  10.494   7.606  1.1451  1.6101  3.5064
  191MOL0     H25763   5.782  10.526   7.680 -0.4527 -0.9771  1.6445
  191MOL0     H25764   5.906  10.494   7.804 -2.3422  1.6144 -0.1556
  191MOL0     H25765   5.831  10.271   7.760  0.2798  1.2169  1.5638
  191MOL0     H25766   5.978  10.292   7.668  0.2550  1.3450  1.1740
  191MOL0     H25767   6.517  10.555   7.473  0.1356 -3.4616 -0.7099
  191MOL0     H25768   6.711  10.500   7.324 -0.6879  1.0210 -0.4650
  191MOL0     H25769   7.258  10.259   7.357  0.3979  2.6942  3.5064
  191MOL0     H25770   7.450  10.274   7.217 -0.3982 -0.3294 -0.3759
  191MOL0     H25771   9.229  10.351   6.605  0.2654 -0.8348  0.8025
  191MOL0     H25772   9.472  10.335   6.601 -0.0262 -0.9886  0.4464
  191MOL0     H25773   9.868  10.349   7.061 -1.4868  3.9972  1.1697
  191MOL0     H25774  10.111  10.332   7.051 -0.4057  0.7820  0.5037
  191MOL0     H25775  10.299  10.306   6.648  0.4760  0.5842 -2.2151
  191MOL0     H25776  10.342  10.478   6.680  1.0723 -0.4062  0.5066
  191MOL0     H25777  10.526  10.398   6.818  0.2329  3.9842 -3.4597
  191MOL0     H25778  10.546  10.353   6.646 -0.0348 -1.7520 -0.8010
  191MOL0     H25779  10.461  10.124   6.699  0.3168  0.3036 -0.8845
  191MOL0     H25780  10.416  10.168   6.862  1.3292 -2.6439  0.9543
  191MOL0     H25781  10.628  10.029   6.852  1.0049  0.0996  0.3489
  191MOL0     H25782  10.648  10.179   6.943 -0.6667  0.7450 -0.4930
  191MOL0     H25783  10.920  10.219   6.614 -1.0190  1.3654 -1.8218
  191MOL0     H25784  10.108  10.444   6.636 -0.7822  0.0203  0.4598
  191MOL0     H25785   9.864  10.464   6.644 -0.2680  1.5689 -0.3114
  192MOL0     O25786   5.293   1.995   3.938  0.3834 -0.0135  0.2082
  192MOL0     C25787   5.301   2.098   3.874 -1.4940 -0.1685 -0.2858
  192MOL0     O25788   5.218   2.134   3.775 -0.1521 -0.1656 -0.0843
  192MOL0     C25789   5.113   2.054   3.751 -0.2985  0.6953  0.1763
  192MOL0     C25790   5.137   1.920   3.695  0.9012 -0.2760  0.5908
  192MOL0     C25791   5.037   1.827   3.675 -0.1211  0.1188  0.3102
  192MOL0     C25792   4.904   1.863   3.703  0.0966 -0.0933  0.3900
  192MOL0     O25793   4.794   1.791   3.679 -0.0735 -0.1682 -0.7506
  192MOL0     C25794   4.800   1.648   3.654 -0.0539 -0.1567  1.0757
  192MOL0     C25795   4.808   1.575   3.787  0.1466  0.9557  0.9282
  192MOL0     C25796   4.667   1.543   3.844 -1.1461  0.6121  0.2789
  192MOL0     C25797   4.569   1.659   3.868  0.9185 -0.2771  0.0081
  192MOL0     C25798   4.444   1.615   3.956  0.2958  0.0611  0.3758
  192MOL0     C25799   4.323   1.703   3.930 -0.5166 -0.1999  0.2450
  192MOL0     C25800   4.254   1.694   3.792  0.4644 -1.0626 -0.3550
  192MOL0     C25801   4.148   1.798   3.766  0.7455  0.3285 -0.2524
  192MOL0     N25802   4.105   1.814   3.621 -0.3851  0.1874 -0.3347
  192MOL0     C25803   3.987   1.759   3.570  0.6145 -1.0714 -0.8095
  192MOL0     C25804   3.974   1.828   3.449 -0.0994  0.0066 -1.3905
  192MOL0     C25805   3.853   1.809   3.363 -0.2016 -0.0143  0.1648
  192MOL0     C25806   3.721   1.865   3.427  0.1178  0.8056 -0.4299
  192MOL0     C25807   3.623   1.866   3.311 -0.4706 -0.2098  0.1197
  192MOL0     C25808   3.489   1.897   3.360  1.2568  1.2363  0.0633
  192MOL0     O25809   3.392   1.907   3.254  0.1414  0.3259 -0.2367
  192MOL0     C25810   3.271   1.967   3.285 -0.2710  1.4364 -0.2402
  192MOL0     C25811   3.229   1.967   3.414 -0.2789  0.2066  0.0735
  192MOL0     C25812   3.093   1.995   3.445 -0.2890 -0.3202  0.7224
  192MOL0     C25813   3.049   1.991   3.593  0.7629  0.2561  0.1390
  192MOL0     C25814   3.005   2.034   3.341 -0.3545 -0.0079 -0.6725
  192MOL0     C25815   2.863   2.060   3.356 -0.1385  0.1749 -0.4674
  192MOL0     O25816   2.806   2.129   3.248  0.3817 -0.4574 -0.0733
  192MOL0     C25817   2.684   2.190   3.262 -0.0858  0.1732  1.1843
  192MOL0     C25818   2.570   2.130   3.208 -0.4474  0.0597  0.6688
  192MOL0     C25819   2.439   2.189   3.215 -0.4650  0.0521  0.7138
  192MOL0     C25820   2.422   2.317   3.275  0.0585 -0.5564  0.4334
  192MOL0     O25821   2.298   2.370   3.276 -0.4516  0.2792  0.3570
  192MOL0     C25822   2.274   2.458   3.392 -0.4714  0.3937 -0.4095
  192MOL0     C25823   2.132   2.513   3.397  0.5146 -0.1359 -0.6305
  192MOL0     C25824   2.098   2.592   3.272  0.6558  0.8144 -0.1297
  192MOL0     C25825   1.962   2.656   3.301 -0.0554  1.0886  0.8639
  192MOL0     C25826   1.847   2.558   3.281 -0.7798  0.0020 -0.7292
  192MOL0     C25827   1.718   2.616   3.334 -0.6067 -0.1613  0.0361
  192MOL0     C25828   1.666   2.738   3.256  0.4510 -0.8881  0.4573
  192MOL0     C25829   1.532   2.789   3.299 -0.4026 -0.0933  0.1157
  192MOL0    Cl25830   1.572   2.857   3.464  0.0512  0.0555 -0.6548
  192MOL0     C25831   2.543   2.380   3.323 -0.5629 -1.2762 -1.3680
  192MOL0     C25832   2.669   2.315   3.312 -0.6220 -0.3223 -0.2180
  192MOL0     O25833   2.802   2.014   3.452 -0.3412  0.0811 -0.3088
  192MOL0     C25834   3.056   2.046   3.212 -0.1664  0.2482  0.4782
  192MOL0     C25835   3.188   2.017   3.186  0.5043 -0.3495 -1.4669
  192MOL0     N25836   4.078   1.925   3.437 -0.7248  0.7853  0.8123
  192MOL0     N25837   4.160   1.904   3.534 -0.4843 -0.1520  0.7722
  192MOL0     C25838   4.870   1.992   3.747 -0.1237 -0.1207 -0.5100
  192MOL0     C25839   4.974   2.086   3.768 -0.5066  0.0088 -0.8494
  192MOL0     C25840   5.423   2.177   3.888 -0.3031  0.3681  0.3012
  192MOL0     C25841   5.427   2.307   3.837 -0.5600 -0.2106  0.5716
  192MOL0     C25842   5.545   2.382   3.843 -0.0036  0.8393 -0.1687
  192MOL0     C25843   5.654   2.321   3.920  0.7661 -1.1020 -0.7836
  192MOL0     O25844   5.781   2.374   3.946  0.1130  0.3882  0.2039
  192MOL0     C25845   5.826   2.493   3.882 -0.2649 -0.4712 -0.3905
  192MOL0     C25846   5.954   2.519   3.946 -0.2492  0.7749 -0.1656
  192MOL0     C25847   6.044   2.387   3.911  0.6382 -0.1504 -1.1925
  192MOL0     C25848   6.179   2.408   3.977  0.4627  0.6320  0.0884
  192MOL0     C25849   6.265   2.506   3.909  0.1298  0.5352  1.2161
  192MOL0     C25850   6.349   2.576   3.858  0.4037  0.5502  0.6488
  192MOL0     C25851   5.642   2.191   3.979  0.5050  0.3935 -0.2471
  192MOL0     C25852   5.534   2.112   3.948  0.3805 -0.4759 -0.1596
  192MOL0     H25853   5.237   1.878   3.691  0.6206 -1.1269  1.7186
  192MOL0     H25854   5.077   1.730   3.645  2.4329  1.0679  0.4130
  192MOL0     H25855   4.710   1.617   3.600  1.0735 -1.4119 -0.1559
  192MOL0     H25856   4.878   1.615   3.585  0.1876 -3.1527  2.6150
  192MOL0     H25857   4.856   1.477   3.775 -1.5007 -0.2509  3.3897
  192MOL0     H25858   4.863   1.633   3.861 -1.7862  0.3898  2.8915
  192MOL0     H25859   4.619   1.485   3.765  0.3447 -0.8812  0.4001
  192MOL0     H25860   4.679   1.488   3.938 -1.7868 -0.3206 -0.1653
  192MOL0     H25861   4.621   1.740   3.919 -0.0917  1.0075 -0.9329
  192MOL0     H25862   4.540   1.706   3.774 -2.7203 -0.5237  0.8570
  192MOL0     H25863   4.416   1.517   3.916 -0.7373  0.6171 -0.3041
  192MOL0     H25864   4.475   1.604   4.061  1.5833 -2.9032 -0.2087
  192MOL0     H25865   4.250   1.684   4.010  1.1709 -1.8583  1.4935
  192MOL0     H25866   4.345   1.809   3.942  0.0304  0.3185 -3.9388
  192MOL0     H25867   4.330   1.699   3.713 -0.3228 -0.5195 -1.0876
  192MOL0     H25868   4.214   1.595   3.772  2.1130 -1.0449 -4.7821
  192MOL0     H25869   4.180   1.899   3.790 -1.8663  1.1896 -0.0633
  192MOL0     H25870   4.061   1.761   3.821 -0.0103 -2.8788 -3.2032
  192MOL0     H25871   3.921   1.687   3.618  0.2525  0.9896  2.0460
  192MOL0     H25872   3.874   1.865   3.271 -2.5644 -2.3069 -1.9233
  192MOL0     H25873   3.840   1.701   3.355  2.9891 -0.5474  0.9333
  192MOL0     H25874   3.743   1.967   3.460 -0.7143  0.3245  1.7730
  192MOL0     H25875   3.695   1.800   3.511 -0.4278 -0.4465 -1.5345
  192MOL0     H25876   3.623   1.765   3.269  0.1101 -0.0143 -0.3467
  192MOL0     H25877   3.636   1.948   3.241 -1.4991 -0.2517 -0.1465
  192MOL0     H25878   3.501   1.979   3.430  1.5551 -1.6984  3.7478
  192MOL0     H25879   3.452   1.813   3.420 -1.4794  1.7719 -0.7345
  192MOL0     H25880   3.285   1.936   3.502 -2.7870 -3.2132  0.7040
  192MOL0     H25881   3.002   2.086   3.617  1.3256  1.2749 -2.5063
  192MOL0     H25882   2.967   1.920   3.611 -2.1932  3.9491  2.7914
  192MOL0     H25883   3.133   1.962   3.658  2.1319  1.1161 -1.1824
  192MOL0     H25884   2.574   2.033   3.159 -1.9593 -0.0054  0.6396
  192MOL0     H25885   2.353   2.134   3.179 -0.2918 -0.1769  0.6453
  192MOL0     H25886   2.294   2.403   3.484 -1.8240 -0.8528 -0.8087
  192MOL0     H25887   2.328   2.552   3.380 -0.8460  0.8163  1.0486
  192MOL0     H25888   2.051   2.442   3.415 -0.4507  1.2595  0.7544
  192MOL0     H25889   2.146   2.569   3.490  0.6743 -2.1606  0.6516
  192MOL0     H25890   2.100   2.533   3.180  0.6236  2.8557 -1.5084
  192MOL0     H25891   2.172   2.672   3.258  0.5733  1.4666  2.5586
  192MOL0     H25892   1.958   2.694   3.403  0.3844  1.5350  0.7203
  192MOL0     H25893   1.947   2.743   3.236  2.1465  1.0986  0.3016
  192MOL0     H25894   1.860   2.464   3.334  1.2912  1.0744  0.8065
  192MOL0     H25895   1.848   2.527   3.176  1.5317 -0.3520 -0.6488
  192MOL0     H25896   1.636   2.544   3.343 -0.2184 -0.6248 -0.0856
  192MOL0     H25897   1.733   2.641   3.439  3.4281  0.9638 -0.6275
  192MOL0     H25898   1.661   2.710   3.151  2.4344  2.3313 -0.6407
  192MOL0     H25899   1.736   2.822   3.251 -2.5825  1.7673 -1.8663
  192MOL0     H25900   1.457   2.709   3.304 -0.5308 -0.1904 -2.2244
  192MOL0     H25901   1.489   2.866   3.235 -0.7520  1.1970  1.8453
  192MOL0     H25902   2.543   2.478   3.368 -1.5943 -1.7884 -0.1754
  192MOL0     H25903   2.750   2.371   3.357 -1.7131 -1.9806  4.4100
  192MOL0     H25904   2.997   2.085   3.130 -2.9348 -1.8487  1.2996
  192MOL0     H25905   3.227   2.021   3.085  1.4828  2.4075 -1.0715
  192MOL0     H25906   4.770   2.017   3.781  0.0444  0.8339 -0.6818
  192MOL0     H25907   4.960   2.188   3.802  1.4085  0.0861 -0.1659
  192MOL0     H25908   5.343   2.359   3.793 -0.0138  0.4081  0.2613
  192MOL0     H25909   5.558   2.480   3.797 -0.6028  0.7660 -0.5029
  192MOL0     H25910   5.833   2.479   3.773  0.9585 -0.2277 -0.3604
  192MOL0     H25911   5.761   2.576   3.910 -1.8339 -1.8704  0.2164
  192MOL0     H25912   5.940   2.538   4.052 -2.1036 -1.3253  0.0591
  192MOL0     H25913   5.993   2.614   3.908 -2.6479  2.8712  2.2674
  192MOL0     H25914   6.045   2.374   3.802  0.7426  2.8351 -1.6201
  192MOL0     H25915   6.005   2.292   3.948 -1.0746  0.5242 -1.1529
  192MOL0     H25916   6.242   2.321   3.996 -2.4648 -1.3796  1.3525
  192MOL0     H25917   6.161   2.458   4.073 -3.2763 -0.4005  0.0744
  192MOL0     H25918   6.421   2.646   3.821 -0.4011  0.0554 -2.0359
  192MOL0     H25919   5.728   2.144   4.025  2.0196  1.0001 -2.2736
  192MOL0     H25920   5.521   2.020   4.004 -1.7215  1.2525  2.4710
  193MOL0     O25921   6.771   5.498   5.363 -0.2959 -0.6557 -0.7762
  193MOL0     C25922   6.732   5.453   5.252 -0.1668 -0.5719  0.8681
  193MOL0     O25923   6.809   5.423   5.152  0.0724  0.3311 -0.3136
  193MOL0     C25924   6.945   5.411   5.177  0.3182 -0.2875 -0.5413
  193MOL0     C25925   7.020   5.527   5.172  0.0523  0.0228 -1.1694
  193MOL0     C25926   7.157   5.505   5.169  0.1306  0.4761 -0.9846
  193MOL0     C25927   7.214   5.371   5.187 -0.0308 -0.5671  0.1285
  193MOL0     O25928   7.350   5.365   5.177  0.3298 -0.0682 -0.0559
  193MOL0     C25929   7.422   5.246   5.164 -0.1577  0.2087  0.5666
  193MOL0     C25930   7.556   5.283   5.213 -0.3870  0.8466  0.2529
  193MOL0     C25931   7.658   5.166   5.212 -0.7328 -0.2213 -0.0041
  193MOL0     C25932   7.787   5.220   5.268  0.1102  0.3334  0.6840
  193MOL0     C25933   7.899   5.113   5.268  0.2524 -0.1192 -0.7901
  193MOL0     C25934   7.950   5.076   5.131 -0.0886  0.4128 -0.2295
  193MOL0     C25935   8.071   4.991   5.130 -0.0174  0.7152  0.0893
  193MOL0     C25936   8.070   4.862   5.220  0.8864  1.4849  0.0549
  193MOL0     N25937   7.944   4.781   5.210 -0.9127 -0.0372  0.2427
  193MOL0     C25938   7.863   4.756   5.106  0.2768 -0.2242 -0.3958
  193MOL0     C25939   7.739   4.714   5.153  0.5744 -0.0151 -1.2501
  193MOL0     C25940   7.607   4.689   5.081 -0.1970 -0.1931  0.2503
  193MOL0     C25941   7.476   4.711   5.160  0.1628 -0.0515 -0.3255
  193MOL0     C25942   7.463   4.858   5.213 -0.4016 -0.1145  1.2541
  193MOL0     C25943   7.338   4.858   5.295  1.1704 -1.0104 -0.4336
  193MOL0     O25944   7.219   4.870   5.217  0.1181  0.0012 -0.3688
  193MOL0     C25945   7.096   4.860   5.273  0.2505 -0.2626  0.2705
  193MOL0     C25946   7.059   4.776   5.377  0.2363  0.5675  0.7662
  193MOL0     C25947   6.917   4.744   5.402  0.0799  0.2480 -0.2752
  193MOL0     C25948   6.902   4.628   5.501 -0.0464  0.3911 -0.4089
  193MOL0     C25949   6.816   4.812   5.338  0.2270 -0.3844 -0.0856
  193MOL0     C25950   6.672   4.786   5.355 -0.2006 -0.4584  0.4344
  193MOL0     O25951   6.600   4.851   5.259 -0.1987  0.6199  0.1186
  193MOL0     C25952   6.464   4.859   5.262  0.2437 -1.2693  0.2595
  193MOL0     C25953   6.382   4.756   5.297  0.2167  0.5590  0.4813
  193MOL0     C25954   6.244   4.760   5.274  0.8749 -0.6877 -0.0990
  193MOL0     C25955   6.180   4.878   5.233 -0.1075  0.2937 -1.2288
  193MOL0     O25956   6.045   4.910   5.225  0.6006 -0.1743  0.5231
  193MOL0     C25957   5.959   4.865   5.328 -0.2707  1.0076  0.2201
  193MOL0     C25958   5.861   4.763   5.261  0.1919  0.0435  0.0985
  193MOL0     C25959   5.778   4.676   5.352 -0.3323  0.8696 -0.2870
  193MOL0     C25960   5.868   4.594   5.448 -1.0264 -0.3197  0.2760
  193MOL0     C25961   5.793   4.490   5.526 -0.8045  0.3799  0.5912
  193MOL0     C25962   5.870   4.425   5.649  0.2729  0.2199  0.0762
  193MOL0     C25963   5.786   4.316   5.711 -1.0751 -0.2846 -0.3255
  193MOL0     C25964   5.870   4.276   5.834 -0.8509 -0.4426 -0.9825
  193MOL0    Cl25965   5.788   4.142   5.926  0.1081 -0.2429  0.0015
  193MOL0     C25966   6.260   4.989   5.214  0.0282  0.4866  0.5685
  193MOL0     C25967   6.400   4.983   5.222  0.6392  0.2182 -0.7159
  193MOL0     O25968   6.631   4.735   5.460  0.0215  0.8633  0.4651
  193MOL0     C25969   6.859   4.905   5.238 -0.1675  0.2485  0.1254
  193MOL0     C25970   6.990   4.919   5.203  0.1686 -0.3091  0.3428
  193MOL0     N25971   7.755   4.689   5.292 -0.0377 -0.1307  1.0985
  193MOL0     N25972   7.881   4.732   5.322 -0.2402  0.0407 -0.0208
  193MOL0     C25973   7.129   5.258   5.202 -0.6210 -0.0196  0.7433
  193MOL0     C25974   6.996   5.280   5.188 -0.5294  0.3985  0.0314
  193MOL0     C25975   6.589   5.440   5.224 -0.2473  1.4738 -0.0515
  193MOL0     C25976   6.545   5.378   5.100  0.1772  0.1436  0.0222
  193MOL0     C25977   6.409   5.352   5.075 -0.3150 -0.0356  1.0826
  193MOL0     C25978   6.323   5.388   5.171  1.2489  0.3968  0.0109
  193MOL0     O25979   6.193   5.361   5.150  0.2237  0.0767  0.7323
  193MOL0     C25980   6.083   5.414   5.225  0.0716 -0.0004  0.2486
  193MOL0     C25981   5.955   5.376   5.157  0.2263 -0.3496  0.3985
  193MOL0     C25982   5.933   5.224   5.140 -0.2355  0.7186 -0.3218
  193MOL0     C25983   5.785   5.179   5.113 -0.3627 -0.7987 -0.7326
  193MOL0     C25984   5.730   5.248   4.998 -0.3312 -0.2464 -0.2435
  193MOL0     C25985   5.712   5.328   4.915  0.8771 -0.5597 -1.0617
  193MOL0     C25986   6.359   5.441   5.291  0.4941  0.1810 -0.4130
  193MOL0     C25987   6.491   5.464   5.322  0.8255 -0.1843  0.0518
  193MOL0     H25988   6.992   5.630   5.156 -4.0730 -1.0700 -2.1618
  193MOL0     H25989   7.225   5.589   5.169  0.1124  0.4914 -1.0822
  193MOL0     H25990   7.380   5.158   5.213 -0.4784 -1.5492 -2.6470
  193MOL0     H25991   7.423   5.208   5.062  0.5080  0.6251  0.4133
  193MOL0     H25992   7.603   5.363   5.156 -1.2875  1.6606  0.6261
  193MOL0     H25993   7.550   5.317   5.317 -0.2043 -2.2121  1.3821
  193MOL0     H25994   7.618   5.087   5.276 -1.2213 -1.2371 -1.4926
  193MOL0     H25995   7.674   5.132   5.109  0.6623  1.9103 -0.5478
  193MOL0     H25996   7.830   5.303   5.210 -0.7272  0.1021 -0.2884
  193MOL0     H25997   7.768   5.249   5.372  0.5593  0.2562  0.7888
  193MOL0     H25998   7.978   5.151   5.333 -1.2473 -0.8798  1.6321
  193MOL0     H25999   7.859   5.019   5.307  0.1712 -1.0114 -2.9136
  193MOL0     H26000   7.871   5.020   5.080  0.7264 -3.0002  1.9268
  193MOL0     H26001   7.971   5.171   5.080  0.0905 -1.3438 -3.7354
  193MOL0     H26002   8.097   4.961   5.028  0.1744  2.1187 -0.3055
  193MOL0     H26003   8.157   5.046   5.171 -0.1653 -0.6419  2.3655
  193MOL0     H26004   8.095   4.886   5.323  3.3829 -1.3903  0.2836
  193MOL0     H26005   8.157   4.808   5.181  0.5452 -0.0813  1.3350
  193MOL0     H26006   7.892   4.778   5.003  1.5017 -0.1283 -0.0529
  193MOL0     H26007   7.588   4.739   4.985 -3.3207  0.7261  1.2225
  193MOL0     H26008   7.602   4.584   5.052 -1.0088  0.0353 -0.4762
  193MOL0     H26009   7.478   4.644   5.246  0.2979  0.7370  0.2990
  193MOL0     H26010   7.386   4.683   5.105 -0.6859  0.2104  0.8829
  193MOL0     H26011   7.460   4.930   5.132 -1.2074 -0.4670  0.9639
  193MOL0     H26012   7.557   4.877   5.267 -0.3979  2.0893  0.5320
  193MOL0     H26013   7.330   4.944   5.361  2.4036  0.2261 -1.8541
  193MOL0     H26014   7.335   4.774   5.365  0.8993  1.3870  2.6439
  193MOL0     H26015   7.137   4.731   5.439  0.1532 -0.6439  0.0369
  193MOL0     H26016   6.811   4.634   5.562  1.4324  1.6077  1.8068
  193MOL0     H26017   6.889   4.534   5.446 -2.4444  0.4922 -0.1438
  193MOL0     H26018   6.989   4.617   5.566 -1.2113 -0.5287  1.0779
  193MOL0     H26019   6.426   4.664   5.333 -2.1282 -0.0245  2.1578
  193MOL0     H26020   6.190   4.668   5.290  0.0951  0.1437  2.6434
  193MOL0     H26021   6.005   4.819   5.415 -1.2635 -1.7429 -0.6178
  193MOL0     H26022   5.906   4.950   5.373  0.8092  0.6621  2.2413
  193MOL0     H26023   5.790   4.816   5.197  0.8028 -1.9025 -2.3381
  193MOL0     H26024   5.916   4.696   5.195 -1.5824 -0.3046 -1.0957
  193MOL0     H26025   5.715   4.615   5.288 -0.3371  0.3734  0.1832
  193MOL0     H26026   5.702   4.741   5.397 -2.1188 -0.9567 -0.5277
  193MOL0     H26027   5.950   4.548   5.392 -0.2342  0.5275  0.7223
  193MOL0     H26028   5.900   4.662   5.527 -3.1418  1.0197  0.0644
  193MOL0     H26029   5.767   4.409   5.457  0.5430  0.5587 -0.1547
  193MOL0     H26030   5.706   4.539   5.572  0.0956  0.4175  2.3483
  193MOL0     H26031   5.971   4.395   5.619  1.2112  1.5028  1.7560
  193MOL0     H26032   5.884   4.502   5.726  0.9057 -0.8236  1.0326
  193MOL0     H26033   5.795   4.228   5.647  1.1279 -0.6908  0.4614
  193MOL0     H26034   5.679   4.333   5.727 -0.5004  2.6295  1.0330
  193MOL0     H26035   5.890   4.360   5.900  1.4909 -1.6271 -0.0837
  193MOL0     H26036   5.968   4.238   5.804 -1.9469 -2.4142 -2.3492
  193MOL0     H26037   6.211   5.085   5.198 -0.2773  0.6124  2.1297
  193MOL0     H26038   6.467   5.064   5.193  1.1484 -0.3097 -1.0363
  193MOL0     H26039   6.791   4.962   5.175 -1.2148 -1.6239 -0.5109
  193MOL0     H26040   7.017   4.983   5.121  4.3342 -1.2876  0.7282
  193MOL0     H26041   7.168   5.158   5.211  1.6710  0.7921  0.5108
  193MOL0     H26042   6.928   5.196   5.197  0.1467 -0.0924  0.6290
  193MOL0     H26043   6.603   5.339   5.017 -2.0223 -3.9849  0.1730
  193MOL0     H26044   6.383   5.299   4.984  3.2788 -2.0019  1.0079
  193MOL0     H26045   6.081   5.370   5.325 -2.7471  0.5264  0.5029
  193MOL0     H26046   6.083   5.522   5.241  0.8646 -0.3861  3.5777
  193MOL0     H26047   5.972   5.410   5.055  0.4637 -0.4537  0.4038
  193MOL0     H26048   5.871   5.429   5.203  0.2453  1.2698 -1.3425
  193MOL0     H26049   5.962   5.179   5.235 -1.4375  2.0799  0.7434
  193MOL0     H26050   6.001   5.187   5.063 -0.8069 -3.5333  0.9952
  193MOL0     H26051   5.733   5.206   5.206  1.8343 -2.5999  1.1652
  193MOL0     H26052   5.771   5.072   5.096  0.1367 -0.6832 -1.9443
  193MOL0     H26053   5.706   5.386   4.825  1.9967 -0.3574 -1.0185
  193MOL0     H26054   6.289   5.465   5.370  1.7479 -4.3169  2.5051
  193MOL0     H26055   6.512   5.510   5.418 -0.5353  2.3379 -0.7495
  194MOL0     O26056   2.472   4.048   1.762 -0.1345 -0.7609 -0.8153
  194MOL0     C26057   2.505   3.974   1.853 -0.0021  0.1676  0.6526
  194MOL0     O26058   2.416   3.927   1.944 -0.3559  0.1796 -0.1147
  194MOL0     C26059   2.288   3.991   1.966 -0.1716  1.2752  0.0933
  194MOL0     C26060   2.176   3.911   2.006 -0.6643  0.4328 -0.7616
  194MOL0     C26061   2.057   3.977   2.041  0.0732  0.7834  0.0113
  194MOL0     C26062   2.038   4.114   2.041  0.7867  0.3851 -0.7454
  194MOL0     O26063   1.908   4.165   2.062  0.1052 -0.0878 -0.0464
  194MOL0     C26064   1.909   4.286   2.135 -0.0564  0.0193  0.0423
  194MOL0     C26065   1.777   4.337   2.175  0.1715 -0.2518  0.1999
  194MOL0     C26066   1.708   4.373   2.038 -0.2077 -1.1709  1.0504
  194MOL0     C26067   1.553   4.389   2.059 -0.8376 -0.2844 -0.5256
  194MOL0     C26068   1.462   4.315   1.974  0.3934  0.6394  0.3460
  194MOL0     C26069   1.319   4.302   2.028  1.0741  0.5459 -0.2359
  194MOL0     C26070   1.237   4.209   1.925  0.2278 -0.0610  0.0051
  194MOL0     C26071   1.102   4.175   1.967  0.6758 -0.0360  0.2575
  194MOL0     N26072   1.041   4.074   1.879  0.9778  0.4435  0.6234
  194MOL0     C26073   1.047   4.086   1.746 -0.1941  0.1331  0.1048
  194MOL0     C26074   1.000   3.971   1.705  0.9937  0.1922  0.2953
  194MOL0     C26075   0.991   3.921   1.566  0.2905 -0.4671  0.6355
  194MOL0     C26076   0.876   3.979   1.478  0.5283 -0.0578 -0.6249
  194MOL0     C26077   0.738   3.920   1.517 -0.4835 -0.4552 -0.1416
  194MOL0     C26078   0.615   3.968   1.445 -0.4415  0.3159  0.3964
  194MOL0     O26079   0.497   3.928   1.519  0.2198  0.6185  0.0892
  194MOL0     C26080   0.381   3.979   1.468  0.5348 -0.4938  0.5961
  194MOL0     C26081   0.341   3.964   1.327 -0.1239 -0.3580 -0.8812
  194MOL0     C26082   0.220   4.008   1.277 -0.3371  0.1014  0.6197
  194MOL0     C26083   0.191   3.974   1.133 -0.0606  0.5195 -0.1669
  194MOL0     C26084   0.128   4.066   1.373 -0.3817 -0.0886  0.1928
  194MOL0     C26085   0.008   4.136   1.328 -0.2854  1.1678  0.3179
  194MOL0     O26086  -0.075   4.177   1.424 -0.0984  0.8491  0.0355
  194MOL0     C26087  -0.200   4.216   1.379 -0.3485 -0.7979 -0.1876
  194MOL0     C26088  -0.303   4.121   1.358 -0.6530 -1.2982  0.5052
  194MOL0     C26089  -0.421   4.169   1.300  0.6107 -0.8511 -0.1093
  194MOL0     C26090  -0.437   4.311   1.269 -0.3819 -0.3945 -0.0556
  194MOL0     O26091  -0.553   4.369   1.234  0.8324  0.9872 -0.7193
  194MOL0     C26092  -0.681   4.317   1.261  0.3565  0.6247 -0.2677
  194MOL0     C26093  -0.772   4.434   1.254 -0.5036 -0.5066  0.5488
  194MOL0     C26094  -0.915   4.415   1.286 -0.1118  0.0787  0.1863
  194MOL0     C26095  -1.001   4.428   1.160 -0.3612 -0.0972  0.0162
  194MOL0     C26096  -1.148   4.424   1.206  0.4974  0.0458 -0.8556
  194MOL0     C26097  -1.248   4.428   1.094 -0.0290  0.3924 -0.7831
  194MOL0     C26098  -1.395   4.431   1.142 -0.5312  0.3205 -0.3740
  194MOL0     C26099  -1.444   4.571   1.189 -0.0199 -1.0514  0.4828
  194MOL0    Cl26100  -1.608   4.568   1.252 -0.3527  0.5238  0.0097
  194MOL0     C26101  -0.336   4.400   1.299 -0.7568 -0.7392  0.0458
  194MOL0     C26102  -0.214   4.357   1.353  0.2938 -0.5014 -0.3671
  194MOL0     O26103  -0.011   4.150   1.202  0.1232  0.1067  0.1057
  194MOL0     C26104   0.167   4.084   1.506 -0.1013  0.8548  0.5761
  194MOL0     C26105   0.294   4.045   1.552  0.1369 -0.2100 -0.4491
  194MOL0     N26106   0.967   3.888   1.803 -0.1809  0.0182 -0.6481
  194MOL0     N26107   0.989   3.952   1.914 -0.6922  0.0485 -0.0670
  194MOL0     C26108   2.152   4.180   2.003  0.2895  0.1368  0.7693
  194MOL0     C26109   2.275   4.128   1.968  0.4061 -1.2429 -0.4996
  194MOL0     C26110   2.641   3.938   1.875  0.3571  0.2257 -0.0979
  194MOL0     C26111   2.731   3.987   1.782 -0.6192  0.5106  0.8206
  194MOL0     C26112   2.865   3.944   1.772  0.4542 -1.0918 -0.0975
  194MOL0     C26113   2.915   3.857   1.868 -0.0506  0.0610  0.1898
  194MOL0     O26114   3.043   3.818   1.848  0.2416  0.5405  0.3898
  194MOL0     C26115   3.068   3.681   1.800  0.0800 -0.8581  0.3287
  194MOL0     C26116   3.209   3.668   1.744  0.0793 -0.0343 -0.6642
  194MOL0     C26117   3.308   3.648   1.858 -0.1680 -0.5766  0.3445
  194MOL0     C26118   3.454   3.628   1.807 -1.2248  0.4248 -0.7085
  194MOL0     C26119   3.456   3.518   1.707  0.2771  0.2819  0.1640
  194MOL0     C26120   3.481   3.427   1.629 -0.9772 -0.0765  0.4400
  194MOL0     C26121   2.821   3.807   1.965 -0.0769 -0.4967 -0.3842
  194MOL0     C26122   2.693   3.851   1.972  0.0014  0.0926  0.8894
  194MOL0     H26123   2.199   3.805   2.000  3.3482  0.9798  1.3631
  194MOL0     H26124   1.963   3.931   2.069 -1.6875  3.9323 -0.2265
  194MOL0     H26125   1.974   4.285   2.222 -2.3077  1.7578  1.8783
  194MOL0     H26126   1.941   4.364   2.065 -0.2408  0.6498  0.6589
  194MOL0     H26127   1.726   4.262   2.236 -0.6784  0.0815 -0.0980
  194MOL0     H26128   1.786   4.431   2.230  1.7908 -0.5327  0.4892
  194MOL0     H26129   1.753   4.466   2.004 -0.2702 -0.7077  2.1878
  194MOL0     H26130   1.732   4.298   1.962 -0.1179 -1.1178  1.0263
  194MOL0     H26131   1.523   4.362   2.161 -1.8978 -1.3928 -1.1192
  194MOL0     H26132   1.536   4.496   2.044 -0.2088  0.1116  1.2811
  194MOL0     H26133   1.464   4.354   1.871  0.4851  0.4104  0.2625
  194MOL0     H26134   1.498   4.213   1.962 -0.8016  0.3847 -1.4128
  194MOL0     H26135   1.319   4.255   2.127 -0.5651 -0.9645 -0.8970
  194MOL0     H26136   1.266   4.395   2.047 -0.1120 -0.2980  0.7069
  194MOL0     H26137   1.222   4.259   1.829  0.0901 -2.8609 -1.5435
  194MOL0     H26138   1.288   4.113   1.924  0.6648  0.1726 -0.6163
  194MOL0     H26139   1.037   4.261   1.954  1.6602  0.5868 -0.7648
  194MOL0     H26140   1.100   4.138   2.070  4.6162 -2.8729 -0.4405
  194MOL0     H26141   1.096   4.163   1.687 -1.6118  0.7604 -0.3033
  194MOL0     H26142   1.084   3.949   1.517 -1.1513  0.5060 -1.7257
  194MOL0     H26143   0.988   3.812   1.564 -3.6047 -0.5155 -1.6270
  194MOL0     H26144   0.896   3.961   1.372  0.8340 -1.3821 -0.3562
  194MOL0     H26145   0.887   4.087   1.497  1.2205 -0.0781 -0.8799
  194MOL0     H26146   0.722   3.930   1.624  1.3525  1.9466  0.0157
  194MOL0     H26147   0.757   3.814   1.501  2.5954 -0.3316  1.8777
  194MOL0     H26148   0.617   3.929   1.342  1.5819 -1.3884  0.9949
  194MOL0     H26149   0.626   4.076   1.455  0.0162  0.2745  0.3816
  194MOL0     H26150   0.408   3.896   1.275  0.6537 -2.2306  2.2813
  194MOL0     H26151   0.088   3.940   1.122  0.3134 -0.3195 -1.1518
  194MOL0     H26152   0.217   4.054   1.062 -1.6790  1.7422  0.5540
  194MOL0     H26153   0.254   3.888   1.109 -0.8700 -0.0167 -0.3869
  194MOL0     H26154  -0.281   4.016   1.372  0.1664 -1.1136  0.6080
  194MOL0     H26155  -0.510   4.109   1.285 -0.6382  0.5565  1.2914
  194MOL0     H26156  -0.711   4.231   1.200  2.1926 -0.1835 -0.1062
  194MOL0     H26157  -0.674   4.285   1.366 -1.9345 -0.6088 -0.4216
  194MOL0     H26158  -0.742   4.500   1.337  0.6845 -2.7185  1.9683
  194MOL0     H26159  -0.750   4.492   1.164 -1.6062  1.0084  1.1997
  194MOL0     H26160  -0.944   4.493   1.357  0.5954 -1.7466  2.6441
  194MOL0     H26161  -0.945   4.317   1.326 -1.8479 -0.1541 -1.5154
  194MOL0     H26162  -0.969   4.520   1.111  3.7174 -0.6909  1.2557
  194MOL0     H26163  -0.965   4.360   1.082  3.0999  2.1521 -0.5406
  194MOL0     H26164  -1.170   4.504   1.278 -2.5336 -3.4356  2.5501
  194MOL0     H26165  -1.155   4.329   1.261  2.5831 -1.2386 -2.6336
  194MOL0     H26166  -1.223   4.518   1.036 -0.2068  0.4256 -0.8083
  194MOL0     H26167  -1.240   4.338   1.033 -2.4242 -0.3724 -0.0747
  194MOL0     H26168  -1.409   4.368   1.230 -2.1986 -2.9822 -2.7896
  194MOL0     H26169  -1.462   4.391   1.066 -1.3403 -1.3223  1.1284
  194MOL0     H26170  -1.444   4.633   1.098 -0.3249 -1.3132  0.3024
  194MOL0     H26171  -1.369   4.601   1.263  0.8977 -0.8686 -0.4962
  194MOL0     H26172  -0.349   4.505   1.277  0.5016 -0.6804 -0.4899
  194MOL0     H26173  -0.131   4.423   1.378 -2.8727  2.7925  2.5511
  194MOL0     H26174   0.100   4.118   1.584 -2.0950  1.5778 -1.3301
  194MOL0     H26175   0.314   4.050   1.659  0.6570 -1.3082 -0.4752
  194MOL0     H26176   2.134   4.287   1.999 -1.0818 -0.0857  0.1744
  194MOL0     H26177   2.353   4.196   1.936 -1.4126  0.5797 -1.3750
  194MOL0     H26178   2.716   4.063   1.706 -1.1076 -1.7371 -1.4629
  194MOL0     H26179   2.926   3.985   1.693 -0.1992  1.4263  0.6084
  194MOL0     H26180   3.050   3.600   1.872 -0.5530 -1.3472 -0.3633
  194MOL0     H26181   3.009   3.658   1.711  4.3470  1.1967 -3.4301
  194MOL0     H26182   3.231   3.758   1.686  2.3002 -0.3410 -0.3843
  194MOL0     H26183   3.201   3.586   1.672  1.2678  0.6874 -1.6484
  194MOL0     H26184   3.278   3.559   1.914 -1.5873 -1.3710 -1.5729
  194MOL0     H26185   3.312   3.734   1.925 -0.2242 -1.0592  0.9867
  194MOL0     H26186   3.528   3.605   1.884  1.8529 -0.0097 -3.5375
  194MOL0     H26187   3.486   3.724   1.764 -4.4769  0.5451 -3.3320
  194MOL0     H26188   3.495   3.343   1.563 -0.0247 -0.0707  0.6188
  194MOL0     H26189   2.860   3.746   2.046 -1.6104 -0.1052  0.6952
  194MOL0     H26190   2.622   3.813   2.045 -3.1565  0.3107 -1.8147
  195MOL0     O26191  10.540  11.113   6.437  0.4823  0.1363  0.0782
  195MOL0     C26192  10.583  11.060   6.333 -0.1033  0.1326  0.1076
  195MOL0     O26193  10.505  11.026   6.224  0.0947  0.1089  1.0414
  195MOL0     C26194  10.373  11.067   6.231 -0.6249  0.0947 -0.1694
  195MOL0     C26195  10.281  11.016   6.323 -0.1276  0.2039 -1.6386
  195MOL0     C26196  10.147  11.045   6.320  0.0476 -0.8029 -0.5118
  195MOL0     C26197  10.084  11.134   6.235 -1.1022  0.0465 -0.8539
  195MOL0     O26198   9.957  11.165   6.268  0.2979 -0.5085  0.0426
  195MOL0     C26199   9.912  11.293   6.231 -0.8890 -0.3438 -0.2413
  195MOL0     C26200   9.781  11.336   6.282  0.3676 -0.2780  0.0658
  195MOL0     C26201   9.662  11.290   6.194  0.0662 -0.0640  0.4015
  195MOL0     C26202   9.655  11.131   6.183  0.0274 -0.2098  0.2497
  195MOL0     C26203   9.515  11.098   6.144  0.0882  0.2629 -0.5392
  195MOL0     C26204   9.470  11.163   6.006 -0.2453 -0.5247  0.3957
  195MOL0     C26205   9.362  11.079   5.936 -0.2073 -0.2544 -0.4630
  195MOL0     C26206   9.222  11.089   6.012 -0.0522  0.3245 -0.1405
  195MOL0     N26207   9.162  11.219   5.980  0.0758  0.4490  0.8806
  195MOL0     C26208   9.130  11.256   5.855  0.1071 -0.4116  0.3941
  195MOL0     C26209   9.112  11.389   5.862 -0.4804 -0.5499 -0.1245
  195MOL0     C26210   9.063  11.494   5.769  0.1785  0.3385  0.0906
  195MOL0     C26211   8.930  11.541   5.804 -0.6367 -0.4406 -0.3075
  195MOL0     C26212   8.881  11.628   5.690  0.6111  0.6282  0.5340
  195MOL0     C26213   8.733  11.633   5.692 -0.0795  0.4775 -0.0946
  195MOL0     O26214   8.687  11.723   5.795  0.3880  0.6156 -0.4151
  195MOL0     C26215   8.555  11.736   5.833 -0.5406  0.3559  0.4742
  195MOL0     C26216   8.452  11.669   5.763 -0.3144 -0.5070  1.1270
  195MOL0     C26217   8.323  11.671   5.815  0.3129 -0.1143  0.7348
  195MOL0     C26218   8.232  11.590   5.722 -1.3374 -0.2849  0.0815
  195MOL0     C26219   8.284  11.745   5.923 -0.2611 -0.5899  0.4920
  195MOL0     C26220   8.144  11.747   5.981 -0.2305 -0.0142 -0.4995
  195MOL0     O26221   8.038  11.708   5.905  0.3203  0.2127 -1.0197
  195MOL0     C26222   7.911  11.728   5.961  0.0290 -0.0505  0.7358
  195MOL0     C26223   7.822  11.618   5.982 -0.3375 -0.2028  0.1837
  195MOL0     C26224   7.689  11.641   6.034  0.2994  1.3618  0.7881
  195MOL0     C26225   7.641  11.767   6.062 -0.0387  0.2791 -0.0276
  195MOL0     O26226   7.511  11.778   6.108 -0.3998 -0.7511  0.1809
  195MOL0     C26227   7.457  11.903   6.146  0.0889  0.0308  0.4797
  195MOL0     C26228   7.317  11.874   6.210  0.1689 -0.4259  0.6709
  195MOL0     C26229   7.251  12.000   6.281 -1.3658 -0.3290 -0.5765
  195MOL0     C26230   7.256  12.130   6.200 -0.0968  0.1740  0.1434
  195MOL0     C26231   7.135  12.216   6.234 -0.0943  0.7290 -0.3496
  195MOL0     C26232   7.010  12.186   6.147  0.1725 -0.2580 -0.3596
  195MOL0     C26233   6.885  12.264   6.198  0.2223 -0.5279 -0.0109
  195MOL0     C26234   6.788  12.287   6.085  1.3631 -0.0488 -0.5747
  195MOL0    Cl26235   6.710  12.129   6.026 -0.1669 -0.3043  0.0911
  195MOL0     C26236   7.733  11.874   6.032 -0.1543  0.2064 -0.3085
  195MOL0     C26237   7.870  11.858   5.988 -0.3497  0.6589  1.1043
  195MOL0     O26238   8.137  11.779   6.104 -0.7395 -0.3098  0.2445
  195MOL0     C26239   8.396  11.805   5.994  0.3127 -0.1125  0.6807
  195MOL0     C26240   8.533  11.791   5.958 -0.6766  0.0692  0.1882
  195MOL0     N26241   9.140  11.437   5.987  0.3637  0.2954  0.0832
  195MOL0     N26242   9.158  11.328   6.061 -0.0312 -0.9069 -0.0134
  195MOL0     C26243  10.178  11.197   6.148  0.3060 -0.3219 -0.1463
  195MOL0     C26244  10.322  11.163   6.139 -0.0808  0.2403  0.2048
  195MOL0     C26245  10.719  11.012   6.339 -0.6169  0.9356 -0.3935
  195MOL0     C26246  10.798  10.991   6.226 -0.0969  1.5525  0.0840
  195MOL0     C26247  10.930  10.943   6.235  0.6739 -0.1889  0.0640
  195MOL0     C26248  10.986  10.919   6.363  0.7075  0.0769  0.2210
  195MOL0     O26249  11.106  10.863   6.387  0.4205  0.4699 -0.2311
  195MOL0     C26250  11.190  10.834   6.271  0.8100 -0.5571 -0.6135
  195MOL0     C26251  11.337  10.780   6.289  1.1115 -0.6358 -0.3215
  195MOL0     C26252  11.415  10.869   6.388  1.1403  0.6659 -0.0164
  195MOL0     C26253  11.492  10.984   6.319 -0.0561  0.2222  0.1302
  195MOL0     C26254  11.624  10.938   6.266  0.5314  0.3784 -0.3697
  195MOL0     C26255  11.733  10.912   6.212  1.2552  0.0964  0.1001
  195MOL0     C26256  10.909  10.946   6.474 -0.3615 -0.5907  0.1592
  195MOL0     C26257  10.779  10.987   6.467 -1.4562 -0.7387 -0.0174
  195MOL0     H26258  10.321  10.950   6.400  0.7615  0.3977 -1.9237
  195MOL0     H26259  10.088  11.007   6.402  0.7554  0.6455  0.7162
  195MOL0     H26260   9.990  11.360   6.269 -0.7055 -1.8208  2.1814
  195MOL0     H26261   9.898  11.313   6.124 -0.7732 -0.5374 -0.2925
  195MOL0     H26262   9.774  11.293   6.382  0.7511 -0.8845 -0.1663
  195MOL0     H26263   9.788  11.444   6.296  0.8502 -0.4301  1.0775
  195MOL0     H26264   9.568  11.317   6.242  0.4772  0.0003  1.1914
  195MOL0     H26265   9.677  11.326   6.091 -1.7050  2.2022  0.8541
  195MOL0     H26266   9.730  11.114   6.105  1.4274  0.4734  1.3905
  195MOL0     H26267   9.695  11.083   6.273 -0.7538 -3.6662 -1.0908
  195MOL0     H26268   9.506  10.990   6.127 -3.9555  0.6589 -2.0092
  195MOL0     H26269   9.451  11.126   6.228  1.4559 -0.0637  0.6517
  195MOL0     H26270   9.426  11.263   6.012  1.5253  0.2244  1.8982
  195MOL0     H26271   9.560  11.173   5.945  0.7017 -1.1845  1.6405
  195MOL0     H26272   9.360  11.098   5.828  2.3831 -0.8535 -0.6933
  195MOL0     H26273   9.385  10.974   5.956 -1.3735  0.0036  2.8576
  195MOL0     H26274   9.233  11.062   6.118 -1.1747 -1.5015 -0.4445
  195MOL0     H26275   9.151  11.016   5.970  0.4609  0.5452 -1.4421
  195MOL0     H26276   9.128  11.199   5.763 -1.7505 -0.4844  0.4452
  195MOL0     H26277   9.136  11.575   5.755 -1.0053  1.0631 -2.3318
  195MOL0     H26278   9.058  11.447   5.671  0.1190  0.4611  0.0341
  195MOL0     H26279   8.941  11.588   5.902 -0.7447  0.2362 -0.6163
  195MOL0     H26280   8.864  11.454   5.809 -0.9023 -0.1617  1.4626
  195MOL0     H26281   8.895  11.573   5.597 -2.4524 -2.7946  1.8328
  195MOL0     H26282   8.927  11.727   5.692 -0.2574  1.0405  0.6099
  195MOL0     H26283   8.682  11.538   5.712  1.8368 -0.2940  1.4262
  195MOL0     H26284   8.687  11.666   5.599 -0.4090  1.5447  0.4305
  195MOL0     H26285   8.477  11.626   5.666 -2.5853  3.1724 -1.3436
  195MOL0     H26286   8.160  11.524   5.771 -1.1128  1.1354  2.4773
  195MOL0     H26287   8.169  11.663   5.670 -0.8486  0.3227  0.3270
  195MOL0     H26288   8.287  11.519   5.659 -1.3667 -1.0261  0.8748
  195MOL0     H26289   7.848  11.518   5.950  0.3485  0.0151  0.0489
  195MOL0     H26290   7.623  11.555   6.042  0.9291  0.9314  1.5918
  195MOL0     H26291   7.518  11.962   6.214  2.0429 -1.8464  0.4724
  195MOL0     H26292   7.449  11.961   6.053  1.8214  3.4093  2.2650
  195MOL0     H26293   7.267  11.839   6.120 -0.7869 -0.3067  1.1457
  195MOL0     H26294   7.327  11.802   6.292 -3.2621 -0.0823  1.5096
  195MOL0     H26295   7.307  12.015   6.374 -5.0954  0.8692  1.6802
  195MOL0     H26296   7.151  11.966   6.308  0.3918 -2.0884  5.2247
  195MOL0     H26297   7.348  12.187   6.217  1.3783 -2.0189 -0.0744
  195MOL0     H26298   7.246  12.101   6.095  1.3983  0.2987 -0.0480
  195MOL0     H26299   7.149  12.323   6.215  1.5171  0.9542  1.7757
  195MOL0     H26300   7.119  12.195   6.340  1.0370 -2.1115 -0.6645
  195MOL0     H26301   7.024  12.216   6.043 -2.5817 -1.6499 -1.2324
  195MOL0     H26302   6.988  12.080   6.167 -0.9642  0.1419  0.6324
  195MOL0     H26303   6.907  12.367   6.230  4.5052 -1.4850  0.6806
  195MOL0     H26304   6.852  12.206   6.284  1.5182 -0.4228  0.5716
  195MOL0     H26305   6.835  12.350   6.009 -0.8619  0.2329 -1.7972
  195MOL0     H26306   6.703  12.349   6.117  2.6457  0.7644  1.4785
  195MOL0     H26307   7.712  11.976   6.063  1.8615  0.7400 -0.5293
  195MOL0     H26308   7.940  11.941   5.981  2.8859 -1.9074  1.1012
  195MOL0     H26309   8.377  11.851   6.091 -0.9779  2.0063 -0.5240
  195MOL0     H26310   8.620  11.839   6.002 -2.1293  4.0178 -0.7622
  195MOL0     H26311  10.138  11.271   6.079  1.2607 -1.1503 -1.6173
  195MOL0     H26312  10.395  11.213   6.076  1.0627  2.4494  3.0523
  195MOL0     H26313  10.757  11.013   6.128  0.4430 -1.1950 -0.8345
  195MOL0     H26314  10.990  10.924   6.147  1.3373 -0.4482  0.5652
  195MOL0     H26315  11.136  10.760   6.211 -1.5739  0.0344  0.6451
  195MOL0     H26316  11.206  10.927   6.216 -0.4210  0.7096  1.0416
  195MOL0     H26317  11.379  10.785   6.188  1.3159  2.7047 -0.1819
  195MOL0     H26318  11.337  10.673   6.312 -0.6513 -0.9085 -1.3877
  195MOL0     H26319  11.484  10.809   6.449 -3.1509 -3.4254  1.4233
  195MOL0     H26320  11.345  10.911   6.462  1.9915 -0.9939  1.8181
  195MOL0     H26321  11.523  11.071   6.379  3.5829 -0.6807 -0.1930
  195MOL0     H26322  11.426  11.022   6.240 -0.5410  0.6643  0.7321
  195MOL0     H26323  11.829  10.885   6.174  1.7704  0.5866  1.0002
  195MOL0     H26324  10.964  10.937   6.568  2.2532  0.8478 -1.1120
  195MOL0     H26325  10.735  11.019   6.561  1.2770  2.0736  0.4982
  196MOL0     O26326   9.402   1.002   1.977  0.4408 -0.0607 -0.1420
  196MOL0     C26327   9.417   0.922   2.067  0.0139  0.1640  0.4031
  196MOL0     O26328   9.321   0.839   2.120  0.4498  0.0392 -0.0177
  196MOL0     C26329   9.190   0.873   2.091  0.8035  0.8585 -0.8184
  196MOL0     C26330   9.137   0.895   1.960 -0.0824  0.2556  0.6406
  196MOL0     C26331   8.996   0.883   1.930  0.3623 -0.9458 -1.1933
  196MOL0     C26332   8.899   0.891   2.032  0.5399  0.0627 -0.2910
  196MOL0     O26333   8.761   0.876   2.021  0.2078  0.0800  0.0604
  196MOL0     C26334   8.709   0.821   1.891  0.2463  0.2486 -0.3460
  196MOL0     C26335   8.558   0.795   1.890  0.3559 -0.6954 -0.2890
  196MOL0     C26336   8.506   0.681   1.986 -0.6607 -0.3773  0.4985
  196MOL0     C26337   8.373   0.642   1.935  1.1908 -0.1505 -0.3936
  196MOL0     C26338   8.279   0.601   2.047  0.3785  0.1214 -0.7877
  196MOL0     C26339   8.128   0.576   2.001 -0.1403 -0.1594  0.1588
  196MOL0     C26340   8.118   0.493   1.875 -0.3608  0.2825  0.1582
  196MOL0     C26341   7.976   0.450   1.857  0.2204 -0.2097  0.5053
  196MOL0     N26342   7.923   0.354   1.960 -0.5104 -0.0827 -0.0490
  196MOL0     C26343   7.956   0.220   1.996 -0.2996  0.1985 -0.9068
  196MOL0     C26344   7.892   0.196   2.113  0.0431 -0.1399  0.3981
  196MOL0     C26345   7.905   0.067   2.186  0.7487  0.1180  0.0480
  196MOL0     C26346   7.851   0.075   2.329  0.7247 -0.5425 -0.3888
  196MOL0     C26347   7.905  -0.040   2.406 -0.2555  0.7341 -0.3822
  196MOL0     C26348   7.799  -0.103   2.508  0.4851  0.4982  0.9469
  196MOL0     O26349   7.741   0.006   2.578  0.0210 -0.0052  0.0427
  196MOL0     C26350   7.606   0.002   2.599 -0.8289  0.6606 -0.2032
  196MOL0     C26351   7.539  -0.115   2.629 -0.7895 -0.2823  0.0062
  196MOL0     C26352   7.394  -0.125   2.618 -0.3957 -0.2561 -0.5816
  196MOL0     C26353   7.326  -0.246   2.655  0.1959  0.5712  0.6051
  196MOL0     C26354   7.327  -0.004   2.588  0.0524  0.5576  0.6103
  196MOL0     C26355   7.179   0.017   2.582 -0.1843  0.0008  0.4404
  196MOL0     O26356   7.119   0.133   2.628 -0.3865  0.5030  0.0529
  196MOL0     C26357   6.984   0.133   2.610  0.1154 -0.3857 -0.9387
  196MOL0     C26358   6.888   0.074   2.692 -0.6018  0.2747 -0.1594
  196MOL0     C26359   6.751   0.086   2.658  0.1951 -0.0923 -0.4597
  196MOL0     C26360   6.708   0.159   2.547 -0.1554 -0.4210 -0.2401
  196MOL0     O26361   6.577   0.149   2.518 -0.1558  0.5880 -0.5672
  196MOL0     C26362   6.550   0.184   2.386 -0.0651 -0.4436  0.3539
  196MOL0     C26363   6.403   0.155   2.360  0.0379 -0.3194 -0.2198
  196MOL0     C26364   6.351   0.240   2.245  0.0062  0.2088 -0.6469
  196MOL0     C26365   6.208   0.200   2.201 -0.0065  0.4917 -0.5744
  196MOL0     C26366   6.178   0.268   2.060  0.0385  0.3139 -0.0814
  196MOL0     C26367   6.044   0.224   2.012  0.5471 -0.7083 -0.7682
  196MOL0     C26368   6.011   0.269   1.868  0.3640  0.0630 -0.6892
  196MOL0     C26369   5.875   0.219   1.816 -0.6275 -0.0508  0.4304
  196MOL0    Cl26370   5.736   0.287   1.896  0.2803 -0.0618  0.1841
  196MOL0     C26371   6.812   0.220   2.466  0.4973  1.1664 -0.4727
  196MOL0     C26372   6.944   0.213   2.501 -0.1027 -0.5143  0.1263
  196MOL0     O26373   7.118  -0.075   2.536  0.3746 -0.8110 -0.5362
  196MOL0     C26374   7.401   0.112   2.573  0.2695  0.2341  0.0777
  196MOL0     C26375   7.540   0.114   2.570 -0.1399 -0.0669 -0.2220
  196MOL0     N26376   7.821   0.311   2.146 -0.0491 -0.5381 -0.2329
  196MOL0     N26377   7.846   0.408   2.055  0.5074  0.2205  0.6658
  196MOL0     C26378   8.948   0.878   2.161 -0.5387 -0.0346  0.1981
  196MOL0     C26379   9.091   0.866   2.190  0.5704 -0.3330  0.0384
  196MOL0     C26380   9.547   0.912   2.126  0.9254 -0.5186 -0.8531
  196MOL0     C26381   9.559   0.863   2.254  0.1987  0.0000  0.2029
  196MOL0     C26382   9.690   0.847   2.307 -0.0684 -0.5963 -0.6528
  196MOL0     C26383   9.809   0.898   2.246 -0.3374  0.0614 -0.2660
  196MOL0     O26384   9.938   0.864   2.297 -0.4324 -0.3958  0.9310
  196MOL0     C26385   9.936   0.796   2.425 -0.2146 -0.2956  0.1683
  196MOL0     C26386  10.090   0.775   2.458 -0.1476  0.0136  0.2726
  196MOL0     C26387  10.171   0.892   2.512 -0.3872 -0.1810  0.1439
  196MOL0     C26388  10.323   0.877   2.514 -0.8257 -0.8133 -0.2607
  196MOL0     C26389  10.360   0.765   2.593 -0.0935 -0.5905  0.1163
  196MOL0     C26390  10.404   0.670   2.643 -0.1580  0.3304 -0.9991
  196MOL0     C26391   9.794   0.962   2.125 -0.1300 -0.2989 -0.9945
  196MOL0     C26392   9.671   0.967   2.062  0.1046 -0.4226  0.2548
  196MOL0     H26393   9.206   0.896   1.876 -0.8514  2.2426 -0.0126
  196MOL0     H26394   8.957   0.880   1.829 -0.1005 -0.7138 -1.0208
  196MOL0     H26395   8.728   0.898   1.816 -0.2207  0.8054  0.0966
  196MOL0     H26396   8.755   0.725   1.866 -0.3911 -0.1792  0.0871
  196MOL0     H26397   8.504   0.889   1.902  2.7827  0.8301 -0.6828
  196MOL0     H26398   8.537   0.770   1.786  2.6847  0.2672 -1.0609
  196MOL0     H26399   8.575   0.596   1.994  2.7311  2.3011  2.7035
  196MOL0     H26400   8.509   0.728   2.085  0.7639 -2.6100  1.6083
  196MOL0     H26401   8.332   0.738   1.901  0.0579  0.3169  2.0479
  196MOL0     H26402   8.383   0.560   1.863 -0.1596 -0.2927 -0.4497
  196MOL0     H26403   8.321   0.514   2.099  0.6613  1.3440  1.1005
  196MOL0     H26404   8.280   0.679   2.123 -0.5863  1.5938 -2.2176
  196MOL0     H26405   8.069   0.525   2.078  0.7817 -3.1086 -0.9236
  196MOL0     H26406   8.083   0.669   1.967 -0.3435 -1.3917 -3.3855
  196MOL0     H26407   8.135   0.553   1.785 -3.2709  0.2718 -0.4823
  196MOL0     H26408   8.182   0.404   1.875 -0.3247  0.3090  0.3157
  196MOL0     H26409   7.969   0.398   1.761  3.2954  0.7445 -0.3624
  196MOL0     H26410   7.913   0.539   1.858 -1.8153 -1.4874 -1.9322
  196MOL0     H26411   8.020   0.149   1.945  1.3332 -0.3633  1.6975
  196MOL0     H26412   7.852  -0.013   2.133  3.0708 -1.6215  0.2130
  196MOL0     H26413   8.011   0.042   2.196  0.5953 -0.7533 -0.3388
  196MOL0     H26414   7.742   0.079   2.328  0.6057 -2.0377 -3.2385
  196MOL0     H26415   7.890   0.160   2.387  0.8323 -0.9833  0.1889
  196MOL0     H26416   7.995  -0.017   2.464 -0.3389 -2.6952  1.4121
  196MOL0     H26417   7.933  -0.123   2.340 -1.0418 -1.5331  1.9687
  196MOL0     H26418   7.839  -0.170   2.585 -1.8487  1.4747  3.1400
  196MOL0     H26419   7.730  -0.170   2.457 -0.4243  2.0629  0.0454
  196MOL0     H26420   7.610  -0.190   2.661  0.6941  0.2236 -1.9141
  196MOL0     H26421   7.338  -0.314   2.570  1.5412 -0.4234  1.5540
  196MOL0     H26422   7.371  -0.281   2.748  0.5714  1.0866  0.6234
  196MOL0     H26423   7.221  -0.234   2.684 -1.2660  1.9434 -4.3266
  196MOL0     H26424   6.909   0.023   2.785 -1.1121 -0.2225 -0.3091
  196MOL0     H26425   6.675   0.046   2.724 -0.1125  3.0706  1.3358
  196MOL0     H26426   6.573   0.289   2.367  1.3305 -0.7482  0.2769
  196MOL0     H26427   6.615   0.133   2.314  3.6836  1.0518  2.4373
  196MOL0     H26428   6.394   0.049   2.333 -3.6088 -0.7562  1.9947
  196MOL0     H26429   6.346   0.168   2.452 -0.7656  2.3256 -0.9975
  196MOL0     H26430   6.424   0.227   2.164  2.2689  1.0182  1.1690
  196MOL0     H26431   6.359   0.345   2.274  0.6399  0.4880 -1.7747
  196MOL0     H26432   6.201   0.092   2.187 -1.4282  0.6436 -1.2352
  196MOL0     H26433   6.133   0.241   2.270  1.5961  3.9926 -0.6716
  196MOL0     H26434   6.257   0.240   1.989  1.3946  0.8522  1.1512
  196MOL0     H26435   6.169   0.376   2.074  0.9895  0.2295  1.4769
  196MOL0     H26436   6.026   0.121   2.042 -4.1370  0.1686  0.2863
  196MOL0     H26437   5.976   0.282   2.076  1.5726 -0.6479  0.3039
  196MOL0     H26438   6.085   0.225   1.801 -0.5082 -1.1858 -0.8620
  196MOL0     H26439   6.021   0.376   1.849 -0.1159  0.2116 -0.1243
  196MOL0     H26440   5.883   0.110   1.827  0.2707 -0.3436 -2.2841
  196MOL0     H26441   5.861   0.236   1.709 -0.5985  0.0608  0.4444
  196MOL0     H26442   6.779   0.280   2.382 -1.1257 -2.6940 -2.8780
  196MOL0     H26443   7.022   0.275   2.459  0.1948 -1.3029 -0.5070
  196MOL0     H26444   7.349   0.204   2.549  0.6676  1.0051  1.9686
  196MOL0     H26445   7.597   0.201   2.537  1.1714 -1.3414 -1.4872
  196MOL0     H26446   8.884   0.871   2.248 -0.9768 -0.2477 -0.1427
  196MOL0     H26447   9.125   0.854   2.293 -0.5038  1.5840  0.6697
  196MOL0     H26448   9.475   0.818   2.306 -0.4267  0.8045 -0.0812
  196MOL0     H26449   9.693   0.809   2.409  3.2622 -1.7650 -1.0728
  196MOL0     H26450   9.892   0.862   2.501  1.6980  1.7031 -0.3435
  196MOL0     H26451   9.890   0.699   2.407  0.8854 -0.6963 -0.6313
  196MOL0     H26452  10.152   0.732   2.378 -0.9432  0.5604 -0.6534
  196MOL0     H26453  10.088   0.701   2.538 -0.9754  1.5205  1.6993
  196MOL0     H26454  10.144   0.908   2.617  1.2833 -1.3928  0.7975
  196MOL0     H26455  10.149   0.985   2.459  1.8212  2.1911  3.0766
  196MOL0     H26456  10.381   0.962   2.550 -1.3516 -1.0721  1.2945
  196MOL0     H26457  10.359   0.856   2.413 -0.3130 -0.7467 -0.0944
  196MOL0     H26458  10.442   0.586   2.698 -1.3616  1.9003  2.4629
  196MOL0     H26459   9.873   1.017   2.075  1.4953  0.6122  2.3471
  196MOL0     H26460   9.662   1.012   1.964  3.0914 -2.9612 -1.3967
  197MOL0     O26461   0.303   3.265   8.237  0.8138  0.1142 -0.5372
  197MOL0     C26462   0.281   3.287   8.120  1.0328 -0.7207  0.2601
  197MOL0     O26463   0.188   3.220   8.041 -0.2179 -0.2179 -0.0546
  197MOL0     C26464   0.071   3.166   8.104 -0.0384 -0.3474  1.2513
  197MOL0     C26465   0.082   3.078   8.209 -0.5734  0.0180 -1.0992
  197MOL0     C26466  -0.031   3.020   8.264  0.2208  0.1268 -0.5946
  197MOL0     C26467  -0.157   3.054   8.223  1.3574  0.5688 -0.3763
  197MOL0     O26468  -0.265   2.990   8.281  0.4352  0.4498  0.2577
  197MOL0     C26469  -0.400   3.040   8.251 -0.1966 -0.4879 -0.6230
  197MOL0     C26470  -0.493   2.957   8.336  0.5439  0.5075  0.6060
  197MOL0     C26471  -0.639   2.981   8.306 -0.0314  0.6194  0.0496
  197MOL0     C26472  -0.672   2.990   8.153  0.3740  0.4658  0.2057
  197MOL0     C26473  -0.824   2.945   8.127 -1.2529 -0.1358 -0.4119
  197MOL0     C26474  -0.886   2.995   7.991  0.1388 -0.7943 -0.1405
  197MOL0     C26475  -1.038   2.964   7.965 -0.4439  0.2175 -0.0355
  197MOL0     C26476  -1.064   2.979   7.809  0.0091 -0.5580 -0.2807
  197MOL0     N26477  -1.174   2.895   7.756 -0.1057 -0.3311  0.5570
  197MOL0     C26478  -1.303   2.910   7.809  0.0851 -0.2808  0.3413
  197MOL0     C26479  -1.361   2.790   7.778 -0.3834 -0.3170  0.6842
  197MOL0     C26480  -1.500   2.740   7.830 -0.9103  1.0911 -0.2089
  197MOL0     C26481  -1.604   2.755   7.727  0.1757  0.4852 -0.1284
  197MOL0     C26482  -1.589   2.654   7.609  0.8452 -0.2582  0.1078
  197MOL0     C26483  -1.571   2.508   7.635  0.7384  0.1577  0.0174
  197MOL0     O26484  -1.665   2.456   7.731 -0.3625 -0.6138  0.9734
  197MOL0     C26485  -1.795   2.438   7.683 -0.1084 -0.3931 -0.6819
  197MOL0     C26486  -1.897   2.431   7.777  0.8450 -0.4888 -0.4468
  197MOL0     C26487  -2.032   2.426   7.748 -0.8389 -0.7825 -0.1679
  197MOL0     C26488  -2.124   2.425   7.865 -0.5468 -0.3154 -0.4697
  197MOL0     C26489  -2.076   2.430   7.614  0.5472  0.5132 -0.2224
  197MOL0     C26490  -2.217   2.443   7.554 -1.3038 -0.4359 -0.1006
  197MOL0     O26491  -2.320   2.459   7.636 -0.1418  0.3407  0.0139
  197MOL0     C26492  -2.456   2.460   7.607 -1.0310  0.4743 -0.0274
  197MOL0     C26493  -2.515   2.476   7.484  0.0223  1.0494  0.5896
  197MOL0     C26494  -2.655   2.472   7.467 -0.2099  1.0799  0.7320
  197MOL0     C26495  -2.744   2.451   7.571  0.5436  0.0817 -0.1096
  197MOL0     O26496  -2.876   2.440   7.537  0.4703 -0.4560 -0.5854
  197MOL0     C26497  -2.983   2.446   7.637 -0.0634  0.0826 -0.2122
  197MOL0     C26498  -3.105   2.420   7.556  0.1566 -0.4154 -0.7148
  197MOL0     C26499  -3.233   2.420   7.646  0.7829  0.6574 -0.0028
  197MOL0     C26500  -3.356   2.435   7.549  0.5436  0.7541 -0.2313
  197MOL0     C26501  -3.487   2.452   7.631 -0.6710  0.0869  0.6634
  197MOL0     C26502  -3.599   2.501   7.531  0.0666  0.8857  0.2801
  197MOL0     C26503  -3.712   2.567   7.598 -0.7448  0.1997  0.5354
  197MOL0     C26504  -3.826   2.604   7.507 -0.0454 -0.3812  0.3802
  197MOL0    Cl26505  -3.964   2.679   7.594  0.2731  0.0125 -0.2403
  197MOL0     C26506  -2.682   2.455   7.695  0.8863 -0.6635  0.2551
  197MOL0     C26507  -2.545   2.452   7.713 -0.1038 -0.8663 -0.0988
  197MOL0     O26508  -2.234   2.411   7.434 -0.3942 -0.1887 -0.5885
  197MOL0     C26509  -1.971   2.424   7.514  0.2787  0.1210 -0.0225
  197MOL0     C26510  -1.835   2.430   7.548  0.4984 -0.4999  1.4386
  197MOL0     N26511  -1.270   2.704   7.718 -0.4325 -0.9199  0.2874
  197MOL0     N26512  -1.155   2.769   7.710 -0.1840 -0.8562 -0.4396
  197MOL0     C26513  -0.169   3.145   8.120  0.4448 -0.6087  0.2056
  197MOL0     C26514  -0.056   3.199   8.059  0.3159  0.1339  0.0997
  197MOL0     C26515   0.381   3.375   8.045  0.4422 -0.0233  0.3459
  197MOL0     C26516   0.391   3.391   7.902 -0.3369  0.8635  0.0318
  197MOL0     C26517   0.485   3.471   7.837  0.1152  1.0382 -0.6132
  197MOL0     C26518   0.581   3.548   7.919 -0.6026  0.9082 -0.8668
  197MOL0     O26519   0.683   3.622   7.868  0.7806 -0.0661  0.8155
  197MOL0     C26520   0.708   3.595   7.723  0.5655 -0.2142 -0.3345
  197MOL0     C26521   0.844   3.646   7.669  0.4248 -0.9445  0.0117
  197MOL0     C26522   0.863   3.612   7.519 -0.6087 -0.1611  0.7121
  197MOL0     C26523   0.769   3.692   7.430  0.5505  0.3021 -0.0556
  197MOL0     C26524   0.812   3.683   7.286 -0.6279 -0.4547  0.8893
  197MOL0     C26525   0.862   3.682   7.173 -0.5675  0.4962  0.5998
  197MOL0     C26526   0.582   3.518   8.058 -0.4119  0.5397  0.0568
  197MOL0     C26527   0.485   3.440   8.117  0.3951  1.1628 -0.6068
  197MOL0     H26528   0.179   3.050   8.250 -0.2241  0.6139 -1.5035
  197MOL0     H26529  -0.021   2.949   8.346  0.2839 -2.7267 -2.8802
  197MOL0     H26530  -0.398   3.145   8.281  1.1704 -0.1257 -1.8530
  197MOL0     H26531  -0.440   3.025   8.151 -1.0968  1.0486 -0.5265
  197MOL0     H26532  -0.483   2.855   8.299 -4.7423  0.3342 -1.2435
  197MOL0     H26533  -0.470   2.949   8.443 -1.6207 -1.6741  1.0067
  197MOL0     H26534  -0.691   2.895   8.349 -1.2650  0.4761 -1.6383
  197MOL0     H26535  -0.666   3.075   8.356 -1.2388  0.6549 -0.6411
  197MOL0     H26536  -0.656   3.093   8.121 -0.4531  0.3598 -0.5867
  197MOL0     H26537  -0.611   2.930   8.085  1.7383  2.1132 -0.0728
  197MOL0     H26538  -0.818   2.836   8.133 -0.8935 -0.1725 -1.2136
  197MOL0     H26539  -0.885   2.981   8.210  2.2195  0.2395  2.2030
  197MOL0     H26540  -0.865   3.103   7.991  1.3635 -1.0124 -1.1309
  197MOL0     H26541  -0.832   2.942   7.913  1.9341 -0.3595  0.7552
  197MOL0     H26542  -1.047   2.861   8.001  0.9756 -0.8023 -2.4106
  197MOL0     H26543  -1.107   3.033   8.014  0.8931  1.7605 -0.2483
  197MOL0     H26544  -0.970   2.956   7.759  0.7485  1.2329  0.2074
  197MOL0     H26545  -1.095   3.081   7.785 -2.8354 -1.4909 -0.9966
  197MOL0     H26546  -1.350   2.987   7.870  0.0331  2.1895 -2.5991
  197MOL0     H26547  -1.493   2.635   7.863 -1.8569  1.1459  0.2049
  197MOL0     H26548  -1.542   2.800   7.911 -1.5483 -1.0880  1.1631
  197MOL0     H26549  -1.602   2.856   7.685 -1.2310 -0.1240 -1.7931
  197MOL0     H26550  -1.699   2.732   7.775  1.0626 -1.6687  0.7349
  197MOL0     H26551  -1.509   2.683   7.541  0.2201 -1.2455 -1.0849
  197MOL0     H26552  -1.678   2.664   7.546  0.9416 -1.6640 -0.2729
  197MOL0     H26553  -1.472   2.490   7.679  0.3745 -0.7133  0.4929
  197MOL0     H26554  -1.580   2.459   7.538 -3.1352 -0.2523  0.4458
  197MOL0     H26555  -1.873   2.444   7.882 -2.4700 -0.8918  0.4864
  197MOL0     H26556  -2.197   2.347   7.840 -2.8753  2.6096 -3.6577
  197MOL0     H26557  -2.077   2.407   7.962  0.4289  1.2475 -0.6254
  197MOL0     H26558  -2.174   2.522   7.872 -0.6914 -0.4358  0.2039
  197MOL0     H26559  -2.452   2.514   7.405 -0.0998  0.5088  0.2295
  197MOL0     H26560  -2.690   2.483   7.365  1.2423  1.1619  0.2095
  197MOL0     H26561  -2.974   2.363   7.708 -1.9045 -0.2120 -0.2587
  197MOL0     H26562  -2.990   2.544   7.685  2.3459  0.9226 -1.4342
  197MOL0     H26563  -3.118   2.501   7.484  4.2847  0.1221 -1.0521
  197MOL0     H26564  -3.093   2.326   7.502 -1.9551  0.3211 -2.5878
  197MOL0     H26565  -3.228   2.500   7.720 -0.0472  0.2819  0.4681
  197MOL0     H26566  -3.254   2.324   7.694 -3.8042 -0.5154 -3.5597
  197MOL0     H26567  -3.351   2.526   7.488 -2.7607  0.4125 -1.2023
  197MOL0     H26568  -3.363   2.343   7.490  0.9537  0.4978  0.1205
  197MOL0     H26569  -3.459   2.534   7.698  1.0785 -0.8062  1.0930
  197MOL0     H26570  -3.513   2.361   7.685 -0.9856  0.0544  0.4567
  197MOL0     H26571  -3.549   2.577   7.470 -0.4570 -1.1449 -2.8994
  197MOL0     H26572  -3.617   2.418   7.462  1.3499 -0.1004  1.0666
  197MOL0     H26573  -3.668   2.650   7.654  0.5412 -0.8657  1.1707
  197MOL0     H26574  -3.760   2.504   7.673  0.1780 -1.8222 -0.5015
  197MOL0     H26575  -3.868   2.511   7.470  1.3748 -1.2696  0.8827
  197MOL0     H26576  -3.802   2.678   7.431 -1.8723 -0.8372 -0.6890
  197MOL0     H26577  -2.755   2.440   7.774 -1.5771 -5.9582 -2.5018
  197MOL0     H26578  -2.510   2.437   7.815  0.4897 -0.1976 -0.1953
  197MOL0     H26579  -2.005   2.400   7.414 -1.5708 -1.9673  1.0184
  197MOL0     H26580  -1.758   2.412   7.474  0.3802 -0.0427  1.2041
  197MOL0     H26581  -0.265   3.176   8.079  0.7577  1.1225  0.7201
  197MOL0     H26582  -0.079   3.265   7.976 -0.2240 -0.0691  0.0840
  197MOL0     H26583   0.334   3.321   7.842  2.4169  0.0879 -1.8612
  197MOL0     H26584   0.477   3.469   7.729  0.0843  0.5899 -0.6039
  197MOL0     H26585   0.714   3.489   7.695  1.8529 -0.9529  2.3883
  197MOL0     H26586   0.635   3.659   7.673  1.4768  1.4471  0.4146
  197MOL0     H26587   0.932   3.617   7.727  0.3718  0.8363  1.0860
  197MOL0     H26588   0.835   3.753   7.692  0.5042 -1.1099  0.8557
  197MOL0     H26589   0.827   3.513   7.488 -0.3577 -0.5712  1.6982
  197MOL0     H26590   0.966   3.607   7.484 -0.4568  0.0195  1.1330
  197MOL0     H26591   0.768   3.797   7.460 -1.6391  1.1429 -2.6625
  197MOL0     H26592   0.668   3.655   7.444 -0.0195  2.0850  0.8419
  197MOL0     H26593   0.924   3.669   7.087  1.8815 -1.8697  2.5683
  197MOL0     H26594   0.662   3.556   8.121 -0.4280 -0.6513  0.8456
  197MOL0     H26595   0.480   3.437   8.225 -3.4457 -1.6251 -0.6823
  198MOL0     O26596   2.276   2.521   6.032  0.0730  0.8483  0.5361
  198MOL0     C26597   2.382   2.512   6.097 -0.0905 -0.5219  0.2343
  198MOL0     O26598   2.392   2.508   6.234  0.2969  0.2434  0.0707
  198MOL0     C26599   2.282   2.499   6.315  0.8075  0.6465  0.4660
  198MOL0     C26600   2.160   2.437   6.279 -0.6517 -0.0271  0.2221
  198MOL0     C26601   2.048   2.456   6.356  0.5602  1.0772 -0.6244
  198MOL0     C26602   2.052   2.534   6.479  0.1466  0.3861  1.6373
  198MOL0     O26603   1.953   2.550   6.578  0.1436  0.6348  0.5994
  198MOL0     C26604   1.827   2.489   6.552  0.2698 -1.2315  0.1401
  198MOL0     C26605   1.739   2.488   6.673  0.2285 -0.2424 -0.2895
  198MOL0     C26606   1.592   2.444   6.661 -0.2617 -0.1359  0.2082
  198MOL0     C26607   1.503   2.460   6.785  0.4067 -0.1087 -1.1177
  198MOL0     C26608   1.360   2.422   6.755  0.4988  0.4933 -0.0714
  198MOL0     C26609   1.271   2.401   6.883 -0.1660  0.1289 -0.8832
  198MOL0     C26610   1.132   2.363   6.840 -0.2608 -0.0240 -0.2843
  198MOL0     C26611   1.028   2.373   6.945  0.1220  0.5147  0.7253
  198MOL0     N26612   0.889   2.330   6.916 -0.1314 -0.4887 -0.1466
  198MOL0     C26613   0.833   2.271   6.804 -0.0064 -0.6733  0.5245
  198MOL0     C26614   0.705   2.246   6.842 -0.1708  0.9841  0.1103
  198MOL0     C26615   0.605   2.184   6.746  1.3605  0.1665 -0.6131
  198MOL0     C26616   0.456   2.148   6.787  0.6435 -0.4361  0.9291
  198MOL0     C26617   0.361   2.150   6.662 -0.4831 -0.3460  0.1204
  198MOL0     C26618   0.210   2.121   6.689 -0.2360  0.3869 -0.2363
  198MOL0     O26619   0.135   2.159   6.570  0.1127  0.5495  0.3156
  198MOL0     C26620   0.005   2.113   6.568 -0.2270  0.1283  0.3127
  198MOL0     C26621  -0.070   2.125   6.454  0.3159 -1.1330 -0.0343
  198MOL0     C26622  -0.205   2.094   6.447  0.5391 -0.7991 -0.0735
  198MOL0     C26623  -0.283   2.131   6.322  0.0841  0.3426 -0.0301
  198MOL0     C26624  -0.263   2.036   6.558  0.2129 -0.2880 -0.9077
  198MOL0     C26625  -0.408   2.006   6.574 -0.2427 -0.0145  0.1068
  198MOL0     O26626  -0.437   1.934   6.688 -0.1414  0.0904 -0.0460
  198MOL0     C26627  -0.562   1.880   6.706  0.4732 -0.3899 -0.6674
  198MOL0     C26628  -0.575   1.744   6.742  0.1712 -0.8378  0.0336
  198MOL0     C26629  -0.701   1.688   6.769  0.4506 -0.1144  0.2262
  198MOL0     C26630  -0.823   1.751   6.729  0.1220  0.0344 -0.2278
  198MOL0     O26631  -0.931   1.668   6.755  0.6837  0.0454  0.2745
  198MOL0     C26632  -1.063   1.728   6.749  0.3138  0.1147  0.2831
  198MOL0     C26633  -1.165   1.619   6.727 -0.1491 -0.2998 -0.2549
  198MOL0     C26634  -1.316   1.652   6.762 -0.0781  0.6460  0.1335
  198MOL0     C26635  -1.406   1.534   6.807  0.1898  0.2419  0.1180
  198MOL0     C26636  -1.524   1.588   6.884 -0.0480 -0.3272 -0.0441
  198MOL0     C26637  -1.625   1.478   6.934  0.2403  0.3371  0.5766
  198MOL0     C26638  -1.674   1.383   6.827 -0.0162 -0.0613 -1.1299
  198MOL0     C26639  -1.780   1.290   6.886 -0.5673 -0.0004  0.0385
  198MOL0    Cl26640  -1.813   1.156   6.771  0.1322 -0.0831  0.3133
  198MOL0     C26641  -0.805   1.885   6.678  0.3119  0.1592  0.2848
  198MOL0     C26642  -0.678   1.950   6.674  0.4926 -0.2147  0.8734
  198MOL0     O26643  -0.489   2.039   6.489 -0.4626  0.0190 -0.4015
  198MOL0     C26644  -0.184   2.000   6.666 -0.0969 -0.3374 -0.5304
  198MOL0     C26645  -0.057   2.043   6.672  0.0990  0.3786 -0.8118
  198MOL0     N26646   0.679   2.292   6.965  0.1233  0.2833 -0.2588
  198MOL0     N26647   0.793   2.336   7.007  0.7409 -0.7242 -0.0040
  198MOL0     C26648   2.180   2.586   6.514  0.3997 -1.0591  0.3374
  198MOL0     C26649   2.286   2.574   6.428 -0.9913  0.2932  0.4145
  198MOL0     C26650   2.513   2.525   6.025  0.3664 -0.2178 -0.5028
  198MOL0     C26651   2.637   2.466   6.060 -0.7017  0.0372  0.5305
  198MOL0     C26652   2.759   2.504   5.995 -0.1452  0.5492  0.3581
  198MOL0     C26653   2.757   2.618   5.905  0.8144  0.1605  0.8281
  198MOL0     O26654   2.868   2.674   5.858 -0.8678  0.1946  0.4740
  198MOL0     C26655   2.994   2.611   5.877 -0.4919 -0.4154 -0.3303
  198MOL0     C26656   3.117   2.685   5.816  0.1524 -0.1450 -0.8539
  198MOL0     C26657   3.133   2.820   5.881 -0.7908 -0.2463  0.5809
  198MOL0     C26658   3.183   2.916   5.768  0.1745 -0.1294  0.7030
  198MOL0     C26659   3.237   3.037   5.831 -0.4179  0.3426  0.5731
  198MOL0     C26660   3.262   3.129   5.904 -0.3742 -0.6720  0.0554
  198MOL0     C26661   2.633   2.677   5.875 -0.2674  0.4323 -1.0547
  198MOL0     C26662   2.514   2.627   5.929  0.1050  0.2586  0.1649
  198MOL0     H26663   2.147   2.396   6.180  0.8961  0.7147 -0.3074
  198MOL0     H26664   1.954   2.408   6.330 -0.2739  2.0698  0.4430
  198MOL0     H26665   1.774   2.552   6.479  2.0205 -0.1373 -0.2483
  198MOL0     H26666   1.832   2.393   6.501 -0.0892 -0.1372 -2.0912
  198MOL0     H26667   1.788   2.451   6.764  0.4071  1.4977  0.3508
  198MOL0     H26668   1.732   2.592   6.705  1.5333  0.0614 -0.8934
  198MOL0     H26669   1.542   2.516   6.596  0.4111  0.3530  0.2149
  198MOL0     H26670   1.586   2.341   6.623 -0.6905 -0.0539  0.0471
  198MOL0     H26671   1.533   2.391   6.864 -2.6066  0.8694  1.0748
  198MOL0     H26672   1.520   2.559   6.829 -1.3478 -1.6325  3.5740
  198MOL0     H26673   1.318   2.496   6.685 -1.1714  0.7351  1.1343
  198MOL0     H26674   1.362   2.331   6.694  0.8744  1.5978 -1.7876
  198MOL0     H26675   1.310   2.320   6.946  0.6630  0.7200 -0.6230
  198MOL0     H26676   1.278   2.487   6.950 -1.2124 -1.3542  1.2513
  198MOL0     H26677   1.108   2.431   6.758 -3.3124 -0.2067  0.3256
  198MOL0     H26678   1.150   2.262   6.801  0.8191  0.1853 -0.3569
  198MOL0     H26679   1.015   2.480   6.964  1.3209  0.8861 -0.4315
  198MOL0     H26680   1.061   2.330   7.040 -1.9123 -0.2522  1.1544
  198MOL0     H26681   0.881   2.242   6.712  0.9024 -0.2708  0.8586
  198MOL0     H26682   0.595   2.256   6.664 -1.5700 -0.5210 -0.9788
  198MOL0     H26683   0.640   2.085   6.715  2.0820  0.0707  0.4274
  198MOL0     H26684   0.422   2.218   6.864  0.5117  1.6887 -0.9722
  198MOL0     H26685   0.454   2.043   6.820  1.1540  0.0042  2.4609
  198MOL0     H26686   0.390   2.074   6.589 -0.1444  2.2060 -2.5939
  198MOL0     H26687   0.372   2.253   6.625  0.0240 -0.2906  0.4100
  198MOL0     H26688   0.194   2.201   6.762  3.6090  1.1148  0.0529
  198MOL0     H26689   0.205   2.027   6.744  0.4450  2.0312  2.8206
  198MOL0     H26690  -0.024   2.169   6.367 -1.9186 -0.3659 -0.9191
  198MOL0     H26691  -0.324   2.036   6.287 -0.7305  1.0490 -1.0698
  198MOL0     H26692  -0.374   2.188   6.345 -0.2784  0.0359 -0.6551
  198MOL0     H26693  -0.224   2.185   6.247  0.1461 -0.1743 -0.3639
  198MOL0     H26694  -0.492   1.673   6.746 -0.2112 -1.2869  0.0814
  198MOL0     H26695  -0.705   1.597   6.829  2.0560  0.3260  1.0499
  198MOL0     H26696  -1.096   1.786   6.836 -1.5384  2.9541 -2.1108
  198MOL0     H26697  -1.063   1.797   6.664  2.4311 -1.7389 -1.3337
  198MOL0     H26698  -1.171   1.598   6.620 -0.4175 -0.5886 -0.1881
  198MOL0     H26699  -1.138   1.529   6.784 -2.8843  0.5813  2.7625
  198MOL0     H26700  -1.358   1.713   6.681  0.0584  1.0257  0.3462
  198MOL0     H26701  -1.303   1.725   6.843  1.0604 -2.3436  2.8298
  198MOL0     H26702  -1.440   1.480   6.718  2.5288  0.3037 -0.8780
  198MOL0     H26703  -1.346   1.457   6.857  1.5002  1.5289  0.5674
  198MOL0     H26704  -1.571   1.664   6.820 -1.4818 -1.9301 -0.9841
  198MOL0     H26705  -1.489   1.642   6.972  0.3855 -0.2741 -0.2456
  198MOL0     H26706  -1.579   1.412   7.009 -0.8676 -2.4980 -1.0713
  198MOL0     H26707  -1.717   1.518   6.978 -1.5162 -2.0329 -0.7173
  198MOL0     H26708  -1.587   1.324   6.796  0.1460 -2.2700  2.8955
  198MOL0     H26709  -1.717   1.442   6.746 -0.8058  2.7900  1.2134
  198MOL0     H26710  -1.868   1.345   6.920 -1.0527 -0.3658 -0.5941
  198MOL0     H26711  -1.747   1.237   6.975  1.9429  2.1497  0.4930
  198MOL0     H26712  -0.897   1.939   6.655 -0.3492  0.4920  3.2912
  198MOL0     H26713  -0.674   2.045   6.622 -1.6321 -0.2711  0.5340
  198MOL0     H26714  -0.222   1.951   6.755  0.1090  1.4329  0.5806
  198MOL0     H26715  -0.007   2.024   6.767  0.9322 -0.1905 -1.3559
  198MOL0     H26716   2.201   2.628   6.612 -1.1778 -1.0820  0.7134
  198MOL0     H26717   2.376   2.618   6.471 -0.6657 -1.4250  1.5849
  198MOL0     H26718   2.648   2.394   6.141 -0.4124  0.9799  1.3466
  198MOL0     H26719   2.846   2.446   6.023 -1.2057 -1.9824 -1.2103
  198MOL0     H26720   3.010   2.595   5.984  1.9914  2.6851 -0.0741
  198MOL0     H26721   2.987   2.517   5.822  1.9756 -0.6369 -0.3665
  198MOL0     H26722   3.100   2.689   5.708 -0.3321  1.3738 -0.7365
  198MOL0     H26723   3.213   2.637   5.835  0.0233  0.3939  1.4045
  198MOL0     H26724   3.210   2.816   5.959 -0.5584  3.4435  0.7264
  198MOL0     H26725   3.044   2.859   5.931 -1.6000 -0.6527 -0.5037
  198MOL0     H26726   3.096   2.936   5.705 -0.5397 -3.0064  0.6187
  198MOL0     H26727   3.257   2.871   5.701 -0.6613 -1.3375  0.5553
  198MOL0     H26728   3.267   3.228   5.944  0.3637  0.8632 -3.4548
  198MOL0     H26729   2.637   2.761   5.805  3.1911  2.6818  1.5284
  198MOL0     H26730   2.435   2.694   5.898  0.5727  0.8358  0.1949
  199MOL0     O26731   1.726   8.465   4.224  0.5279  0.1915 -0.3638
  199MOL0     C26732   1.808   8.419   4.305 -0.2269  0.6046  0.1320
  199MOL0     O26733   1.778   8.363   4.422 -0.9197 -0.0223 -0.4046
  199MOL0     C26734   1.656   8.407   4.474  0.4792  0.4075 -0.1817
  199MOL0     C26735   1.620   8.540   4.483  0.0507  0.8375  0.0258
  199MOL0     C26736   1.484   8.571   4.513  0.4206 -0.4693 -0.0347
  199MOL0     C26737   1.393   8.468   4.548  0.2319 -0.0326  0.0032
  199MOL0     O26738   1.263   8.494   4.589 -1.1240 -0.1359 -0.1405
  199MOL0     C26739   1.252   8.621   4.657  0.2242  1.2047 -0.3310
  199MOL0     C26740   1.121   8.627   4.735  0.2160  0.1210 -0.3003
  199MOL0     C26741   0.996   8.594   4.653 -0.1225 -0.2063 -0.0628
  199MOL0     C26742   0.872   8.623   4.734 -0.3739 -0.5262  0.5867
  199MOL0     C26743   0.755   8.567   4.652  0.2089  0.2372 -0.0231
  199MOL0     C26744   0.621   8.612   4.717 -0.0083 -0.2197  0.0674
  199MOL0     C26745   0.603   8.556   4.862  1.1520 -0.4438  0.2288
  199MOL0     C26746   0.455   8.542   4.905  1.0089  0.0761 -0.5783
  199MOL0     N26747   0.439   8.513   5.052  0.2119 -0.1194  0.7702
  199MOL0     C26748   0.455   8.388   5.115  0.2980  0.5627  0.8229
  199MOL0     C26749   0.461   8.418   5.240  0.0729  0.3013  0.1042
  199MOL0     C26750   0.471   8.322   5.350 -0.4167 -0.3760  0.4218
  199MOL0     C26751   0.572   8.207   5.333  0.5214 -0.7089  0.8146
  199MOL0     C26752   0.712   8.250   5.281  0.7878  0.5335  0.4014
  199MOL0     C26753   0.804   8.132   5.259 -0.6987  0.3561  0.0512
  199MOL0     O26754   0.946   8.164   5.242  0.3652 -0.1108  0.0153
  199MOL0     C26755   1.037   8.063   5.267 -0.0260  0.0892  0.3253
  199MOL0     C26756   1.011   7.933   5.282  0.3312 -0.4383  0.2037
  199MOL0     C26757   1.111   7.835   5.294 -0.7225 -0.1642  0.0640
  199MOL0     C26758   1.067   7.701   5.289 -0.4629  0.0181  0.1583
  199MOL0     C26759   1.254   7.877   5.285 -0.1263 -0.1591  0.5104
  199MOL0     C26760   1.367   7.788   5.293  0.2486  0.4624 -0.2376
  199MOL0     O26761   1.488   7.847   5.263  0.5893 -0.2615  0.1612
  199MOL0     C26762   1.605   7.776   5.301 -0.4130 -0.8630 -0.1356
  199MOL0     C26763   1.639   7.722   5.435 -0.0284 -0.4743  0.3181
  199MOL0     C26764   1.769   7.678   5.461 -0.5052  0.9109  0.3039
  199MOL0     C26765   1.866   7.680   5.358 -0.4457  0.3568 -1.0262
  199MOL0     O26766   1.995   7.623   5.370  0.1980 -0.5192  0.2843
  199MOL0     C26767   2.047   7.588   5.503  0.9427  0.7038 -0.2611
  199MOL0     C26768   2.186   7.543   5.500 -0.0716  0.0087 -0.9683
  199MOL0     C26769   2.284   7.635   5.433 -0.3207  0.5514  0.3978
  199MOL0     C26770   2.428   7.575   5.467 -0.4939  0.2258  0.3984
  199MOL0     C26771   2.543   7.653   5.388  0.1918 -0.4116 -0.0230
  199MOL0     C26772   2.681   7.603   5.426 -0.7142  1.0582  1.0978
  199MOL0     C26773   2.797   7.663   5.352  1.0994  0.1862  0.3256
  199MOL0     C26774   2.939   7.609   5.369  0.8737 -0.2303  0.1966
  199MOL0    Cl26775   2.966   7.445   5.311 -0.1984 -0.3525  0.2287
  199MOL0     C26776   1.828   7.714   5.227  0.4606 -0.4626 -0.6431
  199MOL0     C26777   1.702   7.775   5.198  0.1729  0.2273  0.0809
  199MOL0     O26778   1.354   7.673   5.341 -0.3507 -0.1307  0.3832
  199MOL0     C26779   1.275   8.018   5.286  0.6825  0.7952  0.4508
  199MOL0     C26780   1.170   8.101   5.277  0.4611 -0.7325 -0.8375
  199MOL0     N26781   0.467   8.555   5.262  1.1909  0.0537 -0.4651
  199MOL0     N26782   0.453   8.611   5.145 -0.7345 -0.1552 -0.7696
  199MOL0     C26783   1.429   8.341   4.522  0.0023 -0.5822 -1.2580
  199MOL0     C26784   1.560   8.307   4.503  0.1606  1.3341  0.1977
  199MOL0     C26785   1.954   8.425   4.263  1.0903 -0.8207 -0.3235
  199MOL0     C26786   1.987   8.465   4.138  0.1300 -0.2157 -0.8586
  199MOL0     C26787   2.117   8.472   4.105 -0.9943 -0.9395 -0.6322
  199MOL0     C26788   2.218   8.435   4.194 -1.0975  0.9233 -0.3818
  199MOL0     O26789   2.352   8.463   4.164 -0.7776  0.6722  1.1606
  199MOL0     C26790   2.392   8.586   4.093 -0.2833  0.2572  0.3000
  199MOL0     C26791   2.529   8.559   4.030 -0.8854 -0.4396 -0.4642
  199MOL0     C26792   2.538   8.434   3.930  0.6737 -0.5298  0.1069
  199MOL0     C26793   2.555   8.471   3.786  0.3606 -0.1186  0.3381
  199MOL0     C26794   2.697   8.514   3.754  0.4413  0.9398  0.0269
  199MOL0     C26795   2.806   8.563   3.748  0.0511 -0.7291 -0.3151
  199MOL0     C26796   2.182   8.368   4.317  0.4850 -0.2667  0.1531
  199MOL0     C26797   2.051   8.367   4.353  1.3743  0.6936  1.1921
  199MOL0     H26798   1.692   8.618   4.461  1.3854 -0.6051 -0.8737
  199MOL0     H26799   1.464   8.677   4.515  1.5395 -0.2456  0.1814
  199MOL0     H26800   1.337   8.641   4.723  0.7695 -0.3492 -0.5292
  199MOL0     H26801   1.258   8.699   4.581  0.1198  0.3198 -1.2692
  199MOL0     H26802   1.132   8.573   4.829 -1.4612  0.4150  0.1108
  199MOL0     H26803   1.113   8.736   4.749  1.2620  0.2298 -0.4527
  199MOL0     H26804   0.996   8.638   4.553  3.1153  1.1458  0.4191
  199MOL0     H26805   0.999   8.486   4.635 -0.7802  0.1509 -2.7335
  199MOL0     H26806   0.889   8.572   4.830  0.4383  0.5279  1.0174
  199MOL0     H26807   0.872   8.730   4.755  0.5764  0.0387 -1.9819
  199MOL0     H26808   0.762   8.611   4.552  3.1184 -0.8114 -0.3824
  199MOL0     H26809   0.755   8.458   4.640 -0.3640  0.4052 -1.9570
  199MOL0     H26810   0.605   8.720   4.718  1.0871  0.0112 -1.7214
  199MOL0     H26811   0.547   8.567   4.649  1.7345 -0.5114 -1.7646
  199MOL0     H26812   0.655   8.461   4.875 -0.1302 -1.2516 -0.3897
  199MOL0     H26813   0.639   8.617   4.945 -0.0222  1.3433 -0.5146
  199MOL0     H26814   0.415   8.456   4.850  2.2993  0.2373 -1.8198
  199MOL0     H26815   0.386   8.625   4.887 -2.2005 -2.4161 -0.8043
  199MOL0     H26816   0.460   8.291   5.066 -0.9594 -0.0068  1.7512
  199MOL0     H26817   0.493   8.377   5.441 -1.6029  0.8554 -0.0084
  199MOL0     H26818   0.365   8.294   5.354 -0.2704 -0.8108  1.3265
  199MOL0     H26819   0.522   8.145   5.258 -4.6966  2.8487  0.8413
  199MOL0     H26820   0.588   8.149   5.424  4.2090 -0.7166  0.3029
  199MOL0     H26821   0.757   8.313   5.359 -1.2920 -0.7592  2.8134
  199MOL0     H26822   0.703   8.304   5.187 -1.0415 -0.4122 -0.0259
  199MOL0     H26823   0.765   8.080   5.171 -1.4666 -2.2059  1.7596
  199MOL0     H26824   0.787   8.069   5.347 -0.3120  0.0433 -0.0934
  199MOL0     H26825   0.910   7.897   5.264  0.0051  1.7523 -3.1034
  199MOL0     H26826   0.971   7.687   5.238  0.4008 -0.3012 -1.4436
  199MOL0     H26827   1.144   7.640   5.241  2.0213  3.8947 -1.2043
  199MOL0     H26828   1.072   7.673   5.395 -0.9842 -2.1490 -0.3489
  199MOL0     H26829   1.565   7.716   5.513  0.6340  2.5044  1.2921
  199MOL0     H26830   1.779   7.632   5.559 -1.1379 -4.1514 -1.7270
  199MOL0     H26831   2.042   7.678   5.566  3.2580 -0.2360  1.4492
  199MOL0     H26832   1.982   7.508   5.538 -0.5965  2.1584  0.3182
  199MOL0     H26833   2.220   7.536   5.604 -0.3967  0.0595 -0.8590
  199MOL0     H26834   2.182   7.445   5.452 -0.0067  0.4308 -1.8523
  199MOL0     H26835   2.277   7.733   5.481  2.7646  1.9634 -1.7086
  199MOL0     H26836   2.269   7.633   5.325  3.1113 -0.7210 -0.1640
  199MOL0     H26837   2.458   7.584   5.572  0.6347 -1.8425  0.3094
  199MOL0     H26838   2.428   7.472   5.429  2.3651  0.8979 -1.8619
  199MOL0     H26839   2.534   7.755   5.429  0.3329 -0.6695  0.6703
  199MOL0     H26840   2.525   7.652   5.280 -0.8806 -1.0143  0.1449
  199MOL0     H26841   2.701   7.612   5.533  4.2099 -1.1266  0.6476
  199MOL0     H26842   2.682   7.499   5.392 -2.5615  2.1758 -2.9431
  199MOL0     H26843   2.796   7.772   5.366  0.5134  0.3516 -0.8600
  199MOL0     H26844   2.781   7.655   5.244  0.0217 -1.6557  0.5887
  199MOL0     H26845   2.949   7.618   5.477 -2.6013  0.5064  0.5676
  199MOL0     H26846   3.011   7.677   5.323  0.5688 -1.0124 -1.5306
  199MOL0     H26847   1.910   7.708   5.156  1.6914  2.0769  0.4478
  199MOL0     H26848   1.681   7.823   5.103  1.0671  0.6057  0.0547
  199MOL0     H26849   1.373   8.064   5.281  0.4029  1.5961  1.8824
  199MOL0     H26850   1.185   8.209   5.274 -1.6579 -0.4112 -1.1383
  199MOL0     H26851   1.344   8.273   4.532  0.0580 -0.3334  1.4671
  199MOL0     H26852   1.576   8.200   4.495 -2.1673  1.0377 -1.3695
  199MOL0     H26853   1.916   8.514   4.073  1.3379  3.8280  0.5759
  199MOL0     H26854   2.135   8.522   4.011  0.8382  2.3438  1.2718
  199MOL0     H26855   2.325   8.604   4.008 -0.7484 -0.7767  0.4358
  199MOL0     H26856   2.405   8.679   4.150  1.9407 -0.6458  1.3541
  199MOL0     H26857   2.614   8.548   4.099 -0.6085  0.6461 -0.6019
  199MOL0     H26858   2.554   8.650   3.974 -1.9240 -1.3436 -2.4649
  199MOL0     H26859   2.453   8.367   3.941  0.3795 -0.3839 -1.1196
  199MOL0     H26860   2.619   8.364   3.955  1.0957  0.1962  0.8159
  199MOL0     H26861   2.477   8.543   3.760 -1.5490 -1.9579  0.7811
  199MOL0     H26862   2.534   8.379   3.730  3.2732  0.2459 -1.5879
  199MOL0     H26863   2.899   8.616   3.748 -0.8154  0.8782 -1.7254
  199MOL0     H26864   2.259   8.332   4.384  0.1780  1.8957  1.7713
  199MOL0     H26865   2.018   8.316   4.443 -0.0403  0.7245  0.7212
  200MOL0     O26866   9.373  10.208   5.014  0.5291 -0.1264  0.4626
  200MOL0     C26867   9.404  10.220   4.898 -0.0945  0.8646 -0.1062
  200MOL0     O26868   9.328  10.278   4.803 -0.3537  0.6389  0.3478
  200MOL0     C26869   9.192  10.279   4.827 -0.3878 -0.4863 -0.2599
  200MOL0     C26870   9.129  10.363   4.918 -0.6301  0.0226  0.1850
  200MOL0     C26871   8.997  10.338   4.940 -0.2886 -0.5498  0.5467
  200MOL0     C26872   8.919  10.253   4.851  0.1147  0.1110 -0.3291
  200MOL0     O26873   8.787  10.235   4.887  0.5060  0.3967 -0.3727
  200MOL0     C26874   8.691  10.178   4.790 -0.3656  0.4183 -0.1487
  200MOL0     C26875   8.642  10.271   4.674 -0.0744 -0.2652  0.5719
  200MOL0     C26876   8.529  10.206   4.589 -0.5846 -0.6013 -0.1208
  200MOL0     C26877   8.394  10.192   4.658 -0.2927  0.0520 -0.8423
  200MOL0     C26878   8.304  10.130   4.555  0.9665 -0.1576  0.1808
  200MOL0     C26879   8.167  10.101   4.611  0.6533 -0.1031 -0.3597
  200MOL0     C26880   8.071  10.041   4.507  0.0206 -0.0281  0.1808
  200MOL0     C26881   7.931  10.017   4.560 -0.4868  0.2934 -0.3171
  200MOL0     N26882   7.931   9.913   4.668  1.2061  0.4616 -0.3206
  200MOL0     C26883   7.866   9.930   4.789  0.5258 -0.6703  0.8039
  200MOL0     C26884   7.850   9.805   4.841  0.0674 -0.5401 -0.0882
  200MOL0     C26885   7.794   9.774   4.975  0.3082  1.2818 -0.2908
  200MOL0     C26886   7.639   9.763   4.955 -0.4298 -0.7632  0.3922
  200MOL0     C26887   7.574   9.733   5.098  0.6530 -0.5149  1.9077
  200MOL0     C26888   7.422   9.726   5.095 -0.1502  0.0040  1.1105
  200MOL0     O26889   7.387   9.627   5.004 -0.2394 -0.4314  0.0950
  200MOL0     C26890   7.261   9.571   5.001 -0.4598  0.5774  0.4494
  200MOL0     C26891   7.254   9.440   4.941  0.0567 -0.0401 -0.1892
  200MOL0     C26892   7.123   9.384   4.933 -0.4328  0.6606  1.3812
  200MOL0     C26893   7.113   9.247   4.852 -0.6004  0.2192 -0.6924
  200MOL0     C26894   7.004   9.446   4.986  0.1933 -0.2208  0.6665
  200MOL0     C26895   6.868   9.384   4.983  0.0428  0.1937  0.1344
  200MOL0     O26896   6.782   9.464   5.044  0.8115  0.7541 -0.4941
  200MOL0     C26897   6.662   9.409   5.095  0.8442  0.5993  0.2460
  200MOL0     C26898   6.559   9.348   5.012 -0.7426  0.2124  0.5318
  200MOL0     C26899   6.439   9.309   5.060 -0.2659 -0.5919  0.1590
  200MOL0     C26900   6.408   9.320   5.193  0.8315 -1.1432 -0.1070
  200MOL0     O26901   6.283   9.284   5.222  0.2464  0.1116  0.7444
  200MOL0     C26902   6.243   9.266   5.352  0.1802  0.5282 -0.7898
  200MOL0     C26903   6.087   9.270   5.339  0.2130  0.0005  0.3858
  200MOL0     C26904   6.034   9.128   5.312 -0.9556 -0.1044  0.4844
  200MOL0     C26905   5.892   9.143   5.293 -0.3178  0.2022  0.5532
  200MOL0     C26906   5.841   9.004   5.270  0.0922 -0.3360  0.2708
  200MOL0     C26907   5.687   8.976   5.255 -0.5061  0.0869 -0.3641
  200MOL0     C26908   5.626   9.077   5.158 -0.1565 -0.1778  0.1152
  200MOL0     C26909   5.485   9.060   5.110  0.0106 -0.7854 -0.0956
  200MOL0    Cl26910   5.485   8.924   4.988  0.3364  0.1470  0.1470
  200MOL0     C26911   6.501   9.390   5.280  0.1754  0.3137  0.1318
  200MOL0     C26912   6.625   9.431   5.226 -0.4526  0.2790 -0.1523
  200MOL0     O26913   6.840   9.271   4.933  0.3490 -0.1711  0.2613
  200MOL0     C26914   7.016   9.578   5.029  0.1158  0.3421  0.4959
  200MOL0     C26915   7.144   9.636   5.045  0.4043 -0.1272  0.2561
  200MOL0     N26916   7.910   9.721   4.746  0.2876  0.8359 -0.3770
  200MOL0     N26917   7.950   9.786   4.643  0.1972  1.1204  0.4710
  200MOL0     C26918   8.979  10.181   4.747 -0.1210  0.2773 -0.4947
  200MOL0     C26919   9.119  10.201   4.737  0.5857 -0.0349 -0.3092
  200MOL0     C26920   9.537  10.185   4.849 -0.3277  0.1933  0.6983
  200MOL0     C26921   9.640  10.147   4.942 -0.5742  0.2670  0.8890
  200MOL0     C26922   9.765  10.102   4.895  0.0903 -0.2747 -0.1088
  200MOL0     C26923   9.791  10.083   4.757  0.6881 -0.7124 -0.3338
  200MOL0     O26924   9.917  10.048   4.722 -0.3337 -0.2800 -0.0909
  200MOL0     C26925   9.978  10.082   4.592  0.6164  0.7068 -0.4300
  200MOL0     C26926  10.133  10.084   4.594  0.1316 -0.9902 -0.3302
  200MOL0     C26927  10.194   9.970   4.670  0.4766  0.3304  0.0673
  200MOL0     C26928  10.346   9.981   4.677  0.6745  0.0006 -0.4154
  200MOL0     C26929  10.399   9.850   4.721  0.5755 -0.8033 -0.3821
  200MOL0     C26930  10.425   9.740   4.761 -0.3739  0.2362  0.3896
  200MOL0     C26931   9.690  10.116   4.664 -0.4836 -0.6053 -0.7218
  200MOL0     C26932   9.566  10.177   4.709  0.9163  0.4079 -0.3551
  200MOL0     H26933   9.187  10.430   4.980 -2.1955 -1.1645  3.1442
  200MOL0     H26934   8.943  10.385   5.022 -0.6727 -0.6901  0.3761
  200MOL0     H26935   8.718  10.083   4.743  1.5369  0.6417  0.4184
  200MOL0     H26936   8.603  10.169   4.855  0.1026  0.3002  0.4669
  200MOL0     H26937   8.605  10.365   4.714 -0.4169 -1.1115  2.3619
  200MOL0     H26938   8.726  10.291   4.608 -1.4978  2.4708 -0.5567
  200MOL0     H26939   8.526  10.264   4.496  1.3765 -0.3962 -0.1136
  200MOL0     H26940   8.561  10.105   4.561 -1.4152 -0.9469  0.1648
  200MOL0     H26941   8.395  10.124   4.745 -2.7633 -0.1101 -0.8527
  200MOL0     H26942   8.347  10.285   4.691 -2.9350 -0.5753 -2.4993
  200MOL0     H26943   8.299  10.201   4.473  0.7409 -0.6568 -0.2413
  200MOL0     H26944   8.340  10.033   4.520 -0.6415 -0.7778  0.1210
  200MOL0     H26945   8.168  10.037   4.699  2.8817  0.2532 -0.0694
  200MOL0     H26946   8.126  10.196   4.648 -0.3091 -0.4088 -0.6236
  200MOL0     H26947   8.063  10.110   4.423 -1.8865  1.2750  1.3539
  200MOL0     H26948   8.104   9.941   4.478 -2.3138 -0.6670 -0.4592
  200MOL0     H26949   7.855   9.981   4.490 -0.7382 -1.5103  0.8266
  200MOL0     H26950   7.881  10.106   4.602 -0.9008  0.3630 -0.9456
  200MOL0     H26951   7.823  10.019   4.834 -2.2086 -1.1497 -0.6071
  200MOL0     H26952   7.828   9.679   5.016 -1.9813  1.6723  2.8734
  200MOL0     H26953   7.812   9.860   5.040  2.5351 -0.4217  1.5080
  200MOL0     H26954   7.622   9.679   4.886  0.2951 -0.7050  0.1259
  200MOL0     H26955   7.601   9.854   4.908  0.8679 -1.4875 -2.2807
  200MOL0     H26956   7.607   9.810   5.169  1.5228 -0.5791  1.5897
  200MOL0     H26957   7.615   9.640   5.137  2.7397 -1.3109 -1.7020
  200MOL0     H26958   7.381   9.819   5.056  0.4609  0.2015  0.9279
  200MOL0     H26959   7.380   9.711   5.195 -0.3150 -1.6951  0.8232
  200MOL0     H26960   7.341   9.405   4.887  0.0171  0.3485 -0.5084
  200MOL0     H26961   7.211   9.217   4.813 -0.3446  2.5056 -1.9739
  200MOL0     H26962   7.069   9.168   4.914  0.6433  1.3551  1.7448
  200MOL0     H26963   7.049   9.263   4.764  0.1802  1.3783 -1.0760
  200MOL0     H26964   6.593   9.357   4.909 -1.8989  1.6088  0.2443
  200MOL0     H26965   6.378   9.249   4.993  1.2541  0.1090 -1.9723
  200MOL0     H26966   6.260   9.164   5.385  1.1294  0.0695 -2.6006
  200MOL0     H26967   6.281   9.340   5.423  3.0786 -1.9810  0.4557
  200MOL0     H26968   6.054   9.310   5.436  0.2907 -1.1108  0.8893
  200MOL0     H26969   6.049   9.333   5.259 -0.4990 -0.4041  0.3923
  200MOL0     H26970   6.051   9.065   5.400 -2.4698 -0.9538  0.2143
  200MOL0     H26971   6.081   9.078   5.226 -2.3315  2.0916 -1.6697
  200MOL0     H26972   5.844   9.191   5.379  0.8216 -0.7625  1.7747
  200MOL0     H26973   5.882   9.215   5.211  0.1846 -1.4473 -1.0228
  200MOL0     H26974   5.887   8.927   5.332 -0.2428 -1.4809 -0.8759
  200MOL0     H26975   5.887   8.979   5.174  0.1601  2.2683 -0.4742
  200MOL0     H26976   5.688   8.876   5.210 -2.7165 -1.0423  1.8979
  200MOL0     H26977   5.629   8.968   5.347 -1.9870  0.1600 -1.2587
  200MOL0     H26978   5.697   9.077   5.075 -1.4157  3.3864 -1.1481
  200MOL0     H26979   5.633   9.177   5.203 -0.1255  0.6274 -1.5862
  200MOL0     H26980   5.448   9.150   5.061 -2.1777 -2.3438 -1.4727
  200MOL0     H26981   5.414   9.035   5.190 -0.0812  2.4810  1.0019
  200MOL0     H26982   6.470   9.408   5.383 -0.5419  0.6599 -0.1311
  200MOL0     H26983   6.703   9.485   5.279  0.2454 -1.7993  1.0448
  200MOL0     H26984   6.939   9.644   5.068 -0.1169  0.8143 -0.7415
  200MOL0     H26985   7.144   9.737   5.082 -0.4640  0.4319 -1.1821
  200MOL0     H26986   8.921  10.109   4.690 -0.1574 -0.7611  0.8051
  200MOL0     H26987   9.169  10.133   4.669  1.8546 -1.7407  2.1574
  200MOL0     H26988   9.622  10.161   5.048 -0.4479  2.3974  0.6650
  200MOL0     H26989   9.843  10.069   4.962 -0.9246 -2.6773 -0.0059
  200MOL0     H26990   9.950  10.005   4.520  0.9549 -0.7040  0.8987
  200MOL0     H26991   9.934  10.173   4.550 -1.2934 -0.8616 -2.0144
  200MOL0     H26992  10.156  10.178   4.645  2.0691 -0.0044 -2.8249
  200MOL0     H26993  10.167  10.105   4.492 -0.2054 -1.4615 -0.5454
  200MOL0     H26994  10.169   9.875   4.621 -2.5112 -0.4651  2.7199
  200MOL0     H26995  10.151   9.959   4.770 -1.1925  0.1675 -0.6325
  200MOL0     H26996  10.380  10.054   4.751 -1.0587 -0.3888  0.8321
  200MOL0     H26997  10.394   9.998   4.581  2.7524 -0.0827  0.5510
  200MOL0     H26998  10.459   9.641   4.786 -0.8237  0.2331  0.9929
  200MOL0     H26999   9.717  10.101   4.560  2.4250  1.0200 -0.2955
  200MOL0     H27000   9.495  10.188   4.628  0.1489 -1.7272 -0.0329
  201MOL0     O27001   1.011   2.038   0.902 -0.1934  0.4055 -0.4223
  201MOL0     C27002   1.041   1.932   0.855  0.0615 -0.1926 -0.0319
  201MOL0     O27003   0.953   1.851   0.780 -0.2056 -0.3761  0.9467
  201MOL0     C27004   0.832   1.896   0.735 -0.3675 -0.0109  0.3349
  201MOL0     C27005   0.738   1.800   0.709 -0.7003 -0.8162 -0.1930
  201MOL0     C27006   0.613   1.828   0.678 -0.4443 -0.1878 -0.4109
  201MOL0     C27007   0.566   1.961   0.658 -0.4405 -0.0608 -0.1126
  201MOL0     O27008   0.434   1.990   0.655 -0.0153  0.4742  0.4675
  201MOL0     C27009   0.354   1.900   0.736 -0.1162 -0.1716  0.3541
  201MOL0     C27010   0.215   1.971   0.767 -0.1161 -0.5091 -0.1724
  201MOL0     C27011   0.154   2.038   0.632  0.2213  0.7481 -1.1737
  201MOL0     C27012   0.006   2.072   0.659  0.0679 -0.1167  0.2435
  201MOL0     C27013  -0.050   2.162   0.559  0.4165  0.0228 -0.4666
  201MOL0     C27014  -0.062   2.101   0.416  1.2535 -1.6108 -0.8547
  201MOL0     C27015  -0.180   2.171   0.344  0.6254 -1.1189 -1.5608
  201MOL0     C27016  -0.150   2.319   0.305 -0.1299 -0.2518  0.2586
  201MOL0     N27017  -0.280   2.385   0.304  0.0273 -1.2147 -0.3613
  201MOL0     C27018  -0.328   2.469   0.205 -0.2497 -0.4869 -0.3473
  201MOL0     C27019  -0.413   2.550   0.263  0.6563 -0.5776  1.1475
  201MOL0     C27020  -0.474   2.663   0.191 -0.2248 -0.0879 -0.0187
  201MOL0     C27021  -0.494   2.771   0.300  0.2178  0.5728 -0.5514
  201MOL0     C27022  -0.554   2.896   0.254 -0.4496  0.5016 -0.4861
  201MOL0     C27023  -0.685   2.894   0.177 -0.5888 -0.1136  0.4370
  201MOL0     O27024  -0.704   3.029   0.139  0.2940  0.4235  0.1085
  201MOL0     C27025  -0.702   3.044   0.004  0.1107 -0.1110 -0.8019
  201MOL0     C27026  -0.578   3.046  -0.059 -0.2364  0.1913 -0.6362
  201MOL0     C27027  -0.573   3.028  -0.196  1.4499  0.1825 -0.2669
  201MOL0     C27028  -0.429   3.013  -0.241 -0.1118  0.6274 -0.6196
  201MOL0     C27029  -0.686   3.027  -0.282  0.3490 -0.1321  0.6156
  201MOL0     C27030  -0.693   3.014  -0.431  1.0817 -0.6648  0.2106
  201MOL0     O27031  -0.813   2.989  -0.489  0.7756 -0.2497 -0.2716
  201MOL0     C27032  -0.834   3.001  -0.625  0.6245  0.4167  0.2424
  201MOL0     C27033  -0.769   2.917  -0.708 -0.2001 -0.5998 -0.5005
  201MOL0     C27034  -0.802   2.902  -0.843 -0.3594  0.5787  0.6715
  201MOL0     C27035  -0.894   2.998  -0.902  0.4891  0.5116 -0.0316
  201MOL0     O27036  -0.921   3.000  -1.042 -0.1950  0.2665  0.5620
  201MOL0     C27037  -0.928   3.123  -1.110 -0.3943 -0.1953 -0.2065
  201MOL0     C27038  -0.790   3.201  -1.101  0.6006  0.3089  0.4629
  201MOL0     C27039  -0.796   3.323  -1.198 -0.2229 -0.2225 -0.0091
  201MOL0     C27040  -0.887   3.437  -1.152  0.0956  0.4982 -0.0063
  201MOL0     C27041  -0.930   3.503  -1.281 -0.4933 -0.7027 -0.2291
  201MOL0     C27042  -1.017   3.627  -1.251  0.8066  0.3681  0.7739
  201MOL0     C27043  -1.093   3.676  -1.385  0.2735  0.2598 -0.4157
  201MOL0     C27044  -1.229   3.749  -1.363  0.3224 -0.5016 -0.2402
  201MOL0    Cl27045  -1.358   3.651  -1.299  0.3997  0.2876 -0.0474
  201MOL0     C27046  -0.951   3.097  -0.815 -0.2320 -0.0392  0.3209
  201MOL0     C27047  -0.931   3.094  -0.680 -0.4167 -0.6692 -1.0581
  201MOL0     O27048  -0.589   3.035  -0.497  0.0832  0.4994  0.5107
  201MOL0     C27049  -0.809   3.027  -0.215  0.6606 -0.0535  0.0349
  201MOL0     C27050  -0.816   3.029  -0.074 -0.9374 -0.8083  0.5037
  201MOL0     N27051  -0.427   2.516   0.401 -0.5679  0.0716  0.4228
  201MOL0     N27052  -0.343   2.420   0.420  0.1323  0.2486  0.5116
  201MOL0     C27053   0.661   2.064   0.660 -0.0823 -0.0977  0.4818
  201MOL0     C27054   0.794   2.030   0.694 -0.8991 -0.2584  0.7321
  201MOL0     C27055   1.164   1.874   0.893 -1.5518  0.4403  0.2429
  201MOL0     C27056   1.223   1.762   0.820  0.3131 -0.1701  0.6425
  201MOL0     C27057   1.351   1.718   0.855  0.4226  0.5180 -0.4198
  201MOL0     C27058   1.417   1.761   0.959  0.3419 -0.4653 -0.2756
  201MOL0     O27059   1.540   1.719   0.993  0.0390  0.1001 -0.3289
  201MOL0     C27060   1.648   1.792   0.935 -0.1338 -0.8487  0.5536
  201MOL0     C27061   1.772   1.712   0.949 -1.1996  0.5609  0.3790
  201MOL0     C27062   1.909   1.771   0.889 -0.2339  0.0034  0.3036
  201MOL0     C27063   2.030   1.682   0.910  0.5943  0.1596 -0.2685
  201MOL0     C27064   2.151   1.748   0.859  0.0540  0.3840 -0.7652
  201MOL0     C27065   2.248   1.800   0.805  0.8236 -0.4385  1.1299
  201MOL0     C27066   1.372   1.875   1.026  0.1805 -0.2551  0.5274
  201MOL0     C27067   1.250   1.932   0.991  0.9160  0.7467 -0.0840
  201MOL0     H27068   0.774   1.702   0.737  0.4072 -0.1439  0.8160
  201MOL0     H27069   0.545   1.744   0.669 -0.1133 -0.2533 -2.8589
  201MOL0     H27070   0.341   1.808   0.678  2.2639 -0.0224 -0.5236
  201MOL0     H27071   0.397   1.873   0.833 -1.9300  0.9252  1.5214
  201MOL0     H27072   0.147   1.892   0.800 -0.7960  0.0874 -0.1244
  201MOL0     H27073   0.215   2.050   0.843 -2.0509  1.2040 -1.8267
  201MOL0     H27074   0.216   2.127   0.617  0.1143  1.3889  1.5853
  201MOL0     H27075   0.165   1.970   0.547 -0.6998 -2.2795  0.9494
  201MOL0     H27076  -0.040   1.973   0.654  2.1271 -1.0559 -1.5458
  201MOL0     H27077  -0.010   2.122   0.755  1.4776  4.8800 -1.7964
  201MOL0     H27078  -0.141   2.200   0.606  0.6716 -0.9023  0.8402
  201MOL0     H27079   0.015   2.250   0.560  0.5173  0.0767  3.0510
  201MOL0     H27080   0.031   2.115   0.361  0.8775  1.3874 -0.8932
  201MOL0     H27081  -0.088   1.995   0.415 -0.0710 -1.3517 -3.0188
  201MOL0     H27082  -0.205   2.115   0.254 -2.5129 -2.4052 -0.0172
  201MOL0     H27083  -0.271   2.168   0.404  1.4823 -2.0561 -0.2368
  201MOL0     H27084  -0.104   2.320   0.206 -0.9636  0.5617 -0.1342
  201MOL0     H27085  -0.083   2.358   0.382  1.5432 -2.3521 -0.0479
  201MOL0     H27086  -0.303   2.470   0.099  1.9493  0.8523  0.1051
  201MOL0     H27087  -0.405   2.707   0.120  1.6572 -0.1294  1.6842
  201MOL0     H27088  -0.565   2.626   0.144  0.0612 -0.8687  0.0255
  201MOL0     H27089  -0.398   2.785   0.349  0.0238 -2.8845  1.1196
  201MOL0     H27090  -0.562   2.729   0.374  3.4158 -1.9534  1.2315
  201MOL0     H27091  -0.481   2.952   0.195  1.3278  0.7317  1.7596
  201MOL0     H27092  -0.563   2.965   0.339  2.4156  0.0408  0.2965
  201MOL0     H27093  -0.772   2.854   0.231  0.4067  0.5009  2.6224
  201MOL0     H27094  -0.674   2.827   0.092 -1.6760  1.4060 -0.9628
  201MOL0     H27095  -0.488   3.059  -0.001 -0.8954  1.5065  0.1451
  201MOL0     H27096  -0.430   2.923  -0.304 -2.4736  1.2532 -1.5869
  201MOL0     H27097  -0.395   3.088  -0.313  4.6659  0.4859  1.1742
  201MOL0     H27098  -0.358   3.010  -0.158 -0.5466 -1.4168 -0.2616
  201MOL0     H27099  -0.700   2.840  -0.676  0.2265 -0.6284 -1.4329
  201MOL0     H27100  -0.753   2.830  -0.907 -1.9896 -0.4461  0.5289
  201MOL0     H27101  -0.946   3.122  -1.217  0.0716  4.0213 -0.4710
  201MOL0     H27102  -1.012   3.178  -1.067 -0.7658 -2.5620  2.4341
  201MOL0     H27103  -0.777   3.235  -0.998  2.5784 -1.2932  0.8022
  201MOL0     H27104  -0.706   3.132  -1.118 -0.2620 -1.1528  1.8306
  201MOL0     H27105  -0.818   3.284  -1.298  0.9778 -3.8905  1.0016
  201MOL0     H27106  -0.694   3.364  -1.193 -0.9273  1.3723  3.3364
  201MOL0     H27107  -0.966   3.406  -1.083  1.3746  1.5050  1.9985
  201MOL0     H27108  -0.828   3.509  -1.095 -0.2851  2.8590 -2.4067
  201MOL0     H27109  -0.990   3.429  -1.335 -2.3415  0.5278  0.0975
  201MOL0     H27110  -0.838   3.526  -1.336 -0.7909  1.8494  0.2458
  201MOL0     H27111  -1.091   3.584  -1.183  0.8001  1.1694  1.2897
  201MOL0     H27112  -0.972   3.715  -1.202 -1.3836  1.5378  0.7906
  201MOL0     H27113  -1.109   3.593  -1.454  2.3455  0.7045 -1.5075
  201MOL0     H27114  -1.025   3.739  -1.443  1.1074 -0.0863  0.1848
  201MOL0     H27115  -1.255   3.788  -1.462  1.0436 -4.6170 -2.2710
  201MOL0     H27116  -1.207   3.835  -1.299  2.7079 -1.6367  0.5531
  201MOL0     H27117  -1.028   3.159  -0.859 -1.4404 -2.1454 -0.6753
  201MOL0     H27118  -0.991   3.160  -0.617  1.8725 -1.1759  1.8924
  201MOL0     H27119  -0.904   3.027  -0.266  0.2844 -1.7152  0.6669
  201MOL0     H27120  -0.916   3.018  -0.032 -0.8531  1.3723  1.3841
  201MOL0     H27121   0.641   2.171   0.659  3.0099  0.5764 -0.8899
  201MOL0     H27122   0.870   2.108   0.693 -0.4413 -0.5878 -2.6904
  201MOL0     H27123   1.173   1.711   0.738  1.4861 -3.5771  1.8732
  201MOL0     H27124   1.400   1.638   0.801  0.7328 -0.4597  1.2220
  201MOL0     H27125   1.632   1.833   0.834  0.6599  3.2106  1.8606
  201MOL0     H27126   1.669   1.884   0.990 -1.1548 -0.4034  0.2319
  201MOL0     H27127   1.765   1.617   0.895  0.5560  0.3489  0.4678
  201MOL0     H27128   1.776   1.680   1.054  0.7308  2.1902  0.8637
  201MOL0     H27129   1.927   1.869   0.934 -0.2553 -0.8737  2.3401
  201MOL0     H27130   1.885   1.774   0.782 -2.4144  2.8392  0.7370
  201MOL0     H27131   2.021   1.583   0.864 -0.2358 -0.8525  1.9589
  201MOL0     H27132   2.049   1.662   1.016  1.4905 -0.0818 -0.4670
  201MOL0     H27133   2.330   1.832   0.744 -0.9915 -0.4707 -1.5099
  201MOL0     H27134   1.427   1.906   1.114  1.1282  3.1641 -1.1108
  201MOL0     H27135   1.216   2.014   1.053 -0.9573  0.5692 -0.8211
  202MOL0     O27136   4.812   9.408   2.181  0.3807 -0.2418 -0.1366
  202MOL0     C27137   4.797   9.403   2.061  0.3030 -0.9304  0.0507
  202MOL0     O27138   4.682   9.369   1.989  0.4754  0.4093  0.2692
  202MOL0     C27139   4.569   9.304   2.035  0.5924  0.6836 -0.3700
  202MOL0     C27140   4.461   9.321   1.952 -0.3219 -0.0443 -0.0344
  202MOL0     C27141   4.342   9.250   1.987 -0.0859 -0.9356 -0.0290
  202MOL0     C27142   4.339   9.165   2.097  0.3940 -0.4927 -0.7981
  202MOL0     O27143   4.231   9.090   2.137  0.5069  0.0170  0.1433
  202MOL0     C27144   4.143   9.055   2.031 -0.0997 -0.1601  0.1578
  202MOL0     C27145   4.064   8.935   2.062  0.3023 -0.1112 -0.1183
  202MOL0     C27146   3.952   8.902   1.967  0.5682 -0.4504  0.3916
  202MOL0     C27147   3.816   8.945   2.036  0.0143  0.5852 -0.3292
  202MOL0     C27148   3.748   8.846   2.131 -0.1023  1.3623 -0.3711
  202MOL0     C27149   3.645   8.748   2.072 -0.8369  0.0254 -0.1491
  202MOL0     C27150   3.604   8.634   2.166 -0.2347  0.2529 -0.3695
  202MOL0     C27151   3.529   8.523   2.094  0.3268 -0.4452  0.4282
  202MOL0     N27152   3.405   8.568   2.023  0.3698  0.5648 -0.1892
  202MOL0     C27153   3.278   8.586   2.083 -0.1703  0.5143  0.6432
  202MOL0     C27154   3.202   8.605   1.971 -0.3656 -0.4464  0.1606
  202MOL0     C27155   3.058   8.632   1.964 -0.0784  0.2617 -0.0856
  202MOL0     C27156   2.966   8.562   2.061  0.1773  0.2693 -0.0019
  202MOL0     C27157   2.813   8.582   2.020 -0.5670 -0.6656 -0.5128
  202MOL0     C27158   2.711   8.498   2.081  0.2296  0.7391  0.5616
  202MOL0     O27159   2.571   8.530   2.042 -0.5500 -0.3509  0.5296
  202MOL0     C27160   2.472   8.470   2.111  0.3517 -0.1907 -0.9600
  202MOL0     C27161   2.478   8.362   2.199 -0.0097  1.6195  0.3071
  202MOL0     C27162   2.368   8.305   2.249  0.7617 -0.2183  0.0533
  202MOL0     C27163   2.390   8.196   2.360 -0.0196 -1.4597 -0.0482
  202MOL0     C27164   2.242   8.349   2.215  0.4112  0.6056 -0.7517
  202MOL0     C27165   2.118   8.290   2.261 -0.3604  0.1269 -0.4809
  202MOL0     O27166   2.004   8.336   2.208 -0.5592  0.0457  0.0614
  202MOL0     C27167   1.875   8.292   2.260  0.2375 -0.2064  0.3048
  202MOL0     C27168   1.844   8.180   2.332  0.1160  0.0960 -1.1033
  202MOL0     C27169   1.715   8.162   2.401  0.2920  0.1967  0.1554
  202MOL0     C27170   1.621   8.264   2.386  0.2643 -0.6227  0.7279
  202MOL0     O27171   1.492   8.255   2.443  0.6557  0.0170 -0.0022
  202MOL0     C27172   1.495   8.192   2.575  0.5599  0.7498 -0.5544
  202MOL0     C27173   1.374   8.245   2.655 -0.4543 -0.4223 -0.2706
  202MOL0     C27174   1.387   8.400   2.680 -0.2254  0.4607  0.2486
  202MOL0     C27175   1.270   8.462   2.762  0.0540 -0.6056  0.8531
  202MOL0     C27176   1.282   8.618   2.781 -0.1497 -0.3993 -1.6559
  202MOL0     C27177   1.162   8.676   2.859 -0.0876  0.7213  0.1586
  202MOL0     C27178   1.058   8.764   2.778 -0.4413 -0.2118  0.0476
  202MOL0     C27179   0.974   8.853   2.866 -0.6086 -0.0374  0.1411
  202MOL0    Cl27180   1.062   9.003   2.917  0.1178  0.2913 -0.0077
  202MOL0     C27181   1.653   8.367   2.300  0.3017 -0.4415  0.3519
  202MOL0     C27182   1.777   8.387   2.241  0.3370 -0.0700  0.0158
  202MOL0     O27183   2.126   8.226   2.366  0.2565 -0.2111 -0.7547
  202MOL0     C27184   2.233   8.466   2.131  0.6588  0.1300  0.0681
  202MOL0     C27185   2.348   8.520   2.086  0.6242  0.1915  1.0155
  202MOL0     N27186   3.275   8.616   1.855 -0.1343  0.4418 -0.3217
  202MOL0     N27187   3.397   8.592   1.889  0.2366  0.1743 -0.5693
  202MOL0     C27188   4.447   9.158   2.180 -0.3351 -0.5553 -0.3803
  202MOL0     C27189   4.565   9.220   2.145 -0.3155  0.0612  0.3052
  202MOL0     C27190   4.913   9.441   1.974 -0.1612  0.8478  0.0123
  202MOL0     C27191   4.891   9.450   1.830 -0.0530  0.2675  0.2712
  202MOL0     C27192   4.982   9.513   1.750 -0.5310  0.8725  1.3582
  202MOL0     C27193   5.097   9.565   1.809 -0.3656  0.3332  0.2168
  202MOL0     O27194   5.179   9.628   1.725 -0.2198  0.6806 -0.1551
  202MOL0     C27195   5.312   9.684   1.761  1.0686 -0.0308 -0.5073
  202MOL0     C27196   5.398   9.710   1.634 -0.6713 -0.3348  0.2347
  202MOL0     C27197   5.541   9.767   1.664 -0.5933  0.6343  0.6036
  202MOL0     C27198   5.611   9.788   1.527  0.1100  0.1161 -1.5166
  202MOL0     C27199   5.718   9.882   1.554  0.1289 -0.0232  0.1312
  202MOL0     C27200   5.820   9.953   1.571  0.1784  0.1173  0.1718
  202MOL0     C27201   5.128   9.545   1.940 -1.0013 -1.2968 -1.3529
  202MOL0     C27202   5.035   9.484   2.029 -0.5672 -0.5379 -1.1323
  202MOL0     H27203   4.468   9.377   1.860  3.1796 -0.7847 -0.3334
  202MOL0     H27204   4.254   9.281   1.930  0.1505  5.4291  2.2179
  202MOL0     H27205   4.080   9.142   2.011  0.8604  0.1871 -1.5807
  202MOL0     H27206   4.201   9.037   1.939  0.0190 -3.6584  0.7893
  202MOL0     H27207   4.132   8.852   2.082  0.5415 -0.0584 -0.7011
  202MOL0     H27208   4.021   8.954   2.161  1.6227 -0.3797  0.5230
  202MOL0     H27209   3.971   8.959   1.876 -0.3244  0.3538  0.6838
  202MOL0     H27210   3.938   8.796   1.948 -2.1258 -0.6526  2.7991
  202MOL0     H27211   3.830   9.044   2.080  2.0554  1.3684 -2.5126
  202MOL0     H27212   3.732   8.962   1.968 -1.8038  1.3878  1.9961
  202MOL0     H27213   3.827   8.796   2.187 -1.5468  0.0359  0.5494
  202MOL0     H27214   3.691   8.905   2.203 -1.5834  0.3828 -0.7026
  202MOL0     H27215   3.560   8.812   2.047  1.1578  2.6490 -0.5215
  202MOL0     H27216   3.693   8.709   1.982 -1.7647  1.3624 -1.2504
  202MOL0     H27217   3.687   8.583   2.216  0.6028  2.0439  0.1237
  202MOL0     H27218   3.555   8.678   2.252 -0.2027  0.6635 -0.5595
  202MOL0     H27219   3.499   8.444   2.162 -1.0202  0.3691  0.8379
  202MOL0     H27220   3.598   8.488   2.017 -2.9994 -0.7564 -2.6973
  202MOL0     H27221   3.238   8.578   2.184 -2.1845 -0.0482 -0.1459
  202MOL0     H27222   3.050   8.738   1.991  3.1282 -0.4452  4.9865
  202MOL0     H27223   3.022   8.613   1.863  0.2333 -0.3993 -0.0759
  202MOL0     H27224   2.980   8.577   2.168 -1.0592 -1.7554  0.5067
  202MOL0     H27225   3.005   8.461   2.045  1.9168  0.7330  1.0448
  202MOL0     H27226   2.813   8.563   1.912 -0.4916  0.9017 -0.8198
  202MOL0     H27227   2.788   8.688   2.033 -0.0274 -0.8215  2.3838
  202MOL0     H27228   2.722   8.501   2.190  2.2674  0.3807  0.4036
  202MOL0     H27229   2.726   8.395   2.046 -4.7306  0.3227 -1.1466
  202MOL0     H27230   2.576   8.330   2.235 -0.5537  0.6238  0.9273
  202MOL0     H27231   2.355   8.096   2.332 -2.9043 -0.8599  1.0437
  202MOL0     H27232   2.489   8.196   2.406 -0.5368  1.9764  1.3181
  202MOL0     H27233   2.337   8.218   2.453 -0.0549 -2.1137  0.0913
  202MOL0     H27234   1.908   8.096   2.355 -2.7297 -1.3296  2.5837
  202MOL0     H27235   1.700   8.079   2.469 -2.2702 -0.2767 -0.9048
  202MOL0     H27236   1.483   8.084   2.573 -2.0290  0.9490 -3.0891
  202MOL0     H27237   1.586   8.212   2.632 -0.9489 -1.9145  3.1752
  202MOL0     H27238   1.283   8.237   2.595 -0.5565  1.6293 -0.4389
  202MOL0     H27239   1.363   8.196   2.753 -0.4059  4.1698  2.3262
  202MOL0     H27240   1.414   8.449   2.586  0.4041 -0.3891 -0.0286
  202MOL0     H27241   1.477   8.414   2.741  0.0816  1.5211 -0.4116
  202MOL0     H27242   1.186   8.435   2.698  0.6078 -0.6046  0.1184
  202MOL0     H27243   1.254   8.406   2.855 -3.1575 -0.5312  0.4485
  202MOL0     H27244   1.306   8.670   2.688  3.5250  2.3804  0.5591
  202MOL0     H27245   1.373   8.631   2.840 -0.2453 -0.1885 -1.5547
  202MOL0     H27246   1.118   8.600   2.923  0.9371 -0.8353 -0.9053
  202MOL0     H27247   1.205   8.744   2.933 -0.8975  0.6709  0.6876
  202MOL0     H27248   0.993   8.700   2.717  1.7930 -2.1482 -0.4189
  202MOL0     H27249   1.121   8.826   2.714  1.3733 -0.3922  1.5959
  202MOL0     H27250   0.952   8.787   2.950 -1.0491  2.7139  2.3477
  202MOL0     H27251   0.880   8.893   2.828  0.7828  1.7084 -1.7122
  202MOL0     H27252   1.579   8.445   2.285  0.4816  0.0490  1.8554
  202MOL0     H27253   1.793   8.483   2.193 -0.6324  0.9776  1.6933
  202MOL0     H27254   2.133   8.488   2.095  1.0100 -0.9604 -1.7005
  202MOL0     H27255   2.348   8.615   2.033 -0.4765  0.2911  1.1705
  202MOL0     H27256   4.443   9.107   2.276 -1.0922  1.8793  0.9690
  202MOL0     H27257   4.660   9.224   2.199  1.9658  3.4184 -3.3628
  202MOL0     H27258   4.798   9.417   1.785 -0.1639  0.8485  0.0719
  202MOL0     H27259   4.964   9.540   1.646  0.0848 -0.6804  0.8267
  202MOL0     H27260   5.299   9.778   1.815 -0.6131  0.6183 -1.9435
  202MOL0     H27261   5.364   9.617   1.830 -3.7994 -0.2963  3.5037
  202MOL0     H27262   5.338   9.776   1.572 -0.6857  1.1862  1.7861
  202MOL0     H27263   5.419   9.612   1.589  3.0813  0.7599 -0.7542
  202MOL0     H27264   5.601   9.700   1.727 -0.6462 -0.2737 -0.3020
  202MOL0     H27265   5.530   9.869   1.703 -0.9240  0.9554 -0.3076
  202MOL0     H27266   5.536   9.821   1.454 -0.4120 -1.6446 -1.8083
  202MOL0     H27267   5.648   9.690   1.496  1.8032  0.8264 -1.9008
  202MOL0     H27268   5.902  10.022   1.575 -0.6940  1.4431 -2.2312
  202MOL0     H27269   5.226   9.567   1.981 -1.0418 -3.0216 -0.2335
  202MOL0     H27270   5.059   9.467   2.133 -2.9207  1.7490 -0.1199
  203MOL0     O27271  10.585   0.926  10.451 -0.3118  0.1964  0.3314
  203MOL0     C27272  10.695   0.893  10.496  0.3177 -0.5811 -0.5989
  203MOL0     O27273  10.722   0.875  10.636  0.1000 -0.1520 -0.1407
  203MOL0     C27274  10.622   0.905  10.725  0.1767  0.6883 -0.4105
  203MOL0     C27275  10.628   1.012  10.816  0.1265  0.5062  1.2119
  203MOL0     C27276  10.530   1.035  10.909 -0.3922  0.9832  0.2608
  203MOL0     C27277  10.434   0.940  10.933 -0.4473  0.4868  1.2874
  203MOL0     O27278  10.332   0.945  11.029 -0.5273  0.2872 -0.5970
  203MOL0     C27279  10.391   0.988  11.158 -0.1567  0.3237  0.6551
  203MOL0     C27280  10.326   0.913  11.275  0.9447 -0.8508 -0.2952
  203MOL0     C27281  10.342   0.759  11.263  0.1340 -0.4379  0.1228
  203MOL0     C27282  10.483   0.705  11.255 -0.0305  0.6399 -0.5663
  203MOL0     C27283  10.472   0.542  11.275  0.3800  0.4566 -0.6830
  203MOL0     C27284  10.603   0.459  11.265  0.7461 -0.0759 -0.3799
  203MOL0     C27285  10.624   0.417  11.120  0.3780 -0.7189  0.8748
  203MOL0     C27286  10.642   0.527  11.005 -0.0208  0.1636 -0.3421
  203MOL0     N27287  10.752   0.618  11.039  1.1187 -0.4094  0.2298
  203MOL0     C27288  10.757   0.757  11.021  0.0269 -0.0915 -0.0769
  203MOL0     C27289  10.877   0.801  11.055 -0.0680 -0.0046  0.1732
  203MOL0     C27290  10.920   0.949  11.066  1.2750 -0.2652  0.6167
  203MOL0     C27291  10.863   1.019  11.190 -0.0095  0.6163 -0.1559
  203MOL0     C27292  10.878   0.942  11.324  0.5644 -0.1650 -0.0061
  203MOL0     C27293  11.019   0.916  11.369  0.1855 -0.5567 -0.0955
  203MOL0     O27294  11.092   1.038  11.394  0.1410 -0.4291 -0.6230
  203MOL0     C27295  11.205   1.032  11.466 -0.8189  0.9391 -0.3041
  203MOL0     C27296  11.262   1.148  11.507  0.0945 -0.8385  0.3022
  203MOL0     C27297  11.387   1.158  11.568 -0.4037 -0.3198  0.1872
  203MOL0     C27298  11.424   1.299  11.601 -0.4069  0.3881 -0.6052
  203MOL0     C27299  11.465   1.037  11.601  0.5388 -0.5079  0.1676
  203MOL0     C27300  11.592   1.026  11.673  0.8672 -0.9498 -0.0130
  203MOL0     O27301  11.650   0.902  11.665 -0.0608  0.1074 -0.0412
  203MOL0     C27302  11.765   0.889  11.742 -0.3102 -0.0028  0.2299
  203MOL0     C27303  11.769   0.904  11.880 -0.1944  0.3048 -0.3467
  203MOL0     C27304  11.884   0.867  11.954  0.5036  0.0482 -0.1491
  203MOL0     C27305  12.000   0.827  11.889  0.2516  1.2640  0.1284
  203MOL0     O27306  12.121   0.805  11.956  0.2513 -0.2180  0.3014
  203MOL0     C27307  12.242   0.846  11.893  0.3724  1.1621  0.3174
  203MOL0     C27308  12.336   0.881  12.001  0.3651  0.3385 -0.1202
  203MOL0     C27309  12.465   0.924  11.937 -0.0694 -0.5723 -0.1532
  203MOL0     C27310  12.586   0.829  11.964 -0.7799  0.4682  0.6048
  203MOL0     C27311  12.701   0.828  11.855  0.5223  0.4336 -0.9133
  203MOL0     C27312  12.826   0.788  11.932 -0.8377 -0.0533  0.2307
  203MOL0     C27313  12.948   0.787  11.836  0.0525  0.7277  0.5674
  203MOL0     C27314  13.078   0.773  11.911  1.1323  0.2753  0.0460
  203MOL0    Cl27315  13.214   0.772  11.789 -0.0520 -0.0066  0.3191
  203MOL0     C27316  11.998   0.826  11.749  0.7407 -0.5253  0.4284
  203MOL0     C27317  11.884   0.851  11.675  0.5262  0.6390 -0.3308
  203MOL0     O27318  11.647   1.129  11.703  0.3791 -0.4260 -0.1388
  203MOL0     C27319  11.405   0.915  11.555  0.1817  0.1175  0.1942
  203MOL0     C27320  11.290   0.910  11.482  0.0038 -0.9623  0.5374
  203MOL0     N27321  10.950   0.689  11.111  0.3388 -0.4946 -0.6181
  203MOL0     N27322  10.874   0.585  11.093 -0.2621 -0.0699  0.6504
  203MOL0     C27323  10.434   0.820  10.864 -0.4487  0.7172 -0.2074
  203MOL0     C27324  10.539   0.793  10.761  0.7672 -1.7725 -0.2009
  203MOL0     C27325  10.810   0.873  10.414  0.9599  0.4387  0.4522
  203MOL0     C27326  10.792   0.848  10.278 -0.6894  0.7601  0.1353
  203MOL0     C27327  10.903   0.819  10.197  0.1898 -0.3850  0.5310
  203MOL0     C27328  11.033   0.801  10.258 -0.2016 -0.2334 -0.8825
  203MOL0     O27329  11.142   0.746  10.210  0.0683 -0.1673  0.8431
  203MOL0     C27330  11.146   0.731  10.071  0.3802  0.0766  0.2484
  203MOL0     C27331  11.168   0.856   9.986 -0.5001  0.8666  0.0531
  203MOL0     C27332  11.284   0.941  10.035 -0.1418 -1.0746  0.1892
  203MOL0     C27333  11.285   1.066   9.932  0.2075  0.1072 -0.5208
  203MOL0     C27334  11.389   1.161   9.962  0.4865  0.7720 -0.6772
  203MOL0     C27335  11.473   1.247   9.984  0.3936 -0.3815  0.5048
  203MOL0     C27336  11.047   0.841  10.397 -0.4054  0.3864 -0.1640
  203MOL0     C27337  10.936   0.874  10.470  0.3766  0.3786 -0.0219
  203MOL0     H27338  10.695   1.096  10.802 -1.8900  2.0742  0.4720
  203MOL0     H27339  10.521   1.130  10.960 -3.5183  1.5683 -1.1695
  203MOL0     H27340  10.498   0.966  11.161  0.2332  2.1332  2.9942
  203MOL0     H27341  10.368   1.093  11.176  0.8913  1.0159 -1.6157
  203MOL0     H27342  10.373   0.949  11.367  0.2648 -1.2328  0.2108
  203MOL0     H27343  10.221   0.942  11.270  0.6443 -1.6478  0.8503
  203MOL0     H27344  10.302   0.715  11.355 -1.8009  2.1167  0.6122
  203MOL0     H27345  10.279   0.716  11.185  1.4539 -0.7446 -0.8115
  203MOL0     H27346  10.538   0.724  11.162 -0.1423 -2.5899 -1.4018
  203MOL0     H27347  10.535   0.757  11.336 -0.8443  3.4680 -1.7309
  203MOL0     H27348  10.431   0.531  11.376  0.2750  2.8933 -0.4033
  203MOL0     H27349  10.399   0.503  11.203 -0.5614 -2.6977  1.7412
  203MOL0     H27350  10.685   0.521  11.303  1.0948 -1.6731  1.6684
  203MOL0     H27351  10.588   0.373  11.331 -0.3948  1.9353  2.1577
  203MOL0     H27352  10.715   0.355  11.122  0.7631 -0.1341  1.6243
  203MOL0     H27353  10.534   0.364  11.086 -2.1457  2.2364  2.4591
  203MOL0     H27354  10.550   0.584  10.990 -1.9703 -2.8355 -0.7579
  203MOL0     H27355  10.657   0.478  10.909 -3.4441 -1.5305 -0.1618
  203MOL0     H27356  10.672   0.822  11.001  2.1816  2.7842 -0.4323
  203MOL0     H27357  11.029   0.953  11.067  1.3031 -0.5971 -0.2819
  203MOL0     H27358  10.888   1.007  10.979 -0.2970 -2.1356 -0.1294
  203MOL0     H27359  10.755   1.032  11.180 -0.4331 -1.3166  1.2005
  203MOL0     H27360  10.900   1.121  11.202 -1.9343  1.3630 -0.2553
  203MOL0     H27361  10.830   0.844  11.331  1.0586 -0.4648 -0.7008
  203MOL0     H27362  10.831   1.007  11.399  0.4179  0.7820 -0.9028
  203MOL0     H27363  11.071   0.848  11.301 -0.8176 -1.8035  0.3385
  203MOL0     H27364  11.012   0.872  11.469  1.9223 -2.3362 -0.7020
  203MOL0     H27365  11.209   1.240  11.484  1.9055  0.3278  0.6504
  203MOL0     H27366  11.341   1.332  11.664 -0.0834 -1.6746  1.0030
  203MOL0     H27367  11.522   1.320  11.646 -0.6472 -0.3400  0.2777
  203MOL0     H27368  11.411   1.365  11.515 -1.3027  1.6323  0.4419
  203MOL0     H27369  11.681   0.943  11.930 -0.6765  0.0861 -1.0023
  203MOL0     H27370  11.882   0.860  12.063  0.1113 -3.0329 -0.2510
  203MOL0     H27371  12.276   0.774  11.818 -1.8304  2.4396 -2.0974
  203MOL0     H27372  12.222   0.935  11.832  2.6548  0.7742 -1.1279
  203MOL0     H27373  12.284   0.962  12.054 -1.6048 -0.7747 -0.2538
  203MOL0     H27374  12.346   0.800  12.073 -2.4305  0.3623  0.4306
  203MOL0     H27375  12.496   1.020  11.980  0.5807 -0.8599  0.0366
  203MOL0     H27376  12.453   0.942  11.830  1.9050 -2.2922 -0.7253
  203MOL0     H27377  12.631   0.851  12.061  1.8686 -1.0019 -0.1899
  203MOL0     H27378  12.554   0.725  11.978 -0.9687  0.5314  0.6501
  203MOL0     H27379  12.705   0.934  11.825  0.4183  1.0195  0.9816
  203MOL0     H27380  12.688   0.766  11.766  2.0489 -0.7752 -0.3327
  203MOL0     H27381  12.843   0.856  12.017 -3.3280  1.7237 -0.5600
  203MOL0     H27382  12.819   0.687  11.973 -1.2422 -0.1818 -0.1500
  203MOL0     H27383  12.951   0.882  11.783  1.2349 -0.3840 -1.4964
  203MOL0     H27384  12.954   0.704  11.764 -0.0855 -0.1743  1.5664
  203MOL0     H27385  13.066   0.683  11.971  1.9976 -1.2965 -2.0475
  203MOL0     H27386  13.082   0.860  11.978 -0.4413 -0.6139  1.3590
  203MOL0     H27387  12.074   0.810  11.673 -2.2030 -1.0028 -2.6412
  203MOL0     H27388  11.883   0.839  11.567 -0.5476  0.2738 -0.3019
  203MOL0     H27389  11.466   0.825  11.548  0.7007  0.5606 -1.7586
  203MOL0     H27390  11.247   0.825  11.430 -1.9829 -0.4267  1.2204
  203MOL0     H27391  10.348   0.760  10.889 -1.7336  1.7874 -1.8517
  203MOL0     H27392  10.538   0.701  10.703  0.5675 -0.4450 -2.4327
  203MOL0     H27393  10.697   0.851  10.226 -1.2426  0.5611  1.1045
  203MOL0     H27394  10.881   0.798  10.093  1.4783  2.9538 -0.5544
  203MOL0     H27395  11.223   0.662  10.034  2.8714  2.4742  0.6285
  203MOL0     H27396  11.048   0.695  10.037 -0.4915  2.2219  0.3518
  203MOL0     H27397  11.076   0.915   9.991  0.8186  3.0717 -0.2540
  203MOL0     H27398  11.184   0.818   9.885  1.8537 -2.2538  1.4393
  203MOL0     H27399  11.379   0.888  10.043 -0.4134 -1.6941 -0.6158
  203MOL0     H27400  11.267   0.976  10.137  2.8061 -0.2585  0.5003
  203MOL0     H27401  11.188   1.113   9.950  0.4677  1.9049 -3.1579
  203MOL0     H27402  11.298   1.023   9.832  2.3705 -0.7474  0.0704
  203MOL0     H27403  11.544   1.326  10.005  1.6113 -1.5462  0.9273
  203MOL0     H27404  11.144   0.832  10.445 -0.2312  1.7985 -0.2239
  203MOL0     H27405  10.959   0.882  10.576 -3.4710  0.6085  0.9263
  204MOL0     O27406   9.338  10.160  11.011 -0.2602 -0.1825 -0.0940
  204MOL0     C27407   9.426  10.163  10.926 -0.1710  0.5264  0.5073
  204MOL0     O27408   9.479  10.273  10.866 -0.3921 -0.9778 -0.5540
  204MOL0     C27409   9.453  10.404  10.905 -0.0407 -0.2284 -0.1553
  204MOL0     C27410   9.544  10.504  10.880 -0.1065 -0.2946 -0.3433
  204MOL0     C27411   9.506  10.638  10.893 -1.0217  0.6306 -0.0384
  204MOL0     C27412   9.379  10.681  10.944  0.1436 -0.4868  0.1600
  204MOL0     O27413   9.343  10.814  10.937 -0.1627 -0.5817  0.0528
  204MOL0     C27414   9.236  10.856  11.023 -1.0796  0.3707  1.3344
  204MOL0     C27415   9.235  11.005  11.046  0.0146 -0.7592  0.8576
  204MOL0     C27416   9.134  11.064  11.150  0.0614 -0.8774 -0.5986
  204MOL0     C27417   8.991  11.032  11.109 -0.0766 -0.1251  0.7561
  204MOL0     C27418   8.879  11.093  11.196  0.3955  1.2394  0.1254
  204MOL0     C27419   8.745  11.024  11.143  0.7685 -0.5273  0.1577
  204MOL0     C27420   8.640  11.082  11.239 -0.9094 -0.3774  0.2513
  204MOL0     C27421   8.500  11.026  11.210 -0.6143 -0.7773  0.2790
  204MOL0     N27422   8.401  11.095  11.294 -0.0389 -0.2020 -0.5915
  204MOL0     C27423   8.335  11.054  11.407  0.0774 -0.4958  1.0688
  204MOL0     C27424   8.254  11.162  11.440  0.1326 -0.9498  0.1520
  204MOL0     C27425   8.162  11.178  11.553  0.4802  0.2438  0.0499
  204MOL0     C27426   8.018  11.140  11.502 -0.1932 -0.4351 -0.4902
  204MOL0     C27427   8.012  10.994  11.465 -0.6082 -0.2956 -0.3232
  204MOL0     C27428   7.867  10.957  11.417  0.9848  0.5430  0.2672
  204MOL0     O27429   7.782  10.968  11.528  0.6097  0.3503  0.3920
  204MOL0     C27430   7.652  10.905  11.531 -0.2213  0.3768 -0.3877
  204MOL0     C27431   7.577  10.922  11.654  0.0501 -0.2666 -0.7095
  204MOL0     C27432   7.449  10.857  11.678  0.3879  0.6548  0.9230
  204MOL0     C27433   7.375  10.885  11.812  0.2969  0.2221 -0.0072
  204MOL0     C27434   7.384  10.807  11.560  0.3187  0.1696  0.3850
  204MOL0     C27435   7.242  10.771  11.567  0.2616  0.4274  0.2242
  204MOL0     O27436   7.161  10.786  11.451 -0.3672  0.2137 -0.2306
  204MOL0     C27437   7.029  10.766  11.469 -0.9124  0.3663  0.7007
  204MOL0     C27438   6.968  10.663  11.404 -0.3142  0.8237 -1.3128
  204MOL0     C27439   6.824  10.653  11.417 -0.5561 -0.1269  0.6783
  204MOL0     C27440   6.751  10.749  11.481  0.1489 -0.2769  0.6334
  204MOL0     O27441   6.614  10.715  11.504  0.0732  0.2808  0.2191
  204MOL0     C27442   6.538  10.827  11.551  0.1275  0.5040 -1.4552
  204MOL0     C27443   6.393  10.807  11.526  0.0235 -0.4506 -0.5305
  204MOL0     C27444   6.309  10.893  11.617  1.1740 -0.1484 -0.0981
  204MOL0     C27445   6.314  11.049  11.592  0.1887  0.5688 -0.1001
  204MOL0     C27446   6.209  11.120  11.668  0.2992 -0.5066  0.5262
  204MOL0     C27447   6.189  11.263  11.611 -0.1577  0.0720  0.2996
  204MOL0     C27448   6.115  11.361  11.695 -0.6748  1.0375  0.2635
  204MOL0     C27449   6.088  11.491  11.625 -0.6331 -0.0265  0.5749
  204MOL0    Cl27450   6.230  11.580  11.582  0.0648  0.3024 -0.1855
  204MOL0     C27451   6.825  10.857  11.550  0.3620  0.4125  0.3935
  204MOL0     C27452   6.959  10.863  11.543  0.4429  0.2199 -0.0295
  204MOL0     O27453   7.197  10.716  11.668  1.0209  0.0528 -0.3175
  204MOL0     C27454   7.454  10.805  11.435  0.2321 -0.2802 -0.4503
  204MOL0     C27455   7.589  10.846  11.426  0.2665 -0.6858  0.2052
  204MOL0     N27456   8.272  11.259  11.343  0.2064  0.3506  0.8727
  204MOL0     N27457   8.354  11.217  11.251 -0.2294  0.1297 -0.2343
  204MOL0     C27458   9.287  10.582  10.959  0.3544 -0.1579  0.4388
  204MOL0     C27459   9.324  10.444  10.946  0.0173 -0.1342  0.1323
  204MOL0     C27460   9.472  10.029  10.875  0.0247 -0.5471  0.2028
  204MOL0     C27461   9.398   9.909  10.899  0.2378  0.2759 -0.1453
  204MOL0     C27462   9.429   9.790  10.827 -0.7978  0.5306 -0.4557
  204MOL0     C27463   9.539   9.778  10.738 -0.5979  0.0299 -0.4783
  204MOL0     O27464   9.575   9.666  10.668  0.1289  0.2554 -0.6824
  204MOL0     C27465   9.504   9.544  10.685  0.1735  1.0089  0.1652
  204MOL0     C27466   9.367   9.545  10.620 -0.6291 -0.5916  1.2484
  204MOL0     C27467   9.286   9.420  10.652  0.6782 -0.6330 -0.5367
  204MOL0     C27468   9.258   9.407  10.801 -0.0106  0.3805 -0.0605
  204MOL0     C27469   9.125   9.347  10.821  0.1049 -1.0112 -0.7583
  204MOL0     C27470   9.008   9.320  10.835  1.1092 -0.3010  1.2280
  204MOL0     C27471   9.613   9.897  10.719  0.7033 -0.9630  0.0380
  204MOL0     C27472   9.582  10.020  10.782  0.1337  0.0412 -0.6276
  204MOL0     H27473   9.642  10.482  10.838  0.0572  3.8411 -2.6982
  204MOL0     H27474   9.584  10.709  10.868  0.9370 -2.3421 -3.3701
  204MOL0     H27475   9.137  10.822  10.989 -0.7998 -0.6732  1.5479
  204MOL0     H27476   9.254  10.814  11.122 -3.6629 -1.5045  1.1322
  204MOL0     H27477   9.335  11.034  11.079  0.6236 -1.7746 -0.0310
  204MOL0     H27478   9.218  11.060  10.952 -1.1316 -0.9062  0.9735
  204MOL0     H27479   9.146  11.022  11.251 -1.1640 -1.1453 -0.5407
  204MOL0     H27480   9.141  11.171  11.173 -2.0310 -0.9398  0.6886
  204MOL0     H27481   8.984  11.081  11.011 -2.9699 -1.8745 -0.0446
  204MOL0     H27482   8.966  10.927  11.092  2.9128 -0.5586 -1.6633
  204MOL0     H27483   8.901  11.064  11.299  1.2368 -1.6510 -0.7867
  204MOL0     H27484   8.865  11.201  11.188 -0.0978  1.1022 -1.1230
  204MOL0     H27485   8.706  11.056  11.046  2.7994  2.9178  0.3040
  204MOL0     H27486   8.733  10.915  11.137 -2.0589 -0.2943  0.6391
  204MOL0     H27487   8.671  11.068  11.343  1.0087  1.1970 -0.0382
  204MOL0     H27488   8.639  11.189  11.215 -2.1176 -0.4081  0.0934
  204MOL0     H27489   8.507  10.921  11.239  5.1773 -0.7192  0.3174
  204MOL0     H27490   8.481  11.024  11.102  3.7134  0.4617 -0.7130
  204MOL0     H27491   8.361  10.966  11.464  1.6265 -2.6607 -2.6222
  204MOL0     H27492   8.179  11.113  11.639  1.2980 -0.8012 -0.8757
  204MOL0     H27493   8.172  11.278  11.597 -0.7941  0.7651 -0.7629
  204MOL0     H27494   7.993  11.203  11.416 -0.3477 -1.3786 -1.1471
  204MOL0     H27495   7.940  11.159  11.577  1.2282  2.4240  0.4009
  204MOL0     H27496   8.046  10.933  11.549 -1.4278  1.5782  1.4616
  204MOL0     H27497   8.082  10.970  11.384 -0.4232 -2.7679  0.4904
  204MOL0     H27498   7.869  10.860  11.368 -1.5340  0.5351  0.0599
  204MOL0     H27499   7.835  11.025  11.337 -1.7788  0.6116  1.3093
  204MOL0     H27500   7.631  10.985  11.724  1.4088  1.3445 -3.0521
  204MOL0     H27501   7.342  10.790  11.854 -3.4922  2.0439  1.5699
  204MOL0     H27502   7.428  10.959  11.873  1.0336  0.1445 -0.5422
  204MOL0     H27503   7.279  10.928  11.782  0.6462  2.1665  1.4274
  204MOL0     H27504   7.023  10.580  11.359 -1.3728 -0.4705 -0.2802
  204MOL0     H27505   6.775  10.563  11.380  4.3735 -2.6089 -0.7775
  204MOL0     H27506   6.543  10.830  11.661 -1.1701 -3.3083 -1.1152
  204MOL0     H27507   6.569  10.928  11.524  1.6550  0.7211  0.7896
  204MOL0     H27508   6.373  10.834  11.422  0.0042  0.7337 -0.2274
  204MOL0     H27509   6.359  10.703  11.532 -0.8295 -0.1133  1.0336
  204MOL0     H27510   6.327  10.874  11.723 -3.5043  0.5231  1.0534
  204MOL0     H27511   6.210  10.863  11.581 -0.8483  2.0014  3.0400
  204MOL0     H27512   6.409  11.089  11.628 -0.6147  0.4459  2.3712
  204MOL0     H27513   6.308  11.064  11.484 -1.7301 -1.5027 -0.3481
  204MOL0     H27514   6.241  11.132  11.772  2.8023 -0.0050 -0.2562
  204MOL0     H27515   6.115  11.064  11.671 -0.5363  0.8892  1.9396
  204MOL0     H27516   6.278  11.322  11.589 -2.6111  3.6761 -0.9553
  204MOL0     H27517   6.139  11.254  11.514  1.4133  1.9500 -0.7637
  204MOL0     H27518   6.172  11.368  11.788  0.9111 -1.1542 -0.4775
  204MOL0     H27519   6.026  11.312  11.736  0.7847 -1.7800  0.2970
  204MOL0     H27520   6.025  11.558  11.685  0.8347  2.2535 -0.3085
  204MOL0     H27521   6.034  11.465  11.533  2.6749 -1.2972 -1.1900
  204MOL0     H27522   6.771  10.932  11.607  2.4973  1.8185  0.6779
  204MOL0     H27523   7.002  10.944  11.602  2.4238 -0.8274  0.0715
  204MOL0     H27524   7.400  10.771  11.348 -0.1512  1.5004 -0.9536
  204MOL0     H27525   7.630  10.832  11.326  1.1624  2.5940  0.0010
  204MOL0     H27526   9.180  10.599  10.969  0.1813  0.4091 -1.7917
  204MOL0     H27527   9.239  10.377  10.955 -1.3056  1.4868  0.3391
  204MOL0     H27528   9.311   9.920  10.963 -0.1397  1.8395 -0.8854
  204MOL0     H27529   9.376   9.696  10.841 -1.8679  1.2053  0.1869
  204MOL0     H27530   9.565   9.466  10.639 -0.6824 -0.5743  1.5942
  204MOL0     H27531   9.498   9.502  10.786  0.1295 -0.0626 -0.2762
  204MOL0     H27532   9.379   9.555  10.511 -0.4600 -1.5250  1.1740
  204MOL0     H27533   9.304   9.631  10.643 -0.9423 -0.1685 -0.9659
  204MOL0     H27534   9.342   9.335  10.611 -0.0087 -1.5882  0.4296
  204MOL0     H27535   9.195   9.426  10.592  2.4948 -0.2956 -3.4387
  204MOL0     H27536   9.264   9.503  10.852 -0.7657  0.3169  0.1510
  204MOL0     H27537   9.335   9.340  10.840 -0.9956 -1.8251 -1.6629
  204MOL0     H27538   8.903   9.305  10.849  0.5648 -0.7629 -2.4462
  204MOL0     H27539   9.707   9.896  10.666  0.3761 -1.2456 -0.5500
  204MOL0     H27540   9.649  10.102  10.758  1.6923 -1.8727 -3.4392
  205MOL0     O27541   3.720   1.904   2.236 -0.1913 -0.1317  0.3960
  205MOL0     C27542   3.740   1.850   2.122  0.3783 -0.3817 -0.3921
  205MOL0     O27543   3.648   1.781   2.050  0.0163 -0.0371 -0.4735
  205MOL0     C27544   3.515   1.793   2.081 -0.3974  0.3303  0.3647
  205MOL0     C27545   3.443   1.686   2.033 -0.6799 -0.8452 -0.3191
  205MOL0     C27546   3.306   1.671   2.056  0.0788 -0.3269 -0.2848
  205MOL0     C27547   3.234   1.770   2.130 -0.2423  0.2242 -0.4983
  205MOL0     O27548   3.102   1.777   2.152  0.7303 -0.7072  0.3417
  205MOL0     C27549   3.030   1.658   2.181  0.1862 -0.4202  0.1259
  205MOL0     C27550   2.894   1.707   2.227  0.5766 -0.1458 -1.3979
  205MOL0     C27551   2.794   1.593   2.245 -0.0976  0.6937 -0.1294
  205MOL0     C27552   2.662   1.648   2.303 -0.9094 -0.5584 -0.5025
  205MOL0     C27553   2.574   1.536   2.358  0.2766 -0.2582 -0.3062
  205MOL0     C27554   2.479   1.484   2.244  0.1060 -0.0564  0.2391
  205MOL0     C27555   2.404   1.360   2.303 -0.1210  0.3510  0.0774
  205MOL0     C27556   2.277   1.334   2.221 -0.1248  0.4992 -0.1530
  205MOL0     N27557   2.186   1.243   2.295 -0.7195 -0.6111  0.9375
  205MOL0     C27558   2.096   1.275   2.391  0.3355 -0.6722  0.0475
  205MOL0     C27559   2.049   1.159   2.444 -1.4105 -1.1559  0.7908
  205MOL0     C27560   1.958   1.154   2.571 -0.1513  0.1105  0.0315
  205MOL0     C27561   1.830   1.238   2.551 -0.1437  0.0475 -1.0761
  205MOL0     C27562   1.756   1.183   2.417 -0.9239  0.0027 -1.2655
  205MOL0     C27563   1.713   1.032   2.415 -0.3221 -0.1776  0.3577
  205MOL0     O27564   1.657   0.993   2.546 -0.1539 -0.8758  0.3938
  205MOL0     C27565   1.527   1.023   2.577 -0.2301  0.3905  0.4996
  205MOL0     C27566   1.482   0.970   2.699 -0.8033  0.5637  0.7161
  205MOL0     C27567   1.355   0.984   2.735 -0.1998 -1.0162  0.1847
  205MOL0     C27568   1.316   0.920   2.861 -1.5300  0.2212 -0.4753
  205MOL0     C27569   1.263   1.065   2.648  0.5560  0.2461  0.1763
  205MOL0     C27570   1.113   1.080   2.674  0.0227 -0.0513  0.4400
  205MOL0     O27571   1.039   1.170   2.602  0.2022  0.7409 -1.0417
  205MOL0     C27572   0.909   1.207   2.640 -0.1637  0.2523  0.3625
  205MOL0     C27573   0.836   1.271   2.536  0.3553  0.4217 -0.4370
  205MOL0     C27574   0.699   1.310   2.562 -0.3844  0.8761 -0.5432
  205MOL0     C27575   0.641   1.284   2.692 -0.4641  0.5537  0.9294
  205MOL0     O27576   0.507   1.300   2.709  0.3302 -0.9198  0.0770
  205MOL0     C27577   0.446   1.200   2.790  0.1955  0.9022 -0.3401
  205MOL0     C27578   0.306   1.188   2.739 -0.4611 -0.0922  1.0616
  205MOL0     C27579   0.233   1.066   2.819 -0.4647 -0.1880  0.4200
  205MOL0     C27580   0.171   1.112   2.950  0.1921  0.5819 -0.0532
  205MOL0     C27581   0.049   1.024   2.990  0.0141 -0.7171 -0.0952
  205MOL0     C27582  -0.006   1.067   3.126 -0.5764  0.0646 -0.0065
  205MOL0     C27583  -0.127   0.980   3.159  0.0203  1.5955  0.5223
  205MOL0     C27584  -0.217   1.014   3.279  0.5315  0.5760 -0.1992
  205MOL0    Cl27585  -0.315   1.159   3.259  0.3764  0.4816  0.2251
  205MOL0     C27586   0.727   1.242   2.792  0.4134 -0.0287  0.5652
  205MOL0     C27587   0.853   1.202   2.767  0.6635 -0.4379  0.8327
  205MOL0     O27588   1.066   0.993   2.747 -1.3642 -0.6235 -0.1261
  205MOL0     C27589   1.319   1.122   2.528 -0.8289  0.1027 -0.8297
  205MOL0     C27590   1.450   1.100   2.494 -0.1566  0.4902 -0.4423
  205MOL0     N27591   2.106   1.054   2.375 -0.3183  0.1928 -0.1750
  205MOL0     N27592   2.178   1.109   2.280  0.3269  1.1009 -0.3147
  205MOL0     C27593   3.313   1.884   2.180  0.2079  0.0480 -0.0394
  205MOL0     C27594   3.444   1.897   2.142  0.2677 -0.0405  0.2075
  205MOL0     C27595   3.864   1.876   2.056  0.0996 -0.3178 -0.2925
  205MOL0     C27596   3.943   1.987   2.082 -0.4646 -0.7221 -0.1662
  205MOL0     C27597   4.062   2.017   2.014  0.4400  0.2226 -0.3396
  205MOL0     C27598   4.102   1.933   1.912 -0.3912 -0.9765  0.4220
  205MOL0     O27599   4.206   1.955   1.824 -0.3715  0.2491 -0.0510
  205MOL0     C27600   4.313   2.040   1.871  0.0464 -1.5633  0.7409
  205MOL0     C27601   4.415   1.954   1.943  0.1609 -0.0656 -0.2856
  205MOL0     C27602   4.541   2.021   1.980  0.1035  0.0037 -0.5484
  205MOL0     C27603   4.650   2.048   1.884 -0.3985  0.1560  0.3867
  205MOL0     C27604   4.751   1.944   1.883 -0.2711 -0.0510 -0.2011
  205MOL0     C27605   4.818   1.848   1.893 -0.0868 -0.2560  0.9031
  205MOL0     C27606   4.031   1.821   1.887 -1.7785 -0.2349 -0.2404
  205MOL0     C27607   3.916   1.793   1.963  0.7526  0.2865 -0.2182
  205MOL0     H27608   3.486   1.608   1.970  0.6209  1.2838 -2.1931
  205MOL0     H27609   3.257   1.597   1.994 -1.0225  0.5765 -0.5448
  205MOL0     H27610   3.020   1.587   2.098 -2.9942 -0.9664  0.8446
  205MOL0     H27611   3.068   1.599   2.265 -0.4438  1.1735  1.5957
  205MOL0     H27612   2.896   1.773   2.314 -2.8950 -2.0269  0.3023
  205MOL0     H27613   2.861   1.773   2.147  2.1524  1.7904 -0.5338
  205MOL0     H27614   2.777   1.542   2.150 -1.1623 -0.6789  0.7610
  205MOL0     H27615   2.829   1.515   2.313 -0.7871  0.7022  0.2506
  205MOL0     H27616   2.692   1.717   2.383  1.5266 -2.3095  0.2241
  205MOL0     H27617   2.605   1.701   2.226 -0.5955 -1.6487 -1.5020
  205MOL0     H27618   2.631   1.452   2.399 -0.0013  0.7234  2.2788
  205MOL0     H27619   2.517   1.574   2.443 -0.8673  0.0018 -1.1713
  205MOL0     H27620   2.409   1.558   2.203  0.7795  0.8973  0.7832
  205MOL0     H27621   2.551   1.458   2.165  1.6342 -1.1328  1.9145
  205MOL0     H27622   2.475   1.277   2.311  2.1809  2.2787  0.8558
  205MOL0     H27623   2.368   1.382   2.404 -0.6227  2.6505 -0.5581
  205MOL0     H27624   2.319   1.293   2.129  0.5074  0.4921  0.1389
  205MOL0     H27625   2.219   1.424   2.197 -0.3933  0.2301 -0.5244
  205MOL0     H27626   2.066   1.374   2.425 -2.7976 -1.6888  0.5322
  205MOL0     H27627   1.926   1.049   2.576  1.0673 -0.2667  4.7639
  205MOL0     H27628   2.010   1.170   2.666  0.1903  0.0883 -0.1502
  205MOL0     H27629   1.859   1.342   2.530 -0.2990  0.0562 -1.2563
  205MOL0     H27630   1.757   1.240   2.632  2.1191  2.5774  1.1301
  205MOL0     H27631   1.822   1.207   2.333  0.0736  2.3368  0.0691
  205MOL0     H27632   1.664   1.242   2.411 -0.1476  1.1416 -3.0165
  205MOL0     H27633   1.799   0.969   2.393 -1.3469 -1.2300 -0.7428
  205MOL0     H27634   1.648   1.009   2.331 -0.3460  2.7822 -0.5407
  205MOL0     H27635   1.544   0.904   2.758  0.6998  1.3143  0.0454
  205MOL0     H27636   1.291   0.817   2.832 -0.3670  0.3111 -1.8824
  205MOL0     H27637   1.398   0.906   2.932 -4.2711 -1.7004  2.6355
  205MOL0     H27638   1.246   0.979   2.920  0.5227  2.1360  0.1805
  205MOL0     H27639   0.885   1.286   2.440  3.4836  1.0643  1.1258
  205MOL0     H27640   0.636   1.351   2.484  0.1473  0.8078 -1.0097
  205MOL0     H27641   0.493   1.102   2.781 -0.2396  0.7810 -1.3828
  205MOL0     H27642   0.429   1.228   2.895 -2.6740  1.5236 -0.8879
  205MOL0     H27643   0.252   1.283   2.744 -2.0643 -0.9102 -0.0545
  205MOL0     H27644   0.312   1.158   2.634 -1.6102 -0.0744  0.9776
  205MOL0     H27645   0.284   0.970   2.831  4.0184  1.5036 -2.5791
  205MOL0     H27646   0.149   1.053   2.749 -0.3797 -0.2134  0.3230
  205MOL0     H27647   0.249   1.110   3.026 -1.3514 -0.3137  1.6031
  205MOL0     H27648   0.140   1.216   2.939 -1.2259  0.0306 -1.9206
  205MOL0     H27649   0.092   0.923   2.989 -0.2883 -0.8556 -2.3474
  205MOL0     H27650  -0.033   1.022   2.917  1.0952  1.7551 -1.4824
  205MOL0     H27651   0.065   1.068   3.210 -0.2651  1.9247 -0.2553
  205MOL0     H27652  -0.045   1.166   3.099  1.8996  0.4791 -2.4209
  205MOL0     H27653  -0.088   0.880   3.177 -0.4286  1.4097  0.4827
  205MOL0     H27654  -0.194   0.961   3.074 -1.3232 -3.7834  2.4015
  205MOL0     H27655  -0.165   1.030   3.374 -0.0004  1.4948 -0.0448
  205MOL0     H27656  -0.297   0.940   3.284 -0.6538  1.4416 -3.5468
  205MOL0     H27657   0.685   1.233   2.892  0.7587 -1.0386  0.6388
  205MOL0     H27658   0.908   1.169   2.854  0.0599 -1.3428  0.8901
  205MOL0     H27659   1.252   1.177   2.464 -2.9934 -1.4901 -0.0446
  205MOL0     H27660   1.490   1.155   2.410 -1.6438  2.0844 -0.1552
  205MOL0     H27661   3.263   1.965   2.232  0.4492 -0.6166  1.2818
  205MOL0     H27662   3.500   1.987   2.167 -2.5520  2.6462 -2.3579
  205MOL0     H27663   3.919   2.057   2.162 -0.3002 -0.1411 -0.6192
  205MOL0     H27664   4.119   2.105   2.042  0.5066  0.6222 -1.7061
  205MOL0     H27665   4.355   2.096   1.787 -0.3063  1.8352  2.6530
  205MOL0     H27666   4.282   2.130   1.925  0.1097  0.2179 -1.9844
  205MOL0     H27667   4.431   1.865   1.882  2.5436  0.2067 -0.1560
  205MOL0     H27668   4.364   1.927   2.036  0.5922 -1.9301 -0.5489
  205MOL0     H27669   4.591   1.961   2.056 -3.1617 -1.3586  0.7189
  205MOL0     H27670   4.521   2.118   2.026  3.3087  1.4608 -1.8967
  205MOL0     H27671   4.685   2.151   1.896 -2.9895  1.0978  0.4511
  205MOL0     H27672   4.628   2.066   1.778  1.2977 -1.3909 -0.2702
  205MOL0     H27673   4.893   1.771   1.893 -3.1380 -3.5393 -1.4827
  205MOL0     H27674   4.074   1.748   1.819 -2.3379 -2.1122  1.3182
  205MOL0     H27675   3.855   1.707   1.936  0.6262 -0.0146  0.9676
  206MOL0     O27676   0.886   6.481   3.419 -0.2290  0.3741  0.1068
  206MOL0     C27677   0.924   6.367   3.448  0.1208 -0.6818  0.8019
  206MOL0     O27678   0.841   6.259   3.471  1.0280  0.2759  0.0642
  206MOL0     C27679   0.705   6.273   3.435  0.0662 -0.7313 -0.0565
  206MOL0     C27680   0.661   6.254   3.305  0.4802 -0.4944 -0.5085
  206MOL0     C27681   0.526   6.249   3.265 -0.3450  0.2715 -0.3278
  206MOL0     C27682   0.427   6.266   3.360  1.0641  0.5095  0.2826
  206MOL0     O27683   0.296   6.284   3.326  0.1652  0.1433  0.3091
  206MOL0     C27684   0.269   6.406   3.250 -0.0377 -0.9446 -0.1420
  206MOL0     C27685   0.120   6.452   3.264 -0.6588 -0.0785  0.1949
  206MOL0     C27686   0.107   6.508   3.409  0.6121  0.6275 -0.0765
  206MOL0     C27687  -0.028   6.563   3.436 -0.4102  0.1579  0.1842
  206MOL0     C27688  -0.119   6.445   3.491  0.4419 -0.9551  1.3536
  206MOL0     C27689  -0.276   6.486   3.502 -0.5241 -0.6052 -0.2671
  206MOL0     C27690  -0.315   6.546   3.635  0.0225 -0.4268 -0.5757
  206MOL0     C27691  -0.453   6.607   3.621  1.0267  0.3238 -0.3550
  206MOL0     N27692  -0.516   6.616   3.755 -0.3999 -0.4086  0.6969
  206MOL0     C27693  -0.508   6.725   3.838 -0.0821 -0.5621  0.5311
  206MOL0     C27694  -0.601   6.692   3.936 -0.9423 -0.2307 -0.0147
  206MOL0     C27695  -0.644   6.775   4.055 -0.0292 -0.2643 -0.5675
  206MOL0     C27696  -0.679   6.923   4.015  0.4276 -0.1390  0.3508
  206MOL0     C27697  -0.824   6.950   4.003  0.7692  0.1602 -0.5240
  206MOL0     C27698  -0.901   6.866   3.904 -0.4273 -0.6024  0.2678
  206MOL0     O27699  -1.028   6.926   3.915  0.7912  0.2235 -0.3151
  206MOL0     C27700  -1.137   6.851   3.870 -1.2671  1.1723  0.2183
  206MOL0     C27701  -1.132   6.713   3.824 -0.7284 -0.3834 -0.7356
  206MOL0     C27702  -1.248   6.641   3.785 -0.2973 -0.8402 -0.9524
  206MOL0     C27703  -1.227   6.499   3.741  0.1175 -0.2307 -0.1473
  206MOL0     C27704  -1.372   6.712   3.794  0.1719 -0.6856 -0.4631
  206MOL0     C27705  -1.508   6.645   3.782  0.6063 -0.8149 -0.2245
  206MOL0     O27706  -1.611   6.727   3.772 -0.3731  0.0837  0.2492
  206MOL0     C27707  -1.747   6.698   3.775 -0.0437 -0.1546  1.0086
  206MOL0     C27708  -1.799   6.613   3.878  0.5800 -0.4042 -0.2382
  206MOL0     C27709  -1.932   6.583   3.885 -0.0308 -0.1555 -0.4257
  206MOL0     C27710  -2.015   6.613   3.777  0.0807 -0.0647  0.1996
  206MOL0     O27711  -2.147   6.567   3.779 -0.1750  0.0991  0.4969
  206MOL0     C27712  -2.255   6.604   3.688  0.4354 -0.2072  0.4451
  206MOL0     C27713  -2.378   6.588   3.772  0.7893  0.9518  0.3645
  206MOL0     C27714  -2.405   6.444   3.811 -0.3180 -0.3866  0.0791
  206MOL0     C27715  -2.554   6.432   3.832  0.2323  0.1697  0.3361
  206MOL0     C27716  -2.604   6.306   3.904 -0.2102  0.5352 -0.6370
  206MOL0     C27717  -2.749   6.338   3.954 -0.3618  0.2018 -0.1559
  206MOL0     C27718  -2.793   6.227   4.039  0.9020  0.3952 -0.4095
  206MOL0     C27719  -2.938   6.229   4.082  1.3317  0.7001 -0.4708
  206MOL0    Cl27720  -2.966   6.076   4.190  0.3666 -0.2012 -0.4517
  206MOL0     C27721  -1.952   6.682   3.664  0.7871 -0.1280 -0.4177
  206MOL0     C27722  -1.824   6.723   3.668  0.2018  1.0678 -0.0612
  206MOL0     O27723  -1.512   6.521   3.778 -0.3021  0.0615 -0.5492
  206MOL0     C27724  -1.371   6.851   3.836 -0.7001 -0.1498  0.4736
  206MOL0     C27725  -1.257   6.921   3.866 -0.7522  0.2908  0.1884
  206MOL0     N27726  -0.646   6.560   3.912 -0.9194 -0.4494  0.7012
  206MOL0     N27727  -0.591   6.511   3.801  0.1229 -1.0669 -0.8354
  206MOL0     C27728   0.463   6.283   3.493  0.4291 -0.5517  0.1768
  206MOL0     C27729   0.601   6.288   3.520  0.7943 -0.3405  0.0857
  206MOL0     C27730   1.070   6.356   3.484  0.5524  0.0952 -0.8429
  206MOL0     C27731   1.116   6.245   3.568  1.5700  0.2128 -0.1300
  206MOL0     C27732   1.248   6.223   3.593 -0.4191  0.6691 -0.7057
  206MOL0     C27733   1.345   6.313   3.548  0.7968 -0.0964 -0.5031
  206MOL0     O27734   1.471   6.285   3.587 -0.6504  0.3620  0.4117
  206MOL0     C27735   1.570   6.389   3.571  0.3266 -0.2106 -0.5560
  206MOL0     C27736   1.574   6.495   3.681  1.0864  1.0667 -0.6083
  206MOL0     C27737   1.693   6.587   3.681 -1.0824  0.3825 -0.1272
  206MOL0     C27738   1.730   6.635   3.537 -0.3820  0.9333 -0.5198
  206MOL0     C27739   1.616   6.716   3.486 -0.5795 -1.3719  0.1541
  206MOL0     C27740   1.525   6.792   3.455  0.0291 -0.3660 -0.2098
  206MOL0     C27741   1.301   6.425   3.472 -0.1664  0.3373 -0.6054
  206MOL0     C27742   1.166   6.446   3.436  0.2920 -0.6149  0.4919
  206MOL0     H27743   0.736   6.256   3.227  2.1011  0.8203  1.0046
  206MOL0     H27744   0.505   6.231   3.160  1.2935 -2.2314 -0.3124
  206MOL0     H27745   0.332   6.492   3.276 -2.1524  1.0116 -1.0749
  206MOL0     H27746   0.281   6.387   3.143 -1.6313  0.1541 -0.5642
  206MOL0     H27747   0.102   6.524   3.184  1.1384 -0.5282 -0.6696
  206MOL0     H27748   0.057   6.365   3.242 -0.3842 -0.6113  1.4094
  206MOL0     H27749   0.139   6.433   3.481 -1.0342 -0.8537 -0.8061
  206MOL0     H27750   0.176   6.592   3.408  0.9322  0.4066  1.5035
  206MOL0     H27751  -0.019   6.639   3.515  0.9369 -1.2362  1.4477
  206MOL0     H27752  -0.079   6.606   3.349  0.3434  2.1518  0.6784
  206MOL0     H27753  -0.122   6.370   3.411 -0.1805 -0.8155  1.2438
  206MOL0     H27754  -0.086   6.406   3.588  2.7402  5.1623  3.4997
  206MOL0     H27755  -0.297   6.562   3.426  2.2896  0.3900 -0.1633
  206MOL0     H27756  -0.336   6.400   3.468 -2.2850  0.4080  0.1542
  206MOL0     H27757  -0.323   6.464   3.706  1.8731  0.4200  0.6981
  206MOL0     H27758  -0.244   6.620   3.674  1.0347 -0.7885 -1.6360
  206MOL0     H27759  -0.522   6.544   3.563 -1.2984  0.0103  2.5345
  206MOL0     H27760  -0.468   6.706   3.575 -0.4199  1.0561  1.5538
  206MOL0     H27761  -0.443   6.811   3.834 -0.6448 -0.0987  1.1656
  206MOL0     H27762  -0.732   6.729   4.101 -0.1993 -0.3993 -1.0230
  206MOL0     H27763  -0.575   6.768   4.139 -0.8520 -0.5000  0.0987
  206MOL0     H27764  -0.635   6.946   3.918 -0.9107  0.3750 -0.1566
  206MOL0     H27765  -0.639   6.994   4.088 -1.7242  0.2540  1.2315
  206MOL0     H27766  -0.837   7.056   3.977  1.3570  0.4939  0.4857
  206MOL0     H27767  -0.871   6.939   4.101  0.9559  0.0639 -0.4438
  206MOL0     H27768  -0.892   6.762   3.938 -2.3339 -0.6195  0.8350
  206MOL0     H27769  -0.851   6.860   3.807 -0.3980 -1.5107  0.3314
  206MOL0     H27770  -1.042   6.654   3.839 -1.9565 -2.1451 -0.0046
  206MOL0     H27771  -1.130   6.489   3.692  0.5718  1.7116  0.2532
  206MOL0     H27772  -1.219   6.445   3.836  1.8514  1.0577  0.5061
  206MOL0     H27773  -1.294   6.461   3.664  0.5283  1.4484 -1.3834
  206MOL0     H27774  -1.736   6.588   3.963 -1.4519  3.2158  2.6282
  206MOL0     H27775  -1.971   6.541   3.978 -0.6620  2.6115  0.6433
  206MOL0     H27776  -2.250   6.712   3.669 -1.3928 -0.5037 -2.3835
  206MOL0     H27777  -2.261   6.554   3.591 -0.1113 -1.7140  1.2244
  206MOL0     H27778  -2.369   6.648   3.863 -3.9235  0.3842  1.4486
  206MOL0     H27779  -2.457   6.634   3.711  1.7034  0.5078 -1.2186
  206MOL0     H27780  -2.355   6.422   3.906  0.7721  4.2106  0.8212
  206MOL0     H27781  -2.366   6.368   3.742  1.3989 -0.5718  1.1956
  206MOL0     H27782  -2.578   6.523   3.887  0.2755  0.5990 -0.3517
  206MOL0     H27783  -2.605   6.442   3.736 -1.9946 -2.1559  1.1788
  206MOL0     H27784  -2.539   6.285   3.990 -0.4619  2.1485 -0.0311
  206MOL0     H27785  -2.614   6.218   3.840  1.4255 -1.4793  1.6609
  206MOL0     H27786  -2.756   6.426   4.018  0.8213  0.1263  0.1159
  206MOL0     H27787  -2.816   6.344   3.868 -1.5130  1.9458  0.8126
  206MOL0     H27788  -2.739   6.229   4.134  0.4309 -0.2657 -0.1264
  206MOL0     H27789  -2.769   6.136   3.983 -0.6927 -0.4283  0.1816
  206MOL0     H27790  -3.002   6.212   3.995 -3.5214  2.3402  2.3584
  206MOL0     H27791  -2.969   6.325   4.126  0.0758  0.3590 -0.5672
  206MOL0     H27792  -2.011   6.690   3.574  2.3529  0.2074 -1.4435
  206MOL0     H27793  -1.784   6.783   3.587 -0.2328  3.1557  1.2177
  206MOL0     H27794  -1.460   6.911   3.845 -0.1025  0.7955  0.1853
  206MOL0     H27795  -1.271   7.025   3.893 -0.8503  0.3812 -0.2094
  206MOL0     H27796   0.383   6.308   3.563 -1.0330  0.3282 -1.7297
  206MOL0     H27797   0.621   6.305   3.625  2.4845  0.2385 -0.2954
  206MOL0     H27798   1.043   6.178   3.612 -0.0705  1.3552 -1.0128
  206MOL0     H27799   1.288   6.140   3.651 -1.7444  0.7636  0.3933
  206MOL0     H27800   1.670   6.344   3.576  0.6691  0.6241  0.6312
  206MOL0     H27801   1.557   6.438   3.474  0.5559 -2.5589 -1.8406
  206MOL0     H27802   1.561   6.441   3.775 -1.8550  0.3519 -1.2970
  206MOL0     H27803   1.480   6.551   3.674  2.3773  3.1174 -3.8358
  206MOL0     H27804   1.777   6.534   3.727 -2.3267 -2.6652 -1.1180
  206MOL0     H27805   1.677   6.668   3.752 -2.3331 -1.0415  1.2752
  206MOL0     H27806   1.758   6.555   3.468  1.8435  0.6804  0.5993
  206MOL0     H27807   1.825   6.688   3.545  1.1527 -1.4033 -2.0313
  206MOL0     H27808   1.451   6.851   3.405  0.4281 -0.5894 -1.0805
  206MOL0     H27809   1.363   6.508   3.439  0.1358  0.8890  1.2546
  206MOL0     H27810   1.132   6.529   3.375 -0.5194 -1.8821 -0.8361
  207MOL0     O27811   5.155   8.447   8.071 -0.0530 -0.6242 -0.0796
  207MOL0     C27812   5.207   8.431   7.956  0.1674 -0.1616  0.2093
  207MOL0     O27813   5.132   8.427   7.839  0.4167  0.6388 -0.3715
  207MOL0     C27814   4.997   8.418   7.832 -0.2799  0.3017 -0.2409
  207MOL0     C27815   4.907   8.459   7.934  0.8786 -0.1573  0.4136
  207MOL0     C27816   4.776   8.413   7.922  0.3814  0.1934 -0.1261
  207MOL0     C27817   4.727   8.334   7.821  0.1036 -0.2098 -0.4153
  207MOL0     O27818   4.595   8.313   7.816 -0.0281 -0.5135  0.1847
  207MOL0     C27819   4.547   8.231   7.701 -0.2658 -0.2623 -0.3662
  207MOL0     C27820   4.398   8.209   7.718 -0.0080 -0.2925 -0.3722
  207MOL0     C27821   4.347   8.140   7.602 -0.1787  0.6871  0.5642
  207MOL0     C27822   4.200   8.117   7.619  0.0738  0.6446 -0.0005
  207MOL0     C27823   4.165   7.989   7.535  0.3679 -0.9479  0.1367
  207MOL0     C27824   4.008   7.966   7.523  0.1767  0.3340 -0.7462
  207MOL0     C27825   3.933   8.064   7.426  0.4370 -0.0566 -0.9053
  207MOL0     C27826   3.797   8.076   7.486  0.4504 -1.5872  0.4121
  207MOL0     N27827   3.708   8.152   7.392  0.8472 -0.3963  0.4137
  207MOL0     C27828   3.721   8.274   7.335 -0.0842 -0.5124 -0.1766
  207MOL0     C27829   3.605   8.302   7.272  0.0460 -0.0984  0.3079
  207MOL0     C27830   3.585   8.444   7.212  0.6910  0.0780 -0.4522
  207MOL0     C27831   3.445   8.504   7.225 -0.6833 -0.0750 -0.1734
  207MOL0     C27832   3.420   8.586   7.099  0.3576  0.1907 -0.8082
  207MOL0     C27833   3.302   8.681   7.123  0.4770  0.6043 -0.4649
  207MOL0     O27834   3.194   8.610   7.180 -0.3620  0.1271  0.0428
  207MOL0     C27835   3.077   8.678   7.193 -0.2213 -0.1121  0.1500
  207MOL0     C27836   2.975   8.600   7.149 -0.0937 -0.3512 -0.2214
  207MOL0     C27837   2.842   8.645   7.162 -0.1412  0.2673  0.6583
  207MOL0     C27838   2.734   8.566   7.093 -0.0964  0.5843 -0.5388
  207MOL0     C27839   2.814   8.778   7.230 -0.4342 -0.3079 -0.1054
  207MOL0     C27840   2.675   8.843   7.230  0.3484  0.0813  0.5523
  207MOL0     O27841   2.670   8.975   7.267  0.1174  0.1870 -0.1513
  207MOL0     C27842   2.552   9.046   7.291  0.3289  1.2369 -0.8712
  207MOL0     C27843   2.445   8.997   7.369  0.0932 -0.0261  1.0372
  207MOL0     C27844   2.341   9.085   7.404  0.1859  0.2137 -0.2678
  207MOL0     C27845   2.333   9.215   7.362  0.3912 -0.7142 -0.1741
  207MOL0     O27846   2.238   9.309   7.397 -0.2238 -0.0469  1.0806
  207MOL0     C27847   2.123   9.259   7.470  0.5210  0.9784  0.6491
  207MOL0     C27848   2.021   9.370   7.505  0.7783 -0.7289  0.1412
  207MOL0     C27849   1.901   9.305   7.578  0.2386  0.2485 -0.1324
  207MOL0     C27850   1.791   9.405   7.597 -0.9251  0.3984 -0.0081
  207MOL0     C27851   1.717   9.338   7.715 -0.0142  0.2338 -0.2603
  207MOL0     C27852   1.591   9.426   7.738 -0.2677 -0.0136 -0.0591
  207MOL0     C27853   1.493   9.357   7.839  0.6530 -0.1283 -0.0970
  207MOL0     C27854   1.372   9.443   7.878  0.5775 -0.0241  0.5441
  207MOL0    Cl27855   1.277   9.369   8.012 -0.2363  0.1562 -0.0331
  207MOL0     C27856   2.439   9.258   7.290  0.0882 -0.1080 -0.5035
  207MOL0     C27857   2.549   9.186   7.259 -0.6017 -0.6102 -0.0357
  207MOL0     O27858   2.579   8.767   7.219  0.2332  0.5852  0.0777
  207MOL0     C27859   2.927   8.854   7.273  0.2761 -0.0475 -0.3829
  207MOL0     C27860   3.053   8.797   7.271 -0.1941  1.0313  0.5591
  207MOL0     N27861   3.524   8.192   7.275  0.0758 -0.1224  0.1238
  207MOL0     N27862   3.591   8.099   7.342  0.3663 -0.6861 -0.8282
  207MOL0     C27863   4.815   8.304   7.718 -0.6867 -0.0052 -0.5118
  207MOL0     C27864   4.945   8.348   7.722 -0.5972  0.6902 -0.2200
  207MOL0     C27865   5.347   8.392   7.956  1.0415  0.6183  0.0700
  207MOL0     C27866   5.410   8.362   7.834  0.6613  0.8581  0.1008
  207MOL0     C27867   5.542   8.346   7.811 -1.1057 -0.7161 -1.1232
  207MOL0     C27868   5.624   8.345   7.931  0.7331  1.1124  0.6865
  207MOL0     O27869   5.757   8.327   7.907 -0.3053  0.4779 -0.2932
  207MOL0     C27870   5.851   8.286   8.011 -0.0383  0.7230 -0.6017
  207MOL0     C27871   5.981   8.367   7.982  0.3172  0.7291 -0.7467
  207MOL0     C27872   5.963   8.520   8.005 -0.4568 -1.1276  0.8885
  207MOL0     C27873   6.049   8.566   8.119  0.0017 -0.3915  0.3013
  207MOL0     C27874   6.054   8.714   8.155  0.5698  0.0384  0.8384
  207MOL0     C27875   6.050   8.833   8.181  0.4551  0.0765 -0.4918
  207MOL0     C27876   5.566   8.376   8.056 -0.3775  0.0547 -0.1609
  207MOL0     C27877   5.429   8.397   8.068 -0.5957  0.2661 -0.3519
  207MOL0     H27878   4.936   8.514   8.023  0.0233 -0.3413  0.8231
  207MOL0     H27879   4.714   8.449   8.003  0.1565 -0.6177  0.0785
  207MOL0     H27880   4.567   8.282   7.606  0.8867  1.6304  0.8330
  207MOL0     H27881   4.595   8.134   7.709  0.0694 -0.4900 -3.6641
  207MOL0     H27882   4.376   8.154   7.809 -1.6493  0.2432 -0.4145
  207MOL0     H27883   4.339   8.301   7.723  2.8816  1.6398  1.0207
  207MOL0     H27884   4.364   8.189   7.506 -2.4439  2.1426  0.8405
  207MOL0     H27885   4.396   8.042   7.596 -2.0952 -0.2686 -0.5635
  207MOL0     H27886   4.186   8.104   7.726 -1.1467  0.4577 -0.1675
  207MOL0     H27887   4.139   8.205   7.595  0.3555  0.9853  0.5339
  207MOL0     H27888   4.210   7.979   7.435 -0.4093  1.4322 -0.5391
  207MOL0     H27889   4.209   7.915   7.601  1.2260  0.6555  1.4123
  207MOL0     H27890   3.982   7.862   7.502  0.5545 -0.3884  1.9431
  207MOL0     H27891   3.972   7.977   7.626  3.0122 -4.0061  0.9955
  207MOL0     H27892   3.974   8.166   7.425 -1.7700  0.9246  0.5015
  207MOL0     H27893   3.927   8.024   7.325  0.2129 -2.4438 -0.0081
  207MOL0     H27894   3.809   8.139   7.575 -0.2781  2.6800 -2.2048
  207MOL0     H27895   3.751   7.979   7.502  0.0614 -1.2688  1.2666
  207MOL0     H27896   3.800   8.346   7.352 -2.0540  1.1418  2.8769
  207MOL0     H27897   3.662   8.514   7.246  1.3823 -0.8918  0.0363
  207MOL0     H27898   3.607   8.433   7.105  0.1333  0.7969 -0.6474
  207MOL0     H27899   3.450   8.573   7.310 -0.4878 -1.6192  1.0991
  207MOL0     H27900   3.367   8.428   7.224 -0.4816 -0.3007  0.9893
  207MOL0     H27901   3.401   8.517   7.016  3.7500 -2.8282  0.6326
  207MOL0     H27902   3.503   8.652   7.072  1.2159  0.0873  1.3441
  207MOL0     H27903   3.276   8.746   7.038 -1.3310  1.2552  0.5425
  207MOL0     H27904   3.338   8.747   7.203 -0.7796  1.3903 -0.5091
  207MOL0     H27905   2.993   8.510   7.092 -0.3909 -0.9436  0.6167
  207MOL0     H27906   2.792   8.493   7.037  1.3024  0.8643  0.4681
  207MOL0     H27907   2.666   8.519   7.165 -0.9168 -0.0638 -1.6995
  207MOL0     H27908   2.685   8.633   7.022 -0.6919  0.2674 -0.4322
  207MOL0     H27909   2.440   8.891   7.391  0.2813 -0.5370 -1.0951
  207MOL0     H27910   2.265   9.043   7.470 -3.0417  1.7628 -2.7016
  207MOL0     H27911   2.073   9.178   7.417  1.8499 -0.4245  1.4704
  207MOL0     H27912   2.166   9.225   7.564 -1.6844  0.7944  1.6704
  207MOL0     H27913   2.068   9.443   7.571 -3.4010  1.6419  0.8615
  207MOL0     H27914   1.991   9.418   7.412 -0.1196  1.2325  1.3809
  207MOL0     H27915   1.929   9.271   7.677  0.0971 -0.2270 -0.2560
  207MOL0     H27916   1.862   9.220   7.522 -0.5017  1.4694 -1.5707
  207MOL0     H27917   1.839   9.495   7.636  0.4641 -0.7350  1.0005
  207MOL0     H27918   1.721   9.429   7.516  1.1686  0.7827 -1.8114
  207MOL0     H27919   1.773   9.347   7.808 -1.2318  2.9533  0.3015
  207MOL0     H27920   1.693   9.234   7.692  1.3684 -0.2429  0.3463
  207MOL0     H27921   1.623   9.526   7.771  1.8030 -0.8775  0.7001
  207MOL0     H27922   1.543   9.438   7.641  0.4500  1.3795 -0.2632
  207MOL0     H27923   1.556   9.335   7.926  3.8664 -2.4737 -2.7555
  207MOL0     H27924   1.459   9.257   7.811  0.6031 -0.0922 -0.1672
  207MOL0     H27925   1.310   9.433   7.789  2.5785 -1.1539 -0.8288
  207MOL0     H27926   1.390   9.547   7.906 -2.1060  0.9637 -1.1337
  207MOL0     H27927   2.442   9.360   7.254 -1.8500  0.0948 -0.2390
  207MOL0     H27928   2.638   9.223   7.210 -0.0847 -0.2330  1.1412
  207MOL0     H27929   2.918   8.952   7.320 -0.5167  0.1657 -0.9590
  207MOL0     H27930   3.127   8.843   7.335  0.2374  0.2565  0.6334
  207MOL0     H27931   4.784   8.247   7.632  2.1038 -0.4145 -1.3420
  207MOL0     H27932   5.019   8.322   7.647  2.6074  0.3850  2.7934
  207MOL0     H27933   5.356   8.360   7.740  1.8051 -1.3152 -0.5755
  207MOL0     H27934   5.571   8.345   7.707 -0.9858  2.5642 -1.2209
  207MOL0     H27935   5.815   8.328   8.106 -0.5680  3.2890 -1.8381
  207MOL0     H27936   5.867   8.178   8.018  1.3399  0.9871  1.1276
  207MOL0     H27937   5.999   8.342   7.877  0.6398 -1.7116 -0.1882
  207MOL0     H27938   6.062   8.326   8.043 -0.3533  1.4529  0.6629
  207MOL0     H27939   5.861   8.555   8.019 -0.3404 -0.1337 -0.4856
  207MOL0     H27940   5.977   8.576   7.913 -0.0494 -3.1365 -0.3493
  207MOL0     H27941   6.153   8.533   8.125  0.8203  2.2666  3.9038
  207MOL0     H27942   5.995   8.525   8.204 -2.2734  1.1311 -0.3275
  207MOL0     H27943   6.041   8.939   8.199  2.1786  0.1334  0.2490
  207MOL0     H27944   5.627   8.377   8.146 -2.2553 -0.2378  1.1890
  207MOL0     H27945   5.390   8.407   8.169  0.6272  0.3019  0.1340
  208MOL0     O27946   2.421   4.906   6.144 -0.1803  1.1907 -0.1904
  208MOL0     C27947   2.441   4.839   6.044  0.9334 -0.0266 -0.2659
  208MOL0     O27948   2.346   4.746   5.995 -0.2634  0.1754 -0.0990
  208MOL0     C27949   2.217   4.723   6.044 -0.0785 -0.2605  0.7659
  208MOL0     C27950   2.125   4.669   5.953 -0.3616 -0.9539  0.6364
  208MOL0     C27951   1.996   4.632   5.996  0.8303 -1.0568 -0.1525
  208MOL0     C27952   1.962   4.655   6.128  0.3114  0.7211 -0.5139
  208MOL0     O27953   1.842   4.618   6.168  0.0143 -0.2924  0.0201
  208MOL0     C27954   1.757   4.731   6.214 -0.8539  0.3230  0.2483
  208MOL0     C27955   1.668   4.774   6.092  0.0511  0.7707 -0.6927
  208MOL0     C27956   1.565   4.880   6.128  0.4259 -1.0559 -0.2525
  208MOL0     C27957   1.481   4.904   6.012  0.1657  0.0046  0.2513
  208MOL0     C27958   1.374   4.999   6.062  0.3790 -1.1104  0.4936
  208MOL0     C27959   1.257   5.024   5.958  0.1736 -0.5022  0.1001
  208MOL0     C27960   1.164   5.134   6.008  0.3137 -0.2681  0.0866
  208MOL0     C27961   1.058   5.150   5.897 -0.4189  0.2214 -0.0385
  208MOL0     N27962   0.934   5.212   5.942 -0.3814 -0.6344  0.1153
  208MOL0     C27963   0.810   5.151   5.949 -0.6777  0.3674  0.6192
  208MOL0     C27964   0.729   5.239   6.000  0.1595  0.4937 -1.3558
  208MOL0     C27965   0.587   5.237   6.015 -0.0375 -0.0886  0.0308
  208MOL0     C27966   0.517   5.262   5.883 -0.1852 -0.2218 -0.0141
  208MOL0     C27967   0.361   5.263   5.906 -1.2683 -0.5527 -1.0286
  208MOL0     C27968   0.278   5.303   5.788 -0.1938  0.5459 -0.5013
  208MOL0     O27969   0.135   5.300   5.813  0.2083 -0.3529 -0.4431
  208MOL0     C27970   0.053   5.351   5.713 -0.6015 -0.1389 -0.9582
  208MOL0     C27971   0.097   5.378   5.591  0.6990 -0.5608 -0.0637
  208MOL0     C27972   0.008   5.429   5.488  0.2848  0.4508  0.0822
  208MOL0     C27973   0.070   5.435   5.348  0.4234 -0.3684  0.1641
  208MOL0     C27974  -0.129   5.458   5.519 -0.1116 -0.2248  0.5588
  208MOL0     C27975  -0.231   5.509   5.428 -0.1138  0.5474  0.8800
  208MOL0     O27976  -0.355   5.509   5.476 -0.1435 -0.2765  0.0424
  208MOL0     C27977  -0.458   5.476   5.384 -0.3772  0.0859 -0.4969
  208MOL0     C27978  -0.496   5.575   5.298 -0.6280 -0.3634  0.5284
  208MOL0     C27979  -0.591   5.558   5.202  0.1355  0.2135  1.0280
  208MOL0     C27980  -0.672   5.437   5.197  0.4311  0.1676 -0.6816
  208MOL0     O27981  -0.774   5.426   5.111 -0.5888  0.0039  0.2523
  208MOL0     C27982  -0.902   5.394   5.176 -0.0678 -1.0057 -0.3918
  208MOL0     C27983  -0.984   5.313   5.077  0.5015 -0.2198  0.6487
  208MOL0     C27984  -0.929   5.176   5.051  0.6995  0.4973  0.6495
  208MOL0     C27985  -1.035   5.091   4.964 -0.7399  0.2714  0.5894
  208MOL0     C27986  -1.001   4.940   4.978 -0.6016  0.0607 -0.4309
  208MOL0     C27987  -1.110   4.861   4.899  0.0102 -0.5399  0.2115
  208MOL0     C27988  -1.117   4.900   4.750 -0.2432 -0.2508  0.1615
  208MOL0     C27989  -1.211   4.808   4.670 -0.0699  0.0112 -0.3400
  208MOL0    Cl27990  -1.201   4.866   4.503  0.3693 -0.1150  0.2531
  208MOL0     C27991  -0.640   5.332   5.285  0.1132 -0.1682 -0.0263
  208MOL0     C27992  -0.525   5.351   5.378 -0.0880 -0.2773 -0.1477
  208MOL0     O27993  -0.208   5.527   5.310  0.5058  0.1190 -0.2907
  208MOL0     C27994  -0.164   5.421   5.644  0.6028  0.0268  0.1054
  208MOL0     C27995  -0.083   5.364   5.736 -0.1773 -0.1926 -0.2492
  208MOL0     N27996   0.807   5.353   6.042  0.7102 -0.7537  0.2071
  208MOL0     N27997   0.926   5.336   5.998  0.2384 -0.2513  0.0916
  208MOL0     C27998   2.052   4.717   6.214  0.4396  0.4874 -0.5883
  208MOL0     C27999   2.175   4.747   6.171  0.5640 -0.5915  0.6400
  208MOL0     C28000   2.556   4.877   5.961  0.5304 -0.7933  0.1044
  208MOL0     C28001   2.645   4.973   6.008  1.8057  0.9466  0.8709
  208MOL0     C28002   2.749   5.018   5.921  0.5402  0.5565 -0.3369
  208MOL0     C28003   2.768   4.951   5.802  0.5217  0.3432  0.1070
  208MOL0     O28004   2.868   4.968   5.711  0.4292 -0.2331  0.3797
  208MOL0     C28005   2.973   5.062   5.742  0.3237  0.4340 -0.2178
  208MOL0     C28006   3.019   5.152   5.619  0.5566  0.1838  0.0181
  208MOL0     C28007   2.892   5.231   5.559 -0.5507 -0.0360  0.2354
  208MOL0     C28008   2.931   5.304   5.436 -1.0775 -0.1563 -0.0361
  208MOL0     C28009   3.005   5.429   5.460  0.0607 -0.8083 -0.1086
  208MOL0     C28010   3.051   5.541   5.470  0.1951  0.8121 -0.2264
  208MOL0     C28011   2.683   4.847   5.755  1.4375  0.0991 -0.7715
  208MOL0     C28012   2.577   4.808   5.838  0.6355 -0.0924  0.1618
  208MOL0     H28013   2.165   4.645   5.856  0.8958  1.7504  0.4060
  208MOL0     H28014   1.923   4.584   5.931  1.5030  0.4210 -2.0605
  208MOL0     H28015   1.693   4.709   6.301  1.5335  0.3727  2.1267
  208MOL0     H28016   1.812   4.822   6.237  0.3595 -0.0353 -1.0656
  208MOL0     H28017   1.741   4.819   6.024  3.0810 -1.3492  0.8968
  208MOL0     H28018   1.611   4.694   6.045 -0.8682  0.7732  0.3778
  208MOL0     H28019   1.511   4.849   6.217  1.4446  0.6168  1.0053
  208MOL0     H28020   1.622   4.970   6.151  1.6302 -1.8570 -0.0159
  208MOL0     H28021   1.544   4.954   5.938 -0.1287 -1.2510 -0.8969
  208MOL0     H28022   1.440   4.812   5.968  0.4397  1.5779 -3.7386
  208MOL0     H28023   1.334   4.966   6.158  1.0695  2.1824  2.0614
  208MOL0     H28024   1.413   5.098   6.090 -1.0066 -0.8571  1.6036
  208MOL0     H28025   1.296   5.056   5.860 -1.1505  0.2044 -0.2233
  208MOL0     H28026   1.213   4.925   5.943  1.6726 -1.2882  0.6761
  208MOL0     H28027   1.132   5.104   6.108 -0.2938 -1.4160 -0.4421
  208MOL0     H28028   1.208   5.233   6.026 -1.5447  0.5395  0.3602
  208MOL0     H28029   1.040   5.051   5.854 -0.4930 -0.2694  1.0612
  208MOL0     H28030   1.103   5.210   5.818  0.5571  1.1926  1.2057
  208MOL0     H28031   0.789   5.053   5.909  2.2148 -0.5252  1.0510
  208MOL0     H28032   0.558   5.138   6.049 -1.1157  0.1582 -0.1498
  208MOL0     H28033   0.549   5.314   6.083  1.1455  1.5712 -1.0925
  208MOL0     H28034   0.553   5.194   5.806 -1.6297  1.1585 -2.0368
  208MOL0     H28035   0.541   5.367   5.861  1.6021 -0.4882  0.5183
  208MOL0     H28036   0.339   5.326   5.993  0.3693 -0.7877 -0.4097
  208MOL0     H28037   0.328   5.166   5.943 -1.3516  1.1608  4.2055
  208MOL0     H28038   0.313   5.245   5.703  1.9425 -1.7257  1.7475
  208MOL0     H28039   0.317   5.400   5.757  1.3339  0.0349 -0.2666
  208MOL0     H28040   0.201   5.358   5.567  0.1479 -0.6582 -2.5822
  208MOL0     H28041   0.164   5.382   5.328  0.1005 -0.4791 -1.2060
  208MOL0     H28042   0.005   5.400   5.267  0.9217 -1.7954  0.3452
  208MOL0     H28043   0.093   5.541   5.334 -0.2957 -0.1481  0.6331
  208MOL0     H28044  -0.440   5.667   5.283 -1.0448 -0.2332 -0.2607
  208MOL0     H28045  -0.606   5.639   5.132 -0.4158 -0.8096 -0.0744
  208MOL0     H28046  -0.891   5.334   5.267  0.5428  0.6593  0.6879
  208MOL0     H28047  -0.952   5.486   5.207 -0.0790 -0.6495 -1.4188
  208MOL0     H28048  -1.084   5.306   5.119  0.7795  2.5698  1.9732
  208MOL0     H28049  -0.978   5.369   4.983  1.6510 -2.1808 -0.5416
  208MOL0     H28050  -0.904   5.125   5.144  1.0531  1.0666  0.8705
  208MOL0     H28051  -0.840   5.199   4.992 -0.3135 -0.5374 -1.3914
  208MOL0     H28052  -1.134   5.102   5.009 -0.8494  0.3348  0.3330
  208MOL0     H28053  -1.046   5.133   4.864  2.1224 -0.1032  0.0480
  208MOL0     H28054  -0.999   4.926   5.087 -2.6184  0.9939 -0.2383
  208MOL0     H28055  -0.902   4.909   4.943  0.0400 -0.5082  1.7099
  208MOL0     H28056  -1.095   4.753   4.911  1.1455 -0.4998 -0.6097
  208MOL0     H28057  -1.210   4.884   4.935 -0.8981 -4.0832  0.3734
  208MOL0     H28058  -1.020   4.882   4.703  0.5600 -2.7888  2.5011
  208MOL0     H28059  -1.133   5.006   4.729  2.2373 -0.0037 -0.8937
  208MOL0     H28060  -1.316   4.817   4.698  0.0440  1.3850 -0.2609
  208MOL0     H28061  -1.181   4.703   4.676 -0.6948 -0.1540 -0.0807
  208MOL0     H28062  -0.682   5.232   5.282 -2.2241  0.7832 -1.4573
  208MOL0     H28063  -0.501   5.270   5.446  0.8402 -0.2952 -0.4808
  208MOL0     H28064  -0.269   5.418   5.671 -0.1881 -2.0101 -2.7182
  208MOL0     H28065  -0.115   5.322   5.831  2.9472  2.5714  2.2817
  208MOL0     H28066   2.022   4.742   6.316  3.0217  0.4109  0.2848
  208MOL0     H28067   2.232   4.791   6.252  1.1197  0.2924 -0.2164
  208MOL0     H28068   2.647   5.028   6.102  0.7566  0.9700  0.8881
  208MOL0     H28069   2.826   5.087   5.954  0.5183  0.0112  0.8925
  208MOL0     H28070   2.944   5.137   5.817 -2.9195 -1.1980  0.3216
  208MOL0     H28071   3.044   4.990   5.783 -2.7333 -3.4751 -1.2296
  208MOL0     H28072   3.059   5.091   5.537 -0.7412  1.7638 -1.8683
  208MOL0     H28073   3.092   5.223   5.658  0.2243  0.3411  0.3572
  208MOL0     H28074   2.864   5.298   5.641 -1.3773  1.7152 -1.4253
  208MOL0     H28075   2.812   5.161   5.534  0.2312 -0.9291  0.1620
  208MOL0     H28076   2.836   5.337   5.393 -1.3901  1.9309  2.0876
  208MOL0     H28077   2.989   5.239   5.370 -2.1509 -1.1916  0.0148
  208MOL0     H28078   3.104   5.632   5.487  0.0356  0.7836  0.4351
  208MOL0     H28079   2.703   4.807   5.656 -0.6859  3.5831 -2.7948
  208MOL0     H28080   2.511   4.727   5.809 -0.2912  1.4610 -2.3712
  209MOL0     O28081   2.482   4.611   0.575 -0.2821  0.0873 -0.1205
  209MOL0     C28082   2.534   4.652   0.681 -0.1068  0.9190 -0.4737
  209MOL0     O28083   2.477   4.697   0.793  0.1372 -0.2533  0.3639
  209MOL0     C28084   2.338   4.718   0.809 -0.0849 -0.7817 -0.2813
  209MOL0     C28085   2.244   4.741   0.706  0.3462  0.9187  0.2545
  209MOL0     C28086   2.121   4.791   0.736  0.1802  0.4792 -0.1879
  209MOL0     C28087   2.066   4.812   0.862  0.0090  0.5418 -0.7554
  209MOL0     O28088   1.950   4.862   0.897  0.1227  0.2283  0.4010
  209MOL0     C28089   1.863   4.913   0.788 -0.4405 -0.6133 -0.6825
  209MOL0     C28090   1.749   5.004   0.843 -0.3700 -1.0358  0.5143
  209MOL0     C28091   1.668   4.922   0.939  0.5059  0.0571 -0.2462
  209MOL0     C28092   1.566   5.008   1.010  0.2661  0.1595  0.1484
  209MOL0     C28093   1.471   4.947   1.119  0.1071 -0.1694  0.8651
  209MOL0     C28094   1.557   4.866   1.218  0.4451  0.6566 -0.6319
  209MOL0     C28095   1.477   4.817   1.347  0.2186 -0.2637 -0.3915
  209MOL0     C28096   1.389   4.690   1.315 -0.1985 -0.2237  0.7191
  209MOL0     N28097   1.467   4.576   1.259 -0.0975 -0.4542 -0.2528
  209MOL0     C28098   1.564   4.498   1.317  0.4977 -1.0138 -0.7551
  209MOL0     C28099   1.627   4.437   1.217  0.5943 -0.4431 -0.1211
  209MOL0     C28100   1.758   4.357   1.222  0.8279  1.1441 -0.3070
  209MOL0     C28101   1.883   4.443   1.219 -0.4361 -0.2228  0.8748
  209MOL0     C28102   1.912   4.499   1.079 -0.0197 -0.1281  0.9635
  209MOL0     C28103   2.028   4.445   1.013  0.1393 -0.3539 -1.0331
  209MOL0     O28104   2.007   4.299   0.997 -0.7712  0.1124 -0.4313
  209MOL0     C28105   2.115   4.226   0.960  0.2634 -0.3762 -0.0424
  209MOL0     C28106   2.238   4.284   0.925 -1.5500 -0.4799 -0.4566
  209MOL0     C28107   2.348   4.205   0.891 -0.1309 -0.0033  0.6873
  209MOL0     C28108   2.468   4.258   0.816 -0.3458 -0.3010 -0.3975
  209MOL0     C28109   2.342   4.056   0.906  0.0965  0.1139 -0.1664
  209MOL0     C28110   2.445   3.952   0.872 -0.1913 -0.2824  0.9283
  209MOL0     O28111   2.412   3.818   0.903 -0.3120 -0.1468 -0.2224
  209MOL0     C28112   2.501   3.722   0.876 -0.3634  0.4900  0.6885
  209MOL0     C28113   2.622   3.721   0.944  0.6868  0.3796 -0.7993
  209MOL0     C28114   2.722   3.636   0.917  0.4229  0.1877  0.5064
  209MOL0     C28115   2.708   3.537   0.807 -0.5262  0.0819  0.3101
  209MOL0     O28116   2.817   3.451   0.766  0.2346 -0.0705 -1.1942
  209MOL0     C28117   2.795   3.348   0.667 -0.6781 -0.2349 -0.2450
  209MOL0     C28118   2.843   3.396   0.528  0.5933 -0.0256  1.1750
  209MOL0     C28119   2.995   3.418   0.524  0.4530 -0.3507  0.6629
  209MOL0     C28120   3.047   3.443   0.381  0.2989 -0.3735 -0.0308
  209MOL0     C28121   3.190   3.511   0.375  0.2731  0.2174  0.0767
  209MOL0     C28122   3.263   3.486   0.243 -0.5074 -0.6479 -0.6613
  209MOL0     C28123   3.407   3.509   0.285  0.3231  0.6484  0.8156
  209MOL0     C28124   3.501   3.527   0.171  0.4382  0.0119  0.1182
  209MOL0    Cl28125   3.672   3.495   0.219  0.4206  0.1259 -0.1909
  209MOL0     C28126   2.592   3.545   0.732  0.2725 -0.2465  0.5759
  209MOL0     C28127   2.481   3.634   0.767 -0.3792  0.4289 -0.9480
  209MOL0     O28128   2.548   3.984   0.816 -0.1089  0.1802  0.7482
  209MOL0     C28129   2.216   4.004   0.955  0.5911 -0.5280 -0.2653
  209MOL0     C28130   2.095   4.088   0.966 -0.2010  0.6230  1.0844
  209MOL0     N28131   1.556   4.467   1.099  0.3856 -0.3812 -0.1386
  209MOL0     N28132   1.457   4.549   1.123 -0.0135  0.0741  0.5549
  209MOL0     C28133   2.160   4.787   0.960  0.4875  0.6892 -0.1653
  209MOL0     C28134   2.289   4.737   0.936 -0.8203 -0.7520 -0.3133
  209MOL0     C28135   2.691   4.654   0.678  0.3517 -0.2893  0.7758
  209MOL0     C28136   2.752   4.670   0.549 -0.4098 -0.8894  0.1315
  209MOL0     C28137   2.891   4.684   0.542  0.2044 -0.4188  0.6267
  209MOL0     C28138   2.979   4.666   0.645  0.3751 -0.4207  0.0642
  209MOL0     O28139   3.110   4.683   0.632  0.1419  0.0010  0.1293
  209MOL0     C28140   3.199   4.649   0.734 -0.1363 -0.0022  0.0226
  209MOL0     C28141   3.348   4.669   0.690  0.7950 -0.1760 -0.4316
  209MOL0     C28142   3.356   4.632   0.542  0.2128  0.4434 -0.6536
  209MOL0     C28143   3.323   4.479   0.535  0.3400  0.2121  0.5281
  209MOL0     C28144   3.368   4.451   0.398  0.2659  0.0979  0.0404
  209MOL0     C28145   3.379   4.441   0.281 -0.4866 -0.5633  0.4100
  209MOL0     C28146   2.916   4.647   0.769 -0.1340 -0.1047 -0.6635
  209MOL0     C28147   2.780   4.641   0.783 -0.3950 -0.3752 -0.7017
  209MOL0     H28148   2.254   4.715   0.601  1.6773 -2.5568  1.1187
  209MOL0     H28149   2.055   4.807   0.652 -2.7693 -2.0374  1.4442
  209MOL0     H28150   1.909   4.974   0.710 -3.6425  1.8182 -0.9050
  209MOL0     H28151   1.801   4.836   0.740 -0.7511  0.3141 -1.8140
  209MOL0     H28152   1.800   5.076   0.907 -0.6595 -3.6933  4.1095
  209MOL0     H28153   1.683   5.046   0.766 -0.4416 -0.7664  0.7206
  209MOL0     H28154   1.615   4.843   0.885  2.0787 -1.9345  0.9960
  209MOL0     H28155   1.733   4.878   1.015  0.7938  0.6033 -0.1733
  209MOL0     H28156   1.609   5.098   1.057 -0.9206  0.5727  0.4666
  209MOL0     H28157   1.495   5.044   0.936 -1.1685 -0.8157  1.0045
  209MOL0     H28158   1.434   5.030   1.179 -0.1535  2.6878 -2.8955
  209MOL0     H28159   1.390   4.885   1.081 -0.2411  1.7424 -1.6896
  209MOL0     H28160   1.606   4.785   1.165 -0.1890  0.8240 -1.4865
  209MOL0     H28161   1.640   4.924   1.262 -0.2376 -0.5847  2.5944
  209MOL0     H28162   1.542   4.786   1.430 -2.3734 -2.4103  0.9732
  209MOL0     H28163   1.414   4.896   1.389 -0.1526 -1.3092  1.0955
  209MOL0     H28164   1.316   4.729   1.244  0.2531 -1.0259 -0.2134
  209MOL0     H28165   1.336   4.648   1.400 -1.7666  0.7406  0.2660
  209MOL0     H28166   1.617   4.517   1.410  0.9904  0.9643 -1.3758
  209MOL0     H28167   1.756   4.298   1.314 -0.9006  3.5679  1.3221
  209MOL0     H28168   1.764   4.283   1.142 -0.8390  1.0023 -0.3172
  209MOL0     H28169   1.961   4.381   1.264  2.0390  1.5496 -0.6972
  209MOL0     H28170   1.883   4.530   1.285  3.2723  1.3242 -0.8548
  209MOL0     H28171   1.933   4.606   1.088  1.9359 -0.0499 -2.7121
  209MOL0     H28172   1.826   4.478   1.015 -0.3404 -2.3632  2.0268
  209MOL0     H28173   2.123   4.463   1.064 -0.8061 -1.8512  1.4439
  209MOL0     H28174   2.032   4.494   0.915 -1.1710 -0.5370 -1.1992
  209MOL0     H28175   2.247   4.390   0.902  2.4283 -0.8050 -1.0601
  209MOL0     H28176   2.562   4.213   0.849 -1.0193 -0.2742  1.7192
  209MOL0     H28177   2.446   4.230   0.713  0.8509  1.2465 -1.1301
  209MOL0     H28178   2.484   4.365   0.831  1.5560 -0.8412  2.0253
  209MOL0     H28179   2.637   3.800   1.017  0.6000 -0.4120  0.1014
  209MOL0     H28180   2.811   3.632   0.980 -0.3734 -1.1827  1.5939
  209MOL0     H28181   2.860   3.264   0.695 -1.6391 -1.3937 -1.3567
  209MOL0     H28182   2.691   3.313   0.669 -1.4650  1.9281 -0.9867
  209MOL0     H28183   2.826   3.320   0.452 -1.1647  0.3838  1.1339
  209MOL0     H28184   2.796   3.490   0.496 -1.9477 -2.0465 -1.5451
  209MOL0     H28185   3.051   3.333   0.564  1.2881  0.2059  0.7166
  209MOL0     H28186   3.002   3.505   0.591  0.3094  1.8734 -2.0485
  209MOL0     H28187   3.031   3.353   0.321 -1.9236 -0.0327 -0.0363
  209MOL0     H28188   2.975   3.511   0.333 -1.6380 -0.4677  2.5122
  209MOL0     H28189   3.249   3.469   0.457  1.8998 -0.1187 -1.2155
  209MOL0     H28190   3.172   3.619   0.388  2.2103  0.6224 -0.3144
  209MOL0     H28191   3.254   3.382   0.210  2.8339 -1.0056 -0.7986
  209MOL0     H28192   3.248   3.561   0.164  3.3767  0.2992 -0.7179
  209MOL0     H28193   3.439   3.424   0.347  0.8512 -0.3026 -0.7183
  209MOL0     H28194   3.418   3.595   0.352  0.6069 -0.3094  2.0405
  209MOL0     H28195   3.492   3.631   0.136  0.4298 -0.0378 -0.0287
  209MOL0     H28196   3.482   3.464   0.083 -0.8606  0.1189  0.2981
  209MOL0     H28197   2.583   3.485   0.642  1.2849 -1.7493  1.4286
  209MOL0     H28198   2.386   3.633   0.716  0.3357 -2.1563 -2.4019
  209MOL0     H28199   2.199   3.897   0.966 -1.3873 -0.2625 -0.3000
  209MOL0     H28200   1.997   4.044   0.980  0.9033 -3.1722 -1.5799
  209MOL0     H28201   2.142   4.812   1.064  0.4992 -2.3440  0.6724
  209MOL0     H28202   2.357   4.739   1.020 -1.1337  0.5819 -0.0768
  209MOL0     H28203   2.693   4.666   0.458 -0.1241  0.2279 -0.1233
  209MOL0     H28204   2.916   4.714   0.440  0.9529  0.2934  1.0057
  209MOL0     H28205   3.188   4.704   0.828  0.7376 -2.5787  1.7489
  209MOL0     H28206   3.188   4.544   0.761 -0.4012 -0.4228 -1.6394
  209MOL0     H28207   3.414   4.603   0.746  0.3579  0.9242  1.4518
  209MOL0     H28208   3.383   4.771   0.706  0.4921  0.0742 -1.2916
  209MOL0     H28209   3.457   4.663   0.516  1.0270 -0.1470  1.5970
  209MOL0     H28210   3.302   4.692   0.468  1.7427  0.2177 -2.0014
  209MOL0     H28211   3.219   4.450   0.519  0.2298  1.4758 -1.4908
  209MOL0     H28212   3.373   4.420   0.612  2.0614 -1.7364 -1.9167
  209MOL0     H28213   3.399   4.425   0.177 -1.1381  1.0209  0.0018
  209MOL0     H28214   2.974   4.630   0.859  0.1571  2.0545 -0.4041
  209MOL0     H28215   2.740   4.614   0.880  0.4880  3.0118  0.7422
  210MOL0     O28216   0.662  10.011   3.021 -0.8952  0.0312 -0.1336
  210MOL0     C28217   0.696   9.930   2.936 -0.1670 -0.4458 -0.3436
  210MOL0     O28218   0.655   9.801   2.937  0.3093 -0.3665  0.3626
  210MOL0     C28219   0.564   9.770   3.037  0.1110  0.7159 -0.5419
  210MOL0     C28220   0.600   9.740   3.173  0.6354 -1.7323  0.0624
  210MOL0     C28221   0.505   9.705   3.270 -0.0628  0.6407  0.5440
  210MOL0     C28222   0.374   9.677   3.237  0.3724  1.1835 -0.4105
  210MOL0     O28223   0.272   9.640   3.320  0.1300  0.4946 -1.0714
  210MOL0     C28224   0.310   9.595   3.451  0.1091  0.6176  0.7746
  210MOL0     C28225   0.187   9.529   3.502  0.2019  0.6821  1.0863
  210MOL0     C28226   0.061   9.619   3.525 -0.2594 -0.8568 -0.1763
  210MOL0     C28227  -0.064   9.534   3.547  0.0274  0.2171  0.4605
  210MOL0     C28228  -0.196   9.620   3.547 -0.7351 -0.1469 -0.5177
  210MOL0     C28229  -0.311   9.528   3.582  0.3631  0.8011  0.8044
  210MOL0     C28230  -0.429   9.619   3.600  0.4152 -0.5982 -0.0764
  210MOL0     C28231  -0.561   9.550   3.629 -0.5793  0.3225  0.0390
  210MOL0     N28232  -0.676   9.640   3.644 -0.3547  0.7405 -0.1262
  210MOL0     C28233  -0.715   9.747   3.561  0.0829  0.0852  0.4414
  210MOL0     C28234  -0.836   9.784   3.618  0.0897  0.2181  0.5449
  210MOL0     C28235  -0.917   9.907   3.559  0.4225  0.0612 -0.6737
  210MOL0     C28236  -1.052   9.931   3.636  0.6978  0.1858 -0.6314
  210MOL0     C28237  -1.122  10.058   3.598  0.2864 -0.4768 -0.4858
  210MOL0     C28238  -1.226  10.101   3.694  0.0085  0.2416  0.5065
  210MOL0     O28239  -1.287  10.219   3.652 -0.2209 -0.5999 -0.1620
  210MOL0     C28240  -1.397  10.267   3.709  0.0558  0.3852 -0.3562
  210MOL0     C28241  -1.483  10.198   3.783  0.8217  0.3530 -0.8741
  210MOL0     C28242  -1.609  10.243   3.844  0.0826 -0.2957  0.0915
  210MOL0     C28243  -1.715  10.136   3.880  0.5352  0.4967 -0.1233
  210MOL0     C28244  -1.627  10.382   3.834  0.3683 -1.3900 -0.4535
  210MOL0     C28245  -1.745  10.452   3.880 -0.6303 -0.2261  0.0169
  210MOL0     O28246  -1.752  10.572   3.821  0.2801 -0.0074 -0.1808
  210MOL0     C28247  -1.872  10.640   3.827  0.1296 -1.3679 -0.0961
  210MOL0     C28248  -1.971  10.629   3.728 -1.1844  0.3373  0.2669
  210MOL0     C28249  -2.093  10.681   3.741 -0.1347 -0.2831  0.3763
  210MOL0     C28250  -2.126  10.741   3.858 -0.6155 -0.6446  0.4549
  210MOL0     O28251  -2.261  10.768   3.880  0.0790  0.0576 -0.0201
  210MOL0     C28252  -2.305  10.803   4.014 -0.2480 -0.7863  0.6179
  210MOL0     C28253  -2.462  10.807   4.012  0.1151  0.5244 -0.7844
  210MOL0     C28254  -2.503  10.899   3.902  0.4890 -0.6332  0.7714
  210MOL0     C28255  -2.639  10.955   3.925  0.3924 -0.3883  0.4682
  210MOL0     C28256  -2.690  11.000   3.787  0.1225  0.5844 -0.1688
  210MOL0     C28257  -2.820  11.072   3.804 -1.1725  0.6170  0.3380
  210MOL0     C28258  -2.933  10.994   3.861 -0.1446 -0.0378  0.4907
  210MOL0     C28259  -3.061  11.083   3.863  0.2599 -0.0542  0.2850
  210MOL0    Cl28260  -3.119  11.136   3.704  0.5715 -0.1023  0.0655
  210MOL0     C28261  -2.024  10.773   3.953  0.4687 -0.1308 -0.0819
  210MOL0     C28262  -1.899  10.713   3.941  0.5755 -0.0422 -0.0700
  210MOL0     O28263  -1.831  10.400   3.951  0.1175  0.5891 -0.3244
  210MOL0     C28264  -1.525  10.457   3.762 -0.7795 -0.1896  0.8004
  210MOL0     C28265  -1.411  10.400   3.713  0.4113 -0.9555  0.3677
  210MOL0     N28266  -0.866   9.698   3.726 -0.1907 -0.3508  0.0093
  210MOL0     N28267  -0.763   9.620   3.747  0.4050 -0.6772  0.6881
  210MOL0     C28268   0.341   9.688   3.096  0.0117  0.2285  0.4275
  210MOL0     C28269   0.429   9.737   3.001 -0.1584  0.5554 -0.5458
  210MOL0     C28270   0.799   9.987   2.836 -0.5059  0.4585 -0.4997
  210MOL0     C28271   0.862   9.903   2.739 -0.1129  0.0203 -0.6019
  210MOL0     C28272   0.979   9.940   2.669 -0.2174  0.9113  0.1009
  210MOL0     C28273   1.035  10.059   2.687  0.9932  0.7353 -0.6954
  210MOL0     O28274   1.142  10.119   2.629 -0.4961 -0.6012  0.0658
  210MOL0     C28275   1.234  10.044   2.548  0.0762 -0.2744 -0.2924
  210MOL0     C28276   1.327   9.941   2.628 -0.9283  0.2824  0.8180
  210MOL0     C28277   1.424   9.863   2.532 -1.1113 -0.9920  0.0569
  210MOL0     C28278   1.496   9.752   2.614  0.1051  0.0343 -0.2803
  210MOL0     C28279   1.643   9.759   2.596  0.8764  0.6505  0.6339
  210MOL0     C28280   1.762   9.761   2.573 -0.1360  0.5633  0.2946
  210MOL0     C28281   0.960  10.153   2.762 -0.3013  0.7112  0.6141
  210MOL0     C28282   0.844  10.117   2.830  0.5502 -0.4002 -1.2694
  210MOL0     H28283   0.705   9.749   3.195 -0.0056  0.1979  2.7935
  210MOL0     H28284   0.540   9.688   3.371 -1.8441 -0.3518  1.0444
  210MOL0     H28285   0.396   9.527   3.448  2.7053  3.6308 -1.0673
  210MOL0     H28286   0.331   9.681   3.515  1.1166  0.9714  0.0084
  210MOL0     H28287   0.158   9.451   3.432  2.8618  1.3836 -0.9395
  210MOL0     H28288   0.217   9.487   3.599 -2.2512 -0.1638  1.5544
  210MOL0     H28289   0.074   9.702   3.595 -0.0701  1.1579 -2.4353
  210MOL0     H28290   0.055   9.672   3.429  3.9137 -1.1676 -0.7772
  210MOL0     H28291  -0.065   9.459   3.467  0.1554  1.8238 -1.0852
  210MOL0     H28292  -0.054   9.474   3.639 -0.2524 -3.9588 -1.9841
  210MOL0     H28293  -0.193   9.699   3.622 -2.6191  1.1990 -1.7677
  210MOL0     H28294  -0.212   9.677   3.455  0.1841 -0.5929 -0.9715
  210MOL0     H28295  -0.320   9.471   3.489  1.7585  3.1452 -0.8735
  210MOL0     H28296  -0.294   9.469   3.672  3.8921 -0.6147 -0.6244
  210MOL0     H28297  -0.412   9.681   3.689 -0.4608  3.1515 -2.3118
  210MOL0     H28298  -0.451   9.685   3.516 -0.8316 -4.3834 -3.0344
  210MOL0     H28299  -0.546   9.481   3.713 -4.1477 -0.8600 -0.1115
  210MOL0     H28300  -0.578   9.492   3.537 -1.7283  1.9796 -0.8532
  210MOL0     H28301  -0.662   9.782   3.473  1.7831 -0.9512  1.0100
  210MOL0     H28302  -0.858   9.997   3.576  0.5204  0.2346 -1.9052
  210MOL0     H28303  -0.933   9.899   3.451  2.6843 -0.1729 -1.0292
  210MOL0     H28304  -1.024   9.931   3.741  3.2368 -2.3076 -1.1911
  210MOL0     H28305  -1.111   9.839   3.626  2.2963 -1.3471  2.7053
  210MOL0     H28306  -1.164  10.047   3.497 -1.5290 -1.3210  0.3063
  210MOL0     H28307  -1.055  10.145   3.604 -0.0631 -0.3044  2.2920
  210MOL0     H28308  -1.186  10.116   3.795 -0.4435  2.2534  0.4430
  210MOL0     H28309  -1.293  10.016   3.711  1.6052 -0.9432  1.1430
  210MOL0     H28310  -1.465  10.092   3.796 -2.5717 -0.2849 -0.5146
  210MOL0     H28311  -1.816  10.175   3.892  1.1738  2.1443  0.0547
  210MOL0     H28312  -1.722  10.052   3.810 -0.0395  0.2028  0.2770
  210MOL0     H28313  -1.696  10.090   3.978  1.5070  0.0571 -0.4944
  210MOL0     H28314  -1.942  10.572   3.640 -2.2743 -2.0995  1.3687
  210MOL0     H28315  -2.170  10.657   3.667  2.3913 -1.9287 -1.9235
  210MOL0     H28316  -2.268  10.720   4.075 -2.7776 -1.3427  1.4785
  210MOL0     H28317  -2.267  10.899   4.050 -1.0072 -0.2545  0.0251
  210MOL0     H28318  -2.497  10.706   3.990 -0.6369  0.4453  0.6888
  210MOL0     H28319  -2.481  10.834   4.116  3.0090  2.1124 -0.5468
  210MOL0     H28320  -2.495  10.841   3.809  4.3880  0.3142  0.3576
  210MOL0     H28321  -2.434  10.984   3.905 -1.8344  1.3253  2.1504
  210MOL0     H28322  -2.708  10.876   3.958 -1.1784 -1.2184 -4.1290
  210MOL0     H28323  -2.636  11.033   4.002 -0.2295 -0.2594  0.3655
  210MOL0     H28324  -2.695  10.903   3.735  1.2544 -2.1991  4.3411
  210MOL0     H28325  -2.616  11.066   3.740  0.6983 -1.1988 -1.9558
  210MOL0     H28326  -2.801  11.162   3.863 -1.6013  1.0016 -0.1025
  210MOL0     H28327  -2.854  11.089   3.701 -1.1290 -2.6343 -0.3402
  210MOL0     H28328  -2.911  10.978   3.966 -0.5392  1.8236  0.9055
  210MOL0     H28329  -2.952  10.900   3.809 -0.2358  0.5769 -0.6385
  210MOL0     H28330  -3.050  11.172   3.926  0.6630 -1.4892  2.3447
  210MOL0     H28331  -3.140  11.020   3.905 -0.2805  0.7479  0.4930
  210MOL0     H28332  -2.042  10.821   4.048  0.1371 -1.3620  0.4995
  210MOL0     H28333  -1.814  10.723   4.007  0.2523 -2.1845  0.7549
  210MOL0     H28334  -1.527  10.562   3.734  1.3359 -0.5428 -0.9465
  210MOL0     H28335  -1.343  10.467   3.660 -0.0480  0.2521  1.2502
  210MOL0     H28336   0.242   9.653   3.069  0.2360 -1.8534  2.0412
  210MOL0     H28337   0.392   9.744   2.899  0.3085 -2.0285 -0.9784
  210MOL0     H28338   0.831   9.799   2.728  3.1742 -1.2113  0.4411
  210MOL0     H28339   1.019   9.864   2.603  1.2176 -1.7751  3.6932
  210MOL0     H28340   1.175   9.989   2.474 -0.1179 -0.0763 -0.2859
  210MOL0     H28341   1.301  10.109   2.491 -2.5405  0.1130 -3.1906
  210MOL0     H28342   1.270   9.861   2.674 -0.8163 -0.0249  0.4327
  210MOL0     H28343   1.376   9.981   2.717 -2.3020 -2.1469  2.7664
  210MOL0     H28344   1.496   9.927   2.480  1.5964 -3.3738  0.6347
  210MOL0     H28345   1.370   9.821   2.446  1.2905 -1.1047 -1.4778
  210MOL0     H28346   1.463   9.652   2.586  0.6754 -0.5268  0.9960
  210MOL0     H28347   1.470   9.769   2.719  0.1226  2.1850 -0.5795
  210MOL0     H28348   1.868   9.771   2.559  0.1246  3.1693  3.0007
  210MOL0     H28349   1.004  10.252   2.771 -0.7544  1.0885 -0.9726
  210MOL0     H28350   0.812  10.187   2.906  1.5044 -1.2332 -0.0509
  211MOL0     O28351   4.989   9.239   1.005 -0.5105 -0.0585 -0.4813
  211MOL0     C28352   5.092   9.197   0.955 -0.0875 -1.4931  0.5229
  211MOL0     O28353   5.103   9.097   0.860 -0.2591 -0.1903  0.4553
  211MOL0     C28354   5.009   9.009   0.817  0.9777  0.0326  0.3102
  211MOL0     C28355   5.051   8.901   0.737  0.5329  0.3352  0.4875
  211MOL0     C28356   4.958   8.809   0.690 -0.7637 -0.6107 -0.1093
  211MOL0     C28357   4.827   8.821   0.727 -0.1061 -0.7553  0.1916
  211MOL0     O28358   4.749   8.719   0.692  0.2643 -0.4701 -0.4098
  211MOL0     C28359   4.620   8.702   0.753  0.4679 -0.0471 -0.1048
  211MOL0     C28360   4.565   8.564   0.719 -0.1557  0.4881  0.8525
  211MOL0     C28361   4.427   8.547   0.782  0.1340 -0.1333 -1.1077
  211MOL0     C28362   4.310   8.592   0.696 -1.3964 -0.7574  0.5568
  211MOL0     C28363   4.187   8.628   0.781  0.2447 -0.6225 -0.0450
  211MOL0     C28364   4.065   8.658   0.685  0.6034  0.5953  0.7585
  211MOL0     C28365   3.923   8.654   0.761  0.2429 -0.6387 -0.1443
  211MOL0     C28366   3.873   8.514   0.767 -0.3815  0.0414 -1.0199
  211MOL0     N28367   3.740   8.490   0.833  0.7207 -0.0208  0.4959
  211MOL0     C28368   3.646   8.579   0.806 -0.9100 -0.0999  0.4541
  211MOL0     C28369   3.549   8.543   0.895 -0.9277 -0.4030  0.1926
  211MOL0     C28370   3.414   8.608   0.908 -0.0787  0.2518  0.3147
  211MOL0     C28371   3.433   8.719   1.019  0.5989 -0.2861  0.7473
  211MOL0     C28372   3.309   8.814   1.006 -0.3177  0.2617  0.6499
  211MOL0     C28373   3.177   8.742   1.034 -0.4538  0.1940 -0.0389
  211MOL0     O28374   3.084   8.844   1.068  0.4657 -0.5541 -0.2010
  211MOL0     C28375   2.949   8.814   1.061  1.3901  0.6936 -0.0533
  211MOL0     C28376   2.883   8.692   1.037  0.5937 -0.1454  0.0568
  211MOL0     C28377   2.741   8.684   1.044 -1.0842  0.2010  0.5088
  211MOL0     C28378   2.695   8.548   1.019  0.0961  0.0724 -0.7684
  211MOL0     C28379   2.663   8.798   1.057  0.1541 -0.7803 -0.4022
  211MOL0     C28380   2.506   8.806   1.055 -0.2569 -0.4220  0.3342
  211MOL0     O28381   2.441   8.688   1.039 -0.1755 -0.3227 -0.2979
  211MOL0     C28382   2.308   8.693   1.049 -0.3686  0.3203  0.8774
  211MOL0     C28383   2.251   8.634   1.162 -0.0638  0.8323  0.4025
  211MOL0     C28384   2.112   8.637   1.183 -0.2963  0.1777 -0.1981
  211MOL0     C28385   2.029   8.711   1.095 -0.5764  0.0752 -0.7607
  211MOL0     O28386   1.894   8.712   1.130 -0.2468  0.4481  0.1277
  211MOL0     C28387   1.803   8.746   1.016  0.4454  0.3471 -0.3580
  211MOL0     C28388   1.655   8.743   1.052  0.1435  0.1400  0.6182
  211MOL0     C28389   1.591   8.618   1.099 -0.8116 -0.4032  0.2522
  211MOL0     C28390   1.449   8.641   1.146 -0.3843 -0.0737 -0.1262
  211MOL0     C28391   1.384   8.520   1.213 -0.2933 -0.1015 -0.2108
  211MOL0     C28392   1.232   8.508   1.189  0.0475 -1.0693 -0.5102
  211MOL0     C28393   1.143   8.558   1.310 -0.4682  0.5312 -0.2712
  211MOL0     C28394   1.019   8.617   1.255  0.4377  0.3087  0.9475
  211MOL0    Cl28395   1.050   8.752   1.128  0.1529 -0.1953  0.3245
  211MOL0     C28396   2.084   8.759   0.972 -0.2631 -0.6887  1.0578
  211MOL0     C28397   2.224   8.743   0.950  0.5612 -0.2708 -0.1890
  211MOL0     O28398   2.451   8.918   1.062  0.2152 -0.0531  0.2817
  211MOL0     C28399   2.719   8.920   1.082  0.3739 -0.1544 -0.4629
  211MOL0     C28400   2.859   8.924   1.082 -0.1245  0.4714 -1.0527
  211MOL0     N28401   3.591   8.433   0.972  0.2800 -0.0351 -0.5553
  211MOL0     N28402   3.699   8.398   0.924  0.8446  0.1883  0.0822
  211MOL0     C28403   4.789   8.924   0.811 -0.7543  0.4340 -0.5722
  211MOL0     C28404   4.878   9.020   0.850  0.6106 -0.3257 -0.6359
  211MOL0     C28405   5.216   9.263   1.009 -0.4679 -0.1373  0.3683
  211MOL0     C28406   5.222   9.345   1.125  0.1684  0.0152 -0.6129
  211MOL0     C28407   5.346   9.395   1.169 -0.3050  0.9849  0.2930
  211MOL0     C28408   5.469   9.367   1.102  0.4263 -0.3844 -0.8984
  211MOL0     O28409   5.586   9.402   1.151 -0.0833  1.0588 -0.4005
  211MOL0     C28410   5.699   9.415   1.071  0.3774 -0.6962  0.7210
  211MOL0     C28411   5.791   9.508   1.145 -0.0826  0.5852 -0.0995
  211MOL0     C28412   5.895   9.562   1.054 -0.4591 -0.1624 -0.3231
  211MOL0     C28413   6.037   9.573   1.114 -0.3018  0.3500 -0.1504
  211MOL0     C28414   6.044   9.673   1.221  0.6095  0.2371 -0.3907
  211MOL0     C28415   6.051   9.770   1.291  0.4086 -0.7966 -0.2695
  211MOL0     C28416   5.462   9.284   0.995 -0.1739 -0.6338  0.0662
  211MOL0     C28417   5.341   9.229   0.949 -0.6258 -0.5073 -0.0089
  211MOL0     H28418   5.155   8.890   0.709 -0.3151 -0.8696 -2.5315
  211MOL0     H28419   4.990   8.730   0.623 -0.3397 -0.2659 -0.3157
  211MOL0     H28420   4.635   8.710   0.861  1.0009 -3.1461  0.1380
  211MOL0     H28421   4.552   8.784   0.725 -0.4921 -1.6371 -2.7059
  211MOL0     H28422   4.554   8.544   0.612  1.9798  1.0553  0.4811
  211MOL0     H28423   4.633   8.484   0.751  0.4880  1.2258  1.3369
  211MOL0     H28424   4.408   8.440   0.797 -1.9090  0.2114 -0.9137
  211MOL0     H28425   4.434   8.605   0.874  1.3190 -1.2621 -0.4640
  211MOL0     H28426   4.347   8.679   0.640  2.5687 -1.6080  1.5176
  211MOL0     H28427   4.281   8.509   0.631  0.2274  1.1493 -2.8620
  211MOL0     H28428   4.166   8.540   0.842  1.1317 -1.4891 -0.9387
  211MOL0     H28429   4.204   8.712   0.848 -0.3155  1.9466 -2.8721
  211MOL0     H28430   4.082   8.754   0.635 -1.5839  0.8626  0.4508
  211MOL0     H28431   4.057   8.587   0.602  1.5104 -1.0904  2.0464
  211MOL0     H28432   3.929   8.701   0.860  0.6391 -0.3513 -0.3050
  211MOL0     H28433   3.857   8.712   0.696 -0.5388 -1.7001 -0.3254
  211MOL0     H28434   3.951   8.461   0.823 -1.6534 -1.1717 -0.3263
  211MOL0     H28435   3.878   8.467   0.668 -0.5845 -2.2975  0.0034
  211MOL0     H28436   3.639   8.655   0.730  0.5911 -1.4513 -1.1193
  211MOL0     H28437   3.393   8.667   0.819  1.0244  0.9918  0.5141
  211MOL0     H28438   3.336   8.533   0.920  0.1315 -0.3283 -1.6039
  211MOL0     H28439   3.525   8.775   0.998  0.4561  0.5591  2.2537
  211MOL0     H28440   3.440   8.692   1.125 -3.9429  0.6308  1.4549
  211MOL0     H28441   3.308   8.857   0.905  1.7046  0.4227  0.6615
  211MOL0     H28442   3.320   8.886   1.088  1.5343 -0.9513  1.5237
  211MOL0     H28443   3.194   8.666   1.112  0.6568  1.5092  1.0474
  211MOL0     H28444   3.141   8.693   0.943 -1.2787 -0.1760  0.4781
  211MOL0     H28445   2.930   8.597   1.013  1.4633  0.0747  0.8423
  211MOL0     H28446   2.767   8.468   1.039  0.2306  0.3878  0.0386
  211MOL0     H28447   2.619   8.533   1.097 -0.3374  3.2761 -0.4136
  211MOL0     H28448   2.654   8.548   0.917 -0.0916 -1.0777 -0.7113
  211MOL0     H28449   2.329   8.591   1.224  0.1689  0.4207 -0.1728
  211MOL0     H28450   2.073   8.602   1.278  0.1736 -0.4686 -0.2420
  211MOL0     H28451   1.816   8.849   0.981  3.0076  0.0835 -0.3685
  211MOL0     H28452   1.811   8.672   0.936  0.3601  0.2016 -0.2309
  211MOL0     H28453   1.640   8.816   1.133 -0.0264  1.2009 -0.3365
  211MOL0     H28454   1.600   8.784   0.967 -0.9113 -0.5518  0.9459
  211MOL0     H28455   1.647   8.583   1.187 -1.5557 -1.7720  0.2032
  211MOL0     H28456   1.605   8.547   1.017 -1.8781  1.2039 -1.3936
  211MOL0     H28457   1.420   8.729   1.204 -0.4655 -1.1753  1.5716
  211MOL0     H28458   1.396   8.659   1.052  0.3390 -2.0814 -0.9610
  211MOL0     H28459   1.401   8.525   1.321 -2.6577 -1.5703  0.3089
  211MOL0     H28460   1.438   8.435   1.173 -0.8907 -1.1582  1.1504
  211MOL0     H28461   1.215   8.553   1.090  2.0991 -0.0173 -0.4455
  211MOL0     H28462   1.214   8.401   1.172 -1.9047 -0.7762 -0.4756
  211MOL0     H28463   1.187   8.640   1.369 -2.7485  3.2761 -2.1165
  211MOL0     H28464   1.127   8.473   1.377  2.8345  0.8730  1.1598
  211MOL0     H28465   0.960   8.665   1.334 -0.9038 -2.1118  1.5213
  211MOL0     H28466   0.964   8.532   1.214  1.9703  0.8798 -2.6519
  211MOL0     H28467   2.021   8.817   0.904 -0.6559  0.3016  2.2313
  211MOL0     H28468   2.278   8.783   0.865  3.7830 -0.8392  1.4505
  211MOL0     H28469   2.664   9.011   1.062 -2.8149 -1.7828  0.2775
  211MOL0     H28470   2.919   9.011   1.108  1.7207 -0.5657 -1.6169
  211MOL0     H28471   4.690   8.947   0.848  0.7391  2.5652  2.4931
  211MOL0     H28472   4.846   9.107   0.906 -0.9088 -1.1332 -0.2028
  211MOL0     H28473   5.132   9.361   1.183  1.2953 -0.1140  1.2465
  211MOL0     H28474   5.338   9.439   1.268 -0.6304  1.6601 -0.0319
  211MOL0     H28475   5.737   9.316   1.046 -3.0138 -1.6953 -1.2760
  211MOL0     H28476   5.674   9.470   0.979  2.1831 -2.3558 -0.8393
  211MOL0     H28477   5.834   9.446   1.224 -0.4009  1.1715  0.5436
  211MOL0     H28478   5.749   9.598   1.190  0.5333  0.0884  1.5370
  211MOL0     H28479   5.863   9.660   1.018 -0.6439 -0.2413 -0.3711
  211MOL0     H28480   5.906   9.499   0.966  0.9837  1.2347 -1.2070
  211MOL0     H28481   6.116   9.602   1.044  0.7649  2.0284  1.6535
  211MOL0     H28482   6.066   9.478   1.161  0.4099  1.1777  1.1352
  211MOL0     H28483   6.086   9.854   1.347  1.4282 -0.5959 -1.1644
  211MOL0     H28484   5.555   9.248   0.953  0.7366 -0.4584  1.8564
  211MOL0     H28485   5.352   9.160   0.867  2.3249  0.1280 -0.2410
  212MOL0     O28486   6.362   8.850   4.512 -0.5127  0.4837 -0.5199
  212MOL0     C28487   6.412   8.938   4.574 -0.5127  1.3102  0.6042
  212MOL0     O28488   6.339   9.027   4.644 -0.5314  0.7889 -0.0022
  212MOL0     C28489   6.195   9.022   4.653 -0.0286  0.5455  0.1490
  212MOL0     C28490   6.135   9.015   4.773 -0.3219  0.2898 -1.1016
  212MOL0     C28491   5.996   9.028   4.779  0.2506 -0.1748  1.0699
  212MOL0     C28492   5.917   9.041   4.658  0.0258 -0.3065  0.2801
  212MOL0     O28493   5.783   9.064   4.687  0.6304 -0.2370 -0.7833
  212MOL0     C28494   5.702   9.099   4.576  0.0455  0.1027  1.4442
  212MOL0     C28495   5.652   8.988   4.484  0.7539 -0.7765  0.0685
  212MOL0     C28496   5.546   9.056   4.385 -0.7498 -0.0655 -0.2935
  212MOL0     C28497   5.401   9.030   4.441  0.6325 -0.2497  0.4740
  212MOL0     C28498   5.292   9.082   4.345 -0.5038  0.8984 -0.3582
  212MOL0     C28499   5.169   8.996   4.350 -0.2679  0.7869 -0.4877
  212MOL0     C28500   5.059   9.042   4.253  0.8899  0.2772  0.3049
  212MOL0     C28501   5.079   8.992   4.108  0.8573  0.1277  0.2316
  212MOL0     N28502   4.994   9.077   4.019 -0.1957 -0.0561  0.4995
  212MOL0     C28503   4.860   9.094   4.023 -1.0292  0.0713  0.6104
  212MOL0     C28504   4.837   9.181   3.915  0.2407  0.3275  0.1105
  212MOL0     C28505   4.711   9.238   3.876  0.0739 -0.4021  0.3145
  212MOL0     C28506   4.653   9.152   3.759  0.1793 -0.2821 -0.5423
  212MOL0     C28507   4.498   9.175   3.738  0.2207  0.1046  0.0451
  212MOL0     C28508   4.463   9.325   3.736  0.8616  0.3366 -0.1117
  212MOL0     O28509   4.423   9.354   3.604  0.1763  0.4207  0.3753
  212MOL0     C28510   4.296   9.319   3.560 -0.7629  0.1050  0.0547
  212MOL0     C28511   4.269   9.317   3.422 -0.4202  0.4552 -0.2792
  212MOL0     C28512   4.139   9.316   3.369 -1.0294 -0.2632 -0.2505
  212MOL0     C28513   4.128   9.318   3.223 -0.2788 -0.4657 -0.1790
  212MOL0     C28514   4.029   9.330   3.462  0.4081  0.2877  0.6696
  212MOL0     C28515   3.887   9.367   3.415  0.4403  0.3797 -0.6731
  212MOL0     O28516   3.787   9.367   3.516 -0.7294 -0.1760 -0.2931
  212MOL0     C28517   3.650   9.384   3.494  0.2418  0.0588  0.3436
  212MOL0     C28518   3.568   9.448   3.584  0.4629  0.1121 -0.0848
  212MOL0     C28519   3.430   9.471   3.568 -0.2988 -0.4525 -0.0036
  212MOL0     C28520   3.365   9.412   3.456 -0.7864 -1.1602 -0.8782
  212MOL0     O28521   3.235   9.437   3.439 -0.3726  0.0833  0.2291
  212MOL0     C28522   3.162   9.354   3.339 -0.3432 -0.1602 -0.3134
  212MOL0     C28523   3.014   9.390   3.331 -0.6660 -0.1821  0.9855
  212MOL0     C28524   2.998   9.539   3.294  0.1552 -0.2391  0.5092
  212MOL0     C28525   2.851   9.576   3.328  0.0288 -0.1222 -1.1369
  212MOL0     C28526   2.815   9.711   3.285 -0.0363 -0.4555  0.0414
  212MOL0     C28527   2.681   9.763   3.344 -0.5802  1.0009  0.5152
  212MOL0     C28528   2.561   9.714   3.264 -0.2829 -0.1467 -0.2027
  212MOL0     C28529   2.432   9.766   3.307 -0.4148  0.1921  0.7707
  212MOL0    Cl28530   2.452   9.927   3.393 -0.1008 -0.0496  0.2599
  212MOL0     C28531   3.450   9.336   3.376  0.1570 -0.8752  0.3217
  212MOL0     C28532   3.589   9.325   3.390  0.2960 -0.9815  0.0614
  212MOL0     O28533   3.861   9.376   3.294  0.1887 -0.0990 -0.4619
  212MOL0     C28534   4.054   9.323   3.602  0.8141  0.9967  0.7101
  212MOL0     C28535   4.187   9.306   3.647 -0.9262  0.8284  0.6956
  212MOL0     N28536   4.954   9.221   3.860 -0.4592 -1.2213 -0.6527
  212MOL0     N28537   5.052   9.154   3.929  0.2332 -0.6847 -0.2504
  212MOL0     C28538   5.981   9.057   4.534  0.4612 -0.2773  0.4736
  212MOL0     C28539   6.119   9.039   4.536  0.4179 -0.8619  0.4023
  212MOL0     C28540   6.554   8.963   4.553 -0.1969 -0.2900  1.1651
  212MOL0     C28541   6.637   8.883   4.472  0.3355 -0.5844  0.2217
  212MOL0     C28542   6.769   8.911   4.450  1.1099 -0.1752 -0.5384
  212MOL0     C28543   6.823   9.022   4.508 -0.2861 -0.0762  0.4271
  212MOL0     O28544   6.958   9.054   4.500 -0.5585  0.1738 -0.0816
  212MOL0     C28545   7.007   9.083   4.371  0.2939  0.7457 -0.3023
  212MOL0     C28546   7.167   9.083   4.371 -0.4213  0.6708  0.0996
  212MOL0     C28547   7.210   9.179   4.482 -0.5466 -0.2633 -0.5959
  212MOL0     C28548   7.354   9.230   4.496  0.2204 -0.3350 -0.4257
  212MOL0     C28549   7.432   9.258   4.374  1.0169 -0.9693 -1.1151
  212MOL0     C28550   7.489   9.295   4.275  0.7914 -1.0601  0.2613
  212MOL0     C28551   6.744   9.094   4.597  0.4479 -0.4200 -1.0403
  212MOL0     C28552   6.613   9.070   4.623 -0.5828 -0.1938 -0.1055
  212MOL0     H28553   6.199   9.022   4.860 -2.7391  1.5482  0.6791
  212MOL0     H28554   5.945   9.038   4.874  2.2549  0.2035  2.1553
  212MOL0     H28555   5.613   9.154   4.609 -0.2657  2.0740 -2.1565
  212MOL0     H28556   5.764   9.169   4.519 -0.8012 -0.8805 -0.7909
  212MOL0     H28557   5.738   8.941   4.435  0.4368 -0.0942 -1.1602
  212MOL0     H28558   5.602   8.913   4.546 -0.2459 -2.9122 -3.0825
  212MOL0     H28559   5.566   9.163   4.374  0.7352 -0.3600 -0.6650
  212MOL0     H28560   5.557   9.015   4.285 -1.5310  0.7348 -0.7202
  212MOL0     H28561   5.381   8.922   4.444 -1.1051 -0.0543 -1.7013
  212MOL0     H28562   5.392   9.071   4.543  0.0439 -0.2255  0.4176
  212MOL0     H28563   5.270   9.188   4.362  2.5828  1.6506 -0.5881
  212MOL0     H28564   5.337   9.076   4.246  0.5729 -0.2231  0.1724
  212MOL0     H28565   5.206   8.898   4.319 -2.5565 -0.1994 -0.3157
  212MOL0     H28566   5.127   8.987   4.451  1.8115  1.1211  0.4559
  212MOL0     H28567   4.966   9.005   4.297  0.3852  2.4785  1.2542
  212MOL0     H28568   5.048   9.151   4.256  3.1264  0.5853 -0.7566
  212MOL0     H28569   5.042   8.890   4.098  0.7786  0.2894 -1.5941
  212MOL0     H28570   5.187   8.989   4.094  0.9148 -2.9558  0.6942
  212MOL0     H28571   4.794   9.045   4.093 -2.1162  0.2819 -0.2463
  212MOL0     H28572   4.642   9.237   3.962 -3.2348  0.0785 -2.1399
  212MOL0     H28573   4.722   9.344   3.854 -0.1682 -0.3367  0.4913
  212MOL0     H28574   4.669   9.046   3.782  1.6001  0.0239 -0.0130
  212MOL0     H28575   4.709   9.173   3.668  0.9637  1.3604  0.2816
  212MOL0     H28576   4.462   9.132   3.832  1.6406 -1.1441  0.0569
  212MOL0     H28577   4.457   9.113   3.658 -2.1195  0.2151  1.0909
  212MOL0     H28578   4.545   9.393   3.760 -0.5166  0.9288  3.5657
  212MOL0     H28579   4.384   9.336   3.812  0.3296  1.0809 -0.7646
  212MOL0     H28580   4.354   9.327   3.355  1.1443  1.2242  1.6859
  212MOL0     H28581   4.108   9.418   3.184 -0.7972 -0.7900 -0.7825
  212MOL0     H28582   4.218   9.291   3.166  2.1147  3.0637  1.6047
  212MOL0     H28583   4.050   9.244   3.200  0.0976 -0.5903 -1.1220
  212MOL0     H28584   3.610   9.482   3.678  1.0772 -3.4207  1.0573
  212MOL0     H28585   3.382   9.537   3.639 -1.4149 -0.0516 -1.0968
  212MOL0     H28586   3.213   9.372   3.244  3.2662  2.2773  1.7860
  212MOL0     H28587   3.171   9.250   3.372  1.1176 -0.1782 -0.7095
  212MOL0     H28588   2.963   9.328   3.256 -0.6400  1.1546 -0.1868
  212MOL0     H28589   2.968   9.354   3.423  0.5752 -0.2524  1.6076
  212MOL0     H28590   3.032   9.537   3.190  1.0435 -2.9172  0.7522
  212MOL0     H28591   3.071   9.595   3.353  0.3758 -0.0427  0.0534
  212MOL0     H28592   2.776   9.507   3.288 -1.2947 -0.6116  1.8891
  212MOL0     H28593   2.846   9.581   3.437  0.4719 -0.1833 -1.1134
  212MOL0     H28594   2.795   9.707   3.177 -1.7269  1.0710  0.2555
  212MOL0     H28595   2.895   9.778   3.315 -1.1059 -0.1717  2.4583
  212MOL0     H28596   2.670   9.731   3.448 -0.1284 -1.7282 -0.1987
  212MOL0     H28597   2.681   9.872   3.341  1.5009  1.0454  0.8752
  212MOL0     H28598   2.554   9.605   3.264 -1.5078 -0.0841  0.5634
  212MOL0     H28599   2.583   9.742   3.160 -0.4242  1.4981  0.1768
  212MOL0     H28600   2.375   9.692   3.364 -1.2821  0.0882 -0.1911
  212MOL0     H28601   2.376   9.779   3.214 -0.1537 -2.8356  0.0983
  212MOL0     H28602   3.410   9.288   3.287  0.7629  1.8100 -1.5395
  212MOL0     H28603   3.643   9.267   3.316  0.4623  0.4466 -0.9916
  212MOL0     H28604   3.977   9.340   3.677  0.6234  0.4152  0.6492
  212MOL0     H28605   4.199   9.284   3.753  1.4313 -3.1556 -0.1768
  212MOL0     H28606   5.927   9.073   4.441  1.0577  1.7086  0.4268
  212MOL0     H28607   6.172   9.047   4.442  2.8958  1.3248  1.8597
  212MOL0     H28608   6.590   8.803   4.415  2.1769 -1.5803  0.0410
  212MOL0     H28609   6.832   8.842   4.395  1.7208 -2.2169  2.4581
  212MOL0     H28610   6.971   8.997   4.313  0.7336 -0.9104  1.7509
  212MOL0     H28611   6.956   9.177   4.346 -2.3231 -0.5063 -0.0827
  212MOL0     H28612   7.194   9.102   4.267 -4.0737 -3.2402 -1.8957
  212MOL0     H28613   7.206   8.985   4.403 -0.5323  1.0948  1.6121
  212MOL0     H28614   7.178   9.139   4.579 -0.0688  2.0563  0.5891
  212MOL0     H28615   7.141   9.264   4.474 -1.1703 -0.7178 -0.0962
  212MOL0     H28616   7.417   9.160   4.552  1.8087  1.0567 -0.3943
  212MOL0     H28617   7.337   9.326   4.546  0.8860  0.9457 -2.5484
  212MOL0     H28618   7.542   9.334   4.190  0.3666 -0.6886  0.1636
  212MOL0     H28619   6.784   9.163   4.671  0.2625  1.0297 -2.2402
  212MOL0     H28620   6.569   9.137   4.696 -2.2758 -0.1247 -1.1388
  213MOL0     O28621   9.537   5.612   9.920  0.3559  0.5058 -0.5338
  213MOL0     C28622   9.594   5.503   9.900  0.1163 -0.0749 -0.2078
  213MOL0     O28623   9.546   5.377   9.911  0.4573 -0.0443 -0.8195
  213MOL0     C28624   9.410   5.364   9.925 -0.2838 -0.1866 -0.9675
  213MOL0     C28625   9.359   5.301  10.034  0.5137  0.8068 -0.0002
  213MOL0     C28626   9.218   5.289  10.058 -0.8647 -0.7015 -0.0083
  213MOL0     C28627   9.126   5.337   9.969 -0.1196 -0.4597  1.0536
  213MOL0     O28628   8.995   5.309   9.998  0.1175 -0.7368 -0.0099
  213MOL0     C28629   8.881   5.373   9.925 -0.2146 -0.7395 -0.0611
  213MOL0     C28630   8.861   5.515   9.977 -0.8043  0.1468 -0.0904
  213MOL0     C28631   8.765   5.598   9.893  0.9832 -0.3898 -0.1898
  213MOL0     C28632   8.723   5.728   9.970 -0.6183  0.4555  0.1157
  213MOL0     C28633   8.597   5.778   9.906  0.2838  0.1707 -0.0326
  213MOL0     C28634   8.535   5.876  10.001 -0.3563 -0.2616 -0.0250
  213MOL0     C28635   8.429   5.952   9.922 -0.3796 -0.0650  0.1375
  213MOL0     C28636   8.496   6.076   9.855 -0.2695  0.6318 -0.3736
  213MOL0     N28637   8.386   6.137   9.783 -0.2173 -0.0241  0.0107
  213MOL0     C28638   8.291   6.213   9.839 -0.1113  0.3556 -1.3151
  213MOL0     C28639   8.210   6.255   9.739 -0.1121 -0.2361 -0.0397
  213MOL0     C28640   8.106   6.367   9.735 -0.2996  0.8728 -0.8355
  213MOL0     C28641   7.966   6.309   9.749  0.4947  0.8066 -0.1283
  213MOL0     C28642   7.852   6.413   9.758  0.2474 -0.3754 -0.0463
  213MOL0     C28643   7.715   6.345   9.745  0.6400 -0.7160  0.4415
  213MOL0     O28644   7.647   6.387   9.626 -0.0071 -0.3014 -0.0804
  213MOL0     C28645   7.524   6.325   9.593 -0.0958  0.8571 -1.1336
  213MOL0     C28646   7.468   6.390   9.485  0.5266  0.3756  0.7743
  213MOL0     C28647   7.343   6.351   9.434  0.7148  0.5801 -0.3347
  213MOL0     C28648   7.290   6.429   9.319 -0.7078  0.1337  0.3019
  213MOL0     C28649   7.273   6.235   9.496 -1.7363 -0.5030  0.3388
  213MOL0     C28650   7.139   6.186   9.455 -0.2837 -0.6788  0.0965
  213MOL0     O28651   7.109   6.056   9.469 -0.8890  0.2570 -0.1929
  213MOL0     C28652   6.988   6.011   9.457  0.8848  0.4330  0.3578
  213MOL0     C28653   6.881   6.048   9.545  0.3450  0.2674  0.3596
  213MOL0     C28654   6.755   5.982   9.532  0.1195  0.3350 -0.1264
  213MOL0     C28655   6.738   5.878   9.443 -0.3846  0.0349 -0.6281
  213MOL0     O28656   6.604   5.842   9.429  0.1444  0.0821 -0.1317
  213MOL0     C28657   6.575   5.729   9.346  0.1661  0.8283  0.0446
  213MOL0     C28658   6.609   5.587   9.396 -0.5239  0.4258  0.2661
  213MOL0     C28659   6.525   5.541   9.524  0.3654  0.3938 -0.2814
  213MOL0     C28660   6.378   5.513   9.497 -0.3688  0.1182  0.2911
  213MOL0     C28661   6.293   5.485   9.621 -0.3128 -0.7505 -0.1277
  213MOL0     C28662   6.156   5.420   9.594 -0.1252 -0.3719  0.5260
  213MOL0     C28663   6.077   5.418   9.719  0.0908 -0.4903  0.4876
  213MOL0     C28664   5.940   5.359   9.689  0.5716  0.1611  0.2515
  213MOL0    Cl28665   5.845   5.346   9.831  0.2921  0.1136  0.1061
  213MOL0     C28666   6.847   5.832   9.366  0.1215  0.8568 -0.7364
  213MOL0     C28667   6.967   5.890   9.380  0.7335 -0.5905 -0.7602
  213MOL0     O28668   7.056   6.276   9.423 -0.4656  0.3075  0.3459
  213MOL0     C28669   7.340   6.166   9.597  0.1608  1.0594 -1.0617
  213MOL0     C28670   7.464   6.219   9.656 -0.3402  0.1419  0.1572
  213MOL0     N28671   8.264   6.195   9.620  0.2942  0.1819 -0.2574
  213MOL0     N28672   8.368   6.128   9.651 -0.4521  0.1746 -0.7251
  213MOL0     C28673   9.177   5.389   9.847  0.2663 -0.2378 -0.6881
  213MOL0     C28674   9.321   5.404   9.828  0.1898  1.1719 -0.2494
  213MOL0     C28675   9.739   5.501   9.851  0.1020  0.4492 -1.4649
  213MOL0     C28676   9.806   5.380   9.842  0.2315 -0.4825 -0.5826
  213MOL0     C28677   9.938   5.379   9.793  0.1133 -1.0148 -0.2170
  213MOL0     C28678   9.989   5.499   9.741 -1.2891  0.5061  0.9435
  213MOL0     O28679  10.120   5.489   9.697  0.3743  0.4324  0.2897
  213MOL0     C28680  10.197   5.599   9.654 -1.1446  0.6934  0.0395
  213MOL0     C28681  10.323   5.545   9.589 -0.2445 -0.9584  0.4083
  213MOL0     C28682  10.432   5.664   9.595 -0.2727  0.8098 -0.2329
  213MOL0     C28683  10.557   5.627   9.509  0.1485 -0.9373  0.2161
  213MOL0     C28684  10.670   5.649   9.595 -0.4400 -0.6303 -0.2907
  213MOL0     C28685  10.756   5.685   9.669 -0.0776 -0.6252 -0.2371
  213MOL0     C28686   9.921   5.620   9.757 -0.7010  0.4910  0.3228
  213MOL0     C28687   9.790   5.619   9.809 -0.1916 -0.4458  0.2689
  213MOL0     H28688   9.427   5.258  10.107  0.0447 -0.1942 -0.1239
  213MOL0     H28689   9.192   5.248  10.155  1.2132  0.0521  0.9217
  213MOL0     H28690   8.902   5.370   9.817  0.4816  3.2061 -0.2085
  213MOL0     H28691   8.789   5.318   9.947  0.6243 -1.1302  2.9063
  213MOL0     H28692   8.828   5.517  10.081  1.2497  1.6006  0.5729
  213MOL0     H28693   8.960   5.560   9.968 -0.5160 -0.3706  0.3862
  213MOL0     H28694   8.807   5.620   9.794  2.1777 -0.9185  0.1794
  213MOL0     H28695   8.675   5.537   9.883  0.3469 -0.1154  2.8760
  213MOL0     H28696   8.706   5.699  10.075 -0.5009 -1.9363 -0.4633
  213MOL0     H28697   8.804   5.802   9.968  1.7262 -1.9520 -2.0627
  213MOL0     H28698   8.618   5.827   9.810 -0.3192  1.3304  0.4032
  213MOL0     H28699   8.525   5.697   9.888  1.6914 -0.7369 -1.9157
  213MOL0     H28700   8.496   5.816  10.083 -2.9561  1.4267  0.1103
  213MOL0     H28701   8.616   5.942  10.035  0.3522 -2.1082  2.1165
  213MOL0     H28702   8.388   5.887   9.844  2.5787 -0.5260 -1.1617
  213MOL0     H28703   8.342   5.979   9.984 -0.5483  1.9235 -0.8612
  213MOL0     H28704   8.570   6.047   9.779 -2.2012  1.6332 -2.7774
  213MOL0     H28705   8.540   6.150   9.922  2.4238 -0.1508 -1.1439
  213MOL0     H28706   8.280   6.237   9.945 -0.1303  0.4211 -1.3315
  213MOL0     H28707   8.127   6.431   9.821 -0.1214  0.0504 -0.2486
  213MOL0     H28708   8.116   6.422   9.641  2.8655 -0.3980 -1.3514
  213MOL0     H28709   7.967   6.250   9.842 -2.6933 -0.0742 -0.5333
  213MOL0     H28710   7.935   6.235   9.675  0.7631 -0.4706  0.9917
  213MOL0     H28711   7.847   6.487   9.677 -0.6049  1.0571  1.2774
  213MOL0     H28712   7.854   6.470   9.851  0.3474 -0.6882  0.1474
  213MOL0     H28713   7.651   6.369   9.830 -0.8252 -4.1056  0.4601
  213MOL0     H28714   7.727   6.236   9.745 -2.0663 -1.0908 -0.1471
  213MOL0     H28715   7.532   6.461   9.433  2.0324 -1.6849 -0.3483
  213MOL0     H28716   7.370   6.427   9.245 -2.0410 -2.0503 -1.1798
  213MOL0     H28717   7.209   6.381   9.263  0.4754 -0.5427 -0.8729
  213MOL0     H28718   7.256   6.530   9.345  0.3181  0.4496  0.4594
  213MOL0     H28719   6.876   6.136   9.608 -0.6106  0.5366 -0.0666
  213MOL0     H28720   6.669   6.013   9.591 -0.4623  0.1166 -0.8445
  213MOL0     H28721   6.467   5.718   9.336  0.2996 -0.2319 -0.4298
  213MOL0     H28722   6.615   5.737   9.245  0.2888 -2.6974 -0.3325
  213MOL0     H28723   6.597   5.514   9.316  0.2365  0.6981 -0.0981
  213MOL0     H28724   6.714   5.578   9.425 -0.1199 -0.6601 -1.4235
  213MOL0     H28725   6.534   5.618   9.602  5.0381 -2.1474  2.1361
  213MOL0     H28726   6.572   5.451   9.564  1.3192  0.6504 -0.7983
  213MOL0     H28727   6.326   5.578   9.426  1.0294 -1.4347 -2.3468
  213MOL0     H28728   6.381   5.427   9.429  3.1093  0.7370 -0.5177
  213MOL0     H28729   6.273   5.584   9.664 -2.7697 -0.7245 -1.1934
  213MOL0     H28730   6.361   5.419   9.675 -1.1136 -1.6531 -0.2177
  213MOL0     H28731   6.109   5.487   9.520 -0.5242 -1.8623 -0.6190
  213MOL0     H28732   6.162   5.319   9.553  1.1615  0.1453 -0.6566
  213MOL0     H28733   6.056   5.521   9.751 -0.6765 -0.6737  0.5836
  213MOL0     H28734   6.141   5.363   9.789  1.7083  0.9180  0.1966
  213MOL0     H28735   5.957   5.257   9.654 -1.1940  0.0230 -0.2562
  213MOL0     H28736   5.891   5.419   9.612  0.7677 -0.9302 -0.7371
  213MOL0     H28737   6.836   5.747   9.298 -2.5212  2.0759 -1.9673
  213MOL0     H28738   7.052   5.850   9.327  0.6339  1.1135 -2.3233
  213MOL0     H28739   7.283   6.088   9.646  0.6080  0.7165 -1.0797
  213MOL0     H28740   7.508   6.196   9.752 -2.8811  0.8228  1.5930
  213MOL0     H28741   9.113   5.433   9.771 -0.1829 -0.2927 -0.3475
  213MOL0     H28742   9.345   5.450   9.733  0.1611  1.4527 -0.1234
  213MOL0     H28743   9.775   5.286   9.888  0.8420 -0.9341 -1.0918
  213MOL0     H28744   9.992   5.286   9.806 -1.7781 -1.9525  1.5773
  213MOL0     H28745  10.142   5.658   9.579  2.7822  0.6661 -3.1802
  213MOL0     H28746  10.206   5.666   9.740 -0.2036  1.9846 -1.0105
  213MOL0     H28747  10.314   5.508   9.487 -1.0072 -1.8962  0.8036
  213MOL0     H28748  10.349   5.454   9.644  1.5549  0.3139  1.7865
  213MOL0     H28749  10.464   5.674   9.699  0.2473 -0.8401 -0.1959
  213MOL0     H28750  10.399   5.758   9.551  0.4775  0.1846 -2.2512
  213MOL0     H28751  10.568   5.675   9.412  1.4843 -0.5866  0.5294
  213MOL0     H28752  10.545   5.519   9.495 -5.0578 -0.4919 -0.9702
  213MOL0     H28753  10.837   5.711   9.733  0.4949  0.4326 -1.3525
  213MOL0     H28754   9.953   5.719   9.725 -0.2199  0.3002  0.2101
  213MOL0     H28755   9.733   5.711   9.812 -2.3850 -1.6656 -1.2674
  214MOL0     O28756   6.671   5.019   6.389  0.0042  0.2163  1.0747
  214MOL0     C28757   6.614   5.134   6.390 -0.8504  0.1689 -0.1293
  214MOL0     O28758   6.485   5.158   6.420  0.5854  0.2212 -0.2223
  214MOL0     C28759   6.396   5.060   6.471  0.0366  0.7476 -0.1063
  214MOL0     C28760   6.261   5.060   6.432 -0.1618  0.2869  0.5742
  214MOL0     C28761   6.159   4.978   6.490 -0.3671 -0.2048  0.4385
  214MOL0     C28762   6.197   4.883   6.591  0.4503 -0.9429  0.0999
  214MOL0     O28763   6.105   4.804   6.662  0.3393 -0.0526  0.3275
  214MOL0     C28764   5.968   4.813   6.618 -0.1957  0.7667  0.1441
  214MOL0     C28765   5.874   4.704   6.681  0.5960 -0.5454  0.3048
  214MOL0     C28766   5.925   4.566   6.635 -0.4306  0.5068 -0.1740
  214MOL0     C28767   5.804   4.475   6.609  0.1275  0.0505  0.0761
  214MOL0     C28768   5.846   4.337   6.664 -0.3921  0.6006 -0.2136
  214MOL0     C28769   5.759   4.223   6.603  0.5860  0.7351 -0.4865
  214MOL0     C28770   5.779   4.091   6.675  0.2955 -0.3951  0.1941
  214MOL0     C28771   5.710   3.981   6.586 -0.4391 -0.2387  0.1695
  214MOL0     N28772   5.717   3.847   6.654  0.5881 -0.4774 -0.0656
  214MOL0     C28773   5.609   3.799   6.730  0.0758 -0.7631 -0.3361
  214MOL0     C28774   5.679   3.719   6.810  0.1498  0.4916 -0.5620
  214MOL0     C28775   5.612   3.633   6.922  0.3034 -0.6733  0.2159
  214MOL0     C28776   5.460   3.624   6.931  0.3021 -0.8830 -0.9028
  214MOL0     C28777   5.429   3.528   7.044  0.1345  0.1897 -0.3262
  214MOL0     C28778   5.276   3.505   7.062  0.5046 -0.6525  0.4789
  214MOL0     O28779   5.211   3.515   6.931  0.1462 -0.5427 -0.1206
  214MOL0     C28780   5.097   3.437   6.931 -0.4662 -0.7343 -0.5217
  214MOL0     C28781   4.984   3.474   7.004  0.5196  0.5530  0.0362
  214MOL0     C28782   4.868   3.402   7.001  0.9169  0.4039 -0.8223
  214MOL0     C28783   4.745   3.456   7.080 -0.8414  0.3241  0.0672
  214MOL0     C28784   4.867   3.280   6.931  0.0592 -0.5201  0.1016
  214MOL0     C28785   4.750   3.198   6.926  0.1769 -0.4537 -0.8792
  214MOL0     O28786   4.719   3.149   6.804 -0.7459  0.1732 -0.5333
  214MOL0     C28787   4.611   3.066   6.801  0.4797  0.5106  0.6754
  214MOL0     C28788   4.623   2.935   6.742  0.8133 -1.7432 -0.0826
  214MOL0     C28789   4.518   2.854   6.726  1.0324  0.2117 -0.2223
  214MOL0     C28790   4.386   2.897   6.763 -0.5432  0.2573  0.0772
  214MOL0     O28791   4.292   2.795   6.766 -0.2912 -0.5908  0.5867
  214MOL0     C28792   4.171   2.825   6.842 -0.8181  0.1187  0.7059
  214MOL0     C28793   4.105   2.686   6.869  0.0882  0.6912  0.0823
  214MOL0     C28794   3.990   2.701   6.973 -0.5278  0.8705 -0.0962
  214MOL0     C28795   3.874   2.777   6.918  0.6977  0.3902  0.2862
  214MOL0     C28796   3.773   2.815   7.030  0.2147 -0.0560  0.5908
  214MOL0     C28797   3.695   2.950   7.009  0.3768 -0.1353  0.7326
  214MOL0     C28798   3.596   2.961   7.126 -0.2104  0.4359  0.6360
  214MOL0     C28799   3.518   3.082   7.152 -0.2288 -0.0488  0.1679
  214MOL0    Cl28800   3.630   3.230   7.166  0.4817 -0.2247 -0.4607
  214MOL0     C28801   4.367   3.034   6.798 -0.5487 -0.5733 -0.0742
  214MOL0     C28802   4.478   3.120   6.820  0.3835  0.1336  0.0770
  214MOL0     O28803   4.685   3.177   7.032 -0.7549 -0.1834 -0.9460
  214MOL0     C28804   4.983   3.246   6.859 -0.6359 -0.4341 -0.3676
  214MOL0     C28805   5.093   3.326   6.861 -0.1133  0.3699 -0.1267
  214MOL0     N28806   5.812   3.724   6.787  0.1582  0.8303  1.2780
  214MOL0     N28807   5.838   3.805   6.684  0.3156  0.9692 -0.9557
  214MOL0     C28808   6.329   4.903   6.641 -0.3862 -0.4461 -0.1738
  214MOL0     C28809   6.426   4.977   6.580  0.7833  0.1328 -0.1607
  214MOL0     C28810   6.705   5.252   6.358 -0.7247  0.2817  0.5673
  214MOL0     C28811   6.838   5.238   6.372 -0.5590 -0.2568  0.2172
  214MOL0     C28812   6.920   5.335   6.320 -0.3865  0.5814 -0.3090
  214MOL0     C28813   6.882   5.464   6.278 -0.0177  0.4937 -0.0877
  214MOL0     O28814   6.965   5.562   6.224  0.4871 -0.5951  0.9148
  214MOL0     C28815   7.102   5.535   6.189 -0.4105 -0.6412  0.1982
  214MOL0     C28816   7.199   5.650   6.187 -0.1340 -0.1231 -0.8592
  214MOL0     C28817   7.169   5.732   6.058  0.3017 -0.8183  0.6248
  214MOL0     C28818   7.287   5.834   6.036 -0.2927 -0.1699  0.0039
  214MOL0     C28819   7.271   5.946   6.126  0.1963 -0.3307 -0.2903
  214MOL0     C28820   7.264   6.034   6.206 -1.1960  0.3547 -0.3609
  214MOL0     C28821   6.744   5.486   6.281 -0.0821  0.3214  0.8531
  214MOL0     C28822   6.660   5.381   6.319  0.0445 -0.4816 -0.5997
  214MOL0     H28823   6.233   5.124   6.349 -0.1544 -0.3388  0.0789
  214MOL0     H28824   6.055   4.977   6.459 -0.2515 -1.8445  0.0081
  214MOL0     H28825   5.928   4.914   6.635 -0.6323  0.3841  1.5499
  214MOL0     H28826   5.967   4.803   6.509  0.0277 -1.3020  0.2868
  214MOL0     H28827   5.872   4.706   6.790 -0.7634 -1.2364  0.3046
  214MOL0     H28828   5.773   4.721   6.643 -0.3000 -3.9890  0.8795
  214MOL0     H28829   5.988   4.574   6.546  0.1558 -2.6191 -0.1610
  214MOL0     H28830   5.983   4.516   6.713 -1.7696 -1.3740 -0.3196
  214MOL0     H28831   5.714   4.516   6.657 -1.2276 -0.9067 -1.5318
  214MOL0     H28832   5.794   4.464   6.500  1.8176  1.7987 -0.3209
  214MOL0     H28833   5.949   4.311   6.639 -0.5146 -2.4020  1.8334
  214MOL0     H28834   5.834   4.336   6.772  0.7065  4.4476  0.1019
  214MOL0     H28835   5.656   4.258   6.590 -0.1356 -1.3739 -0.8395
  214MOL0     H28836   5.808   4.206   6.507 -1.5926 -1.5561 -1.3070
  214MOL0     H28837   5.883   4.067   6.697  0.3098 -0.3061  0.2274
  214MOL0     H28838   5.722   4.088   6.768 -1.4495 -1.5502 -0.8468
  214MOL0     H28839   5.752   3.971   6.486 -0.1755 -4.1101  0.5498
  214MOL0     H28840   5.605   4.009   6.571 -0.5247 -0.9731 -0.6936
  214MOL0     H28841   5.504   3.828   6.724 -0.8278 -3.7823 -0.6857
  214MOL0     H28842   5.652   3.533   6.904  2.0748  0.3789 -2.3432
  214MOL0     H28843   5.638   3.677   7.019 -4.9371  3.8410  0.0543
  214MOL0     H28844   5.404   3.600   6.841 -2.9331 -3.3364  1.4842
  214MOL0     H28845   5.434   3.728   6.950 -0.2987 -0.8699 -1.7834
  214MOL0     H28846   5.466   3.569   7.138  3.8900  0.7227 -1.8758
  214MOL0     H28847   5.471   3.429   7.025 -2.4075 -0.5687 -2.6822
  214MOL0     H28848   5.239   3.584   7.128 -2.0198 -3.5485  2.8026
  214MOL0     H28849   5.258   3.410   7.112  1.7420 -0.2380  1.7730
  214MOL0     H28850   4.982   3.566   7.063 -2.8231  1.1202 -0.7240
  214MOL0     H28851   4.765   3.556   7.122 -3.4938  0.6713  0.6838
  214MOL0     H28852   4.643   3.443   7.046 -0.4625  0.2191 -1.0596
  214MOL0     H28853   4.737   3.405   7.176  3.4259 -1.1811 -0.1511
  214MOL0     H28854   4.723   2.894   6.735  1.6331  0.3950 -2.1306
  214MOL0     H28855   4.545   2.759   6.683  3.3310  0.5093  0.4063
  214MOL0     H28856   4.198   2.876   6.936 -2.4658 -0.9738  1.8291
  214MOL0     H28857   4.113   2.895   6.781  2.6303  2.3936 -0.2522
  214MOL0     H28858   4.066   2.633   6.782 -2.3176  0.7353  1.0527
  214MOL0     H28859   4.185   2.624   6.911  0.7133  1.4099 -0.0262
  214MOL0     H28860   4.025   2.755   7.062 -0.6757  1.6475 -0.5027
  214MOL0     H28861   3.957   2.600   7.002  2.0362  0.1159  0.5040
  214MOL0     H28862   3.892   2.867   6.859 -2.1652  0.2969 -0.9004
  214MOL0     H28863   3.825   2.712   6.845 -0.4005 -0.3287  1.6206
  214MOL0     H28864   3.824   2.827   7.127 -0.5505  5.1015  0.6249
  214MOL0     H28865   3.702   2.734   7.048 -1.4718  1.4651  1.1006
  214MOL0     H28866   3.759   3.038   6.997 -2.8542  2.4916  1.4278
  214MOL0     H28867   3.642   2.946   6.913  0.9899  1.2804  0.3123
  214MOL0     H28868   3.655   2.955   7.218 -0.8489 -1.9304  0.9549
  214MOL0     H28869   3.525   2.878   7.119  0.7879 -0.2859 -3.4590
  214MOL0     H28870   3.481   3.084   7.255  2.1895  1.8973  1.0936
  214MOL0     H28871   3.438   3.108   7.082 -1.2063 -3.3838 -0.1615
  214MOL0     H28872   4.268   3.073   6.818 -1.6955 -3.1903 -0.2257
  214MOL0     H28873   4.461   3.221   6.857 -2.7562 -1.1125  2.5379
  214MOL0     H28874   4.986   3.157   6.797 -0.0575 -1.4770  1.0942
  214MOL0     H28875   5.178   3.301   6.799  1.5861  1.3063  1.6917
  214MOL0     H28876   6.367   4.841   6.722 -0.9658  1.8454  1.9757
  214MOL0     H28877   6.529   4.966   6.615  2.1363  0.6427 -3.5582
  214MOL0     H28878   6.874   5.139   6.399 -3.4184 -1.3572  0.3287
  214MOL0     H28879   7.026   5.313   6.328  0.3799  3.9769  0.8664
  214MOL0     H28880   7.152   5.463   6.253  2.6050  1.8247  0.8314
  214MOL0     H28881   7.097   5.486   6.091 -4.3297  0.8853 -0.5513
  214MOL0     H28882   7.298   5.604   6.172 -1.0795 -2.4267 -0.5067
  214MOL0     H28883   7.208   5.698   6.284  3.0259 -2.9153  0.4382
  214MOL0     H28884   7.067   5.772   6.059 -0.7199 -3.2466  0.8962
  214MOL0     H28885   7.177   5.668   5.969  0.8703 -0.2799  0.2784
  214MOL0     H28886   7.279   5.878   5.936  1.5687  0.3730  0.0697
  214MOL0     H28887   7.387   5.791   6.045 -0.8867 -1.9210 -1.2072
  214MOL0     H28888   7.275   6.101   6.289 -1.0284 -0.2759  0.1384
  214MOL0     H28889   6.715   5.584   6.244  0.6010 -1.1407 -4.4872
  214MOL0     H28890   6.553   5.395   6.308  0.3167  0.1036 -3.3655
  215MOL0     O28891   4.149  10.103   6.949  0.6258 -0.3165  0.1557
  215MOL0     C28892   4.191  10.172   6.853  0.8195 -1.0946  0.1159
  215MOL0     O28893   4.125  10.196   6.733 -0.3342  0.3141 -0.0117
  215MOL0     C28894   3.992  10.163   6.712 -0.1130  0.3896 -0.1694
  215MOL0     C28895   3.971  10.129   6.581  0.6429 -0.5289 -0.3595
  215MOL0     C28896   3.840  10.123   6.533 -0.0143  0.8054 -0.4072
  215MOL0     C28897   3.733  10.134   6.619 -0.4826  0.2969 -0.6800
  215MOL0     O28898   3.600  10.132   6.573 -1.2068 -0.1951  0.8358
  215MOL0     C28899   3.563  10.135   6.431  0.4592 -0.3414  0.3577
  215MOL0     C28900   3.421  10.082   6.408 -0.0675 -0.1798  0.7462
  215MOL0     C28901   3.313  10.147   6.494  0.1420 -1.0608 -1.1179
  215MOL0     C28902   3.183  10.087   6.457 -0.2736 -0.6477  0.4937
  215MOL0     C28903   3.069  10.142   6.545  0.0529 -0.6348 -0.6797
  215MOL0     C28904   2.944  10.067   6.524  0.2364 -0.0623 -0.4991
  215MOL0     C28905   2.837  10.115   6.618  0.1259 -0.5145  0.4235
  215MOL0     C28906   2.730  10.008   6.645 -0.2739 -0.4871 -0.0395
  215MOL0     N28907   2.658   9.956   6.526  0.1419 -0.8863 -0.8536
  215MOL0     C28908   2.681   9.837   6.460 -0.1480 -0.5450  0.2828
  215MOL0     C28909   2.605   9.838   6.346 -0.7324 -0.2965 -0.5286
  215MOL0     C28910   2.571   9.723   6.262 -0.3506  0.0275 -0.1005
  215MOL0     C28911   2.544   9.767   6.121 -0.1395  0.1014  0.1821
  215MOL0     C28912   2.391   9.801   6.108 -0.0448 -0.2690  0.2344
  215MOL0     C28913   2.370   9.870   5.973  1.1436  0.5462 -0.8559
  215MOL0     O28914   2.232   9.878   5.930 -0.4322  0.8339  0.2915
  215MOL0     C28915   2.132   9.953   5.995 -0.3829  0.7683 -0.1906
  215MOL0     C28916   2.165  10.052   6.089  0.3759  0.6015 -0.2797
  215MOL0     C28917   2.068  10.118   6.162 -0.0630 -0.1073 -0.0262
  215MOL0     C28918   2.123  10.234   6.248 -0.7204 -0.9869  0.0331
  215MOL0     C28919   1.931  10.095   6.139  0.1670  0.1791 -0.7058
  215MOL0     C28920   1.818  10.166   6.207 -0.2460  0.0467 -0.7895
  215MOL0     O28921   1.686  10.126   6.175 -1.0002 -0.3966  0.5200
  215MOL0     C28922   1.598  10.234   6.148 -0.2799  0.0386 -0.3645
  215MOL0     C28923   1.641  10.360   6.103  0.2558 -0.9269  0.7860
  215MOL0     C28924   1.547  10.462   6.066  0.7552 -0.1290 -0.2629
  215MOL0     C28925   1.409  10.440   6.079  0.4204  0.9096 -0.6201
  215MOL0     O28926   1.318  10.532   6.031 -0.1798  0.9759 -0.1076
  215MOL0     C28927   1.267  10.611   6.143 -0.2123 -0.6231 -0.4639
  215MOL0     C28928   1.124  10.565   6.182 -0.1173 -0.6476  0.2702
  215MOL0     C28929   1.020  10.573   6.061  1.5099 -0.2113 -0.0239
  215MOL0     C28930   0.879  10.535   6.105  0.0082 -0.2568 -0.6445
  215MOL0     C28931   0.799  10.495   5.987  0.5866 -0.0127 -0.3751
  215MOL0     C28932   0.642  10.506   6.026 -1.1795  0.8524  0.2632
  215MOL0     C28933   0.553  10.428   5.932 -0.2817 -0.3430 -0.8285
  215MOL0     C28934   0.437  10.498   5.882  0.2738 -0.2311 -0.2077
  215MOL0    Cl28935   0.315  10.403   5.798 -0.1858 -0.1795 -0.1946
  215MOL0     C28936   1.367  10.309   6.106  0.0041  0.1129 -0.4682
  215MOL0     C28937   1.461  10.212   6.142  0.3962  0.7108  0.6128
  215MOL0     O28938   1.847  10.257   6.293  0.4832 -0.0224 -0.7968
  215MOL0     C28939   1.899   9.989   6.047  0.9371 -0.7800 -1.0956
  215MOL0     C28940   1.998   9.917   5.985  0.7734  0.1488  0.9040
  215MOL0     N28941   2.549   9.963   6.345  0.4437  0.3920  0.2775
  215MOL0     N28942   2.582  10.036   6.445  0.8967  1.0441  0.1950
  215MOL0     C28943   3.759  10.153   6.762  0.0465  0.0741 -0.3409
  215MOL0     C28944   3.888  10.170   6.804  0.3897 -0.0068 -0.1609
  215MOL0     C28945   4.315  10.241   6.874  0.3476 -0.2903 -0.2268
  215MOL0     C28946   4.365  10.323   6.772 -0.0291  0.0247 -0.6166
  215MOL0     C28947   4.494  10.383   6.782  0.5532  0.6327  0.2320
  215MOL0     C28948   4.569  10.376   6.896 -0.3524  0.7903 -0.0239
  215MOL0     O28949   4.694  10.431   6.897  0.4073 -0.0170 -0.0023
  215MOL0     C28950   4.772  10.433   7.015 -0.0046 -0.2338 -0.4103
  215MOL0     C28951   4.900  10.496   6.987 -0.5081  0.0378 -0.9775
  215MOL0     C28952   4.966  10.541   7.115  0.1020 -0.2998 -0.2631
  215MOL0     C28953   5.114  10.564   7.102 -0.1316  0.4850  1.1542
  215MOL0     C28954   5.152  10.622   6.972 -0.6538  0.1624 -1.5561
  215MOL0     C28955   5.194  10.660   6.865 -0.6984  0.0859 -0.1469
  215MOL0     C28956   4.514  10.307   7.006 -0.6881 -0.1084  0.2683
  215MOL0     C28957   4.393  10.238   6.994  0.4906 -0.5872  1.0293
  215MOL0     H28958   4.054  10.142   6.512 -1.5346  0.7634 -2.8946
  215MOL0     H28959   3.822  10.104   6.428  2.0386 -1.1517 -0.4902
  215MOL0     H28960   3.560  10.238   6.394 -0.8217  0.2959  2.0915
  215MOL0     H28961   3.628  10.065   6.378 -2.5950 -1.6085 -2.0013
  215MOL0     H28962   3.404  10.096   6.301  5.0154 -2.4895 -0.6761
  215MOL0     H28963   3.429   9.975   6.430  3.0855 -0.3234 -0.5226
  215MOL0     H28964   3.331  10.153   6.602 -0.2030  2.8380 -1.1305
  215MOL0     H28965   3.308  10.254   6.472  0.0122 -0.6458  0.7647
  215MOL0     H28966   3.161  10.107   6.352  1.3525 -2.0435 -0.1607
  215MOL0     H28967   3.202   9.980   6.471  1.2292 -0.6240 -1.0481
  215MOL0     H28968   3.097  10.123   6.649 -0.6590 -0.1609 -0.3969
  215MOL0     H28969   3.053  10.250   6.531 -2.5395 -0.8371  0.2213
  215MOL0     H28970   2.915  10.100   6.424 -0.4273 -0.1746 -0.3488
  215MOL0     H28971   2.951   9.958   6.528 -0.7683 -0.1971 -1.6965
  215MOL0     H28972   2.873  10.142   6.718 -0.8442  0.3009  0.5670
  215MOL0     H28973   2.794  10.206   6.574  0.9931 -0.4590 -0.3513
  215MOL0     H28974   2.657  10.043   6.719  0.6527 -2.6165  2.0096
  215MOL0     H28975   2.779   9.926   6.699 -1.2901 -0.0210  1.6639
  215MOL0     H28976   2.750   9.761   6.497  0.4512  0.1498  0.6109
  215MOL0     H28977   2.656   9.654   6.270  0.3309  1.0699  2.7250
  215MOL0     H28978   2.489   9.667   6.308 -1.1948  0.3192 -1.2293
  215MOL0     H28979   2.562   9.680   6.057  2.8244  0.0217  0.9552
  215MOL0     H28980   2.602   9.854   6.090 -0.4073 -0.5569 -2.3732
  215MOL0     H28981   2.367   9.857   6.199  0.9044  0.2037  0.2063
  215MOL0     H28982   2.328   9.712   6.117  1.4154 -1.1351  3.2051
  215MOL0     H28983   2.411   9.810   5.891  0.1178  1.0879 -1.8020
  215MOL0     H28984   2.419   9.968   5.975  2.4755 -0.1141  0.3047
  215MOL0     H28985   2.269  10.072   6.114  0.4793 -0.3351  0.0727
  215MOL0     H28986   2.093  10.229   6.354 -2.6690  0.7063 -0.3852
  215MOL0     H28987   2.233  10.235   6.245 -0.6159  0.3633  2.0552
  215MOL0     H28988   2.089  10.334   6.220  1.4285 -0.1493  0.2271
  215MOL0     H28989   1.747  10.377   6.091  0.0653 -0.3928 -0.2627
  215MOL0     H28990   1.568  10.560   6.025 -0.8426 -0.1369 -1.1535
  215MOL0     H28991   1.332  10.625   6.230 -0.8701  2.4187 -0.3371
  215MOL0     H28992   1.251  10.716   6.116 -0.4182 -0.4444  0.3205
  215MOL0     H28993   1.123  10.468   6.233  1.6004 -0.8289  0.0353
  215MOL0     H28994   1.091  10.639   6.255 -0.9168  0.2836 -1.0005
  215MOL0     H28995   1.050  10.508   5.978  1.7731  1.9618 -1.7181
  215MOL0     H28996   1.017  10.677   6.027 -1.0248  0.8291  2.9200
  215MOL0     H28997   0.878  10.456   6.181  2.1090 -0.6713 -0.9660
  215MOL0     H28998   0.839  10.625   6.152 -0.4083 -2.1665  3.0076
  215MOL0     H28999   0.825  10.390   5.968  0.1350 -0.2882  0.4531
  215MOL0     H29000   0.823  10.557   5.901  0.1245  0.2554 -0.3160
  215MOL0     H29001   0.641  10.467   6.128  0.7560  2.8944  1.1569
  215MOL0     H29002   0.610  10.611   6.029 -1.7950  0.6559  1.9380
  215MOL0     H29003   0.521  10.345   5.996 -0.0404  2.2856  3.0712
  215MOL0     H29004   0.608  10.385   5.848  1.6991 -0.3285  0.3860
  215MOL0     H29005   0.469  10.578   5.815  2.3304 -0.8410 -0.0338
  215MOL0     H29006   0.389  10.553   5.964 -1.2373 -0.2537 -1.0569
  215MOL0     H29007   1.263  10.276   6.107  0.1631 -0.4811  1.5850
  215MOL0     H29008   1.427  10.119   6.186  0.1396  1.5019  2.1622
  215MOL0     H29009   1.796   9.973   6.018  0.9949 -0.0957 -1.7068
  215MOL0     H29010   1.973   9.840   5.913  0.7984  0.5417  0.4681
  215MOL0     H29011   3.680  10.163   6.835 -1.1513  0.3871 -1.6500
  215MOL0     H29012   3.920  10.191   6.906  2.6679 -2.7443 -0.1746
  215MOL0     H29013   4.307  10.331   6.681 -1.7898  0.5250  0.4993
  215MOL0     H29014   4.536  10.437   6.697  0.1015 -0.8128 -0.9564
  215MOL0     H29015   4.723  10.492   7.093  2.6698  2.9657 -0.9099
  215MOL0     H29016   4.788  10.334   7.058  3.3461  0.0346 -0.7089
  215MOL0     H29017   4.892  10.587   6.926  1.3659  1.8124  1.2182
  215MOL0     H29018   4.969  10.421   6.948  1.5366  2.0848 -1.5175
  215MOL0     H29019   4.956  10.476   7.203 -1.1997 -0.1363 -0.2671
  215MOL0     H29020   4.916  10.633   7.147 -0.1234 -0.8894  1.1666
  215MOL0     H29021   5.167  10.469   7.108 -0.5380  0.1577 -0.1334
  215MOL0     H29022   5.147  10.632   7.181 -0.5463 -0.1521  1.8856
  215MOL0     H29023   5.244  10.698   6.778 -0.0102 -0.0447  0.1848
  215MOL0     H29024   4.578  10.300   7.094 -0.0135  2.0474  0.0042
  215MOL0     H29025   4.372  10.179   7.083  1.1623 -0.9383  0.9638
  216MOL0     O29026   5.318   4.221   2.859 -0.1147  0.1521  0.2281
  216MOL0     C29027   5.333   4.191   2.738  0.1210 -0.3250  0.2283
  216MOL0     O29028   5.245   4.203   2.635 -0.3141 -0.0291 -0.5947
  216MOL0     C29029   5.132   4.263   2.671  0.2262  0.5237  0.5982
  216MOL0     C29030   5.009   4.198   2.688  0.5128 -0.0560  0.1984
  216MOL0     C29031   4.882   4.265   2.705 -0.5107 -0.4145 -0.8280
  216MOL0     C29032   4.886   4.409   2.715 -0.3028 -0.3973 -0.3401
  216MOL0     O29033   4.777   4.487   2.743  0.4166  0.2654  0.2499
  216MOL0     C29034   4.672   4.430   2.816 -0.2075 -0.0191 -0.0084
  216MOL0     C29035   4.603   4.540   2.888  0.0858  0.5312  0.0963
  216MOL0     C29036   4.510   4.487   2.997  0.5006 -0.7162 -0.9557
  216MOL0     C29037   4.423   4.582   3.072  0.8644  0.2012 -0.4422
  216MOL0     C29038   4.323   4.658   2.990 -1.0151  0.1875 -0.3546
  216MOL0     C29039   4.252   4.754   3.085  0.0914 -0.9723  0.5317
  216MOL0     C29040   4.180   4.863   2.991  0.0081  0.3453 -0.5995
  216MOL0     C29041   4.084   4.952   3.078  0.0002  0.7793  0.4129
  216MOL0     N29042   3.994   4.885   3.175 -0.0540  0.0171 -0.3329
  216MOL0     C29043   3.858   4.851   3.160 -0.0570 -0.9643  0.2154
  216MOL0     C29044   3.830   4.813   3.296 -0.6798 -0.2364  0.3338
  216MOL0     C29045   3.696   4.762   3.326  0.2384  0.7039  0.2883
  216MOL0     C29046   3.585   4.859   3.335 -0.1554  0.1400 -0.3809
  216MOL0     C29047   3.450   4.787   3.367 -0.2245 -0.0204 -1.7347
  216MOL0     C29048   3.335   4.885   3.378 -0.1296 -0.4279 -0.6591
  216MOL0     O29049   3.298   4.927   3.247 -0.3215 -0.3694 -0.6147
  216MOL0     C29050   3.169   4.902   3.227  0.4630 -0.4804 -0.5690
  216MOL0     C29051   3.123   4.796   3.157  0.0093 -0.1714  0.9309
  216MOL0     C29052   2.986   4.768   3.149 -0.4080 -0.3931 -0.4103
  216MOL0     C29053   2.949   4.658   3.054 -0.4684 -0.4925  0.2836
  216MOL0     C29054   2.888   4.837   3.220  0.4957 -0.2985  0.2966
  216MOL0     C29055   2.742   4.810   3.220 -0.0746  0.6664 -0.3707
  216MOL0     O29056   2.666   4.903   3.290  0.1567 -0.3095  0.3635
  216MOL0     C29057   2.532   4.893   3.313  0.2781 -0.3230 -1.0082
  216MOL0     C29058   2.439   4.804   3.258 -0.6542 -0.2639  0.7285
  216MOL0     C29059   2.307   4.810   3.300  1.2691 -1.2110  0.0586
  216MOL0     C29060   2.267   4.911   3.393 -0.1515 -0.2375  0.7134
  216MOL0     O29061   2.137   4.947   3.417 -0.0780 -0.9629 -0.2577
  216MOL0     C29062   2.038   4.903   3.327  0.2808  0.5808  0.3573
  216MOL0     C29063   1.895   4.928   3.387  0.1962 -0.4643 -0.4296
  216MOL0     C29064   1.871   4.843   3.510  0.3278 -0.5324  0.2793
  216MOL0     C29065   1.733   4.890   3.567  0.1398 -0.5717 -0.4239
  216MOL0     C29066   1.705   4.832   3.703  0.4410  0.1891 -0.9514
  216MOL0     C29067   1.576   4.891   3.770 -0.6298 -0.0407  0.0176
  216MOL0     C29068   1.438   4.858   3.716 -0.0460 -0.3255 -0.2418
  216MOL0     C29069   1.327   4.905   3.813  0.0680  0.9485 -0.3768
  216MOL0    Cl29070   1.338   5.088   3.819  0.3341  0.3879  0.4074
  216MOL0     C29071   2.358   4.997   3.448 -0.0256 -0.0465 -0.6017
  216MOL0     C29072   2.492   4.985   3.409  0.5849 -0.5848 -0.6066
  216MOL0     O29073   2.698   4.704   3.172 -0.3452 -0.5285 -0.6410
  216MOL0     C29074   2.934   4.947   3.289  0.1798  0.1850  0.3091
  216MOL0     C29075   3.069   4.975   3.295 -0.1151 -0.0948  0.7954
  216MOL0     N29076   3.943   4.838   3.376  0.5402  1.0320 -0.4200
  216MOL0     N29077   4.038   4.883   3.307 -0.1983 -1.0118  0.3185
  216MOL0     C29078   5.011   4.474   2.702 -0.4270  0.6517 -0.0784
  216MOL0     C29079   5.133   4.401   2.677  0.1086  0.4056 -0.3544
  216MOL0     C29080   5.470   4.168   2.699 -0.0401 -0.1785  0.2523
  216MOL0     C29081   5.530   4.223   2.585 -1.0416 -0.5095 -0.4328
  216MOL0     C29082   5.673   4.195   2.556  1.0915 -0.4499  0.3764
  216MOL0     C29083   5.750   4.129   2.645  0.0881 -0.0989  0.3372
  216MOL0     O29084   5.888   4.109   2.636 -0.0825 -0.6290  0.0285
  216MOL0     C29085   5.964   4.185   2.724  0.0495  0.0614  0.6031
  216MOL0     C29086   6.115   4.149   2.718  0.4373  0.4157 -0.4608
  216MOL0     C29087   6.153   3.999   2.721  0.6517  0.0818  0.2805
  216MOL0     C29088   6.300   3.959   2.710 -0.1453 -0.3460 -0.4274
  216MOL0     C29089   6.365   4.010   2.830 -0.3893 -0.3038 -0.0953
  216MOL0     C29090   6.396   4.056   2.932  0.3388 -0.2551 -0.2410
  216MOL0     C29091   5.685   4.068   2.753 -0.0313 -0.1830 -0.1449
  216MOL0     C29092   5.548   4.083   2.783 -0.6107  0.1307 -0.4401
  216MOL0     H29093   4.999   4.090   2.680 -0.7552  0.1002 -0.6504
  216MOL0     H29094   4.782   4.226   2.718 -0.9985  0.5669 -1.5063
  216MOL0     H29095   4.600   4.370   2.759  0.1563 -2.0800  1.6122
  216MOL0     H29096   4.716   4.364   2.891 -0.5761  1.9764  2.0438
  216MOL0     H29097   4.675   4.599   2.946 -1.4823  1.7442  0.8944
  216MOL0     H29098   4.552   4.599   2.811  0.7202 -1.1037 -1.6495
  216MOL0     H29099   4.440   4.415   2.954  0.3145 -0.5390 -0.9539
  216MOL0     H29100   4.569   4.426   3.066 -0.0230 -0.6981 -0.4777
  216MOL0     H29101   4.367   4.520   3.143  1.3036 -2.1424 -2.0251
  216MOL0     H29102   4.479   4.650   3.137  1.1719 -0.7066  0.2665
  216MOL0     H29103   4.392   4.711   2.924  2.1577 -3.0555  0.1063
  216MOL0     H29104   4.255   4.596   2.930  0.2423 -0.4244 -1.1784
  216MOL0     H29105   4.182   4.699   3.148 -0.4765 -3.3681 -1.9894
  216MOL0     H29106   4.329   4.804   3.144  0.6963  0.2363 -1.1755
  216MOL0     H29107   4.260   4.919   2.940 -0.7198  2.8347  0.7986
  216MOL0     H29108   4.114   4.816   2.918 -0.7182  0.7525 -0.2209
  216MOL0     H29109   4.028   5.021   3.015  1.6176  0.4753 -1.4449
  216MOL0     H29110   4.162   5.011   3.126  2.4444 -1.1381 -0.9568
  216MOL0     H29111   3.776   4.851   3.089 -0.9634  0.8653  1.1872
  216MOL0     H29112   3.681   4.693   3.243 -2.1793  2.0280 -0.4824
  216MOL0     H29113   3.696   4.705   3.419 -0.9174  0.0533 -0.0904
  216MOL0     H29114   3.588   4.916   3.242 -0.0653  0.0598 -0.4276
  216MOL0     H29115   3.609   4.916   3.425 -3.4162 -0.0670  0.7232
  216MOL0     H29116   3.464   4.753   3.470  0.9680  0.9294 -1.5679
  216MOL0     H29117   3.419   4.708   3.299 -1.0099 -0.3457 -1.0260
  216MOL0     H29118   3.368   4.978   3.426 -0.1261  1.4090 -3.9353
  216MOL0     H29119   3.258   4.828   3.430 -2.3443  1.9775 -1.1182
  216MOL0     H29120   3.194   4.744   3.093  0.0392  2.2491 -1.1547
  216MOL0     H29121   3.034   4.622   2.995 -0.1090 -1.0582  1.1267
  216MOL0     H29122   2.913   4.571   3.110 -0.6543  0.1421  1.1798
  216MOL0     H29123   2.874   4.693   2.983  0.1802  0.1003 -0.1311
  216MOL0     H29124   2.465   4.737   3.177 -0.4163 -2.3691  2.4474
  216MOL0     H29125   2.242   4.735   3.256 -0.6371 -0.3230  1.2077
  216MOL0     H29126   2.046   4.958   3.234 -2.0658  1.9917  0.9185
  216MOL0     H29127   2.029   4.795   3.309 -0.3350 -0.1455  4.0349
  216MOL0     H29128   1.882   5.035   3.406 -2.2271 -0.9194  0.9819
  216MOL0     H29129   1.822   4.894   3.311 -1.8564 -1.6783  1.9299
  216MOL0     H29130   1.955   4.870   3.575  1.8142  0.1303 -1.8274
  216MOL0     H29131   1.858   4.736   3.491  0.0114 -0.8792  2.2082
  216MOL0     H29132   1.721   4.998   3.585 -1.4557 -0.9147  0.7847
  216MOL0     H29133   1.655   4.858   3.497  0.3799  0.4980 -1.2077
  216MOL0     H29134   1.784   4.843   3.778 -2.3254 -0.6953  2.3877
  216MOL0     H29135   1.692   4.724   3.697  0.4061  0.1995 -1.0684
  216MOL0     H29136   1.591   4.844   3.868  2.7315  3.2507  1.3014
  216MOL0     H29137   1.586   4.999   3.774 -1.2435 -0.0021  0.9592
  216MOL0     H29138   1.428   4.752   3.691 -2.1362 -0.4492  0.9255
  216MOL0     H29139   1.434   4.925   3.629  1.6456  1.1696  0.7771
  216MOL0     H29140   1.350   4.855   3.908  3.8424 -2.2877 -2.6971
  216MOL0     H29141   1.233   4.867   3.772  0.3655  1.1111 -1.2244
  216MOL0     H29142   2.330   5.071   3.523 -3.1222 -2.1104  0.4787
  216MOL0     H29143   2.560   5.058   3.453  1.2921 -0.1549 -2.3130
  216MOL0     H29144   2.873   5.016   3.346  2.5172  1.2448  1.6842
  216MOL0     H29145   3.100   5.060   3.355  0.6963  0.2561 -0.0973
  216MOL0     H29146   5.001   4.582   2.710 -2.6824  0.4392  0.8177
  216MOL0     H29147   5.222   4.448   2.636 -1.5977  1.3457 -3.3857
  216MOL0     H29148   5.458   4.263   2.515 -3.8462 -1.3045  1.7898
  216MOL0     H29149   5.716   4.243   2.469  0.2279  1.6706  1.0517
  216MOL0     H29150   5.942   4.291   2.712  2.8747  0.5968 -0.5504
  216MOL0     H29151   5.926   4.159   2.823 -0.5507  1.4802  0.7586
  216MOL0     H29152   6.166   4.192   2.804  0.0752  1.2104 -0.6360
  216MOL0     H29153   6.156   4.203   2.631  0.3414  0.7779 -0.2835
  216MOL0     H29154   6.111   3.944   2.637  2.3986 -3.6453  1.5960
  216MOL0     H29155   6.112   3.937   2.801  0.3114 -1.1359 -0.8033
  216MOL0     H29156   6.347   4.000   2.620 -1.1284 -3.5287 -2.5835
  216MOL0     H29157   6.310   3.850   2.702 -2.9012 -0.8575  1.7296
  216MOL0     H29158   6.424   4.107   3.022  1.7889  2.3612 -2.0187
  216MOL0     H29159   5.746   4.001   2.814 -1.0794 -2.4881 -1.4750
  216MOL0     H29160   5.505   4.033   2.868 -2.5537  2.0324 -0.2098
  217MOL0     O29161   0.111   2.366   7.648  0.4236  0.7438 -0.4708
  217MOL0     C29162   0.075   2.464   7.708  0.5687 -0.7830  0.7703
  217MOL0     O29163  -0.053   2.518   7.698  0.1211  0.4753  0.2294
  217MOL0     C29164  -0.150   2.425   7.666  0.6350  0.3214  0.1164
  217MOL0     C29165  -0.180   2.315   7.745 -1.0193 -0.1852 -0.2221
  217MOL0     C29166  -0.279   2.220   7.705  0.3303  0.2231 -0.0647
  217MOL0     C29167  -0.360   2.246   7.600  0.5321  0.8587  0.1792
  217MOL0     O29168  -0.472   2.162   7.579 -0.1036  0.5687  0.6288
  217MOL0     C29169  -0.543   2.164   7.460  0.7832  0.6032 -0.2874
  217MOL0     C29170  -0.655   2.054   7.471 -0.1020  0.5488  0.7656
  217MOL0     C29171  -0.733   2.054   7.604 -0.5779  0.6376 -0.3504
  217MOL0     C29172  -0.817   1.933   7.599  0.2605  0.4384 -0.1589
  217MOL0     C29173  -0.925   1.944   7.709 -0.0414 -0.6758 -0.6313
  217MOL0     C29174  -0.993   1.815   7.744  0.9490  0.5885 -0.8357
  217MOL0     C29175  -1.118   1.836   7.837 -0.7802  0.3011 -0.2483
  217MOL0     C29176  -1.257   1.855   7.771  0.3239  0.1768  0.0895
  217MOL0     N29177  -1.364   1.836   7.876 -0.1986 -0.0531  0.0699
  217MOL0     C29178  -1.426   1.707   7.911 -0.3083 -0.0217 -0.0411
  217MOL0     C29179  -1.500   1.737   8.024  0.1081  0.3248  0.2825
  217MOL0     C29180  -1.571   1.628   8.097 -0.3721 -0.0390 -0.4717
  217MOL0     C29181  -1.723   1.618   8.057 -0.1478  0.1596  0.8781
  217MOL0     C29182  -1.802   1.494   8.119 -0.8725 -0.0973  0.2179
  217MOL0     C29183  -1.944   1.495   8.065  0.0159  0.1366  0.0021
  217MOL0     O29184  -2.014   1.399   8.142  0.7046  0.6361  0.3571
  217MOL0     C29185  -2.149   1.399   8.123 -0.1792 -0.3975 -0.7116
  217MOL0     C29186  -2.198   1.303   8.039  0.2080  0.4181  0.9872
  217MOL0     C29187  -2.340   1.298   8.013 -0.7010 -0.3112 -0.1761
  217MOL0     C29188  -2.381   1.189   7.915 -0.4492 -0.5092 -0.5031
  217MOL0     C29189  -2.436   1.388   8.077 -0.5609  0.5575  0.2783
  217MOL0     C29190  -2.579   1.396   8.044  0.8696  0.2134  0.5372
  217MOL0     O29191  -2.648   1.503   8.092 -0.2408  0.1403  0.0531
  217MOL0     C29192  -2.782   1.522   8.075  0.0289  0.3059  0.6793
  217MOL0     C29193  -2.829   1.637   8.006  0.4623 -0.1403 -0.2255
  217MOL0     C29194  -2.965   1.661   7.998 -0.6220  0.1580  0.3288
  217MOL0     C29195  -3.052   1.573   8.058  0.2409 -0.1218  0.2191
  217MOL0     O29196  -3.190   1.578   8.057  0.7325 -0.3286  0.4210
  217MOL0     C29197  -3.253   1.678   7.970  0.4730 -0.0662  0.4736
  217MOL0     C29198  -3.394   1.620   7.953  0.0992 -0.6896 -0.8686
  217MOL0     C29199  -3.399   1.514   7.857 -0.5099  0.0694  0.3638
  217MOL0     C29200  -3.421   1.566   7.712  0.3563 -0.7709 -0.2789
  217MOL0     C29201  -3.445   1.455   7.614 -0.7587 -0.5603  0.2002
  217MOL0     C29202  -3.601   1.424   7.605 -0.7688 -0.2015 -0.4834
  217MOL0     C29203  -3.612   1.306   7.511  0.0079  0.1578 -0.3200
  217MOL0     C29204  -3.740   1.232   7.545  0.1203 -0.7765  0.7413
  217MOL0    Cl29205  -3.882   1.325   7.504 -0.2804  0.3910  0.4632
  217MOL0     C29206  -3.003   1.469   8.139  0.3857  0.0967 -0.2895
  217MOL0     C29207  -2.872   1.434   8.139 -1.0024 -0.8934  0.2183
  217MOL0     O29208  -2.640   1.301   8.000 -0.4015  0.3452 -0.2688
  217MOL0     C29209  -2.383   1.486   8.163 -0.0354 -0.2028 -0.1531
  217MOL0     C29210  -2.242   1.488   8.186  0.4895  0.3170  0.4858
  217MOL0     N29211  -1.494   1.881   8.041 -0.2611 -0.7198  0.3189
  217MOL0     N29212  -1.418   1.935   7.950  0.3726  0.1335  0.4852
  217MOL0     C29213  -0.332   2.354   7.518  0.1231  0.2625  0.0417
  217MOL0     C29214  -0.228   2.441   7.556 -0.8502  1.2656  1.2465
  217MOL0     C29215   0.180   2.552   7.769  0.4111 -0.3718 -0.9248
  217MOL0     C29216   0.153   2.675   7.824  0.1326  0.2792 -0.1595
  217MOL0     C29217   0.261   2.741   7.883 -0.3183 -0.6795 -0.0186
  217MOL0     C29218   0.390   2.704   7.884 -1.3604  0.0518 -0.3090
  217MOL0     O29219   0.485   2.779   7.939  0.5193 -0.5109  0.2132
  217MOL0     C29220   0.460   2.910   7.992 -0.3902 -0.4887  0.1232
  217MOL0     C29221   0.591   2.959   8.063 -0.2458 -0.0609 -0.4019
  217MOL0     C29222   0.584   3.115   8.082  0.3226 -0.6900  0.0602
  217MOL0     C29223   0.712   3.174   8.121 -0.2758  0.2571  0.3156
  217MOL0     C29224   0.731   3.191   8.265  0.1868  0.7704 -0.1561
  217MOL0     C29225   0.728   3.207   8.384 -0.2743 -0.6096 -0.7109
  217MOL0     C29226   0.415   2.578   7.835  0.0504  0.7260 -0.8666
  217MOL0     C29227   0.312   2.499   7.772  0.6855  1.0487 -0.3125
  217MOL0     H29228  -0.127   2.289   7.836  0.5478 -2.9047 -1.7689
  217MOL0     H29229  -0.313   2.141   7.771 -0.1515  1.3442  1.0794
  217MOL0     H29230  -0.585   2.265   7.451  2.4142  1.3698  0.1323
  217MOL0     H29231  -0.478   2.139   7.375 -0.9291 -0.1481 -1.4214
  217MOL0     H29232  -0.718   2.080   7.385 -0.5154 -1.1676  0.5117
  217MOL0     H29233  -0.601   1.964   7.442 -1.7184  0.9385 -4.4699
  217MOL0     H29234  -0.665   2.037   7.688 -0.0569 -1.8403 -1.1866
  217MOL0     H29235  -0.787   2.149   7.610  1.4656  1.9004 -0.9445
  217MOL0     H29236  -0.868   1.931   7.503 -1.8915  0.0580  0.9299
  217MOL0     H29237  -0.755   1.844   7.616 -1.7386 -0.7407  1.3379
  217MOL0     H29238  -0.881   1.978   7.804  0.5988 -0.1016 -1.1256
  217MOL0     H29239  -0.997   2.016   7.670  0.3976 -0.6141 -1.3439
  217MOL0     H29240  -1.016   1.771   7.646  1.3411  2.5751 -1.8669
  217MOL0     H29241  -0.931   1.744   7.798  1.2179  1.6921  0.3420
  217MOL0     H29242  -1.118   1.745   7.898  0.2847  0.8385  0.5982
  217MOL0     H29243  -1.092   1.911   7.912  0.4012 -0.4094  0.0855
  217MOL0     H29244  -1.276   1.785   7.690  0.2896 -0.0400  0.2851
  217MOL0     H29245  -1.259   1.954   7.724  0.6067 -0.7407 -1.9603
  217MOL0     H29246  -1.417   1.610   7.864 -1.3142  0.6687 -1.7225
  217MOL0     H29247  -1.518   1.535   8.077 -1.1859 -0.5087 -0.5256
  217MOL0     H29248  -1.552   1.646   8.203  0.6277 -0.6906 -0.5285
  217MOL0     H29249  -1.725   1.618   7.948  1.7399 -2.2800  0.7591
  217MOL0     H29250  -1.769   1.713   8.086  0.4310  1.3026 -1.7336
  217MOL0     H29251  -1.812   1.507   8.228  0.2063  4.4731 -0.0117
  217MOL0     H29252  -1.755   1.397   8.104  1.7092  0.6974  2.2671
  217MOL0     H29253  -1.951   1.475   7.958 -1.0452 -1.1068  0.2839
  217MOL0     H29254  -1.984   1.595   8.085  0.4923 -0.2533  3.5239
  217MOL0     H29255  -2.135   1.237   7.982 -2.2450 -0.5730 -0.7444
  217MOL0     H29256  -2.298   1.125   7.881 -0.1932 -0.7678  0.5627
  217MOL0     H29257  -2.449   1.121   7.966 -0.2163 -1.0751 -0.9284
  217MOL0     H29258  -2.444   1.230   7.836 -0.3562 -1.0168 -0.8482
  217MOL0     H29259  -2.763   1.711   7.961  0.7553  0.0405  0.4816
  217MOL0     H29260  -2.999   1.757   7.961  0.8791  0.3844 -0.5356
  217MOL0     H29261  -3.268   1.773   8.022 -0.6124  0.5974 -0.9732
  217MOL0     H29262  -3.205   1.685   7.872 -1.1875  0.8706 -0.3126
  217MOL0     H29263  -3.429   1.587   8.051  0.0009 -0.2868 -0.7670
  217MOL0     H29264  -3.465   1.700   7.929  0.0365 -0.5265 -0.1559
  217MOL0     H29265  -3.479   1.448   7.891  0.3009 -1.1301  0.0308
  217MOL0     H29266  -3.307   1.456   7.865 -1.7947 -2.2344 -0.6836
  217MOL0     H29267  -3.509   1.631   7.717  0.5039 -0.5195 -0.9304
  217MOL0     H29268  -3.341   1.636   7.684 -0.9327  0.6641 -0.5178
  217MOL0     H29269  -3.383   1.369   7.640 -1.0243 -0.8384 -0.0846
  217MOL0     H29270  -3.419   1.495   7.515  1.0987 -0.0049  0.8682
  217MOL0     H29271  -3.631   1.408   7.709 -1.8741 -2.3999 -1.0811
  217MOL0     H29272  -3.658   1.509   7.567  3.1655  2.0671 -1.9236
  217MOL0     H29273  -3.526   1.239   7.519  0.3842  0.6823  0.1079
  217MOL0     H29274  -3.615   1.339   7.406 -1.4683  1.4312  0.0787
  217MOL0     H29275  -3.738   1.198   7.649  0.7006 -1.0285  0.6536
  217MOL0     H29276  -3.736   1.145   7.479 -0.8159 -1.7784  1.9321
  217MOL0     H29277  -3.075   1.401   8.183  1.8552 -0.7954  0.7801
  217MOL0     H29278  -2.832   1.342   8.179 -2.2387 -1.5262  0.0449
  217MOL0     H29279  -2.445   1.565   8.205  1.7790  0.2151  1.9185
  217MOL0     H29280  -2.203   1.556   8.261 -0.6335  1.6533 -0.0997
  217MOL0     H29281  -0.391   2.373   7.428 -0.9998  2.0178  1.0848
  217MOL0     H29282  -0.194   2.533   7.510 -0.9158  1.0161  0.6950
  217MOL0     H29283   0.055   2.722   7.823  1.1526  2.5113 -1.6070
  217MOL0     H29284   0.232   2.837   7.925  0.3709 -0.2558 -0.4907
  217MOL0     H29285   0.432   2.965   7.901  1.8246 -1.6885 -1.3997
  217MOL0     H29286   0.373   2.916   8.058 -0.1003  1.2371  0.3864
  217MOL0     H29287   0.679   2.932   8.004 -0.1281  1.1827 -0.8332
  217MOL0     H29288   0.597   2.913   8.162 -0.5233 -2.0142 -1.2464
  217MOL0     H29289   0.505   3.145   8.151 -2.0974  0.4795 -2.9607
  217MOL0     H29290   0.560   3.157   7.984 -2.7340 -0.7098  0.6936
  217MOL0     H29291   0.709   3.277   8.085  2.6482  0.9484  1.7474
  217MOL0     H29292   0.802   3.127   8.080 -1.1686 -1.3754  0.1190
  217MOL0     H29293   0.734   3.238   8.486  2.0472  1.7414 -1.4571
  217MOL0     H29294   0.512   2.529   7.838 -0.2940  0.0913  0.9109
  217MOL0     H29295   0.315   2.395   7.741  1.9147  1.0485 -0.2293
  218MOL0     O29296   2.408   7.168   1.279 -0.3725 -0.2715  0.2194
  218MOL0     C29297   2.474   7.196   1.383 -0.1300  0.2877  0.0328
  218MOL0     O29298   2.423   7.244   1.507  0.3654  1.2414  0.0685
  218MOL0     C29299   2.289   7.221   1.530 -0.2993 -1.2454  0.0933
  218MOL0     C29300   2.236   7.321   1.609 -0.2313 -0.4992  0.4354
  218MOL0     C29301   2.109   7.317   1.658 -0.2681 -0.4463  0.4478
  218MOL0     C29302   2.027   7.211   1.629  0.3581 -0.0902 -0.1893
  218MOL0     O29303   1.896   7.208   1.664  1.0953  0.0058  0.2296
  218MOL0     C29304   1.837   7.280   1.770 -0.1850  0.3762 -0.5722
  218MOL0     C29305   1.682   7.293   1.750 -0.3184 -0.3526 -0.0826
  218MOL0     C29306   1.612   7.395   1.843  0.0388 -0.7467  1.1692
  218MOL0     C29307   1.462   7.376   1.823 -0.2267  0.9380  0.0476
  218MOL0     C29308   1.373   7.451   1.928 -0.7208 -0.6739  0.7538
  218MOL0     C29309   1.225   7.418   1.909  0.6037  1.2788  0.0945
  218MOL0     C29310   1.147   7.501   2.010 -0.5855  0.1368  0.4837
  218MOL0     C29311   1.000   7.461   2.023  0.1241 -0.4628  0.5358
  218MOL0     N29312   0.931   7.488   1.890  0.0962  0.8684 -0.1075
  218MOL0     C29313   0.957   7.583   1.792  0.4787  0.0330  0.0857
  218MOL0     C29314   0.844   7.572   1.719  0.2001 -0.3298  0.0617
  218MOL0     C29315   0.806   7.667   1.610 -0.0103  0.1479  1.0375
  218MOL0     C29316   0.771   7.818   1.653  0.3621  0.0732  1.3192
  218MOL0     C29317   0.631   7.818   1.709 -0.8056 -0.1289 -0.0292
  218MOL0     C29318   0.575   7.962   1.734 -0.0846  0.4531 -0.7056
  218MOL0     O29319   0.517   8.021   1.613  0.4270  0.1293  0.4166
  218MOL0     C29320   0.379   8.001   1.598  0.4266 -0.4863  0.3672
  218MOL0     C29321   0.301   7.901   1.658 -0.4730 -0.4635  0.7980
  218MOL0     C29322   0.169   7.887   1.619  0.3677  0.3477  0.4804
  218MOL0     C29323   0.094   7.793   1.698  0.0709  0.2546 -0.3332
  218MOL0     C29324   0.110   7.965   1.518 -0.3996  0.5456 -0.5898
  218MOL0     C29325  -0.027   7.945   1.471 -0.1214  0.0955 -0.7914
  218MOL0     O29326  -0.088   8.052   1.424 -0.0525 -0.0061 -0.7722
  218MOL0     C29327  -0.229   8.053   1.423  0.4247 -0.0199  0.4933
  218MOL0     C29328  -0.289   8.125   1.314  0.2276 -0.1183 -0.1488
  218MOL0     C29329  -0.430   8.126   1.298 -0.4303 -0.0384 -0.2019
  218MOL0     C29330  -0.511   8.057   1.386  0.8215 -0.3594  0.0763
  218MOL0     O29331  -0.647   8.045   1.373  0.0363 -0.2623  0.0607
  218MOL0     C29332  -0.710   8.172   1.324 -0.4220 -0.1814 -0.2762
  218MOL0     C29333  -0.866   8.173   1.360 -0.4524 -0.1457  0.2157
  218MOL0     C29334  -0.928   8.313   1.345 -0.6165 -0.1413  0.6625
  218MOL0     C29335  -1.079   8.302   1.352 -1.3697  0.9157  0.3857
  218MOL0     C29336  -1.134   8.438   1.355  0.5146 -0.9513 -0.8368
  218MOL0     C29337  -1.283   8.441   1.362 -0.2497 -0.1606  0.3906
  218MOL0     C29338  -1.324   8.589   1.320 -0.2343 -0.0865 -0.5687
  218MOL0     C29339  -1.475   8.595   1.320  0.1202  0.2238 -0.8921
  218MOL0    Cl29340  -1.546   8.555   1.469  0.0082 -0.2679 -0.3736
  218MOL0     C29341  -0.449   7.994   1.495 -0.4529  0.1570 -0.2605
  218MOL0     C29342  -0.310   7.994   1.519  0.4230  0.1940 -0.7010
  218MOL0     O29343  -0.082   7.832   1.485 -0.5819 -0.3219  0.1738
  218MOL0     C29344   0.182   8.071   1.463 -0.0203  0.3070  0.8728
  218MOL0     C29345   0.318   8.079   1.499  0.1963  0.5262 -0.5968
  218MOL0     N29346   0.753   7.481   1.776 -0.1246  0.2202 -0.0466
  218MOL0     N29347   0.815   7.423   1.870 -0.6298  0.6549  0.4750
  218MOL0     C29348   2.076   7.115   1.544  1.3449  0.6974 -1.2300
  218MOL0     C29349   2.203   7.118   1.487  0.1296  0.0990 -0.2974
  218MOL0     C29350   2.617   7.216   1.364 -0.5193  0.6332 -1.1373
  218MOL0     C29351   2.687   7.189   1.249 -0.5108  0.3792 -0.5717
  218MOL0     C29352   2.831   7.213   1.241  0.1097  0.3252  0.0487
  218MOL0     C29353   2.905   7.240   1.355  0.5234 -0.7660 -0.0754
  218MOL0     O29354   3.042   7.246   1.336 -0.0321  0.1531  0.0010
  218MOL0     C29355   3.134   7.241   1.443 -0.4021 -0.7767  0.3521
  218MOL0     C29356   3.280   7.208   1.400  0.9203 -0.2418  0.0053
  218MOL0     C29357   3.347   7.318   1.316  0.1802 -1.1486  0.2197
  218MOL0     C29358   3.493   7.288   1.289  0.1678 -1.3025 -0.6180
  218MOL0     C29359   3.505   7.158   1.230 -0.1909  0.0791  0.5234
  218MOL0     C29360   3.533   7.064   1.169 -0.9103  0.4595  0.3338
  218MOL0     C29361   2.835   7.270   1.473 -0.3643  0.2474  0.1255
  218MOL0     C29362   2.694   7.258   1.483  0.2094  1.2586 -0.6552
  218MOL0     H29363   2.306   7.397   1.641  2.9282 -3.1819  0.4734
  218MOL0     H29364   2.068   7.401   1.713  1.7482  0.3291  0.8553
  218MOL0     H29365   1.850   7.223   1.863 -1.8340  1.7017  0.5243
  218MOL0     H29366   1.884   7.378   1.780 -0.8372  0.4459  3.1916
  218MOL0     H29367   1.679   7.322   1.645  3.2488  0.2544 -0.1321
  218MOL0     H29368   1.640   7.192   1.760  1.9202 -1.2245  1.1578
  218MOL0     H29369   1.634   7.381   1.949 -0.7417 -2.2813  1.1527
  218MOL0     H29370   1.632   7.495   1.801 -1.1075 -1.8283 -2.3037
  218MOL0     H29371   1.446   7.414   1.721  1.7590  2.3701  0.2209
  218MOL0     H29372   1.424   7.274   1.833 -2.2511  1.6600  0.1975
  218MOL0     H29373   1.411   7.440   2.030  0.8425 -2.4076  0.0392
  218MOL0     H29374   1.386   7.556   1.897 -0.0866 -0.6553  1.0625
  218MOL0     H29375   1.195   7.431   1.805  1.6036  0.7109 -0.2869
  218MOL0     H29376   1.208   7.314   1.939 -1.6764  1.3726 -0.6948
  218MOL0     H29377   1.205   7.494   2.103  0.2023 -2.1458 -0.1033
  218MOL0     H29378   1.156   7.600   1.966 -1.9585  0.3545  0.6692
  218MOL0     H29379   0.947   7.519   2.099  1.1156  0.2838  0.6666
  218MOL0     H29380   0.998   7.355   2.052  0.9030 -0.4685  0.5940
  218MOL0     H29381   1.047   7.639   1.771  0.5907 -0.9481 -2.2956
  218MOL0     H29382   0.891   7.678   1.542  1.1605  2.4582  2.7301
  218MOL0     H29383   0.731   7.618   1.547  0.8390 -0.5456  0.5424
  218MOL0     H29384   0.766   7.883   1.565  2.6829  2.0462  2.5284
  218MOL0     H29385   0.841   7.861   1.725 -1.1476  3.4153  0.9668
  218MOL0     H29386   0.621   7.757   1.799  2.2018  0.5730  0.8985
  218MOL0     H29387   0.559   7.773   1.639  0.2419  1.9229 -2.5779
  218MOL0     H29388   0.661   8.025   1.757  1.2709 -2.4583  3.4704
  218MOL0     H29389   0.500   7.970   1.813 -1.3670  2.6039 -2.0483
  218MOL0     H29390   0.344   7.837   1.735 -1.0111  0.7619  2.1629
  218MOL0     H29391   0.081   7.694   1.654  1.7855 -0.9869  1.6851
  218MOL0     H29392   0.145   7.782   1.795 -2.2837 -3.8143  0.6971
  218MOL0     H29393   0.005   7.844   1.735 -1.1965 -2.3165  0.4238
  218MOL0     H29394  -0.222   8.175   1.243  2.8386 -3.5189 -0.3478
  218MOL0     H29395  -0.463   8.169   1.205 -0.1482 -1.1310 -0.8322
  218MOL0     H29396  -0.664   8.257   1.375 -1.9511  0.4170  0.1813
  218MOL0     H29397  -0.683   8.185   1.218  1.7164  2.9224  0.4884
  218MOL0     H29398  -0.917   8.098   1.298  4.0475 -3.7073  0.3222
  218MOL0     H29399  -0.873   8.145   1.466  1.6803  0.8134  0.6518
  218MOL0     H29400  -0.898   8.357   1.250 -2.5452  2.5787  1.2108
  218MOL0     H29401  -0.881   8.380   1.418  1.9682 -2.5380  1.4068
  218MOL0     H29402  -1.109   8.226   1.280  3.3490 -1.3452  0.4741
  218MOL0     H29403  -1.108   8.246   1.442 -0.4308  2.5076  1.7540
  218MOL0     H29404  -1.098   8.496   1.269  1.9216  0.0721  0.3895
  218MOL0     H29405  -1.088   8.500   1.434 -0.2931  0.8705 -1.7296
  218MOL0     H29406  -1.310   8.364   1.290  0.2773 -1.3299  1.3982
  218MOL0     H29407  -1.329   8.420   1.459 -1.7821  1.0418 -0.0407
  218MOL0     H29408  -1.292   8.616   1.219 -0.3025 -1.4557 -0.9698
  218MOL0     H29409  -1.293   8.658   1.400 -0.1293  0.8696 -1.4158
  218MOL0     H29410  -1.508   8.530   1.239  2.0884 -0.6566 -1.0340
  218MOL0     H29411  -1.521   8.693   1.303 -3.2062 -1.2121 -0.9915
  218MOL0     H29412  -0.508   7.955   1.577  2.9780 -0.1128  2.2979
  218MOL0     H29413  -0.265   7.950   1.608  1.9339 -0.0184 -1.5418
  218MOL0     H29414   0.138   8.141   1.393  0.6850  0.2212  0.3348
  218MOL0     H29415   0.371   8.152   1.438  0.6303  0.4771 -0.2855
  218MOL0     H29416   1.996   7.052   1.505 -2.3909  0.0598  5.7541
  218MOL0     H29417   2.232   7.046   1.411 -1.0879  0.3469 -1.0216
  218MOL0     H29418   2.640   7.153   1.159 -1.1787 -2.0714  0.6576
  218MOL0     H29419   2.884   7.209   1.146 -0.1741  2.5292 -0.2411
  218MOL0     H29420   3.135   7.341   1.489 -0.4912 -1.7097  2.5172
  218MOL0     H29421   3.093   7.167   1.512  0.2550 -0.7809  0.7537
  218MOL0     H29422   3.274   7.115   1.342 -0.5091  0.7159 -1.4873
  218MOL0     H29423   3.346   7.190   1.485 -0.9372  1.1818  1.8481
  218MOL0     H29424   3.341   7.413   1.370  1.2239 -0.0138 -1.5774
  218MOL0     H29425   3.294   7.335   1.222  1.6955 -1.5922 -0.7389
  218MOL0     H29426   3.554   7.290   1.380  0.8787  1.4174 -1.0661
  218MOL0     H29427   3.538   7.372   1.235 -0.5899  1.3359  2.5153
  218MOL0     H29428   3.568   6.986   1.103 -0.1453 -0.6899  2.0442
  218MOL0     H29429   2.893   7.282   1.564 -0.8113 -0.8301  0.5725
  218MOL0     H29430   2.639   7.270   1.576  1.1516 -1.5275  0.3319
  219MOL0     O29431   6.256  10.132   9.920  0.3801  0.5138  0.0935
  219MOL0     C29432   6.336  10.218   9.886 -0.2822 -1.0359 -0.0999
  219MOL0     O29433   6.310  10.353   9.873 -0.1757 -0.1458  0.0228
  219MOL0     C29434   6.206  10.403   9.946 -0.1801  0.7073  0.5937
  219MOL0     C29435   6.236  10.470  10.064  0.3235  0.2520 -0.8388
  219MOL0     C29436   6.127  10.517  10.143 -0.0732  0.2785  0.0995
  219MOL0     C29437   5.999  10.500  10.120  0.3915 -0.3881 -0.2839
  219MOL0     O29438   5.893  10.535  10.200  1.2468  0.1470 -0.2890
  219MOL0     C29439   5.912  10.576  10.335  0.3537 -0.7930  0.6772
  219MOL0     C29440   5.782  10.589  10.425 -0.3154 -0.2648  0.2488
  219MOL0     C29441   5.693  10.703  10.389 -0.1844 -0.4920  0.1752
  219MOL0     C29442   5.577  10.704  10.487  0.0036  0.2172 -0.2185
  219MOL0     C29443   5.453  10.780  10.435  0.2746 -0.2398  0.1181
  219MOL0     C29444   5.344  10.785  10.543  0.0986  0.5391  0.5057
  219MOL0     C29445   5.199  10.832  10.489  0.0965  0.4434  0.1966
  219MOL0     C29446   5.094  10.822  10.597  0.7049 -0.7569 -0.2072
  219MOL0     N29447   4.956  10.823  10.550  0.5772  0.0138  0.1181
  219MOL0     C29448   4.883  10.918  10.485 -0.0675 -0.1526 -1.1249
  219MOL0     C29449   4.758  10.873  10.479  0.4780  0.8417 -0.4126
  219MOL0     C29450   4.638  10.925  10.407  0.6037 -0.1080  0.1850
  219MOL0     C29451   4.528  10.928  10.508 -0.3162 -0.2342 -0.6460
  219MOL0     C29452   4.416  11.011  10.449  0.6604  0.4112 -0.0299
  219MOL0     C29453   4.281  10.939  10.481  0.3285 -0.7069 -0.5932
  219MOL0     O29454   4.167  11.011  10.427 -0.6520 -0.4532  0.0342
  219MOL0     C29455   4.042  10.979  10.463  0.7242  0.1059 -0.8616
  219MOL0     C29456   3.949  11.073  10.425  1.1070 -0.0420 -1.1969
  219MOL0     C29457   3.813  11.060  10.457 -0.0863  0.2005  0.7123
  219MOL0     C29458   3.724  11.169  10.414  1.2738 -0.1582  0.1822
  219MOL0     C29459   3.763  10.942  10.521  0.1133  0.1731 -0.0550
  219MOL0     C29460   3.621  10.910  10.553 -0.1175  0.0769 -0.5342
  219MOL0     O29461   3.591  10.810  10.636 -0.1099  0.1183  0.2741
  219MOL0     C29462   3.459  10.768  10.626 -0.1422  0.5391 -0.5091
  219MOL0     C29463   3.354  10.822  10.701 -0.7996  0.7172  0.1457
  219MOL0     C29464   3.230  10.760  10.696 -0.0353 -0.2141 -0.4490
  219MOL0     C29465   3.211  10.652  10.605 -0.5432  0.3173 -0.1447
  219MOL0     O29466   3.094  10.584  10.584  0.3222 -0.4644 -0.1639
  219MOL0     C29467   2.977  10.653  10.625 -0.2199  0.2324  0.4163
  219MOL0     C29468   2.860  10.551  10.590 -1.1613  0.4034  0.6341
  219MOL0     C29469   2.723  10.601  10.607  0.0628 -0.3206 -0.3721
  219MOL0     C29470   2.624  10.482  10.582 -0.1334 -0.5825 -0.6790
  219MOL0     C29471   2.491  10.523  10.642  0.2213 -0.2594  0.7384
  219MOL0     C29472   2.387  10.425  10.613  0.3577 -0.5879  0.2476
  219MOL0     C29473   2.372  10.317  10.715 -1.2331  0.6249  0.2695
  219MOL0     C29474   2.272  10.214  10.672  0.4324 -0.0933  0.2453
  219MOL0    Cl29475   2.349  10.111  10.548  0.1652 -0.5170  0.4125
  219MOL0     C29476   3.316  10.606  10.522 -0.3768  0.3074 -0.1048
  219MOL0     C29477   3.442  10.663  10.540 -0.4280  0.6507  0.0204
  219MOL0     O29478   3.540  10.976  10.504  0.3158  0.0606  0.2979
  219MOL0     C29479   3.855  10.842  10.548  0.3672  0.1732  0.3079
  219MOL0     C29480   3.990  10.852  10.509  0.4006  0.2250  0.6577
  219MOL0     N29481   4.749  10.744  10.543 -0.2382 -0.4688  0.2310
  219MOL0     N29482   4.870  10.723  10.584 -0.0946 -0.4706  0.0438
  219MOL0     C29483   5.968  10.422  10.004  0.4008  0.0363 -0.1245
  219MOL0     C29484   6.067  10.374   9.910 -1.1814 -0.2800  0.3977
  219MOL0     C29485   6.465  10.167   9.840 -0.2231 -0.4104  0.3494
  219MOL0     C29486   6.556  10.254   9.777 -0.2213  0.4667  0.0898
  219MOL0     C29487   6.668  10.210   9.711  0.3227 -0.0868  1.3846
  219MOL0     C29488   6.697  10.067   9.705  0.4929  0.5079  0.9536
  219MOL0     O29489   6.798  10.028   9.624 -0.2460  0.0198 -0.5384
  219MOL0     C29490   6.866   9.901   9.654 -0.3206 -0.6423  0.3474
  219MOL0     C29491   7.005   9.903   9.596  0.0445 -0.3041 -0.0992
  219MOL0     C29492   7.097   9.786   9.631  0.1935 -0.0074  0.2294
  219MOL0     C29493   7.188   9.746   9.515 -1.0856  0.1342  0.8188
  219MOL0     C29494   7.289   9.851   9.489 -0.3405 -0.6160 -0.2944
  219MOL0     C29495   7.379   9.928   9.447  0.3213  0.1505  0.0716
  219MOL0     C29496   6.606   9.981   9.761 -0.6938 -0.0750 -0.1815
  219MOL0     C29497   6.493  10.030   9.825  0.2153  0.2365  1.0996
  219MOL0     H29498   6.340  10.486  10.090  1.1402  2.8312 -4.8154
  219MOL0     H29499   6.147  10.589  10.223 -3.4630  0.9570  0.4728
  219MOL0     H29500   5.981  10.506  10.384  0.0792 -0.9760  0.8060
  219MOL0     H29501   5.968  10.670  10.340  2.2984 -1.9305  1.9934
  219MOL0     H29502   5.723  10.498  10.438 -0.9099  0.4582  3.3495
  219MOL0     H29503   5.811  10.619  10.526  2.0845  1.1135 -0.7389
  219MOL0     H29504   5.733  10.804  10.403 -3.0723  0.6416  1.0491
  219MOL0     H29505   5.663  10.693  10.285  0.9905 -0.6697 -0.1663
  219MOL0     H29506   5.545  10.600  10.485 -0.1381  0.1715  1.8739
  219MOL0     H29507   5.618  10.728  10.586  2.3935 -0.4096 -1.0156
  219MOL0     H29508   5.497  10.877  10.408  4.6413 -1.9064  0.4349
  219MOL0     H29509   5.416  10.732  10.344  0.8529  0.9810 -0.7971
  219MOL0     H29510   5.327  10.683  10.577 -2.3637  0.7691  0.1286
  219MOL0     H29511   5.372  10.846  10.630 -1.1701  2.6830 -0.5118
  219MOL0     H29512   5.211  10.936  10.456 -0.4974  0.6117  0.5043
  219MOL0     H29513   5.189  10.764  10.404 -0.0974  3.0861 -2.0450
  219MOL0     H29514   5.104  10.913  10.657  1.2969 -1.5588  0.9434
  219MOL0     H29515   5.109  10.736  10.663  1.7990 -0.0497  0.4930
  219MOL0     H29516   4.905  11.011  10.434  1.5469  0.5512  0.7360
  219MOL0     H29517   4.655  11.023  10.362 -0.3725  0.2146  0.5086
  219MOL0     H29518   4.613  10.853  10.328  0.6838 -0.3488  0.3784
  219MOL0     H29519   4.548  10.982  10.601  0.5816  2.9359 -2.5391
  219MOL0     H29520   4.503  10.824  10.535  1.4259 -0.2540  1.1166
  219MOL0     H29521   4.423  11.030  10.342 -2.7642  3.5917  0.1040
  219MOL0     H29522   4.422  11.108  10.498  0.6827  0.9838 -1.1378
  219MOL0     H29523   4.268  10.928  10.589 -2.8241 -0.4765 -0.8546
  219MOL0     H29524   4.295  10.842  10.433 -1.5459 -0.0375 -2.6616
  219MOL0     H29525   3.976  11.160  10.368  0.3681  0.1249 -1.3068
  219MOL0     H29526   3.644  11.139  10.345 -0.0753  2.0456  0.6861
  219MOL0     H29527   3.676  11.216  10.500  0.4973  4.2809 -2.3644
  219MOL0     H29528   3.769  11.251  10.357  0.0327 -0.6641 -1.6167
  219MOL0     H29529   3.376  10.905  10.768 -1.7210  2.3382 -1.4391
  219MOL0     H29530   3.150  10.787  10.764  0.5718 -0.4427  0.3787
  219MOL0     H29531   2.980  10.667  10.734 -0.6176 -0.6621  0.5464
  219MOL0     H29532   2.974  10.748  10.571 -2.7270  0.6752  1.1751
  219MOL0     H29533   2.874  10.514  10.488 -2.0370  0.9532  0.3096
  219MOL0     H29534   2.868  10.466  10.658 -0.1821 -1.4143 -1.6258
  219MOL0     H29535   2.707  10.670  10.524 -4.0082  1.0809  1.3386
  219MOL0     H29536   2.702  10.640  10.707  0.7611 -2.3890  0.6571
  219MOL0     H29537   2.608  10.454  10.478 -1.7890  1.2816 -0.9850
  219MOL0     H29538   2.654  10.390  10.634  0.1584 -0.6995 -1.0467
  219MOL0     H29539   2.464  10.621  10.604  1.1589  0.2390  1.3301
  219MOL0     H29540   2.500  10.528  10.751  0.8858  1.1922  0.6323
  219MOL0     H29541   2.292  10.478  10.600  0.4587 -0.2308  0.9546
  219MOL0     H29542   2.414  10.380  10.517  3.1975  0.6665  0.3456
  219MOL0     H29543   2.348  10.354  10.815 -1.0361 -1.1967  1.0178
  219MOL0     H29544   2.466  10.263  10.726 -1.4567 -0.0117 -0.8404
  219MOL0     H29545   2.182  10.260  10.629  0.2991  0.1027  0.7222
  219MOL0     H29546   2.238  10.167  10.765  1.6965 -0.2932  0.6255
  219MOL0     H29547   3.303  10.523  10.454  2.0484  1.6898 -2.4267
  219MOL0     H29548   3.522  10.614  10.485  0.1410 -0.3899  1.7099
  219MOL0     H29549   3.820  10.748  10.589  1.4945 -1.1132 -1.5407
  219MOL0     H29550   4.066  10.774  10.515 -0.2706 -0.4177  1.0147
  219MOL0     H29551   5.869  10.399   9.968  0.9405 -1.9468 -0.4773
  219MOL0     H29552   6.029  10.313   9.829 -1.6540  1.0947 -0.4687
  219MOL0     H29553   6.522  10.356   9.794 -2.9292 -0.5176  1.2846
  219MOL0     H29554   6.712  10.295   9.660 -1.6814  1.4801  2.0909
  219MOL0     H29555   6.877   9.879   9.761  0.5502 -2.3164 -0.0445
  219MOL0     H29556   6.816   9.815   9.608 -0.7071 -0.6599  0.7856
  219MOL0     H29557   7.051   9.989   9.645  2.2458 -0.4311 -1.7948
  219MOL0     H29558   7.005   9.920   9.488  1.0484 -0.4205 -0.1273
  219MOL0     H29559   7.040   9.695   9.653  1.9448 -1.7103 -1.8629
  219MOL0     H29560   7.146   9.811   9.725  0.5306 -1.6963  0.5375
  219MOL0     H29561   7.119   9.735   9.431 -0.0586  2.2138 -0.3963
  219MOL0     H29562   7.231   9.648   9.532 -1.0529  0.0865  0.4805
  219MOL0     H29563   7.461   9.978   9.401 -2.0290  2.6228 -1.7934
  219MOL0     H29564   6.618   9.873   9.772 -0.9292  0.0803  2.2491
  219MOL0     H29565   6.429   9.956   9.872  0.5348  0.8389  2.5267
  220MOL0     O29566   7.701   4.316   9.172 -0.3963  0.0906 -0.5645
  220MOL0     C29567   7.723   4.262   9.066 -0.3723 -0.0842  0.6887
  220MOL0     O29568   7.623   4.208   8.983  0.4041 -0.3004  0.5609
  220MOL0     C29569   7.488   4.225   9.013 -0.1322  0.5597 -0.8387
  220MOL0     C29570   7.440   4.165   9.129  0.5854  0.1908 -0.0705
  220MOL0     C29571   7.312   4.184   9.163  0.4633 -0.5724  0.4109
  220MOL0     C29572   7.230   4.266   9.076  0.4831  0.2719 -0.1176
  220MOL0     O29573   7.090   4.272   9.088  0.0331 -0.7822  0.7310
  220MOL0     C29574   7.023   4.221   9.197  0.1211  0.0778  0.2769
  220MOL0     C29575   6.873   4.249   9.200 -0.0140  0.2596  0.3814
  220MOL0     C29576   6.797   4.222   9.328  0.1911 -0.2715  0.0042
  220MOL0     C29577   6.641   4.187   9.286 -0.0606 -0.6194  0.2405
  220MOL0     C29578   6.548   4.181   9.399  0.2528 -0.8926 -0.5594
  220MOL0     C29579   6.401   4.158   9.343 -0.4835  0.4913 -0.3602
  220MOL0     C29580   6.300   4.152   9.447 -0.3227  0.3104  0.4138
  220MOL0     C29581   6.321   4.027   9.527 -0.1358  0.6833  0.3405
  220MOL0     N29582   6.198   3.968   9.581 -0.1591 -0.5346  0.4573
  220MOL0     C29583   6.139   4.002   9.697  0.4244  0.3662  0.6137
  220MOL0     C29584   6.035   3.920   9.712  0.4295 -0.5232 -0.0249
  220MOL0     C29585   5.939   3.944   9.824  0.0405  0.7027  0.2176
  220MOL0     C29586   5.995   3.868   9.947  0.1091  0.2811  0.8919
  220MOL0     C29587   5.933   3.908  10.081 -0.0345  0.4892  0.6485
  220MOL0     C29588   6.038   3.906  10.194  0.2906  0.3526 -0.7539
  220MOL0     O29589   6.075   3.776  10.228  0.7809 -0.0029 -0.2748
  220MOL0     C29590   5.977   3.706  10.304  0.9286 -0.4200 -0.3325
  220MOL0     C29591   5.922   3.749  10.423 -0.2458  0.7934  0.7174
  220MOL0     C29592   5.829   3.667  10.488  0.8064 -0.5591 -1.3405
  220MOL0     C29593   5.760   3.724  10.610  0.4405 -0.2373 -0.7644
  220MOL0     C29594   5.782   3.544  10.439  0.0856  0.9878 -0.3445
  220MOL0     C29595   5.688   3.451  10.504 -0.1898 -0.1704  0.1337
  220MOL0     O29596   5.654   3.473  10.636 -0.1046  0.7191  0.1367
  220MOL0     C29597   5.529   3.435  10.688 -0.0782  1.1105 -1.1016
  220MOL0     C29598   5.521   3.413  10.826  0.8550 -0.3173 -1.3285
  220MOL0     C29599   5.397   3.385  10.890  0.3223 -0.5193 -0.3071
  220MOL0     C29600   5.279   3.387  10.813  0.2248  0.2307 -0.1524
  220MOL0     O29601   5.151   3.359  10.857  0.4353  0.2621  0.4088
  220MOL0     C29602   5.097   3.453  10.949 -0.8944  0.2182  0.2447
  220MOL0     C29603   5.013   3.563  10.868  0.2380 -0.2554 -0.0736
  220MOL0     C29604   4.945   3.649  10.974 -0.0541  0.0302  0.0208
  220MOL0     C29605   4.818   3.585  11.039  0.4737  0.3184 -0.1029
  220MOL0     C29606   4.734   3.690  11.100 -0.1614  0.7860  0.3299
  220MOL0     C29607   4.593   3.652  11.146  0.1207  0.7100  0.4027
  220MOL0     C29608   4.486   3.763  11.125 -0.6072 -0.6538 -0.3557
  220MOL0     C29609   4.346   3.707  11.163 -0.0981  0.4584 -0.1350
  220MOL0    Cl29610   4.318   3.680  11.336  0.3792  0.1082 -0.0772
  220MOL0     C29611   5.286   3.409  10.670  0.4577 -0.2375 -0.7874
  220MOL0     C29612   5.409   3.424  10.618  0.1252 -0.7258 -0.5684
  220MOL0     O29613   5.645   3.353  10.441  0.2747 -0.2854  0.1366
  220MOL0     C29614   5.825   3.513  10.304  0.1672  0.3298  0.1911
  220MOL0     C29615   5.922   3.588  10.238 -0.2550 -0.2259 -1.3362
  220MOL0     N29616   6.024   3.841   9.602  0.0963 -0.6060  0.2609
  220MOL0     N29617   6.127   3.867   9.525 -0.3619 -0.2041  0.1993
  220MOL0     C29618   7.274   4.324   8.957  0.8124 -0.0661 -1.3483
  220MOL0     C29619   7.412   4.309   8.927  0.0901 -0.5258 -0.1217
  220MOL0     C29620   7.862   4.240   9.028 -0.0393  0.5929  1.7818
  220MOL0     C29621   7.894   4.243   8.890 -0.8712 -0.2844  0.8304
  220MOL0     C29622   8.022   4.210   8.845  0.4374  0.8708 -0.0389
  220MOL0     C29623   8.124   4.178   8.938  0.7096 -1.0327  0.9709
  220MOL0     O29624   8.251   4.142   8.886 -0.3255 -0.6777 -0.4795
  220MOL0     C29625   8.357   4.103   8.966 -0.6422  0.4644  0.1595
  220MOL0     C29626   8.478   4.062   8.879  0.4201 -0.0490 -0.8958
  220MOL0     C29627   8.471   3.911   8.831 -0.5888  0.3807  0.2698
  220MOL0     C29628   8.583   3.894   8.723 -0.7331  0.7346 -0.2072
  220MOL0     C29629   8.720   3.923   8.777 -0.0455 -0.0663 -0.8146
  220MOL0     C29630   8.833   3.933   8.829  0.7664  0.6182  0.4620
  220MOL0     C29631   8.090   4.174   9.073  0.1935 -0.0580 -0.3147
  220MOL0     C29632   7.967   4.212   9.119  0.5474  0.3100 -0.0081
  220MOL0     H29633   7.502   4.099   9.190 -0.8203 -0.4858  0.6734
  220MOL0     H29634   7.269   4.131   9.247  2.6108 -5.7762 -1.3609
  220MOL0     H29635   7.033   4.112   9.192  0.1899 -0.1016  2.8419
  220MOL0     H29636   7.067   4.253   9.292  0.7389 -2.5985  0.9655
  220MOL0     H29637   6.852   4.352   9.174  1.6467  0.3680 -0.7030
  220MOL0     H29638   6.834   4.193   9.115 -2.1041  1.7173  0.3130
  220MOL0     H29639   6.844   4.148   9.393 -1.1892 -0.1253  1.2331
  220MOL0     H29640   6.795   4.316   9.384 -1.5094 -1.3049  1.8093
  220MOL0     H29641   6.602   4.256   9.211  1.2224 -3.1794 -3.0618
  220MOL0     H29642   6.649   4.089   9.236  0.6504  0.2918 -1.5341
  220MOL0     H29643   6.582   4.112   9.476  0.6743  1.4467  1.4937
  220MOL0     H29644   6.552   4.285   9.434  2.4695 -0.8094 -0.9193
  220MOL0     H29645   6.379   4.227   9.261 -0.2409 -0.9747 -1.7112
  220MOL0     H29646   6.398   4.062   9.289 -1.1979 -0.2069  0.8607
  220MOL0     H29647   6.299   4.239   9.514 -1.0480  3.1182 -2.9302
  220MOL0     H29648   6.202   4.156   9.398  0.6026 -1.6528 -1.7870
  220MOL0     H29649   6.387   4.054   9.611 -0.7805 -1.2723  1.5425
  220MOL0     H29650   6.375   3.944   9.480 -1.6832 -0.5178  0.6230
  220MOL0     H29651   6.151   4.085   9.766  0.4864 -0.0684  1.1350
  220MOL0     H29652   5.928   4.051   9.840 -2.0301  0.5544  0.0437
  220MOL0     H29653   5.841   3.902   9.800  0.0232  2.2081 -2.6999
  220MOL0     H29654   6.103   3.888   9.946 -0.2183  2.4605  1.8583
  220MOL0     H29655   5.970   3.763   9.933  0.5013  0.4333 -1.3586
  220MOL0     H29656   5.852   3.839  10.106  0.4313  0.1545  1.2559
  220MOL0     H29657   5.883   4.005  10.076 -0.5013  0.3443  2.2280
  220MOL0     H29658   5.996   3.966  10.276 -0.7631 -3.3077  1.6327
  220MOL0     H29659   6.127   3.960  10.162 -0.9122  2.6400 -0.4746
  220MOL0     H29660   5.941   3.851  10.454 -1.7750  1.2994  0.0962
  220MOL0     H29661   5.795   3.683  10.706  1.1383  2.1880  0.1156
  220MOL0     H29662   5.781   3.831  10.603  1.9975 -0.6519 -4.5472
  220MOL0     H29663   5.653   3.714  10.596  0.0520  0.6626  1.1553
  220MOL0     H29664   5.613   3.418  10.883 -0.8173 -1.6469  1.7334
  220MOL0     H29665   5.388   3.355  10.993  0.4268 -1.0650 -0.4545
  220MOL0     H29666   5.015   3.407  11.006 -1.0286 -0.6062 -0.5931
  220MOL0     H29667   5.175   3.496  11.012 -1.1758  1.3728 -0.1515
  220MOL0     H29668   5.073   3.624  10.800 -0.0622 -0.1452 -0.2400
  220MOL0     H29669   4.934   3.520  10.806 -1.3185 -0.1348  1.7635
  220MOL0     H29670   4.924   3.741  10.919  3.1479  0.7056 -0.2403
  220MOL0     H29671   5.017   3.682  11.049 -0.3551  2.2265 -0.6105
  220MOL0     H29672   4.751   3.543  10.964 -1.7787  1.5954  1.0981
  220MOL0     H29673   4.847   3.507  11.111 -0.5121  1.0664  1.1404
  220MOL0     H29674   4.716   3.775  11.033  0.4708  0.7075  0.0586
  220MOL0     H29675   4.783   3.723  11.192 -2.3128 -2.3924  2.8482
  220MOL0     H29676   4.569   3.565  11.085 -1.1730  0.5635  1.0802
  220MOL0     H29677   4.599   3.614  11.248  1.2706  1.5562  0.6745
  220MOL0     H29678   4.478   3.806  11.025  2.9961 -1.1696 -1.0099
  220MOL0     H29679   4.518   3.838  11.198  0.1419 -4.1256  3.2438
  220MOL0     H29680   4.327   3.613  11.111 -3.1042  0.6300  0.4502
  220MOL0     H29681   4.267   3.770  11.119 -1.7924 -1.1516  0.4682
  220MOL0     H29682   5.197   3.405  10.608 -1.0365 -4.0861  1.2540
  220MOL0     H29683   5.426   3.447  10.513 -2.6842  1.0582 -0.7383
  220MOL0     H29684   5.796   3.419  10.258  1.5745 -1.5985  2.9727
  220MOL0     H29685   5.951   3.564  10.137  0.1893  0.8968 -1.4847
  220MOL0     H29686   7.204   4.382   8.898 -2.1501 -0.2466  1.6913
  220MOL0     H29687   7.450   4.352   8.835  1.8852  2.8736  1.9949
  220MOL0     H29688   7.813   4.258   8.819 -1.4102  0.1718  1.5328
  220MOL0     H29689   8.039   4.214   8.738  1.8179  3.5330  0.1969
  220MOL0     H29690   8.384   4.182   9.037  0.2619 -1.9765  2.7172
  220MOL0     H29691   8.327   4.010   9.015  2.2519  0.2079  1.6635
  220MOL0     H29692   8.555   4.057   8.956 -1.2976 -0.6851  0.8719
  220MOL0     H29693   8.503   4.131   8.798 -1.6552 -1.6586 -3.0506
  220MOL0     H29694   8.379   3.887   8.778  0.1186 -2.7154  0.2519
  220MOL0     H29695   8.496   3.841   8.911  2.3032  0.6245 -0.3090
  220MOL0     H29696   8.574   3.955   8.633 -1.3254  0.5190 -0.3024
  220MOL0     H29697   8.591   3.790   8.691  1.4111  1.0479 -0.8084
  220MOL0     H29698   8.930   3.940   8.874  1.3286  0.8196 -0.7397
  220MOL0     H29699   8.170   4.159   9.145  0.6188  1.4476 -0.4362
  220MOL0     H29700   7.948   4.234   9.223  1.4314 -1.7816  0.6460
  221MOL0     O29701   2.957   1.477   6.043 -0.4690 -0.6511 -0.0045
  221MOL0     C29702   2.983   1.549   6.139 -0.6681  1.1167  0.5774
  221MOL0     O29703   2.905   1.598   6.236 -0.1647  0.1594 -0.0948
  221MOL0     C29704   2.773   1.577   6.243 -0.8044 -0.1165  0.2109
  221MOL0     C29705   2.707   1.618   6.359 -0.2793  0.1128 -0.1020
  221MOL0     C29706   2.574   1.595   6.392  0.8374 -0.4052 -0.4073
  221MOL0     C29707   2.493   1.540   6.294  0.1610  0.7136  0.1190
  221MOL0     O29708   2.357   1.522   6.309 -0.1742 -0.4262  0.4551
  221MOL0     C29709   2.296   1.487   6.433 -0.2155 -0.0169 -0.8823
  221MOL0     C29710   2.146   1.462   6.416  1.0331  0.7713  0.2615
  221MOL0     C29711   2.081   1.587   6.335  0.2595  1.0486 -0.2431
  221MOL0     C29712   1.939   1.552   6.282  0.3861 -0.3847 -0.1400
  221MOL0     C29713   1.840   1.602   6.386  0.1759 -0.2809  0.1477
  221MOL0     C29714   1.694   1.534   6.371  0.2680  0.1993 -0.3739
  221MOL0     C29715   1.611   1.567   6.495 -0.7119 -0.5803  0.2712
  221MOL0     C29716   1.468   1.500   6.472  0.1327  0.1298 -0.1084
  221MOL0     N29717   1.374   1.514   6.580  0.1429  0.0783 -0.0100
  221MOL0     C29718   1.388   1.456   6.710 -0.0613 -0.0506 -0.2193
  221MOL0     C29719   1.265   1.461   6.762  0.0865  0.3152  0.3718
  221MOL0     C29720   1.230   1.393   6.896 -0.5731 -0.4685  0.1693
  221MOL0     C29721   1.228   1.240   6.892  0.4122 -0.2214 -0.7304
  221MOL0     C29722   1.295   1.170   7.007  0.5583  1.0085  0.4708
  221MOL0     C29723   1.445   1.182   7.024 -0.4543 -0.0272  0.6819
  221MOL0     O29724   1.504   1.184   6.894 -0.3688 -0.4517 -0.0097
  221MOL0     C29725   1.641   1.196   6.887 -0.9727 -0.8960 -0.0009
  221MOL0     C29726   1.696   1.169   6.767  0.0116  0.1693 -0.3218
  221MOL0     C29727   1.835   1.162   6.736  0.5196 -0.8242 -0.1893
  221MOL0     C29728   1.883   1.140   6.588  0.5012  0.2097 -0.5069
  221MOL0     C29729   1.927   1.197   6.840 -0.0249  0.2025 -0.8874
  221MOL0     C29730   2.073   1.195   6.833 -0.3300 -0.7040  0.5147
  221MOL0     O29731   2.140   1.295   6.909 -0.2225  0.7886 -0.4516
  221MOL0     C29732   2.275   1.303   6.914  0.0646 -0.2699  0.2156
  221MOL0     C29733   2.349   1.360   6.812  0.0062 -0.0411  0.0390
  221MOL0     C29734   2.487   1.355   6.802 -0.0013  0.2017 -0.3648
  221MOL0     C29735   2.552   1.305   6.910  0.2157  0.0067 -0.5782
  221MOL0     O29736   2.689   1.305   6.913 -0.2379  0.1183 -0.9560
  221MOL0     C29737   2.749   1.177   6.936 -0.4911  0.3439 -0.0859
  221MOL0     C29738   2.832   1.202   7.056 -0.6275 -0.1928 -0.1798
  221MOL0     C29739   2.960   1.285   7.018  0.1399 -1.0673  0.3865
  221MOL0     C29740   3.032   1.340   7.135  0.3263  0.1554  0.0100
  221MOL0     C29741   3.147   1.433   7.092 -0.4266  0.2807  0.4649
  221MOL0     C29742   3.269   1.421   7.188  1.2208 -0.2603 -0.0403
  221MOL0     C29743   3.402   1.501   7.151 -0.2261 -0.4322 -0.6801
  221MOL0     C29744   3.375   1.644   7.101 -0.1302 -0.3872 -0.0448
  221MOL0    Cl29745   3.525   1.722   7.062 -0.1400  0.6958  0.3734
  221MOL0     C29746   2.487   1.253   7.019  0.3028  0.7585 -0.3779
  221MOL0     C29747   2.348   1.243   7.018  0.0673  0.4556 -0.1802
  221MOL0     O29748   2.128   1.121   6.755 -0.2609  0.4427 -0.1245
  221MOL0     C29749   1.871   1.214   6.962 -0.8534  0.2638 -0.6890
  221MOL0     C29750   1.733   1.226   6.988  0.0394  0.4393  0.4512
  221MOL0     N29751   1.178   1.520   6.670 -0.1873 -0.4426  0.2874
  221MOL0     N29752   1.246   1.549   6.564 -1.0929  0.0594 -0.4968
  221MOL0     C29753   2.552   1.506   6.177  0.2206 -0.5456  0.0870
  221MOL0     C29754   2.686   1.515   6.149 -0.1521  0.6241 -0.3166
  221MOL0     C29755   3.128   1.573   6.175  2.1438  0.2029  0.1570
  221MOL0     C29756   3.164   1.692   6.240 -0.4144  0.0282  1.0338
  221MOL0     C29757   3.297   1.727   6.248 -0.0769 -0.2265  0.0119
  221MOL0     C29758   3.395   1.638   6.214 -0.7900 -0.1039  0.9966
  221MOL0     O29759   3.528   1.670   6.230 -1.0249 -0.1894 -0.1956
  221MOL0     C29760   3.626   1.575   6.200 -0.1423  0.3481 -0.0578
  221MOL0     C29761   3.664   1.479   6.312 -0.0709  0.3487 -1.0599
  221MOL0     C29762   3.550   1.365   6.339  0.2076 -1.1381  0.1777
  221MOL0     C29763   3.585   1.279   6.468  0.2527 -0.1826  0.6361
  221MOL0     C29764   3.592   1.360   6.587 -0.0779  0.4968  0.6070
  221MOL0     C29765   3.611   1.424   6.687  0.1528 -0.1782 -0.4760
  221MOL0     C29766   3.353   1.511   6.163 -0.4907 -0.7892  0.2068
  221MOL0     C29767   3.220   1.479   6.138 -0.5449 -0.0530 -0.9910
  221MOL0     H29768   2.773   1.661   6.434 -0.0079 -0.3438 -0.0767
  221MOL0     H29769   2.524   1.637   6.479  0.5279  0.7913 -1.1370
  221MOL0     H29770   2.351   1.406   6.482 -1.0236  1.3671  2.6839
  221MOL0     H29771   2.291   1.562   6.513 -1.1201 -0.3093 -0.6539
  221MOL0     H29772   2.136   1.367   6.364  1.4904  0.9735 -0.2044
  221MOL0     H29773   2.099   1.453   6.515  1.6293 -2.0422  0.3554
  221MOL0     H29774   2.071   1.678   6.394 -1.8533  0.2587  0.7546
  221MOL0     H29775   2.147   1.612   6.252 -1.0264  1.6486 -1.1251
  221MOL0     H29776   1.927   1.611   6.191  0.4291  1.9153  1.2789
  221MOL0     H29777   1.941   1.445   6.257 -0.0029  0.0180 -2.0326
  221MOL0     H29778   1.876   1.559   6.480  2.2326 -2.2512 -1.4244
  221MOL0     H29779   1.833   1.711   6.384 -0.9369 -0.3492 -1.0772
  221MOL0     H29780   1.659   1.587   6.282 -0.4190  1.3812  0.5695
  221MOL0     H29781   1.697   1.427   6.351 -0.3349 -0.1720  1.3567
  221MOL0     H29782   1.663   1.515   6.576 -1.7813 -0.2204  1.2119
  221MOL0     H29783   1.596   1.674   6.510 -0.7210 -0.8677  2.5809
  221MOL0     H29784   1.486   1.392   6.461  0.3267  0.0800  0.6217
  221MOL0     H29785   1.437   1.549   6.380 -0.4276  3.3663  1.6456
  221MOL0     H29786   1.474   1.400   6.743 -0.1023 -0.4030 -0.7007
  221MOL0     H29787   1.303   1.425   6.971 -0.1563 -0.2832 -0.3144
  221MOL0     H29788   1.130   1.433   6.917 -0.4167  0.0143  0.0180
  221MOL0     H29789   1.284   1.211   6.803  1.7494  0.9136 -0.2902
  221MOL0     H29790   1.127   1.197   6.891 -0.2932  1.2992  0.5080
  221MOL0     H29791   1.269   1.063   7.003 -0.1717  1.0434  2.8756
  221MOL0     H29792   1.251   1.192   7.104  2.2361  1.3039  1.1977
  221MOL0     H29793   1.491   1.103   7.084 -0.5510  1.1256  2.3680
  221MOL0     H29794   1.467   1.278   7.072 -0.4092  0.6230 -0.5822
  221MOL0     H29795   1.610   1.153   6.702 -0.3981 -0.3187  0.3295
  221MOL0     H29796   1.873   1.232   6.530  1.2957  1.4228  1.1859
  221MOL0     H29797   1.983   1.097   6.572  0.4505  0.4595 -1.5869
  221MOL0     H29798   1.813   1.068   6.546  3.2090 -2.6887 -0.4278
  221MOL0     H29799   2.290   1.400   6.730 -1.7662  1.5573  1.9980
  221MOL0     H29800   2.544   1.383   6.714  0.6384  0.2397  0.0492
  221MOL0     H29801   2.681   1.092   6.948  0.0721  0.2292  2.8341
  221MOL0     H29802   2.816   1.150   6.853 -0.5714 -2.3888  0.6502
  221MOL0     H29803   2.775   1.249   7.136 -0.6489  3.4242 -2.0796
  221MOL0     H29804   2.880   1.116   7.103 -0.8324 -1.1503 -1.6548
  221MOL0     H29805   2.926   1.364   6.950 -0.2457 -0.4552  1.2645
  221MOL0     H29806   3.028   1.231   6.952  1.9588  2.5464 -0.9781
  221MOL0     H29807   2.968   1.395   7.205  0.2580 -1.0036  0.8823
  221MOL0     H29808   3.070   1.252   7.186 -0.3981 -0.8614 -1.1393
  221MOL0     H29809   3.109   1.533   7.071 -2.1227 -0.9595 -3.1687
  221MOL0     H29810   3.189   1.397   6.997  0.2926 -1.1605  1.2867
  221MOL0     H29811   3.253   1.456   7.290  0.3485  1.8009 -0.8402
  221MOL0     H29812   3.303   1.317   7.193  1.8403 -0.0525  4.5291
  221MOL0     H29813   3.458   1.453   7.071  0.3914 -0.8056 -0.0398
  221MOL0     H29814   3.462   1.508   7.242 -2.1394  0.9766  0.5742
  221MOL0     H29815   3.312   1.695   7.175  1.1083 -0.1471  0.8847
  221MOL0     H29816   3.315   1.647   7.010  2.4617  1.7359 -1.8590
  221MOL0     H29817   2.541   1.213   7.104 -0.1564 -1.5655 -1.1073
  221MOL0     H29818   2.287   1.208   7.100  1.6975 -0.5184  0.6657
  221MOL0     H29819   1.925   1.235   7.053 -0.4849 -2.6031 -0.1676
  221MOL0     H29820   1.698   1.235   7.090  2.0716  1.2732  1.1235
  221MOL0     H29821   2.482   1.479   6.099 -0.6537 -0.7685  0.9402
  221MOL0     H29822   2.730   1.467   6.062 -1.7550 -1.8388  0.1136
  221MOL0     H29823   3.080   1.755   6.270 -0.7304 -0.2126  0.6713
  221MOL0     H29824   3.328   1.818   6.299  1.1540 -0.4170 -0.3487
  221MOL0     H29825   3.594   1.521   6.110 -2.9441  0.8923  0.5011
  221MOL0     H29826   3.712   1.631   6.164  1.3668 -1.2663  0.9131
  221MOL0     H29827   3.691   1.541   6.397 -0.7864  1.1094 -1.3733
  221MOL0     H29828   3.758   1.428   6.287  1.5143  2.9701 -0.7628
  221MOL0     H29829   3.537   1.300   6.253  0.8866 -0.1952 -0.6566
  221MOL0     H29830   3.455   1.415   6.362  0.3763  0.2913 -1.9697
  221MOL0     H29831   3.676   1.221   6.455 -1.4499 -2.8425 -0.2974
  221MOL0     H29832   3.500   1.210   6.471 -1.0669  1.3538  0.0682
  221MOL0     H29833   3.644   1.490   6.765 -0.1538  0.8838 -1.2298
  221MOL0     H29834   3.420   1.428   6.141 -1.0288 -1.1367 -0.1749
  221MOL0     H29835   3.193   1.386   6.090 -1.4869 -0.2928 -0.0286
  222MOL0     O29836   0.317   5.041   9.050 -0.1201  0.2002 -0.1322
  222MOL0     C29837   0.371   4.995   9.145 -0.2389  0.8498  0.8068
  222MOL0     O29838   0.307   4.947   9.255  0.0372  0.7196 -0.0621
  222MOL0     C29839   0.166   4.966   9.250 -0.6625 -0.4247 -1.0415
  222MOL0     C29840   0.088   4.857   9.229  1.3496 -0.8022 -0.0373
  222MOL0     C29841  -0.049   4.868   9.220  0.9947 -0.1340  0.2356
  222MOL0     C29842  -0.118   4.985   9.238 -0.4862 -0.1378  0.1275
  222MOL0     O29843  -0.253   4.995   9.232  0.2212  0.1433 -0.3417
  222MOL0     C29844  -0.339   4.880   9.230  0.2957 -0.0667  0.4998
  222MOL0     C29845  -0.469   4.936   9.281 -0.8690 -0.0690  0.3566
  222MOL0     C29846  -0.577   4.843   9.234 -0.4642 -0.0235  0.0332
  222MOL0     C29847  -0.714   4.911   9.268  0.5868  0.1356 -0.2204
  222MOL0     C29848  -0.827   4.830   9.192 -0.0424  0.9075 -0.7303
  222MOL0     C29849  -0.954   4.885   9.243  0.3044  0.3669  0.0442
  222MOL0     C29850  -1.082   4.828   9.182  0.3224 -0.5095  0.6044
  222MOL0     C29851  -1.154   4.744   9.292 -0.0501 -0.8550  0.3903
  222MOL0     N29852  -1.285   4.680   9.236 -1.1223 -0.0998 -0.9234
  222MOL0     C29853  -1.300   4.542   9.224 -0.5839  0.1153 -0.8697
  222MOL0     C29854  -1.430   4.525   9.207  0.4766  1.4625  0.1488
  222MOL0     C29855  -1.521   4.398   9.193  0.4750 -0.0796  1.1498
  222MOL0     C29856  -1.498   4.286   9.301 -0.2209 -0.1899 -0.7415
  222MOL0     C29857  -1.624   4.193   9.319 -0.0788  0.1010  0.2284
  222MOL0     C29858  -1.653   4.123   9.185 -0.1932 -0.2404  0.9142
  222MOL0     O29859  -1.743   4.191   9.103  0.2426  0.3926  0.2208
  222MOL0     C29860  -1.879   4.197   9.120  0.2851  0.3643 -0.4613
  222MOL0     C29861  -1.940   4.321   9.099  0.7833  1.2084  0.6452
  222MOL0     C29862  -2.078   4.349   9.123  0.9915  0.0281  0.0594
  222MOL0     C29863  -2.118   4.492   9.099 -0.5818  1.3180  0.2262
  222MOL0     C29864  -2.159   4.243   9.179 -0.3685  0.0274  0.0724
  222MOL0     C29865  -2.304   4.255   9.230  0.3287  0.5391 -0.2521
  222MOL0     O29866  -2.383   4.364   9.203 -0.8232 -0.0688 -0.3231
  222MOL0     C29867  -2.504   4.374   9.278  0.9283  0.3947  0.4107
  222MOL0     C29868  -2.494   4.457   9.383 -0.2231 -0.5608  0.1130
  222MOL0     C29869  -2.612   4.492   9.464  0.1418  0.4081 -0.3974
  222MOL0     C29870  -2.732   4.428   9.433  0.4760 -0.1791 -0.1528
  222MOL0     O29871  -2.823   4.464   9.526  0.3198 -0.3728  0.5246
  222MOL0     C29872  -2.956   4.402   9.530  0.4989  1.1105 -0.0922
  222MOL0     C29873  -3.020   4.447   9.661 -0.8588 -0.0683  0.4440
  222MOL0     C29874  -3.141   4.364   9.703  0.1908  0.9110  0.6217
  222MOL0     C29875  -3.193   4.425   9.828 -0.2593 -0.2889 -0.3375
  222MOL0     C29876  -3.292   4.329   9.903 -0.0668  0.5681  0.2276
  222MOL0     C29877  -3.417   4.307   9.822  0.6319 -0.0091 -0.0262
  222MOL0     C29878  -3.483   4.176   9.882 -0.3011 -0.6589  0.3757
  222MOL0     C29879  -3.625   4.179   9.826  0.1573 -0.4594  0.5740
  222MOL0    Cl29880  -3.707   4.306   9.918 -0.1392  0.7006 -0.1036
  222MOL0     C29881  -2.742   4.337   9.329  0.2237 -0.7834 -0.8355
  222MOL0     C29882  -2.628   4.315   9.252  0.7614 -0.4926  0.2723
  222MOL0     O29883  -2.343   4.152   9.297  0.4244  0.4964 -0.2047
  222MOL0     C29884  -2.089   4.123   9.207  0.5729 -0.4741 -0.3022
  222MOL0     C29885  -1.963   4.089   9.172  0.1338  0.7872 -0.1169
  222MOL0     N29886  -1.495   4.641   9.231 -0.3741 -0.3118  0.1513
  222MOL0     N29887  -1.405   4.738   9.258  0.1967  0.5056 -0.6931
  222MOL0     C29888  -0.037   5.098   9.258  0.7461 -0.1601  0.4865
  222MOL0     C29889   0.104   5.088   9.268  0.1333  0.3833  0.1146
  222MOL0     C29890   0.517   4.988   9.159  0.1182 -0.4326  0.3312
  222MOL0     C29891   0.576   4.937   9.274  0.7501  0.5771 -1.0741
  222MOL0     C29892   0.717   4.935   9.302  0.0429  0.5727 -0.4108
  222MOL0     C29893   0.799   4.994   9.210 -0.9147  0.1887 -0.5654
  222MOL0     O29894   0.935   4.981   9.219  0.0134 -0.4980 -0.5628
  222MOL0     C29895   1.000   5.002   9.349  0.1432 -0.4919  0.3943
  222MOL0     C29896   1.130   5.090   9.329  0.7113  0.2276  0.3705
  222MOL0     C29897   1.098   5.237   9.267  0.2835 -0.1340  0.1210
  222MOL0     C29898   1.112   5.244   9.119  0.6620 -0.0601  0.0020
  222MOL0     C29899   1.085   5.379   9.078  0.3851 -0.2693 -0.1803
  222MOL0     C29900   1.051   5.492   9.041  0.0781  0.3001 -0.3813
  222MOL0     C29901   0.742   5.047   9.094  0.1413  0.4522 -0.0736
  222MOL0     C29902   0.607   5.043   9.061 -0.0064 -0.6344 -0.4272
  222MOL0     H29903   0.141   4.764   9.212  1.6502 -0.2494 -2.6404
  222MOL0     H29904  -0.104   4.779   9.190  0.6136  0.1389  0.1132
  222MOL0     H29905  -0.346   4.856   9.123  0.3645  2.2057 -0.0625
  222MOL0     H29906  -0.314   4.793   9.292  0.6243  0.7322  1.5119
  222MOL0     H29907  -0.476   4.921   9.389  0.2424 -0.3305  0.4082
  222MOL0     H29908  -0.477   5.043   9.262 -0.5455  0.2057  1.6995
  222MOL0     H29909  -0.557   4.819   9.129 -0.1094 -1.5993  0.4355
  222MOL0     H29910  -0.571   4.744   9.279 -1.1552  0.3908  1.0780
  222MOL0     H29911  -0.746   4.909   9.372 -2.9162  0.9861 -1.1454
  222MOL0     H29912  -0.723   5.011   9.225  1.2037  0.2017 -0.2055
  222MOL0     H29913  -0.806   4.847   9.086  0.6357  0.6161 -0.6488
  222MOL0     H29914  -0.814   4.723   9.208  1.8252  0.9401 -1.6161
  222MOL0     H29915  -0.964   4.885   9.352  1.4730 -2.2152  0.2123
  222MOL0     H29916  -0.970   4.989   9.213 -1.5619  0.2425  0.5118
  222MOL0     H29917  -1.151   4.911   9.162 -0.8207 -1.4779  0.3676
  222MOL0     H29918  -1.060   4.774   9.089 -1.1569 -1.4690  0.7629
  222MOL0     H29919  -1.180   4.811   9.375  1.9526  0.8327 -0.2898
  222MOL0     H29920  -1.081   4.674   9.333  0.2579  1.0541  3.4197
  222MOL0     H29921  -1.227   4.463   9.229 -0.5768  0.1913  2.2543
  222MOL0     H29922  -1.626   4.428   9.197  0.3899 -0.2778  0.4823
  222MOL0     H29923  -1.521   4.352   9.094 -1.6971 -0.0924  1.1168
  222MOL0     H29924  -1.474   4.328   9.399  2.3254 -1.2365 -0.8381
  222MOL0     H29925  -1.414   4.225   9.265 -0.2012  0.5813 -2.0656
  222MOL0     H29926  -1.704   4.258   9.355  0.5496  2.9026 -2.9490
  222MOL0     H29927  -1.608   4.123   9.401  1.0585  2.2068  1.8970
  222MOL0     H29928  -1.681   4.022   9.214  1.5122 -1.9994 -2.8009
  222MOL0     H29929  -1.563   4.123   9.122  0.1907  2.0021  1.3605
  222MOL0     H29930  -1.872   4.392   9.053  0.4148  0.1134 -1.7502
  222MOL0     H29931  -2.052   4.545   9.030  1.5877 -2.3906 -0.8206
  222MOL0     H29932  -2.222   4.489   9.064 -0.7310 -0.3333  0.7288
  222MOL0     H29933  -2.119   4.534   9.200  1.8313 -1.3901  1.5019
  222MOL0     H29934  -2.397   4.503   9.399 -0.5942 -0.0661  0.9933
  222MOL0     H29935  -2.598   4.557   9.550  1.5781 -0.5424  0.1267
  222MOL0     H29936  -3.024   4.423   9.447 -0.2093 -2.8126 -0.6973
  222MOL0     H29937  -2.947   4.293   9.530  1.5119  1.1812 -0.4943
  222MOL0     H29938  -2.942   4.447   9.737 -1.0488 -1.6890  0.6565
  222MOL0     H29939  -3.044   4.554   9.654  3.2815  1.1706  2.1254
  222MOL0     H29940  -3.107   4.259   9.699 -0.1835  0.8243 -0.9194
  222MOL0     H29941  -3.219   4.373   9.627  0.2208  1.9433  0.7017
  222MOL0     H29942  -3.115   4.431   9.903 -0.6513 -0.7856  0.1182
  222MOL0     H29943  -3.248   4.519   9.821 -0.7837 -0.4743  0.9978
  222MOL0     H29944  -3.322   4.375   9.997 -0.1267  2.3137 -0.6022
  222MOL0     H29945  -3.244   4.238   9.939  0.6958  1.0956  0.5717
  222MOL0     H29946  -3.474   4.401   9.822  1.8648  0.8702 -3.1128
  222MOL0     H29947  -3.393   4.282   9.718  1.5163 -0.5084  0.2862
  222MOL0     H29948  -3.495   4.196   9.989 -3.0567 -1.6780  0.3287
  222MOL0     H29949  -3.424   4.088   9.855  1.4615  0.4219  0.5438
  222MOL0     H29950  -3.668   4.079   9.842  3.0370 -1.7262  1.0049
  222MOL0     H29951  -3.629   4.201   9.720 -2.3309 -1.2107  0.4496
  222MOL0     H29952  -2.833   4.282   9.305  0.0282 -0.5479 -0.6370
  222MOL0     H29953  -2.622   4.244   9.171  3.3431  0.2717 -0.2844
  222MOL0     H29954  -2.127   4.038   9.263 -1.9236  0.1453 -0.9515
  222MOL0     H29955  -1.927   3.989   9.193  0.2620  1.3849  3.1256
  222MOL0     H29956  -0.089   5.193   9.262 -2.5198 -1.8534  2.0412
  222MOL0     H29957   0.156   5.184   9.269  0.8919  0.0139  2.8170
  222MOL0     H29958   0.514   4.889   9.348 -0.4244  4.0447  0.3792
  222MOL0     H29959   0.746   4.898   9.400 -0.1930  0.4187 -0.3987
  222MOL0     H29960   0.931   5.057   9.414  0.5588 -0.3136  0.6876
  222MOL0     H29961   1.028   4.914   9.408 -1.1344 -0.5790  0.9205
  222MOL0     H29962   1.193   5.034   9.259  1.6523  0.8250  0.7191
  222MOL0     H29963   1.176   5.104   9.427  0.1259 -1.4380  0.9113
  222MOL0     H29964   1.180   5.300   9.303  0.8265 -0.9309  0.3002
  222MOL0     H29965   1.003   5.275   9.307  0.8341  2.0617 -0.4791
  222MOL0     H29966   1.031   5.187   9.072  0.6317 -0.0679  0.0634
  222MOL0     H29967   1.209   5.203   9.092  0.6200 -1.8271  2.2463
  222MOL0     H29968   1.025   5.582   8.988 -1.2500  0.4754  0.5140
  222MOL0     H29969   0.813   5.075   9.016 -0.9270 -1.6205 -1.9234
  222MOL0     H29970   0.585   5.093   8.967  1.4272  1.7447  0.4358
  223MOL0     O29971   9.075   8.920   7.087  0.4934  1.1368  0.1177
  223MOL0     C29972   9.186   8.963   7.080 -0.5110 -0.5761  0.0444
  223MOL0     O29973   9.249   9.054   7.165  0.6990  0.9148  0.3834
  223MOL0     C29974   9.169   9.096   7.270 -0.3807 -1.0096 -0.7105
  223MOL0     C29975   9.104   9.016   7.368  0.7903 -0.3831  0.3033
  223MOL0     C29976   9.026   9.070   7.474  0.7588 -0.4709  0.8533
  223MOL0     C29977   8.996   9.203   7.469 -0.1908 -0.5819  0.0359
  223MOL0     O29978   8.924   9.274   7.564 -0.0247  0.7089  0.2363
  223MOL0     C29979   8.847   9.206   7.658 -1.4062 -0.6765  0.2060
  223MOL0     C29980   8.710   9.271   7.694 -0.1973  0.2712  0.8940
  223MOL0     C29981   8.591   9.247   7.586 -0.1370  0.2167  0.3875
  223MOL0     C29982   8.487   9.349   7.592 -0.2306 -0.0319  0.9622
  223MOL0     C29983   8.362   9.330   7.507  0.2843 -0.1622 -0.4479
  223MOL0     C29984   8.275   9.208   7.558  0.3374 -0.1547  0.3446
  223MOL0     C29985   8.132   9.188   7.490  0.6167 -0.3067 -0.0792
  223MOL0     C29986   8.010   9.275   7.545  0.0540  0.1679 -0.2643
  223MOL0     N29987   7.975   9.245   7.686  0.1371  0.1116 -0.1651
  223MOL0     C29988   7.846   9.207   7.726 -0.1729  0.2571  0.1031
  223MOL0     C29989   7.848   9.178   7.859 -0.1124 -0.0653 -0.3354
  223MOL0     C29990   7.741   9.138   7.961  0.0237 -0.0213  0.4128
  223MOL0     C29991   7.710   9.235   8.071 -0.2051  0.7035 -0.0292
  223MOL0     C29992   7.618   9.168   8.169 -0.6779  0.3562  0.2932
  223MOL0     C29993   7.495   9.120   8.102  0.1051  0.2448 -0.3137
  223MOL0     O29994   7.426   9.232   8.042  0.3516 -0.2828  0.4303
  223MOL0     C29995   7.300   9.217   7.984  0.3730 -0.3994 -0.1165
  223MOL0     C29996   7.269   9.334   7.920 -0.7999 -1.0305  0.4486
  223MOL0     C29997   7.151   9.342   7.838  0.2568  1.4113 -0.4199
  223MOL0     C29998   7.125   9.475   7.783 -0.4920  0.3777 -0.6644
  223MOL0     C29999   7.056   9.226   7.842  0.2962 -0.1114 -0.4484
  223MOL0     C30000   6.921   9.223   7.775  0.0758 -0.1800 -0.5147
  223MOL0     O30001   6.840   9.114   7.793  0.5190 -0.9006 -0.1966
  223MOL0     C30002   6.712   9.105   7.729 -0.3124  0.4266 -0.9176
  223MOL0     C30003   6.604   9.150   7.806 -0.1556 -0.4164  0.4246
  223MOL0     C30004   6.478   9.159   7.739 -0.0371  0.7556 -0.2438
  223MOL0     C30005   6.461   9.121   7.605  0.1417  0.3911 -0.2755
  223MOL0     O30006   6.334   9.147   7.551 -0.3504 -0.5560 -0.3628
  223MOL0     C30007   6.324   9.159   7.408 -0.2214 -0.2100  0.1629
  223MOL0     C30008   6.182   9.215   7.388 -0.2869  0.5639  0.5627
  223MOL0     C30009   6.138   9.241   7.234  0.5488  0.6532 -0.7912
  223MOL0     C30010   6.227   9.349   7.173 -0.3697  0.5742 -0.5788
  223MOL0     C30011   6.258   9.334   7.027  0.5338  0.0690  0.7716
  223MOL0     C30012   6.125   9.369   6.949  0.6565  0.7042  0.2051
  223MOL0     C30013   6.151   9.366   6.794 -0.6806  0.6977 -0.9652
  223MOL0     C30014   6.025   9.313   6.721 -0.1952  0.6089 -0.7236
  223MOL0    Cl30015   6.045   9.325   6.543 -0.2292  0.1186  0.0801
  223MOL0     C30016   6.574   9.063   7.534  0.5867 -0.4883 -1.4916
  223MOL0     C30017   6.696   9.053   7.594  0.8788  0.0083  0.4868
  223MOL0     O30018   6.887   9.322   7.717 -0.1713 -0.0044 -0.3105
  223MOL0     C30019   7.099   9.110   7.907 -0.2683 -0.5081 -0.5449
  223MOL0     C30020   7.218   9.101   7.977 -0.1634  0.2828 -1.0307
  223MOL0     N30021   7.980   9.219   7.895 -0.1439 -0.1309 -0.0586
  223MOL0     N30022   8.052   9.242   7.793 -0.7232 -1.4282 -0.1582
  223MOL0     C30023   9.057   9.285   7.375 -0.7113 -0.2524  0.4287
  223MOL0     C30024   9.143   9.237   7.274 -0.1097  0.3386 -0.0402
  223MOL0     C30025   9.269   8.911   6.972 -0.4313 -0.6306  0.4318
  223MOL0     C30026   9.413   8.919   6.983  0.5548 -0.0039 -0.4251
  223MOL0     C30027   9.482   8.851   6.884  0.0050  0.0019  0.6782
  223MOL0     C30028   9.428   8.777   6.779 -0.0790  0.2959  0.2925
  223MOL0     O30029   9.515   8.714   6.696 -0.1044 -0.0603  0.1989
  223MOL0     C30030   9.486   8.585   6.651 -0.0380 -0.1858  0.7010
  223MOL0     C30031   9.603   8.551   6.555 -0.5984 -0.6787  0.6748
  223MOL0     C30032   9.738   8.558   6.629 -0.3512  0.1076  0.5317
  223MOL0     C30033   9.862   8.565   6.526  0.3065 -0.5100  0.5415
  223MOL0     C30034   9.979   8.481   6.569  0.4667 -0.4037  0.3891
  223MOL0     C30035  10.081   8.433   6.613 -0.5256 -0.3177  0.5810
  223MOL0     C30036   9.287   8.754   6.776  1.0502 -0.0523  0.4204
  223MOL0     C30037   9.209   8.824   6.873  0.4370 -0.2595  0.2943
  223MOL0     H30038   9.125   8.909   7.371  0.2239 -0.5551  4.5932
  223MOL0     H30039   8.983   9.009   7.553  3.3045 -0.6029  2.2508
  223MOL0     H30040   8.819   9.106   7.624  1.4863 -1.8352  0.9330
  223MOL0     H30041   8.910   9.211   7.748 -0.8937  0.5854 -0.2051
  223MOL0     H30042   8.688   9.221   7.789 -1.8011  0.4678  0.6624
  223MOL0     H30043   8.733   9.376   7.709  3.5795 -0.2780 -0.0433
  223MOL0     H30044   8.620   9.227   7.482 -0.4949  0.3973  0.2518
  223MOL0     H30045   8.541   9.157   7.624 -4.0602  2.1447  0.3040
  223MOL0     H30046   8.457   9.372   7.694 -1.9328 -2.8926  1.2182
  223MOL0     H30047   8.530   9.443   7.556 -0.1532 -0.7880 -1.0368
  223MOL0     H30048   8.299   9.420   7.509  1.2895  0.5494  0.2550
  223MOL0     H30049   8.392   9.324   7.402 -2.3271  1.9754 -1.4664
  223MOL0     H30050   8.336   9.121   7.531  3.7478  1.8654  1.0252
  223MOL0     H30051   8.265   9.210   7.667  0.6261 -0.4796  0.3786
  223MOL0     H30052   8.141   9.197   7.382 -1.0325  1.7461 -0.1131
  223MOL0     H30053   8.102   9.087   7.521 -2.2788  0.7147  0.7494
  223MOL0     H30054   7.919   9.252   7.489 -2.0877 -2.2973  3.6961
  223MOL0     H30055   8.034   9.381   7.537  3.3260 -0.6104 -3.1127
  223MOL0     H30056   7.760   9.194   7.661  0.0978  0.5025 -0.3047
  223MOL0     H30057   7.650   9.119   7.904 -0.2029  1.4107  0.2615
  223MOL0     H30058   7.772   9.044   8.007 -2.1470  0.2350  2.5952
  223MOL0     H30059   7.658   9.323   8.033 -1.6471 -0.2611 -0.3848
  223MOL0     H30060   7.795   9.272   8.130  1.9478 -2.5579 -0.7637
  223MOL0     H30061   7.576   9.231   8.248 -3.8054  2.1328 -2.5064
  223MOL0     H30062   7.673   9.079   8.201  2.7203  2.0580 -0.4523
  223MOL0     H30063   7.424   9.078   8.173 -3.3360 -2.5396 -4.8553
  223MOL0     H30064   7.515   9.043   8.027 -1.6018  0.4849 -1.0572
  223MOL0     H30065   7.333   9.421   7.926 -1.5521 -0.3122 -1.2726
  223MOL0     H30066   7.080   9.537   7.860 -2.8846 -0.9005 -0.9251
  223MOL0     H30067   7.220   9.515   7.748  0.3776  1.2948  2.4500
  223MOL0     H30068   7.067   9.468   7.690  2.5186 -0.5648 -2.6406
  223MOL0     H30069   6.615   9.183   7.909 -1.8526 -2.4895  1.3248
  223MOL0     H30070   6.397   9.210   7.790  0.7759  0.3787  1.5224
  223MOL0     H30071   6.400   9.229   7.372 -1.4032 -0.4041 -3.0054
  223MOL0     H30072   6.343   9.063   7.360  1.0629  0.7836 -1.3884
  223MOL0     H30073   6.116   9.138   7.431  0.3091 -0.7397 -0.7541
  223MOL0     H30074   6.163   9.309   7.440  1.6086  1.2822 -0.0022
  223MOL0     H30075   6.036   9.280   7.241  0.8775  1.1092  3.2910
  223MOL0     H30076   6.144   9.149   7.175  0.3902 -0.2874  0.6110
  223MOL0     H30077   6.176   9.445   7.184 -3.1921 -0.6572 -2.0036
  223MOL0     H30078   6.319   9.348   7.233  0.7941  0.4291 -2.2853
  223MOL0     H30079   6.281   9.230   7.001 -1.1323 -1.0446  3.3554
  223MOL0     H30080   6.341   9.398   6.995 -0.5839  0.2039 -2.1655
  223MOL0     H30081   6.055   9.288   6.970  0.8905  0.9240  2.0215
  223MOL0     H30082   6.086   9.467   6.977 -2.3171 -0.2999 -0.0597
  223MOL0     H30083   6.242   9.312   6.767 -1.5963 -1.8538  0.6761
  223MOL0     H30084   6.166   9.463   6.746 -0.2700 -0.1699 -2.6416
  223MOL0     H30085   5.938   9.369   6.755  1.0719  2.2094  0.0683
  223MOL0     H30086   6.004   9.209   6.747 -1.5161  0.8430 -0.7808
  223MOL0     H30087   6.564   9.042   7.428  0.3959  0.6187 -1.7068
  223MOL0     H30088   6.782   9.005   7.550 -0.6670 -1.5968 -0.9589
  223MOL0     H30089   7.036   9.022   7.908 -1.6024  0.3506 -2.7566
  223MOL0     H30090   7.249   9.005   8.017 -1.3578 -0.4667 -1.8268
  223MOL0     H30091   9.037   9.391   7.377 -0.7512 -0.2537  2.5149
  223MOL0     H30092   9.200   9.299   7.205  2.5763 -0.3601  1.4253
  223MOL0     H30093   9.449   8.968   7.073 -0.6221 -0.6496  0.4326
  223MOL0     H30094   9.590   8.866   6.890 -0.2087  1.2209  4.4727
  223MOL0     H30095   9.480   8.516   6.736  1.0237 -1.4944 -0.2457
  223MOL0     H30096   9.393   8.577   6.595  0.6554  2.2848 -0.9265
  223MOL0     H30097   9.601   8.622   6.472 -1.0307 -2.4917 -0.9718
  223MOL0     H30098   9.596   8.456   6.501  3.3994  0.5373 -2.4332
  223MOL0     H30099   9.754   8.485   6.708 -1.7324  1.0260  1.7180
  223MOL0     H30100   9.746   8.654   6.681 -0.6582  0.4131  0.0310
  223MOL0     H30101   9.885   8.672   6.517 -3.7879  0.3626 -3.5562
  223MOL0     H30102   9.824   8.542   6.426 -1.0374 -1.1818  1.1769
  223MOL0     H30103  10.158   8.375   6.658  1.9930 -0.0776 -2.9586
  223MOL0     H30104   9.249   8.697   6.691  1.0534  1.4298 -0.6288
  223MOL0     H30105   9.101   8.820   6.867  0.4626 -0.4119 -0.1235
  224MOL0     O30106   7.497   4.993   6.024  0.5546  0.4459 -0.7918
  224MOL0     C30107   7.529   5.100   6.072  0.0814 -0.3957 -0.0763
  224MOL0     O30108   7.441   5.188   6.141 -0.5196  0.1765  0.3578
  224MOL0     C30109   7.308   5.163   6.122 -0.1486  0.8824  0.2616
  224MOL0     C30110   7.241   5.069   6.202 -0.2329 -0.2161  0.5793
  224MOL0     C30111   7.107   5.031   6.170  0.6996  0.8671 -0.2982
  224MOL0     C30112   7.051   5.094   6.054 -0.3116 -0.7390 -0.2139
  224MOL0     O30113   6.931   5.060   5.999 -0.1597  0.7825 -0.3567
  224MOL0     C30114   6.879   4.933   6.034 -0.1959  0.7369 -0.1135
  224MOL0     C30115   6.789   4.894   5.915 -0.4997 -0.1622  0.4342
  224MOL0     C30116   6.737   4.746   5.914 -0.9305  0.2919 -0.7139
  224MOL0     C30117   6.624   4.740   6.009  1.0564 -0.3201 -0.5745
  224MOL0     C30118   6.596   4.594   6.032  0.4668 -0.0480 -0.0434
  224MOL0     C30119   6.523   4.532   5.913 -0.0071  0.2391 -0.8622
  224MOL0     C30120   6.503   4.378   5.920 -0.2019 -0.1930 -0.3999
  224MOL0     C30121   6.377   4.338   6.003  0.0370 -0.3042  0.1530
  224MOL0     N30122   6.363   4.200   5.994  1.7596 -0.1393  0.5606
  224MOL0     C30123   6.443   4.105   6.056 -0.2576 -0.6548  0.4442
  224MOL0     C30124   6.372   3.991   6.034 -0.1528 -0.0396  0.1807
  224MOL0     C30125   6.399   3.853   6.092 -0.5234  0.5937 -0.1182
  224MOL0     C30126   6.467   3.855   6.229 -0.2015  0.1320 -0.5191
  224MOL0     C30127   6.482   3.715   6.304  0.2742  0.3690 -0.3583
  224MOL0     C30128   6.541   3.729   6.441  1.2526  0.4886  0.6811
  224MOL0     O30129   6.670   3.789   6.418 -0.4297 -0.2401 -0.2280
  224MOL0     C30130   6.751   3.811   6.530 -0.4660  0.1924 -1.8750
  224MOL0     C30131   6.876   3.875   6.508 -0.3549 -0.3736  0.8777
  224MOL0     C30132   6.972   3.890   6.606 -0.6256  0.0314  0.2982
  224MOL0     C30133   7.090   3.973   6.564  0.1734 -0.5381  0.3441
  224MOL0     C30134   6.941   3.841   6.739 -0.0036  0.3969  0.9185
  224MOL0     C30135   7.038   3.843   6.851 -0.1402  0.0344 -0.3712
  224MOL0     O30136   7.169   3.858   6.825 -0.1747 -0.0757 -0.2344
  224MOL0     C30137   7.271   3.828   6.914 -0.3503  0.7718  0.1127
  224MOL0     C30138   7.294   3.918   7.022 -0.5124 -0.2043 -0.1919
  224MOL0     C30139   7.402   3.892   7.100  0.5285 -0.3888  0.3832
  224MOL0     C30140   7.481   3.781   7.070 -0.2169 -0.1819  0.1222
  224MOL0     O30141   7.602   3.756   7.131  0.1650  0.0899  0.1024
  224MOL0     C30142   7.640   3.835   7.249  0.5160 -0.2292  0.5807
  224MOL0     C30143   7.790   3.800   7.282 -1.3187  0.1576  0.7801
  224MOL0     C30144   7.883   3.822   7.166 -0.1847  0.0138  0.9196
  224MOL0     C30145   8.024   3.774   7.177  0.2419 -0.0223 -0.1184
  224MOL0     C30146   8.103   3.795   7.047 -0.4694 -0.1386  0.2223
  224MOL0     C30147   8.055   3.732   6.921 -0.8759 -0.0344  0.3142
  224MOL0     C30148   8.147   3.771   6.800 -0.0243  0.8199  0.2872
  224MOL0     C30149   8.260   3.663   6.784  0.2045  0.0133  0.3874
  224MOL0    Cl30150   8.391   3.693   6.679 -0.0295 -0.0879 -0.0290
  224MOL0     C30151   7.461   3.693   6.971 -0.4766 -0.5620  0.1290
  224MOL0     C30152   7.355   3.712   6.890 -0.2520  0.5909 -0.8794
  224MOL0     O30153   6.998   3.808   6.965  0.5373  0.8737 -0.3584
  224MOL0     C30154   6.818   3.777   6.762 -0.3000  0.0289 -0.5039
  224MOL0     C30155   6.718   3.774   6.658 -0.1046  0.4165 -0.2205
  224MOL0     N30156   6.265   4.016   5.949  0.8042  0.7146  0.1441
  224MOL0     N30157   6.259   4.137   5.928  0.2434  0.7967 -0.6566
  224MOL0     C30158   7.114   5.200   5.985  0.8236 -0.1283  0.1232
  224MOL0     C30159   7.247   5.230   6.015  0.1049  0.0231 -0.6529
  224MOL0     C30160   7.669   5.123   6.067 -0.3720 -0.8275 -0.1319
  224MOL0     C30161   7.712   5.227   6.155 -0.0789  0.1768  0.1554
  224MOL0     C30162   7.850   5.241   6.177  0.1401 -0.3545  1.0615
  224MOL0     C30163   7.940   5.158   6.108 -0.3974  0.2457  0.3971
  224MOL0     O30164   8.069   5.198   6.127  0.1674 -0.5452 -0.0320
  224MOL0     C30165   8.138   5.272   6.028 -0.0225  0.3000  0.3037
  224MOL0     C30166   8.280   5.309   6.077  0.5188  0.0270  0.5398
  224MOL0     C30167   8.359   5.186   6.130 -0.9150  0.1507 -0.0193
  224MOL0     C30168   8.503   5.235   6.159  0.4350 -0.3047 -0.4915
  224MOL0     C30169   8.586   5.121   6.118  0.3446  0.4125 -0.1728
  224MOL0     C30170   8.655   5.033   6.064 -0.2234  0.6921  0.2029
  224MOL0     C30171   7.901   5.052   6.022  0.5558  0.0495 -0.4367
  224MOL0     C30172   7.759   5.042   6.003 -0.0374  0.3854 -0.4037
  224MOL0     H30173   7.278   5.034   6.298  2.6297 -1.7559 -0.9683
  224MOL0     H30174   7.055   4.953   6.226 -2.4932  0.3054 -3.6787
  224MOL0     H30175   6.959   4.859   6.046 -0.1733  0.7368 -0.2637
  224MOL0     H30176   6.826   4.946   6.129  0.2550  2.5393 -0.0718
  224MOL0     H30177   6.705   4.964   5.910 -0.7941 -0.4886  0.7223
  224MOL0     H30178   6.849   4.915   5.826 -2.0321  1.2252 -0.3152
  224MOL0     H30179   6.720   4.717   5.810  0.7566 -1.2276 -0.6255
  224MOL0     H30180   6.812   4.678   5.956 -0.0221  1.2437 -0.7672
  224MOL0     H30181   6.652   4.781   6.107  1.8118 -1.4258 -0.3173
  224MOL0     H30182   6.536   4.796   5.977  0.9221 -0.2381 -0.0753
  224MOL0     H30183   6.684   4.534   6.058 -0.9105 -2.6810 -1.0851
  224MOL0     H30184   6.529   4.587   6.119 -0.8282 -2.6435 -1.1411
  224MOL0     H30185   6.427   4.584   5.905 -0.2263 -0.1199 -0.5839
  224MOL0     H30186   6.582   4.546   5.822 -0.5432 -1.6332 -1.5434
  224MOL0     H30187   6.489   4.343   5.817 -1.9627 -0.8367  0.0269
  224MOL0     H30188   6.584   4.327   5.973  0.0416 -0.1262 -0.7048
  224MOL0     H30189   6.284   4.380   5.963 -1.3624 -0.6215  2.8403
  224MOL0     H30190   6.378   4.384   6.102  0.0550  0.7875 -0.3397
  224MOL0     H30191   6.527   4.120   6.124 -0.2889  0.2530  0.2832
  224MOL0     H30192   6.302   3.804   6.102 -1.0660  1.2356 -1.8284
  224MOL0     H30193   6.457   3.800   6.015 -1.5745  2.4131 -2.2944
  224MOL0     H30194   6.413   3.929   6.289  2.8149  1.4347  0.7853
  224MOL0     H30195   6.565   3.902   6.220 -0.2855  0.2411 -0.8660
  224MOL0     H30196   6.541   3.649   6.241 -4.1448 -2.2693 -2.2144
  224MOL0     H30197   6.381   3.674   6.313  0.0472  0.9456 -0.1660
  224MOL0     H30198   6.552   3.634   6.494 -0.1441  0.7862  1.5401
  224MOL0     H30199   6.473   3.792   6.499  0.7862  0.5112  0.1276
  224MOL0     H30200   6.887   3.920   6.410 -0.6746 -0.3459  0.8541
  224MOL0     H30201   7.066   4.077   6.537  0.7521 -0.4052  0.3329
  224MOL0     H30202   7.161   3.990   6.646 -0.0477  0.7067  0.3063
  224MOL0     H30203   7.136   3.915   6.484 -2.8971 -0.4546 -1.6522
  224MOL0     H30204   7.231   4.004   7.038  0.2066  0.2640  0.1916
  224MOL0     H30205   7.431   3.950   7.187  0.5598 -1.2306  0.9507
  224MOL0     H30206   7.640   3.944   7.242 -0.1295 -0.3421 -3.6015
  224MOL0     H30207   7.572   3.803   7.328  0.3081  0.9155  0.8680
  224MOL0     H30208   7.833   3.856   7.366  3.2490  0.2695 -1.3321
  224MOL0     H30209   7.780   3.695   7.310 -3.3179 -0.2418 -1.1607
  224MOL0     H30210   7.879   3.928   7.136 -0.3450 -0.2552 -0.0500
  224MOL0     H30211   7.840   3.761   7.086  0.0636 -0.7681  1.3747
  224MOL0     H30212   8.080   3.826   7.256 -2.1651  4.5031 -1.0821
  224MOL0     H30213   8.027   3.666   7.196 -0.7469 -0.0828 -0.2657
  224MOL0     H30214   8.202   3.754   7.067 -0.5690 -0.7978 -0.5956
  224MOL0     H30215   8.107   3.902   7.024 -0.2590 -0.6687 -2.5912
  224MOL0     H30216   8.055   3.623   6.931 -0.8185 -0.3281 -2.2364
  224MOL0     H30217   7.960   3.778   6.892  0.0468  0.6832 -1.7673
  224MOL0     H30218   8.197   3.867   6.819  1.1708 -0.3658  3.8628
  224MOL0     H30219   8.091   3.783   6.707  0.6670 -0.9005 -0.3855
  224MOL0     H30220   8.215   3.574   6.738  0.1962  0.4309 -0.4247
  224MOL0     H30221   8.314   3.636   6.876  0.5596 -0.5444  0.0228
  224MOL0     H30222   7.528   3.608   6.966  0.3279 -0.2674  3.3658
  224MOL0     H30223   7.332   3.641   6.812 -0.2495 -1.3510  0.7793
  224MOL0     H30224   6.796   3.744   6.864  0.1509  1.0839 -0.0548
  224MOL0     H30225   6.632   3.709   6.669  0.0662 -0.0119 -1.2977
  224MOL0     H30226   7.057   5.261   5.916 -2.0013  0.4824  2.8053
  224MOL0     H30227   7.318   5.296   5.966  3.2757 -1.6543  1.3084
  224MOL0     H30228   7.638   5.285   6.208 -0.1933  0.6933 -0.5539
  224MOL0     H30229   7.887   5.311   6.251  0.8557 -0.4047  0.7564
  224MOL0     H30230   8.162   5.216   5.937  0.2805  2.5026 -1.0294
  224MOL0     H30231   8.082   5.363   6.005  0.7829  0.4240 -1.3294
  224MOL0     H30232   8.278   5.388   6.153  1.9213  0.8691 -0.2548
  224MOL0     H30233   8.334   5.352   5.992  0.1598 -0.1602  0.2188
  224MOL0     H30234   8.352   5.108   6.054 -2.0687  1.2700 -1.1050
  224MOL0     H30235   8.316   5.140   6.219  0.3047 -1.2349 -0.0958
  224MOL0     H30236   8.517   5.247   6.267  1.8221 -0.1229 -0.6638
  224MOL0     H30237   8.543   5.321   6.105  0.4984 -0.1733 -0.2380
  224MOL0     H30238   8.724   4.966   6.017  0.0042  2.3250 -1.9724
  224MOL0     H30239   7.972   4.985   5.974 -1.3770 -1.3916 -1.3823
  224MOL0     H30240   7.731   4.958   5.941  1.0466 -0.9117  0.7845
  225MOL0     O30241   6.570   6.722   0.930 -0.6435  0.4898  0.1145
  225MOL0     C30242   6.663   6.737   0.855 -0.1868 -0.0565 -0.0774
  225MOL0     O30243   6.653   6.776   0.720 -0.2014 -0.0506 -0.4701
  225MOL0     C30244   6.534   6.803   0.654 -0.1816  0.3288  0.5537
  225MOL0     C30245   6.410   6.832   0.714  0.9776  0.2906 -0.1130
  225MOL0     C30246   6.301   6.847   0.632 -0.1121 -0.5837  0.3852
  225MOL0     C30247   6.319   6.861   0.493  0.4798 -0.0676 -1.3415
  225MOL0     O30248   6.222   6.881   0.399 -0.6148  0.0107 -0.1765
  225MOL0     C30249   6.083   6.900   0.444  0.4328  0.5085  0.3882
  225MOL0     C30250   5.998   6.903   0.321  0.1205  0.4105  0.2268
  225MOL0     C30251   5.851   6.932   0.338  0.5150 -0.2233 -1.2318
  225MOL0     C30252   5.786   6.825   0.432  0.5104 -0.0448  0.3435
  225MOL0     C30253   5.640   6.804   0.395 -0.4158 -0.1026  0.3636
  225MOL0     C30254   5.560   6.934   0.401  0.2478  0.4619 -0.4942
  225MOL0     C30255   5.407   6.904   0.407  0.1068  0.1635  0.1159
  225MOL0     C30256   5.313   7.023   0.453  0.0728 -0.1156 -0.2623
  225MOL0     N30257   5.178   6.985   0.402  0.3847  0.2964 -0.7746
  225MOL0     C30258   5.083   6.908   0.468 -0.0557 -0.6560 -0.5091
  225MOL0     C30259   4.979   6.911   0.382 -1.0880  0.7105  0.7641
  225MOL0     C30260   4.846   6.851   0.413  0.7755  0.0911 -0.2328
  225MOL0     C30261   4.737   6.957   0.434 -0.1123 -0.8321  0.3812
  225MOL0     C30262   4.589   6.909   0.416  0.5045  0.2832 -0.7439
  225MOL0     C30263   4.502   7.026   0.347 -0.5725 -0.4000 -0.0842
  225MOL0     O30264   4.482   7.135   0.441 -0.3469 -0.1428  0.7692
  225MOL0     C30265   4.359   7.199   0.449 -0.1229 -0.0980  0.1870
  225MOL0     C30266   4.339   7.304   0.542 -0.1140  0.6596  0.1418
  225MOL0     C30267   4.207   7.360   0.565 -0.4147 -0.3752  0.4986
  225MOL0     C30268   4.204   7.462   0.676 -0.1685 -0.1999  0.7196
  225MOL0     C30269   4.104   7.329   0.473  0.4716  0.2986  0.0509
  225MOL0     C30270   3.958   7.371   0.493 -0.2568 -0.2164 -0.9179
  225MOL0     O30271   3.879   7.348   0.383  0.0577 -0.4106  0.0916
  225MOL0     C30272   3.743   7.377   0.384  0.0514 -0.2447 -0.1720
  225MOL0     C30273   3.686   7.433   0.275  0.4683  0.8806  0.1763
  225MOL0     C30274   3.550   7.454   0.274 -0.0842 -0.3683  0.0960
  225MOL0     C30275   3.465   7.401   0.374 -0.1964  0.3388  0.8350
  225MOL0     O30276   3.332   7.438   0.365  0.6543  0.2379  0.4619
  225MOL0     C30277   3.230   7.336   0.399 -0.2791 -0.6996 -1.0329
  225MOL0     C30278   3.104   7.339   0.304 -0.1944 -0.2629  1.1404
  225MOL0     C30279   3.082   7.476   0.259 -0.5639  0.2843  0.1926
  225MOL0     C30280   2.949   7.522   0.198  0.2168 -0.1005  1.0872
  225MOL0     C30281   2.832   7.521   0.299  0.1644 -0.0002 -0.2975
  225MOL0     C30282   2.689   7.504   0.234 -0.0896 -0.9175  0.6894
  225MOL0     C30283   2.587   7.500   0.345 -0.2001 -0.4234  0.6458
  225MOL0     C30284   2.450   7.463   0.276  0.4446  0.2341 -1.4962
  225MOL0    Cl30285   2.405   7.587   0.158  0.0151 -0.1777  0.4868
  225MOL0     C30286   3.523   7.332   0.480  0.4052  0.2032  0.8279
  225MOL0     C30287   3.662   7.325   0.491 -0.9451 -0.6855  0.3429
  225MOL0     O30288   3.931   7.433   0.593  0.1840  0.5122 -0.1409
  225MOL0     C30289   4.136   7.244   0.374 -0.1274  0.0648  0.8485
  225MOL0     C30290   4.257   7.177   0.362 -0.2905  0.0544  0.1031
  225MOL0     N30291   5.013   6.979   0.261 -0.0357 -0.0409 -0.4421
  225MOL0     N30292   5.135   7.023   0.280  0.1431  0.5096 -0.4064
  225MOL0     C30293   6.441   6.854   0.436 -0.1499  0.7387 -0.5083
  225MOL0     C30294   6.552   6.819   0.520  0.1684 -0.5156  0.1024
  225MOL0     C30295   6.800   6.713   0.915  0.5457  0.0275  0.4123
  225MOL0     C30296   6.906   6.777   0.851  0.5219 -0.5768 -0.7071
  225MOL0     C30297   7.034   6.748   0.901 -0.3031  0.5974  0.1423
  225MOL0     C30298   7.057   6.657   1.011 -0.0626  0.1281  0.1334
  225MOL0     O30299   7.177   6.602   1.046 -0.3153 -0.2589  0.2513
  225MOL0     C30300   7.282   6.604   0.942  0.4903  0.1011 -0.1201
  225MOL0     C30301   7.400   6.533   0.998  0.4872 -0.1041 -0.0011
  225MOL0     C30302   7.503   6.487   0.898 -0.0482  0.6612 -0.2861
  225MOL0     C30303   7.605   6.604   0.874 -0.3711  0.5827  0.2857
  225MOL0     C30304   7.703   6.566   0.759  0.3116 -0.3460 -0.2057
  225MOL0     C30305   7.764   6.532   0.656  0.7807  0.8214 -0.4113
  225MOL0     C30306   6.940   6.597   1.072 -0.4851 -1.2050 -0.7393
  225MOL0     C30307   6.821   6.628   1.017  0.9263 -0.7404  0.2799
  225MOL0     H30308   6.393   6.858   0.818  0.1743  6.0416 -1.3650
  225MOL0     H30309   6.200   6.861   0.667 -1.4122  1.6296 -3.6223
  225MOL0     H30310   6.047   6.827   0.517 -0.6303  1.1017  0.4640
  225MOL0     H30311   6.090   7.002   0.482  0.3394  0.1229  1.4853
  225MOL0     H30312   6.036   6.977   0.250 -0.5816  1.8468  1.3155
  225MOL0     H30313   6.012   6.806   0.272 -0.0351 -0.5315  1.9641
  225MOL0     H30314   5.845   7.031   0.383 -1.5571 -0.1937 -1.4445
  225MOL0     H30315   5.791   6.934   0.246 -2.7593 -1.9974  0.6590
  225MOL0     H30316   5.839   6.731   0.414 -0.0841 -0.5809  1.2803
  225MOL0     H30317   5.794   6.832   0.541 -3.7781 -3.5264  1.1464
  225MOL0     H30318   5.625   6.767   0.294 -1.2216  1.3097 -0.0660
  225MOL0     H30319   5.594   6.743   0.473 -0.6340  1.1599  1.2692
  225MOL0     H30320   5.596   6.999   0.481  1.3623  0.3093 -0.8510
  225MOL0     H30321   5.585   6.991   0.311  0.0390 -0.3333 -1.0765
  225MOL0     H30322   5.378   6.868   0.308  1.4436 -2.7009  0.6655
  225MOL0     H30323   5.384   6.824   0.478  0.7766  0.0916  0.2655
  225MOL0     H30324   5.342   7.121   0.415  1.4647 -0.3230  0.2295
  225MOL0     H30325   5.322   7.032   0.562  0.3688 -0.7828 -0.2249
  225MOL0     H30326   5.084   6.862   0.566  1.7001 -0.4122 -0.3832
  225MOL0     H30327   4.821   6.786   0.328  2.3734  0.8277 -1.3191
  225MOL0     H30328   4.855   6.795   0.506 -0.3163  1.7555  0.9247
  225MOL0     H30329   4.749   7.042   0.366  0.2241 -1.0546  0.1527
  225MOL0     H30330   4.748   7.002   0.533  1.8005  1.2087 -0.6738
  225MOL0     H30331   4.547   6.887   0.514 -1.1222 -1.5765 -1.7760
  225MOL0     H30332   4.578   6.812   0.365 -2.2818 -0.2077  0.6001
  225MOL0     H30333   4.409   6.984   0.307 -0.6550  0.2960 -0.6551
  225MOL0     H30334   4.550   7.065   0.256 -0.4771  1.3537  0.6738
  225MOL0     H30335   4.426   7.332   0.600  1.1127 -2.0456 -0.2125
  225MOL0     H30336   4.116   7.463   0.741 -1.9630  2.7892 -1.5189
  225MOL0     H30337   4.288   7.436   0.741 -0.2207 -3.1507 -0.2418
  225MOL0     H30338   4.218   7.555   0.621 -0.8092 -0.7844 -0.4743
  225MOL0     H30339   3.762   7.460   0.203  1.1960 -0.5839  0.3547
  225MOL0     H30340   3.508   7.509   0.191  0.7754 -0.9906 -0.7692
  225MOL0     H30341   3.262   7.232   0.406 -1.3273 -0.9002  2.7110
  225MOL0     H30342   3.185   7.360   0.495  2.1556 -2.1617  0.5721
  225MOL0     H30343   3.124   7.273   0.219  2.5963  0.4998  1.1175
  225MOL0     H30344   3.015   7.313   0.362 -3.2110  5.3903 -0.1788
  225MOL0     H30345   3.155   7.497   0.180 -1.2184 -0.0952 -0.5217
  225MOL0     H30346   3.107   7.541   0.343  0.4938 -1.1446  1.0316
  225MOL0     H30347   2.960   7.620   0.150 -0.8893 -0.5477 -0.1491
  225MOL0     H30348   2.932   7.453   0.115 -0.8207  2.5378 -1.0574
  225MOL0     H30349   2.838   7.615   0.356 -1.5998  0.4280 -0.7697
  225MOL0     H30350   2.839   7.434   0.364 -2.5214  0.0606  0.1726
  225MOL0     H30351   2.664   7.591   0.173  2.4696 -0.3977  0.2371
  225MOL0     H30352   2.682   7.411   0.178  0.0426  0.0038 -0.9105
  225MOL0     H30353   2.594   7.600   0.388 -1.4278 -0.2663  0.5301
  225MOL0     H30354   2.602   7.423   0.421  0.2441  1.4883  2.5859
  225MOL0     H30355   2.368   7.475   0.348 -0.5848 -1.0020 -2.4311
  225MOL0     H30356   2.446   7.363   0.234 -2.5220 -0.8131  0.9400
  225MOL0     H30357   3.460   7.292   0.558  0.5942  0.7875  1.2873
  225MOL0     H30358   3.713   7.261   0.562  1.3505 -3.9741 -3.8052
  225MOL0     H30359   4.061   7.217   0.301  1.0770  0.8435 -0.7396
  225MOL0     H30360   4.261   7.132   0.263 -2.3002  1.5392 -0.7143
  225MOL0     H30361   6.458   6.865   0.330  1.0106  1.3575 -0.2816
  225MOL0     H30362   6.650   6.795   0.480 -1.0895 -2.2658 -2.1564
  225MOL0     H30363   6.888   6.843   0.768 -3.7027 -0.8195 -0.1937
  225MOL0     H30364   7.124   6.782   0.851  0.9208 -0.6202  1.4318
  225MOL0     H30365   7.241   6.552   0.855  3.0192 -0.9937 -0.7464
  225MOL0     H30366   7.309   6.706   0.914  1.8489 -0.6429 -1.6676
  225MOL0     H30367   7.370   6.443   1.052  1.3852 -0.4862 -0.1420
  225MOL0     H30368   7.443   6.602   1.072 -0.4200 -1.4212  1.8390
  225MOL0     H30369   7.450   6.457   0.807  1.0859  0.3548 -0.8710
  225MOL0     H30370   7.554   6.399   0.940 -0.2243 -0.2909 -1.9625
  225MOL0     H30371   7.668   6.621   0.962 -0.7409  0.3447  0.5974
  225MOL0     H30372   7.552   6.696   0.851 -0.6823  0.8408  1.9022
  225MOL0     H30373   7.821   6.479   0.583  0.9275  0.0097  0.2759
  225MOL0     H30374   6.949   6.521   1.150 -1.8230 -1.0556 -0.4126
  225MOL0     H30375   6.729   6.582   1.051 -0.6589  0.2515 -2.3288
  226MOL0     O30376   8.290   1.688   7.204 -0.1811 -0.2635  0.0817
  226MOL0     C30377   8.278   1.782   7.279  1.5234 -0.0156  0.0372
  226MOL0     O30378   8.165   1.854   7.296 -0.3496  0.0370 -0.2917
  226MOL0     C30379   8.050   1.831   7.224 -1.4023 -0.0480  0.2961
  226MOL0     C30380   7.986   1.700   7.233  0.3186 -0.3451 -0.5305
  226MOL0     C30381   7.859   1.688   7.184  1.0003  0.0384  0.1149
  226MOL0     C30382   7.789   1.788   7.122  0.0846  0.2542 -0.5669
  226MOL0     O30383   7.661   1.761   7.079  0.6614  0.2178 -0.6184
  226MOL0     C30384   7.619   1.809   6.952  0.7887  0.1717 -0.4453
  226MOL0     C30385   7.492   1.742   6.896 -0.0979  0.0979  0.5030
  226MOL0     C30386   7.512   1.592   6.852  0.3097 -0.0052  0.0194
  226MOL0     C30387   7.396   1.505   6.896 -0.2006 -0.7517 -0.2422
  226MOL0     C30388   7.261   1.543   6.826 -0.4099  0.6559  0.4802
  226MOL0     C30389   7.154   1.439   6.867 -0.0125  0.2582  0.6603
  226MOL0     C30390   7.012   1.485   6.832 -0.0842 -0.7606 -0.9361
  226MOL0     C30391   6.890   1.423   6.910 -0.6204  1.1543 -0.1856
  226MOL0     N30392   6.766   1.460   6.847  0.2369 -0.3571 -0.4105
  226MOL0     C30393   6.723   1.419   6.725  0.5308 -0.1676  0.7735
  226MOL0     C30394   6.601   1.484   6.710  0.0921 -1.0850 -0.0795
  226MOL0     C30395   6.516   1.477   6.592 -0.2239 -0.1082 -0.4965
  226MOL0     C30396   6.372   1.480   6.612 -0.1187  0.0054  1.3498
  226MOL0     C30397   6.315   1.617   6.649 -0.2038 -0.0940 -0.2315
  226MOL0     C30398   6.160   1.599   6.667 -0.4425 -0.3648  0.2128
  226MOL0     O30399   6.103   1.608   6.536  0.6299 -0.6497 -0.4052
  226MOL0     C30400   5.970   1.571   6.521 -0.3424  0.1205  0.6252
  226MOL0     C30401   5.942   1.448   6.455  0.0977 -0.3092  0.4309
  226MOL0     C30402   5.807   1.402   6.437  0.8931  1.0705 -0.3700
  226MOL0     C30403   5.778   1.274   6.366 -0.4675  0.1339  0.2730
  226MOL0     C30404   5.700   1.479   6.486 -0.5857  0.8053  0.1689
  226MOL0     C30405   5.554   1.441   6.485 -0.0047  0.4558 -0.8731
  226MOL0     O30406   5.503   1.321   6.459 -0.5025  0.6842  0.3372
  226MOL0     C30407   5.372   1.291   6.499 -0.6798  0.5035  0.1120
  226MOL0     C30408   5.269   1.249   6.413 -0.2841 -0.5936  0.0082
  226MOL0     C30409   5.135   1.244   6.450  0.5066  0.4041  0.2522
  226MOL0     C30410   5.098   1.274   6.585  0.9870 -0.7209  0.3350
  226MOL0     O30411   4.972   1.264   6.642 -0.2186 -0.8516 -0.4175
  226MOL0     C30412   4.877   1.181   6.577 -0.5128  0.0350  0.2534
  226MOL0     C30413   4.917   1.037   6.592  0.3774 -0.6576  0.3094
  226MOL0     C30414   4.945   0.999   6.748  0.3726 -0.6397 -0.1313
  226MOL0     C30415   4.971   0.848   6.753 -0.0309  0.0977  0.7336
  226MOL0     C30416   5.008   0.811   6.892 -0.6133  0.6127  0.0023
  226MOL0     C30417   4.989   0.663   6.909 -0.1333 -0.1840 -0.4264
  226MOL0     C30418   5.105   0.583   6.839 -0.6651  0.2610  0.0835
  226MOL0     C30419   5.084   0.431   6.815 -0.1749  0.5587  0.2042
  226MOL0    Cl30420   5.041   0.360   6.975  0.4191 -0.7081  0.3020
  226MOL0     C30421   5.204   1.309   6.671  0.2455  0.2702  0.0019
  226MOL0     C30422   5.334   1.320   6.629 -0.4407 -0.4292 -0.6930
  226MOL0     O30423   5.487   1.539   6.521 -0.3644 -0.6158  0.4104
  226MOL0     C30424   5.733   1.607   6.542  0.1143  0.2037 -0.4675
  226MOL0     C30425   5.865   1.649   6.560 -0.1602  0.5741 -0.3694
  226MOL0     N30426   6.576   1.545   6.828 -0.3456  0.6259 -0.7079
  226MOL0     N30427   6.671   1.535   6.909  0.2108  0.2402 -0.5565
  226MOL0     C30428   7.859   1.904   7.100 -0.9652 -0.1998  0.0267
  226MOL0     C30429   7.989   1.927   7.151  0.4563 -0.3829  0.3602
  226MOL0     C30430   8.384   1.826   7.366  0.1648 -0.5374  0.0004
  226MOL0     C30431   8.492   1.739   7.395 -0.0230 -0.9749 -0.0722
  226MOL0     C30432   8.600   1.793   7.463 -0.2918  0.0699  0.3084
  226MOL0     C30433   8.609   1.924   7.509 -0.6546  0.1225 -1.0733
  226MOL0     O30434   8.721   1.962   7.581 -0.1466  0.4208 -0.0543
  226MOL0     C30435   8.749   2.101   7.592 -0.0516  0.2249  0.3487
  226MOL0     C30436   8.901   2.089   7.639 -0.7407 -0.2467  0.6045
  226MOL0     C30437   9.004   2.047   7.531  0.0703  1.2496  0.0496
  226MOL0     C30438   9.144   2.057   7.594 -0.1627  0.1102 -0.4070
  226MOL0     C30439   9.240   2.036   7.483  0.2665 -0.4035 -0.0453
  226MOL0     C30440   9.306   2.015   7.383  0.1409 -0.7087 -0.0761
  226MOL0     C30441   8.498   2.010   7.491 -0.5210  0.3139  0.0082
  226MOL0     C30442   8.390   1.963   7.425 -0.2737 -0.0478 -0.3150
  226MOL0     H30443   8.041   1.612   7.266 -0.7699 -1.0316 -0.5111
  226MOL0     H30444   7.793   1.603   7.197 -1.3891  1.8949  0.6706
  226MOL0     H30445   7.575   1.907   6.970 -3.2750 -1.5083 -0.1457
  226MOL0     H30446   7.696   1.824   6.876 -0.4707  0.3636 -1.7191
  226MOL0     H30447   7.415   1.733   6.973 -0.2087  0.4029  0.4295
  226MOL0     H30448   7.449   1.801   6.814  0.4555  0.9641  0.8135
  226MOL0     H30449   7.523   1.591   6.743  0.1914  3.2139 -0.1292
  226MOL0     H30450   7.606   1.566   6.902 -0.3951 -3.3545 -0.1833
  226MOL0     H30451   7.408   1.397   6.884 -1.6760 -1.0769  0.8776
  226MOL0     H30452   7.382   1.525   7.003  0.7319 -0.2100 -0.2137
  226MOL0     H30453   7.235   1.645   6.855  1.4447  1.6502 -1.1058
  226MOL0     H30454   7.274   1.531   6.718  0.3187  0.6479  0.5598
  226MOL0     H30455   7.183   1.352   6.808 -1.3755 -0.0577  0.4354
  226MOL0     H30456   7.151   1.414   6.974  2.4151 -0.5626  0.6096
  226MOL0     H30457   7.008   1.593   6.848  0.6053 -1.1762  3.2303
  226MOL0     H30458   7.005   1.457   6.727  0.1256 -2.0955 -0.6170
  226MOL0     H30459   6.890   1.451   7.016  1.0633  0.3039  0.0811
  226MOL0     H30460   6.896   1.314   6.915 -1.2910  1.1455  0.7092
  226MOL0     H30461   6.768   1.356   6.650  0.6207  1.5721 -0.7168
  226MOL0     H30462   6.543   1.562   6.530 -2.1572  0.8221 -0.1308
  226MOL0     H30463   6.542   1.384   6.540  2.7843 -0.9790  2.1897
  226MOL0     H30464   6.344   1.404   6.685  0.0962 -0.5574  0.8611
  226MOL0     H30465   6.334   1.432   6.521 -0.1251  1.4576  0.5470
  226MOL0     H30466   6.330   1.685   6.565 -2.5858 -0.8125 -1.3368
  226MOL0     H30467   6.362   1.648   6.743  0.9286  0.1826 -0.8669
  226MOL0     H30468   6.123   1.683   6.726  0.5040  1.4734 -1.6689
  226MOL0     H30469   6.130   1.500   6.702  0.1458 -0.8401 -0.5996
  226MOL0     H30470   6.018   1.375   6.432 -1.1818 -2.1399  1.7412
  226MOL0     H30471   5.857   1.263   6.292 -0.4932 -1.1632  0.4210
  226MOL0     H30472   5.772   1.194   6.441 -0.3083  0.1277  0.2792
  226MOL0     H30473   5.687   1.285   6.307 -0.9356 -1.0093  0.7567
  226MOL0     H30474   5.296   1.248   6.308 -1.1989  3.2454 -0.3902
  226MOL0     H30475   5.062   1.204   6.382  1.0103  0.1062 -0.1210
  226MOL0     H30476   4.779   1.204   6.620 -0.2817  2.5468 -0.4016
  226MOL0     H30477   4.867   1.196   6.469 -1.7521 -1.8441  0.0624
  226MOL0     H30478   4.831   0.983   6.550  1.2824  0.2178 -3.0164
  226MOL0     H30479   5.006   1.012   6.534  1.1662 -0.6396  1.4785
  226MOL0     H30480   4.862   1.021   6.816  3.5474 -0.0131  3.9293
  226MOL0     H30481   5.033   1.054   6.785  0.7610  1.6282 -3.8238
  226MOL0     H30482   4.886   0.790   6.716 -0.3042 -0.4392  2.1545
  226MOL0     H30483   5.054   0.821   6.687 -0.3479 -0.9413  0.7533
  226MOL0     H30484   4.943   0.858   6.967 -3.4388 -1.6623 -0.8420
  226MOL0     H30485   5.114   0.833   6.908 -0.4264 -0.4108  0.2512
  226MOL0     H30486   4.991   0.642   7.017 -2.3229  1.7008  0.0540
  226MOL0     H30487   4.895   0.624   6.868  0.3267 -1.8668  0.0133
  226MOL0     H30488   5.194   0.605   6.898  0.6104  0.5824 -1.8450
  226MOL0     H30489   5.127   0.621   6.738  1.2881  2.4651  1.2368
  226MOL0     H30490   5.178   0.383   6.785  0.7970  0.0755  3.5649
  226MOL0     H30491   5.001   0.420   6.745 -0.9185 -2.1489  1.4035
  226MOL0     H30492   5.190   1.339   6.775 -0.2150  0.1999 -0.0375
  226MOL0     H30493   5.407   1.344   6.705 -0.7750 -2.3595  0.3109
  226MOL0     H30494   5.658   1.679   6.572 -1.6585 -2.9968  4.0099
  226MOL0     H30495   5.898   1.736   6.617 -1.1018  0.7024 -0.0008
  226MOL0     H30496   7.803   1.984   7.053 -3.6335 -0.8985  1.8313
  226MOL0     H30497   8.036   2.025   7.146  3.2656 -1.6002  0.9195
  226MOL0     H30498   8.501   1.637   7.360  1.2803 -1.4132  1.4457
  226MOL0     H30499   8.679   1.720   7.476  1.0132  1.2201 -0.8042
  226MOL0     H30500   8.739   2.160   7.501 -2.6663 -1.5393 -0.6209
  226MOL0     H30501   8.680   2.138   7.668 -3.5283 -1.2200 -1.8953
  226MOL0     H30502   8.912   2.008   7.711  0.4040 -2.3961 -1.8563
  226MOL0     H30503   8.925   2.187   7.682  0.4777 -0.6357  0.8274
  226MOL0     H30504   8.994   2.106   7.439 -0.8996  0.4310 -0.3932
  226MOL0     H30505   8.990   1.944   7.497  2.5989  1.2493 -1.2399
  226MOL0     H30506   9.143   1.983   7.674  1.2774  0.7415  0.2304
  226MOL0     H30507   9.161   2.154   7.642  0.0052 -1.0023  1.9453
  226MOL0     H30508   9.366   1.979   7.302 -0.5923  0.9360 -1.4251
  226MOL0     H30509   8.493   2.111   7.531  0.1463  0.3378  0.0556
  226MOL0     H30510   8.310   2.036   7.431 -1.4532 -1.2616 -0.6902
  227MOL0     O30511   8.352   2.186   9.638 -0.3300 -0.3609 -0.1944
  227MOL0     C30512   8.324   2.071   9.668 -0.1792  0.6905 -0.2384
  227MOL0     O30513   8.199   2.020   9.664  0.0022 -0.6741  0.4023
  227MOL0     C30514   8.101   2.106   9.628 -0.8173 -0.8761  0.6874
  227MOL0     C30515   8.089   2.232   9.693 -0.0701  0.2047 -0.0104
  227MOL0     C30516   7.982   2.320   9.649 -0.3694 -0.0674  0.4895
  227MOL0     C30517   7.899   2.287   9.548 -0.0422 -0.1654  0.1527
  227MOL0     O30518   7.800   2.372   9.504  0.5624  0.3705 -0.1497
  227MOL0     C30519   7.845   2.494   9.438 -0.2351  1.1783 -0.1764
  227MOL0     C30520   7.716   2.572   9.401 -0.7211 -0.7249  0.1284
  227MOL0     C30521   7.617   2.501   9.298 -0.1111  0.1221 -0.2145
  227MOL0     C30522   7.515   2.593   9.239 -0.0470  0.2390  0.5386
  227MOL0     C30523   7.401   2.504   9.176  0.2227  0.1407  0.4662
  227MOL0     C30524   7.313   2.597   9.087 -0.2337 -0.1418  0.8930
  227MOL0     C30525   7.190   2.514   9.046 -0.7750  0.5188  1.0122
  227MOL0     C30526   7.122   2.598   8.932 -0.0223  0.0951  1.6124
  227MOL0     N30527   6.977   2.594   8.924 -0.0458 -0.0005 -0.1970
  227MOL0     C30528   6.890   2.561   9.032 -0.6130  0.0406 -0.2045
  227MOL0     C30529   6.778   2.621   9.000 -0.1009  0.2077  0.0592
  227MOL0     C30530   6.658   2.630   9.092  0.2445 -0.3138 -0.1859
  227MOL0     C30531   6.547   2.714   9.025 -0.4800  0.0502 -1.0527
  227MOL0     C30532   6.471   2.629   8.913  0.4826  0.6762  0.4604
  227MOL0     C30533   6.315   2.669   8.887 -0.2015  0.1126  0.5431
  227MOL0     O30534   6.240   2.669   9.006  0.2703  0.0192 -0.2460
  227MOL0     C30535   6.114   2.623   9.000  0.4743 -0.8167 -0.1031
  227MOL0     C30536   6.079   2.490   9.024 -1.0810  0.2042  0.6529
  227MOL0     C30537   5.946   2.450   9.018 -0.1453 -0.6819  0.7383
  227MOL0     C30538   5.925   2.307   9.069 -0.0925  0.2131  0.6349
  227MOL0     C30539   5.848   2.542   8.979  0.1856  1.0534 -0.5914
  227MOL0     C30540   5.696   2.497   8.971  0.1072  0.7754 -0.6195
  227MOL0     O30541   5.612   2.602   8.994 -0.4278 -0.2198 -0.3708
  227MOL0     C30542   5.485   2.570   9.002  0.1155  0.8554  0.0484
  227MOL0     C30543   5.422   2.505   9.108 -0.4711 -0.0641 -0.1665
  227MOL0     C30544   5.275   2.491   9.114 -0.4029 -0.2629  0.8073
  227MOL0     C30545   5.203   2.538   9.009  0.2484  0.7257  0.2841
  227MOL0     O30546   5.062   2.516   9.008 -0.4174  0.0178  0.5295
  227MOL0     C30547   5.025   2.383   9.030  0.1599  0.1548  0.1962
  227MOL0     C30548   4.884   2.344   8.979 -0.1789 -0.0373 -0.3310
  227MOL0     C30549   4.773   2.404   9.058  0.1339  0.1857  0.6623
  227MOL0     C30550   4.764   2.350   9.197 -0.2022 -0.1552  0.1278
  227MOL0     C30551   4.689   2.441   9.297 -0.3969 -0.3949  0.1283
  227MOL0     C30552   4.617   2.352   9.396 -1.1085 -0.8532  1.0552
  227MOL0     C30553   4.513   2.426   9.474  0.1111  0.2221  0.8089
  227MOL0     C30554   4.383   2.445   9.391  0.5052  0.5265  0.3747
  227MOL0    Cl30555   4.266   2.303   9.389  0.5660 -0.0187 -0.2442
  227MOL0     C30556   5.262   2.602   8.904  0.0374 -0.3572 -0.3721
  227MOL0     C30557   5.404   2.625   8.902  0.4280  0.7586 -0.0278
  227MOL0     O30558   5.667   2.379   8.960  0.4642 -0.0597 -0.0575
  227MOL0     C30559   5.881   2.677   8.972 -0.1825 -0.1194  0.4022
  227MOL0     C30560   6.010   2.714   8.976 -0.4562 -0.0113 -0.0582
  227MOL0     N30561   6.782   2.654   8.858 -0.0015 -0.0999 -0.5014
  227MOL0     N30562   6.899   2.629   8.818 -0.7123 -0.9955  0.2725
  227MOL0     C30563   7.909   2.160   9.485  0.0156  0.1634 -0.0646
  227MOL0     C30564   8.006   2.069   9.533 -0.7763  0.0166  1.2199
  227MOL0     C30565   8.430   1.984   9.710 -0.6321  0.1444  0.5141
  227MOL0     C30566   8.395   1.852   9.740 -1.0992  0.2421 -0.2920
  227MOL0     C30567   8.491   1.757   9.792 -0.2266 -0.7574  0.1135
  227MOL0     C30568   8.625   1.789   9.795 -0.7699  0.7072  0.1428
  227MOL0     O30569   8.705   1.688   9.835 -0.2139 -0.4419  0.0372
  227MOL0     C30570   8.851   1.698   9.834 -0.0251 -0.4170 -0.5029
  227MOL0     C30571   8.905   1.748   9.972  0.3841  0.8664  0.1194
  227MOL0     C30572   9.051   1.719  10.012 -0.0825  0.1210  0.1074
  227MOL0     C30573   9.090   1.578  10.047  0.6795  0.0890 -0.2192
  227MOL0     C30574   9.186   1.562  10.156  0.0252 -0.0992 -0.2443
  227MOL0     C30575   9.269   1.508  10.229 -0.1544  0.6792  0.2076
  227MOL0     C30576   8.660   1.922   9.774 -0.8833  0.4302  0.2168
  227MOL0     C30577   8.567   2.015   9.740 -0.0134 -0.0682  0.6202
  227MOL0     H30578   8.155   2.261   9.775  0.1187  0.2212 -0.1671
  227MOL0     H30579   7.965   2.417   9.696 -2.6667  0.3081 -0.9839
  227MOL0     H30580   7.912   2.548   9.506  0.9939  1.2698 -1.3998
  227MOL0     H30581   7.891   2.464   9.343 -1.1912 -0.8282 -0.0572
  227MOL0     H30582   7.653   2.595   9.487 -2.1592 -0.0033 -1.0692
  227MOL0     H30583   7.752   2.667   9.359 -2.3119  1.0872  2.6300
  227MOL0     H30584   7.666   2.439   9.222 -0.0823 -1.4581  1.0319
  227MOL0     H30585   7.552   2.431   9.352 -0.7458  1.5639  0.9720
  227MOL0     H30586   7.470   2.644   9.324  0.4418 -3.6102  3.3987
  227MOL0     H30587   7.557   2.664   9.167  0.6384 -0.0235  0.6743
  227MOL0     H30588   7.437   2.419   9.117  1.4646  0.4296  0.7983
  227MOL0     H30589   7.332   2.475   9.256 -0.9983  2.9120  0.5429
  227MOL0     H30590   7.275   2.687   9.136 -1.6574 -0.1104 -0.2013
  227MOL0     H30591   7.365   2.635   8.998 -1.5024  0.6862  0.4869
  227MOL0     H30592   7.214   2.418   8.997  0.3785  0.8483  0.8993
  227MOL0     H30593   7.124   2.502   9.132 -1.1624 -0.2853  0.6140
  227MOL0     H30594   7.169   2.572   8.837 -2.9693 -0.2911  0.1660
  227MOL0     H30595   7.151   2.702   8.950  0.6299  0.2033  0.1042
  227MOL0     H30596   6.914   2.508   9.124  0.2260 -0.6561 -0.8133
  227MOL0     H30597   6.632   2.528   9.118  1.3575  0.0341  2.5936
  227MOL0     H30598   6.696   2.678   9.183 -1.8282  0.1203  0.5007
  227MOL0     H30599   6.592   2.806   8.985  0.5875  0.7849  1.6208
  227MOL0     H30600   6.469   2.750   9.093 -1.7964  1.3911 -3.1470
  227MOL0     H30601   6.474   2.524   8.941  1.3547  0.7656  0.7333
  227MOL0     H30602   6.534   2.633   8.824 -0.5049 -1.3573 -0.3801
  227MOL0     H30603   6.281   2.600   8.809  0.2439  1.8646 -1.2960
  227MOL0     H30604   6.325   2.770   8.844 -1.2091 -0.4894 -1.2142
  227MOL0     H30605   6.153   2.414   9.044 -1.4833 -0.2162  0.5602
  227MOL0     H30606   5.843   2.296   9.141 -0.2589 -0.5221  0.3442
  227MOL0     H30607   5.900   2.244   8.983 -1.7458  0.6447  0.7518
  227MOL0     H30608   6.016   2.260   9.107  0.5928  0.6686 -0.3860
  227MOL0     H30609   5.472   2.467   9.196  0.7229 -2.7587 -1.8489
  227MOL0     H30610   5.237   2.433   9.197 -0.7205  1.1140  1.6644
  227MOL0     H30611   5.094   2.314   8.980 -0.3526  0.1622 -0.5288
  227MOL0     H30612   5.031   2.351   9.135 -0.1838 -1.9554 -0.3839
  227MOL0     H30613   4.880   2.384   8.877 -2.1173  1.3269  0.2368
  227MOL0     H30614   4.878   2.235   8.969 -1.1859 -0.1513  1.2276
  227MOL0     H30615   4.685   2.362   9.008  1.7171 -0.2151 -1.9766
  227MOL0     H30616   4.774   2.513   9.050 -1.0817  0.2710  1.3389
  227MOL0     H30617   4.733   2.245   9.197  2.0276 -0.8709  1.6070
  227MOL0     H30618   4.861   2.349   9.247  0.6096  0.7510 -1.3711
  227MOL0     H30619   4.626   2.509   9.238 -0.0422  0.1948  0.4127
  227MOL0     H30620   4.749   2.511   9.357 -1.2826  0.2120  0.3341
  227MOL0     H30621   4.574   2.271   9.336 -0.7664 -0.0282 -0.3653
  227MOL0     H30622   4.694   2.309   9.460 -1.4813 -2.5948  0.4124
  227MOL0     H30623   4.547   2.524   9.509 -0.1419  0.2658  0.9299
  227MOL0     H30624   4.495   2.367   9.564  2.4563 -1.7835  0.0890
  227MOL0     H30625   4.400   2.465   9.285 -2.7282 -2.9650 -1.0064
  227MOL0     H30626   4.329   2.532   9.430 -0.7011  1.0526 -2.2644
  227MOL0     H30627   5.197   2.638   8.825  0.4947  1.6627  0.1124
  227MOL0     H30628   5.453   2.663   8.813 -0.0353  0.1224 -0.5754
  227MOL0     H30629   5.799   2.747   8.957 -2.4789 -2.5955  0.6117
  227MOL0     H30630   6.024   2.821   8.963  0.4040 -0.0971  0.0923
  227MOL0     H30631   7.840   2.139   9.403  1.4732 -0.1250 -1.2559
  227MOL0     H30632   8.016   1.968   9.495  2.8929  0.5636  0.2985
  227MOL0     H30633   8.289   1.834   9.755 -0.2634 -3.2861  3.3892
  227MOL0     H30634   8.452   1.665   9.834 -3.5469  1.0089  1.3163
  227MOL0     H30635   8.894   1.598   9.827  0.6991 -0.0476 -1.4133
  227MOL0     H30636   8.881   1.763   9.752  1.7017  2.0303  1.8930
  227MOL0     H30637   8.838   1.705  10.048 -1.5817  1.8631 -0.9551
  227MOL0     H30638   8.896   1.856   9.982  0.6994  0.7285  2.4122
  227MOL0     H30639   9.086   1.775  10.099  2.5453 -0.2852 -0.5829
  227MOL0     H30640   9.123   1.755   9.938  1.3681 -1.4697  0.6743
  227MOL0     H30641   9.129   1.516   9.966 -1.6460 -0.6811 -0.8447
  227MOL0     H30642   8.996   1.535  10.084  1.3629 -1.3894 -0.1559
  227MOL0     H30643   9.332   1.458  10.301  1.1571  2.2203  0.1769
  227MOL0     H30644   8.763   1.952   9.791  0.3324 -0.2328 -4.5858
  227MOL0     H30645   8.603   2.117   9.733  1.5164 -0.1680  4.4123
  228MOL0     O30646   8.213   3.611   3.261  0.1407  0.1582  0.0030
  228MOL0     C30647   8.182   3.494   3.287  1.2913 -0.7250  0.5021
  228MOL0     O30648   8.077   3.460   3.361 -0.1627  0.5490 -0.4571
  228MOL0     C30649   7.976   3.555   3.379  0.4766 -0.1314 -0.0359
  228MOL0     C30650   7.887   3.543   3.489 -0.1286  0.5734 -0.1628
  228MOL0     C30651   7.784   3.638   3.514  0.2044  0.2364  0.1385
  228MOL0     C30652   7.770   3.747   3.432 -0.0038 -0.4662  1.5366
  228MOL0     O30653   7.684   3.856   3.452 -0.5765  0.2170  0.0912
  228MOL0     C30654   7.577   3.833   3.535  0.2035  0.7060  0.0304
  228MOL0     C30655   7.467   3.921   3.485  0.3452 -0.7941 -0.4979
  228MOL0     C30656   7.340   3.901   3.556  0.3341  0.6561 -0.6641
  228MOL0     C30657   7.220   3.973   3.492 -0.0380  0.6665 -0.8329
  228MOL0     C30658   7.087   3.927   3.559 -0.6660  0.6726  0.4062
  228MOL0     C30659   6.987   4.005   3.488  1.0732  0.0518  0.0438
  228MOL0     C30660   6.838   3.955   3.509  0.8510 -0.2737  0.0718
  228MOL0     C30661   6.800   3.825   3.442  0.9928 -0.5498  0.3718
  228MOL0     N30662   6.662   3.790   3.479 -0.7774  1.4019  0.8138
  228MOL0     C30663   6.553   3.855   3.426  0.5203 -0.3090  0.0271
  228MOL0     C30664   6.449   3.783   3.469  0.3446  0.4553 -0.7045
  228MOL0     C30665   6.303   3.812   3.449 -0.7458 -1.2877 -0.3702
  228MOL0     C30666   6.248   3.862   3.579  0.3377  0.3208 -0.0665
  228MOL0     C30667   6.114   3.905   3.559  1.1590 -0.0148 -0.1072
  228MOL0     C30668   6.062   3.970   3.691 -0.2818  0.7975 -0.2944
  228MOL0     O30669   6.037   3.869   3.793  0.0743 -0.1514 -0.8880
  228MOL0     C30670   5.912   3.811   3.793 -0.1854 -0.6464  0.1313
  228MOL0     C30671   5.807   3.845   3.710 -0.4385  0.2643 -0.3417
  228MOL0     C30672   5.684   3.778   3.712  0.9284  0.4640  0.1963
  228MOL0     C30673   5.585   3.802   3.599  0.1682 -0.1956 -0.5276
  228MOL0     C30674   5.658   3.695   3.821  0.4356  0.3738 -0.0338
  228MOL0     C30675   5.524   3.637   3.844 -0.5848  0.2984 -0.4503
  228MOL0     O30676   5.413   3.702   3.796  0.0432 -0.2945 -0.4362
  228MOL0     C30677   5.282   3.665   3.830 -0.6285  0.5342 -1.0541
  228MOL0     C30678   5.190   3.745   3.759  0.3076  0.4843 -0.5474
  228MOL0     C30679   5.052   3.740   3.791  0.0457  1.1302 -0.1575
  228MOL0     C30680   5.012   3.659   3.890  0.1300 -0.1179 -0.7388
  228MOL0     O30681   4.875   3.666   3.920 -0.7017 -0.0616 -0.6963
  228MOL0     C30682   4.816   3.563   3.995  0.4556 -0.7226 -0.0543
  228MOL0     C30683   4.669   3.606   4.021 -0.4922  0.2918  0.6615
  228MOL0     C30684   4.610   3.495   4.110  0.9850  0.1777 -0.1825
  228MOL0     C30685   4.464   3.546   4.153  0.2167 -0.4342  0.3805
  228MOL0     C30686   4.393   3.444   4.243 -0.1176  0.1689 -0.1750
  228MOL0     C30687   4.368   3.302   4.169  0.7017  0.4232 -0.4551
  228MOL0     C30688   4.284   3.208   4.257 -0.0717  0.2131 -0.0382
  228MOL0     C30689   4.255   3.081   4.176 -0.3244 -0.7661  0.1757
  228MOL0    Cl30690   4.162   2.971   4.282 -0.7853 -0.3576  0.1508
  228MOL0     C30691   5.106   3.593   3.973  0.2699 -0.3148 -0.2777
  228MOL0     C30692   5.235   3.589   3.941 -0.3680  0.2118  0.4213
  228MOL0     O30693   5.525   3.519   3.873 -0.1647  0.3590 -0.4372
  228MOL0     C30694   5.756   3.664   3.922 -1.2338 -0.0723 -0.2705
  228MOL0     C30695   5.888   3.720   3.900  1.2495 -0.2666 -0.2118
  228MOL0     N30696   6.502   3.683   3.551  0.5507  0.1365 -0.2666
  228MOL0     N30697   6.628   3.679   3.549  0.1115  0.0837  0.0892
  228MOL0     C30698   7.848   3.745   3.310  0.0791  0.1454 -0.6147
  228MOL0     C30699   7.937   3.644   3.279  0.5244  0.3753 -0.5176
  228MOL0     C30700   8.275   3.395   3.243  0.1043 -1.3197 -0.7568
  228MOL0     C30701   8.245   3.256   3.244 -0.0649 -0.3070 -1.0478
  228MOL0     C30702   8.344   3.158   3.214  0.2670 -0.2684 -0.2161
  228MOL0     C30703   8.467   3.200   3.162 -1.1723 -0.5834 -0.5798
  228MOL0     O30704   8.561   3.098   3.141 -0.0586  0.3301  0.2997
  228MOL0     C30705   8.683   3.116   3.074 -1.9215 -0.3578 -0.3002
  228MOL0     C30706   8.657   3.129   2.924  0.7129 -0.3307 -0.5448
  228MOL0     C30707   8.788   3.146   2.844 -0.2695  0.4578  0.3928
  228MOL0     C30708   8.870   3.012   2.838  0.7640 -0.5658  0.3255
  228MOL0     C30709   9.001   3.013   2.774 -0.4721 -0.4677 -0.0039
  228MOL0     C30710   9.101   3.023   2.713 -0.1073 -0.6919  0.1007
  228MOL0     C30711   8.498   3.336   3.152  0.6615  0.3149  1.0398
  228MOL0     C30712   8.403   3.433   3.197  0.0523 -0.1470 -0.4799
  228MOL0     H30713   7.890   3.466   3.566 -1.5861 -0.8763 -1.4515
  228MOL0     H30714   7.723   3.631   3.604  1.2784  1.1749  0.9632
  228MOL0     H30715   7.537   3.733   3.516  0.1422  0.9494 -1.2273
  228MOL0     H30716   7.610   3.839   3.639 -0.4074 -0.4867  0.3151
  228MOL0     H30717   7.504   4.024   3.478  0.6502 -0.9847 -2.6384
  228MOL0     H30718   7.444   3.896   3.381  3.1988 -1.2747 -1.1138
  228MOL0     H30719   7.318   3.794   3.569 -1.3110  1.0870  0.4655
  228MOL0     H30720   7.352   3.940   3.658 -2.5941  2.1092 -0.7617
  228MOL0     H30721   7.240   4.078   3.516  1.3932  0.2338  0.0051
  228MOL0     H30722   7.214   3.969   3.383  0.2453  2.5510 -0.9550
  228MOL0     H30723   7.069   3.820   3.545 -1.4529  1.0416 -1.8796
  228MOL0     H30724   7.077   3.952   3.665  1.1606 -1.5040  1.1749
  228MOL0     H30725   6.998   4.105   3.532  2.5927 -1.1021  2.5153
  228MOL0     H30726   6.998   4.009   3.379 -2.5590 -1.1526 -0.4977
  228MOL0     H30727   6.827   3.944   3.618 -1.1318 -2.1109 -0.2589
  228MOL0     H30728   6.770   4.033   3.473 -0.4369  0.5654  3.8349
  228MOL0     H30729   6.862   3.741   3.475 -0.5603 -1.8170  0.1796
  228MOL0     H30730   6.806   3.839   3.333 -2.1218 -0.5796  0.1188
  228MOL0     H30731   6.555   3.949   3.373 -0.2830 -0.5377 -0.4281
  228MOL0     H30732   6.299   3.893   3.376  2.5521  1.4716  2.1502
  228MOL0     H30733   6.239   3.732   3.411 -4.0978  0.3176  1.5182
  228MOL0     H30734   6.306   3.944   3.621  0.9178  1.4871 -2.9019
  228MOL0     H30735   6.249   3.782   3.654  1.2430  3.1176  3.1460
  228MOL0     H30736   6.041   3.829   3.531 -0.9772  1.7496  0.3148
  228MOL0     H30737   6.090   3.974   3.477 -0.8461 -0.7605 -0.1969
  228MOL0     H30738   5.987   4.045   3.665  0.0827  0.9294 -0.9891
  228MOL0     H30739   6.143   4.023   3.742  1.7166 -2.3658  0.1618
  228MOL0     H30740   5.821   3.913   3.626  0.4838 -0.0880 -0.4868
  228MOL0     H30741   5.531   3.713   3.565 -0.4445 -0.3174  0.7332
  228MOL0     H30742   5.518   3.884   3.628 -0.0593 -0.5449 -0.0559
  228MOL0     H30743   5.636   3.839   3.509 -0.8791  0.7251 -0.7592
  228MOL0     H30744   5.233   3.814   3.688  2.0437 -1.1059 -1.1110
  228MOL0     H30745   4.974   3.805   3.753 -1.1449  0.7008  1.4626
  228MOL0     H30746   4.824   3.465   3.948  2.0759 -1.9246  2.5036
  228MOL0     H30747   4.861   3.563   4.095 -0.7162  0.4172  0.5151
  228MOL0     H30748   4.660   3.702   4.073 -1.1576  0.7737 -0.3143
  228MOL0     H30749   4.608   3.623   3.932  1.2911  0.6232 -0.5384
  228MOL0     H30750   4.666   3.474   4.202 -0.0808  0.0854  0.4742
  228MOL0     H30751   4.606   3.403   4.053 -0.7202  0.3388 -0.3802
  228MOL0     H30752   4.471   3.640   4.208  1.0434 -1.2373  1.7093
  228MOL0     H30753   4.398   3.567   4.069  1.9188  4.0097 -0.1324
  228MOL0     H30754   4.291   3.483   4.253 -0.1919  0.3260 -1.3519
  228MOL0     H30755   4.444   3.441   4.339 -0.8578 -0.1053  0.2223
  228MOL0     H30756   4.308   3.327   4.081 -0.6279  1.3588  0.6644
  228MOL0     H30757   4.464   3.256   4.142 -0.4298 -2.6025  0.1893
  228MOL0     H30758   4.188   3.254   4.282 -0.0018  0.2830  0.0989
  228MOL0     H30759   4.335   3.179   4.349 -0.0736  1.2014  0.2809
  228MOL0     H30760   4.352   3.035   4.154 -0.8199 -2.3211  1.0588
  228MOL0     H30761   4.199   3.106   4.087 -1.8540 -0.6965  1.1256
  228MOL0     H30762   5.070   3.537   4.058 -0.2631  1.5280  0.7729
  228MOL0     H30763   5.313   3.537   3.995 -0.5808  1.6862  2.2705
  228MOL0     H30764   5.744   3.585   3.995 -1.6017 -1.1248 -1.4333
  228MOL0     H30765   5.962   3.699   3.976  0.7415 -3.1190 -0.3686
  228MOL0     H30766   7.823   3.827   3.244  0.6607 -0.9395 -2.2670
  228MOL0     H30767   7.983   3.649   3.181  1.0778 -0.6262 -0.3196
  228MOL0     H30768   8.149   3.222   3.279  1.5876 -2.0872  2.1617
  228MOL0     H30769   8.326   3.052   3.224  2.4356 -0.5326  1.4632
  228MOL0     H30770   8.740   3.198   3.120 -1.7726 -1.4580  1.5317
  228MOL0     H30771   8.738   3.027   3.106  0.0107  0.2807 -1.6190
  228MOL0     H30772   8.578   3.202   2.902 -2.7113 -3.3665  0.6841
  228MOL0     H30773   8.612   3.032   2.902 -0.6620  0.0750  0.3838
  228MOL0     H30774   8.844   3.233   2.878  1.2204 -0.2775 -0.1164
  228MOL0     H30775   8.754   3.174   2.744 -2.6999  2.1934  1.5980
  228MOL0     H30776   8.814   2.940   2.777  1.5254 -1.4572  0.6518
  228MOL0     H30777   8.890   2.965   2.935 -1.6955  0.2844  1.3121
  228MOL0     H30778   9.197   3.041   2.671 -0.4106  0.6449 -0.0680
  228MOL0     H30779   8.587   3.382   3.111 -0.5431 -0.1063 -2.3846
  228MOL0     H30780   8.417   3.539   3.177 -1.3765  0.0688 -0.4256
  229MOL0     O30781   4.472   0.040   0.386  0.2822 -0.5522  0.4441
  229MOL0     C30782   4.425  -0.051   0.324  0.6684  0.5616 -0.3437
  229MOL0     O30783   4.296  -0.101   0.329  0.2505 -0.5647 -0.5871
  229MOL0     C30784   4.212  -0.057   0.430 -0.8275  0.4784 -0.7625
  229MOL0     C30785   4.169  -0.143   0.530  0.3206 -0.4153  0.2212
  229MOL0     C30786   4.098  -0.095   0.636  0.4907  0.0697  0.2302
  229MOL0     C30787   4.056   0.039   0.639  0.1603  0.7064 -0.0891
  229MOL0     O30788   3.970   0.099   0.734  0.4497 -0.4806  0.9254
  229MOL0     C30789   3.891   0.024   0.822 -0.2281 -0.7588  0.2070
  229MOL0     C30790   3.819   0.119   0.917  0.4663  0.3412  0.8834
  229MOL0     C30791   3.728   0.044   1.005 -0.8803 -0.6099 -0.3196
  229MOL0     C30792   3.609  -0.021   0.931 -1.0034  0.6754 -0.0899
  229MOL0     C30793   3.487   0.065   0.963  1.3364  0.4809 -0.2871
  229MOL0     C30794   3.351   0.007   0.909  0.6477  0.1066  0.7014
  229MOL0     C30795   3.291  -0.116   0.990 -0.3560  0.6793 -0.2245
  229MOL0     C30796   3.166  -0.170   0.919  0.5650  0.4963  1.0994
  229MOL0     N30797   3.111  -0.275   1.002  0.5065  0.3996 -0.7790
  229MOL0     C30798   3.042  -0.252   1.120 -0.1912  0.3459  0.0467
  229MOL0     C30799   3.024  -0.376   1.171 -0.5511  0.8551 -0.6970
  229MOL0     C30800   2.949  -0.407   1.301  0.0110  0.4706  0.1336
  229MOL0     C30801   2.798  -0.447   1.288 -0.1709 -0.3632  0.1646
  229MOL0     C30802   2.750  -0.489   1.427 -0.7137  0.4518  0.6812
  229MOL0     C30803   2.608  -0.546   1.438  0.0378 -0.4772 -0.4076
  229MOL0     O30804   2.520  -0.433   1.437  0.9093  0.3823 -0.0792
  229MOL0     C30805   2.426  -0.420   1.538 -0.1260 -1.1406 -0.0062
  229MOL0     C30806   2.299  -0.468   1.506  0.3175  0.3529  0.6305
  229MOL0     C30807   2.188  -0.474   1.593 -0.0546 -0.1916  0.0264
  229MOL0     C30808   2.059  -0.535   1.536  0.0384 -0.5665 -0.1085
  229MOL0     C30809   2.204  -0.416   1.718 -0.0597 -0.1333 -1.5202
  229MOL0     C30810   2.098  -0.400   1.819  0.2558 -0.8068 -0.3057
  229MOL0     O30811   2.133  -0.385   1.951 -0.0153 -0.2214 -0.3273
  229MOL0     C30812   2.032  -0.349   2.040  0.1465 -0.0355  0.4915
  229MOL0     C30813   1.975  -0.222   2.046 -0.0593 -0.7574 -0.3465
  229MOL0     C30814   1.878  -0.186   2.140  0.2596  0.7919  0.0371
  229MOL0     C30815   1.827  -0.286   2.224  0.1445 -0.2806  0.2805
  229MOL0     O30816   1.722  -0.255   2.307  0.0727 -0.1765 -0.4126
  229MOL0     C30817   1.738  -0.284   2.449  0.2277  0.5693  0.4878
  229MOL0     C30818   1.597  -0.261   2.520 -0.2428  0.2653 -0.1074
  229MOL0     C30819   1.495  -0.365   2.464  0.6393  0.8279 -0.7476
  229MOL0     C30820   1.466  -0.480   2.568 -0.4749 -0.2112  0.4488
  229MOL0     C30821   1.415  -0.597   2.482  0.3820 -1.3199  1.2877
  229MOL0     C30822   1.357  -0.706   2.569  0.6428 -0.2316  0.3881
  229MOL0     C30823   1.302  -0.827   2.489  0.1054 -0.6949 -0.8949
  229MOL0     C30824   1.294  -0.945   2.587  0.2460  0.6097  0.1068
  229MOL0    Cl30825   1.452  -1.001   2.640  0.0065  0.1160  0.1340
  229MOL0     C30826   1.891  -0.420   2.225  0.2340 -1.1453  0.2506
  229MOL0     C30827   1.994  -0.446   2.133 -0.0743  0.2702  0.3604
  229MOL0     O30828   1.980  -0.412   1.779 -0.2974  0.0161 -0.2001
  229MOL0     C30829   2.336  -0.379   1.758  0.3608  0.1572  0.0405
  229MOL0     C30830   2.440  -0.382   1.670 -0.3357  0.3337 -0.4646
  229MOL0     N30831   3.087  -0.472   1.091 -0.2763  0.3186 -0.0874
  229MOL0     N30832   3.156  -0.402   1.005  0.2413  0.5388 -0.1339
  229MOL0     C30833   4.098   0.122   0.538 -0.4700 -0.5171  0.2250
  229MOL0     C30834   4.171   0.075   0.436 -0.0652  0.3541  0.6606
  229MOL0     C30835   4.516  -0.120   0.230 -1.0010  0.1703  0.3172
  229MOL0     C30836   4.467  -0.201   0.128  0.4056  0.2692  0.4040
  229MOL0     C30837   4.549  -0.277   0.043 -0.0852 -0.7835  0.5867
  229MOL0     C30838   4.692  -0.260   0.053 -0.3073 -0.6823 -0.3405
  229MOL0     O30839   4.792  -0.310  -0.031 -0.2668  0.1216 -0.3975
  229MOL0     C30840   4.741  -0.399  -0.121 -0.0516  0.7402  0.0681
  229MOL0     C30841   4.714  -0.536  -0.056 -0.4974  0.9066  0.1344
  229MOL0     C30842   4.760  -0.657  -0.137  0.1967  0.3983 -0.4770
  229MOL0     C30843   4.755  -0.782  -0.043 -0.6947 -0.2066  0.3945
  229MOL0     C30844   4.819  -0.896  -0.112  0.2271 -0.0729 -0.0616
  229MOL0     C30845   4.866  -1.000  -0.153  0.7246  0.5514 -0.0235
  229MOL0     C30846   4.740  -0.169   0.155 -0.6614 -0.7943 -0.2799
  229MOL0     C30847   4.657  -0.106   0.246  0.2591  0.5818 -1.1535
  229MOL0     H30848   4.189  -0.249   0.532 -3.5583 -1.2689  1.0953
  229MOL0     H30849   4.077  -0.158   0.721 -0.2026  0.4339  0.3404
  229MOL0     H30850   3.820  -0.029   0.757 -1.3571  0.8327  0.0805
  229MOL0     H30851   3.949  -0.047   0.882  2.3914  0.2502 -0.9833
  229MOL0     H30852   3.893   0.174   0.975 -0.6975  3.6576 -0.5211
  229MOL0     H30853   3.769   0.197   0.859  0.4157 -1.3469 -1.5077
  229MOL0     H30854   3.786  -0.034   1.054 -1.7419 -1.2146 -0.2392
  229MOL0     H30855   3.673   0.109   1.074  0.5673 -0.7657  1.0203
  229MOL0     H30856   3.617  -0.035   0.823 -2.3628 -0.9149 -0.0276
  229MOL0     H30857   3.584  -0.121   0.968 -1.3889  1.4120  1.7769
  229MOL0     H30858   3.471   0.079   1.071  0.2228 -1.5371 -0.1351
  229MOL0     H30859   3.515   0.160   0.918  2.2525  0.8303  0.9584
  229MOL0     H30860   3.283   0.093   0.911  1.2739  0.9574 -3.7546
  229MOL0     H30861   3.368  -0.013   0.803 -3.7237  2.1213 -0.6171
  229MOL0     H30862   3.366  -0.194   1.006 -0.8508  0.1787 -0.3182
  229MOL0     H30863   3.267  -0.081   1.091  0.6983 -0.3614  0.4129
  229MOL0     H30864   3.185  -0.208   0.818  1.6094 -1.2241  1.9135
  229MOL0     H30865   3.101  -0.082   0.917  0.8916  0.7444  1.3432
  229MOL0     H30866   3.005  -0.157   1.156  1.3797 -0.0449  2.9957
  229MOL0     H30867   3.000  -0.493   1.346  1.4631  0.6818 -1.0438
  229MOL0     H30868   2.958  -0.332   1.380  0.2227  0.2984  0.2761
  229MOL0     H30869   2.785  -0.524   1.212 -1.9297  0.7409 -0.7385
  229MOL0     H30870   2.740  -0.360   1.256 -0.7571 -0.7082  0.2643
  229MOL0     H30871   2.764  -0.406   1.497 -3.2757 -0.7483  2.7637
  229MOL0     H30872   2.826  -0.562   1.457  0.8200  1.5145 -0.4204
  229MOL0     H30873   2.585  -0.594   1.534  1.6453  0.5386  0.5321
  229MOL0     H30874   2.597  -0.618   1.357  2.2253  0.6975 -1.8201
  229MOL0     H30875   2.276  -0.502   1.406 -0.6599  1.8971  0.2862
  229MOL0     H30876   2.079  -0.570   1.434  0.7313 -1.0723  0.1859
  229MOL0     H30877   2.031  -0.620   1.599  1.0701  0.8124  2.3313
  229MOL0     H30878   1.974  -0.467   1.537  1.8150  1.8024 -0.2498
  229MOL0     H30879   2.018  -0.142   1.987  1.0869 -0.0707  1.3348
  229MOL0     H30880   1.840  -0.085   2.156 -2.0175 -0.1762  1.2327
  229MOL0     H30881   1.766  -0.388   2.464 -0.0962  0.4022 -0.0461
  229MOL0     H30882   1.812  -0.226   2.505 -0.1400  0.1803  1.4054
  229MOL0     H30883   1.611  -0.276   2.627  0.6386 -0.0418 -0.2595
  229MOL0     H30884   1.558  -0.161   2.497  0.1424  0.5142  0.2990
  229MOL0     H30885   1.525  -0.414   2.371 -0.1383  1.1929 -1.1925
  229MOL0     H30886   1.405  -0.307   2.444  0.5780  0.8292 -0.4776
  229MOL0     H30887   1.556  -0.510   2.622 -0.5432  0.7657  1.1498
  229MOL0     H30888   1.401  -0.445   2.649  2.1047  1.6039  1.8982
  229MOL0     H30889   1.488  -0.636   2.411 -1.1161 -1.3602 -0.2964
  229MOL0     H30890   1.338  -0.552   2.419  1.0976  0.2987  1.5138
  229MOL0     H30891   1.450  -0.740   2.616  1.8517 -0.0756 -1.7806
  229MOL0     H30892   1.278  -0.669   2.635  0.5366 -0.6644  0.5021
  229MOL0     H30893   1.379  -0.843   2.413  0.2287  1.3060 -1.2320
  229MOL0     H30894   1.211  -0.790   2.442  0.9657  0.2900 -1.8409
  229MOL0     H30895   1.243  -1.025   2.532 -1.9905  0.0920  2.6783
  229MOL0     H30896   1.234  -0.925   2.676 -1.9522 -0.9234 -0.9364
  229MOL0     H30897   1.855  -0.503   2.286  0.2244 -2.9501 -2.0484
  229MOL0     H30898   2.047  -0.541   2.130  1.8814  1.1992  2.1921
  229MOL0     H30899   2.368  -0.343   1.856  1.5367  2.4949 -1.1046
  229MOL0     H30900   2.537  -0.359   1.714 -0.8244 -2.8913  2.7962
  229MOL0     H30901   4.077   0.228   0.540  1.2231 -0.1496  0.0583
  229MOL0     H30902   4.208   0.141   0.357 -0.5805 -0.8141 -0.6024
  229MOL0     H30903   4.361  -0.211   0.109  0.4572  1.6737 -0.7754
  229MOL0     H30904   4.493  -0.328  -0.035  0.2042 -1.5309  0.8609
  229MOL0     H30905   4.659  -0.349  -0.173 -0.8882  1.5482  2.0664
  229MOL0     H30906   4.822  -0.420  -0.192  0.3953 -3.2443  1.4906
  229MOL0     H30907   4.610  -0.546  -0.026 -0.5492 -0.7140 -0.4671
  229MOL0     H30908   4.790  -0.544   0.022  0.8983 -1.6774 -1.3512
  229MOL0     H30909   4.864  -0.644  -0.165  0.2426  0.3685 -0.3257
  229MOL0     H30910   4.698  -0.668  -0.227 -0.0428 -0.7363 -0.1946
  229MOL0     H30911   4.652  -0.805  -0.015 -1.2997 -0.1244 -1.6296
  229MOL0     H30912   4.808  -0.761   0.051 -0.2427 -4.7603  1.3682
  229MOL0     H30913   4.901  -1.088  -0.203 -0.3171  0.8989 -1.4404
  229MOL0     H30914   4.844  -0.154   0.178 -1.2299  0.7476  1.5447
  229MOL0     H30915   4.701  -0.061   0.334 -0.2354 -0.4571 -0.3549
  230MOL0     O30916   3.383  10.914   4.893  0.5616 -0.1384  0.3320
  230MOL0     C30917   3.359  10.954   5.005  0.2503 -0.0491 -0.2178
  230MOL0     O30918   3.238  10.997   5.057 -0.4431  0.5497 -0.2136
  230MOL0     C30919   3.128  11.004   4.964 -0.6418  0.1344  0.0563
  230MOL0     C30920   3.088  11.131   4.910  0.5108  0.6707 -0.2782
  230MOL0     C30921   2.972  11.142   4.829 -0.0081  0.0044  0.6343
  230MOL0     C30922   2.903  11.023   4.795 -0.0675 -0.2784 -0.3362
  230MOL0     O30923   2.795  11.029   4.711 -0.9337 -0.1234 -0.3781
  230MOL0     C30924   2.725  10.916   4.669  0.6184 -0.6073 -0.6148
  230MOL0     C30925   2.669  10.960   4.533 -0.7180 -0.1156 -0.3340
  230MOL0     C30926   2.526  10.928   4.511  0.1794 -0.4015  0.1226
  230MOL0     C30927   2.434  11.021   4.590 -0.1535 -0.3316  1.1322
  230MOL0     C30928   2.288  11.034   4.533  0.5646 -0.0862 -0.4899
  230MOL0     C30929   2.287  11.136   4.425 -0.0806  0.2801  0.9526
  230MOL0     C30930   2.156  11.152   4.355  0.5833  0.4606  0.9122
  230MOL0     C30931   2.068  11.258   4.425  0.1737  0.7452 -0.4027
  230MOL0     N30932   1.944  11.282   4.354  0.0796  0.2153 -0.6272
  230MOL0     C30933   1.931  11.356   4.238 -0.3962 -0.0473  0.4875
  230MOL0     C30934   1.799  11.340   4.204 -0.4652  0.1493  0.0367
  230MOL0     C30935   1.737  11.387   4.078 -0.0615 -0.4961 -0.4001
  230MOL0     C30936   1.720  11.542   4.083 -0.0937 -0.1092 -0.3544
  230MOL0     C30937   1.635  11.603   3.970 -0.1273  0.1976 -0.7508
  230MOL0     C30938   1.592  11.743   4.020  0.1939 -0.1733  0.5062
  230MOL0     O30939   1.548  11.818   3.907 -0.2106  0.5241  0.7403
  230MOL0     C30940   1.436  11.785   3.839 -0.3401 -1.3906  0.0710
  230MOL0     C30941   1.444  11.805   3.699  0.5346 -0.5370 -0.2398
  230MOL0     C30942   1.328  11.784   3.623  0.1917  0.5820  0.1531
  230MOL0     C30943   1.344  11.811   3.474  0.0254  0.8919  0.2689
  230MOL0     C30944   1.212  11.715   3.684 -0.3132 -0.4167 -0.5092
  230MOL0     C30945   1.077  11.685   3.613 -0.0766  0.2309  0.0090
  230MOL0     O30946   1.054  11.711   3.480 -0.0116  0.6050  0.2710
  230MOL0     C30947   0.923  11.722   3.428 -0.0537  0.3226 -0.4860
  230MOL0     C30948   0.872  11.837   3.371 -0.6921  0.2648  0.3785
  230MOL0     C30949   0.744  11.846   3.326  0.1122 -0.1297 -0.5542
  230MOL0     C30950   0.651  11.742   3.345  0.5029 -0.8759 -1.0151
  230MOL0     O30951   0.526  11.771   3.311  0.7497  0.6376  0.3791
  230MOL0     C30952   0.429  11.664   3.313  0.2391  0.4329  0.1611
  230MOL0     C30953   0.313  11.699   3.221  0.3146 -0.1730 -0.2090
  230MOL0     C30954   0.198  11.607   3.230 -0.9747 -0.6693  0.4117
  230MOL0     C30955   0.091  11.647   3.329 -0.7894 -0.2267 -0.4134
  230MOL0     C30956  -0.035  11.564   3.294 -0.3392  0.7626 -0.1767
  230MOL0     C30957  -0.024  11.416   3.342  0.2181  0.3481 -0.5353
  230MOL0     C30958  -0.130  11.333   3.269 -0.5727 -0.5417 -0.0411
  230MOL0     C30959  -0.270  11.336   3.329  0.1871  0.6053 -0.3232
  230MOL0    Cl30960  -0.270  11.242   3.487 -0.3390  0.0034  0.3130
  230MOL0     C30961   0.701  11.625   3.398 -0.0615  0.4982  0.5186
  230MOL0     C30962   0.834  11.610   3.426  0.1125 -0.1216 -0.3805
  230MOL0     O30963   0.985  11.648   3.687 -0.0003  0.1382 -0.9123
  230MOL0     C30964   1.216  11.687   3.820  0.1244  0.3783 -0.6790
  230MOL0     C30965   1.325  11.730   3.893  0.8129 -0.7051 -0.1105
  230MOL0     N30966   1.750  11.240   4.292 -0.6760  0.1895  0.7382
  230MOL0     N30967   1.834  11.207   4.381 -0.4281  0.6446 -1.1155
  230MOL0     C30968   2.940  10.900   4.858 -0.0828  0.5435  0.1882
  230MOL0     C30969   3.056  10.896   4.938 -0.1754  0.1645  0.1480
  230MOL0     C30970   3.472  10.949   5.095 -0.6537  0.1613 -1.0636
  230MOL0     C30971   3.605  10.912   5.061 -0.9757 -0.1767 -0.0006
  230MOL0     C30972   3.708  10.904   5.160 -0.5695  0.0096  0.7519
  230MOL0     C30973   3.681  10.943   5.290  0.6388 -0.3017 -0.6842
  230MOL0     O30974   3.792  10.940   5.376 -0.1977 -0.2711 -0.6724
  230MOL0     C30975   3.763  10.986   5.507 -0.0459  0.5232  0.2933
  230MOL0     C30976   3.891  11.000   5.589  0.8406 -0.8366  0.7020
  230MOL0     C30977   3.960  11.128   5.536 -0.5827 -0.4776  0.0922
  230MOL0     C30978   4.074  11.170   5.629  0.0429  0.3644 -0.3952
  230MOL0     C30979   4.128  11.300   5.586 -0.2431  0.5465 -0.7312
  230MOL0     C30980   4.176  11.405   5.544 -0.5298 -0.1521  0.1212
  230MOL0     C30981   3.547  10.978   5.326 -0.2587 -0.6591  0.1595
  230MOL0     C30982   3.448  10.985   5.229  1.2083  0.5719 -0.0960
  230MOL0     H30983   3.134  11.223   4.943 -0.5626  0.6249  1.4572
  230MOL0     H30984   2.937  11.238   4.793 -0.2334 -0.9256 -1.7526
  230MOL0     H30985   2.790  10.828   4.665 -0.1729 -1.1966 -0.8786
  230MOL0     H30986   2.642  10.917   4.741  1.6558 -0.4237  0.6145
  230MOL0     H30987   2.688  11.064   4.507 -0.6237  0.2432  1.0995
  230MOL0     H30988   2.722  10.906   4.454 -0.0636 -1.1551  0.7755
  230MOL0     H30989   2.506  10.935   4.403  0.1579 -0.0862  0.1457
  230MOL0     H30990   2.494  10.825   4.529 -1.4718 -0.0535 -0.5627
  230MOL0     H30991   2.440  10.984   4.693  0.9447 -0.2903  1.0950
  230MOL0     H30992   2.472  11.124   4.589 -1.7197  0.2927 -0.7425
  230MOL0     H30993   2.256  10.936   4.496 -0.9283 -0.1280  0.7640
  230MOL0     H30994   2.224  11.067   4.616 -0.1395 -1.2466 -0.5494
  230MOL0     H30995   2.319  11.234   4.461 -1.1749  1.1492 -0.3640
  230MOL0     H30996   2.357  11.098   4.350  0.4659 -1.2549  2.1767
  230MOL0     H30997   2.183  11.191   4.256  0.7757  0.1771  0.8506
  230MOL0     H30998   2.105  11.059   4.328 -3.1108  2.9765 -1.9550
  230MOL0     H30999   2.131  11.347   4.438 -3.1556  3.0921  1.0269
  230MOL0     H31000   2.055  11.238   4.532  2.4805  2.6054  0.3346
  230MOL0     H31001   2.002  11.419   4.186 -0.1702 -0.4401  0.3135
  230MOL0     H31002   1.806  11.363   3.996  1.3770 -1.4212  1.0224
  230MOL0     H31003   1.640  11.337   4.071  0.6686 -2.2849  1.2030
  230MOL0     H31004   1.814  11.595   4.103  0.9024 -0.9628 -2.5119
  230MOL0     H31005   1.665  11.560   4.176 -3.0578  0.9139 -2.1612
  230MOL0     H31006   1.544  11.546   3.951 -0.2793  0.5792 -1.1730
  230MOL0     H31007   1.695  11.626   3.882 -4.9813  2.6325 -3.8245
  230MOL0     H31008   1.679  11.801   4.053  0.5673 -1.3756  1.7157
  230MOL0     H31009   1.523  11.737   4.104 -2.4143  2.2726 -1.2539
  230MOL0     H31010   1.536  11.845   3.656  1.2155 -3.1053 -1.3250
  230MOL0     H31011   1.446  11.823   3.438 -0.0071 -1.2208 -0.6665
  230MOL0     H31012   1.297  11.722   3.430  3.4307 -0.2748 -1.3344
  230MOL0     H31013   1.294  11.902   3.439 -0.2159  0.5643 -0.2585
  230MOL0     H31014   0.935  11.920   3.344  0.0065  0.6753  3.0022
  230MOL0     H31015   0.710  11.933   3.270  0.0615 -0.9495 -1.8279
  230MOL0     H31016   0.479  11.571   3.282  0.6578  0.3478  1.0696
  230MOL0     H31017   0.397  11.653   3.417  0.8320  2.4648  0.5995
  230MOL0     H31018   0.284  11.802   3.240 -0.8748 -0.2658 -1.3768
  230MOL0     H31019   0.355  11.694   3.120 -0.1434 -1.7038 -0.3476
  230MOL0     H31020   0.226  11.501   3.242 -2.3118 -1.8422 -4.4153
  230MOL0     H31021   0.152  11.620   3.131  0.6447 -1.5404 -0.5100
  230MOL0     H31022   0.118  11.636   3.434  1.3387 -2.2215 -1.0818
  230MOL0     H31023   0.065  11.752   3.308  2.0549  0.9872  1.4647
  230MOL0     H31024  -0.059  11.580   3.189 -2.5752  0.3306  0.1976
  230MOL0     H31025  -0.123  11.602   3.348 -2.0857  0.2455 -2.5032
  230MOL0     H31026   0.076  11.381   3.313  0.7257 -0.8423  2.3141
  230MOL0     H31027  -0.023  11.417   3.451  1.7547  0.2983 -0.5145
  230MOL0     H31028  -0.099  11.228   3.258  1.1010 -0.3863  2.2196
  230MOL0     H31029  -0.135  11.375   3.169 -0.6313  1.5291  0.7818
  230MOL0     H31030  -0.347  11.297   3.262 -0.1941  1.4389 -0.3759
  230MOL0     H31031  -0.298  11.440   3.349 -3.2296 -0.1971 -0.2826
  230MOL0     H31032   0.643  11.534   3.407 -1.2969  0.7014 -3.6057
  230MOL0     H31033   0.862  11.516   3.471 -1.5773  0.7949  2.8605
  230MOL0     H31034   1.142  11.631   3.877  1.8948  0.1816  1.5887
  230MOL0     H31035   1.307  11.716   3.999 -0.4706  0.1443 -0.1968
  230MOL0     H31036   2.872  10.815   4.855 -0.4761  0.7809  1.6829
  230MOL0     H31037   3.090  10.807   4.990 -1.3541 -1.1379 -1.2143
  230MOL0     H31038   3.634  10.891   4.959 -0.8259 -1.4954  0.2899
  230MOL0     H31039   3.811  10.872   5.148 -0.2543  1.2442 -0.0914
  230MOL0     H31040   3.718  11.085   5.493  0.7982  0.7593 -0.8556
  230MOL0     H31041   3.696  10.915   5.557  0.0878 -1.5602 -2.2927
  230MOL0     H31042   3.958  10.914   5.580 -0.8429 -1.9717 -2.6858
  230MOL0     H31043   3.868  11.024   5.694 -0.4183  0.3511  0.2023
  230MOL0     H31044   3.889  11.207   5.513  0.4191  0.4496  0.1151
  230MOL0     H31045   4.001  11.116   5.435 -0.9920  3.5249 -0.6807
  230MOL0     H31046   4.140  11.084   5.646 -2.9971 -1.5217  3.6247
  230MOL0     H31047   4.041  11.187   5.732  2.2867  1.5553  0.1985
  230MOL0     H31048   4.222  11.497   5.513  1.0081 -1.1522 -0.7028
  230MOL0     H31049   3.511  11.004   5.425  1.0255  2.3359 -0.0510
  230MOL0     H31050   3.353  11.027   5.262  0.1965  0.2756 -2.3971
  231MOL0     O31051   0.338   1.121   5.263 -0.5657  0.2457 -0.2558
  231MOL0     C31052   0.430   1.069   5.201  0.1119 -0.3496 -0.7023
  231MOL0     O31053   0.422   0.968   5.114  0.1810  0.1436  0.4598
  231MOL0     C31054   0.290   0.924   5.077  0.5145  0.2271 -0.1461
  231MOL0     C31055   0.240   0.811   5.143  0.1744  0.3032  0.0203
  231MOL0     C31056   0.105   0.771   5.140  0.7228  0.4883  0.2318
  231MOL0     C31057   0.010   0.840   5.054  0.8091  0.1116 -0.8850
  231MOL0     O31058  -0.132   0.818   5.037 -0.3145  0.6031 -0.8697
  231MOL0     C31059  -0.193   0.706   5.108  0.1770  0.6535  0.2241
  231MOL0     C31060  -0.302   0.646   5.036  0.4427  0.3521 -1.1468
  231MOL0     C31061  -0.427   0.606   5.115  0.0876 -0.8441  0.4177
  231MOL0     C31062  -0.537   0.558   5.016 -0.4121 -0.3587 -0.3441
  231MOL0     C31063  -0.662   0.509   5.099 -0.0523  0.5007 -0.0155
  231MOL0     C31064  -0.769   0.423   5.029 -0.6782 -0.1562  0.1822
  231MOL0     C31065  -0.836   0.480   4.901 -0.2796  0.8778 -0.1760
  231MOL0     C31066  -0.919   0.597   4.935  0.1200 -0.2969 -0.3252
  231MOL0     N31067  -1.017   0.644   4.836 -0.6759  0.5140  0.4239
  231MOL0     C31068  -1.151   0.633   4.839  0.2794  0.8900 -0.3364
  231MOL0     C31069  -1.190   0.674   4.719 -0.1127  0.2841  0.0464
  231MOL0     C31070  -1.331   0.678   4.681 -0.3950 -0.1355 -0.0049
  231MOL0     C31071  -1.417   0.727   4.803  0.3435  0.0181  0.8094
  231MOL0     C31072  -1.559   0.764   4.768  0.5951  0.2658 -0.8302
  231MOL0     C31073  -1.620   0.666   4.668 -0.2434 -0.1467 -0.0110
  231MOL0     O31074  -1.755   0.683   4.681  0.4158  0.4168  0.3446
  231MOL0     C31075  -1.837   0.650   4.588  0.6444 -0.8758  0.2079
  231MOL0     C31076  -1.813   0.560   4.480 -0.6395  1.0817 -0.3441
  231MOL0     C31077  -1.907   0.534   4.377 -0.4950 -0.1478 -0.1325
  231MOL0     C31078  -1.857   0.459   4.254 -0.3334 -0.3058 -0.4235
  231MOL0     C31079  -2.042   0.581   4.393  0.0805  0.0990  0.4066
  231MOL0     C31080  -2.159   0.561   4.299 -0.2344  0.3792  0.0710
  231MOL0     O31081  -2.273   0.637   4.319 -0.2024  0.6124  0.3839
  231MOL0     C31082  -2.401   0.583   4.287 -0.6875 -0.0285 -0.1001
  231MOL0     C31083  -2.494   0.687   4.311  0.9685 -0.2620 -0.2030
  231MOL0     C31084  -2.630   0.664   4.290  0.2670 -0.4244  1.1449
  231MOL0     C31085  -2.671   0.536   4.249 -0.3508  0.3929  0.2436
  231MOL0     O31086  -2.807   0.516   4.225 -0.1953 -0.0119 -0.4165
  231MOL0     C31087  -2.839   0.556   4.090  0.1018  0.4292 -0.0995
  231MOL0     C31088  -2.910   0.691   4.106 -0.1109 -0.0718  0.3797
  231MOL0     C31089  -3.037   0.695   4.202  0.1242 -0.4106  0.4157
  231MOL0     C31090  -3.152   0.612   4.136 -0.1606  0.2142 -0.3810
  231MOL0     C31091  -3.286   0.631   4.202  0.2312  0.3918 -0.6419
  231MOL0     C31092  -3.289   0.582   4.346  0.0035 -0.2492  0.1137
  231MOL0     C31093  -3.438   0.564   4.398  0.3638  0.5529  0.6949
  231MOL0     C31094  -3.444   0.624   4.535 -0.0934  0.4492  0.1298
  231MOL0    Cl31095  -3.337   0.553   4.658 -0.1084  0.1804  0.0424
  231MOL0     C31096  -2.580   0.427   4.242 -0.1974 -0.3715  0.4773
  231MOL0     C31097  -2.444   0.453   4.245  0.7152  0.7525  0.6496
  231MOL0     O31098  -2.148   0.474   4.211 -0.1246 -0.2851 -0.1612
  231MOL0     C31099  -2.067   0.670   4.500  0.4287 -0.9554 -0.2840
  231MOL0     C31100  -1.965   0.708   4.589 -0.0372  0.6308 -0.4813
  231MOL0     N31101  -1.080   0.719   4.655 -0.4052 -0.2457  0.6486
  231MOL0     N31102  -0.980   0.719   4.724 -0.5995  0.0032 -0.4696
  231MOL0     C31103   0.059   0.962   4.994  0.6176  0.8414 -0.3832
  231MOL0     C31104   0.197   0.991   4.998  0.0773  0.7967 -0.5520
  231MOL0     C31105   0.572   1.117   5.237  0.8353 -0.1607 -0.0679
  231MOL0     C31106   0.681   1.061   5.163 -0.7747  0.3556 -0.3764
  231MOL0     C31107   0.806   1.106   5.181  0.4930 -0.6507 -0.4714
  231MOL0     C31108   0.831   1.194   5.285 -0.2511  0.1873  0.3636
  231MOL0     O31109   0.959   1.234   5.310  0.0904 -0.9016 -0.6469
  231MOL0     C31110   1.071   1.139   5.284 -0.4256 -0.2186  0.6000
  231MOL0     C31111   1.174   1.145   5.400  0.2920 -0.2322 -0.9406
  231MOL0     C31112   1.237   1.279   5.409  0.3154 -0.0516  0.0894
  231MOL0     C31113   1.372   1.270   5.479 -0.5782  0.3819 -0.4187
  231MOL0     C31114   1.429   1.400   5.474  0.4968 -0.7163 -0.4624
  231MOL0     C31115   1.490   1.507   5.460  0.6313  0.0703  0.7098
  231MOL0     C31116   0.729   1.249   5.362 -1.2297 -0.8786  0.6840
  231MOL0     C31117   0.597   1.206   5.343 -0.2768  0.0792  0.2894
  231MOL0     H31118   0.303   0.750   5.206 -0.2805 -1.0703 -0.7961
  231MOL0     H31119   0.076   0.682   5.196  3.0551  0.3087  1.2808
  231MOL0     H31120  -0.115   0.630   5.124 -0.0191  0.0971 -1.3128
  231MOL0     H31121  -0.230   0.744   5.204  1.1047 -0.8087  1.2103
  231MOL0     H31122  -0.346   0.721   4.970 -1.3770  1.2306  0.9220
  231MOL0     H31123  -0.255   0.561   4.986 -0.9513 -0.7219 -0.6693
  231MOL0     H31124  -0.404   0.521   5.180 -2.6665 -0.9733  1.3458
  231MOL0     H31125  -0.468   0.688   5.174 -0.5429 -0.8992  0.0693
  231MOL0     H31126  -0.556   0.638   4.944  3.8908  0.1812 -1.1745
  231MOL0     H31127  -0.496   0.471   4.965  2.9945  1.3481 -0.8023
  231MOL0     H31128  -0.627   0.465   5.193  0.4156  3.6814  1.4224
  231MOL0     H31129  -0.713   0.598   5.135 -0.9552  1.0482 -2.4443
  231MOL0     H31130  -0.729   0.323   5.011 -2.5156 -0.8170 -0.4226
  231MOL0     H31131  -0.846   0.414   5.106 -0.7620  3.3790  0.6736
  231MOL0     H31132  -0.756   0.510   4.833  0.6987 -2.2545 -0.5324
  231MOL0     H31133  -0.901   0.410   4.848  1.0207 -0.2207 -0.3590
  231MOL0     H31134  -0.846   0.671   4.970 -1.1301  0.2422  1.2624
  231MOL0     H31135  -0.978   0.587   5.026  0.9390  2.9402  0.7022
  231MOL0     H31136  -1.218   0.596   4.916 -0.7711 -0.6699 -1.9069
  231MOL0     H31137  -1.339   0.721   4.581  2.2021  1.0675  0.2387
  231MOL0     H31138  -1.354   0.573   4.660  1.4934 -0.1632 -2.3879
  231MOL0     H31139  -1.365   0.809   4.853 -2.3874  0.5441  3.0348
  231MOL0     H31140  -1.412   0.643   4.874  1.5117  0.7507  1.6335
  231MOL0     H31141  -1.569   0.866   4.729 -2.4121 -0.2348 -1.6088
  231MOL0     H31142  -1.611   0.765   4.864  3.6805  3.9477  1.1031
  231MOL0     H31143  -1.594   0.564   4.696  2.5168  0.2188 -0.9062
  231MOL0     H31144  -1.580   0.701   4.573  0.7570 -0.5211  0.2597
  231MOL0     H31145  -1.723   0.502   4.496 -0.5733  0.7731 -1.6602
  231MOL0     H31146  -1.748   0.451   4.249 -0.2941  0.3649 -0.8059
  231MOL0     H31147  -1.903   0.361   4.244  1.6885 -1.6106  1.9257
  231MOL0     H31148  -1.875   0.525   4.168  3.4786  1.8971  0.2055
  231MOL0     H31149  -2.465   0.786   4.345  0.4421 -0.2180  0.1227
  231MOL0     H31150  -2.706   0.737   4.314  1.8973  1.3737  1.0901
  231MOL0     H31151  -2.750   0.571   4.028  0.7135 -1.4408  0.2698
  231MOL0     H31152  -2.901   0.483   4.036 -0.3718 -0.3027  1.3910
  231MOL0     H31153  -2.844   0.769   4.147 -0.5785 -0.4610  1.9492
  231MOL0     H31154  -2.943   0.723   4.007  0.9510 -0.7425 -0.1949
  231MOL0     H31155  -3.059   0.801   4.219  2.0002 -0.3099  2.5815
  231MOL0     H31156  -3.015   0.651   4.299 -0.9743 -1.6469  0.1335
  231MOL0     H31157  -3.163   0.650   4.034  2.6860 -0.1750 -0.9124
  231MOL0     H31158  -3.119   0.509   4.149 -1.3591 -0.1711 -0.3219
  231MOL0     H31159  -3.365   0.576   4.151  0.3817 -0.5607  0.1341
  231MOL0     H31160  -3.318   0.736   4.206 -0.9155  0.3288 -4.6162
  231MOL0     H31161  -3.251   0.482   4.367 -0.4293 -0.3148  0.5867
  231MOL0     H31162  -3.224   0.651   4.401  0.2558 -1.1158  0.9078
  231MOL0     H31163  -3.464   0.457   4.398 -1.5573  0.9632 -1.2447
  231MOL0     H31164  -3.514   0.610   4.335 -1.6998 -1.5670  1.4896
  231MOL0     H31165  -3.549   0.616   4.564 -0.4774 -0.7402 -1.4614
  231MOL0     H31166  -3.409   0.727   4.524 -0.9201  0.7347  0.1003
  231MOL0     H31167  -2.613   0.326   4.219  0.3490  0.3197 -4.3825
  231MOL0     H31168  -2.382   0.366   4.225 -0.1236  0.3263 -0.2262
  231MOL0     H31169  -2.164   0.717   4.507  0.9964  1.1292 -3.7868
  231MOL0     H31170  -1.978   0.790   4.659  0.0432  0.5743 -0.3982
  231MOL0     H31171  -0.009   1.008   4.923 -1.3669 -0.4236  0.5980
  231MOL0     H31172   0.242   1.075   4.945  5.7645 -1.2712  0.2529
  231MOL0     H31173   0.679   0.994   5.078  0.7035 -1.9389  1.2922
  231MOL0     H31174   0.887   1.078   5.115  0.8736 -0.0257 -0.2841
  231MOL0     H31175   1.037   1.035   5.280 -0.4391 -0.1693 -1.0848
  231MOL0     H31176   1.123   1.164   5.192  0.9587  1.0934  1.6805
  231MOL0     H31177   1.249   1.066   5.395  0.7953 -0.0501  1.8867
  231MOL0     H31178   1.111   1.142   5.490 -0.6815  5.4761 -1.0216
  231MOL0     H31179   1.168   1.350   5.455 -0.4488 -2.0975  2.3259
  231MOL0     H31180   1.249   1.323   5.309 -0.4561 -1.0521 -0.4734
  231MOL0     H31181   1.439   1.201   5.427 -0.1325  0.7104 -0.2826
  231MOL0     H31182   1.356   1.243   5.584 -0.2708  0.0178 -0.4603
  231MOL0     H31183   1.540   1.601   5.446  0.8411  0.2419  2.4164
  231MOL0     H31184   0.759   1.322   5.437 -1.6915 -1.7190  1.7248
  231MOL0     H31185   0.519   1.253   5.401 -0.3969 -0.5941  0.6863
  232MOL0     O31186   1.152   3.534   6.633  0.1202  0.2770 -0.0194
  232MOL0     C31187   1.194   3.429   6.687  0.1864 -0.2825  0.3601
  232MOL0     O31188   1.117   3.329   6.733  0.6044 -0.2952  0.4152
  232MOL0     C31189   0.979   3.354   6.740 -0.2714 -0.1807  0.2737
  232MOL0     C31190   0.889   3.262   6.700 -0.4203 -0.0002 -0.6287
  232MOL0     C31191   0.754   3.281   6.740  0.2483  0.1514  0.4895
  232MOL0     C31192   0.705   3.395   6.803 -0.0882  0.1139  0.3167
  232MOL0     O31193   0.575   3.391   6.835 -0.4018  0.2792  0.0704
  232MOL0     C31194   0.503   3.510   6.856 -0.2390 -0.2137 -0.1613
  232MOL0     C31195   0.366   3.470   6.880 -0.4635  0.4919 -0.1348
  232MOL0     C31196   0.257   3.575   6.891 -0.2212  0.3526  0.9768
  232MOL0     C31197   0.151   3.521   6.990  1.0670  0.5076  0.4728
  232MOL0     C31198   0.029   3.462   6.912 -0.2013 -0.5548 -0.3282
  232MOL0     C31199  -0.081   3.402   6.995 -0.3750 -0.0532  0.3896
  232MOL0     C31200  -0.182   3.331   6.906  0.0272 -1.1007  1.3428
  232MOL0     C31201  -0.294   3.276   6.990  1.6839  0.9438 -1.3280
  232MOL0     N31202  -0.377   3.177   6.918 -0.4228  0.3325  0.0119
  232MOL0     C31203  -0.389   3.036   6.932 -0.0680 -0.6190 -0.8817
  232MOL0     C31204  -0.490   3.008   6.840 -0.5624  0.5058 -0.0197
  232MOL0     C31205  -0.537   2.859   6.809 -0.5958 -0.9569  0.6598
  232MOL0     C31206  -0.613   2.800   6.925  0.0976 -1.2052 -0.2966
  232MOL0     C31207  -0.749   2.867   6.940 -0.1323 -0.8800  0.8400
  232MOL0     C31208  -0.841   2.808   7.051 -0.2014 -0.8292 -0.1322
  232MOL0     O31209  -0.909   2.694   6.985  0.1467  0.3600 -0.4545
  232MOL0     C31210  -1.025   2.640   7.042  0.4192 -0.1122  0.2577
  232MOL0     C31211  -1.064   2.641   7.176 -0.0086 -0.3270 -0.5667
  232MOL0     C31212  -1.192   2.596   7.211 -0.9892  0.4093  0.1177
  232MOL0     C31213  -1.229   2.598   7.360  0.0169  0.2074  0.5001
  232MOL0     C31214  -1.284   2.566   7.111  1.2902 -0.5667  0.0224
  232MOL0     C31215  -1.432   2.518   7.140  0.0656 -0.3340  0.6745
  232MOL0     O31216  -1.519   2.536   7.034 -0.3717 -0.4777 -0.0641
  232MOL0     C31217  -1.645   2.478   7.040 -0.0741  0.0561  0.3809
  232MOL0     C31218  -1.675   2.362   6.966 -0.8959 -0.9322 -0.5374
  232MOL0     C31219  -1.790   2.296   6.969 -0.1683 -0.0651  0.2321
  232MOL0     C31220  -1.890   2.343   7.053  0.3038  0.2938 -0.7588
  232MOL0     O31221  -2.009   2.263   7.052  0.7293 -0.7534  0.2411
  232MOL0     C31222  -2.128   2.332   7.111 -0.0192 -0.5934 -0.1584
  232MOL0     C31223  -2.255   2.247   7.072  0.4392  0.7851 -0.0441
  232MOL0     C31224  -2.378   2.275   7.160 -0.0463  0.1020 -0.1810
  232MOL0     C31225  -2.498   2.214   7.086  0.4100  0.7746  0.4014
  232MOL0     C31226  -2.627   2.244   7.163  0.2680 -0.6398  0.1173
  232MOL0     C31227  -2.747   2.189   7.089  0.2163 -0.3998 -0.6167
  232MOL0     C31228  -2.871   2.232   7.178 -0.9772 -0.9058 -0.5057
  232MOL0     C31229  -2.985   2.158   7.122 -0.2731 -0.1532  0.0115
  232MOL0    Cl31230  -3.139   2.214   7.193  0.4356 -0.0124 -0.1698
  232MOL0     C31231  -1.869   2.454   7.134 -0.2941  0.6429 -0.2768
  232MOL0     C31232  -1.750   2.525   7.122  0.5220 -0.4425 -0.6606
  232MOL0     O31233  -1.473   2.486   7.258  0.2372 -0.1348  0.1731
  232MOL0     C31234  -1.237   2.556   6.982  0.8306 -0.3725  0.7211
  232MOL0     C31235  -1.113   2.594   6.942 -0.4953 -0.3786 -0.4756
  232MOL0     N31236  -0.541   3.125   6.783 -0.5351  0.4112  0.4216
  232MOL0     N31237  -0.478   3.224   6.840 -0.4889  0.7321  0.4883
  232MOL0     C31238   0.801   3.483   6.842  0.1613  0.1874 -0.4645
  232MOL0     C31239   0.931   3.463   6.810 -0.3568 -0.1020 -0.1442
  232MOL0     C31240   1.339   3.412   6.704 -0.3359  0.1131  0.3605
  232MOL0     C31241   1.435   3.519   6.689 -0.0054  0.4920  0.6252
  232MOL0     C31242   1.574   3.500   6.698 -0.9851  0.7245  0.1933
  232MOL0     C31243   1.628   3.370   6.742 -0.1277 -0.2606 -0.3425
  232MOL0     O31244   1.760   3.338   6.765  0.1416  0.0373 -0.7663
  232MOL0     C31245   1.842   3.452   6.790  1.1530 -0.2349 -0.3672
  232MOL0     C31246   1.978   3.408   6.822  0.0039  0.9922 -1.3576
  232MOL0     C31247   2.088   3.513   6.811  0.4572 -0.0039  0.0727
  232MOL0     C31248   2.227   3.448   6.785 -0.3301  0.3180  1.0550
  232MOL0     C31249   2.340   3.547   6.775  1.4195 -0.0584  0.0310
  232MOL0     C31250   2.435   3.619   6.789  0.1996 -0.4330  0.1437
  232MOL0     C31251   1.534   3.270   6.756  0.6059 -0.1014  0.7222
  232MOL0     C31252   1.393   3.281   6.728  0.2373  0.4689  0.3979
  232MOL0     H31253   0.937   3.176   6.653 -0.5177 -1.1113  1.2147
  232MOL0     H31254   0.686   3.205   6.702 -0.6511  1.3053 -0.2509
  232MOL0     H31255   0.537   3.573   6.939 -1.9352  2.7647 -1.5525
  232MOL0     H31256   0.510   3.565   6.762  1.9127 -1.7124 -0.9578
  232MOL0     H31257   0.337   3.392   6.809  0.1597  3.0899 -3.5091
  232MOL0     H31258   0.367   3.418   6.976  0.1835  0.5167 -0.1249
  232MOL0     H31259   0.298   3.666   6.937  0.2022  0.9169 -0.4837
  232MOL0     H31260   0.214   3.605   6.795  3.3098  2.5547 -0.0735
  232MOL0     H31261   0.194   3.443   7.054  1.1075 -0.4876 -0.7331
  232MOL0     H31262   0.112   3.603   7.051 -0.2616 -0.3216  0.7774
  232MOL0     H31263  -0.020   3.537   6.849 -0.7249  1.8966  2.7705
  232MOL0     H31264   0.070   3.383   6.849 -1.5985  0.8140 -3.1246
  232MOL0     H31265  -0.038   3.329   7.065  1.4369  0.1075 -0.5210
  232MOL0     H31266  -0.136   3.481   7.048  0.6481  0.1810  1.1191
  232MOL0     H31267  -0.233   3.400   6.838 -0.8427 -0.6583  2.4006
  232MOL0     H31268  -0.127   3.249   6.859  0.1409 -0.7484  0.8541
  232MOL0     H31269  -0.365   3.353   7.022  1.8477 -0.1518  2.1041
  232MOL0     H31270  -0.260   3.234   7.085 -2.9914  1.4882  0.8727
  232MOL0     H31271  -0.330   2.969   6.992 -0.1947  0.1883  0.1807
  232MOL0     H31272  -0.595   2.853   6.716  2.9323 -2.4347 -1.6574
  232MOL0     H31273  -0.448   2.800   6.783  0.2657  0.8857 -0.8118
  232MOL0     H31274  -0.551   2.821   7.012  3.0193 -0.9128 -2.3127
  232MOL0     H31275  -0.629   2.693   6.905 -3.1887 -0.6621 -1.2248
  232MOL0     H31276  -0.800   2.862   6.843  3.1270 -0.6945 -1.0101
  232MOL0     H31277  -0.719   2.971   6.956 -0.5033 -0.3435 -1.5331
  232MOL0     H31278  -0.913   2.882   7.087 -0.2998  1.2692 -4.0043
  232MOL0     H31279  -0.790   2.778   7.143 -1.7174  0.2903  1.1253
  232MOL0     H31280  -0.983   2.661   7.246  0.3089 -1.2424 -0.6652
  232MOL0     H31281  -1.310   2.668   7.380  0.6111  0.6719  1.3402
  232MOL0     H31282  -1.277   2.505   7.392 -0.4667  1.1506  2.7263
  232MOL0     H31283  -1.144   2.625   7.423 -0.4352  0.4455  1.0122
  232MOL0     H31284  -1.599   2.321   6.900  1.6624 -0.0928  1.7108
  232MOL0     H31285  -1.805   2.208   6.907  0.1680 -0.7188  1.0705
  232MOL0     H31286  -2.121   2.332   7.220  1.6438  0.2471 -0.2360
  232MOL0     H31287  -2.121   2.434   7.072  2.9574 -0.8134 -0.4321
  232MOL0     H31288  -2.275   2.256   6.965 -2.2998  0.0356  0.3385
  232MOL0     H31289  -2.232   2.141   7.083  0.5748  0.6557 -1.3928
  232MOL0     H31290  -2.374   2.382   7.183  2.5904 -0.1364  0.7796
  232MOL0     H31291  -2.377   2.233   7.261 -3.5525  0.3659  0.0729
  232MOL0     H31292  -2.531   2.261   6.992 -3.4462  0.1941  1.3087
  232MOL0     H31293  -2.477   2.108   7.067 -0.8353  0.4808  0.6106
  232MOL0     H31294  -2.634   2.353   7.172 -0.4867 -0.5982 -0.8090
  232MOL0     H31295  -2.621   2.207   7.265  0.4459 -2.0956 -0.4028
  232MOL0     H31296  -2.743   2.227   6.987 -1.5134 -2.1635 -1.4178
  232MOL0     H31297  -2.742   2.080   7.078 -0.3906 -0.4824 -0.1302
  232MOL0     H31298  -2.878   2.341   7.189 -0.6367 -1.0608  1.6652
  232MOL0     H31299  -2.850   2.183   7.273 -0.0251 -3.3852 -1.8937
  232MOL0     H31300  -2.981   2.049   7.129 -2.0821 -0.4636 -2.2356
  232MOL0     H31301  -2.990   2.181   7.015  0.3763  1.7230  0.3531
  232MOL0     H31302  -1.943   2.496   7.202 -2.5357 -4.2001  0.7056
  232MOL0     H31303  -1.735   2.608   7.190 -0.0738 -1.0975  0.2917
  232MOL0     H31304  -1.312   2.530   6.908 -0.5432  3.7603  0.4269
  232MOL0     H31305  -1.074   2.590   6.841 -0.6276 -1.3137 -0.4960
  232MOL0     H31306   0.782   3.569   6.905  1.2509  0.6995 -0.8196
  232MOL0     H31307   1.011   3.534   6.834  2.1204 -2.4251 -1.0086
  232MOL0     H31308   1.397   3.620   6.682 -0.4344  0.4213  1.7955
  232MOL0     H31309   1.645   3.578   6.673  2.0134 -2.3069 -1.4623
  232MOL0     H31310   1.843   3.528   6.712 -0.4257  0.1433 -0.0539
  232MOL0     H31311   1.806   3.495   6.884  2.9566 -0.9271  0.6857
  232MOL0     H31312   2.012   3.323   6.762  0.6074  0.5124 -0.3555
  232MOL0     H31313   1.979   3.376   6.927  3.9974 -2.4831 -2.1480
  232MOL0     H31314   2.091   3.567   6.906 -2.0389  0.5917 -0.1220
  232MOL0     H31315   2.051   3.586   6.739 -1.8116 -1.2199 -0.0683
  232MOL0     H31316   2.218   3.387   6.695 -0.9531  0.0896  1.2667
  232MOL0     H31317   2.240   3.374   6.865 -2.4364 -1.6848 -0.3211
  232MOL0     H31318   2.514   3.684   6.820 -0.4870  0.7429 -0.5354
  232MOL0     H31319   1.574   3.170   6.772 -0.9614 -1.2752 -1.9308
  232MOL0     H31320   1.343   3.185   6.735  1.9161 -0.3696  1.8609
  233MOL0     O31321   1.390   7.796   0.794 -0.0884  0.6578  0.3722
  233MOL0     C31322   1.380   7.834   0.673 -0.9560 -0.0021 -0.4003
  233MOL0     O31323   1.276   7.814   0.586 -0.0530  0.2319  0.3479
  233MOL0     C31324   1.157   7.738   0.616  0.6286 -0.3214 -0.5187
  233MOL0     C31325   1.128   7.667   0.735 -0.3690  0.7722 -0.7113
  233MOL0     C31326   1.005   7.598   0.749 -0.4179  0.0298  0.2133
  233MOL0     C31327   0.915   7.583   0.648  0.3864 -0.4305  0.1734
  233MOL0     O31328   0.794   7.514   0.647  0.4867 -0.8745 -0.1956
  233MOL0     C31329   0.743   7.474   0.774  0.6912  0.1226 -0.4057
  233MOL0     C31330   0.586   7.475   0.758 -0.6418  0.4722 -0.3332
  233MOL0     C31331   0.512   7.447   0.891  0.3080  0.0924 -0.8167
  233MOL0     C31332   0.360   7.479   0.879  0.8483 -0.1791  0.0419
  233MOL0     C31333   0.279   7.379   0.794  0.0349  0.6181  0.3159
  233MOL0     C31334   0.241   7.258   0.871 -0.1353 -0.4480 -0.6874
  233MOL0     C31335   0.156   7.157   0.802  0.4001  0.4484 -0.4344
  233MOL0     C31336   0.108   7.048   0.893  0.1751 -0.2043 -0.6443
  233MOL0     N31337  -0.013   7.078   0.975  0.2105 -0.5911 -0.4359
  233MOL0     C31338  -0.139   7.075   0.926 -0.5197  0.2501  0.1106
  233MOL0     C31339  -0.226   7.090   1.029 -0.1828 -0.3409 -0.1494
  233MOL0     C31340  -0.371   7.089   1.014 -0.6579  0.4365  0.2537
  233MOL0     C31341  -0.433   6.988   1.114  0.2851 -0.0959  0.0193
  233MOL0     C31342  -0.509   7.043   1.227 -1.0751  0.1232  0.9412
  233MOL0     C31343  -0.422   7.093   1.335  1.0425  0.3498  0.5228
  233MOL0     O31344  -0.506   7.133   1.446  0.0816 -0.4206 -0.2437
  233MOL0     C31345  -0.458   7.237   1.524 -0.4322 -0.1533  0.5702
  233MOL0     C31346  -0.321   7.272   1.538  0.2420  0.7202  1.4101
  233MOL0     C31347  -0.272   7.354   1.635 -0.0224 -1.1228 -0.1221
  233MOL0     C31348  -0.128   7.395   1.619  0.3082  0.4899 -0.1670
  233MOL0     C31349  -0.358   7.411   1.730  0.4156  0.7767 -1.3331
  233MOL0     C31350  -0.336   7.519   1.834  0.1892  0.3717  0.2546
  233MOL0     O31351  -0.438   7.611   1.845  0.3456  1.3507 -0.0243
  233MOL0     C31352  -0.417   7.730   1.913 -0.1554 -0.4184  1.2402
  233MOL0     C31353  -0.509   7.787   1.995 -0.7661  0.4846  0.4287
  233MOL0     C31354  -0.483   7.904   2.063  0.5215 -0.2006 -0.1628
  233MOL0     C31355  -0.357   7.969   2.051 -1.0596 -0.5608 -0.3887
  233MOL0     O31356  -0.331   8.088   2.123 -0.0941  0.6413  0.2755
  233MOL0     C31357  -0.447   8.174   2.152 -0.3959  0.3899 -0.2311
  233MOL0     C31358  -0.385   8.313   2.166  0.0745  0.7021  0.2684
  233MOL0     C31359  -0.484   8.410   2.233  0.6870 -1.0947 -0.0513
  233MOL0     C31360  -0.594   8.459   2.149 -0.0012  0.1833  0.3649
  233MOL0     C31361  -0.652   8.594   2.198  0.5131  0.0014  0.6499
  233MOL0     C31362  -0.760   8.647   2.092 -0.3553  0.2954  0.2969
  233MOL0     C31363  -0.846   8.757   2.147 -0.1496  0.5336  0.4460
  233MOL0     C31364  -0.951   8.802   2.042  0.5795  0.9038  0.0391
  233MOL0    Cl31365  -1.034   8.952   2.095 -0.1526  0.5809  0.2872
  233MOL0     C31366  -0.257   7.919   1.967  0.1447 -0.3138 -0.3434
  233MOL0     C31367  -0.289   7.800   1.905  0.1924  0.0265  0.0111
  233MOL0     O31368  -0.237   7.519   1.904 -0.0991  0.8139  0.2186
  233MOL0     C31369  -0.497   7.365   1.724 -1.2057  0.2916 -0.4893
  233MOL0     C31370  -0.545   7.272   1.627 -0.9198 -0.3781  0.1763
  233MOL0     N31371  -0.150   7.103   1.140 -0.3483  0.4988 -0.0044
  233MOL0     N31372  -0.025   7.087   1.107  0.4160 -0.1524  0.3902
  233MOL0     C31373   0.950   7.646   0.529  0.1661 -0.2303  0.9901
  233MOL0     C31374   1.068   7.723   0.504 -0.1854 -0.6067 -0.4860
  233MOL0     C31375   1.493   7.899   0.610  0.4818 -0.3076  0.3918
  233MOL0     C31376   1.624   7.884   0.657  0.4405  0.3097 -0.7474
  233MOL0     C31377   1.735   7.944   0.596  0.4053  0.7168  0.0278
  233MOL0     C31378   1.711   8.026   0.483 -0.4381  0.6420 -0.4176
  233MOL0     O31379   1.792   8.107   0.414 -0.6453  0.0494 -0.4983
  233MOL0     C31380   1.909   8.153   0.479 -0.0908 -0.0964 -0.3059
  233MOL0     C31381   1.956   8.279   0.408  0.4461  0.2412  0.4823
  233MOL0     C31382   2.064   8.353   0.486  0.2315 -0.6246  0.1835
  233MOL0     C31383   2.124   8.471   0.408 -0.1535  0.4920  0.4533
  233MOL0     C31384   2.233   8.547   0.480  0.3355 -1.0396 -0.0892
  233MOL0     C31385   2.317   8.628   0.519 -0.9964  0.0341  0.0834
  233MOL0     C31386   1.585   8.038   0.426 -0.0488  0.2589  1.1469
  233MOL0     C31387   1.479   7.975   0.491  0.4902  0.1056  1.3948
  233MOL0     H31388   1.193   7.675   0.821  0.6080  1.1359 -1.4647
  233MOL0     H31389   0.995   7.555   0.848  1.3076 -1.4082 -0.1757
  233MOL0     H31390   0.776   7.379   0.817 -1.5592 -1.3034 -1.6299
  233MOL0     H31391   0.751   7.555   0.846 -3.5943  0.2056  0.2297
  233MOL0     H31392   0.566   7.580   0.734  1.3920  0.1212 -4.6821
  233MOL0     H31393   0.548   7.416   0.674  0.4818 -1.0313  0.1732
  233MOL0     H31394   0.528   7.342   0.916 -0.8286  0.2709  0.9018
  233MOL0     H31395   0.554   7.507   0.973 -2.0428  0.1890  0.4147
  233MOL0     H31396   0.329   7.476   0.984 -1.2757  1.0869 -0.4878
  233MOL0     H31397   0.338   7.578   0.839 -0.9375 -0.6851 -0.3022
  233MOL0     H31398   0.180   7.421   0.773 -0.3683  2.2376  4.4713
  233MOL0     H31399   0.327   7.346   0.701  0.6889 -0.5364  1.0388
  233MOL0     H31400   0.327   7.203   0.911 -2.4939 -3.0951  1.1432
  233MOL0     H31401   0.184   7.292   0.958  3.1545  1.6031  0.8687
  233MOL0     H31402   0.069   7.211   0.764 -0.4525  0.2733  1.1477
  233MOL0     H31403   0.211   7.108   0.721 -1.4824  1.6606 -2.5560
  233MOL0     H31404   0.197   7.012   0.946  0.0916 -0.0864 -0.4226
  233MOL0     H31405   0.084   6.960   0.833  0.9098 -2.0437  1.5983
  233MOL0     H31406  -0.178   7.076   0.824  0.8395  2.2479 -0.4419
  233MOL0     H31407  -0.417   7.186   1.032 -0.5889  0.3022  1.2322
  233MOL0     H31408  -0.386   7.058   0.910 -1.9452 -0.2254  0.6146
  233MOL0     H31409  -0.355   6.921   1.152  0.6092 -0.5275 -1.3632
  233MOL0     H31410  -0.491   6.920   1.051 -0.1475  1.4285 -1.3023
  233MOL0     H31411  -0.570   6.961   1.265 -1.0646  1.0195  3.0613
  233MOL0     H31412  -0.579   7.123   1.202 -1.1427  0.1741  1.2787
  233MOL0     H31413  -0.380   7.183   1.290  0.2035  1.8100  2.5466
  233MOL0     H31414  -0.351   7.013   1.360  1.2867  0.3762 -0.0725
  233MOL0     H31415  -0.254   7.230   1.463 -2.2873 -0.5663 -0.2640
  233MOL0     H31416  -0.121   7.496   1.660 -0.6478  0.1572  0.8598
  233MOL0     H31417  -0.056   7.330   1.669  0.2234 -1.3971 -2.3204
  233MOL0     H31418  -0.110   7.389   1.511 -0.6250 -2.7329 -0.2635
  233MOL0     H31419  -0.605   7.737   1.994  1.4417 -4.2284 -0.8725
  233MOL0     H31420  -0.572   7.944   2.110 -0.1141 -0.3303 -1.2290
  233MOL0     H31421  -0.520   8.176   2.070  0.4829 -3.2584 -1.2683
  233MOL0     H31422  -0.504   8.147   2.242 -0.8105 -1.4146 -0.9913
  233MOL0     H31423  -0.295   8.300   2.226  0.0445  0.3374  0.2316
  233MOL0     H31424  -0.359   8.353   2.068 -1.8464  3.6293  0.7995
  233MOL0     H31425  -0.420   8.496   2.258 -0.9682  1.0996 -2.6717
  233MOL0     H31426  -0.532   8.367   2.321  0.9531 -3.0275 -0.8186
  233MOL0     H31427  -0.561   8.468   2.046  0.2669 -1.3972  0.2887
  233MOL0     H31428  -0.670   8.382   2.137  0.0810 -0.1633  1.8428
  233MOL0     H31429  -0.569   8.666   2.191  0.4474 -0.0038 -0.4080
  233MOL0     H31430  -0.699   8.589   2.296  0.4515  1.9748  0.7615
  233MOL0     H31431  -0.705   8.691   2.008 -1.2954  0.3956 -0.2884
  233MOL0     H31432  -0.823   8.562   2.062  0.9499 -0.7490  0.4348
  233MOL0     H31433  -0.778   8.838   2.175  1.4715 -0.4581 -0.4445
  233MOL0     H31434  -0.890   8.721   2.240  0.6484  0.1608  0.6903
  233MOL0     H31435  -1.027   8.723   2.047  0.7722  0.6648 -0.5923
  233MOL0     H31436  -0.910   8.803   1.941 -1.8111  2.6656 -1.0278
  233MOL0     H31437  -0.162   7.970   1.959 -0.5696  1.0406 -0.4699
  233MOL0     H31438  -0.211   7.757   1.843 -1.6936 -3.9620  0.0703
  233MOL0     H31439  -0.554   7.409   1.806 -0.0655  2.0366 -0.5640
  233MOL0     H31440  -0.647   7.235   1.637 -0.2659 -2.4636 -0.3739
  233MOL0     H31441   0.877   7.640   0.449  0.8810 -0.1638  0.3211
  233MOL0     H31442   1.087   7.758   0.403  2.4489 -0.6615 -0.1007
  233MOL0     H31443   1.644   7.831   0.750 -2.5156  0.7265  0.2366
  233MOL0     H31444   1.834   7.927   0.638 -0.2924 -1.0305  1.1118
  233MOL0     H31445   1.880   8.177   0.581 -1.1420  0.6443 -0.7602
  233MOL0     H31446   1.987   8.075   0.479 -0.3927 -0.4105  0.7874
  233MOL0     H31447   1.875   8.351   0.394  0.0112 -0.3268  0.0167
  233MOL0     H31448   2.003   8.248   0.314  2.6625  2.1869  0.8708
  233MOL0     H31449   2.146   8.288   0.520 -1.2054 -3.0054 -0.6464
  233MOL0     H31450   2.013   8.402   0.569 -0.0977 -0.9224  0.1572
  233MOL0     H31451   2.045   8.534   0.366  0.4071  0.9198  0.0163
  233MOL0     H31452   2.179   8.425   0.325 -0.2355 -0.9086  1.1581
  233MOL0     H31453   2.378   8.703   0.564 -4.2199  1.9317  1.6615
  233MOL0     H31454   1.554   8.101   0.343 -0.8959  1.4863  2.3628
  233MOL0     H31455   1.383   7.978   0.440  1.7999 -4.4261 -2.0056
  234MOL0     O31456   7.064   7.251   8.048 -0.2407  0.2858 -0.0552
  234MOL0     C31457   7.120   7.357   8.023  0.7855 -0.3411 -0.4289
  234MOL0     O31458   7.050   7.467   7.975  0.4519  0.3143 -0.0884
  234MOL0     C31459   6.905   7.471   7.971 -0.3860 -0.4074 -0.6197
  234MOL0     C31460   6.831   7.558   8.054 -0.3378  0.1507  0.8620
  234MOL0     C31461   6.693   7.556   8.050  0.2209 -0.4809 -1.2096
  234MOL0     C31462   6.617   7.473   7.968 -0.3541 -0.3097 -0.0976
  234MOL0     O31463   6.483   7.489   7.970 -0.3343  0.4761 -0.4621
  234MOL0     C31464   6.410   7.369   7.997 -0.4450 -0.8504 -1.0245
  234MOL0     C31465   6.259   7.386   7.978  0.1571 -0.3510  0.3905
  234MOL0     C31466   6.201   7.514   8.031  0.3388  1.1191  0.9675
  234MOL0     C31467   6.049   7.527   8.005 -0.2115 -0.0855 -0.0581
  234MOL0     C31468   5.961   7.476   8.120  0.4122 -0.4835 -0.1337
  234MOL0     C31469   5.811   7.452   8.078 -0.1775 -0.0614 -0.2029
  234MOL0     C31470   5.730   7.583   8.050 -0.1506  0.3821  0.1265
  234MOL0     C31471   5.596   7.526   8.011  0.0187  0.3156 -0.6604
  234MOL0     N31472   5.492   7.634   7.983 -0.3549  0.3899  0.6669
  234MOL0     C31473   5.504   7.713   7.876 -0.0036 -0.4918  0.4825
  234MOL0     C31474   5.390   7.790   7.872 -0.4135  0.4665 -0.3675
  234MOL0     C31475   5.373   7.896   7.768  0.3878 -0.4398  0.4617
  234MOL0     C31476   5.229   7.890   7.710  0.3745 -0.6802  0.8001
  234MOL0     C31477   5.195   8.016   7.635 -0.0060 -0.1538 -0.0299
  234MOL0     C31478   5.064   8.009   7.549  1.1477  0.5876  0.4615
  234MOL0     O31479   5.046   8.136   7.473 -0.2881 -0.6295  0.7598
  234MOL0     C31480   4.926   8.172   7.412  0.0239 -0.9971 -0.6668
  234MOL0     C31481   4.923   8.287   7.343 -0.6199 -0.1285 -0.4723
  234MOL0     C31482   4.813   8.336   7.269 -0.2031  0.8425  0.3679
  234MOL0     C31483   4.810   8.473   7.206  0.0438 -0.4662 -0.3100
  234MOL0     C31484   4.702   8.251   7.260  0.4238 -0.1050  0.3877
  234MOL0     C31485   4.569   8.291   7.198  0.7320  0.6958  0.2354
  234MOL0     O31486   4.501   8.189   7.130  0.1757  0.3587 -0.2202
  234MOL0     C31487   4.364   8.195   7.107 -0.5653  0.6906  0.8460
  234MOL0     C31488   4.320   8.093   7.015 -0.3681 -0.3983  0.0555
  234MOL0     C31489   4.193   8.077   6.980 -0.3147  0.2911  1.0764
  234MOL0     C31490   4.098   8.173   7.017  0.2702 -0.0863 -0.1991
  234MOL0     O31491   3.968   8.151   6.972 -0.1038 -0.0886 -0.0650
  234MOL0     C31492   3.871   8.252   7.012  0.0548 -0.1191 -0.1478
  234MOL0     C31493   3.759   8.243   6.917  0.1061 -0.5185  0.4237
  234MOL0     C31494   3.708   8.104   6.886  0.5155  0.0970 -0.6338
  234MOL0     C31495   3.554   8.110   6.860 -0.6986 -0.6745  0.6672
  234MOL0     C31496   3.483   7.978   6.855 -0.6519 -0.0838 -0.2539
  234MOL0     C31497   3.508   7.905   6.717 -1.0378 -0.5932  0.0490
  234MOL0     C31498   3.466   7.763   6.708  0.1040  0.1574 -0.1170
  234MOL0     C31499   3.531   7.690   6.596 -0.5312  0.5911  0.1322
  234MOL0    Cl31500   3.483   7.521   6.611  0.0118 -0.1078 -0.0573
  234MOL0     C31501   4.135   8.271   7.118  0.4585 -0.2573  0.0450
  234MOL0     C31502   4.266   8.282   7.163 -0.6646 -0.0700 -0.9010
  234MOL0     O31503   4.523   8.406   7.217 -0.0504 -0.0984  0.2085
  234MOL0     C31504   4.704   8.122   7.317  0.1182 -0.3813 -0.2253
  234MOL0     C31505   4.811   8.088   7.401  0.2356 -0.2237  0.0973
  234MOL0     N31506   5.313   7.743   7.974  0.2911 -0.3635  0.0492
  234MOL0     N31507   5.370   7.641   8.034  0.1172 -0.2796 -0.9962
  234MOL0     C31508   6.688   7.392   7.885  0.8539 -0.0007 -0.8996
  234MOL0     C31509   6.829   7.385   7.884 -0.1564  0.4127 -0.1061
  234MOL0     C31510   7.258   7.364   8.045 -0.8516 -0.5633  0.3658
  234MOL0     C31511   7.316   7.489   8.088 -0.6694  0.8418 -1.1630
  234MOL0     C31512   7.450   7.497   8.118 -0.2578 -0.2151 -0.2826
  234MOL0     C31513   7.534   7.390   8.109  0.1958 -0.1391 -0.2850
  234MOL0     O31514   7.671   7.415   8.123  0.5576 -0.3727 -1.0335
  234MOL0     C31515   7.764   7.306   8.119  0.9075  0.6632  0.0427
  234MOL0     C31516   7.894   7.379   8.159 -0.3779  0.1896  1.4266
  234MOL0     C31517   7.953   7.469   8.045 -0.1246 -0.1711  0.3509
  234MOL0     C31518   8.062   7.579   8.076 -0.0827  0.8080 -0.9625
  234MOL0     C31519   8.184   7.508   8.105 -0.0206 -0.4781  0.0084
  234MOL0     C31520   8.290   7.443   8.115  0.2657  0.1498 -0.6385
  234MOL0     C31521   7.474   7.268   8.070 -0.5435 -0.3967 -0.8203
  234MOL0     C31522   7.336   7.250   8.049 -0.4892  0.0915 -0.2264
  234MOL0     H31523   6.878   7.629   8.121  0.7900 -1.2076  1.5431
  234MOL0     H31524   6.630   7.618   8.114 -0.5733 -0.8102 -1.6489
  234MOL0     H31525   6.445   7.294   7.926  1.2764 -1.0392 -0.0408
  234MOL0     H31526   6.432   7.330   8.097  0.0067 -1.3472 -1.3137
  234MOL0     H31527   6.247   7.397   7.870  2.0682 -1.6408  0.0060
  234MOL0     H31528   6.202   7.298   8.012  1.0498 -1.2974 -0.4781
  234MOL0     H31529   6.223   7.514   8.138 -1.1968 -2.1636  1.4155
  234MOL0     H31530   6.248   7.599   7.982  0.9229  2.0508  3.0314
  234MOL0     H31531   6.028   7.631   7.978  1.2102  0.1044 -0.5357
  234MOL0     H31532   6.019   7.477   7.913 -1.0506 -0.0975  0.2173
  234MOL0     H31533   5.999   7.379   8.152 -0.5950  0.1004  3.3283
  234MOL0     H31534   5.972   7.548   8.201  0.3034 -0.0391 -0.5099
  234MOL0     H31535   5.810   7.392   7.987  1.6781  1.6127 -1.4050
  234MOL0     H31536   5.765   7.407   8.167  0.1452  1.7457  0.9369
  234MOL0     H31537   5.724   7.645   8.140  1.6616  1.0062 -0.1426
  234MOL0     H31538   5.770   7.646   7.970 -1.9741 -0.5788 -1.6430
  234MOL0     H31539   5.562   7.470   8.098  0.3662  0.0067 -0.7164
  234MOL0     H31540   5.603   7.458   7.925 -1.1156 -0.3416 -0.2488
  234MOL0     H31541   5.588   7.719   7.808 -1.5199  1.4326 -1.3273
  234MOL0     H31542   5.383   7.996   7.812 -0.3661 -0.7740  1.4146
  234MOL0     H31543   5.451   7.885   7.692 -0.6091 -0.3442 -0.5784
  234MOL0     H31544   5.152   7.871   7.786 -3.7028  0.7877 -2.5523
  234MOL0     H31545   5.219   7.804   7.644 -0.7150 -0.9312  1.2611
  234MOL0     H31546   5.269   8.039   7.558 -0.2462  0.0210 -0.2102
  234MOL0     H31547   5.183   8.099   7.705 -0.3562 -0.8446  0.7501
  234MOL0     H31548   4.982   7.977   7.614  3.2944 -4.1402  1.2863
  234MOL0     H31549   5.079   7.928   7.477  1.9966  0.5184  0.7048
  234MOL0     H31550   5.006   8.356   7.354 -1.4502  0.8134  0.2120
  234MOL0     H31551   4.772   8.472   7.104 -2.4233 -0.0761  0.5515
  234MOL0     H31552   4.753   8.542   7.268  2.8648  1.2141  0.6363
  234MOL0     H31553   4.916   8.500   7.200 -0.1828  1.2722  1.9903
  234MOL0     H31554   4.396   8.024   6.980  0.7838  0.3924  0.9286
  234MOL0     H31555   4.166   7.995   6.914  1.6321  1.6938 -1.7121
  234MOL0     H31556   3.831   8.228   7.111  0.9683 -0.2803  0.1873
  234MOL0     H31557   3.909   8.354   7.019 -1.1486  0.2383  2.4280
  234MOL0     H31558   3.676   8.304   6.954 -0.4699  1.8747 -4.0592
  234MOL0     H31559   3.781   8.300   6.825 -1.0542  0.5754  0.8008
  234MOL0     H31560   3.728   8.037   6.971 -2.1369  1.4115  1.1681
  234MOL0     H31561   3.765   8.068   6.800  0.3927 -4.0346  0.7862
  234MOL0     H31562   3.516   8.171   6.943  1.1437  0.0432  1.0347
  234MOL0     H31563   3.536   8.166   6.768 -0.5109 -0.8937  0.4944
  234MOL0     H31564   3.377   7.990   6.881 -0.6836  1.7650 -1.0147
  234MOL0     H31565   3.521   7.912   6.933 -1.2479 -0.8742 -0.6256
  234MOL0     H31566   3.460   7.962   6.637  1.7986  0.6114 -0.8991
  234MOL0     H31567   3.617   7.914   6.715 -1.0967  0.7288  0.9860
  234MOL0     H31568   3.358   7.767   6.693  0.0244 -0.0660  0.3745
  234MOL0     H31569   3.488   7.713   6.803  0.3792  0.3091 -0.0968
  234MOL0     H31570   3.638   7.702   6.616 -0.8174  0.2663  2.0462
  234MOL0     H31571   3.510   7.731   6.496 -1.7503  0.5708  0.3659
  234MOL0     H31572   4.074   8.343   7.173 -0.0398 -0.0148 -0.8025
  234MOL0     H31573   4.287   8.356   7.240  1.2933 -0.2701 -1.1873
  234MOL0     H31574   4.611   8.068   7.305  0.5824 -1.0160 -1.1360
  234MOL0     H31575   4.802   7.997   7.460  2.2432  0.0462  0.8758
  234MOL0     H31576   6.629   7.333   7.815  1.4079 -1.5455 -0.1110
  234MOL0     H31577   6.885   7.325   7.812 -0.8052  1.6092 -1.6827
  234MOL0     H31578   7.240   7.564   8.109 -1.9597 -1.0457  1.3339
  234MOL0     H31579   7.487   7.590   8.159  0.9189  0.0279 -1.7787
  234MOL0     H31580   7.735   7.238   8.200 -0.9205  1.8601  0.4453
  234MOL0     H31581   7.768   7.250   8.024  0.0046  1.7493 -0.6596
  234MOL0     H31582   7.960   7.300   8.197 -1.3044 -1.1179  0.4304
  234MOL0     H31583   7.863   7.442   8.242 -2.8008  1.8008 -0.5673
  234MOL0     H31584   7.867   7.517   7.997  0.0571 -0.0651  0.1267
  234MOL0     H31585   7.994   7.401   7.969  2.3598  2.3159 -0.7568
  234MOL0     H31586   8.033   7.640   8.161  2.5525 -1.9796  2.2266
  234MOL0     H31587   8.085   7.637   7.986  3.5386  2.6424  0.9145
  234MOL0     H31588   8.358   7.360   8.109 -0.5530 -0.6431  0.5998
  234MOL0     H31589   7.543   7.185   8.059 -0.6668 -0.8805  1.4811
  234MOL0     H31590   7.311   7.146   8.032  1.5267 -0.8839  2.0798
  235MOL0     O31591   0.985   9.024   5.074 -0.2782 -0.6334  0.7996
  235MOL0     C31592   0.981   9.007   4.954 -0.1623 -0.0129 -0.1397
  235MOL0     O31593   0.865   8.982   4.880  0.2819  0.3126  0.0745
  235MOL0     C31594   0.751   9.004   4.945 -0.0725  0.3925  0.1506
  235MOL0     C31595   0.678   8.899   5.001 -0.7184  0.7416  0.2936
  235MOL0     C31596   0.568   8.934   5.067  0.3742  0.3756 -0.6303
  235MOL0     C31597   0.522   9.069   5.086  0.3111  0.4614  0.4225
  235MOL0     O31598   0.411   9.087   5.165  0.4391 -0.3540  0.4058
  235MOL0     C31599   0.339   9.212   5.150  0.2293 -0.3065 -0.1241
  235MOL0     C31600   0.222   9.207   5.249 -0.6781 -0.3178  0.7263
  235MOL0     C31601   0.127   9.326   5.249 -0.0547 -0.7605 -0.2885
  235MOL0     C31602   0.013   9.330   5.150  0.1089  0.0770  0.3243
  235MOL0     C31603  -0.065   9.460   5.146 -0.2097 -0.7979 -0.0600
  235MOL0     C31604  -0.134   9.501   5.276  0.2706 -0.2921 -0.1980
  235MOL0     C31605  -0.255   9.601   5.258 -0.5095  0.8172 -0.4849
  235MOL0     C31606  -0.314   9.643   5.395  0.0716 -0.0910 -0.0706
  235MOL0     N31607  -0.412   9.754   5.381 -0.5506  0.0188 -0.2873
  235MOL0     C31608  -0.546   9.743   5.364  0.4051  0.7773  1.2716
  235MOL0     C31609  -0.597   9.861   5.399  0.2887  0.0771 -1.1580
  235MOL0     C31610  -0.747   9.903   5.407 -0.0038  0.3032  0.4069
  235MOL0     C31611  -0.773  10.048   5.385  0.1888  0.4677  0.3836
  235MOL0     C31612  -0.923  10.068   5.395  0.2274  0.2266 -0.2775
  235MOL0     C31613  -0.963  10.082   5.546  0.0422  0.0876  1.7925
  235MOL0     O31614  -1.097  10.142   5.538 -0.0728  0.7612  0.5281
  235MOL0     C31615  -1.182  10.141   5.642  0.0160  0.5721  0.2561
  235MOL0     C31616  -1.157  10.103   5.770 -0.1342  0.1981 -0.3689
  235MOL0     C31617  -1.246  10.103   5.873 -0.0652  0.5153 -0.3477
  235MOL0     C31618  -1.221  10.027   6.006 -0.0883  0.5378  0.7810
  235MOL0     C31619  -1.381  10.142   5.836 -0.8323  0.9682 -0.2335
  235MOL0     C31620  -1.498  10.128   5.926  0.0506 -0.0765 -0.4074
  235MOL0     O31621  -1.553  10.012   5.966  0.0160  0.1803  0.0848
  235MOL0     C31622  -1.669  10.021   6.041  0.7041  0.8982  0.1393
  235MOL0     C31623  -1.798  10.039   5.984  0.1866  0.1525 -0.2549
  235MOL0     C31624  -1.910  10.031   6.070  0.2085  0.3866  0.0050
  235MOL0     C31625  -1.898  10.007   6.212  0.3303 -0.7574 -0.8749
  235MOL0     O31626  -2.013   9.997   6.284  0.4588 -0.1991  0.2644
  235MOL0     C31627  -2.013   9.982   6.427  0.4744 -0.6247 -0.2713
  235MOL0     C31628  -2.159  10.004   6.467  0.1717 -0.0010  0.5896
  235MOL0     C31629  -2.171  10.000   6.619 -0.9055 -0.5796 -0.2174
  235MOL0     C31630  -2.320   9.983   6.672  0.0740  0.2265  0.5167
  235MOL0     C31631  -2.384   9.845   6.637  0.0023  0.2736 -0.4869
  235MOL0     C31632  -2.528   9.827   6.701  0.1741  0.1839 -0.1566
  235MOL0     C31633  -2.595   9.701   6.648 -0.0365  0.4357 -0.0480
  235MOL0     C31634  -2.728   9.664   6.708  0.6859  0.0720 -0.3449
  235MOL0    Cl31635  -2.857   9.786   6.672 -0.0793 -0.2469  0.0460
  235MOL0     C31636  -1.771  10.003   6.263 -0.3767 -0.2373  0.1052
  235MOL0     C31637  -1.662  10.004   6.177  0.5134 -0.1017 -0.2505
  235MOL0     O31638  -1.536  10.240   5.967  0.1848 -0.3060  0.0323
  235MOL0     C31639  -1.407  10.184   5.704 -0.2431  0.2148  0.6778
  235MOL0     C31640  -1.311  10.187   5.604  0.1645  1.1955  0.4068
  235MOL0     N31641  -0.491   9.945   5.440  0.7473 -0.4263  0.0088
  235MOL0     N31642  -0.381   9.875   5.431 -0.2790 -0.2373  0.0118
  235MOL0     C31643   0.594   9.170   5.025 -0.3292  0.0620 -0.2913
  235MOL0     C31644   0.707   9.135   4.952  0.4722 -0.7053 -0.5627
  235MOL0     C31645   1.108   9.028   4.871  0.8618 -0.5252 -0.5364
  235MOL0     C31646   1.105   9.067   4.738  0.1242 -0.3920  0.4705
  235MOL0     C31647   1.228   9.074   4.670  0.6965 -0.2089  0.3304
  235MOL0     C31648   1.351   9.042   4.733 -0.1436 -0.1921 -0.4003
  235MOL0     O31649   1.472   9.044   4.670  0.6372  0.6555 -0.8811
  235MOL0     C31650   1.470   9.055   4.527  0.4405 -0.5008 -0.5144
  235MOL0     C31651   1.597   9.004   4.478  0.5352 -0.2823  0.4629
  235MOL0     C31652   1.714   9.088   4.534  0.1469  0.5641 -0.1459
  235MOL0     C31653   1.768   9.030   4.663 -0.0851  0.6054 -0.0908
  235MOL0     C31654   1.899   9.088   4.696 -0.3705  0.2190  0.4413
  235MOL0     C31655   2.003   9.132   4.733  0.1919  0.1321 -0.1138
  235MOL0     C31656   1.350   9.008   4.868 -0.9012  0.3702 -0.0748
  235MOL0     C31657   1.229   9.000   4.940  0.3247  0.2079  0.6694
  235MOL0     H31658   0.715   8.798   4.991 -0.4842  0.8426  0.1467
  235MOL0     H31659   0.507   8.857   5.112  0.2995  0.3952 -0.6989
  235MOL0     H31660   0.405   9.295   5.176  1.6874 -1.4316 -0.0973
  235MOL0     H31661   0.298   9.222   5.049 -1.7450  1.6288  0.7775
  235MOL0     H31662   0.162   9.118   5.230  0.9735 -1.8753  2.4343
  235MOL0     H31663   0.272   9.195   5.346 -1.8212  1.6757  1.6243
  235MOL0     H31664   0.077   9.331   5.346 -2.4272 -3.5888 -1.2102
  235MOL0     H31665   0.175   9.424   5.241 -2.1760  0.2436 -2.1876
  235MOL0     H31666   0.060   9.316   5.052  1.8745  0.8609  1.0285
  235MOL0     H31667  -0.054   9.244   5.164 -3.5091  2.5852 -0.1401
  235MOL0     H31668   0.003   9.543   5.123 -0.8560 -0.3961 -0.5568
  235MOL0     H31669  -0.145   9.447   5.072 -4.2337  1.7872  3.3854
  235MOL0     H31670  -0.167   9.409   5.325  0.4269 -1.4810 -2.2019
  235MOL0     H31671  -0.066   9.546   5.348  0.6245 -1.5866  0.2970
  235MOL0     H31672  -0.214   9.689   5.207 -0.1322 -0.0184 -1.6548
  235MOL0     H31673  -0.319   9.561   5.179  0.1188  1.2027 -1.2052
  235MOL0     H31674  -0.229   9.681   5.452  1.4913  0.6869 -2.5701
  235MOL0     H31675  -0.361   9.562   5.453 -0.3429  0.4393  0.3413
  235MOL0     H31676  -0.599   9.664   5.311  0.7105  0.8170  0.8983
  235MOL0     H31677  -0.795   9.839   5.332 -1.4383  1.9983 -0.1926
  235MOL0     H31678  -0.799   9.874   5.498  1.6201 -1.5171  0.8180
  235MOL0     H31679  -0.739  10.076   5.285  0.5610  0.9579  0.6418
  235MOL0     H31680  -0.722  10.106   5.462  0.7429  2.2772 -1.2655
  235MOL0     H31681  -0.980   9.988   5.349 -0.8505  0.4290  0.6628
  235MOL0     H31682  -0.955  10.156   5.338 -0.5750 -0.8185 -1.4825
  235MOL0     H31683  -0.892  10.153   5.590  0.4536 -1.1871  3.2875
  235MOL0     H31684  -0.949   9.990   5.603  0.2660  0.9502  3.1781
  235MOL0     H31685  -1.061  10.063   5.800  0.5104  0.7156 -1.6839
  235MOL0     H31686  -1.223  10.091   6.095  1.5312  1.8178 -0.0475
  235MOL0     H31687  -1.294   9.947   6.022 -0.7917  0.8927 -0.5622
  235MOL0     H31688  -1.119   9.988   6.010  0.4586  1.8581  0.5249
  235MOL0     H31689  -1.817  10.044   5.877 -0.2016 -2.0279 -0.3281
  235MOL0     H31690  -2.009  10.031   6.026 -0.1841 -2.0739  0.6834
  235MOL0     H31691  -1.993   9.880   6.461 -1.8868 -0.0524  3.4532
  235MOL0     H31692  -1.946  10.049   6.483  0.1820 -0.6814  0.1492
  235MOL0     H31693  -2.181  10.105   6.433  2.5012  0.1400 -0.7541
  235MOL0     H31694  -2.225   9.927   6.426 -2.1581  2.2107 -0.0757
  235MOL0     H31695  -2.131  10.094   6.660  0.6007 -3.0535  4.8159
  235MOL0     H31696  -2.102   9.921   6.647  0.8451  0.0717 -2.4398
  235MOL0     H31697  -2.314   9.978   6.781  2.8974  0.1650  0.4112
  235MOL0     H31698  -2.387  10.067   6.650  0.8042  0.5502 -0.5267
  235MOL0     H31699  -2.312   9.775   6.679  0.4368  0.0970 -1.4954
  235MOL0     H31700  -2.383   9.836   6.528 -2.7051 -2.7629 -0.4339
  235MOL0     H31701  -2.513   9.820   6.810 -0.7483  0.1280 -0.0300
  235MOL0     H31702  -2.583   9.915   6.668 -0.4066  0.0857  0.5157
  235MOL0     H31703  -2.538   9.610   6.669 -2.5135 -1.6164 -1.5902
  235MOL0     H31704  -2.594   9.715   6.540 -0.6379 -1.1657 -0.2984
  235MOL0     H31705  -2.712   9.646   6.815 -1.5152  2.0330  0.3939
  235MOL0     H31706  -2.749   9.565   6.667  2.3885 -1.5051  2.2625
  235MOL0     H31707  -1.770  10.003   6.371 -1.0189  2.5955  0.1849
  235MOL0     H31708  -1.564   9.988   6.221  0.0936 -0.3846  0.6013
  235MOL0     H31709  -1.501  10.219   5.663 -1.0212 -0.0640  2.1798
  235MOL0     H31710  -1.317  10.217   5.500  0.1085  2.3188  0.7147
  235MOL0     H31711   0.568   9.275   5.033  1.3847  0.4299  1.4589
  235MOL0     H31712   0.778   9.209   4.915 -0.1487  1.1326  1.6564
  235MOL0     H31713   1.007   9.091   4.697  0.2329 -0.8500 -0.0637
  235MOL0     H31714   1.228   9.117   4.570  2.0982  0.3917  0.5665
  235MOL0     H31715   1.385   8.993   4.498 -1.8867  2.2790 -0.1665
  235MOL0     H31716   1.451   9.156   4.492 -1.8722 -0.8349 -0.3696
  235MOL0     H31717   1.603   9.000   4.369  3.1554  0.1559  0.5136
  235MOL0     H31718   1.603   8.901   4.515 -1.8612 -0.3746  0.7198
  235MOL0     H31719   1.677   9.190   4.543  1.6988  1.1803 -0.4166
  235MOL0     H31720   1.787   9.096   4.453 -0.5101  1.5906 -0.6584
  235MOL0     H31721   1.798   8.925   4.651 -0.8398  0.3582  0.0866
  235MOL0     H31722   1.696   9.045   4.744  0.1295  0.1105  0.2007
  235MOL0     H31723   2.094   9.185   4.756 -0.3805  2.4854 -2.7661
  235MOL0     H31724   1.444   8.984   4.916 -0.3388  0.1181 -1.2517
  235MOL0     H31725   1.239   8.969   5.044 -1.4762 -2.6449  0.1078
  236MOL0     O31726   5.013   8.669  10.225  0.1603  0.2309 -0.9247
  236MOL0     C31727   5.075   8.756  10.166  0.3058  0.2123  0.1299
  236MOL0     O31728   5.014   8.869  10.121 -0.0318 -0.1041  0.1109
  236MOL0     C31729   4.878   8.887  10.128 -0.7728 -0.0213 -0.4088
  236MOL0     C31730   4.829   9.004  10.179  0.1805  0.2537 -0.0254
  236MOL0     C31731   4.696   9.045  10.163 -0.4083  0.5137  0.3752
  236MOL0     C31732   4.607   8.959  10.093  0.4452 -0.6131  0.3759
  236MOL0     O31733   4.483   9.005  10.071 -0.5143  0.0676  0.0163
  236MOL0     C31734   4.368   8.917  10.069 -0.0276  0.2385  0.2577
  236MOL0     C31735   4.240   8.979  10.123  0.2726 -0.4324 -0.1212
  236MOL0     C31736   4.131   8.878  10.109  0.3408  0.3891 -0.9617
  236MOL0     C31737   4.004   8.901  10.188  0.1603 -0.5129  0.0089
  236MOL0     C31738   3.900   8.799  10.173 -0.5556  0.2580 -0.5312
  236MOL0     C31739   3.827   8.806  10.043  0.0912  0.3827  0.6248
  236MOL0     C31740   3.710   8.701  10.046  0.4840 -0.0673 -0.6572
  236MOL0     C31741   3.621   8.721   9.927  0.4664 -0.6124  0.0696
  236MOL0     N31742   3.519   8.617   9.910  0.1492  0.3359  0.4456
  236MOL0     C31743   3.427   8.573   9.995  0.3379 -0.4917  0.1536
  236MOL0     C31744   3.362   8.473   9.926 -0.0540  0.3264  0.4474
  236MOL0     C31745   3.261   8.381   9.958  0.1953 -0.0519 -0.8353
  236MOL0     C31746   3.113   8.417   9.928  0.0761  0.0944  0.2307
  236MOL0     C31747   3.050   8.485  10.049  0.1739  0.0518  0.6896
  236MOL0     C31748   2.895   8.501  10.027 -0.0919  0.7245  0.2410
  236MOL0     O31749   2.880   8.601   9.931 -0.3031 -0.1496  0.5379
  236MOL0     C31750   2.752   8.622   9.887 -0.1086  0.9806 -0.0750
  236MOL0     C31751   2.681   8.734   9.941  0.5046  0.5747  0.0465
  236MOL0     C31752   2.563   8.776   9.878 -0.6102 -1.2439  0.3511
  236MOL0     C31753   2.517   8.917   9.907 -0.0542 -0.2306  0.0235
  236MOL0     C31754   2.511   8.698   9.775  0.3888  0.3280  0.3425
  236MOL0     C31755   2.377   8.719   9.721 -0.3321 -0.0838 -0.1798
  236MOL0     O31756   2.373   8.808   9.618  0.2045 -0.8660  0.5758
  236MOL0     C31757   2.261   8.800   9.527 -0.8132  0.0100 -0.9552
  236MOL0     C31758   2.220   8.675   9.473  0.4138  0.5635  0.2612
  236MOL0     C31759   2.130   8.673   9.371  0.0159 -0.4108  0.0495
  236MOL0     C31760   2.076   8.793   9.323  0.0091  0.3199 -0.1827
  236MOL0     O31761   1.979   8.770   9.229  0.3481  0.7761  0.6059
  236MOL0     C31762   1.947   8.873   9.132  0.6739  0.1958  0.5362
  236MOL0     C31763   1.821   8.833   9.045  0.0072 -0.0448  0.0454
  236MOL0     C31764   1.705   8.817   9.139 -0.3053  0.4348 -0.2840
  236MOL0     C31765   1.573   8.857   9.081  0.2284 -0.4218 -0.8776
  236MOL0     C31766   1.452   8.868   9.186  1.0959 -0.3519 -0.5331
  236MOL0     C31767   1.439   8.738   9.247  0.5042  0.2778  0.0396
  236MOL0     C31768   1.331   8.731   9.364  0.4925 -0.7227  0.8902
  236MOL0     C31769   1.271   8.588   9.377  0.8118  0.8892 -0.1302
  236MOL0    Cl31770   1.157   8.575   9.513  0.4447  0.3004 -0.3372
  236MOL0     C31771   2.114   8.917   9.373  0.2022 -0.1387  0.5468
  236MOL0     C31772   2.209   8.919   9.474  0.0946  1.1414  0.2305
  236MOL0     O31773   2.280   8.663   9.771 -0.0921 -0.3695 -0.7190
  236MOL0     C31774   2.581   8.577   9.739  0.0391  0.7698  0.4862
  236MOL0     C31775   2.705   8.544   9.794 -0.0772 -0.4413  0.4336
  236MOL0     N31776   3.427   8.451   9.810 -0.0413 -0.1383  0.5026
  236MOL0     N31777   3.528   8.525   9.805 -0.3157  0.3069 -0.4106
  236MOL0     C31778   4.652   8.839  10.041  0.0621  0.0285  0.3167
  236MOL0     C31779   4.788   8.803  10.062 -0.4593  0.2338  0.4249
  236MOL0     C31780   5.221   8.763  10.184 -0.0572 -0.3723  0.1076
  236MOL0     C31781   5.288   8.845  10.103 -0.0051  0.7027  0.5969
  236MOL0     C31782   5.423   8.864  10.127 -0.6131 -0.4607  0.3959
  236MOL0     C31783   5.498   8.797  10.226  0.5473  0.8912  0.2232
  236MOL0     O31784   5.622   8.842  10.256  0.1915  0.2279  0.2976
  236MOL0     C31785   5.701   8.753  10.334  0.2998 -0.5684 -0.3348
  236MOL0     C31786   5.810   8.839  10.403 -0.1796  0.1692  0.1866
  236MOL0     C31787   5.947   8.773  10.388  0.4438  0.0498 -0.1611
  236MOL0     C31788   6.052   8.890  10.395  0.0906 -0.5247 -0.6648
  236MOL0     C31789   6.188   8.860  10.357  0.1925  0.8055  0.1423
  236MOL0     C31790   6.303   8.833  10.322  0.7443  0.8505  0.1148
  236MOL0     C31791   5.431   8.693  10.295  0.4957  0.6452 -0.4607
  236MOL0     C31792   5.291   8.679  10.263 -0.9061 -0.0326 -0.1212
  236MOL0     H31793   4.901   9.070  10.226  0.0053 -0.0507  0.6725
  236MOL0     H31794   4.668   9.140  10.206 -1.1439  0.1927  0.6314
  236MOL0     H31795   4.346   8.897   9.964 -0.4695 -1.0662  0.5858
  236MOL0     H31796   4.392   8.826  10.126 -1.5690  0.5395  1.4407
  236MOL0     H31797   4.259   8.992  10.230 -1.9108  0.6410  0.2034
  236MOL0     H31798   4.197   9.074  10.088 -0.9154 -0.4229  1.2397
  236MOL0     H31799   4.104   8.873  10.003  3.1730  2.0354 -1.8587
  236MOL0     H31800   4.169   8.783  10.148 -1.4285  0.1719  0.3466
  236MOL0     H31801   4.037   8.910  10.292 -0.7526  0.2208  0.2469
  236MOL0     H31802   3.958   8.999  10.169 -2.1143 -1.2819  1.1961
  236MOL0     H31803   3.949   8.702  10.184  0.1331  0.7782  1.4250
  236MOL0     H31804   3.827   8.796  10.254 -1.3790 -1.1522 -1.2827
  236MOL0     H31805   3.781   8.906  10.041  0.9358  0.7800 -1.0998
  236MOL0     H31806   3.891   8.792   9.956  0.8922 -0.1438  1.2824
  236MOL0     H31807   3.753   8.601  10.056  1.7104  0.5782  0.8994
  236MOL0     H31808   3.647   8.714  10.135 -1.4510 -1.0012 -1.8251
  236MOL0     H31809   3.681   8.712   9.835 -1.1791 -2.0799 -0.9187
  236MOL0     H31810   3.585   8.824   9.924  4.9003  1.2948  2.3438
  236MOL0     H31811   3.396   8.614  10.091 -2.1154  2.2498 -1.6423
  236MOL0     H31812   3.279   8.290   9.901  1.6691 -1.1144  1.2041
  236MOL0     H31813   3.271   8.353  10.063 -1.7320  2.7758  0.2338
  236MOL0     H31814   3.058   8.324   9.912 -1.7061  0.8589  1.4381
  236MOL0     H31815   3.119   8.473   9.834 -3.0925 -0.8421 -0.6536
  236MOL0     H31816   3.101   8.578  10.074  2.4006 -1.2886  1.4370
  236MOL0     H31817   3.070   8.423  10.137 -0.8736 -0.6564  0.4487
  236MOL0     H31818   2.851   8.521  10.125  0.5961  0.4209  0.6163
  236MOL0     H31819   2.856   8.407   9.987 -0.6762 -0.2717  2.9527
  236MOL0     H31820   2.732   8.785  10.021 -2.1514  2.3907  0.7322
  236MOL0     H31821   2.449   8.909   9.993 -0.9824 -0.2353 -0.6884
  236MOL0     H31822   2.612   8.966   9.927  2.1537 -3.1782 -2.3780
  236MOL0     H31823   2.476   8.971   9.822  0.2613 -1.6583 -1.0639
  236MOL0     H31824   2.257   8.576   9.499  0.6622  0.7416  0.6024
  236MOL0     H31825   2.101   8.580   9.325  1.6972 -0.2117 -1.5323
  236MOL0     H31826   1.925   8.966   9.185  1.1701  0.2143  0.7155
  236MOL0     H31827   2.035   8.892   9.070  1.2098 -2.3126  0.4397
  236MOL0     H31828   1.799   8.915   8.975 -2.5155  1.1538  2.0609
  236MOL0     H31829   1.847   8.746   8.985 -0.5561 -0.8220  0.9025
  236MOL0     H31830   1.714   8.875   9.231 -1.0622 -0.0737  0.1191
  236MOL0     H31831   1.719   8.710   9.160  0.3869  0.3082 -1.3121
  236MOL0     H31832   1.581   8.960   9.044  0.8967  0.0784  0.5667
  236MOL0     H31833   1.556   8.788   8.998  0.2933  0.5335 -1.7077
  236MOL0     H31834   1.360   8.902   9.137 -0.7953 -2.4477  1.3545
  236MOL0     H31835   1.467   8.953   9.254 -1.3291  0.9079 -1.4461
  236MOL0     H31836   1.407   8.666   9.170 -2.2243 -0.5673  1.7935
  236MOL0     H31837   1.525   8.699   9.302 -0.9108 -0.6172  1.7104
  236MOL0     H31838   1.255   8.807   9.343 -0.9438 -2.2869  0.2357
  236MOL0     H31839   1.372   8.766   9.459 -1.5940  0.7869  1.3063
  236MOL0     H31840   1.353   8.520   9.399 -0.3481 -0.3503  0.5092
  236MOL0     H31841   1.216   8.547   9.292  0.5496 -0.0740  0.4901
  236MOL0     H31842   2.068   9.010   9.344 -0.4870 -0.6729 -0.1056
  236MOL0     H31843   2.243   9.021   9.493  0.0363  1.7243 -2.3760
  236MOL0     H31844   2.536   8.514   9.663  4.0654 -0.5727 -1.0241
  236MOL0     H31845   2.764   8.462   9.753  3.0227  0.5807  2.4984
  236MOL0     H31846   4.581   8.782   9.982  0.0447  0.7347 -0.3434
  236MOL0     H31847   4.851   8.723  10.024  4.9018  2.3407  3.6804
  236MOL0     H31848   5.233   8.888  10.020 -0.1346 -2.9051 -1.3948
  236MOL0     H31849   5.481   8.917  10.051  1.1068 -2.3676  0.2718
  236MOL0     H31850   5.660   8.695  10.417  1.3542  0.3379  0.8650
  236MOL0     H31851   5.744   8.680  10.265 -0.2925 -1.7315  0.4899
  236MOL0     H31852   5.782   8.851  10.508 -3.0552  0.9140 -0.5751
  236MOL0     H31853   5.811   8.943  10.370  1.8123 -0.3393 -1.5650
  236MOL0     H31854   5.973   8.711  10.301  0.9538  0.4325 -0.2846
  236MOL0     H31855   5.948   8.711  10.478  0.8668  1.9395  1.1949
  236MOL0     H31856   6.046   8.937  10.493  0.5241  2.7778 -2.0819
  236MOL0     H31857   6.022   8.969  10.326  1.2281  2.9653  2.5014
  236MOL0     H31858   6.393   8.819  10.264 -0.7461 -0.1554 -2.1052
  236MOL0     H31859   5.473   8.627  10.370  0.2030 -1.0609 -1.7308
  236MOL0     H31860   5.234   8.610  10.325  1.6173 -0.8092  1.4422
  237MOL0     O31861   6.633   9.993   6.717 -0.4269  0.0806  0.0912
  237MOL0     C31862   6.651   9.900   6.802 -0.0561 -0.3579  0.7827
  237MOL0     O31863   6.567   9.851   6.900 -0.2228  0.0134  0.1472
  237MOL0     C31864   6.446   9.909   6.925 -0.2369  0.1294  0.2788
  237MOL0     C31865   6.332   9.836   6.960  0.4311  0.3445  0.6122
  237MOL0     C31866   6.219   9.896   7.011 -0.0872  0.7707  0.2376
  237MOL0     C31867   6.206  10.037   7.021  0.8153 -0.8656  0.3605
  237MOL0     O31868   6.086  10.108   7.052  0.4764 -0.2395 -0.1018
  237MOL0     C31869   5.963  10.027   7.035 -0.7380  0.0914 -0.0540
  237MOL0     C31870   5.838  10.116   7.035 -0.7084 -0.9207  1.3650
  237MOL0     C31871   5.699  10.044   7.015 -0.5077  0.8397  0.5033
  237MOL0     C31872   5.664  10.027   6.861  1.4952  0.3018  0.0573
  237MOL0     C31873   5.541   9.935   6.855  0.3906 -0.1672 -0.4330
  237MOL0     C31874   5.519   9.897   6.709  0.7269  0.6721  0.2611
  237MOL0     C31875   5.476  10.018   6.627  0.3842  0.2061 -0.1675
  237MOL0     C31876   5.492   9.987   6.473 -0.3982 -0.0304 -0.7833
  237MOL0     N31877   5.405   9.884   6.420 -0.3510 -0.6737  0.6626
  237MOL0     C31878   5.277   9.916   6.392 -0.3843 -0.3715  0.3180
  237MOL0     C31879   5.225   9.795   6.352  0.3170  0.2329 -0.3380
  237MOL0     C31880   5.075   9.775   6.341 -0.3159  0.3220  0.4170
  237MOL0     C31881   5.017   9.810   6.480 -0.3065 -0.2532 -0.0400
  237MOL0     C31882   4.870   9.800   6.490  0.5831 -0.3429  0.1721
  237MOL0     C31883   4.813   9.664   6.459  0.6658  0.0913  0.1422
  237MOL0     O31884   4.674   9.669   6.507 -0.6003 -0.1582  0.1235
  237MOL0     C31885   4.592   9.563   6.461 -0.1470  1.2551 -0.5212
  237MOL0     C31886   4.636   9.450   6.388 -0.0447  1.2124 -0.4472
  237MOL0     C31887   4.556   9.337   6.351 -0.2786  0.5326 -0.3123
  237MOL0     C31888   4.618   9.231   6.272 -0.1598  0.8596  0.5425
  237MOL0     C31889   4.428   9.336   6.394 -0.4750  0.9946 -0.4614
  237MOL0     C31890   4.338   9.219   6.368 -0.2796 -0.0013  0.3960
  237MOL0     O31891   4.373   9.089   6.408  0.0405  0.2130 -0.1775
  237MOL0     C31892   4.325   8.985   6.340 -0.0079  0.4797  0.4653
  237MOL0     C31893   4.314   8.974   6.200  0.0358 -0.5386 -0.5161
  237MOL0     C31894   4.282   8.859   6.141  0.3250  0.4500  0.1308
  237MOL0     C31895   4.261   8.743   6.212 -0.5953 -0.6458 -0.4614
  237MOL0     O31896   4.238   8.627   6.135  0.0660 -0.1008  0.0174
  237MOL0     C31897   4.206   8.501   6.200 -0.3074  0.1679 -0.4605
  237MOL0     C31898   4.199   8.394   6.096 -0.3043 -0.2930 -0.1347
  237MOL0     C31899   4.117   8.274   6.140  0.5963 -0.1000 -0.8139
  237MOL0     C31900   3.968   8.296   6.158  0.0475  0.0430 -0.5184
  237MOL0     C31901   3.885   8.157   6.159  0.1496 -0.9988 -0.9082
  237MOL0     C31902   3.750   8.181   6.210  0.0813  0.1471  0.0513
  237MOL0     C31903   3.682   8.058   6.266  0.0117  1.1242  0.4442
  237MOL0     C31904   3.550   8.093   6.332  1.0290 -0.1445  0.3638
  237MOL0    Cl31905   3.572   8.180   6.483  0.2306 -0.3459 -0.4659
  237MOL0     C31906   4.258   8.751   6.358  0.1374 -0.2416  0.3604
  237MOL0     C31907   4.300   8.870   6.419 -0.6069 -1.5147 -0.2327
  237MOL0     O31908   4.229   9.248   6.318 -0.3807  0.7246  0.2080
  237MOL0     C31909   4.380   9.442   6.475  0.1024  0.9040 -0.0278
  237MOL0     C31910   4.458   9.554   6.504 -0.3575 -1.0124 -0.3639
  237MOL0     N31911   5.329   9.701   6.353  0.0647 -0.1067  0.8070
  237MOL0     N31912   5.439   9.761   6.390  0.4194 -1.1291  0.1088
  237MOL0     C31913   6.320  10.111   6.983 -0.4854  0.1572  1.3302
  237MOL0     C31914   6.436  10.047   6.941 -0.2611 -0.9429  0.4329
  237MOL0     C31915   6.781   9.836   6.795 -0.0361  0.1019 -0.0022
  237MOL0     C31916   6.827   9.734   6.889  0.5812  0.0038  0.3154
  237MOL0     C31917   6.943   9.670   6.873 -1.4811 -0.2756 -0.0228
  237MOL0     C31918   7.038   9.715   6.772 -0.5570 -0.0303  0.7627
  237MOL0     O31919   7.167   9.662   6.783  1.0839  0.4459  0.2339
  237MOL0     C31920   7.275   9.714   6.710 -0.2333 -0.1574  0.0287
  237MOL0     C31921   7.400   9.670   6.770  0.6743  0.6955  1.2814
  237MOL0     C31922   7.517   9.733   6.686  0.5650 -0.7232  0.5877
  237MOL0     C31923   7.649   9.687   6.739  0.3329  0.2795 -0.2244
  237MOL0     C31924   7.657   9.542   6.715  0.1276 -0.5003  0.5476
  237MOL0     C31925   7.659   9.422   6.695 -0.1537 -0.1512  0.3226
  237MOL0     C31926   6.996   9.809   6.684 -0.2085  0.0198 -0.4969
  237MOL0     C31927   6.872   9.857   6.687 -0.2957  0.1599  0.0205
  237MOL0     H31928   6.337   9.728   6.952  0.7017  0.2270  2.0900
  237MOL0     H31929   6.138   9.836   7.051 -0.7687  2.4143  1.4195
  237MOL0     H31930   5.953   9.958   6.950 -1.6221 -0.4087  0.4400
  237MOL0     H31931   5.951   9.968   7.126 -3.7211 -0.3750 -0.6296
  237MOL0     H31932   5.846  10.177   7.125  0.2750 -0.6818  1.1308
  237MOL0     H31933   5.851  10.179   6.947  2.0528 -1.4668  1.2897
  237MOL0     H31934   5.705   9.948   7.067 -1.0254 -0.1755 -1.2120
  237MOL0     H31935   5.615  10.094   7.064  0.1440 -0.3016  2.9843
  237MOL0     H31936   5.625  10.126   6.833  0.8864  0.6442  1.9651
  237MOL0     H31937   5.749   9.985   6.805  0.4691  1.4721 -2.5448
  237MOL0     H31938   5.559   9.841   6.908  2.5105  0.9252  0.9052
  237MOL0     H31939   5.452   9.980   6.900  0.5164  0.1678 -0.5199
  237MOL0     H31940   5.607   9.847   6.666 -1.7112 -2.2799 -1.7161
  237MOL0     H31941   5.447   9.815   6.708  2.8684 -1.3650 -1.8924
  237MOL0     H31942   5.371  10.023   6.658  0.3684 -1.7160  0.2450
  237MOL0     H31943   5.522  10.114   6.650 -0.0550  0.6481 -1.0878
  237MOL0     H31944   5.593   9.963   6.439 -0.2868  1.8363 -1.9659
  237MOL0     H31945   5.469  10.087   6.433  0.5636  0.3138 -0.5002
  237MOL0     H31946   5.234  10.011   6.419  1.6981  0.9168 -0.6335
  237MOL0     H31947   5.031   9.839   6.263 -0.2840  0.2762  0.3617
  237MOL0     H31948   5.060   9.671   6.310  1.4108  0.2435 -0.2756
  237MOL0     H31949   5.046   9.907   6.523  1.2330 -0.5524 -0.3624
  237MOL0     H31950   5.053   9.739   6.555  0.2911 -1.2289 -1.2227
  237MOL0     H31951   4.819   9.867   6.420  1.1435 -1.4000 -1.2957
  237MOL0     H31952   4.838   9.817   6.593  2.9278 -0.4006  0.9659
  237MOL0     H31953   4.873   9.590   6.514 -0.8656  0.3805  2.3128
  237MOL0     H31954   4.823   9.648   6.352  3.1001  1.5180  0.0776
  237MOL0     H31955   4.740   9.446   6.357  0.6209  3.5170  1.2806
  237MOL0     H31956   4.699   9.184   6.328 -0.0465 -0.4202 -0.6574
  237MOL0     H31957   4.545   9.161   6.231  0.0373  1.3781 -0.7437
  237MOL0     H31958   4.676   9.270   6.188  0.2611  2.5564  1.5602
  237MOL0     H31959   4.353   9.050   6.134  0.8643 -0.5625 -0.0592
  237MOL0     H31960   4.279   8.852   6.033  1.1712  1.6686  0.0140
  237MOL0     H31961   4.266   8.475   6.288 -0.8340  2.2921  0.5880
  237MOL0     H31962   4.109   8.522   6.246  0.9165  1.9218  1.5267
  237MOL0     H31963   4.143   8.427   6.008  2.3650 -0.1155 -1.8851
  237MOL0     H31964   4.305   8.373   6.080  0.2368  1.5734  0.6622
  237MOL0     H31965   4.155   8.238   6.236 -0.1827  0.1418 -0.4067
  237MOL0     H31966   4.121   8.190   6.069 -4.4385 -1.5260  0.2052
  237MOL0     H31967   3.940   8.352   6.248  1.5887  0.9425 -0.5588
  237MOL0     H31968   3.930   8.352   6.072  3.6538 -0.5565 -2.7400
  237MOL0     H31969   3.930   8.082   6.226 -1.0741 -0.2038  0.8973
  237MOL0     H31970   3.886   8.117   6.058  2.2852  0.5661 -1.5884
  237MOL0     H31971   3.749   8.255   6.291 -2.2932  2.2721 -1.7722
  237MOL0     H31972   3.694   8.229   6.130  0.4315  0.0407 -0.2571
  237MOL0     H31973   3.747   8.013   6.342  0.4199  2.4448  0.9043
  237MOL0     H31974   3.674   7.987   6.183  0.4247 -0.1176  1.4327
  237MOL0     H31975   3.495   8.003   6.360  0.7585 -1.4921 -3.8909
  237MOL0     H31976   3.472   8.142   6.273  2.0354  1.1179  0.0347
  237MOL0     H31977   4.216   8.676   6.425 -1.1751  2.1705  2.4081
  237MOL0     H31978   4.306   8.874   6.527 -2.7339 -3.7286  0.0713
  237MOL0     H31979   4.281   9.433   6.517 -0.1925 -3.0199 -1.1716
  237MOL0     H31980   4.430   9.628   6.579 -0.8933 -3.0579  1.5645
  237MOL0     H31981   6.298  10.217   6.975 -0.0541  0.1778  0.3496
  237MOL0     H31982   6.519  10.114   6.921  0.1021 -1.7713 -1.0322
  237MOL0     H31983   6.751   9.694   6.956 -0.6862  0.4242 -0.8550
  237MOL0     H31984   6.970   9.589   6.941 -0.6504 -0.2082 -0.2571
  237MOL0     H31985   7.259   9.699   6.603  0.6028  1.2601 -0.3167
  237MOL0     H31986   7.277   9.823   6.721  1.2766  0.0606 -1.9745
  237MOL0     H31987   7.415   9.562   6.773 -2.1076  0.2390  1.6968
  237MOL0     H31988   7.395   9.702   6.875 -1.7956 -3.8873  2.8768
  237MOL0     H31989   7.519   9.842   6.691  0.5050 -0.6833 -0.1804
  237MOL0     H31990   7.517   9.711   6.579  0.5161  3.5100 -0.4656
  237MOL0     H31991   7.653   9.707   6.847  0.0734 -0.3806 -0.0874
  237MOL0     H31992   7.735   9.732   6.689 -0.2757 -0.0270 -1.5653
  237MOL0     H31993   7.664   9.316   6.683 -2.5361 -0.2644 -0.1852
  237MOL0     H31994   7.065   9.841   6.606 -1.6183 -0.0913 -1.8393
  237MOL0     H31995   6.848   9.915   6.598  0.1105  0.6088  0.2011
  238MOL0     O31996   0.992   7.678   1.160  0.4679 -0.0190  0.3896
  238MOL0     C31997   1.072   7.597   1.117 -0.6875  1.0260  0.1839
  238MOL0     O31998   1.053   7.462   1.102  0.2856 -0.3153 -0.6113
  238MOL0     C31999   0.936   7.402   1.141 -0.9471 -0.0882  0.3304
  238MOL0     C32000   0.953   7.266   1.157 -0.1107 -0.0133 -0.4044
  238MOL0     C32001   0.841   7.184   1.182  0.0363 -0.5491  0.2746
  238MOL0     C32002   0.714   7.237   1.187  0.0217 -0.3438  0.5687
  238MOL0     O32003   0.613   7.142   1.204 -0.4064 -0.4378  0.3036
  238MOL0     C32004   0.478   7.196   1.235 -0.2143 -0.1449 -1.0012
  238MOL0     C32005   0.380   7.080   1.261  0.1327 -0.0246 -0.3477
  238MOL0     C32006   0.275   7.099   1.374 -0.5260 -0.6644  0.1284
  238MOL0     C32007   0.192   6.972   1.399  0.6409 -0.3077  0.5959
  238MOL0     C32008   0.070   7.004   1.481  0.2489  0.5202 -0.2882
  238MOL0     C32009   0.102   7.065   1.617 -0.3721  0.1497 -0.6484
  238MOL0     C32010  -0.023   7.050   1.709 -0.1422  0.7736  0.0931
  238MOL0     C32011   0.017   7.097   1.846  0.5431  0.0681  0.5885
  238MOL0     N32012  -0.093   7.068   1.933 -0.1372 -0.3708  0.5389
  238MOL0     C32013  -0.209   7.149   1.952  0.1493  1.1353 -0.0686
  238MOL0     C32014  -0.247   7.125   2.080 -0.0369 -0.0983  0.3300
  238MOL0     C32015  -0.346   7.188   2.174  0.0415  1.0266 -0.2403
  238MOL0     C32016  -0.488   7.199   2.116 -0.0607  0.2852  0.2346
  238MOL0     C32017  -0.543   7.083   2.025 -0.5931 -0.0703  0.1706
  238MOL0     C32018  -0.691   7.096   1.990 -0.4484  0.3813 -0.1499
  238MOL0     O32019  -0.718   7.231   1.958 -0.3049  0.5337  0.1564
  238MOL0     C32020  -0.834   7.283   2.001 -0.4566  1.0600  0.3675
  238MOL0     C32021  -0.917   7.342   1.907 -0.4300  1.2502 -0.1902
  238MOL0     C32022  -1.027   7.413   1.938  0.0896 -0.4743  0.0957
  238MOL0     C32023  -1.112   7.472   1.823 -0.2726 -0.1116 -0.1576
  238MOL0     C32024  -1.057   7.433   2.071 -0.7798  0.4065 -0.4151
  238MOL0     C32025  -1.189   7.483   2.121 -0.6663  0.0882  0.4107
  238MOL0     O32026  -1.300   7.448   2.038 -0.1137 -0.8929 -0.3799
  238MOL0     C32027  -1.415   7.402   2.079  0.1762 -0.1110 -1.0759
  238MOL0     C32028  -1.463   7.391   2.214 -0.2124  0.6964  0.0835
  238MOL0     C32029  -1.584   7.336   2.234  0.7172  1.1468  0.3375
  238MOL0     C32030  -1.660   7.286   2.132 -0.3507 -1.4926  0.7518
  238MOL0     O32031  -1.785   7.235   2.147 -0.1275  0.0211  0.4594
  238MOL0     C32032  -1.843   7.218   2.278 -0.0450  0.1939  0.1963
  238MOL0     C32033  -1.996   7.210   2.271 -0.0888  1.0562 -0.8616
  238MOL0     C32034  -2.047   7.326   2.196  0.3391 -0.6906  0.9727
  238MOL0     C32035  -2.198   7.334   2.178  0.3894 -1.0306 -0.2359
  238MOL0     C32036  -2.276   7.378   2.306  0.1342  0.2391  0.0833
  238MOL0     C32037  -2.268   7.530   2.335  0.2186  0.1365  0.2052
  238MOL0     C32038  -2.299   7.564   2.485 -0.4198 -0.1135  0.0262
  238MOL0     C32039  -2.450   7.558   2.512 -0.1667  0.4305 -0.7823
  238MOL0    Cl32040  -2.467   7.393   2.591  0.1238  0.3368  0.2246
  238MOL0     C32041  -1.622   7.308   1.994  0.0274  0.2672 -0.1540
  238MOL0     C32042  -1.496   7.356   1.973 -0.6422  0.6795 -0.8129
  238MOL0     O32043  -1.201   7.531   2.235 -0.0953 -0.0763 -0.0865
  238MOL0     C32044  -0.978   7.372   2.173  0.6182  0.5563  0.6961
  238MOL0     C32045  -0.871   7.300   2.133  0.5207  1.4041 -0.4370
  238MOL0     N32046  -0.163   7.026   2.126 -0.1668  0.3162  0.2088
  238MOL0     N32047  -0.073   6.989   2.037  0.1363  0.1350 -0.7151
  238MOL0     C32048   0.694   7.377   1.173  0.4117  1.0627 -0.0347
  238MOL0     C32049   0.808   7.458   1.154  0.2542  0.3865 -1.1424
  238MOL0     C32050   1.210   7.635   1.127 -1.0338  0.5667  0.4621
  238MOL0     C32051   1.253   7.757   1.174  0.1980 -0.1917  0.5384
  238MOL0     C32052   1.389   7.790   1.164  0.6836 -1.0271  0.5504
  238MOL0     C32053   1.488   7.716   1.112 -0.0546 -0.9444 -0.4881
  238MOL0     O32054   1.613   7.768   1.078  0.0997  0.0405  0.0353
  238MOL0     C32055   1.699   7.688   0.999 -0.0666  0.5283 -0.1630
  238MOL0     C32056   1.826   7.764   0.982  0.3868 -0.0293  0.1027
  238MOL0     C32057   1.908   7.772   1.113  0.4784 -0.9981 -0.0220
  238MOL0     C32058   2.026   7.866   1.097  0.4255 -0.6643 -0.3603
  238MOL0     C32059   2.129   7.806   1.014  0.4883 -0.0027 -0.4981
  238MOL0     C32060   2.219   7.763   0.946 -0.2403 -1.0907 -0.1074
  238MOL0     C32061   1.446   7.590   1.068  0.8690  0.5690 -1.1366
  238MOL0     C32062   1.310   7.546   1.077 -0.4716  0.4952 -0.2872
  238MOL0     H32063   1.052   7.231   1.133  1.6354  4.4685 -0.6289
  238MOL0     H32064   0.832   7.076   1.184  0.1496 -0.6165 -1.3205
  238MOL0     H32065   0.482   7.255   1.327 -0.3523  0.0693 -1.1324
  238MOL0     H32066   0.424   7.240   1.150 -4.1230 -3.9747 -0.8742
  238MOL0     H32067   0.340   7.042   1.166 -0.6259  0.6463 -0.3055
  238MOL0     H32068   0.440   6.992   1.286 -0.1330 -0.2730 -0.5778
  238MOL0     H32069   0.332   7.138   1.458  1.2073 -3.4626  0.3547
  238MOL0     H32070   0.218   7.184   1.332  1.8587  2.0146  1.9642
  238MOL0     H32071   0.159   6.926   1.305  2.1673  0.9761 -0.6162
  238MOL0     H32072   0.250   6.903   1.461  0.5682  1.4115  2.6609
  238MOL0     H32073   0.000   7.071   1.430  0.1712  0.2053 -0.5991
  238MOL0     H32074   0.013   6.911   1.487  1.0324 -0.2195 -2.8602
  238MOL0     H32075   0.189   7.016   1.663 -0.4967  1.5847  1.2322
  238MOL0     H32076   0.126   7.172   1.612  1.4822 -0.2166 -0.4683
  238MOL0     H32077  -0.106   7.106   1.666  0.7866  3.5130  1.6363
  238MOL0     H32078  -0.050   6.945   1.726  3.4048 -0.1827  0.6668
  238MOL0     H32079   0.051   7.201   1.848  0.1192  0.2309 -0.1232
  238MOL0     H32080   0.098   7.041   1.894  1.2512  1.9749  1.7235
  238MOL0     H32081  -0.250   7.218   1.879 -0.4780 -1.5033 -2.4037
  238MOL0     H32082  -0.358   7.123   2.261 -2.1399 -1.8539 -2.4402
  238MOL0     H32083  -0.321   7.293   2.192  0.7975  0.8152 -0.0275
  238MOL0     H32084  -0.495   7.292   2.059 -2.1269  0.5414  0.8351
  238MOL0     H32085  -0.559   7.200   2.199 -1.6151  2.0723 -1.0359
  238MOL0     H32086  -0.532   6.979   2.056  0.4531 -0.8260 -2.4733
  238MOL0     H32087  -0.476   7.095   1.939  1.1159 -0.7880  1.3408
  238MOL0     H32088  -0.747   7.052   2.073  0.6439  0.9206  0.9125
  238MOL0     H32089  -0.719   7.032   1.906  2.7826  1.2196 -2.0711
  238MOL0     H32090  -0.889   7.340   1.802  3.3492 -3.3901  0.5367
  238MOL0     H32091  -1.059   7.484   1.729  1.8203 -0.0081  0.9834
  238MOL0     H32092  -1.190   7.398   1.807  0.4526 -1.2059  1.1540
  238MOL0     H32093  -1.168   7.565   1.835 -0.4486 -0.3953  1.5006
  238MOL0     H32094  -1.404   7.419   2.301 -1.3332 -1.4744  1.6492
  238MOL0     H32095  -1.609   7.314   2.337  0.1222 -3.8868 -0.5918
  238MOL0     H32096  -1.791   7.135   2.328  0.1464 -0.3297 -0.8604
  238MOL0     H32097  -1.818   7.307   2.337  3.6372 -0.2341 -0.5050
  238MOL0     H32098  -2.014   7.120   2.210  2.6998 -0.5451  0.4697
  238MOL0     H32099  -2.034   7.192   2.372  2.2397  0.7909  0.0298
  238MOL0     H32100  -2.002   7.321   2.097  1.4235  0.4781  1.3779
  238MOL0     H32101  -2.012   7.421   2.237 -0.2976 -0.3986  0.8568
  238MOL0     H32102  -2.220   7.394   2.089  1.1301 -1.8207 -0.9668
  238MOL0     H32103  -2.228   7.231   2.159 -2.1337 -0.5423  0.6030
  238MOL0     H32104  -2.248   7.315   2.391 -0.9409 -1.8107 -1.0158
  238MOL0     H32105  -2.380   7.362   2.277 -0.0069  0.0395  0.6893
  238MOL0     H32106  -2.174   7.572   2.297 -0.9582  0.8899 -1.9880
  238MOL0     H32107  -2.339   7.576   2.267 -0.4755 -3.0518 -1.4465
  238MOL0     H32108  -2.263   7.666   2.500  2.2030 -1.2493  2.1313
  238MOL0     H32109  -2.235   7.503   2.549  2.4013  2.1163 -0.4762
  238MOL0     H32110  -2.505   7.555   2.417 -1.0216  0.1934 -0.2873
  238MOL0     H32111  -2.495   7.639   2.570  0.1116  0.8089 -1.0874
  238MOL0     H32112  -1.696   7.285   1.918 -2.5811  2.3256  1.5470
  238MOL0     H32113  -1.463   7.356   1.869 -0.3652  0.4397 -0.7275
  238MOL0     H32114  -1.013   7.380   2.275  1.3133 -2.7544  1.3001
  238MOL0     H32115  -0.818   7.250   2.214 -0.6442 -0.1481 -0.5595
  238MOL0     H32116   0.598   7.427   1.181  0.4898  1.2031  0.0322
  238MOL0     H32117   0.788   7.564   1.143  0.2637  0.5030 -0.0881
  238MOL0     H32118   1.186   7.822   1.230 -2.8016 -0.2689 -2.6271
  238MOL0     H32119   1.413   7.888   1.204  3.2854 -2.0060  1.5950
  238MOL0     H32120   1.724   7.590   1.042  0.9850  0.8667  0.0233
  238MOL0     H32121   1.657   7.660   0.902  1.2846  3.8046 -1.8402
  238MOL0     H32122   1.803   7.863   0.942  0.4488  0.5025  1.3331
  238MOL0     H32123   1.896   7.718   0.912  2.0909  1.5302  0.6876
  238MOL0     H32124   1.948   7.670   1.124 -1.6538 -1.9230 -0.3599
  238MOL0     H32125   1.854   7.800   1.203  1.9906 -0.1082  0.6547
  238MOL0     H32126   2.058   7.892   1.198  0.6912  2.1140 -1.0711
  238MOL0     H32127   1.988   7.958   1.050 -1.5489 -1.1611  0.1790
  238MOL0     H32128   2.282   7.719   0.870 -0.0922 -0.1668 -0.5372
  238MOL0     H32129   1.510   7.518   1.019  1.7876  1.2260 -0.9273
  238MOL0     H32130   1.280   7.453   1.030 -0.1977  1.0258 -1.5767
  239MOL0     O32131  10.232   1.700   2.525 -0.0706  0.1115  0.2439
  239MOL0     C32132  10.282   1.660   2.627 -0.0027  0.5917 -0.0025
  239MOL0     O32133  10.215   1.604   2.736  0.3188  0.1611  0.0927
  239MOL0     C32134  10.074   1.614   2.737 -0.1340 -0.4658 -0.0913
  239MOL0     C32135  10.014   1.739   2.736  0.4618 -0.4984  0.0935
  239MOL0     C32136   9.875   1.762   2.750 -0.1459 -0.1280  0.8611
  239MOL0     C32137   9.792   1.651   2.743 -0.5117  0.6552  0.8843
  239MOL0     O32138   9.656   1.665   2.737  0.2203  0.6814  0.2479
  239MOL0     C32139   9.592   1.682   2.859  0.0307 -0.0194 -0.0694
  239MOL0     C32140   9.443   1.697   2.825 -0.5018  0.5238 -0.5266
  239MOL0     C32141   9.379   1.565   2.777 -0.8804  0.3028 -0.0824
  239MOL0     C32142   9.223   1.572   2.778  0.0944 -0.1374  0.6618
  239MOL0     C32143   9.149   1.460   2.708  0.1457  0.3953  0.7497
  239MOL0     C32144   8.995   1.478   2.709  1.1112  0.0034  0.9379
  239MOL0     C32145   8.939   1.599   2.618 -0.3744  0.5718 -0.0266
  239MOL0     C32146   8.791   1.623   2.654  1.0173 -0.1265 -0.0923
  239MOL0     N32147   8.738   1.746   2.590  0.3672 -0.1157  0.2814
  239MOL0     C32148   8.689   1.762   2.465 -0.1942 -0.5855  0.3075
  239MOL0     C32149   8.632   1.886   2.468 -0.3867  0.5123 -1.0175
  239MOL0     C32150   8.550   1.936   2.352  0.5097  0.3341 -0.2334
  239MOL0     C32151   8.401   1.904   2.378  1.3716  0.3517  0.3284
  239MOL0     C32152   8.305   1.978   2.279 -0.7923 -0.2422 -0.3561
  239MOL0     C32153   8.153   1.955   2.298 -0.1328  0.6315  0.4917
  239MOL0     O32154   8.080   2.019   2.194  0.3687  0.2058  0.5999
  239MOL0     C32155   7.934   2.027   2.211  0.4428 -1.0351  0.5880
  239MOL0     C32156   7.875   2.107   2.122  0.4550 -0.4335 -0.2853
  239MOL0     C32157   7.740   2.120   2.110 -0.4311 -0.2718  0.0448
  239MOL0     C32158   7.694   2.217   2.011 -0.1625 -0.0125  0.3574
  239MOL0     C32159   7.656   2.046   2.196  0.0601  0.3824  0.1263
  239MOL0     C32160   7.504   2.053   2.196 -1.2181 -0.5692  0.3950
  239MOL0     O32161   7.438   2.138   2.103  0.5068 -0.0710 -0.1466
  239MOL0     C32162   7.304   2.146   2.096  0.6012 -0.2587  1.1992
  239MOL0     C32163   7.264   2.274   2.049 -0.1417 -1.0247 -0.0199
  239MOL0     C32164   7.126   2.298   2.034 -0.1240 -0.8240  0.0523
  239MOL0     C32165   7.029   2.212   2.065  0.5331 -0.3461 -0.6787
  239MOL0     O32166   6.901   2.254   2.041 -0.4535  0.1661 -0.4318
  239MOL0     C32167   6.829   2.153   1.974 -0.2023 -0.1834 -0.7217
  239MOL0     C32168   6.721   2.227   1.909 -0.0942  0.6965  0.1355
  239MOL0     C32169   6.650   2.147   1.804 -0.5974  0.7829  0.2129
  239MOL0     C32170   6.518   2.202   1.760  0.2493 -0.2338 -0.5501
  239MOL0     C32171   6.456   2.110   1.658  0.2296 -0.1230 -0.6093
  239MOL0     C32172   6.309   2.162   1.624  0.3195  0.4426 -0.2347
  239MOL0     C32173   6.246   2.079   1.511 -0.3444  0.1301 -0.2017
  239MOL0     C32174   6.108   2.118   1.482  0.3934  0.6949 -1.0641
  239MOL0    Cl32175   6.069   2.066   1.313  0.0685 -0.3426 -0.1243
  239MOL0     C32176   7.072   2.093   2.111 -0.3592  0.6908  0.6438
  239MOL0     C32177   7.205   2.051   2.123  0.5496  0.1267  0.3013
  239MOL0     O32178   7.453   1.983   2.279 -0.5175 -0.3017  0.1627
  239MOL0     C32179   7.715   1.965   2.300 -0.5601 -0.3968 -0.0497
  239MOL0     C32180   7.852   1.955   2.299 -0.0280 -0.3496  0.5784
  239MOL0     N32181   8.641   1.944   2.600  0.1409 -0.4961 -0.4984
  239MOL0     N32182   8.709   1.858   2.670 -0.1062 -0.5976 -0.3023
  239MOL0     C32183   9.853   1.525   2.740 -0.1554  0.7926 -0.2528
  239MOL0     C32184   9.991   1.507   2.744  0.5123  0.2549 -0.4716
  239MOL0     C32185  10.428   1.671   2.623 -0.0909 -0.2458  0.0044
  239MOL0     C32186  10.512   1.706   2.522  0.3007 -0.7532  0.0229
  239MOL0     C32187  10.647   1.738   2.547 -0.1973  0.1047  0.9107
  239MOL0     C32188  10.706   1.726   2.673  0.0195 -0.4711 -0.9932
  239MOL0     O32189  10.830   1.785   2.682 -0.0314  0.5640 -0.1741
  239MOL0     C32190  10.891   1.776   2.809 -0.6050  0.4363 -0.1448
  239MOL0     C32191  11.009   1.883   2.805  0.4845  0.1304 -0.2126
  239MOL0     C32192  10.962   2.026   2.778  0.8637  0.6008  0.3424
  239MOL0     C32193  10.865   2.080   2.880 -0.1131 -0.2282 -0.1006
  239MOL0     C32194  10.910   2.088   3.016  0.3902  0.9530 -0.8536
  239MOL0     C32195  10.966   2.086   3.122  0.8545  0.5432  1.1785
  239MOL0     C32196  10.619   1.684   2.777 -0.6500 -0.2736  0.8635
  239MOL0     C32197  10.489   1.651   2.748  0.8356 -0.6341 -0.0519
  239MOL0     H32198  10.066   1.832   2.716 -1.8292  1.0381  0.7872
  239MOL0     H32199   9.831   1.861   2.739 -2.6065 -1.3364 -1.6887
  239MOL0     H32200   9.615   1.592   2.917 -0.5584  1.0848  1.9458
  239MOL0     H32201   9.610   1.765   2.928 -0.1815 -2.0993  2.6374
  239MOL0     H32202   9.377   1.719   2.909 -0.8764  0.6486 -0.8504
  239MOL0     H32203   9.433   1.775   2.750  0.9575 -0.4360 -1.7961
  239MOL0     H32204   9.410   1.537   2.677 -0.8645  1.1169 -0.3090
  239MOL0     H32205   9.406   1.477   2.836 -2.6056 -0.2265 -0.0103
  239MOL0     H32206   9.189   1.586   2.881  2.3637  2.3256  1.2175
  239MOL0     H32207   9.202   1.666   2.726 -1.3412 -0.2964  0.9130
  239MOL0     H32208   9.192   1.452   2.607  1.8063  0.9141  1.3755
  239MOL0     H32209   9.168   1.359   2.746  1.8304 -1.2318 -3.7252
  239MOL0     H32210   8.950   1.388   2.667  0.3405  1.0929 -0.6603
  239MOL0     H32211   8.952   1.485   2.809 -0.6711  0.0009  0.2116
  239MOL0     H32212   9.003   1.687   2.626  2.3677 -0.9707 -2.6631
  239MOL0     H32213   8.950   1.555   2.518 -0.3671  1.8653 -0.6079
  239MOL0     H32214   8.768   1.631   2.761  2.4752 -1.5190  0.3610
  239MOL0     H32215   8.740   1.532   2.622  1.5074 -0.3293 -0.3102
  239MOL0     H32216   8.684   1.689   2.385 -3.9156 -0.9856  0.7182
  239MOL0     H32217   8.564   2.043   2.331  1.4871  0.2201 -0.1994
  239MOL0     H32218   8.580   1.873   2.268  1.7597 -0.3595  0.7024
  239MOL0     H32219   8.384   1.934   2.482  1.0936 -2.3904  1.1625
  239MOL0     H32220   8.391   1.796   2.367  3.1746  0.3762 -2.4071
  239MOL0     H32221   8.339   1.952   2.179  0.7657 -1.5594  0.4595
  239MOL0     H32222   8.326   2.085   2.290  0.8936 -0.7868  2.8146
  239MOL0     H32223   8.123   2.001   2.393 -1.6292  0.9237 -0.0878
  239MOL0     H32224   8.137   1.848   2.286  1.9460  0.3224  0.0655
  239MOL0     H32225   7.929   2.157   2.042 -0.2968 -1.0866 -1.2322
  239MOL0     H32226   7.641   2.300   2.060  0.7911  0.7742  0.0957
  239MOL0     H32227   7.775   2.253   1.947  0.6215 -3.3491 -0.6957
  239MOL0     H32228   7.622   2.175   1.941 -2.0524 -3.8892  4.1287
  239MOL0     H32229   7.341   2.350   2.040  1.2868 -2.2094  1.4921
  239MOL0     H32230   7.091   2.391   1.990 -0.5260 -1.3021 -0.6458
  239MOL0     H32231   6.881   2.096   1.896 -2.7271 -4.7787  0.6238
  239MOL0     H32232   6.790   2.088   2.053 -0.1654  2.6703  1.8218
  239MOL0     H32233   6.648   2.253   1.986  1.5161 -0.1053  2.0182
  239MOL0     H32234   6.761   2.320   1.866 -1.1291  2.5097  2.8491
  239MOL0     H32235   6.631   2.048   1.845 -0.2209  0.4312 -0.4445
  239MOL0     H32236   6.707   2.138   1.711 -0.4044  1.4626  0.2574
  239MOL0     H32237   6.446   2.196   1.842 -0.3448 -2.6530 -1.1517
  239MOL0     H32238   6.529   2.302   1.717 -2.5618 -0.7772 -2.8310
  239MOL0     H32239   6.454   2.008   1.696  1.3012  0.1203  0.1326
  239MOL0     H32240   6.506   2.104   1.561  0.5754  0.9784 -0.5133
  239MOL0     H32241   6.252   2.144   1.715  0.0652 -0.6305 -0.5897
  239MOL0     H32242   6.309   2.269   1.600 -3.2670 -0.0518 -3.3956
  239MOL0     H32243   6.239   1.976   1.547  2.2766  0.5542  1.8290
  239MOL0     H32244   6.303   2.087   1.418 -1.8946 -0.1581 -1.2253
  239MOL0     H32245   6.098   2.225   1.503 -1.0269  0.1231  1.6455
  239MOL0     H32246   6.038   2.075   1.554  1.5109  2.8354  1.4718
  239MOL0     H32247   6.991   2.023   2.126 -1.4849  1.7144 -0.4395
  239MOL0     H32248   7.233   1.948   2.145 -0.8992 -0.6302 -1.1803
  239MOL0     H32249   7.662   1.897   2.365  0.4804  1.6435  3.2026
  239MOL0     H32250   7.895   1.887   2.371  0.0138  0.4600  1.3348
  239MOL0     H32251   9.792   1.435   2.746  2.1203 -1.3846 -4.9791
  239MOL0     H32252  10.021   1.403   2.750  0.0422  0.1605  0.4867
  239MOL0     H32253  10.476   1.725   2.421 -0.2833 -2.2784 -0.0854
  239MOL0     H32254  10.709   1.767   2.463  0.5786  1.5840  1.9454
  239MOL0     H32255  10.818   1.800   2.887 -2.1688  1.4754 -1.8190
  239MOL0     H32256  10.934   1.680   2.837  0.3756  1.6992  3.1429
  239MOL0     H32257  11.080   1.856   2.726  0.3370 -1.0700  0.0453
  239MOL0     H32258  11.071   1.884   2.894  0.8733  0.8877 -0.4800
  239MOL0     H32259  10.915   2.046   2.682  0.2963  1.4811  0.7857
  239MOL0     H32260  11.046   2.096   2.781 -0.9580  2.8899  1.3214
  239MOL0     H32261  10.772   2.021   2.878  0.1090 -0.5781 -0.2064
  239MOL0     H32262  10.837   2.183   2.859  1.1433 -0.1924 -1.7512
  239MOL0     H32263  11.031   2.090   3.207 -1.9820  4.0354  3.4742
  239MOL0     H32264  10.654   1.682   2.879  0.8589  0.1957  0.3870
  239MOL0     H32265  10.430   1.615   2.832  0.2519 -1.2401 -0.7080
  240MOL0     O32266   7.925   3.794   9.285 -0.2708 -0.3237  0.2224
  240MOL0     C32267   7.967   3.901   9.336  0.3244  0.7951  0.4810
  240MOL0     O32268   7.894   3.995   9.399  0.0901 -0.3588  0.3909
  240MOL0     C32269   7.755   3.985   9.435 -0.6391  0.3785  0.4008
  240MOL0     C32270   7.698   3.874   9.485  0.8181 -0.6821 -0.1472
  240MOL0     C32271   7.563   3.876   9.540 -0.4934 -0.9367  0.1715
  240MOL0     C32272   7.492   3.996   9.542  0.4510 -0.5278 -0.1924
  240MOL0     O32273   7.377   3.997   9.624  0.6145 -0.1605  0.7433
  240MOL0     C32274   7.299   4.121   9.617 -0.2456  0.5049 -0.2084
  240MOL0     C32275   7.191   4.101   9.718  0.5853 -0.1449 -0.5193
  240MOL0     C32276   7.239   4.121   9.861  0.2413  0.0336 -0.0258
  240MOL0     C32277   7.128   4.122   9.975  0.0043 -0.6929  0.2281
  240MOL0     C32278   7.011   4.020   9.955  0.2523  0.3532 -0.0107
  240MOL0     C32279   6.892   4.082   9.880  0.0304  0.6850  0.0889
  240MOL0     C32280   6.797   3.969   9.835 -0.0511 -0.5316  0.2927
  240MOL0     C32281   6.675   4.024   9.749 -0.5666 -0.6493  0.4163
  240MOL0     N32282   6.572   4.092   9.844 -0.8768  0.0240  0.5960
  240MOL0     C32283   6.520   4.221   9.822 -0.4260 -0.4981  0.2984
  240MOL0     C32284   6.441   4.234   9.930  0.4638 -0.1067  1.0215
  240MOL0     C32285   6.364   4.360   9.963  0.4783  0.1849  0.6098
  240MOL0     C32286   6.230   4.365   9.887  0.3430  0.1459 -0.0089
  240MOL0     C32287   6.145   4.481   9.940  0.9604 -0.2818  0.3482
  240MOL0     C32288   6.013   4.493   9.867  0.6924  0.4116 -0.8798
  240MOL0     O32289   5.932   4.605   9.925 -0.0766  0.5891 -0.6180
  240MOL0     C32290   5.793   4.600   9.903  0.0588  0.2791 -0.0465
  240MOL0     C32291   5.708   4.676   9.991  0.1499  0.0811  0.5045
  240MOL0     C32292   5.571   4.681   9.990  0.3649  0.9558  0.0068
  240MOL0     C32293   5.502   4.761  10.089  0.0925 -0.3538 -0.5783
  240MOL0     C32294   5.513   4.601   9.886 -0.0260  0.4405 -0.5535
  240MOL0     C32295   5.369   4.605   9.885  0.4160 -0.2867  0.3475
  240MOL0     O32296   5.297   4.504   9.956 -0.0292  0.2132 -0.2530
  240MOL0     C32297   5.164   4.512   9.956  0.6657  0.8957  0.3501
  240MOL0     C32298   5.094   4.623   9.986 -0.4143  0.0861  0.1926
  240MOL0     C32299   4.953   4.627   9.991 -0.2367  0.3581 -0.1393
  240MOL0     C32300   4.879   4.518   9.945 -0.2942  0.9746  1.2053
  240MOL0     O32301   4.741   4.516   9.940  0.7153  0.9145 -0.1122
  240MOL0     C32302   4.664   4.391   9.939  0.1311  0.1204 -0.3417
  240MOL0     C32303   4.508   4.410   9.942 -0.5613  0.6531  0.4409
  240MOL0     C32304   4.468   4.499  10.068  0.3757  0.7088  0.7427
  240MOL0     C32305   4.315   4.527  10.075  0.2821  0.4872  0.4656
  240MOL0     C32306   4.279   4.619  10.187 -0.3763 -0.1861 -0.7072
  240MOL0     C32307   4.288   4.568  10.334  0.1048 -0.3401 -0.0499
  240MOL0     C32308   4.347   4.673  10.439 -1.1770 -0.0563 -0.0265
  240MOL0     C32309   4.256   4.800  10.445  0.1582  0.6912 -0.1837
  240MOL0    Cl32310   4.092   4.748  10.510  0.4156 -0.3952  0.4103
  240MOL0     C32311   4.952   4.400   9.909  0.3166  0.7756 -0.2155
  240MOL0     C32312   5.089   4.396   9.917 -0.3332 -0.3209 -0.2601
  240MOL0     O32313   5.325   4.679   9.798  0.0219  0.3481 -0.8312
  240MOL0     C32314   5.583   4.520   9.802  0.2295 -0.0856 -0.0926
  240MOL0     C32315   5.727   4.524   9.810 -0.3780  0.4385 -0.2062
  240MOL0     N32316   6.444   4.128  10.015 -0.1163 -0.3149  0.0781
  240MOL0     N32317   6.532   4.046   9.962 -0.2906 -0.2194 -0.2354
  240MOL0     C32318   7.552   4.113   9.495  0.3688 -0.0248  0.2408
  240MOL0     C32319   7.678   4.106   9.444  0.4514  0.1410  1.1030
  240MOL0     C32320   8.113   3.916   9.328 -0.4673 -0.0761 -0.0349
  240MOL0     C32321   8.196   3.838   9.240  1.0411 -0.3841  1.2828
  240MOL0     C32322   8.331   3.857   9.244 -0.8026 -0.5422 -0.6295
  240MOL0     C32323   8.393   3.949   9.327  0.8322 -0.8115 -0.3386
  240MOL0     O32324   8.528   3.971   9.328 -0.1149  0.3075  0.0404
  240MOL0     C32325   8.606   3.872   9.255 -0.8003 -0.1307 -0.2329
  240MOL0     C32326   8.759   3.883   9.292 -0.0247  0.4796 -0.0618
  240MOL0     C32327   8.850   3.763   9.256 -0.0713 -0.6797  0.1122
  240MOL0     C32328   8.976   3.779   9.336 -0.4700 -0.2090 -0.4639
  240MOL0     C32329   9.058   3.659   9.332 -0.4096 -0.3900  0.0261
  240MOL0     C32330   9.125   3.558   9.349  0.5263  0.2169  0.2036
  240MOL0     C32331   8.316   4.027   9.414  0.8070  0.0454  0.3592
  240MOL0     C32332   8.177   4.005   9.420 -0.4027  0.0788  0.0007
  240MOL0     H32333   7.754   3.782   9.497 -1.1309 -1.9718 -0.6290
  240MOL0     H32334   7.528   3.782   9.581 -0.1694 -0.6921  1.0204
  240MOL0     H32335   7.375   4.192   9.651  0.9771 -1.8884  2.4510
  240MOL0     H32336   7.251   4.140   9.520 -1.5097 -1.6063 -0.0559
  240MOL0     H32337   7.106   4.168   9.703 -0.1780 -0.8407  0.5962
  240MOL0     H32338   7.147   4.004   9.693 -0.5140  0.9481 -3.2306
  240MOL0     H32339   7.321   4.050   9.879 -0.9677 -1.4083  0.0769
  240MOL0     H32340   7.287   4.219   9.860 -0.6717  0.5653 -3.3000
  240MOL0     H32341   7.176   4.113  10.073 -0.2696  0.3729  0.4657
  240MOL0     H32342   7.089   4.224   9.974  4.1650  1.2270 -3.3444
  240MOL0     H32343   7.058   3.931   9.912  3.3109  1.0816  1.5210
  240MOL0     H32344   6.971   4.003  10.056  1.7288 -1.9706  0.2683
  240MOL0     H32345   6.838   4.155   9.941 -0.9744 -0.5425  0.7278
  240MOL0     H32346   6.919   4.125   9.784 -0.4310  1.1097  0.1446
  240MOL0     H32347   6.854   3.902   9.770  0.0302 -0.0268 -0.1704
  240MOL0     H32348   6.766   3.931   9.932 -0.5856  3.0748  1.7021
  240MOL0     H32349   6.630   3.941   9.694  0.6117  0.0476 -1.6910
  240MOL0     H32350   6.711   4.091   9.671 -0.1643  1.0155  1.9554
  240MOL0     H32351   6.550   4.278   9.735 -1.0527  1.6301  1.4015
  240MOL0     H32352   6.345   4.364  10.070  0.4668  2.5015  0.5804
  240MOL0     H32353   6.433   4.442   9.938 -0.0455  0.7373  0.9625
  240MOL0     H32354   6.174   4.274   9.913  3.5794 -1.8601  0.5093
  240MOL0     H32355   6.246   4.377   9.780 -1.9828 -1.3337 -0.5837
  240MOL0     H32356   6.208   4.569   9.923 -1.2869  1.8696  2.4832
  240MOL0     H32357   6.123   4.454  10.043 -0.4125  0.2511  0.2099
  240MOL0     H32358   5.961   4.397   9.875  1.9141 -0.1922  0.2998
  240MOL0     H32359   6.037   4.497   9.761 -2.1072 -2.1126 -1.7505
  240MOL0     H32360   5.763   4.746  10.052 -0.6882  0.1509  1.2111
  240MOL0     H32361   5.570   4.834  10.132  0.6863 -1.2652  0.0458
  240MOL0     H32362   5.411   4.811  10.053 -0.1399 -0.4273 -0.1079
  240MOL0     H32363   5.474   4.703  10.177  1.0779  0.4082  0.2640
  240MOL0     H32364   5.152   4.710  10.015  1.3602 -0.3441 -1.7883
  240MOL0     H32365   4.902   4.721  10.012 -0.0153  1.1084 -2.5647
  240MOL0     H32366   4.688   4.349   9.841  1.9897  0.1945  0.0395
  240MOL0     H32367   4.698   4.314  10.009  4.0800  1.2210 -0.8058
  240MOL0     H32368   4.475   4.455   9.848 -0.0526  2.3679  1.0559
  240MOL0     H32369   4.458   4.312   9.938  0.9668 -0.1137 -1.9501
  240MOL0     H32370   4.527   4.591  10.058  3.1308 -1.0629 -0.3943
  240MOL0     H32371   4.504   4.440  10.152 -0.7178 -2.6120 -0.9496
  240MOL0     H32372   4.301   4.572   9.976  1.4241 -1.3437 -0.6003
  240MOL0     H32373   4.263   4.431  10.084  1.3443  0.0056  1.6971
  240MOL0     H32374   4.179   4.655  10.162 -0.2788  1.9983  1.5602
  240MOL0     H32375   4.348   4.703  10.181  0.2942 -0.7437 -0.8368
  240MOL0     H32376   4.191   4.536  10.373  0.6995 -0.8810  1.0407
  240MOL0     H32377   4.358   4.484  10.334 -0.5069 -0.8749  1.0272
  240MOL0     H32378   4.442   4.704  10.395 -1.8756 -1.1280 -2.4896
  240MOL0     H32379   4.368   4.630  10.537  2.9230 -2.5020 -1.7227
  240MOL0     H32380   4.255   4.859  10.353 -1.4658 -0.7747 -1.1614
  240MOL0     H32381   4.304   4.865  10.519  1.4120 -0.7157  0.2728
  240MOL0     H32382   4.908   4.303   9.888  0.4561  0.1034  2.3111
  240MOL0     H32383   5.143   4.304   9.893 -0.7357 -0.4803 -0.5566
  240MOL0     H32384   5.541   4.470   9.714  2.5852 -1.3001 -0.5991
  240MOL0     H32385   5.780   4.459   9.742  0.2877  0.4014  0.3388
  240MOL0     H32386   7.494   4.205   9.490  0.4420 -0.0251 -1.1341
  240MOL0     H32387   7.719   4.196   9.400  2.5544 -1.9032 -1.4646
  240MOL0     H32388   8.157   3.756   9.181 -0.0732 -0.4055  2.0195
  240MOL0     H32389   8.389   3.794   9.177  0.6269  0.5638 -0.4668
  240MOL0     H32390   8.570   3.770   9.272  1.3565 -0.5496  2.5201
  240MOL0     H32391   8.595   3.890   9.147 -1.9174 -0.2871 -0.1527
  240MOL0     H32392   8.753   3.880   9.401 -1.3189 -2.5148 -0.1269
  240MOL0     H32393   8.796   3.984   9.269  0.2441  0.6970  1.2357
  240MOL0     H32394   8.868   3.769   9.148 -1.2361 -0.1933 -0.0696
  240MOL0     H32395   8.795   3.670   9.271  1.2588 -1.5359 -0.1912
  240MOL0     H32396   8.948   3.783   9.442 -0.7999  3.2659 -0.5781
  240MOL0     H32397   9.035   3.867   9.309  0.8821  0.5151  3.9293
  240MOL0     H32398   9.192   3.475   9.355  3.6419  2.3975 -1.2697
  240MOL0     H32399   8.365   4.098   9.479 -3.1946  2.2902  1.2342
  240MOL0     H32400   8.113   4.052   9.495 -1.6576  1.0245 -1.5996
  241MOL0     O32401   5.118   0.330   5.893  1.2458 -0.1695 -0.5753
  241MOL0     C32402   5.164   0.335   6.002 -0.6194 -0.4948  0.5240
  241MOL0     O32403   5.107   0.309   6.116  0.3079 -0.0736 -0.0244
  241MOL0     C32404   4.981   0.263   6.112  0.2515 -0.9334  0.6638
  241MOL0     C32405   4.948   0.130   6.076  0.2962 -0.9679  0.2497
  241MOL0     C32406   4.822   0.073   6.092  0.4066 -0.8245 -0.4496
  241MOL0     C32407   4.723   0.148   6.156 -0.2651  0.4584  0.1348
  241MOL0     O32408   4.587   0.115   6.143  0.2369  0.2743  0.2480
  241MOL0     C32409   4.558  -0.002   6.060 -0.7389 -0.2128 -1.0037
  241MOL0     C32410   4.582   0.031   5.913 -0.1027  0.3958 -0.1143
  241MOL0     C32411   4.529  -0.093   5.844  0.1772 -0.3934  0.4639
  241MOL0     C32412   4.526  -0.083   5.686  1.0327  0.4193  0.2342
  241MOL0     C32413   4.456  -0.212   5.630 -0.2457  0.1461  0.5556
  241MOL0     C32414   4.550  -0.332   5.642  0.3113  0.0034 -0.7090
  241MOL0     C32415   4.465  -0.452   5.589  0.2658 -0.3262  0.0757
  241MOL0     C32416   4.458  -0.457   5.434  0.5336  0.0280  0.5650
  241MOL0     N32417   4.373  -0.567   5.398 -0.0887 -0.0374 -0.0882
  241MOL0     C32418   4.241  -0.558   5.363 -0.2598 -0.0416  0.3408
  241MOL0     C32419   4.207  -0.667   5.281  0.6216 -0.3885 -1.2836
  241MOL0     C32420   4.061  -0.684   5.239  0.0013 -0.5030 -0.2381
  241MOL0     C32421   3.986  -0.731   5.359 -0.4036 -0.6255 -0.8557
  241MOL0     C32422   3.849  -0.784   5.310 -1.0325  0.1809 -0.4490
  241MOL0     C32423   3.762  -0.821   5.427 -0.0917 -0.1295 -0.3443
  241MOL0     O32424   3.661  -0.916   5.397  0.0208 -0.0293  0.4824
  241MOL0     C32425   3.539  -0.880   5.342  0.0920  0.3392  0.0169
  241MOL0     C32426   3.449  -0.985   5.344 -0.6077 -0.7276  0.1568
  241MOL0     C32427   3.315  -0.962   5.308 -1.0508 -0.1335  0.7443
  241MOL0     C32428   3.228  -1.087   5.339 -0.4978  0.3114  0.4430
  241MOL0     C32429   3.271  -0.831   5.275  0.8728  0.2171 -0.0535
  241MOL0     C32430   3.132  -0.796   5.250 -1.7047 -0.9967 -0.8036
  241MOL0     O32431   3.042  -0.858   5.335  0.5216  0.6017  0.2775
  241MOL0     C32432   2.915  -0.824   5.343  0.2904  0.4027 -0.7684
  241MOL0     C32433   2.879  -0.692   5.380  0.3662  0.6217  0.7765
  241MOL0     C32434   2.744  -0.643   5.366 -1.2359  0.5765 -0.3291
  241MOL0     C32435   2.649  -0.731   5.322  0.3943  0.4895  0.6805
  241MOL0     O32436   2.514  -0.705   5.308  0.4935 -0.6795 -0.3603
  241MOL0     C32437   2.483  -0.572   5.302 -1.3775  0.7307 -0.1467
  241MOL0     C32438   2.344  -0.546   5.245  0.5645 -0.3623  0.6157
  241MOL0     C32439   2.326  -0.597   5.101 -1.1475 -0.6669  0.1720
  241MOL0     C32440   2.189  -0.570   5.037  0.5180  0.0153  0.3940
  241MOL0     C32441   2.172  -0.649   4.904 -0.2791 -0.4762 -0.0567
  241MOL0     C32442   2.029  -0.634   4.847  0.4060 -0.4356 -0.9095
  241MOL0     C32443   2.006  -0.690   4.703  0.2330  0.2019  0.1084
  241MOL0     C32444   1.866  -0.657   4.639 -0.3476 -0.6270  0.3015
  241MOL0    Cl32445   1.830  -0.482   4.624 -0.2616  0.5421 -0.4310
  241MOL0     C32446   2.680  -0.863   5.297 -0.1047  0.0155  0.8432
  241MOL0     C32447   2.810  -0.909   5.305  0.0348 -0.2148  0.8463
  241MOL0     O32448   3.105  -0.705   5.175  0.0113 -0.6317 -0.3769
  241MOL0     C32449   3.368  -0.729   5.256 -0.9547  0.1327  0.0854
  241MOL0     C32450   3.499  -0.755   5.293 -0.1333 -0.5505  0.1223
  241MOL0     N32451   4.328  -0.739   5.267  0.5088  1.1415 -0.2797
  241MOL0     N32452   4.425  -0.678   5.335 -0.1586 -0.1929 -0.3196
  241MOL0     C32453   4.754   0.279   6.199 -0.1804  0.3992 -0.4889
  241MOL0     C32454   4.879   0.341   6.180  0.6115  0.2052 -0.1640
  241MOL0     C32455   5.303   0.391   6.013 -0.0381 -0.0908 -0.5771
  241MOL0     C32456   5.371   0.425   5.903  0.5405  0.5678 -0.3960
  241MOL0     C32457   5.510   0.451   5.911  0.1455  0.2022  0.1805
  241MOL0     C32458   5.576   0.454   6.033  0.9369 -0.2312 -0.2997
  241MOL0     O32459   5.711   0.465   6.049 -0.2453  0.1970  0.1415
  241MOL0     C32460   5.799   0.474   5.941 -0.1674  0.2841 -0.6304
  241MOL0     C32461   5.947   0.460   5.984 -0.4402 -0.5750 -0.0225
  241MOL0     C32462   6.024   0.591   6.003 -0.2139  0.2624  0.7897
  241MOL0     C32463   5.988   0.658   6.137  0.1565  1.4229 -0.7661
  241MOL0     C32464   6.041   0.599   6.269 -0.0305 -1.2394  0.3292
  241MOL0     C32465   6.073   0.545   6.369  0.0556 -0.3089 -1.3089
  241MOL0     C32466   5.500   0.435   6.154 -0.4341  0.8423 -0.2879
  241MOL0     C32467   5.368   0.406   6.137  0.2355  1.0876  0.6056
  241MOL0     H32468   5.028   0.065   6.041  1.8182  0.6725  0.4986
  241MOL0     H32469   4.811  -0.026   6.048 -1.6763 -0.3782 -1.0071
  241MOL0     H32470   4.611  -0.093   6.087 -3.1606 -1.2215  0.7471
  241MOL0     H32471   4.451  -0.019   6.079 -0.8454  1.3747 -0.0273
  241MOL0     H32472   4.535   0.123   5.877 -0.1057 -0.2122 -1.7512
  241MOL0     H32473   4.688   0.029   5.889  0.4412  1.3662  2.0486
  241MOL0     H32474   4.588  -0.177   5.882 -0.7790 -0.2633  2.4058
  241MOL0     H32475   4.424  -0.109   5.869  0.0767  0.7861  0.8705
  241MOL0     H32476   4.455  -0.005   5.657 -0.4890 -0.1857  2.1334
  241MOL0     H32477   4.622  -0.067   5.637  0.4873 -2.8842 -2.2755
  241MOL0     H32478   4.359  -0.218   5.680 -1.4718  1.5729 -1.4836
  241MOL0     H32479   4.438  -0.191   5.524  3.8112  2.1809  0.0850
  241MOL0     H32480   4.641  -0.325   5.581  0.3757 -2.5977 -0.9879
  241MOL0     H32481   4.568  -0.360   5.746 -1.2755 -3.1537 -1.1891
  241MOL0     H32482   4.495  -0.550   5.627  5.8761  1.7419  2.0216
  241MOL0     H32483   4.364  -0.451   5.630  0.8293 -2.0438  1.5940
  241MOL0     H32484   4.557  -0.480   5.391  1.1922  1.1217  1.4319
  241MOL0     H32485   4.407  -0.372   5.389 -1.1462 -0.4082  1.5510
  241MOL0     H32486   4.184  -0.471   5.393 -0.9273  0.2829 -1.6669
  241MOL0     H32487   4.013  -0.590   5.213 -0.1928  0.5700  3.5165
  241MOL0     H32488   4.048  -0.759   5.160  0.4408 -2.4064  1.4161
  241MOL0     H32489   3.963  -0.652   5.431 -2.0391 -0.6535 -1.2978
  241MOL0     H32490   4.048  -0.807   5.407 -0.4052 -2.1435 -3.0977
  241MOL0     H32491   3.858  -0.880   5.257 -3.5578 -0.5144  0.2668
  241MOL0     H32492   3.796  -0.718   5.242 -0.1227  1.5473  0.1282
  241MOL0     H32493   3.712  -0.730   5.460  0.7739  0.2784 -0.1238
  241MOL0     H32494   3.833  -0.848   5.506  2.7730  1.9931 -1.9960
  241MOL0     H32495   3.478  -1.084   5.380 -1.3080 -0.4649  1.5457
  241MOL0     H32496   3.148  -1.091   5.264 -0.0497  1.1296 -0.0992
  241MOL0     H32497   3.281  -1.181   5.321 -0.4551 -0.0491  2.3088
  241MOL0     H32498   3.183  -1.083   5.438  0.3521 -2.0736  0.9897
  241MOL0     H32499   2.950  -0.613   5.398 -0.3890  1.4738  0.1175
  241MOL0     H32500   2.723  -0.539   5.387  0.2255  0.9460 -0.6419
  241MOL0     H32501   2.494  -0.522   5.399  0.7867 -1.2142  0.7015
  241MOL0     H32502   2.558  -0.520   5.242  0.4703  0.2616  1.6226
  241MOL0     H32503   2.280  -0.606   5.310  0.5070 -0.4394  0.4875
  241MOL0     H32504   2.323  -0.438   5.243  2.2890  0.0332  1.5580
  241MOL0     H32505   2.345  -0.705   5.103  1.1766 -0.3062  0.2343
  241MOL0     H32506   2.404  -0.554   5.038 -1.4620  0.9113  0.7964
  241MOL0     H32507   2.104  -0.584   5.104 -1.1216  0.4606 -1.5103
  241MOL0     H32508   2.201  -0.467   5.002 -0.9683  0.5064  1.2638
  241MOL0     H32509   2.203  -0.754   4.908 -0.1787 -0.5247 -1.4901
  241MOL0     H32510   2.240  -0.608   4.829 -0.2114 -0.1516  0.1799
  241MOL0     H32511   1.965  -0.671   4.927 -0.3428  4.2594  0.9885
  241MOL0     H32512   2.005  -0.528   4.840 -0.4979 -0.6879 -2.0177
  241MOL0     H32513   2.021  -0.799   4.700 -0.5166  0.1041 -2.6656
  241MOL0     H32514   2.077  -0.636   4.641 -0.5049  0.4652 -0.5158
  241MOL0     H32515   1.787  -0.705   4.698 -1.3135 -1.0531 -1.2714
  241MOL0     H32516   1.866  -0.685   4.533  5.2454  0.6899 -0.3768
  241MOL0     H32517   2.594  -0.926   5.273 -2.0041  2.2259  1.4401
  241MOL0     H32518   2.826  -1.015   5.290 -2.3636 -0.6193  0.6880
  241MOL0     H32519   3.335  -0.634   5.216 -1.0859 -0.1841 -0.5840
  241MOL0     H32520   3.566  -0.669   5.301  1.8753 -2.2160  3.1455
  241MOL0     H32521   4.664   0.323   6.240 -2.5613 -3.8888 -0.5504
  241MOL0     H32522   4.916   0.435   6.221 -2.4021  2.0025 -1.2680
  241MOL0     H32523   5.325   0.412   5.806  1.5767 -0.2946 -0.7850
  241MOL0     H32524   5.567   0.469   5.820  1.1240  0.6910  0.8710
  241MOL0     H32525   5.769   0.385   5.884 -0.3651  1.4527 -2.4458
  241MOL0     H32526   5.780   0.554   5.869 -4.1964  1.8705  1.8502
  241MOL0     H32527   5.994   0.413   5.897  0.4945 -0.2079  0.2704
  241MOL0     H32528   5.949   0.397   6.074  0.1795 -3.1114 -1.6858
  241MOL0     H32529   6.005   0.661   5.921  0.6330  2.3095  2.2452
  241MOL0     H32530   6.130   0.563   6.000 -0.2414  0.2123  0.1831
  241MOL0     H32531   5.880   0.654   6.156  0.3221  3.7271  1.0457
  241MOL0     H32532   6.020   0.763   6.142  0.2288  1.3395  3.4827
  241MOL0     H32533   6.096   0.490   6.458 -1.7316 -0.3627 -0.8426
  241MOL0     H32534   5.545   0.444   6.252 -0.3545 -0.1438 -0.2231
  241MOL0     H32535   5.299   0.393   6.221 -2.0184 -0.5047 -1.3613
  242MOL0     O32536   8.016   9.330   0.657  0.0165  0.2020  0.5087
  242MOL0     C32537   8.017   9.274   0.763 -0.1799 -0.4169 -1.5551
  242MOL0     O32538   8.130   9.235   0.833  0.1068 -0.4334  0.0517
  242MOL0     C32539   8.253   9.254   0.781 -1.1032  0.0622  0.0057
  242MOL0     C32540   8.323   9.369   0.817  0.4502 -0.4759 -0.2327
  242MOL0     C32541   8.457   9.378   0.782  0.1202 -0.4051  0.3566
  242MOL0     C32542   8.513   9.290   0.690  1.2787 -0.2802  0.2189
  242MOL0     O32543   8.638   9.296   0.626 -0.0146 -0.2399 -0.4133
  242MOL0     C32544   8.719   9.408   0.666  0.1593 -0.0753 -0.2029
  242MOL0     C32545   8.856   9.384   0.608 -0.1243  0.0592  0.1588
  242MOL0     C32546   8.951   9.505   0.650  0.0379 -1.4598  0.3284
  242MOL0     C32547   8.950   9.549   0.800 -0.0138 -0.1945  0.2029
  242MOL0     C32548   9.050   9.653   0.841 -0.6052  0.0517  0.2029
  242MOL0     C32549   9.025   9.784   0.775 -0.4475 -0.7249  0.5886
  242MOL0     C32550   9.116   9.892   0.816 -0.4624 -0.6737  0.3950
  242MOL0     C32551   9.084   9.959   0.950  0.1602  0.4412  0.5774
  242MOL0     N32552   8.952  10.021   0.943  0.0059  0.2599  0.5692
  242MOL0     C32553   8.934  10.148   0.892 -0.0545 -0.2757  0.2401
  242MOL0     C32554   8.825  10.203   0.949 -0.3574  0.2356 -0.8509
  242MOL0     C32555   8.777  10.341   0.931 -0.2405 -0.1621  0.3100
  242MOL0     C32556   8.670  10.338   0.830  0.0618  0.0358 -0.0028
  242MOL0     C32557   8.547  10.256   0.879 -0.0439  0.2081 -0.2189
  242MOL0     C32558   8.435  10.286   0.784 -0.5524  0.1195  0.4964
  242MOL0     O32559   8.375  10.411   0.813  0.1236  0.0644  0.9131
  242MOL0     C32560   8.241  10.411   0.852  0.5095 -0.6022 -0.1990
  242MOL0     C32561   8.176  10.531   0.859 -0.2950 -0.1651  1.0950
  242MOL0     C32562   8.054  10.558   0.908 -0.0984 -0.2011  0.1167
  242MOL0     C32563   7.999  10.701   0.883  0.6014 -0.3924 -0.4300
  242MOL0     C32564   7.980  10.449   0.953 -0.0389 -1.1076  0.3641
  242MOL0     C32565   7.836  10.450   1.002 -0.1986  0.3856  0.1088
  242MOL0     O32566   7.792  10.564   1.053  0.2364 -0.3058 -0.8428
  242MOL0     C32567   7.655  10.573   1.055  0.2947 -0.1131  0.0425
  242MOL0     C32568   7.570  10.588   0.940 -0.1029 -0.4689  0.0977
  242MOL0     C32569   7.428  10.574   0.947  0.4431 -0.3796 -0.1105
  242MOL0     C32570   7.369  10.556   1.071  0.3751  0.4619  0.1704
  242MOL0     O32571   7.234  10.553   1.078 -0.0289 -0.3031 -0.4149
  242MOL0     C32572   7.168  10.524   1.207 -0.7024  0.0341 -0.7488
  242MOL0     C32573   7.017  10.502   1.187 -0.1465 -0.3704  0.3725
  242MOL0     C32574   6.939  10.439   1.301  0.1155 -0.6059 -0.0785
  242MOL0     C32575   6.946  10.534   1.420 -0.1154 -0.2395  0.2549
  242MOL0     C32576   6.845  10.500   1.542 -0.5629  0.2405  0.4254
  242MOL0     C32577   6.703  10.523   1.502  0.5408 -0.8441  0.6609
  242MOL0     C32578   6.621  10.575   1.619  0.6806 -0.2959 -0.1352
  242MOL0     C32579   6.601  10.466   1.732 -0.1152  0.2811  0.5536
  242MOL0    Cl32580   6.475  10.530   1.831 -0.1463 -0.4108  0.5594
  242MOL0     C32581   7.451  10.560   1.184 -1.0099  0.0544  0.1289
  242MOL0     C32582   7.593  10.557   1.176  0.1155  0.8756 -0.3753
  242MOL0     O32583   7.776  10.347   0.986 -0.3176 -0.2371 -1.1296
  242MOL0     C32584   8.039  10.319   0.939  0.6472  0.0423  0.1256
  242MOL0     C32585   8.173  10.302   0.896 -0.3518  0.0181 -0.0233
  242MOL0     N32586   8.770  10.100   1.031  0.4449  0.0042  0.6113
  242MOL0     N32587   8.847   9.992   1.023 -1.0536  0.2285  0.6395
  242MOL0     C32588   8.430   9.185   0.651  0.4286 -0.1545 -0.7098
  242MOL0     C32589   8.306   9.163   0.690 -0.6413  0.3823  0.0337
  242MOL0     C32590   7.887   9.214   0.812 -0.0743  0.0367 -0.8904
  242MOL0     C32591   7.790   9.190   0.717  1.1045  0.6924 -0.1342
  242MOL0     C32592   7.671   9.128   0.757 -0.4944  0.0359 -0.0339
  242MOL0     C32593   7.644   9.087   0.891  0.4795 -0.2928 -0.9627
  242MOL0     O32594   7.522   9.020   0.920  0.7135 -1.0330 -0.6221
  242MOL0     C32595   7.417   9.112   0.963 -1.2421 -0.6522  0.2908
  242MOL0     C32596   7.317   9.150   0.852 -0.0321  0.4832 -0.0635
  242MOL0     C32597   7.229   9.266   0.898  0.5133  0.0250 -0.0297
  242MOL0     C32598   7.122   9.300   0.789 -0.3638 -0.7213 -0.2882
  242MOL0     C32599   7.019   9.382   0.858  1.2418 -0.3078  0.2137
  242MOL0     C32600   6.932   9.460   0.899 -0.5746 -0.0804 -0.0724
  242MOL0     C32601   7.750   9.100   0.978  0.4077 -1.2621 -0.0441
  242MOL0     C32602   7.863   9.166   0.939  1.0027 -0.5667  0.1945
  242MOL0     H32603   8.272   9.432   0.889 -0.0509  2.6170 -3.0221
  242MOL0     H32604   8.508   9.468   0.815  1.2073 -0.2506 -1.6121
  242MOL0     H32605   8.678   9.503   0.631 -0.3367 -0.5131 -0.8169
  242MOL0     H32606   8.723   9.417   0.775 -2.5876 -1.0151  0.0351
  242MOL0     H32607   8.902   9.291   0.643 -1.6580 -0.5994  0.4902
  242MOL0     H32608   8.854   9.389   0.499 -2.0242  3.5679  0.1995
  242MOL0     H32609   9.055   9.488   0.623  0.9105  0.8271  1.8756
  242MOL0     H32610   8.924   9.588   0.584  1.6410 -1.0609  0.1341
  242MOL0     H32611   8.849   9.583   0.825  0.7275  0.9999  1.7877
  242MOL0     H32612   8.954   9.460   0.864 -0.8445  0.3850  1.0852
  242MOL0     H32613   9.045   9.664   0.950  1.2828 -0.4264  0.3855
  242MOL0     H32614   9.148   9.619   0.807 -0.5000  2.0760 -1.6968
  242MOL0     H32615   9.024   9.784   0.666  2.6951  0.0328  0.4869
  242MOL0     H32616   8.922   9.809   0.804  0.1010  1.7325  0.5678
  242MOL0     H32617   9.219   9.855   0.812 -0.3888 -0.5389  0.9505
  242MOL0     H32618   9.107   9.969   0.739 -2.8217 -2.4087 -1.2091
  242MOL0     H32619   9.164  10.029   0.977  2.5571 -1.6935 -0.5671
  242MOL0     H32620   9.070   9.884   1.029  0.1092  2.3091  2.4388
  242MOL0     H32621   9.005  10.206   0.833 -0.8655  1.1440  0.5926
  242MOL0     H32622   8.758  10.392   1.026  0.5104  2.6731 -0.9599
  242MOL0     H32623   8.865  10.395   0.896 -1.5958  0.7744 -1.8972
  242MOL0     H32624   8.704  10.296   0.735  0.4370  1.5341 -0.5630
  242MOL0     H32625   8.634  10.436   0.795 -0.4812  0.0133  0.4699
  242MOL0     H32626   8.525  10.301   0.977  4.1463 -0.2403  1.1422
  242MOL0     H32627   8.556  10.148   0.890 -3.0345 -0.3668 -2.2803
  242MOL0     H32628   8.371  10.197   0.783  0.0556 -0.3263 -1.1029
  242MOL0     H32629   8.471  10.293   0.681  0.1911  0.8433  0.7944
  242MOL0     H32630   8.233  10.614   0.820 -2.7923  1.5197  0.8156
  242MOL0     H32631   8.078  10.766   0.847 -0.0103  0.8767  0.4542
  242MOL0     H32632   7.906  10.706   0.825 -0.1371  2.0515  0.8124
  242MOL0     H32633   7.978  10.744   0.982  1.7443  1.3779 -0.9164
  242MOL0     H32634   7.611  10.603   0.841 -1.6515  1.2570 -0.3395
  242MOL0     H32635   7.376  10.589   0.853  0.3359 -1.3005 -0.2079
  242MOL0     H32636   7.219  10.435   1.243 -0.7442  0.0327 -0.6934
  242MOL0     H32637   7.185  10.608   1.275  1.4379 -0.9411  0.0092
  242MOL0     H32638   6.970  10.596   1.157 -0.3691 -0.1785  1.2870
  242MOL0     H32639   6.994  10.429   1.109 -0.7992 -0.6078  0.7778
  242MOL0     H32640   6.976  10.343   1.338  3.0826  1.2273  2.1625
  242MOL0     H32641   6.835  10.434   1.268  0.5039  0.2737 -1.5467
  242MOL0     H32642   7.043  10.532   1.471 -1.8593 -1.6556  3.8688
  242MOL0     H32643   6.919  10.633   1.382 -1.4390 -0.4343  0.6494
  242MOL0     H32644   6.863  10.569   1.625 -1.1020  0.3400  0.4603
  242MOL0     H32645   6.857  10.396   1.573  1.3731  0.4245  0.4400
  242MOL0     H32646   6.692  10.593   1.419 -0.4868 -0.0640  1.4360
  242MOL0     H32647   6.659  10.435   1.456 -3.6750  0.5722  1.5876
  242MOL0     H32648   6.523  10.598   1.577 -0.0325  1.5517  2.2917
  242MOL0     H32649   6.662  10.664   1.667 -3.7331  0.2718  3.1931
  242MOL0     H32650   6.692  10.448   1.791 -0.9029 -1.1063  1.4155
  242MOL0     H32651   6.569  10.378   1.676 -1.9044  1.3925 -0.2729
  242MOL0     H32652   7.413  10.560   1.286 -2.0749 -0.3342 -0.2538
  242MOL0     H32653   7.637  10.551   1.275 -1.7769 -0.2191  0.4693
  242MOL0     H32654   7.987  10.230   0.975  1.2989  0.1625  1.4251
  242MOL0     H32655   8.222  10.206   0.898 -0.0103  0.1937  0.3357
  242MOL0     H32656   8.473   9.116   0.578  2.3437 -0.4520  0.6262
  242MOL0     H32657   8.239   9.081   0.663 -1.4163  1.5087 -1.6490
  242MOL0     H32658   7.783   9.227   0.615  0.8548 -1.9345 -1.1513
  242MOL0     H32659   7.602   9.104   0.676 -1.6937  0.0937  0.9277
  242MOL0     H32660   7.363   9.068   1.048 -0.8726 -0.0425  0.8497
  242MOL0     H32661   7.470   9.200   0.999  3.2167 -2.8166 -0.3496
  242MOL0     H32662   7.255   9.064   0.823  1.4193 -0.8141  0.5373
  242MOL0     H32663   7.385   9.191   0.777  2.2565  2.4071  2.8698
  242MOL0     H32664   7.285   9.355   0.927 -0.8532  1.1176 -0.6234
  242MOL0     H32665   7.181   9.232   0.990  1.2275  2.2722  1.2656
  242MOL0     H32666   7.070   9.210   0.755 -0.5690 -0.8211  0.2764
  242MOL0     H32667   7.170   9.338   0.698  0.7008 -1.0005  0.1468
  242MOL0     H32668   6.853   9.523   0.934 -0.4513 -1.7493  3.7014
  242MOL0     H32669   7.756   9.066   1.080  1.2089 -1.7599 -0.2510
  242MOL0     H32670   7.948   9.187   1.003  0.0974  0.0702  1.2324
  243MOL0     O32671   5.306   1.788   1.232  0.0911 -0.2921 -0.0966
  243MOL0     C32672   5.373   1.864   1.305  0.1434  0.6869 -0.3062
  243MOL0     O32673   5.315   1.966   1.373 -0.0385 -0.4658  0.1917
  243MOL0     C32674   5.179   1.986   1.347 -0.3523 -0.1637 -0.1330
  243MOL0     C32675   5.141   2.066   1.242  0.3084  0.2297  0.0721
  243MOL0     C32676   5.006   2.109   1.233  0.2172 -0.4939  0.0591
  243MOL0     C32677   4.910   2.067   1.327  0.4460 -0.4342 -0.7568
  243MOL0     O32678   4.782   2.114   1.347 -0.3780  0.0830 -0.2234
  243MOL0     C32679   4.730   2.201   1.242  0.3712  0.0352 -0.9371
  243MOL0     C32680   4.733   2.343   1.295 -1.2408  0.0078  0.1807
  243MOL0     C32681   4.694   2.364   1.439 -0.3061 -0.0540  0.8684
  243MOL0     C32682   4.553   2.319   1.464  0.1764 -0.5555 -0.3557
  243MOL0     C32683   4.510   2.343   1.609  0.3661 -0.0218 -0.3011
  243MOL0     C32684   4.492   2.490   1.646 -0.8202  0.2680  0.5159
  243MOL0     C32685   4.419   2.510   1.772 -0.3458  0.5778 -0.1667
  243MOL0     C32686   4.488   2.464   1.905 -0.7289  0.6150 -0.1583
  243MOL0     N32687   4.393   2.468   2.007  0.1001 -0.5560  0.3682
  243MOL0     C32688   4.392   2.578   2.091  0.0451  0.2567 -0.1690
  243MOL0     C32689   4.299   2.545   2.181  0.9740 -0.5980 -0.2336
  243MOL0     C32690   4.247   2.615   2.300 -0.2042 -0.1829 -0.0985
  243MOL0     C32691   4.362   2.690   2.375 -1.0912  0.1810  0.2594
  243MOL0     C32692   4.299   2.797   2.467 -0.4551  0.3019 -0.4422
  243MOL0     C32693   4.400   2.871   2.555  0.2173 -0.3606  0.4446
  243MOL0     O32694   4.349   3.003   2.591  0.1615  0.1590  0.2009
  243MOL0     C32695   4.242   3.014   2.674 -0.9129 -0.3277 -1.1985
  243MOL0     C32696   4.188   2.910   2.751  0.2772 -0.1614 -0.5119
  243MOL0     C32697   4.073   2.925   2.836  0.1410 -0.5684 -0.2146
  243MOL0     C32698   4.027   2.800   2.910 -0.0613  0.4127  0.5660
  243MOL0     C32699   4.017   3.052   2.849  0.9450  0.0486  0.0190
  243MOL0     C32700   3.898   3.094   2.937 -0.5003 -0.1271 -0.2490
  243MOL0     O32701   3.812   3.198   2.896 -0.4309  0.7576  0.6056
  243MOL0     C32702   3.725   3.264   2.978  0.6316 -0.2809 -0.3209
  243MOL0     C32703   3.725   3.260   3.118 -0.0482  0.2072  0.6255
  243MOL0     C32704   3.623   3.327   3.194 -0.4245  0.7367  0.5575
  243MOL0     C32705   3.523   3.395   3.135 -0.0268  0.3528 -0.0381
  243MOL0     O32706   3.432   3.453   3.207  0.7403 -0.8532  0.0813
  243MOL0     C32707   3.297   3.465   3.158 -0.6125 -0.3729 -0.0460
  243MOL0     C32708   3.232   3.529   3.278 -0.5475  0.0231  0.2369
  243MOL0     C32709   3.091   3.567   3.233 -0.6670  0.4203 -0.2551
  243MOL0     C32710   3.022   3.626   3.353 -0.1002 -0.1036 -0.5359
  243MOL0     C32711   2.882   3.669   3.319 -0.5051 -0.6927 -0.4507
  243MOL0     C32712   2.786   3.558   3.290  0.3094 -0.0125  0.0063
  243MOL0     C32713   2.640   3.593   3.257 -0.2293 -0.5883 -1.0056
  243MOL0     C32714   2.580   3.664   3.371 -0.5827 -0.4785 -0.2273
  243MOL0    Cl32715   2.407   3.686   3.329  0.0586 -0.0681 -0.3848
  243MOL0     C32716   3.527   3.397   2.999  0.7288  0.4534  1.0683
  243MOL0     C32717   3.626   3.335   2.921  0.5289 -0.2950 -0.1883
  243MOL0     O32718   3.890   3.033   3.043 -0.5188  0.2788  0.2011
  243MOL0     C32719   4.072   3.159   2.767 -0.5921 -1.2865  0.0733
  243MOL0     C32720   4.187   3.142   2.685  0.8810  0.3444 -0.5451
  243MOL0     N32721   4.273   2.409   2.168  0.1977 -0.7927 -0.3915
  243MOL0     N32722   4.330   2.362   2.065 -0.3898 -0.9772  0.7929
  243MOL0     C32723   4.949   1.980   1.424 -0.6428 -0.1595 -0.2036
  243MOL0     C32724   5.082   1.941   1.435 -0.3652  0.1187 -0.5156
  243MOL0     C32725   5.498   1.819   1.357  0.4818  0.7090  1.1379
  243MOL0     C32726   5.573   1.900   1.447  0.0673  0.1414 -0.3850
  243MOL0     C32727   5.687   1.845   1.504 -0.1321  0.0500  0.0898
  243MOL0     C32728   5.750   1.727   1.462  0.1422  0.5513  0.1380
  243MOL0     O32729   5.879   1.700   1.505  0.6791  0.2518  0.0227
  243MOL0     C32730   5.934   1.573   1.466  0.1760  0.6181  0.0671
  243MOL0     C32731   6.027   1.532   1.578  0.3776 -0.2355 -0.3272
  243MOL0     C32732   6.145   1.627   1.590  0.1049 -0.1759  0.5252
  243MOL0     C32733   6.251   1.559   1.683 -0.2859  0.6314  0.0918
  243MOL0     C32734   6.374   1.638   1.699  0.9839 -0.2831  0.0282
  243MOL0     C32735   6.480   1.709   1.717 -0.2965 -0.0411  0.0886
  243MOL0     C32736   5.693   1.662   1.355 -0.1482 -0.6815 -0.2693
  243MOL0     C32737   5.565   1.704   1.303  0.5356 -0.4730  0.0988
  243MOL0     H32738   5.221   2.097   1.175  1.8061 -0.9622  1.2483
  243MOL0     H32739   4.987   2.172   1.146  0.3791 -1.0346 -0.3718
  243MOL0     H32740   4.779   2.196   1.144  0.4872  1.7630 -0.9988
  243MOL0     H32741   4.623   2.183   1.228  0.1107  0.5075  0.3968
  243MOL0     H32742   4.839   2.367   1.285 -1.0827 -0.7035  0.0951
  243MOL0     H32743   4.675   2.412   1.232  1.2071  2.8760  0.7999
  243MOL0     H32744   4.770   2.306   1.491 -0.5216 -0.2117  1.0067
  243MOL0     H32745   4.715   2.470   1.456 -0.5811 -0.2257  2.4234
  243MOL0     H32746   4.487   2.351   1.383  0.2083 -1.2378 -0.6641
  243MOL0     H32747   4.561   2.212   1.441  1.1932 -0.4903 -0.3768
  243MOL0     H32748   4.421   2.282   1.626  1.0799 -0.7157  1.2385
  243MOL0     H32749   4.581   2.299   1.680  0.3964  2.4554  1.3063
  243MOL0     H32750   4.594   2.528   1.657  0.0266 -1.6413 -0.1937
  243MOL0     H32751   4.445   2.536   1.559  1.8737  0.7262 -0.8140
  243MOL0     H32752   4.397   2.618   1.773 -0.2761  0.6270 -1.6701
  243MOL0     H32753   4.327   2.452   1.767  0.0958 -0.1500  0.0090
  243MOL0     H32754   4.569   2.532   1.932  0.2748 -1.2403  1.9078
  243MOL0     H32755   4.531   2.363   1.903 -0.2045  0.8197  0.4745
  243MOL0     H32756   4.439   2.675   2.080  1.0097 -0.0726  0.8548
  243MOL0     H32757   4.178   2.696   2.275  0.0285  0.0325 -0.0448
  243MOL0     H32758   4.194   2.542   2.363 -0.0204 -0.3625 -0.1492
  243MOL0     H32759   4.430   2.742   2.308 -1.0124 -0.6323 -0.3077
  243MOL0     H32760   4.425   2.620   2.430 -0.0623 -0.2795 -1.4624
  243MOL0     H32761   4.223   2.756   2.534  1.0929  1.6572  2.3054
  243MOL0     H32762   4.254   2.877   2.407 -0.4340  1.0556  0.5152
  243MOL0     H32763   4.485   2.883   2.488 -0.7376  2.5823 -0.3712
  243MOL0     H32764   4.429   2.802   2.635 -2.3031 -0.2131  1.6132
  243MOL0     H32765   4.234   2.812   2.753 -0.9775 -0.7719  1.0956
  243MOL0     H32766   4.075   2.788   3.008  0.5126 -0.0553  0.2321
  243MOL0     H32767   3.921   2.819   2.931 -0.1414  1.3392 -0.5965
  243MOL0     H32768   4.040   2.714   2.845  0.5154 -0.5987  1.9585
  243MOL0     H32769   3.798   3.190   3.156  2.0979  1.6984 -0.5291
  243MOL0     H32770   3.619   3.316   3.302 -1.6653 -1.0680  0.3659
  243MOL0     H32771   3.294   3.540   3.078  0.5500  1.7273  1.7546
  243MOL0     H32772   3.256   3.369   3.127  0.4695 -0.5827 -0.8728
  243MOL0     H32773   3.222   3.465   3.366 -1.1098  0.3210  0.3980
  243MOL0     H32774   3.280   3.622   3.311 -1.2247  0.1507  0.8924
  243MOL0     H32775   3.036   3.479   3.198 -2.3197  0.1383  2.6274
  243MOL0     H32776   3.103   3.647   3.160  1.8185 -0.4023 -0.8302
  243MOL0     H32777   3.020   3.554   3.435  4.6189 -0.5097 -0.5168
  243MOL0     H32778   3.080   3.705   3.401  1.5340 -0.7862 -1.3255
  243MOL0     H32779   2.892   3.728   3.228  2.4316 -0.2092  0.0626
  243MOL0     H32780   2.855   3.731   3.404  2.5357 -0.9017  0.8084
  243MOL0     H32781   2.838   3.526   3.199 -0.4841  2.0091 -1.2269
  243MOL0     H32782   2.786   3.475   3.361  3.5761 -1.8238 -1.8547
  243MOL0     H32783   2.592   3.496   3.237  0.4703 -0.7261 -2.0964
  243MOL0     H32784   2.633   3.661   3.172 -1.5318  0.2611 -0.2593
  243MOL0     H32785   2.641   3.753   3.387  0.1016 -0.7830 -1.1186
  243MOL0     H32786   2.573   3.612   3.467 -1.8972 -0.9698 -0.5544
  243MOL0     H32787   3.450   3.446   2.940  0.7059 -1.3129 -0.4999
  243MOL0     H32788   3.622   3.346   2.813  2.3480  1.4250 -0.1213
  243MOL0     H32789   4.028   3.258   2.775  1.4554 -0.3620  0.2994
  243MOL0     H32790   4.228   3.231   2.638 -0.2865  1.1674 -0.0436
  243MOL0     H32791   4.889   1.950   1.509  0.5917  2.4878  1.7509
  243MOL0     H32792   5.111   1.865   1.506 -1.5254 -0.6162 -0.8041
  243MOL0     H32793   5.525   1.992   1.478 -2.3428  0.4471 -4.3335
  243MOL0     H32794   5.733   1.908   1.580 -0.8885  1.4328 -0.5669
  243MOL0     H32795   5.852   1.506   1.440  0.8570  0.1270 -0.9078
  243MOL0     H32796   5.992   1.589   1.374 -0.5806  2.5143 -0.1358
  243MOL0     H32797   6.057   1.430   1.553 -3.0794 -0.9991 -1.8615
  243MOL0     H32798   5.982   1.524   1.677 -0.1873 -3.2177 -0.7310
  243MOL0     H32799   6.120   1.728   1.624  0.2125  0.4743 -1.1804
  243MOL0     H32800   6.187   1.642   1.490 -0.4174 -0.4212  0.2664
  243MOL0     H32801   6.263   1.459   1.640 -0.6594  0.1237  1.1327
  243MOL0     H32802   6.207   1.547   1.782 -1.0387  2.3312 -0.0068
  243MOL0     H32803   6.568   1.768   1.730  0.9704 -1.0685 -3.0667
  243MOL0     H32804   5.747   1.592   1.292 -1.5278 -0.1898 -2.0942
  243MOL0     H32805   5.514   1.639   1.233 -1.4862 -1.4376  2.3226
  244MOL0     O32806   4.144   8.629   9.882  0.5361 -0.2626 -0.4430
  244MOL0     C32807   4.242   8.659   9.825  0.4085  0.0465  0.3817
  244MOL0     O32808   4.257   8.750   9.723 -0.6680  0.6418 -0.5167
  244MOL0     C32809   4.140   8.818   9.686  0.1615 -0.6307 -0.8938
  244MOL0     C32810   4.118   8.955   9.711 -0.3115 -0.0129 -0.0859
  244MOL0     C32811   3.996   9.022   9.679 -0.1627  0.9420  0.3599
  244MOL0     C32812   3.897   8.947   9.610  0.2356  0.2823  0.8165
  244MOL0     O32813   3.788   9.018   9.566  1.1027  0.1288  0.8174
  244MOL0     C32814   3.668   8.950   9.613  0.7981  0.4859 -0.2225
  244MOL0     C32815   3.537   9.030   9.593  0.0077 -0.1494  0.6102
  244MOL0     C32816   3.487   9.042   9.448  0.7078 -0.2328  0.3755
  244MOL0     C32817   3.347   9.110   9.462  0.2322  0.7047 -0.5876
  244MOL0     C32818   3.287   9.125   9.324 -0.0155  0.2703  0.3807
  244MOL0     C32819   3.165   9.216   9.337  0.1706  0.0796  0.4479
  244MOL0     C32820   3.191   9.365   9.320 -0.4125  0.6652 -0.4145
  244MOL0     C32821   3.248   9.394   9.185  0.0827  0.3331  1.4558
  244MOL0     N32822   3.153   9.385   9.067  0.7917  0.0069  0.0849
  244MOL0     C32823   3.179   9.308   8.960  0.3478  0.0312 -0.4123
  244MOL0     C32824   3.066   9.334   8.883 -0.5794  0.0037  0.2919
  244MOL0     C32825   3.040   9.254   8.764  0.6678  0.0802  1.3053
  244MOL0     C32826   3.091   9.332   8.635  0.0043 -0.3750 -0.3360
  244MOL0     C32827   3.238   9.309   8.604 -0.6560  0.0162  0.3114
  244MOL0     C32828   3.267   9.170   8.546 -0.2671  0.4440  0.3650
  244MOL0     O32829   3.412   9.148   8.532 -0.2471  0.7275  0.1861
  244MOL0     C32830   3.475   9.193   8.409  1.0622  0.2512 -0.4461
  244MOL0     C32831   3.609   9.235   8.419  0.5142  0.0722 -0.5222
  244MOL0     C32832   3.696   9.263   8.310 -0.0214  0.8010 -0.1709
  244MOL0     C32833   3.840   9.310   8.343  0.4633 -0.3112 -0.2360
  244MOL0     C32834   3.634   9.253   8.182  0.1887  0.8867  0.3246
  244MOL0     C32835   3.709   9.290   8.057  0.0154 -0.5482  0.7685
  244MOL0     O32836   3.836   9.339   8.062  0.5135  0.0787  0.3576
  244MOL0     C32837   3.899   9.373   7.946 -0.2611 -0.6409  0.2794
  244MOL0     C32838   3.856   9.472   7.854 -0.0880  0.0581  1.0537
  244MOL0     C32839   3.935   9.495   7.737  0.0008  0.2405  1.2168
  244MOL0     C32840   4.061   9.433   7.724  0.2144  0.6713 -0.1651
  244MOL0     O32841   4.132   9.459   7.611 -1.2594  0.4012  0.4215
  244MOL0     C32842   4.271   9.451   7.610 -0.4413  0.2231 -0.2075
  244MOL0     C32843   4.325   9.567   7.523 -0.3298  0.0228 -1.0830
  244MOL0     C32844   4.473   9.544   7.484 -0.4843  0.6320  0.1841
  244MOL0     C32845   4.487   9.476   7.345  0.3024  0.3845 -0.1805
  244MOL0     C32846   4.637   9.488   7.290 -0.3203 -0.1351  1.0742
  244MOL0     C32847   4.675   9.419   7.157 -0.1813  0.5323 -0.2307
  244MOL0     C32848   4.596   9.481   7.038 -0.2365  0.5552 -0.1288
  244MOL0     C32849   4.682   9.589   6.974  0.2663 -0.5452 -0.0089
  244MOL0    Cl32850   4.600   9.652   6.825 -0.2774  0.5713 -0.4000
  244MOL0     C32851   4.100   9.338   7.814  0.3832  0.0506 -0.9556
  244MOL0     C32852   4.017   9.306   7.921 -0.0868 -0.1033 -0.7363
  244MOL0     O32853   3.645   9.271   7.950  0.1517 -0.7172 -1.2885
  244MOL0     C32854   3.499   9.231   8.176 -0.1875  0.0259  0.3973
  244MOL0     C32855   3.418   9.186   8.286 -0.8456  0.1986  0.2810
  244MOL0     N32856   2.987   9.425   8.943 -0.0638 -0.8684  0.4156
  244MOL0     N32857   3.035   9.453   9.060 -0.6934  0.0241  0.7936
  244MOL0     C32858   3.925   8.811   9.577 -0.5108  0.3185  0.1954
  244MOL0     C32859   4.045   8.753   9.606  0.4571 -0.9366  0.4484
  244MOL0     C32860   4.358   8.588   9.878 -0.2644  0.0024 -0.2520
  244MOL0     C32861   4.490   8.593   9.821 -0.1151 -0.4688  0.1800
  244MOL0     C32862   4.590   8.506   9.868 -0.0899  0.0440 -0.6916
  244MOL0     C32863   4.578   8.423   9.976  0.4749  0.2518 -0.3267
  244MOL0     O32864   4.684   8.344  10.004  0.4735 -0.4758 -0.6763
  244MOL0     C32865   4.703   8.296  10.135  0.3557 -0.0947  0.2969
  244MOL0     C32866   4.736   8.405  10.239 -0.3358 -0.7630  1.2737
  244MOL0     C32867   4.796   8.352  10.369  0.5207  0.8323  0.0217
  244MOL0     C32868   4.946   8.314  10.349  1.0007 -0.1447  0.2165
  244MOL0     C32869   4.991   8.244  10.463 -0.2450 -0.6337 -0.7395
  244MOL0     C32870   5.047   8.177  10.551 -0.7041 -1.4112  0.1030
  244MOL0     C32871   4.455   8.432  10.044  0.0204  0.7866  0.2788
  244MOL0     C32872   4.347   8.511   9.996 -0.3670  0.6438 -0.6994
  244MOL0     H32873   4.194   9.006   9.769 -0.0514 -0.0295 -0.4142
  244MOL0     H32874   3.992   9.130   9.689 -2.0657  0.9817 -0.5023
  244MOL0     H32875   3.661   8.851   9.566 -0.7350  0.5099 -0.0941
  244MOL0     H32876   3.676   8.946   9.722 -0.0897  2.3841 -0.0457
  244MOL0     H32877   3.464   8.990   9.664  0.7134 -1.1173  0.8207
  244MOL0     H32878   3.565   9.131   9.623  1.2382 -0.2162 -0.2388
  244MOL0     H32879   3.555   9.101   9.386 -2.0262  0.9772 -1.6703
  244MOL0     H32880   3.470   8.944   9.403 -1.3321  1.0115 -1.7875
  244MOL0     H32881   3.272   9.054   9.518 -1.2385  4.3159  1.4298
  244MOL0     H32882   3.362   9.212   9.500 -2.8522  0.9015  0.3726
  244MOL0     H32883   3.361   9.167   9.255  1.7583 -3.1812 -0.0028
  244MOL0     H32884   3.254   9.026   9.292  0.5261  0.5406 -1.0604
  244MOL0     H32885   3.101   9.186   9.254  0.8509  1.3269 -0.5725
  244MOL0     H32886   3.107   9.197   9.427 -1.5443 -2.5020 -1.0869
  244MOL0     H32887   3.096   9.420   9.320  1.0404  3.4413  1.3843
  244MOL0     H32888   3.263   9.408   9.391 -1.3091  2.0156 -0.2894
  244MOL0     H32889   3.333   9.329   9.166 -0.4229 -0.3783  1.6061
  244MOL0     H32890   3.296   9.492   9.192  2.2059 -0.4889 -0.4271
  244MOL0     H32891   3.263   9.241   8.952  0.4922  0.1704 -0.0770
  244MOL0     H32892   3.085   9.154   8.761 -0.3725 -0.3816 -0.5298
  244MOL0     H32893   2.932   9.238   8.757  0.8463 -0.5391 -0.8457
  244MOL0     H32894   3.074   9.439   8.646 -0.5443 -0.2446 -2.2059
  244MOL0     H32895   3.043   9.295   8.544 -1.9640 -1.7324  1.1676
  244MOL0     H32896   3.319   9.333   8.673  0.1161  0.6419 -0.7648
  244MOL0     H32897   3.263   9.374   8.518  0.3966 -2.2811 -1.2144
  244MOL0     H32898   3.214   9.154   8.451 -1.0011  2.3047  0.4146
  244MOL0     H32899   3.228   9.096   8.616 -2.7084  0.4287 -0.8661
  244MOL0     H32900   3.651   9.239   8.519  4.6387 -5.4343 -1.5172
  244MOL0     H32901   3.849   9.335   8.449  2.0909 -0.3301 -0.3416
  244MOL0     H32902   3.922   9.239   8.329  1.6361  0.9650 -0.1744
  244MOL0     H32903   3.847   9.401   8.281 -0.3533 -1.9954 -2.9926
  244MOL0     H32904   3.762   9.525   7.862  0.7537  1.7341  0.3469
  244MOL0     H32905   3.904   9.560   7.656 -0.1599  2.1139  2.7361
  244MOL0     H32906   4.305   9.469   7.712 -0.3831 -2.1797  0.2498
  244MOL0     H32907   4.310   9.354   7.578  0.8009 -0.0634  1.9833
  244MOL0     H32908   4.269   9.576   7.429 -1.8331  1.1704 -0.1305
  244MOL0     H32909   4.309   9.656   7.584 -0.1296 -0.7025  0.0711
  244MOL0     H32910   4.519   9.489   7.566 -0.3440  2.7954  1.6488
  244MOL0     H32911   4.521   9.643   7.479 -3.0492  1.8884 -2.4608
  244MOL0     H32912   4.456   9.371   7.351 -0.2774  0.5507 -0.2491
  244MOL0     H32913   4.422   9.518   7.268 -1.7763 -1.1204  0.6648
  244MOL0     H32914   4.692   9.424   7.360 -0.5847 -2.5596 -0.8144
  244MOL0     H32915   4.665   9.594   7.297 -2.8865  0.6806  0.2025
  244MOL0     H32916   4.783   9.427   7.143 -0.0598 -1.5630 -0.8213
  244MOL0     H32917   4.656   9.312   7.174 -0.2194  0.3921 -1.1057
  244MOL0     H32918   4.495   9.508   7.069  0.2996  1.5930  0.7880
  244MOL0     H32919   4.569   9.396   6.975 -1.0917  0.6095  0.1466
  244MOL0     H32920   4.782   9.556   6.947  1.3051  2.1976  0.1997
  244MOL0     H32921   4.695   9.674   7.041  1.6292 -1.8668  1.4864
  244MOL0     H32922   4.193   9.286   7.798 -0.0825 -0.3077 -2.7292
  244MOL0     H32923   4.045   9.230   7.994  0.8230  1.0982  0.2189
  244MOL0     H32924   3.463   9.221   8.074  2.4356 -0.4449 -0.5780
  244MOL0     H32925   3.321   9.142   8.265 -1.0749  1.5904 -1.8772
  244MOL0     H32926   3.852   8.762   9.514 -1.2318  1.8842 -0.2332
  244MOL0     H32927   4.054   8.654   9.561  0.3967 -1.0713  0.7260
  244MOL0     H32928   4.516   8.659   9.739  1.0922 -0.4771  0.5315
  244MOL0     H32929   4.689   8.505   9.824  0.5603  0.4205  0.6760
  244MOL0     H32930   4.620   8.231  10.165  2.6202 -2.1579  2.6638
  244MOL0     H32931   4.777   8.220  10.110 -0.6487 -0.7233 -0.8821
  244MOL0     H32932   4.648   8.468  10.253  0.2588  0.0521  1.4552
  244MOL0     H32933   4.809   8.474  10.195 -3.6278  1.4353 -1.1389
  244MOL0     H32934   4.738   8.262  10.391  0.8530  1.2481  3.1478
  244MOL0     H32935   4.778   8.429  10.446 -1.7545  2.3577 -1.8890
  244MOL0     H32936   5.007   8.403  10.331 -2.0037  1.8596 -0.7983
  244MOL0     H32937   4.962   8.248  10.263 -0.4559  2.0131 -1.8092
  244MOL0     H32938   5.104   8.113  10.615  1.2606  1.2698  1.2315
  244MOL0     H32939   4.426   8.356  10.116 -2.2063  0.7168 -0.6135
  244MOL0     H32940   4.255   8.499  10.051 -0.0016  1.8872  0.2322
  245MOL0     O32941  10.997   5.701   4.669  0.3332  0.1872 -0.6560
  245MOL0     C32942  10.984   5.726   4.789 -0.0605  0.1084 -0.2914
  245MOL0     O32943  10.864   5.714   4.854  0.1221  0.1763 -0.4406
  245MOL0     C32944  10.751   5.738   4.784 -0.0779  0.5399  0.3414
  245MOL0     C32945  10.628   5.700   4.842  0.1490 -0.2680 -0.2641
  245MOL0     C32946  10.505   5.735   4.795  0.0302 -0.8660 -0.4760
  245MOL0     C32947  10.494   5.808   4.671  0.3007  0.3417  0.0067
  245MOL0     O32948  10.384   5.865   4.623 -0.2922 -0.2698  0.2941
  245MOL0     C32949  10.267   5.875   4.704 -0.2402  0.1634  0.1700
  245MOL0     C32950  10.151   5.917   4.614 -0.5152 -0.8889  0.7999
  245MOL0     C32951  10.013   5.913   4.682  0.4012  0.0759 -0.3436
  245MOL0     C32952   9.922   5.951   4.563 -0.5444  0.6175 -0.2991
  245MOL0     C32953   9.775   5.943   4.609  0.2073 -0.8415 -0.2421
  245MOL0     C32954   9.674   6.023   4.520  0.4024  0.2202 -0.3026
  245MOL0     C32955   9.525   6.000   4.573 -0.2015  0.0633  0.2507
  245MOL0     C32956   9.420   6.021   4.467  0.0940 -0.0564  0.1746
  245MOL0     N32957   9.288   5.975   4.531 -0.0019 -0.3602  0.2847
  245MOL0     C32958   9.186   5.921   4.456 -0.7841  1.0735  0.6162
  245MOL0     C32959   9.074   5.917   4.534 -0.2294  0.8076  0.1400
  245MOL0     C32960   8.927   5.878   4.503 -0.3096  0.4092  0.3136
  245MOL0     C32961   8.910   5.723   4.538  0.9109 -1.0989 -1.0600
  245MOL0     C32962   9.011   5.628   4.472 -0.3961  0.8558  0.0413
  245MOL0     C32963   8.980   5.482   4.505 -0.9098 -0.7770 -0.6334
  245MOL0     O32964   8.854   5.445   4.467  0.0538  0.0524 -0.2309
  245MOL0     C32965   8.804   5.318   4.475 -0.5459  0.1185 -0.4194
  245MOL0     C32966   8.668   5.314   4.458  0.3624 -0.6783  0.2226
  245MOL0     C32967   8.591   5.198   4.487  0.0204  0.3374 -0.9505
  245MOL0     C32968   8.438   5.215   4.493  0.4770 -0.3558 -0.6071
  245MOL0     C32969   8.663   5.079   4.521  0.4224 -0.1808  0.9427
  245MOL0     C32970   8.584   4.948   4.534  0.2655  0.0023  0.4295
  245MOL0     O32971   8.645   4.839   4.469 -0.0322  0.0170  0.0094
  245MOL0     C32972   8.574   4.724   4.458  0.5646  0.2980  0.7366
  245MOL0     C32973   8.627   4.620   4.529 -0.3934 -0.5661  0.4323
  245MOL0     C32974   8.566   4.494   4.536 -0.7779  0.0941  0.2660
  245MOL0     C32975   8.435   4.480   4.472 -0.2202 -0.6606  0.1119
  245MOL0     O32976   8.350   4.375   4.495  0.0685  0.6566  0.1026
  245MOL0     C32977   8.376   4.284   4.609  0.3685 -0.0505  0.0802
  245MOL0     C32978   8.469   4.171   4.573  0.4376  0.1589  0.4531
  245MOL0     C32979   8.438   4.046   4.659 -0.5148  0.7787 -0.4725
  245MOL0     C32980   8.539   3.940   4.618  0.9061 -1.2890  0.4318
  245MOL0     C32981   8.486   3.804   4.655  0.3215  0.0582  0.1291
  245MOL0     C32982   8.584   3.690   4.618  0.0875 -0.3531 -0.3555
  245MOL0     C32983   8.719   3.695   4.697 -0.4143 -0.1670 -0.1526
  245MOL0     C32984   8.783   3.556   4.699 -0.8123  0.0802 -0.7431
  245MOL0    Cl32985   8.887   3.556   4.554 -0.2614 -0.0041  0.1950
  245MOL0     C32986   8.388   4.585   4.390 -0.3701  0.3555  0.1133
  245MOL0     C32987   8.461   4.704   4.382 -0.0356 -0.6271 -0.0703
  245MOL0     O32988   8.476   4.937   4.588  0.5394 -0.4908 -0.0183
  245MOL0     C32989   8.805   5.078   4.520  0.4078  0.5925 -0.4254
  245MOL0     C32990   8.877   5.198   4.499  0.5370  0.1911  0.4124
  245MOL0     N32991   9.104   5.988   4.649  0.4519  0.6387  0.2047
  245MOL0     N32992   9.234   6.010   4.645  0.0743  0.6018  0.0982
  245MOL0     C32993  10.613   5.843   4.610 -0.2888 -0.3483  0.6137
  245MOL0     C32994  10.733   5.821   4.667  0.3003 -0.0359  0.9082
  245MOL0     C32995  11.113   5.755   4.855 -0.3488 -0.1592 -0.4413
  245MOL0     C32996  11.224   5.804   4.781  0.6055 -0.2640  0.1020
  245MOL0     C32997  11.339   5.846   4.847  0.5326  0.5694 -0.0610
  245MOL0     C32998  11.359   5.807   4.977  0.2041  0.2936 -0.2265
  245MOL0     O32999  11.467   5.848   5.052 -0.4937 -0.2957  0.1841
  245MOL0     C33000  11.572   5.920   4.985  0.2524 -0.0132  0.1100
  245MOL0     C33001  11.663   5.947   5.101 -0.2502 -0.0204  0.3701
  245MOL0     C33002  11.798   6.019   5.053 -0.1915 -0.1611  0.7746
  245MOL0     C33003  11.870   6.115   5.155  0.4081 -0.2883  0.0598
  245MOL0     C33004  11.958   6.040   5.240 -0.2855 -0.3956 -0.8739
  245MOL0     C33005  12.036   5.967   5.311 -0.4007 -0.3305  0.6145
  245MOL0     C33006  11.256   5.743   5.047  0.5055  0.4502 -0.1456
  245MOL0     C33007  11.136   5.720   4.987 -0.5121 -0.0621  0.6257
  245MOL0     H33008  10.634   5.655   4.940  2.5158 -0.7632 -0.5810
  245MOL0     H33009  10.422   5.709   4.859  1.8729 -0.5061  2.2025
  245MOL0     H33010  10.241   5.775   4.740  2.4496 -0.5882  0.2511
  245MOL0     H33011  10.276   5.940   4.791 -0.4893 -1.3659  1.3904
  245MOL0     H33012  10.175   6.021   4.592  1.2891 -0.5704  3.6725
  245MOL0     H33013  10.152   5.862   4.520  0.6856  1.1614 -0.4722
  245MOL0     H33014   9.981   5.816   4.721 -0.7735 -0.1476 -1.7707
  245MOL0     H33015  10.010   5.990   4.760  2.1311  1.2424 -1.3762
  245MOL0     H33016   9.954   6.046   4.519 -1.8235 -0.2929 -3.4683
  245MOL0     H33017   9.930   5.872   4.488 -1.8290  1.3730 -1.2735
  245MOL0     H33018   9.735   5.842   4.619 -1.5676 -0.3345 -1.6960
  245MOL0     H33019   9.775   5.981   4.712 -3.1703  1.6822 -0.9997
  245MOL0     H33020   9.701   6.128   4.511 -0.3188  0.5148  0.7203
  245MOL0     H33021   9.687   5.977   4.422  2.1289 -1.9814  0.8390
  245MOL0     H33022   9.512   5.894   4.597 -0.2600  0.2282  0.9600
  245MOL0     H33023   9.517   6.053   4.668 -1.9574  0.1910  0.0587
  245MOL0     H33024   9.444   5.964   4.377  0.6909 -0.2087  0.4270
  245MOL0     H33025   9.402   6.125   4.436 -1.7910  1.1213  4.4625
  245MOL0     H33026   9.175   5.869   4.361 -1.7007  0.2011  1.1677
  245MOL0     H33027   8.854   5.949   4.544 -1.9106  0.4685 -2.4256
  245MOL0     H33028   8.913   5.874   4.395  1.5190  0.0511  0.0576
  245MOL0     H33029   8.811   5.695   4.501 -0.3189  1.1292  0.3428
  245MOL0     H33030   8.927   5.713   4.646 -0.8947 -2.6866 -0.8514
  245MOL0     H33031   9.117   5.639   4.496 -0.6497 -1.4507  2.7550
  245MOL0     H33032   9.005   5.635   4.363  0.0166 -1.0937 -0.1404
  245MOL0     H33033   8.998   5.476   4.613 -0.9202  0.4405 -0.5406
  245MOL0     H33034   9.057   5.421   4.458 -0.1638 -0.6423  0.3770
  245MOL0     H33035   8.620   5.409   4.435  2.4065  0.3015 -0.1726
  245MOL0     H33036   8.384   5.138   4.436 -0.2812 -0.6444  0.4741
  245MOL0     H33037   8.409   5.207   4.598 -3.0541  0.7439 -1.3345
  245MOL0     H33038   8.404   5.315   4.461 -1.7153 -1.4035 -1.8039
  245MOL0     H33039   8.719   4.638   4.584 -1.5082 -1.0224  2.5367
  245MOL0     H33040   8.609   4.416   4.599 -2.1330  0.1494  1.3032
  245MOL0     H33041   8.414   4.348   4.689  2.4143  0.4399 -1.2122
  245MOL0     H33042   8.281   4.235   4.635  0.8939 -1.8618 -1.2244
  245MOL0     H33043   8.457   4.144   4.468 -0.9585  1.9660  0.1024
  245MOL0     H33044   8.573   4.199   4.593  0.0335  1.5997  0.6859
  245MOL0     H33045   8.333   4.020   4.644 -0.4486  1.7378 -3.1309
  245MOL0     H33046   8.459   4.069   4.764  3.5777  1.0408 -1.1897
  245MOL0     H33047   8.571   3.945   4.514  0.2871  3.3305  0.2452
  245MOL0     H33048   8.632   3.961   4.670  1.0402  0.4723 -0.4446
  245MOL0     H33049   8.388   3.779   4.612 -1.3731  4.8711  0.5081
  245MOL0     H33050   8.484   3.802   4.764  0.5304 -2.8414  0.1574
  245MOL0     H33051   8.540   3.593   4.641  0.5045 -0.9882 -2.1239
  245MOL0     H33052   8.606   3.704   4.512  0.4087  1.7122 -0.0613
  245MOL0     H33053   8.709   3.744   4.794 -0.1311 -0.0090 -0.2015
  245MOL0     H33054   8.787   3.769   4.653 -0.5360 -0.0400 -0.1298
  245MOL0     H33055   8.710   3.476   4.702 -0.0587 -0.5908  0.1081
  245MOL0     H33056   8.833   3.538   4.794 -1.0786  1.3120 -0.3442
  245MOL0     H33057   8.298   4.568   4.331 -1.2546 -1.4371  1.8733
  245MOL0     H33058   8.428   4.792   4.328 -1.8320 -0.1433  1.6738
  245MOL0     H33059   8.863   4.987   4.525 -2.1986 -1.3417 -2.6402
  245MOL0     H33060   8.986   5.199   4.504  0.5680  1.6560 -0.0313
  245MOL0     H33061  10.611   5.897   4.516  0.3638  2.2301  1.9961
  245MOL0     H33062  10.821   5.850   4.611  1.6719 -3.1296  1.2967
  245MOL0     H33063  11.215   5.836   4.678  0.5218 -0.5330  0.0247
  245MOL0     H33064  11.410   5.908   4.792 -1.1512  3.0553  0.3758
  245MOL0     H33065  11.626   5.855   4.916 -0.6599  0.7736 -1.3968
  245MOL0     H33066  11.542   6.015   4.940 -0.7503 -0.9810 -1.3690
  245MOL0     H33067  11.696   5.851   5.140  1.4209  1.7048  3.6112
  245MOL0     H33068  11.614   5.999   5.183 -0.0492  0.8372 -0.0303
  245MOL0     H33069  11.774   6.084   4.968  1.5886  1.1036  1.1839
  245MOL0     H33070  11.868   5.944   5.014  1.4761  0.9505  1.5239
  245MOL0     H33071  11.788   6.166   5.206  1.5549  1.2672  0.4170
  245MOL0     H33072  11.915   6.202   5.106 -2.3911  1.2841  0.0803
  245MOL0     H33073  12.105   5.906   5.367  4.1464  1.7908 -2.1344
  245MOL0     H33074  11.270   5.729   5.154 -0.9464  3.0758  0.4855
  245MOL0     H33075  11.064   5.669   5.051 -4.3917  1.9665 -1.7302
  246MOL0     O33076   0.265   7.177   6.057 -0.5178 -0.2055 -0.8792
  246MOL0     C33077   0.291   7.105   6.155  0.0287 -0.5121 -0.6889
  246MOL0     O33078   0.207   7.013   6.211 -0.6939  0.2129  0.2665
  246MOL0     C33079   0.083   6.986   6.160 -0.8595  0.3680  0.4476
  246MOL0     C33080   0.050   6.853   6.193 -0.2459 -0.5027 -0.8972
  246MOL0     C33081  -0.093   6.822   6.164 -1.5137  0.2088  0.8028
  246MOL0     C33082  -0.179   6.901   6.089  0.3281  0.9833 -0.3253
  246MOL0     O33083  -0.301   6.858   6.033  0.0025 -0.5399  0.0557
  246MOL0     C33084  -0.399   6.823   6.121 -0.1060 -0.5293 -0.3333
  246MOL0     C33085  -0.525   6.829   6.027  0.5872 -0.0752  0.1940
  246MOL0     C33086  -0.650   6.772   6.090  0.4784  0.2736  0.1044
  246MOL0     C33087  -0.787   6.789   6.013 -0.3716  0.0349  0.3204
  246MOL0     C33088  -0.895   6.714   6.085  0.2040  0.5101 -0.0056
  246MOL0     C33089  -1.010   6.705   5.991  1.0525 -0.6469  0.9151
  246MOL0     C33090  -1.131   6.651   6.065  0.4093  0.0247  0.0317
  246MOL0     C33091  -1.243   6.650   5.961 -0.1319 -0.2904 -0.0982
  246MOL0     N33092  -1.356   6.580   6.023 -0.6568 -0.3637  0.1778
  246MOL0     C33093  -1.407   6.581   6.148  0.1041  0.1315 -0.0341
  246MOL0     C33094  -1.505   6.485   6.164 -0.2544 -0.5537 -0.1164
  246MOL0     C33095  -1.578   6.458   6.291  1.2423  0.7568 -0.2857
  246MOL0     C33096  -1.732   6.478   6.278  0.0887  0.0019  0.6868
  246MOL0     C33097  -1.802   6.382   6.378  0.0095 -0.2241  0.6939
  246MOL0     C33098  -1.769   6.423   6.531  0.0751  0.1937  0.5777
  246MOL0     O33099  -1.816   6.561   6.557 -0.7112  0.2033 -0.2832
  246MOL0     C33100  -1.949   6.597   6.550  0.0311 -0.2932 -0.8141
  246MOL0     C33101  -1.980   6.730   6.554 -0.6787 -0.7492  0.4914
  246MOL0     C33102  -2.110   6.787   6.573  0.4606  0.1337  0.3277
  246MOL0     C33103  -2.121   6.946   6.579  0.0098  0.0796 -0.1667
  246MOL0     C33104  -2.218   6.698   6.580  0.2234  0.3717  0.6408
  246MOL0     C33105  -2.360   6.732   6.600  0.7507 -0.3570 -0.0730
  246MOL0     O33106  -2.452   6.625   6.622 -0.0489  0.5821  0.1532
  246MOL0     C33107  -2.588   6.648   6.624 -0.1639  0.0403 -0.7366
  246MOL0     C33108  -2.639   6.734   6.721 -0.8456 -1.0697  0.7201
  246MOL0     C33109  -2.777   6.753   6.740 -0.3769 -0.3507  0.5433
  246MOL0     C33110  -2.867   6.690   6.651  0.8480  0.2300 -0.0887
  246MOL0     O33111  -3.003   6.721   6.664 -0.6617  0.7330  1.0537
  246MOL0     C33112  -3.095   6.630   6.592  0.4573 -0.1470  0.1199
  246MOL0     C33113  -3.228   6.627   6.655  0.5935  0.4957 -0.0795
  246MOL0     C33114  -3.331   6.536   6.585 -0.3659 -0.6052  0.2451
  246MOL0     C33115  -3.428   6.615   6.502  0.0434 -0.1708  0.4003
  246MOL0     C33116  -3.521   6.518   6.432 -0.2916  0.2616 -0.2492
  246MOL0     C33117  -3.642   6.595   6.364 -0.6643  0.3083  0.2456
  246MOL0     C33118  -3.732   6.502   6.286  0.5395  0.8688 -0.6123
  246MOL0     C33119  -3.838   6.562   6.198  0.3501 -0.4700  0.2147
  246MOL0    Cl33120  -3.940   6.678   6.296 -0.2904  0.3013 -0.5100
  246MOL0     C33121  -2.817   6.599   6.556 -0.8060 -0.8890  0.5199
  246MOL0     C33122  -2.681   6.582   6.536 -0.4499 -0.4568  0.1525
  246MOL0     O33123  -2.396   6.850   6.595 -0.6605  0.1915 -0.4529
  246MOL0     C33124  -2.189   6.554   6.570 -0.1221  0.3595 -0.1559
  246MOL0     C33125  -2.058   6.510   6.567 -0.2072  0.3906 -0.3528
  246MOL0     N33126  -1.514   6.427   6.039 -0.3462  0.1010  0.3208
  246MOL0     N33127  -1.421   6.480   5.958  0.0397 -0.2503 -0.0273
  246MOL0     C33128  -0.123   7.020   6.039 -0.4432 -0.3755 -0.1831
  246MOL0     C33129   0.000   7.059   6.083  0.0744 -0.5741 -0.2391
  246MOL0     C33130   0.411   7.122   6.236  0.1910 -0.5340  0.7302
  246MOL0     C33131   0.503   7.213   6.190  0.1540 -0.4583  0.0061
  246MOL0     C33132   0.609   7.237   6.271  0.5466  0.3506 -0.6839
  246MOL0     C33133   0.636   7.168   6.395  0.5112 -0.0069 -0.6974
  246MOL0     O33134   0.754   7.199   6.450 -0.4591  0.0867  0.9305
  246MOL0     C33135   0.783   7.136   6.574  0.1341 -0.4181 -0.1144
  246MOL0     C33136   0.918   7.181   6.625  0.3397  0.1363  0.3624
  246MOL0     C33137   0.904   7.333   6.648 -0.0593 -0.6234 -0.2849
  246MOL0     C33138   1.028   7.378   6.733  0.3913 -1.5640  0.2491
  246MOL0     C33139   1.152   7.402   6.659  0.7680 -0.1285 -0.6804
  246MOL0     C33140   1.261   7.406   6.610 -1.0752 -0.1502 -0.6040
  246MOL0     C33141   0.548   7.072   6.432  0.3583  0.4960 -0.2334
  246MOL0     C33142   0.435   7.048   6.354  1.4976 -1.0985 -0.4416
  246MOL0     H33143   0.116   6.798   6.259 -1.9925  0.8626  2.1976
  246MOL0     H33144  -0.133   6.730   6.206 -1.7279  1.0330  2.4815
  246MOL0     H33145  -0.395   6.720   6.158 -2.8514 -1.3526 -1.9791
  246MOL0     H33146  -0.408   6.896   6.202 -0.2737 -1.2960  0.3488
  246MOL0     H33147  -0.539   6.937   6.021  3.5208  0.3446 -0.6286
  246MOL0     H33148  -0.500   6.799   5.925 -0.1726  1.8552 -0.5943
  246MOL0     H33149  -0.648   6.665   6.113 -1.0339  0.2693  0.3109
  246MOL0     H33150  -0.659   6.831   6.181 -0.4427  3.4876 -1.9083
  246MOL0     H33151  -0.793   6.896   5.993  0.7778 -0.3842 -2.8826
  246MOL0     H33152  -0.780   6.752   5.910  0.4188  4.0377 -1.2352
  246MOL0     H33153  -0.864   6.611   6.106 -0.1294  0.1464 -1.2367
  246MOL0     H33154  -0.911   6.773   6.176  1.6707  2.2625 -0.8205
  246MOL0     H33155  -1.040   6.803   5.952  0.1989 -0.9989  0.6568
  246MOL0     H33156  -0.986   6.642   5.906  0.2524 -0.3568  0.4572
  246MOL0     H33157  -1.113   6.553   6.111  2.1590  0.4710  0.3484
  246MOL0     H33158  -1.145   6.720   6.149  0.9219 -1.3522  1.3065
  246MOL0     H33159  -1.214   6.595   5.871 -1.2890  1.0978 -1.3658
  246MOL0     H33160  -1.276   6.749   5.929  2.1465 -0.4929 -3.6548
  246MOL0     H33161  -1.365   6.650   6.220  1.6505 -1.5814  0.8063
  246MOL0     H33162  -1.548   6.355   6.313  2.2199  0.9722 -0.5651
  246MOL0     H33163  -1.539   6.517   6.374  0.3223 -0.6921  1.2527
  246MOL0     H33164  -1.768   6.457   6.177 -2.1211 -1.4267  1.6994
  246MOL0     H33165  -1.765   6.578   6.308 -1.0833 -0.9394  2.7974
  246MOL0     H33166  -1.772   6.278   6.361 -3.4601 -0.8904 -2.5663
  246MOL0     H33167  -1.910   6.384   6.363  0.2342  2.0413 -1.0410
  246MOL0     H33168  -1.662   6.411   6.551  0.1178  0.6894  0.6526
  246MOL0     H33169  -1.821   6.355   6.600 -0.2366  0.2998  0.4494
  246MOL0     H33170  -1.893   6.795   6.552  0.0170 -1.6722 -0.3792
  246MOL0     H33171  -2.126   6.982   6.682 -1.7005 -0.3080 -0.0836
  246MOL0     H33172  -2.037   6.994   6.528  1.1504  0.8360  2.2596
  246MOL0     H33173  -2.210   6.978   6.524  1.0669 -1.2065 -2.7627
  246MOL0     H33174  -2.558   6.783   6.776  0.8145 -1.9248 -0.8510
  246MOL0     H33175  -2.816   6.814   6.821  0.2098 -1.7637  1.9502
  246MOL0     H33176  -3.096   6.647   6.484 -0.9057 -1.0254 -0.0347
  246MOL0     H33177  -3.056   6.529   6.606  1.2197  0.0798 -0.3071
  246MOL0     H33178  -3.227   6.594   6.759  0.6588  1.8278  0.3693
  246MOL0     H33179  -3.273   6.727   6.660  1.7931  1.0863 -0.7836
  246MOL0     H33180  -3.376   6.475   6.664  1.2267 -0.9070  0.9808
  246MOL0     H33181  -3.273   6.469   6.520 -1.1384  0.1476 -1.2514
  246MOL0     H33182  -3.488   6.688   6.558  0.4522  1.0106 -0.6721
  246MOL0     H33183  -3.376   6.676   6.427 -0.5638 -1.8565 -1.4733
  246MOL0     H33184  -3.556   6.450   6.511  5.2028 -1.3049  1.2501
  246MOL0     H33185  -3.468   6.452   6.363  1.9456  1.5048  0.2005
  246MOL0     H33186  -3.704   6.632   6.446 -1.1841 -0.5588  0.2533
  246MOL0     H33187  -3.606   6.675   6.298 -2.8415  0.2877 -1.0487
  246MOL0     H33188  -3.785   6.435   6.355  0.2043 -0.5355 -2.1640
  246MOL0     H33189  -3.682   6.427   6.224 -0.5508  1.4829 -2.2861
  246MOL0     H33190  -3.906   6.490   6.151 -3.1494  2.8850 -0.3150
  246MOL0     H33191  -3.795   6.624   6.119 -0.0485 -0.7902 -0.2579
  246MOL0     H33192  -2.875   6.559   6.474 -2.4026  0.9993  0.6565
  246MOL0     H33193  -2.653   6.516   6.455  0.7215 -0.2150  0.3546
  246MOL0     H33194  -2.263   6.477   6.590 -0.1924  0.4688 -0.0015
  246MOL0     H33195  -2.036   6.407   6.592  3.4553  0.5847 -2.0827
  246MOL0     H33196  -0.171   7.089   5.970 -0.2457 -0.3247 -0.2705
  246MOL0     H33197   0.042   7.154   6.051 -2.0761  1.2486  2.0066
  246MOL0     H33198   0.491   7.258   6.092  0.4209 -3.0816 -1.3443
  246MOL0     H33199   0.677   7.318   6.246 -0.1563  0.5512 -2.0119
  246MOL0     H33200   0.705   7.156   6.648 -0.4416 -0.7510 -0.6117
  246MOL0     H33201   0.778   7.027   6.564  0.3066 -0.5245  0.8916
  246MOL0     H33202   0.994   7.158   6.550 -2.6370 -2.1434 -2.2709
  246MOL0     H33203   0.934   7.126   6.718  0.0437 -2.1858 -0.8821
  246MOL0     H33204   0.816   7.363   6.705  1.6354  2.1394  1.1104
  246MOL0     H33205   0.905   7.396   6.559  0.8324  1.0295  0.8391
  246MOL0     H33206   1.056   7.310   6.813 -0.7657  0.4321  2.4816
  246MOL0     H33207   0.996   7.470   6.783 -2.5303 -2.9663  1.1829
  246MOL0     H33208   1.364   7.413   6.579 -0.9994  2.0782 -0.0233
  246MOL0     H33209   0.566   7.008   6.517  0.6271  0.6158 -0.1974
  246MOL0     H33210   0.364   6.976   6.393  2.0779 -1.2073  0.4434
  247MOL0     O33211   1.182   4.598   3.736 -0.2136  1.1979  0.1206
  247MOL0     C33212   1.182   4.604   3.862 -0.1768 -0.2535  0.1417
  247MOL0     O33213   1.085   4.668   3.942  0.3150 -0.1979 -0.8453
  247MOL0     C33214   0.960   4.708   3.901 -0.6942 -0.7608  0.1580
  247MOL0     C33215   0.922   4.837   3.948 -0.5124  0.1452 -0.3062
  247MOL0     C33216   0.796   4.889   3.909  0.5109 -0.0556 -0.2193
  247MOL0     C33217   0.702   4.809   3.836 -0.2684  0.1771  0.9027
  247MOL0     O33218   0.588   4.854   3.779 -0.3919 -0.2214 -0.2024
  247MOL0     C33219   0.581   4.992   3.742  0.2421  0.2531  0.0466
  247MOL0     C33220   0.524   5.086   3.856  0.1925  0.5758  0.2588
  247MOL0     C33221   0.395   5.029   3.906 -0.3463 -0.4393  0.5955
  247MOL0     C33222   0.280   5.081   3.826 -0.5327 -0.1220  0.1718
  247MOL0     C33223   0.154   4.999   3.847 -0.1574  0.0557 -0.0476
  247MOL0     C33224   0.037   5.081   3.800  0.3066 -0.0584  0.3567
  247MOL0     C33225  -0.093   5.006   3.831 -0.7570  0.0935 -0.0985
  247MOL0     C33226  -0.216   5.088   3.789  0.4670  0.2422 -0.0394
  247MOL0     N33227  -0.345   5.033   3.833  0.1503  1.1118 -0.0030
  247MOL0     C33228  -0.414   4.933   3.761 -0.6111 -0.0971 -0.3908
  247MOL0     C33229  -0.515   4.901   3.844 -0.9250 -0.0668 -0.3502
  247MOL0     C33230  -0.628   4.800   3.824 -1.3542 -0.8582 -0.5738
  247MOL0     C33231  -0.581   4.671   3.765  0.1175 -0.0994  0.5584
  247MOL0     C33232  -0.516   4.586   3.873 -0.7009  1.0471  0.5780
  247MOL0     C33233  -0.471   4.447   3.820 -0.2793  0.4084  0.8378
  247MOL0     O33234  -0.584   4.392   3.747 -0.0957  0.3051 -0.5015
  247MOL0     C33235  -0.680   4.331   3.834 -0.8979 -0.2374  0.2660
  247MOL0     C33236  -0.652   4.281   3.963 -0.0172 -0.3351  0.1817
  247MOL0     C33237  -0.754   4.233   4.037  0.8657  1.6332  0.3825
  247MOL0     C33238  -0.709   4.157   4.158 -0.6342 -0.5320 -0.2145
  247MOL0     C33239  -0.890   4.247   4.001 -0.5727 -0.0523  0.7410
  247MOL0     C33240  -0.997   4.173   4.063  0.1242  0.0410  0.7869
  247MOL0     O33241  -1.108   4.248   4.076 -0.2150 -0.5877 -0.6035
  247MOL0     C33242  -1.235   4.189   4.086  0.1151  0.2822 -0.0720
  247MOL0     C33243  -1.268   4.053   4.052 -0.7919  0.8018  0.5515
  247MOL0     C33244  -1.397   4.005   4.072 -0.1399  0.4651 -0.4160
  247MOL0     C33245  -1.501   4.088   4.111  0.6802  0.3506 -0.4641
  247MOL0     O33246  -1.624   4.027   4.132 -0.2262 -0.4658  0.6293
  247MOL0     C33247  -1.736   4.103   4.183 -0.4228  0.2889  0.0753
  247MOL0     C33248  -1.851   4.002   4.208 -0.2511 -0.1347 -0.0698
  247MOL0     C33249  -1.971   4.078   4.266  0.2892 -0.5544  0.1558
  247MOL0     C33250  -2.082   3.997   4.335  0.0668  0.3083 -0.2926
  247MOL0     C33251  -2.210   3.988   4.242 -0.0797 -0.2065 -0.2166
  247MOL0     C33252  -2.319   3.897   4.305  0.6255  0.2625  0.2040
  247MOL0     C33253  -2.464   3.908   4.242 -0.4796 -0.2270  0.0698
  247MOL0     C33254  -2.566   3.838   4.329 -0.3345 -0.5064  0.6713
  247MOL0    Cl33255  -2.732   3.868   4.268 -0.4505 -0.0741  0.4489
  247MOL0     C33256  -1.473   4.222   4.128  0.3270  0.5414  0.2288
  247MOL0     C33257  -1.340   4.275   4.117 -0.4745  0.6408 -0.1234
  247MOL0     O33258  -0.982   4.054   4.100 -0.4829 -0.2458  0.1269
  247MOL0     C33259  -0.914   4.306   3.878  0.4951  0.1934 -0.5326
  247MOL0     C33260  -0.814   4.355   3.799  0.0984 -0.4396  0.0487
  247MOL0     N33261  -0.498   4.972   3.959 -0.0446  0.0798 -0.8169
  247MOL0     N33262  -0.396   5.051   3.959 -0.9927  0.8088 -0.4079
  247MOL0     C33263   0.748   4.679   3.805  0.3404 -0.1536 -0.0241
  247MOL0     C33264   0.872   4.621   3.834 -0.3548  0.0244 -0.2716
  247MOL0     C33265   1.310   4.575   3.923  0.7098  0.9958 -0.5851
  247MOL0     C33266   1.408   4.509   3.848 -0.8231 -0.4925  0.4759
  247MOL0     C33267   1.543   4.486   3.895  1.0276 -0.6391  0.8043
  247MOL0     C33268   1.575   4.527   4.024 -0.0094 -0.0261  1.3341
  247MOL0     O33269   1.700   4.508   4.080  0.0091 -0.0753 -0.7613
  247MOL0     C33270   1.816   4.480   3.995  0.3025 -0.2767  0.3354
  247MOL0     C33271   1.937   4.489   4.083  0.2514 -0.5325  0.2280
  247MOL0     C33272   1.963   4.356   4.146 -1.0551  0.5360  0.4287
  247MOL0     C33273   2.076   4.347   4.249  0.5822  0.0628 -0.3782
  247MOL0     C33274   2.201   4.401   4.194 -0.4578 -0.7283  1.1897
  247MOL0     C33275   2.312   4.426   4.145 -0.0067 -0.8723  0.0549
  247MOL0     C33276   1.478   4.591   4.102  0.4234  0.2618  0.5389
  247MOL0     C33277   1.352   4.627   4.047  0.0632 -0.2052 -0.1278
  247MOL0     H33278   1.001   4.892   3.999  0.5047 -2.3660  1.0551
  247MOL0     H33279   0.781   4.994   3.931  2.0416  0.2356 -0.4771
  247MOL0     H33280   0.680   5.028   3.713 -0.4946  1.8956 -0.5282
  247MOL0     H33281   0.526   5.014   3.649  0.0477  0.5922  0.2391
  247MOL0     H33282   0.598   5.078   3.936  0.0082 -1.1169  0.3101
  247MOL0     H33283   0.525   5.188   3.819  1.6822 -0.5242 -3.0783
  247MOL0     H33284   0.401   4.920   3.909  4.2028 -0.3737  2.3142
  247MOL0     H33285   0.371   5.055   4.010  2.0393 -0.9758  1.3444
  247MOL0     H33286   0.275   5.188   3.850  0.6053  0.8507 -3.3364
  247MOL0     H33287   0.308   5.077   3.721 -0.8015  4.1732 -0.2392
  247MOL0     H33288   0.152   4.903   3.794 -3.9418 -0.7018  1.1354
  247MOL0     H33289   0.151   4.987   3.956  0.1932 -0.9005 -0.1324
  247MOL0     H33290   0.034   5.184   3.838 -1.8253  0.3425 -0.7688
  247MOL0     H33291   0.052   5.100   3.693  1.4830  0.0337  0.5162
  247MOL0     H33292  -0.084   4.915   3.772 -1.1961 -0.6359  0.9345
  247MOL0     H33293  -0.098   4.973   3.935  2.0254 -0.3712 -0.0428
  247MOL0     H33294  -0.226   5.087   3.680  1.8908 -1.3269 -0.1846
  247MOL0     H33295  -0.216   5.193   3.821 -1.6356  0.6889 -1.3367
  247MOL0     H33296  -0.390   4.885   3.667 -1.2871  0.6250 -0.9429
  247MOL0     H33297  -0.685   4.779   3.916 -2.2308 -0.9462 -1.1267
  247MOL0     H33298  -0.696   4.844   3.750 -1.5865  0.4176  0.3613
  247MOL0     H33299  -0.523   4.684   3.673  1.4040  2.5247  1.6405
  247MOL0     H33300  -0.675   4.629   3.728  1.1334 -2.1019  0.1006
  247MOL0     H33301  -0.596   4.571   3.947 -2.0786  2.5514 -0.5441
  247MOL0     H33302  -0.430   4.642   3.910 -0.0617  0.1626  0.4536
  247MOL0     H33303  -0.431   4.377   3.894  0.6627 -0.6494 -0.6159
  247MOL0     H33304  -0.394   4.453   3.742 -0.5116 -0.1958  0.5558
  247MOL0     H33305  -0.551   4.266   4.001 -0.2769  1.7107  1.8314
  247MOL0     H33306  -0.775   4.178   4.242 -0.8911 -0.5273 -0.4156
  247MOL0     H33307  -0.720   4.048   4.147  2.2691 -1.0310  0.9297
  247MOL0     H33308  -0.612   4.182   4.202 -0.8870 -0.3781  0.2678
  247MOL0     H33309  -1.189   3.981   4.033 -0.3698  0.4327  3.2948
  247MOL0     H33310  -1.427   3.902   4.060 -1.9538  0.8631  0.4442
  247MOL0     H33311  -1.707   4.164   4.269  1.4527  0.8867 -0.9271
  247MOL0     H33312  -1.754   4.168   4.096 -0.0294  3.3085  2.0952
  247MOL0     H33313  -1.887   3.950   4.119 -1.2931  2.1324 -1.0642
  247MOL0     H33314  -1.825   3.926   4.282  0.1076  1.0703  1.0787
  247MOL0     H33315  -2.015   4.126   4.178  1.5356 -0.4227 -0.4173
  247MOL0     H33316  -1.940   4.162   4.329 -3.0978 -0.0689  1.3562
  247MOL0     H33317  -2.048   3.895   4.355 -1.8070 -0.0663  1.2675
  247MOL0     H33318  -2.116   4.038   4.430  1.7137 -2.6699  1.7450
  247MOL0     H33319  -2.189   3.966   4.137 -2.6993  1.1765 -1.1026
  247MOL0     H33320  -2.254   4.088   4.239  0.6400  0.0920 -1.7075
  247MOL0     H33321  -2.288   3.792   4.297 -2.0449 -0.4944 -1.4782
  247MOL0     H33322  -2.331   3.925   4.410 -0.8809  0.3114  0.0426
  247MOL0     H33323  -2.465   3.868   4.140  0.6900 -3.7112  1.2618
  247MOL0     H33324  -2.490   4.014   4.247  1.8093  0.3357  1.8974
  247MOL0     H33325  -2.568   3.881   4.429  1.5026  2.0800 -0.2768
  247MOL0     H33326  -2.544   3.731   4.328  0.7381 -0.2994  0.5654
  247MOL0     H33327  -1.552   4.287   4.163  2.1032  3.3756 -0.7315
  247MOL0     H33328  -1.318   4.377   4.145  2.5527 -0.5471  2.3437
  247MOL0     H33329  -1.018   4.309   3.848 -1.1884  1.7155  4.4794
  247MOL0     H33330  -0.831   4.409   3.706  0.0733 -0.7862 -0.1496
  247MOL0     H33331   0.667   4.619   3.764 -0.5411  0.9527  0.0272
  247MOL0     H33332   0.899   4.520   3.804 -2.1280 -0.6051  0.1654
  247MOL0     H33333   1.383   4.479   3.747  1.0768 -1.0208  0.1265
  247MOL0     H33334   1.620   4.441   3.833  1.6073  3.0384 -1.4854
  247MOL0     H33335   1.802   4.375   3.965 -0.4436 -1.6183  4.6605
  247MOL0     H33336   1.811   4.559   3.920  0.0302 -0.0038  0.6366
  247MOL0     H33337   1.922   4.569   4.155  1.4264  2.3871 -2.5655
  247MOL0     H33338   2.016   4.520   4.015  2.2180 -1.5105  1.9505
  247MOL0     H33339   1.989   4.283   4.068 -2.7748  1.6333 -1.2751
  247MOL0     H33340   1.873   4.310   4.190 -1.5263 -2.0532 -2.7925
  247MOL0     H33341   2.091   4.243   4.280 -1.0304  0.4549  2.0177
  247MOL0     H33342   2.046   4.409   4.335  0.8452  2.0277 -1.6391
  247MOL0     H33343   2.408   4.455   4.109 -0.7245 -0.6904 -1.8263
  247MOL0     H33344   1.513   4.615   4.202 -1.5429  3.0295  0.6615
  247MOL0     H33345   1.280   4.686   4.103  2.2793  3.7406 -1.0361
  248MOL0     O33346   6.938   7.948   9.236 -0.8979  0.4971 -0.0138
  248MOL0     C33347   6.975   7.829   9.254 -0.7300 -0.1294 -0.3142
  248MOL0     O33348   6.908   7.719   9.228  0.0466 -0.8447  0.5920
  248MOL0     C33349   6.780   7.721   9.175  0.1045 -0.1451  0.8075
  248MOL0     C33350   6.721   7.821   9.087  0.2449 -0.1853 -0.2127
  248MOL0     C33351   6.588   7.809   9.044 -1.3805  0.2116 -0.0527
  248MOL0     C33352   6.520   7.693   9.073 -0.8042  1.3878  0.2716
  248MOL0     O33353   6.390   7.695   9.034  0.3212 -0.0999 -0.4469
  248MOL0     C33354   6.318   7.571   9.036 -0.5166 -0.0833  0.1478
  248MOL0     C33355   6.181   7.634   8.977  0.2862 -0.4675 -0.0706
  248MOL0     C33356   6.078   7.531   8.955  0.0359 -0.3092  0.3416
  248MOL0     C33357   5.949   7.587   8.910 -0.1025  0.2355 -0.0754
  248MOL0     C33358   5.844   7.481   8.908 -0.5233 -0.4933 -0.0726
  248MOL0     C33359   5.703   7.540   8.882 -0.2705  0.2242 -0.5534
  248MOL0     C33360   5.586   7.434   8.901  0.1086 -0.0516  1.4703
  248MOL0     C33361   5.477   7.451   8.791 -0.2771  0.6049  0.4520
  248MOL0     N33362   5.361   7.371   8.836  0.0263  0.0855 -1.1495
  248MOL0     C33363   5.257   7.436   8.903 -0.2262  0.2774 -0.2474
  248MOL0     C33364   5.172   7.340   8.937 -0.8367  0.0656  0.8278
  248MOL0     C33365   5.034   7.352   9.000  0.0621 -0.3349  0.8503
  248MOL0     C33366   4.921   7.327   8.909  0.2793  0.4017 -0.3726
  248MOL0     C33367   4.788   7.304   8.988  0.1110  0.0356 -0.6638
  248MOL0     C33368   4.667   7.294   8.891 -0.0626  0.1567  1.0450
  248MOL0     O33369   4.603   7.423   8.879  0.1973 -0.0116 -0.1610
  248MOL0     C33370   4.493   7.424   8.796  0.4902 -0.6815  0.0524
  248MOL0     C33371   4.445   7.550   8.750 -0.0634  0.8814 -0.7260
  248MOL0     C33372   4.326   7.573   8.684  0.0979  0.0299  0.0533
  248MOL0     C33373   4.287   7.717   8.674  0.1018  0.0937  0.2230
  248MOL0     C33374   4.253   7.461   8.647 -0.0548 -0.0057  0.2587
  248MOL0     C33375   4.129   7.484   8.567  0.3443  0.8265 -0.6297
  248MOL0     O33376   4.036   7.388   8.595  1.2809  0.4723 -0.3593
  248MOL0     C33377   3.908   7.411   8.548  0.0317  0.0024 -0.4108
  248MOL0     C33378   3.829   7.529   8.574  0.7854  0.5340 -0.0137
  248MOL0     C33379   3.705   7.541   8.512  0.4397 -0.0678 -0.7054
  248MOL0     C33380   3.669   7.458   8.404  1.1534 -0.6544  0.6057
  248MOL0     O33381   3.540   7.486   8.359 -0.4231  0.3081  0.7995
  248MOL0     C33382   3.481   7.406   8.247 -0.3299 -0.0596  0.0419
  248MOL0     C33383   3.553   7.448   8.117 -0.4901 -0.3020 -0.5226
  248MOL0     C33384   3.467   7.397   7.997 -0.1286 -0.3458  0.5688
  248MOL0     C33385   3.517   7.467   7.862  0.0211  0.3839  0.3993
  248MOL0     C33386   3.425   7.409   7.753  0.0523 -0.4058  0.5132
  248MOL0     C33387   3.492   7.446   7.618 -0.2595  0.5240 -0.0564
  248MOL0     C33388   3.430   7.358   7.511  0.2698  0.3254  0.9305
  248MOL0     C33389   3.279   7.350   7.506  0.0424 -0.2138  0.2640
  248MOL0    Cl33390   3.216   7.292   7.359 -0.3548 -0.3980  0.0355
  248MOL0     C33391   3.747   7.353   8.374 -0.3226 -0.5317 -0.2120
  248MOL0     C33392   3.861   7.326   8.441 -0.0337  0.1454 -0.6683
  248MOL0     O33393   4.114   7.581   8.488  0.1315  0.2513  0.0305
  248MOL0     C33394   4.305   7.326   8.672 -0.3516  0.2191  0.0500
  248MOL0     C33395   4.420   7.315   8.753 -0.9837  0.6192  0.5767
  248MOL0     N33396   5.231   7.220   8.910 -0.8602 -0.3137  1.0361
  248MOL0     N33397   5.344   7.236   8.854  0.2562  0.0193  0.7613
  248MOL0     C33398   6.580   7.593   9.151 -0.7154  0.2328 -0.3428
  248MOL0     C33399   6.707   7.606   9.200  0.0672 -0.0149 -0.1585
  248MOL0     C33400   7.112   7.804   9.305 -0.2652  0.6099 -0.1466
  248MOL0     C33401   7.148   7.676   9.353  0.2043  0.3386  0.7652
  248MOL0     C33402   7.274   7.636   9.398  0.6046 -1.3328 -0.1659
  248MOL0     C33403   7.375   7.744   9.389 -0.6806  0.1011  0.9678
  248MOL0     O33404   7.504   7.726   9.429 -0.5725 -0.0633 -0.0655
  248MOL0     C33405   7.569   7.600   9.459 -0.5220  0.5202  0.0144
  248MOL0     C33406   7.718   7.607   9.413 -0.5620  0.4757  1.0578
  248MOL0     C33407   7.811   7.675   9.521 -0.6668 -0.2823 -0.6984
  248MOL0     C33408   7.947   7.666   9.463  0.1681 -0.6105  0.1940
  248MOL0     C33409   8.035   7.750   9.543 -0.7611 -1.1589 -0.3340
  248MOL0     C33410   8.126   7.810   9.609  0.9522 -0.2818  0.2866
  248MOL0     C33411   7.340   7.875   9.338 -0.2876  0.2381 -1.2127
  248MOL0     C33412   7.210   7.901   9.307  0.0963 -0.3325 -0.1599
  248MOL0     H33413   6.781   7.904   9.051  1.5656 -1.2397 -0.5266
  248MOL0     H33414   6.540   7.879   8.976  2.4241  1.5052 -1.7278
  248MOL0     H33415   6.360   7.493   8.972  2.3504  1.9168 -0.5660
  248MOL0     H33416   6.307   7.541   9.141  3.9182  1.4959  1.2539
  248MOL0     H33417   6.154   7.711   9.050  2.3399 -0.5692  0.8803
  248MOL0     H33418   6.193   7.694   8.886  2.8089 -0.8592 -0.0698
  248MOL0     H33419   6.111   7.465   8.874 -0.8875 -0.8125  0.3608
  248MOL0     H33420   6.071   7.464   9.041  1.1635 -1.9015 -0.7571
  248MOL0     H33421   5.909   7.668   8.972 -3.4215 -0.8070 -0.6178
  248MOL0     H33422   5.962   7.623   8.808  0.2131  1.1602  0.2873
  248MOL0     H33423   5.858   7.415   8.822 -3.5216  0.9565 -1.8482
  248MOL0     H33424   5.847   7.432   9.005 -1.0711  0.0786  0.2371
  248MOL0     H33425   5.692   7.619   8.957 -2.0637  1.2677 -1.8290
  248MOL0     H33426   5.706   7.578   8.779 -0.4823  1.8723  0.0266
  248MOL0     H33427   5.640   7.339   8.898  2.4905  1.2442 -0.0437
  248MOL0     H33428   5.542   7.435   9.001  2.1123  1.2240  2.4152
  248MOL0     H33429   5.514   7.424   8.692  0.3536  1.3798  0.4681
  248MOL0     H33430   5.457   7.559   8.790  1.4378  0.9416 -0.8527
  248MOL0     H33431   5.249   7.544   8.909 -0.5642  0.8588 -5.7098
  248MOL0     H33432   5.020   7.278   9.079  1.6837 -0.6394  0.8841
  248MOL0     H33433   5.021   7.452   9.042 -1.3667  0.1368 -0.6230
  248MOL0     H33434   4.950   7.249   8.838  0.6882  1.2122 -1.1204
  248MOL0     H33435   4.909   7.415   8.845  2.1870  0.0956 -1.2062
  248MOL0     H33436   4.790   7.387   9.059 -2.6356 -3.4888  4.0937
  248MOL0     H33437   4.798   7.212   9.046  2.1346  1.8135  2.0265
  248MOL0     H33438   4.594   7.221   8.926  0.7188 -1.8907 -1.2643
  248MOL0     H33439   4.703   7.252   8.796 -0.6232 -0.5876  1.1549
  248MOL0     H33440   4.502   7.638   8.776  0.3189  0.7719 -1.1846
  248MOL0     H33441   4.287   7.755   8.572 -1.0887 -1.1612 -0.2860
  248MOL0     H33442   4.180   7.726   8.694 -0.7362 -4.2662 -1.1116
  248MOL0     H33443   4.348   7.774   8.745  2.4884 -2.8466  0.7603
  248MOL0     H33444   3.866   7.606   8.642 -2.4420  3.4452 -1.2591
  248MOL0     H33445   3.638   7.620   8.544 -0.9701 -0.7945 -1.7427
  248MOL0     H33446   3.485   7.302   8.282 -0.9164 -0.1182 -0.0582
  248MOL0     H33447   3.378   7.441   8.243  0.6110  2.9267 -0.8359
  248MOL0     H33448   3.564   7.557   8.114 -2.0780 -0.0995  0.2971
  248MOL0     H33449   3.652   7.401   8.108 -0.7488 -1.8326  3.0593
  248MOL0     H33450   3.360   7.415   8.005 -0.5185 -1.7636 -0.9190
  248MOL0     H33451   3.482   7.289   7.983 -2.0303 -0.6297  0.4822
  248MOL0     H33452   3.509   7.576   7.868 -0.5223  0.4646 -1.2929
  248MOL0     H33453   3.622   7.446   7.839  1.0390  5.8764 -1.4905
  248MOL0     H33454   3.330   7.462   7.754 -0.4765 -1.3305  0.2110
  248MOL0     H33455   3.413   7.300   7.758  1.6922 -0.5698  2.5774
  248MOL0     H33456   3.476   7.553   7.603 -0.9316  0.7711  2.0416
  248MOL0     H33457   3.597   7.419   7.628 -0.1683  1.3153  1.4660
  248MOL0     H33458   3.473   7.258   7.505 -4.0797 -1.7224 -0.6317
  248MOL0     H33459   3.450   7.396   7.410 -2.8497 -1.3423 -0.4363
  248MOL0     H33460   3.240   7.451   7.518  0.9824 -0.1223  3.5692
  248MOL0     H33461   3.240   7.288   7.588  1.7354 -2.2817 -0.3830
  248MOL0     H33462   3.712   7.286   8.297 -2.0502  2.9596 -2.7503
  248MOL0     H33463   3.920   7.238   8.419  0.1972  0.2263 -0.3852
  248MOL0     H33464   4.240   7.243   8.646 -0.3295 -0.2801  1.4902
  248MOL0     H33465   4.449   7.216   8.786 -1.1435 -0.3165 -1.8887
  248MOL0     H33466   6.522   7.517   9.203  1.6937  0.9483  3.8239
  248MOL0     H33467   6.760   7.531   9.259  0.4924  0.7590  0.4571
  248MOL0     H33468   7.088   7.586   9.343  1.9115 -0.8043  0.3130
  248MOL0     H33469   7.286   7.532   9.427  2.0602 -1.1553 -0.0964
  248MOL0     H33470   7.564   7.574   9.565  0.2505 -1.4938 -0.4035
  248MOL0     H33471   7.521   7.523   9.398 -0.7233 -0.3564  1.2369
  248MOL0     H33472   7.732   7.647   9.312 -1.2465  0.6095  1.0137
  248MOL0     H33473   7.755   7.504   9.409 -0.5076  0.4407  2.1672
  248MOL0     H33474   7.796   7.629   9.619  0.6168 -1.5069 -1.0420
  248MOL0     H33475   7.789   7.782   9.525  1.6404  0.2093  0.5930
  248MOL0     H33476   7.954   7.712   9.364  3.0652  3.6034  2.0765
  248MOL0     H33477   7.991   7.566   9.463 -1.2311 -1.2789 -1.3831
  248MOL0     H33478   8.191   7.874   9.666  1.0167 -0.5719  0.5402
  248MOL0     H33479   7.420   7.949   9.334 -0.2377  0.1353 -2.4042
  248MOL0     H33480   7.189   8.007   9.297  2.8881  0.3503  0.3565
  249MOL0     O33481   5.482  11.000   0.602 -0.3763 -0.0968 -0.2936
  249MOL0     C33482   5.490  11.121   0.634  0.1353  0.4701  0.4110
  249MOL0     O33483   5.449  11.179   0.746 -0.1448  0.8883 -0.2772
  249MOL0     C33484   5.337  11.129   0.815  0.0375 -0.6469  0.7890
  249MOL0     C33485   5.300  11.206   0.929 -0.4367 -0.4248  1.1268
  249MOL0     C33486   5.183  11.165   0.998  0.6959  0.2257 -0.4061
  249MOL0     C33487   5.107  11.054   0.962  0.8423  0.1169 -1.1116
  249MOL0     O33488   4.999  11.004   1.032  1.3437  0.0084  0.9915
  249MOL0     C33489   4.995  11.034   1.172  0.1059 -0.4149 -0.8457
  249MOL0     C33490   5.063  10.925   1.247  1.3156  0.5128 -0.4122
  249MOL0     C33491   5.090  10.977   1.388  0.0524 -0.2528 -0.8718
  249MOL0     C33492   5.176  10.899   1.484 -0.2016  0.3235 -0.4575
  249MOL0     C33493   5.151  10.918   1.634 -0.0222 -0.0945 -0.2028
  249MOL0     C33494   5.034  10.841   1.683 -1.2970 -0.2406 -0.0936
  249MOL0     C33495   5.047  10.800   1.832 -0.2761  0.0533  0.5291
  249MOL0     C33496   5.059  10.923   1.919  0.2707  0.2903 -0.1376
  249MOL0     N33497   5.048  10.882   2.061 -1.0515 -0.5988  0.3892
  249MOL0     C33498   4.935  10.851   2.129 -0.8025 -0.3329  0.9026
  249MOL0     C33499   4.976  10.817   2.250  0.3459  0.2615  0.4673
  249MOL0     C33500   4.875  10.757   2.361 -0.3119  0.6766  0.4959
  249MOL0     C33501   4.732  10.807   2.347 -0.6463  0.1960  0.7901
  249MOL0     C33502   4.714  10.955   2.366 -0.2824 -0.1586  0.2837
  249MOL0     C33503   4.724  10.984   2.509 -0.2239  0.0587 -0.2207
  249MOL0     O33504   4.673  11.123   2.522  0.1483 -0.2272 -0.2273
  249MOL0     C33505   4.607  11.155   2.643  0.3672 -0.3548  0.2377
  249MOL0     C33506   4.662  11.117   2.763 -0.0792 -0.5868 -1.0002
  249MOL0     C33507   4.611  11.171   2.880  0.7733  0.0454 -0.2026
  249MOL0     C33508   4.689  11.140   3.007  0.3405  0.0192  0.5268
  249MOL0     C33509   4.502  11.261   2.886  0.0543 -0.6247 -0.2736
  249MOL0     C33510   4.455  11.332   3.017  0.5659 -0.0821  0.3734
  249MOL0     O33511   4.360  11.430   2.990  0.0443 -0.3181  0.0639
  249MOL0     C33512   4.326  11.514   3.084  0.4510 -0.0904  0.0010
  249MOL0     C33513   4.196  11.510   3.131  1.3611 -0.0533  1.0539
  249MOL0     C33514   4.149  11.607   3.224  0.1398 -0.2460  0.5362
  249MOL0     C33515   4.236  11.702   3.274 -0.6029 -0.2262 -0.4267
  249MOL0     O33516   4.205  11.786   3.380 -0.3318 -0.1302 -0.2117
  249MOL0     C33517   4.097  11.877   3.362  0.1199  0.9574 -0.2264
  249MOL0     C33518   3.989  11.826   3.452  0.3535 -0.4396  0.2569
  249MOL0     C33519   3.868  11.906   3.444 -0.6513 -0.3266 -0.0843
  249MOL0     C33520   3.758  11.850   3.537 -0.6335  0.5191 -0.2786
  249MOL0     C33521   3.621  11.899   3.519  0.7856  0.5167 -0.4087
  249MOL0     C33522   3.620  12.045   3.540  0.4642 -0.2843  0.2627
  249MOL0     C33523   3.481  12.099   3.514 -0.2704 -0.1888 -1.0846
  249MOL0     C33524   3.465  12.256   3.523  0.1667 -0.2508  0.1948
  249MOL0    Cl33525   3.299  12.307   3.481  0.0337  0.3188 -0.0619
  249MOL0     C33526   4.370  11.709   3.227  0.0308 -0.7297 -1.0021
  249MOL0     C33527   4.415  11.621   3.126 -0.7086  0.2525  0.2785
  249MOL0     O33528   4.514  11.322   3.127 -0.0238 -0.1846 -0.1735
  249MOL0     C33529   4.445  11.299   2.761 -0.1532 -0.1119 -0.5929
  249MOL0     C33530   4.497  11.241   2.643  1.0563  0.4338 -0.5994
  249MOL0     N33531   5.108  10.809   2.258 -0.6612 -0.0124  0.3983
  249MOL0     N33532   5.156  10.852   2.143 -0.0847  0.6829  0.3872
  249MOL0     C33533   5.149  10.982   0.850  0.3912 -0.2259  0.2520
  249MOL0     C33534   5.254  11.023   0.779 -0.9201  0.2246  0.2585
  249MOL0     C33535   5.573  11.206   0.542  0.2834 -0.1350 -0.1146
  249MOL0     C33536   5.590  11.340   0.565  0.9007 -0.3545 -0.2403
  249MOL0     C33537   5.657  11.421   0.471 -0.7861 -0.1231  0.4360
  249MOL0     C33538   5.718  11.359   0.354  0.2001 -0.7083 -0.1492
  249MOL0     O33539   5.772  11.445   0.262 -0.4190  0.1265  0.1413
  249MOL0     C33540   5.681  11.479   0.162 -0.4001 -0.4648  0.4623
  249MOL0     C33541   5.701  11.619   0.112 -0.9628 -0.4226 -0.3625
  249MOL0     C33542   5.636  11.624  -0.024  0.4277 -1.0505 -0.0709
  249MOL0     C33543   5.641  11.760  -0.089  0.1140 -0.0262  0.9196
  249MOL0     C33544   5.571  11.874  -0.021 -0.1796  0.1666  0.1682
  249MOL0     C33545   5.524  11.975   0.041 -0.0010  0.2874 -0.4670
  249MOL0     C33546   5.709  11.220   0.332 -0.1588  0.4910  0.5129
  249MOL0     C33547   5.633  11.148   0.421  0.1751 -0.5911  0.2181
  249MOL0     H33548   5.355  11.296   0.955 -2.7888  1.0989  1.1526
  249MOL0     H33549   5.164  11.230   1.083  2.1203 -0.9989  0.9044
  249MOL0     H33550   5.016  11.137   1.205 -1.8250 -1.1949  3.6486
  249MOL0     H33551   4.887  11.038   1.188 -0.2152  2.9860 -2.9704
  249MOL0     H33552   4.991  10.843   1.246  1.0500  0.6864  1.1567
  249MOL0     H33553   5.150  10.891   1.191 -0.1426 -1.0903 -1.7981
  249MOL0     H33554   5.140  11.074   1.390 -1.6454  0.6896 -2.1062
  249MOL0     H33555   4.988  10.985   1.425  0.6701  2.2087  0.5341
  249MOL0     H33556   5.177  10.794   1.455  2.2595  0.4681 -1.1306
  249MOL0     H33557   5.282  10.926   1.484  0.7058 -2.8473  0.0833
  249MOL0     H33558   5.241  10.886   1.687 -1.0600 -2.2435  0.3718
  249MOL0     H33559   5.131  11.023   1.657  0.2516  0.3292 -1.7951
  249MOL0     H33560   4.943  10.900   1.666 -0.3868  1.1519 -0.2612
  249MOL0     H33561   5.028  10.750   1.622 -0.4242 -0.2568 -0.1611
  249MOL0     H33562   4.959  10.743   1.862  0.1228 -1.0643 -0.3593
  249MOL0     H33563   5.129  10.733   1.858 -1.7841 -2.1950 -0.2489
  249MOL0     H33564   4.982  10.997   1.896  0.4605  0.2071 -1.0627
  249MOL0     H33565   5.154  10.972   1.897  0.6985 -0.1204  0.7579
  249MOL0     H33566   4.834  10.852   2.088  0.0061  2.5371 -1.3168
  249MOL0     H33567   4.869  10.650   2.338 -0.0210  1.2894 -2.9408
  249MOL0     H33568   4.909  10.790   2.459 -0.7002  1.0655  0.5053
  249MOL0     H33569   4.672  10.755   2.421 -1.9455 -0.8376 -0.9203
  249MOL0     H33570   4.688  10.786   2.249  0.0866  1.3494  0.1796
  249MOL0     H33571   4.612  10.980   2.336  0.4552  1.2254 -1.2646
  249MOL0     H33572   4.781  11.015   2.303 -2.0040  0.6945 -0.8090
  249MOL0     H33573   4.829  10.983   2.540 -0.3828  0.5392  0.3523
  249MOL0     H33574   4.664  10.920   2.575 -1.5996  1.2180 -0.3128
  249MOL0     H33575   4.752  11.057   2.766  2.1875  2.5781  2.0500
  249MOL0     H33576   4.751  11.057   2.973 -0.3134  0.9454 -3.3988
  249MOL0     H33577   4.761  11.218   3.033  2.4950 -1.4918 -0.6879
  249MOL0     H33578   4.630  11.106   3.093 -1.9175 -0.3701 -1.0656
  249MOL0     H33579   4.137  11.421   3.115  1.2733  0.1725  0.0050
  249MOL0     H33580   4.048  11.598   3.261  0.5503  1.4723  2.2305
  249MOL0     H33581   4.137  11.977   3.386 -3.0638  2.3966 -0.4024
  249MOL0     H33582   4.067  11.873   3.257 -0.8065 -1.8975  0.0787
  249MOL0     H33583   3.967  11.720   3.436  2.0305 -0.9522  1.0906
  249MOL0     H33584   4.026  11.836   3.555 -2.0211  2.4700  0.9478
  249MOL0     H33585   3.824  11.897   3.344 -1.0311 -0.6727  0.1131
  249MOL0     H33586   3.893  12.009   3.470 -1.9691  0.6403 -2.3740
  249MOL0     H33587   3.748  11.744   3.509 -2.1866  0.9838 -1.6318
  249MOL0     H33588   3.791  11.862   3.640 -0.3717 -1.3670 -0.1075
  249MOL0     H33589   3.550  11.846   3.583 -0.1032  3.0938  0.8833
  249MOL0     H33590   3.592  11.876   3.416 -0.9718 -2.2703  0.5822
  249MOL0     H33591   3.649  12.074   3.641 -2.3673  0.9069  0.8378
  249MOL0     H33592   3.690  12.095   3.472 -0.3161  0.6418  0.1276
  249MOL0     H33593   3.408  12.051   3.581  1.4585 -0.9011  0.3861
  249MOL0     H33594   3.456  12.062   3.414 -0.9428 -2.3397 -0.1723
  249MOL0     H33595   3.527  12.301   3.446 -1.6394 -1.3254 -2.0317
  249MOL0     H33596   3.501  12.297   3.617  0.0446 -1.4731  0.7914
  249MOL0     H33597   4.432  11.791   3.261 -1.1825  1.7492 -4.2407
  249MOL0     H33598   4.517  11.622   3.090 -0.7116  0.8779  0.2834
  249MOL0     H33599   4.367  11.375   2.758  1.4862  1.6344 -1.1128
  249MOL0     H33600   4.463  11.266   2.543  0.0058 -2.9713 -1.2159
  249MOL0     H33601   5.091  10.893   0.826 -1.3892  1.3891 -1.7962
  249MOL0     H33602   5.274  10.966   0.689  1.4074  0.7291  0.3853
  249MOL0     H33603   5.542  11.391   0.648 -0.4083 -2.1875  0.1901
  249MOL0     H33604   5.671  11.525   0.498 -1.8535  0.2262 -0.2888
  249MOL0     H33605   5.675  11.404   0.083 -3.3093 -1.8628  1.8468
  249MOL0     H33606   5.586  11.491   0.214  0.3354  0.7534  1.5777
  249MOL0     H33607   5.809  11.637   0.106 -0.7683 -1.6880 -1.1019
  249MOL0     H33608   5.652  11.700   0.167  1.7606  1.2419 -0.1918
  249MOL0     H33609   5.532  11.598   0.001 -0.2326  3.5983  3.4652
  249MOL0     H33610   5.698  11.560  -0.087  1.2272  0.1762 -0.5669
  249MOL0     H33611   5.599  11.753  -0.190  0.8843  0.3609  0.5584
  249MOL0     H33612   5.748  11.781  -0.098  0.3848 -1.4581  0.5575
  249MOL0     H33613   5.484  12.059   0.094 -0.0266 -0.8632  1.4315
  249MOL0     H33614   5.758  11.167   0.250  0.7525 -0.3201  1.5588
  249MOL0     H33615   5.628  11.041   0.404  0.2196 -0.6153  0.3562
  250MOL0     O33616   1.655   9.329   9.019 -0.6024  0.3774  0.0563
  250MOL0     C33617   1.732   9.314   9.115  0.6399  1.3166 -0.0511
  250MOL0     O33618   1.687   9.322   9.249  0.0846 -0.5022 -0.6242
  250MOL0     C33619   1.563   9.365   9.261 -0.4100  0.6653  0.1689
  250MOL0     C33620   1.530   9.491   9.313  0.1328 -0.1514 -0.2447
  250MOL0     C33621   1.395   9.528   9.346 -0.6927 -0.0852  0.1087
  250MOL0     C33622   1.298   9.434   9.337 -0.0764  0.3275  0.1720
  250MOL0     O33623   1.170   9.468   9.376  0.0221 -0.0406  0.4407
  250MOL0     C33624   1.055   9.388   9.358 -0.3366 -0.5868 -0.2966
  250MOL0     C33625   0.927   9.449   9.416 -0.0069 -0.2905 -0.8562
  250MOL0     C33626   0.914   9.430   9.569 -0.2388  0.2631 -0.0202
  250MOL0     C33627   0.829   9.529   9.618 -0.0803  0.1488 -0.0407
  250MOL0     C33628   0.690   9.534   9.560  0.7031 -0.7580  0.9042
  250MOL0     C33629   0.610   9.407   9.575  1.0864  0.2063 -0.3124
  250MOL0     C33630   0.458   9.429   9.525 -0.0238 -0.3255  0.5262
  250MOL0     C33631   0.394   9.284   9.520 -0.6030  0.2282 -0.2884
  250MOL0     N33632   0.352   9.260   9.661 -0.3666 -0.1003 -0.0268
  250MOL0     C33633   0.231   9.286   9.715 -0.7373  0.4647  0.5048
  250MOL0     C33634   0.233   9.211   9.828  0.4771  0.4535  0.1891
  250MOL0     C33635   0.126   9.198   9.932  0.7765  0.9443  0.2018
  250MOL0     C33636   0.049   9.060   9.911  0.5532 -0.0890 -0.6939
  250MOL0     C33637  -0.005   9.032  10.051  0.2019 -0.1975 -0.6718
  250MOL0     C33638  -0.102   8.916  10.034 -0.2134  1.0832 -0.2786
  250MOL0     O33639  -0.226   8.961   9.970  0.3318  1.1725 -0.4154
  250MOL0     C33640  -0.327   8.864   9.964 -0.7720  0.3908  0.3807
  250MOL0     C33641  -0.424   8.870  10.066 -0.1033  0.0122  0.8228
  250MOL0     C33642  -0.539   8.789  10.051  0.2897 -1.0211 -0.2954
  250MOL0     C33643  -0.654   8.792  10.159 -0.6506  0.4260  0.6898
  250MOL0     C33644  -0.542   8.690   9.949  0.8043  0.5200  0.0937
  250MOL0     C33645  -0.643   8.573   9.954  0.5550 -0.1951 -0.1580
  250MOL0     O33646  -0.707   8.522   9.842  0.5312  0.2370 -0.2371
  250MOL0     C33647  -0.825   8.451   9.856  0.0834  0.8985  0.3496
  250MOL0     C33648  -0.851   8.361   9.757  0.1358 -0.5411 -0.1259
  250MOL0     C33649  -0.969   8.285   9.766  0.0509 -0.0121 -0.2375
  250MOL0     C33650  -1.069   8.301   9.872 -0.1230 -0.5759  0.4027
  250MOL0     O33651  -1.192   8.235   9.897 -0.3071 -0.0182 -0.5962
  250MOL0     C33652  -1.234   8.134   9.806  0.0034 -0.2044 -0.4756
  250MOL0     C33653  -1.384   8.078   9.819  0.5084  0.4027 -0.5209
  250MOL0     C33654  -1.483   8.187   9.790 -0.2967  0.3137  0.1795
  250MOL0     C33655  -1.620   8.127   9.766  0.5378 -0.5617  0.1368
  250MOL0     C33656  -1.728   8.242   9.770 -0.1454 -0.6050 -0.2380
  250MOL0     C33657  -1.858   8.200   9.688 -0.2056 -0.0504 -0.1960
  250MOL0     C33658  -1.921   8.060   9.695 -0.1925 -0.1605  0.6615
  250MOL0     C33659  -2.016   8.032   9.808 -0.2416  0.0626  0.6461
  250MOL0    Cl33660  -2.158   8.157   9.812 -0.3472  0.1669  0.2701
  250MOL0     C33661  -1.050   8.408   9.960 -0.3974  0.8054  0.2399
  250MOL0     C33662  -0.921   8.479   9.953  1.3437 -0.0753 -0.2493
  250MOL0     O33663  -0.649   8.530  10.068  0.3875 -0.2742  0.0345
  250MOL0     C33664  -0.445   8.684   9.850  0.1922 -0.4724  0.2419
  250MOL0     C33665  -0.336   8.769   9.862  0.5072 -0.5418 -0.6753
  250MOL0     N33666   0.356   9.141   9.839 -0.4280 -0.9561 -0.5601
  250MOL0     N33667   0.428   9.181   9.742 -0.3155  0.5324 -0.0310
  250MOL0     C33668   1.329   9.311   9.295 -0.0523 -0.2975  0.3318
  250MOL0     C33669   1.456   9.280   9.243 -0.3195  0.3473 -0.6585
  250MOL0     C33670   1.873   9.300   9.088  0.0466  0.3170 -0.3116
  250MOL0     C33671   1.923   9.290   8.952  0.1826 -0.2581 -0.5144
  250MOL0     C33672   2.059   9.265   8.926  0.1493 -0.1540 -0.1644
  250MOL0     C33673   2.152   9.253   9.030 -0.5244  0.1270  0.5234
  250MOL0     O33674   2.286   9.240   8.997  0.8106 -0.3285 -0.0710
  250MOL0     C33675   2.377   9.234   9.103  0.5348  0.4372 -0.2992
  250MOL0     C33676   2.517   9.250   9.062  0.3648 -0.3717 -0.2569
  250MOL0     C33677   2.561   9.159   8.955 -0.0287 -0.7626  1.7189
  250MOL0     C33678   2.715   9.174   8.937  0.4354  0.7139 -0.0765
  250MOL0     C33679   2.776   9.073   8.852 -0.6041 -0.2699 -0.2929
  250MOL0     C33680   2.820   8.999   8.770  0.7525  0.4324 -0.4153
  250MOL0     C33681   2.101   9.255   9.161  0.0192  0.3798  0.5132
  250MOL0     C33682   1.968   9.270   9.190  0.1386 -1.1716 -0.6908
  250MOL0     H33683   1.593   9.578   9.317 -3.7413  2.8926  2.2308
  250MOL0     H33684   1.376   9.631   9.375  3.0200  1.4352 -2.1453
  250MOL0     H33685   1.040   9.369   9.251  2.6386 -1.9144 -0.5654
  250MOL0     H33686   1.067   9.289   9.404  2.4969 -1.3125 -2.3036
  250MOL0     H33687   0.915   9.554   9.389  0.4243 -0.7658 -3.0489
  250MOL0     H33688   0.839   9.404   9.369 -0.1387 -1.6629  0.6081
  250MOL0     H33689   0.861   9.337   9.591 -2.4748  1.0182 -1.8099
  250MOL0     H33690   1.011   9.429   9.620  0.3683 -1.5168 -1.1140
  250MOL0     H33691   0.812   9.520   9.725 -2.2356 -0.3298 -0.3857
  250MOL0     H33692   0.879   9.624   9.595 -0.7567  1.0602  2.0301
  250MOL0     H33693   0.635   9.612   9.614 -0.0889 -0.9762  0.4370
  250MOL0     H33694   0.688   9.565   9.455 -0.2165 -1.1474  0.7974
  250MOL0     H33695   0.657   9.320   9.528  0.8536 -0.7158  1.1338
  250MOL0     H33696   0.612   9.377   9.680  2.0008  0.0760 -0.3540
  250MOL0     H33697   0.413   9.507   9.587  0.0729  1.8639 -1.9639
  250MOL0     H33698   0.472   9.466   9.423 -1.5943  1.7630  0.9988
  250MOL0     H33699   0.468   9.209   9.491 -0.8608 -1.1960  2.3954
  250MOL0     H33700   0.307   9.283   9.454 -2.3525  0.3124  1.8873
  250MOL0     H33701   0.159   9.351   9.666  2.7144  4.6450  0.3815
  250MOL0     H33702   0.168   9.196  10.033 -0.1567 -1.5760  0.6103
  250MOL0     H33703   0.054   9.279   9.918  2.0337  1.7827 -1.8076
  250MOL0     H33704   0.127   8.991   9.879  2.3116  0.8924  1.1972
  250MOL0     H33705  -0.029   9.076   9.837 -1.1164  2.6871  1.4190
  250MOL0     H33706  -0.062   9.120  10.084  0.0280  0.5033 -2.6796
  250MOL0     H33707   0.070   9.007  10.127  0.2738  0.9249 -0.3546
  250MOL0     H33708  -0.123   8.868  10.130  0.9524 -0.0457 -0.5545
  250MOL0     H33709  -0.044   8.836   9.987  1.0932  1.6797  0.2954
  250MOL0     H33710  -0.422   8.945  10.144 -4.5383  3.0313 -1.4962
  250MOL0     H33711  -0.747   8.761  10.112 -0.0280  1.6640 -1.5060
  250MOL0     H33712  -0.625   8.721  10.237 -0.2431  0.1487  0.2939
  250MOL0     H33713  -0.665   8.893  10.200 -0.2390  0.4204  0.8254
  250MOL0     H33714  -0.779   8.350   9.676 -1.1409 -1.3879 -1.1848
  250MOL0     H33715  -0.995   8.222   9.682 -0.4962  3.9001 -3.3214
  250MOL0     H33716  -1.210   8.177   9.708  1.5500 -3.3490 -1.6160
  250MOL0     H33717  -1.178   8.043   9.831 -1.8062 -0.8910  1.3952
  250MOL0     H33718  -1.393   7.993   9.751 -1.5296 -0.4489  0.7072
  250MOL0     H33719  -1.398   8.037   9.920 -0.3737  2.2559  0.1545
  250MOL0     H33720  -1.452   8.244   9.701 -1.6426 -0.5096 -0.8447
  250MOL0     H33721  -1.476   8.258   9.873  0.2299  2.9004 -1.8984
  250MOL0     H33722  -1.609   8.092   9.663  0.8658  3.4087 -1.3490
  250MOL0     H33723  -1.649   8.050   9.839 -1.7828  0.7380  0.6705
  250MOL0     H33724  -1.683   8.333   9.730 -0.1906 -0.8675 -0.8901
  250MOL0     H33725  -1.760   8.257   9.874  1.6315 -1.1190  0.4270
  250MOL0     H33726  -1.940   8.270   9.707 -0.9632 -1.0842  0.4614
  250MOL0     H33727  -1.842   8.219   9.581 -0.7444 -0.2122 -0.3085
  250MOL0     H33728  -1.847   7.981   9.680  0.3686  0.4161  0.3046
  250MOL0     H33729  -1.988   8.055   9.609  0.7289  1.3926 -0.1971
  250MOL0     H33730  -1.966   8.029   9.905 -2.4094  0.1438  1.8239
  250MOL0     H33731  -2.070   7.938   9.798 -1.3297  0.6178  1.1101
  250MOL0     H33732  -1.116   8.434  10.042 -1.9081 -3.2756  0.5107
  250MOL0     H33733  -0.895   8.552  10.029 -1.1891  0.9429 -0.2620
  250MOL0     H33734  -0.440   8.608   9.773  1.2464 -0.9414  0.7435
  250MOL0     H33735  -0.258   8.756   9.788  0.9561 -3.2170  0.1376
  250MOL0     H33736   1.255   9.232   9.288 -1.6219  1.1505 -0.0380
  250MOL0     H33737   1.473   9.179   9.207  2.0101 -0.9254  3.4118
  250MOL0     H33738   1.853   9.286   8.870  0.2068  1.5766 -0.6700
  250MOL0     H33739   2.090   9.250   8.823  4.8586  0.2309  0.9546
  250MOL0     H33740   2.357   9.309   9.180 -0.2262 -0.1399  0.0750
  250MOL0     H33741   2.377   9.137   9.152 -0.9040 -0.0103 -1.1400
  250MOL0     H33742   2.583   9.232   9.147  3.7531 -0.3645 -2.7053
  250MOL0     H33743   2.527   9.353   9.026  1.3385 -0.4131 -0.1250
  250MOL0     H33744   2.507   9.177   8.862  1.4767 -2.3029  0.4807
  250MOL0     H33745   2.546   9.053   8.977  1.6340 -1.7365 -1.3469
  250MOL0     H33746   2.755   9.158   9.037  0.5457  0.3113 -0.1824
  250MOL0     H33747   2.747   9.275   8.910  0.6762  1.0048  1.2292
  250MOL0     H33748   2.855   8.932   8.694 -0.6417 -1.6494  0.7114
  250MOL0     H33749   2.165   9.253   9.249 -1.2001 -0.9744  1.4234
  250MOL0     H33750   1.940   9.277   9.294  1.0203  0.4035 -0.5382
  251MOL0     O33751   6.838   1.548   8.967  0.3799  0.5340  0.5479
  251MOL0     C33752   6.945   1.606   8.966 -1.3773  0.1111 -0.1832
  251MOL0     O33753   6.992   1.704   8.874 -0.3864 -0.0388  0.4145
  251MOL0     C33754   6.901   1.743   8.771 -0.3175  0.1864 -0.0558
  251MOL0     C33755   6.782   1.802   8.800  0.1907 -0.1323 -0.1635
  251MOL0     C33756   6.686   1.835   8.703 -0.1761  0.6080 -0.1197
  251MOL0     C33757   6.707   1.807   8.566 -0.2621  0.0321 -0.2454
  251MOL0     O33758   6.626   1.843   8.465 -0.3735 -0.0378  0.1425
  251MOL0     C33759   6.505   1.911   8.493 -0.1234 -0.3153  0.8319
  251MOL0     C33760   6.422   1.905   8.364 -0.2636  0.2560 -0.5018
  251MOL0     C33761   6.278   1.949   8.377  0.4913  0.1018 -0.5521
  251MOL0     C33762   6.205   1.957   8.240 -0.1286  0.1029 -0.4140
  251MOL0     C33763   6.057   1.989   8.245  0.0261 -0.1002 -0.4221
  251MOL0     C33764   5.962   1.893   8.314 -0.1827  0.7395  0.2317
  251MOL0     C33765   5.812   1.896   8.274 -0.8168  0.0751 -0.1347
  251MOL0     C33766   5.785   1.852   8.126 -0.3323  0.3659 -1.0219
  251MOL0     N33767   5.651   1.898   8.099  0.8902 -0.0856  0.4868
  251MOL0     C33768   5.623   2.028   8.065 -0.4946 -0.4372  0.0840
  251MOL0     C33769   5.512   2.036   7.987  0.2072 -1.1967 -0.5712
  251MOL0     C33770   5.422   2.145   7.932  0.3428 -0.7110  0.0004
  251MOL0     C33771   5.504   2.245   7.843 -0.4439  0.0606 -0.3934
  251MOL0     C33772   5.429   2.382   7.821 -0.5805  0.3999  1.0357
  251MOL0     C33773   5.327   2.381   7.714 -0.3231  0.1089  0.7105
  251MOL0     O33774   5.225   2.294   7.760  0.2095  0.3915 -0.6006
  251MOL0     C33775   5.112   2.289   7.676 -0.3409  0.0852  0.2116
  251MOL0     C33776   5.064   2.389   7.584 -0.4014  0.3097 -0.4139
  251MOL0     C33777   4.941   2.382   7.523  0.0042  0.1232  1.0923
  251MOL0     C33778   4.899   2.504   7.442  0.9783  0.3503 -0.6427
  251MOL0     C33779   4.863   2.262   7.543  0.6999 -0.4009 -0.0107
  251MOL0     C33780   4.731   2.241   7.476  1.1865  0.8262 -0.8828
  251MOL0     O33781   4.694   2.107   7.454  0.0682 -0.2111 -0.3463
  251MOL0     C33782   4.606   2.062   7.364  0.4244 -0.2342  0.0507
  251MOL0     C33783   4.552   2.128   7.250 -0.2415  0.9675  0.3953
  251MOL0     C33784   4.455   2.073   7.170 -0.0721  1.5149 -0.8407
  251MOL0     C33785   4.412   1.946   7.195  0.7178 -0.0298 -0.0543
  251MOL0     O33786   4.318   1.894   7.109 -0.0706  0.5230 -0.2623
  251MOL0     C33787   4.307   1.755   7.119  0.2972  0.3804 -0.2504
  251MOL0     C33788   4.190   1.704   7.031  0.2408 -0.1482  0.7990
  251MOL0     C33789   4.189   1.549   6.999 -0.0123  0.3220  0.2434
  251MOL0     C33790   4.057   1.486   6.948  0.2233 -0.2843  0.8025
  251MOL0     C33791   4.061   1.329   6.940 -0.2439 -0.5998  0.7077
  251MOL0     C33792   3.937   1.295   6.858 -0.1169  0.7533  0.0358
  251MOL0     C33793   3.908   1.135   6.846  0.5525  0.3219 -0.5353
  251MOL0     C33794   3.780   1.117   6.770 -0.6847  0.6095  0.8743
  251MOL0    Cl33795   3.740   0.938   6.757 -0.4175  0.0531  0.1884
  251MOL0     C33796   4.475   1.870   7.299  0.3344 -0.5010  0.1620
  251MOL0     C33797   4.569   1.933   7.380 -0.0144 -0.6362 -0.6062
  251MOL0     O33798   4.659   2.337   7.445  0.0097 -0.4008 -0.1774
  251MOL0     C33799   4.908   2.176   7.639 -0.2772 -0.0432  0.1957
  251MOL0     C33800   5.036   2.185   7.700  0.4008  0.0024 -0.1850
  251MOL0     N33801   5.476   1.901   7.963  0.4442 -0.4953 -0.4312
  251MOL0     N33802   5.556   1.830   8.032  0.5384  0.6621 -0.0372
  251MOL0     C33803   6.830   1.743   8.540 -0.1100 -0.4075  1.2015
  251MOL0     C33804   6.928   1.714   8.639  0.2873  0.1663 -0.1371
  251MOL0     C33805   7.047   1.563   9.069  0.1572 -0.8939 -0.2079
  251MOL0     C33806   7.178   1.603   9.051 -0.7426 -0.5322 -0.6432
  251MOL0     C33807   7.276   1.575   9.144  0.2189  0.6887  0.3638
  251MOL0     C33808   7.249   1.510   9.264  0.2679  0.0419  0.4738
  251MOL0     O33809   7.360   1.476   9.336 -0.5362 -0.3465  0.4719
  251MOL0     C33810   7.329   1.392   9.442 -0.2638 -0.3015 -0.5600
  251MOL0     C33811   7.448   1.399   9.541  0.3183  0.7568  0.9433
  251MOL0     C33812   7.582   1.404   9.480 -0.3087  0.2197 -0.0326
  251MOL0     C33813   7.690   1.414   9.594  0.8247  0.3065  0.8151
  251MOL0     C33814   7.822   1.429   9.541 -0.3232  0.0539  0.3515
  251MOL0     C33815   7.935   1.464   9.503  0.2188  0.4416 -0.2578
  251MOL0     C33816   7.112   1.467   9.281 -0.4595  0.6656 -0.1922
  251MOL0     C33817   7.016   1.493   9.181  0.0383 -0.1959  0.1754
  251MOL0     H33818   6.761   1.837   8.901 -3.3210  0.0384 -0.8052
  251MOL0     H33819   6.603   1.896   8.736  0.2893  1.4231 -0.4279
  251MOL0     H33820   6.449   1.870   8.577 -1.4797  0.3369  0.2758
  251MOL0     H33821   6.535   2.013   8.519  2.7417 -1.5035  2.7387
  251MOL0     H33822   6.474   1.949   8.279  1.0887 -1.9576 -0.8944
  251MOL0     H33823   6.425   1.798   8.341  1.7211 -0.3205  1.9829
  251MOL0     H33824   6.225   1.882   8.445  0.7889  1.2468  0.8472
  251MOL0     H33825   6.279   2.050   8.419  0.4207 -0.3232  0.4922
  251MOL0     H33826   6.255   2.039   8.188 -0.1544  0.6794  0.4399
  251MOL0     H33827   6.232   1.870   8.179  2.0690  0.7220 -0.4210
  251MOL0     H33828   6.047   2.089   8.287 -1.8975 -0.9184  1.1905
  251MOL0     H33829   6.024   2.011   8.143  1.2027  2.5471 -0.3225
  251MOL0     H33830   5.986   1.789   8.292 -3.8905 -0.5903  1.6854
  251MOL0     H33831   5.966   1.902   8.423  0.3259 -0.4384  0.3181
  251MOL0     H33832   5.760   1.827   8.341 -1.4001  0.6179 -0.0129
  251MOL0     H33833   5.779   1.999   8.289  3.7776  1.5171  1.9911
  251MOL0     H33834   5.773   1.743   8.132 -1.9492  0.5356 -0.8435
  251MOL0     H33835   5.862   1.882   8.055  0.9097 -0.2517  0.0216
  251MOL0     H33836   5.684   2.110   8.103 -1.7155  0.4335  0.2352
  251MOL0     H33837   5.343   2.092   7.876 -0.5623  1.0012 -0.3992
  251MOL0     H33838   5.369   2.193   8.014 -1.4246 -1.7981 -0.4337
  251MOL0     H33839   5.529   2.213   7.741 -0.4479 -2.7702  0.4068
  251MOL0     H33840   5.595   2.282   7.892 -1.2943  0.0860  1.2262
  251MOL0     H33841   5.505   2.457   7.793  0.9214 -1.1543  0.7566
  251MOL0     H33842   5.383   2.408   7.917  3.6309  0.2716  3.3490
  251MOL0     H33843   5.368   2.339   7.621  0.0876 -0.1669  1.0137
  251MOL0     H33844   5.296   2.485   7.701 -1.6408 -0.5040 -1.7464
  251MOL0     H33845   5.132   2.474   7.580 -2.9736  2.4713 -0.9901
  251MOL0     H33846   4.846   2.576   7.505  1.5861 -1.4328  2.0690
  251MOL0     H33847   4.981   2.563   7.400 -0.2173  1.5992 -1.2839
  251MOL0     H33848   4.839   2.481   7.354 -1.6684 -1.7485  1.5280
  251MOL0     H33849   4.588   2.229   7.230  3.6938 -0.3088  0.3128
  251MOL0     H33850   4.409   2.135   7.094 -1.4976  0.3670 -0.9414
  251MOL0     H33851   4.391   1.695   7.084 -0.7145 -0.3162 -1.5745
  251MOL0     H33852   4.288   1.713   7.219  0.5054  0.2681 -0.2572
  251MOL0     H33853   4.092   1.730   7.073  0.5545 -1.5474  2.5405
  251MOL0     H33854   4.204   1.751   6.933  1.1164 -0.0647  0.9564
  251MOL0     H33855   4.232   1.484   7.075  0.2451  0.4021  0.1682
  251MOL0     H33856   4.265   1.535   6.921 -1.0527  3.4660 -1.5312
  251MOL0     H33857   3.977   1.502   7.020  1.8647  1.5500  2.3300
  251MOL0     H33858   4.026   1.541   6.859  2.3341  0.7100  0.6150
  251MOL0     H33859   4.045   1.285   7.038  0.9758 -0.2987  1.0577
  251MOL0     H33860   4.148   1.284   6.891  0.3344 -0.1859  1.3363
  251MOL0     H33861   3.849   1.347   6.898 -0.6023  1.0278 -1.3322
  251MOL0     H33862   3.950   1.315   6.751 -0.5627  1.3712  0.0906
  251MOL0     H33863   3.897   1.098   6.949 -1.5255  1.4993 -0.2625
  251MOL0     H33864   3.987   1.090   6.785  0.5713  0.8347 -0.8958
  251MOL0     H33865   3.799   1.161   6.672  0.3184 -0.3918  0.6020
  251MOL0     H33866   3.693   1.164   6.818 -1.3041  1.9313 -1.3773
  251MOL0     H33867   4.460   1.762   7.306  0.5510 -0.7738 -2.5292
  251MOL0     H33868   4.616   1.877   7.460 -1.3447  0.6621  1.1747
  251MOL0     H33869   4.849   2.098   7.685  0.6417 -0.8006  0.1229
  251MOL0     H33870   5.072   2.115   7.775 -2.6286 -1.9002 -0.3603
  251MOL0     H33871   6.868   1.713   8.442  1.5332 -3.4906  2.6375
  251MOL0     H33872   7.020   1.663   8.609 -0.4592 -0.6972 -1.0151
  251MOL0     H33873   7.213   1.661   8.966  0.3433 -0.0209  0.1161
  251MOL0     H33874   7.379   1.601   9.123  0.5705 -0.8227  0.0919
  251MOL0     H33875   7.246   1.430   9.503  1.3961 -1.0076  2.3421
  251MOL0     H33876   7.308   1.288   9.415  0.7260 -0.4155 -0.9168
  251MOL0     H33877   7.442   1.312   9.606  0.4996 -2.1428 -2.5808
  251MOL0     H33878   7.440   1.488   9.604  1.8209 -0.2024  2.5661
  251MOL0     H33879   7.585   1.488   9.409 -0.4168  1.2490  1.1558
  251MOL0     H33880   7.596   1.313   9.421  1.5470  0.3259  0.1967
  251MOL0     H33881   7.669   1.320   9.646 -3.3521 -0.3908 -1.6098
  251MOL0     H33882   7.681   1.497   9.664  1.8246  0.0145  1.2997
  251MOL0     H33883   8.033   1.492   9.470  0.5581  0.3668  0.6531
  251MOL0     H33884   7.082   1.418   9.373 -0.3883 -0.6564 -0.8450
  251MOL0     H33885   6.917   1.450   9.187  0.3320 -1.2652 -1.7504
  252MOL0     O33886   5.221   9.376   2.981  0.4527  0.6327  0.2833
  252MOL0     C33887   5.264   9.420   2.872 -0.0025 -1.1807 -1.2957
  252MOL0     O33888   5.193   9.435   2.762  0.2557  0.1467  0.1135
  252MOL0     C33889   5.078   9.374   2.748 -0.1760  1.0078  0.1680
  252MOL0     C33890   4.960   9.438   2.787  0.5329 -0.5344  0.8945
  252MOL0     C33891   4.833   9.369   2.779 -0.2265  0.4755 -0.7092
  252MOL0     C33892   4.826   9.237   2.729  0.4201  0.7147  0.2456
  252MOL0     O33893   4.711   9.171   2.698  0.0872  0.0613 -0.3537
  252MOL0     C33894   4.603   9.214   2.780  0.2562 -0.3341 -0.3355
  252MOL0     C33895   4.498   9.104   2.778  0.2928 -0.3509 -0.3306
  252MOL0     C33896   4.471   9.051   2.641 -0.0956  0.3137 -0.1556
  252MOL0     C33897   4.339   8.978   2.628 -0.0394  0.0294 -0.1765
  252MOL0     C33898   4.290   8.958   2.485  0.9246  0.1159  0.5127
  252MOL0     C33899   4.149   8.894   2.478  0.7384 -0.2378  0.1913
  252MOL0     C33900   4.030   8.980   2.519  0.3626 -0.1877  0.3562
  252MOL0     C33901   3.904   8.898   2.506 -0.2242  0.4684  0.0119
  252MOL0     N33902   3.786   8.965   2.565  0.3079 -0.3249  0.4911
  252MOL0     C33903   3.685   8.916   2.643 -0.0067 -0.0596  0.5075
  252MOL0     C33904   3.602   9.019   2.674  0.5824  0.0031 -0.5286
  252MOL0     C33905   3.470   9.002   2.743  0.2630 -0.0719  0.2188
  252MOL0     C33906   3.384   8.893   2.671 -0.2065  0.0846  0.6894
  252MOL0     C33907   3.263   8.863   2.763  0.3051  1.0082 -0.5739
  252MOL0     C33908   3.190   8.737   2.725  0.2905  0.3855 -0.0372
  252MOL0     O33909   3.046   8.758   2.736  0.6736 -0.2263 -0.1052
  252MOL0     C33910   2.957   8.653   2.767 -0.3073  0.3577 -0.7456
  252MOL0     C33911   2.985   8.527   2.814 -0.4683  0.0340 -1.3281
  252MOL0     C33912   2.891   8.423   2.837 -0.2174  0.6992 -0.8619
  252MOL0     C33913   2.943   8.290   2.884 -0.2669  0.1788 -0.5465
  252MOL0     C33914   2.748   8.455   2.811 -0.4268  0.1912 -1.0493
  252MOL0     C33915   2.629   8.373   2.841 -1.0004  0.4584 -0.0019
  252MOL0     O33916   2.506   8.423   2.835  0.1859  0.5938  0.0534
  252MOL0     C33917   2.400   8.343   2.865 -0.3562 -0.0163  0.2614
  252MOL0     C33918   2.405   8.249   2.970  0.4958  0.3223 -0.4893
  252MOL0     C33919   2.287   8.175   3.001 -0.5231 -0.7194  0.5626
  252MOL0     C33920   2.171   8.188   2.931 -0.0185 -0.3999 -0.3254
  252MOL0     O33921   2.064   8.115   2.985  0.0358 -0.6864  0.0214
  252MOL0     C33922   1.936   8.130   2.914 -0.5869 -0.0756 -0.6850
  252MOL0     C33923   1.840   8.038   2.988  0.3362 -0.1356 -0.7061
  252MOL0     C33924   1.696   8.086   2.955  0.3807 -0.1840 -0.6949
  252MOL0     C33925   1.582   8.061   3.054  0.1534 -0.2455  0.4055
  252MOL0     C33926   1.441   8.086   2.994  1.0319 -0.4496 -0.2189
  252MOL0     C33927   1.332   7.998   3.055 -0.1611 -0.1156 -0.4667
  252MOL0     C33928   1.191   8.054   3.014 -0.2201 -0.6822  1.1181
  252MOL0     C33929   1.114   7.946   2.938  0.4708 -0.0832 -0.4572
  252MOL0    Cl33930   1.198   7.897   2.790 -0.2020 -0.0429 -0.1990
  252MOL0     C33931   2.161   8.269   2.818  0.1216 -0.2642 -0.0779
  252MOL0     C33932   2.280   8.350   2.785 -0.6031  0.4697 -0.4575
  252MOL0     O33933   2.655   8.249   2.842  0.0360  0.2274  0.4271
  252MOL0     C33934   2.724   8.582   2.764 -0.6025  0.4723  0.0991
  252MOL0     C33935   2.824   8.681   2.741  0.3309  1.0543  0.3879
  252MOL0     N33936   3.657   9.131   2.626  0.8698 -0.4123 -0.2252
  252MOL0     N33937   3.761   9.100   2.557  0.3328 -0.0983 -0.1963
  252MOL0     C33938   4.944   9.170   2.710 -1.1902 -0.4934  1.2529
  252MOL0     C33939   5.067   9.235   2.714  0.2938 -0.7392  0.2531
  252MOL0     C33940   5.403   9.489   2.875  0.5384  0.0122  0.3811
  252MOL0     C33941   5.477   9.476   2.989  0.2464 -0.6342 -0.1556
  252MOL0     C33942   5.582   9.563   3.014 -0.9373  0.0185 -0.0155
  252MOL0     C33943   5.634   9.651   2.911 -0.4052  1.0409  0.0950
  252MOL0     O33944   5.746   9.730   2.929  0.7096  0.1825 -0.3796
  252MOL0     C33945   5.754   9.861   2.865  0.4976  0.4178  0.0928
  252MOL0     C33946   5.864   9.861   2.759 -0.0913  0.3371  0.2909
  252MOL0     C33947   5.999   9.827   2.817 -0.4503  0.2372  0.2628
  252MOL0     C33948   6.112   9.897   2.746 -0.5261 -0.4721  0.3347
  252MOL0     C33949   6.233   9.892   2.826 -0.0096  0.8388 -0.4268
  252MOL0     C33950   6.332   9.869   2.892  0.4392  0.1919 -0.4289
  252MOL0     C33951   5.567   9.646   2.790  0.0764 -0.6263  0.2082
  252MOL0     C33952   5.451   9.570   2.780 -0.2214  0.5153 -0.7988
  252MOL0     H33953   4.964   9.541   2.821  0.4380 -0.6045  1.1182
  252MOL0     H33954   4.749   9.434   2.800  0.6629  1.0909  1.1921
  252MOL0     H33955   4.632   9.227   2.885 -1.4516  0.9406  0.0251
  252MOL0     H33956   4.553   9.299   2.732  1.5698 -0.4607 -2.0163
  252MOL0     H33957   4.526   9.017   2.837  1.4993  1.3351  1.7224
  252MOL0     H33958   4.411   9.155   2.821  1.4754  0.4974  1.1765
  252MOL0     H33959   4.461   9.135   2.572  1.4403 -0.8176 -1.8354
  252MOL0     H33960   4.543   8.974   2.613 -0.8964 -1.2896  1.8945
  252MOL0     H33961   4.338   8.880   2.676 -2.9654  0.0466 -0.0209
  252MOL0     H33962   4.265   9.032   2.688  0.4072  0.5339 -0.0826
  252MOL0     H33963   4.302   9.052   2.430  0.5255 -0.4177 -0.5268
  252MOL0     H33964   4.371   8.895   2.449  1.4919  0.9378  0.3260
  252MOL0     H33965   4.128   8.853   2.378 -2.5765 -1.3444  1.2135
  252MOL0     H33966   4.150   8.808   2.545  0.9555 -3.2161 -3.3100
  252MOL0     H33967   4.027   9.006   2.625 -0.6120  2.0137 -0.1457
  252MOL0     H33968   4.038   9.070   2.458  3.1434 -0.8700 -0.4133
  252MOL0     H33969   3.919   8.796   2.541  0.4512  0.9666  1.2142
  252MOL0     H33970   3.880   8.885   2.400  1.0038 -1.7709 -0.0502
  252MOL0     H33971   3.672   8.812   2.674  0.4874  0.3628  2.2478
  252MOL0     H33972   3.492   8.987   2.849  0.5859 -1.4274 -0.0247
  252MOL0     H33973   3.404   9.089   2.744 -1.4040 -1.2479 -1.6655
  252MOL0     H33974   3.453   8.808   2.667 -0.6622 -0.5717  3.9213
  252MOL0     H33975   3.352   8.923   2.570  2.6099  3.4297  0.5970
  252MOL0     H33976   3.195   8.948   2.767  0.4893  1.1721 -0.9042
  252MOL0     H33977   3.299   8.844   2.864 -1.8752 -2.8471 -0.3132
  252MOL0     H33978   3.228   8.661   2.794 -2.4841 -1.4692 -0.3764
  252MOL0     H33979   3.213   8.712   2.621  1.4926 -1.2270  0.5838
  252MOL0     H33980   3.089   8.498   2.818 -0.2089  1.0808  0.3552
  252MOL0     H33981   2.902   8.257   2.979  2.1329 -1.7398 -0.1080
  252MOL0     H33982   2.929   8.211   2.809  1.7956 -0.0252 -0.7681
  252MOL0     H33983   3.052   8.290   2.893 -0.2335 -1.9463 -0.5124
  252MOL0     H33984   2.493   8.224   3.027  0.3956 -0.8929 -0.8408
  252MOL0     H33985   2.280   8.098   3.076 -2.0282 -2.0193 -0.8557
  252MOL0     H33986   1.903   8.234   2.920  0.5393  0.2481  0.3512
  252MOL0     H33987   1.954   8.104   2.809  2.3724  0.0762 -0.3206
  252MOL0     H33988   1.862   7.934   2.962 -0.0714 -0.2090 -0.7576
  252MOL0     H33989   1.854   8.047   3.096 -1.7458 -1.8260 -0.2123
  252MOL0     H33990   1.672   8.037   2.860 -0.6973 -0.4457 -0.2912
  252MOL0     H33991   1.686   8.194   2.941  1.9465 -0.0999 -1.4179
  252MOL0     H33992   1.585   7.957   3.087 -0.9643 -0.5037 -0.2595
  252MOL0     H33993   1.594   8.128   3.140 -0.8976  2.9291 -1.7359
  252MOL0     H33994   1.461   8.064   2.888  1.6177 -0.1576 -0.1709
  252MOL0     H33995   1.407   8.189   3.006 -0.2938 -1.1992  4.7416
  252MOL0     H33996   1.347   7.895   3.020  0.1465 -1.0514  2.1541
  252MOL0     H33997   1.343   7.989   3.164 -2.2633  2.2783  0.0420
  252MOL0     H33998   1.194   8.143   2.950 -2.4949 -1.9070 -0.8592
  252MOL0     H33999   1.140   8.081   3.107  0.4489 -0.8855  1.5556
  252MOL0     H34000   1.015   7.985   2.913 -0.5173  1.1674  4.3396
  252MOL0     H34001   1.093   7.865   3.008 -2.0633  0.7147 -0.2185
  252MOL0     H34002   2.069   8.285   2.762  1.1405 -1.2962 -2.1949
  252MOL0     H34003   2.273   8.414   2.698 -0.1956 -0.4921 -1.2163
  252MOL0     H34004   2.621   8.615   2.757 -1.6732 -2.5923  0.1362
  252MOL0     H34005   2.791   8.777   2.701 -0.2349 -0.5020 -3.2715
  252MOL0     H34006   4.951   9.065   2.680  1.7784 -0.6736  2.2866
  252MOL0     H34007   5.156   9.186   2.676 -1.4532 -1.0585 -3.9475
  252MOL0     H34008   5.450   9.405   3.067 -1.0942  1.1805  1.1200
  252MOL0     H34009   5.634   9.554   3.110 -3.5062  0.4066  1.5093
  252MOL0     H34010   5.662   9.898   2.820  0.7323  0.8203 -0.0653
  252MOL0     H34011   5.782   9.930   2.945  2.3849 -0.3910  0.1889
  252MOL0     H34012   5.861   9.960   2.714  2.0224 -0.7253 -2.4730
  252MOL0     H34013   5.840   9.788   2.682 -0.4259 -0.1450  0.8422
  252MOL0     H34014   6.020   9.721   2.798 -0.8703  0.2791 -0.4856
  252MOL0     H34015   6.010   9.855   2.922  0.6784 -1.8262  0.7462
  252MOL0     H34016   6.088  10.002   2.727  0.4683 -0.6611 -2.3541
  252MOL0     H34017   6.140   9.857   2.648 -1.8011 -0.6674  0.0396
  252MOL0     H34018   6.416   9.849   2.956  1.2538  1.4669 -1.0536
  252MOL0     H34019   5.600   9.710   2.708  0.3122  0.2157  0.9445
  252MOL0     H34020   5.401   9.584   2.685  1.2549 -0.8179 -1.8282
  253MOL0     O34021   4.979   1.024   4.803  0.0751  0.3420  0.7097
  253MOL0     C34022   4.924   1.059   4.703 -0.7297 -0.5399  0.6941
  253MOL0     O34023   4.826   1.159   4.699 -0.3190  0.0639 -0.0231
  253MOL0     C34024   4.765   1.193   4.814 -0.5994 -0.8773  0.2660
  253MOL0     C34025   4.733   1.327   4.820 -0.2955  0.0998 -0.2027
  253MOL0     C34026   4.674   1.377   4.940 -0.8559 -1.1954  0.9577
  253MOL0     C34027   4.634   1.284   5.041 -0.7826  0.1296 -0.2027
  253MOL0     O34028   4.573   1.324   5.156 -0.0338  1.0267 -0.3910
  253MOL0     C34029   4.602   1.452   5.216  0.1690 -0.5194  0.8497
  253MOL0     C34030   4.568   1.449   5.363  0.5623  0.2393 -0.4170
  253MOL0     C34031   4.418   1.472   5.393 -0.4077  0.2999 -0.4276
  253MOL0     C34032   4.389   1.474   5.543 -0.5194 -0.5814 -0.7151
  253MOL0     C34033   4.229   1.471   5.575 -0.2277  0.0694  0.6938
  253MOL0     C34034   4.143   1.588   5.511 -1.3804  1.2267  0.4889
  253MOL0     C34035   4.196   1.716   5.566  0.3363 -0.1724 -0.9855
  253MOL0     C34036   4.128   1.842   5.497  0.2373  0.6279  0.2662
  253MOL0     N34037   3.976   1.838   5.492 -0.2090  0.1067  0.2305
  253MOL0     C34038   3.906   1.840   5.612 -0.4826  0.4691 -0.1872
  253MOL0     C34039   3.777   1.842   5.574 -0.0841  0.3373  0.0865
  253MOL0     C34040   3.659   1.887   5.655  0.2172  0.0053 -0.2107
  253MOL0     C34041   3.654   1.793   5.782 -0.3841 -0.3903  0.2505
  253MOL0     C34042   3.551   1.845   5.881 -0.3716  0.4739 -0.4604
  253MOL0     C34043   3.417   1.786   5.857  0.2571  0.9858  1.0089
  253MOL0     O34044   3.355   1.847   5.745  0.5239 -0.3569 -0.3027
  253MOL0     C34045   3.227   1.811   5.731 -0.2662  0.0550  0.3840
  253MOL0     C34046   3.150   1.888   5.645  0.3716 -0.0180  0.5259
  253MOL0     C34047   3.016   1.870   5.621 -0.6493  0.4684 -0.9878
  253MOL0     C34048   2.962   1.964   5.521 -0.4167  0.2947  0.2804
  253MOL0     C34049   2.944   1.763   5.691  1.2462 -1.0275  1.0232
  253MOL0     C34050   2.791   1.753   5.687  0.2285  0.0445  0.1498
  253MOL0     O34051   2.738   1.681   5.796 -0.3981 -0.6050 -0.1412
  253MOL0     C34052   2.605   1.661   5.798 -0.4214  0.1633 -0.1896
  253MOL0     C34053   2.545   1.706   5.914  0.3474 -0.4824  0.7008
  253MOL0     C34054   2.409   1.697   5.924 -0.3843 -0.4377  0.0349
  253MOL0     C34055   2.325   1.642   5.829 -0.4563  0.5466 -0.3478
  253MOL0     O34056   2.196   1.635   5.859 -0.8912  0.2404 -0.2255
  253MOL0     C34057   2.113   1.560   5.781 -1.4899  0.4117 -0.2328
  253MOL0     C34058   1.985   1.555   5.854  0.4344  0.7295  0.0498
  253MOL0     C34059   1.886   1.661   5.812 -0.0054 -0.2746  0.3665
  253MOL0     C34060   1.751   1.636   5.878 -1.1618  0.1845  0.7150
  253MOL0     C34061   1.674   1.522   5.814 -0.4390  0.1084  0.3582
  253MOL0     C34062   1.555   1.505   5.901  0.1355 -0.1953  0.3162
  253MOL0     C34063   1.465   1.404   5.831 -0.4247 -0.5436 -0.5191
  253MOL0     C34064   1.349   1.364   5.906 -0.2148  0.7734  0.1861
  253MOL0    Cl34065   1.409   1.257   6.047  0.5129 -0.2031  0.3672
  253MOL0     C34066   2.391   1.593   5.715  1.2157  0.5218 -0.2143
  253MOL0     C34067   2.530   1.606   5.697  0.6101 -0.2857 -0.2798
  253MOL0     O34068   2.739   1.780   5.585  0.0850 -0.8434  0.0527
  253MOL0     C34069   3.027   1.676   5.768 -0.6679  0.5496  1.0288
  253MOL0     C34070   3.169   1.691   5.782  0.3539 -0.4680  0.0633
  253MOL0     N34071   3.767   1.843   5.434  0.0172 -0.6495 -0.0680
  253MOL0     N34072   3.891   1.840   5.385 -0.0105 -0.1045  0.1386
  253MOL0     C34073   4.662   1.148   5.036 -0.2348 -0.7685  0.3188
  253MOL0     C34074   4.728   1.103   4.919  0.3780 -0.3009  0.5808
  253MOL0     C34075   4.966   0.988   4.578 -0.6585 -0.6630  0.0169
  253MOL0     C34076   4.897   1.014   4.460 -0.1225  0.6412  0.8306
  253MOL0     C34077   4.937   0.947   4.344 -0.0121 -0.4392  1.1851
  253MOL0     C34078   5.057   0.879   4.332  0.1417 -0.3188 -0.6004
  253MOL0     O34079   5.083   0.812   4.214  0.6000 -0.0377  1.0337
  253MOL0     C34080   5.155   0.690   4.207 -0.3055  0.1580  0.0137
  253MOL0     C34081   5.078   0.568   4.267  0.5112  0.0649 -0.3702
  253MOL0     C34082   4.933   0.533   4.212 -0.2034  0.4200  0.3621
  253MOL0     C34083   4.933   0.510   4.060 -0.0240 -0.5738 -0.6240
  253MOL0     C34084   5.001   0.376   4.031  0.5490 -0.0536 -0.1188
  253MOL0     C34085   5.061   0.269   4.018  0.0187 -0.1272 -0.1039
  253MOL0     C34086   5.132   0.866   4.450  0.1874 -0.7141 -0.1705
  253MOL0     C34087   5.091   0.925   4.572  0.1217  0.3992  0.0161
  253MOL0     H34088   4.762   1.398   4.743 -0.9640 -0.3528 -0.8820
  253MOL0     H34089   4.635   1.478   4.956 -0.3678 -0.8545  0.0652
  253MOL0     H34090   4.705   1.479   5.191  0.6192 -2.5823  0.2961
  253MOL0     H34091   4.529   1.526   5.182  1.6771  1.5005  1.7901
  253MOL0     H34092   4.585   1.353   5.413 -1.1944  0.4071  0.5625
  253MOL0     H34093   4.631   1.522   5.416 -1.9823  1.1315  1.5867
  253MOL0     H34094   4.397   1.576   5.366  1.7642  0.8224 -0.3450
  253MOL0     H34095   4.359   1.399   5.337 -1.2666 -0.4510  1.3877
  253MOL0     H34096   4.439   1.387   5.586 -0.2277  0.7362  1.7935
  253MOL0     H34097   4.439   1.562   5.583 -5.5752  3.6678 -2.6727
  253MOL0     H34098   4.192   1.377   5.534 -2.6552  0.8652  0.9260
  253MOL0     H34099   4.214   1.486   5.683 -2.7866  2.2889  0.1344
  253MOL0     H34100   4.165   1.587   5.404 -0.8209 -0.9866  0.5917
  253MOL0     H34101   4.037   1.569   5.529 -0.8500 -3.1048 -0.0112
  253MOL0     H34102   4.182   1.716   5.675  1.2134 -1.7205 -0.8514
  253MOL0     H34103   4.302   1.725   5.540  0.2732  1.3473 -0.8159
  253MOL0     H34104   4.165   1.842   5.394 -0.3402 -0.1544  0.0424
  253MOL0     H34105   4.167   1.925   5.557  1.6659  1.0044 -1.1160
  253MOL0     H34106   3.944   1.845   5.713 -0.4684  0.8613 -0.2113
  253MOL0     H34107   3.665   1.990   5.694 -3.3543 -0.4971  2.1711
  253MOL0     H34108   3.569   1.901   5.594 -1.7540 -0.2511  2.4472
  253MOL0     H34109   3.756   1.800   5.822  0.4182 -0.5935 -1.6273
  253MOL0     H34110   3.632   1.693   5.743  0.4940 -0.0407 -1.2216
  253MOL0     H34111   3.551   1.954   5.877  0.7206  0.4428 -2.0263
  253MOL0     H34112   3.582   1.827   5.984 -1.7483  2.7003  0.4128
  253MOL0     H34113   3.363   1.811   5.949  1.4168 -2.1912  2.7344
  253MOL0     H34114   3.421   1.677   5.855  1.4681  1.0261 -0.3234
  253MOL0     H34115   3.203   1.970   5.597  0.4571 -0.5407 -0.2909
  253MOL0     H34116   3.041   2.027   5.480 -0.1494 -0.5739 -0.5980
  253MOL0     H34117   2.924   1.905   5.437 -3.8294  0.2963  1.6635
  253MOL0     H34118   2.887   2.028   5.567  1.2863  2.3102  0.3895
  253MOL0     H34119   2.594   1.756   5.997  1.5788 -0.4272 -0.0216
  253MOL0     H34120   2.352   1.742   6.005 -0.9504 -0.6322 -0.2464
  253MOL0     H34121   2.095   1.607   5.684 -1.7216 -1.8063 -1.3421
  253MOL0     H34122   2.152   1.461   5.755 -1.5130  0.1999  0.5261
  253MOL0     H34123   1.953   1.451   5.839  3.9441 -0.3793 -0.5932
  253MOL0     H34124   2.004   1.566   5.961  1.0591 -0.9122  0.1290
  253MOL0     H34125   1.884   1.659   5.703  0.8413 -3.1416  0.3313
  253MOL0     H34126   1.915   1.761   5.847 -0.3235 -0.4382  1.1141
  253MOL0     H34127   1.768   1.599   5.979 -1.2239 -1.5672  0.1319
  253MOL0     H34128   1.686   1.724   5.879 -0.2883  0.9379 -1.4992
  253MOL0     H34129   1.726   1.426   5.809  0.2818  0.4231  1.4202
  253MOL0     H34130   1.646   1.550   5.712 -0.6205 -0.4351  0.2530
  253MOL0     H34131   1.591   1.458   5.992  0.9363  0.1358  0.1772
  253MOL0     H34132   1.500   1.597   5.924  3.0955  1.4701  1.1710
  253MOL0     H34133   1.536   1.328   5.798  1.1748  1.5520 -2.1495
  253MOL0     H34134   1.428   1.449   5.739  1.7019 -1.6938 -2.0077
  253MOL0     H34135   1.284   1.297   5.848  2.0061 -1.6453  0.2476
  253MOL0     H34136   1.297   1.452   5.944  0.3817  1.5070 -0.6561
  253MOL0     H34137   2.332   1.550   5.635 -1.0426  3.0648 -0.0702
  253MOL0     H34138   2.583   1.567   5.610 -0.8862  0.0696 -1.3979
  253MOL0     H34139   2.986   1.583   5.804  0.8007 -0.6752 -0.3104
  253MOL0     H34140   3.220   1.633   5.858 -2.1966 -2.4663  0.3810
  253MOL0     H34141   4.647   1.081   5.120  1.0831  2.0302  2.9847
  253MOL0     H34142   4.752   0.997   4.915 -0.3101 -0.4325 -0.2202
  253MOL0     H34143   4.809   1.078   4.459 -0.2758  0.4635 -1.3509
  253MOL0     H34144   4.876   0.973   4.258  2.0932 -1.3660 -0.6756
  253MOL0     H34145   5.178   0.662   4.104  1.1728 -0.8686  0.5800
  253MOL0     H34146   5.245   0.707   4.266 -0.5415  0.2907  0.3370
  253MOL0     H34147   5.065   0.594   4.372 -1.9331  1.6339 -0.9710
  253MOL0     H34148   5.129   0.472   4.272 -1.7877 -1.1488  3.1783
  253MOL0     H34149   4.864   0.613   4.239 -0.2973 -0.3046  2.4401
  253MOL0     H34150   4.895   0.441   4.256 -1.0149  0.2008 -0.7597
  253MOL0     H34151   4.970   0.595   4.002  0.8795 -0.0411  0.6907
  253MOL0     H34152   4.830   0.508   4.021  0.5898  4.4047 -3.2267
  253MOL0     H34153   5.117   0.178   4.025  1.5755  0.9109  2.0275
  253MOL0     H34154   5.228   0.815   4.448 -0.4961 -2.4556  3.1558
  253MOL0     H34155   5.149   0.915   4.663  1.3966 -2.0756 -0.9608
  254MOL0     O34156   5.202   3.868   6.620 -0.4562  0.5252  1.1554
  254MOL0     C34157   5.104   3.903   6.563  0.4203  0.1569 -0.4348
  254MOL0     O34158   5.088   3.992   6.451  0.8341 -0.6908 -0.0182
  254MOL0     C34159   5.203   4.056   6.417 -0.0283 -0.4845  0.5670
  254MOL0     C34160   5.263   4.026   6.296 -0.5500 -0.3956  0.0060
  254MOL0     C34161   5.390   4.092   6.261 -0.3575 -0.2428  0.3531
  254MOL0     C34162   5.445   4.183   6.352 -1.5288  0.0997  0.3484
  254MOL0     O34163   5.560   4.251   6.327  0.0886 -0.0886 -0.2194
  254MOL0     C34164   5.578   4.287   6.189 -0.3222  0.3868  1.0579
  254MOL0     C34165   5.673   4.402   6.189  0.0666  0.1403  0.3352
  254MOL0     C34166   5.614   4.536   6.239 -0.4327 -0.2316 -0.5028
  254MOL0     C34167   5.721   4.635   6.255 -0.1222  0.8304  0.1756
  254MOL0     C34168   5.658   4.768   6.284  0.1790 -0.7876 -0.3390
  254MOL0     C34169   5.760   4.885   6.308  0.8111  0.2598  0.0426
  254MOL0     C34170   5.689   5.017   6.311 -0.1083 -0.3136 -0.1604
  254MOL0     C34171   5.802   5.121   6.354  0.6420 -0.2915  0.0801
  254MOL0     N34172   5.744   5.253   6.397  0.3593 -0.2345  0.1120
  254MOL0     C34173   5.679   5.273   6.514  0.5922 -0.0505 -0.0362
  254MOL0     C34174   5.656   5.407   6.512  0.2732  0.1663 -0.7838
  254MOL0     C34175   5.572   5.487   6.611 -0.4495  1.1311  0.0456
  254MOL0     C34176   5.454   5.406   6.661  0.3395 -0.8591 -0.1839
  254MOL0     C34177   5.369   5.496   6.756 -0.2297  0.3075  0.2984
  254MOL0     C34178   5.233   5.429   6.784 -0.1709 -0.6586  0.0505
  254MOL0     O34179   5.163   5.520   6.867  0.4267 -0.2760  0.0012
  254MOL0     C34180   5.024   5.495   6.871 -1.0720 -0.1817 -0.0215
  254MOL0     C34181   4.967   5.379   6.924 -0.0729  0.8136 -0.8648
  254MOL0     C34182   4.826   5.365   6.933 -0.4589  0.0436  0.3856
  254MOL0     C34183   4.766   5.231   6.974  0.2885  0.4344 -0.0874
  254MOL0     C34184   4.743   5.485   6.918 -0.3986  1.0908  0.4078
  254MOL0     C34185   4.599   5.487   6.949 -0.5145  0.1786  0.2488
  254MOL0     O34186   4.560   5.614   6.980 -0.0084  0.7766 -0.7804
  254MOL0     C34187   4.429   5.638   6.990 -0.0108  0.6482 -0.9478
  254MOL0     C34188   4.379   5.736   6.900 -0.0617  0.3001 -0.0694
  254MOL0     C34189   4.240   5.758   6.887  0.5622  0.9596  0.1223
  254MOL0     C34190   4.156   5.684   6.980  0.0282 -0.4458 -0.4606
  254MOL0     O34191   4.025   5.716   6.973 -0.2855 -0.0835 -0.0828
  254MOL0     C34192   3.943   5.597   6.934  0.6708  0.0589 -0.6575
  254MOL0     C34193   3.799   5.649   6.928  0.3432  0.0874 -1.0557
  254MOL0     C34194   3.792   5.715   6.793  0.4367  0.0340 -0.3581
  254MOL0     C34195   3.640   5.748   6.760 -0.3244 -0.3329  0.2218
  254MOL0     C34196   3.610   5.820   6.632 -0.5156  0.5735 -0.3188
  254MOL0     C34197   3.703   5.946   6.601  0.0746  0.6215  0.4191
  254MOL0     C34198   3.656   6.001   6.475  0.4603  0.4485  0.1552
  254MOL0     C34199   3.537   6.097   6.490  0.1541  0.3857 -0.4093
  254MOL0    Cl34200   3.492   6.182   6.334  0.1296 -0.0508 -0.0427
  254MOL0     C34201   4.206   5.583   7.073 -0.1779 -0.7947 -0.0535
  254MOL0     C34202   4.346   5.566   7.079  0.0119 -0.8263 -0.1261
  254MOL0     O34203   4.534   5.382   6.949 -0.0541  0.5006 -0.2171
  254MOL0     C34204   4.808   5.601   6.869 -0.1302 -0.4041 -0.1107
  254MOL0     C34205   4.948   5.607   6.857  0.0871  0.1375 -0.6404
  254MOL0     N34206   5.706   5.461   6.400  0.0453  0.1247  0.3004
  254MOL0     N34207   5.752   5.367   6.333 -0.4307 -0.3301  0.4990
  254MOL0     C34208   5.377   4.212   6.471  0.2742 -0.2944  0.5388
  254MOL0     C34209   5.258   4.146   6.504  0.1656  0.5744 -0.9080
  254MOL0     C34210   4.973   3.850   6.614  0.0459  0.1980  0.1514
  254MOL0     C34211   4.855   3.831   6.546  1.0065  0.6995  0.2892
  254MOL0     C34212   4.746   3.758   6.591  0.3342 -0.3462 -0.2662
  254MOL0     C34213   4.756   3.704   6.716 -0.1077  1.0200 -0.3073
  254MOL0     O34214   4.653   3.634   6.785 -0.0442 -0.4369  0.4841
  254MOL0     C34215   4.541   3.717   6.844 -0.4458 -0.4682  0.6798
  254MOL0     C34216   4.416   3.736   6.761 -0.1153 -0.2875  0.2276
  254MOL0     C34217   4.281   3.667   6.810 -0.1314  0.1423 -0.2551
  254MOL0     C34218   4.291   3.509   6.815  0.1798 -0.2948 -0.2739
  254MOL0     C34219   4.170   3.463   6.884 -0.5760 -0.6345 -0.1162
  254MOL0     C34220   4.078   3.421   6.959 -0.5063 -0.2282 -0.5836
  254MOL0     C34221   4.868   3.717   6.797 -0.0285 -0.1251  0.1001
  254MOL0     C34222   4.982   3.784   6.744  0.8886  0.0272 -0.0258
  254MOL0     H34223   5.226   3.940   6.241  1.0653 -1.5920  0.7007
  254MOL0     H34224   5.436   4.064   6.166 -0.6370 -2.8488  0.8907
  254MOL0     H34225   5.618   4.201   6.133  0.0826 -0.1384  2.1282
  254MOL0     H34226   5.494   4.332   6.136  0.4713 -0.5631 -1.1484
  254MOL0     H34227   5.760   4.376   6.252 -1.1534 -1.3191  1.5078
  254MOL0     H34228   5.711   4.406   6.087  0.2610  0.4320  0.4161
  254MOL0     H34229   5.528   4.574   6.183  0.9300  2.0091 -1.1933
  254MOL0     H34230   5.568   4.511   6.335 -0.6388  0.6655 -0.3637
  254MOL0     H34231   5.770   4.593   6.343  1.5891 -0.0731 -1.1486
  254MOL0     H34232   5.797   4.624   6.178  0.3605  0.2833  0.7265
  254MOL0     H34233   5.587   4.795   6.205  0.0591 -1.7337 -0.5659
  254MOL0     H34234   5.605   4.751   6.378 -0.2308  1.0405 -0.2022
  254MOL0     H34235   5.803   4.881   6.408 -1.1924  0.0643  0.9399
  254MOL0     H34236   5.840   4.893   6.233  0.3013  0.0332 -0.5290
  254MOL0     H34237   5.641   5.039   6.215 -3.8271 -2.3452  1.0431
  254MOL0     H34238   5.620   5.010   6.395  0.0201  0.6649  0.0389
  254MOL0     H34239   5.883   5.131   6.281 -0.4799 -2.0455 -1.5214
  254MOL0     H34240   5.848   5.077   6.443  1.7002  1.7591  0.6072
  254MOL0     H34241   5.646   5.206   6.593 -2.1586  2.2324  0.9538
  254MOL0     H34242   5.633   5.519   6.696  2.3794 -1.3810 -0.8336
  254MOL0     H34243   5.530   5.574   6.559  0.5038  2.0252  0.7307
  254MOL0     H34244   5.503   5.327   6.720  2.4264  0.2414 -0.3238
  254MOL0     H34245   5.396   5.359   6.582 -1.6951 -0.6069  1.0901
  254MOL0     H34246   5.366   5.593   6.705 -0.2207 -1.6618 -3.7710
  254MOL0     H34247   5.435   5.492   6.844  2.1448 -3.2965 -1.4019
  254MOL0     H34248   5.252   5.327   6.818 -2.0025 -1.4360 -1.0574
  254MOL0     H34249   5.178   5.410   6.691 -0.4680  0.0276  0.0736
  254MOL0     H34250   5.023   5.286   6.934 -0.7866  0.5309  0.8796
  254MOL0     H34251   4.845   5.168   7.017  0.2557  1.0585  0.9015
  254MOL0     H34252   4.691   5.240   7.053 -0.8618  0.1110 -1.1115
  254MOL0     H34253   4.723   5.172   6.892 -0.0457  1.0653 -0.3710
  254MOL0     H34254   4.456   5.783   6.839  1.3088 -2.8747 -0.9546
  254MOL0     H34255   4.192   5.834   6.827 -0.5727  0.0162 -0.1917
  254MOL0     H34256   3.972   5.555   6.837  0.4537  1.8183 -1.5170
  254MOL0     H34257   3.948   5.518   7.010 -0.2614  0.5939 -0.0134
  254MOL0     H34258   3.734   5.561   6.931  1.6063 -0.8929 -1.4778
  254MOL0     H34259   3.777   5.706   7.019 -3.1708 -2.0415 -0.3550
  254MOL0     H34260   3.827   5.647   6.715 -2.8734 -2.8803  0.4782
  254MOL0     H34261   3.851   5.807   6.801 -0.5313  0.6193  0.3960
  254MOL0     H34262   3.583   5.655   6.755  0.6933 -0.9109 -1.6828
  254MOL0     H34263   3.595   5.805   6.842 -1.1875 -0.2532 -0.3016
  254MOL0     H34264   3.505   5.849   6.623 -0.0921  1.9781 -0.9674
  254MOL0     H34265   3.630   5.754   6.547  0.8849 -0.4426  0.7425
  254MOL0     H34266   3.701   6.019   6.682  1.2818  0.2664  0.7967
  254MOL0     H34267   3.808   5.919   6.588 -1.1317 -4.5009 -1.3018
  254MOL0     H34268   3.643   5.921   6.402  2.8967  1.6970 -1.8066
  254MOL0     H34269   3.725   6.073   6.430  0.6418  0.8445  1.0484
  254MOL0     H34270   3.569   6.170   6.565 -2.1655 -0.6465  1.7556
  254MOL0     H34271   3.445   6.056   6.532 -0.5318  1.5667 -0.7297
  254MOL0     H34272   4.146   5.539   7.152 -0.1648  2.2213  1.7964
  254MOL0     H34273   4.384   5.494   7.151 -3.0609  0.3175  2.8836
  254MOL0     H34274   4.744   5.683   6.841  1.6159  0.3855 -2.0762
  254MOL0     H34275   4.999   5.696   6.822  0.7202 -0.6839 -1.8835
  254MOL0     H34276   5.424   4.290   6.530 -0.1918  1.8252 -1.7222
  254MOL0     H34277   5.207   4.155   6.599  0.9543 -1.5005 -0.2329
  254MOL0     H34278   4.845   3.881   6.450 -1.9927  0.6011  0.4609
  254MOL0     H34279   4.659   3.764   6.527 -0.4598  1.5457  0.9095
  254MOL0     H34280   4.509   3.656   6.930 -0.1307 -0.8235  0.5507
  254MOL0     H34281   4.586   3.813   6.871  2.6541 -1.8826  1.0142
  254MOL0     H34282   4.434   3.700   6.659 -1.7038  0.6846 -0.4336
  254MOL0     H34283   4.405   3.844   6.749 -0.5535 -0.2310  1.0976
  254MOL0     H34284   4.193   3.691   6.748  0.6098 -1.2725 -1.9446
  254MOL0     H34285   4.262   3.703   6.912 -0.8625  1.4828 -0.8374
  254MOL0     H34286   4.378   3.483   6.876 -1.6205  0.2116  2.7473
  254MOL0     H34287   4.301   3.472   6.713 -1.2775 -0.6415 -0.3160
  254MOL0     H34288   4.001   3.386   7.025 -1.7337 -0.5488 -2.1185
  254MOL0     H34289   4.864   3.677   6.897 -2.2540 -0.5097 -0.0952
  254MOL0     H34290   5.070   3.782   6.808  0.2275 -0.0684  0.9016
  255MOL0     O34291   0.465   7.777   3.903 -0.4138  0.2518  0.3985
  255MOL0     C34292   0.409   7.758   4.006 -0.0782 -0.0149  0.1644
  255MOL0     O34293   0.270   7.763   4.031  0.1662 -0.2194  0.6700
  255MOL0     C34294   0.191   7.800   3.930  0.6087 -0.1895  0.3482
  255MOL0     C34295   0.193   7.735   3.809  0.0535  0.4123  0.2443
  255MOL0     C34296   0.124   7.788   3.698 -0.0592  0.0262 -0.0404
  255MOL0     C34297   0.011   7.874   3.721 -0.0567  0.3617 -0.6627
  255MOL0     O34298  -0.072   7.905   3.615 -0.4968  0.0276  0.3623
  255MOL0     C34299  -0.210   7.929   3.648  0.0819 -0.4725 -0.5228
  255MOL0     C34300  -0.296   7.901   3.529  0.6384  0.5183 -0.4286
  255MOL0     C34301  -0.286   8.016   3.419 -0.1257 -0.0453 -0.1934
  255MOL0     C34302  -0.147   8.007   3.351  0.3071  0.7398  0.4712
  255MOL0     C34303  -0.054   8.114   3.399 -0.3999 -0.1318  0.0542
  255MOL0     C34304   0.088   8.103   3.330 -0.4896  0.0951 -0.6557
  255MOL0     C34305   0.087   8.118   3.180 -0.7098  0.1351  0.1315
  255MOL0     C34306   0.231   8.157   3.123 -0.4447 -0.0703  0.3551
  255MOL0     N34307   0.222   8.219   2.991  0.4006  0.8049 -0.4559
  255MOL0     C34308   0.136   8.177   2.901 -0.7111  1.0456  0.1534
  255MOL0     C34309   0.196   8.214   2.782 -0.1533  0.2455  0.2354
  255MOL0     C34310   0.131   8.180   2.648  0.4120 -0.3756  1.0589
  255MOL0     C34311  -0.013   8.225   2.623 -0.5578  0.1515  0.3225
  255MOL0     C34312  -0.024   8.378   2.626 -1.0859  0.3472  0.2226
  255MOL0     C34313  -0.174   8.405   2.603 -0.3836 -0.5861 -0.1440
  255MOL0     O34314  -0.259   8.351   2.700 -0.5905  0.2894  0.0505
  255MOL0     C34315  -0.393   8.375   2.669 -0.2916 -0.6895 -0.1995
  255MOL0     C34316  -0.487   8.316   2.749  0.3059  1.2225 -0.0783
  255MOL0     C34317  -0.629   8.334   2.739  0.1062 -0.1735 -0.6820
  255MOL0     C34318  -0.702   8.249   2.835  0.6751  0.4002  0.0265
  255MOL0     C34319  -0.681   8.425   2.640 -0.9376  0.8938 -1.2382
  255MOL0     C34320  -0.822   8.440   2.615 -1.0526 -0.2488 -0.4539
  255MOL0     O34321  -0.844   8.495   2.484  0.6582  0.6166 -0.0268
  255MOL0     C34322  -0.972   8.524   2.446  0.7607  0.1234 -0.3114
  255MOL0     C34323  -1.045   8.623   2.510 -0.2024 -0.1586  0.4161
  255MOL0     C34324  -1.157   8.673   2.445 -0.3780  0.2435 -0.0557
  255MOL0     C34325  -1.203   8.616   2.322 -0.3194  0.1998 -0.4965
  255MOL0     O34326  -1.323   8.655   2.268 -0.1526  0.3113  0.4168
  255MOL0     C34327  -1.436   8.578   2.310  0.2320  0.6873 -0.3097
  255MOL0     C34328  -1.559   8.671   2.339  0.4835 -0.1901 -0.0343
  255MOL0     C34329  -1.617   8.723   2.209  0.2152  0.3416  0.2407
  255MOL0     C34330  -1.692   8.623   2.115 -0.5301  0.1191 -0.1568
  255MOL0     C34331  -1.680   8.657   1.966 -0.6228 -0.3970 -0.0706
  255MOL0     C34332  -1.795   8.587   1.881 -0.5421  0.2146  0.0655
  255MOL0     C34333  -1.744   8.558   1.738 -0.9541 -0.4186 -1.4980
  255MOL0     C34334  -1.836   8.467   1.674 -0.5827 -0.3482 -0.6354
  255MOL0    Cl34335  -2.002   8.534   1.650 -0.3135 -0.0909  0.1735
  255MOL0     C34336  -1.126   8.521   2.258 -0.4192  0.0016 -0.1770
  255MOL0     C34337  -1.003   8.486   2.313 -0.1874  0.4776  0.0648
  255MOL0     O34338  -0.904   8.399   2.688  0.6568  0.2597 -0.9913
  255MOL0     C34339  -0.581   8.485   2.559  0.5105  0.2089  0.5022
  255MOL0     C34340  -0.444   8.472   2.580  0.3562 -0.7310  0.3219
  255MOL0     N34341   0.316   8.271   2.808  0.1917  0.1561 -0.2826
  255MOL0     N34342   0.330   8.278   2.936 -0.6488  0.1129  0.5075
  255MOL0     C34343  -0.003   7.930   3.844 -0.0322  1.0371 -0.2272
  255MOL0     C34344   0.094   7.899   3.945 -0.1489  0.1719  0.1662
  255MOL0     C34345   0.483   7.729   4.128 -0.0270  0.5470  0.3947
  255MOL0     C34346   0.621   7.741   4.152  0.0148  0.1020 -1.0134
  255MOL0     C34347   0.687   7.697   4.263 -0.2244  0.0850 -0.6568
  255MOL0     C34348   0.614   7.642   4.367  1.2061  0.6177  1.2530
  255MOL0     O34349   0.679   7.585   4.473 -0.4133 -0.6284 -0.4944
  255MOL0     C34350   0.801   7.641   4.517 -0.0807 -0.0585  0.2854
  255MOL0     C34351   0.824   7.614   4.677 -0.2420 -0.3518 -0.2161
  255MOL0     C34352   0.952   7.685   4.714  0.4923  0.3138  0.4528
  255MOL0     C34353   0.989   7.640   4.861 -0.3363 -0.0099  0.9466
  255MOL0     C34354   0.885   7.704   4.946  0.4117 -0.7116  0.3155
  255MOL0     C34355   0.789   7.733   5.020 -0.4286  0.7190 -0.5100
  255MOL0     C34356   0.472   7.623   4.348  0.8746 -0.1617 -0.0708
  255MOL0     C34357   0.411   7.667   4.234 -0.0263  0.0173 -0.0692
  255MOL0     H34358   0.270   7.659   3.800 -1.6744 -1.2358 -1.3866
  255MOL0     H34359   0.129   7.756   3.594 -0.8130  0.0476 -0.0881
  255MOL0     H34360  -0.241   7.861   3.729  0.8016  0.0543  0.2141
  255MOL0     H34361  -0.230   8.030   3.683 -0.6057 -1.1514  1.1621
  255MOL0     H34362  -0.283   7.805   3.479 -1.8944  0.1076 -0.4458
  255MOL0     H34363  -0.401   7.890   3.560  0.8144  0.0062 -0.0007
  255MOL0     H34364  -0.372   7.987   3.358 -1.5930 -0.5173  1.9882
  255MOL0     H34365  -0.305   8.113   3.465  1.0550 -0.4856  1.2972
  255MOL0     H34366  -0.094   7.912   3.367  0.2317  0.9000  1.8632
  255MOL0     H34367  -0.155   8.017   3.243  1.3947 -2.8144 -0.0790
  255MOL0     H34368  -0.091   8.216   3.386  0.3239  0.1669  0.2412
  255MOL0     H34369  -0.046   8.113   3.508 -1.2526  0.0963  0.1263
  255MOL0     H34370   0.142   8.186   3.375 -0.7706 -0.6034  1.0535
  255MOL0     H34371   0.123   8.004   3.360 -0.3942  0.0915 -0.7736
  255MOL0     H34372   0.053   8.025   3.133 -0.2062 -0.3429  0.6970
  255MOL0     H34373   0.008   8.191   3.156 -1.4508  0.4143  3.0709
  255MOL0     H34374   0.280   8.059   3.126  0.1324  0.1859 -0.3272
  255MOL0     H34375   0.282   8.228   3.189 -0.7355 -0.0848  0.5975
  255MOL0     H34376   0.040   8.127   2.906 -0.6162  0.6793 -1.2440
  255MOL0     H34377   0.184   8.226   2.564  2.7388 -0.2243  2.5444
  255MOL0     H34378   0.138   8.071   2.640 -0.0128 -0.3586  0.3288
  255MOL0     H34379  -0.080   8.182   2.698 -0.6141 -1.4787 -0.6105
  255MOL0     H34380  -0.049   8.184   2.528  0.5353  0.6367 -0.3222
  255MOL0     H34381   0.023   8.430   2.542 -1.7184 -2.0800 -1.7393
  255MOL0     H34382   0.023   8.417   2.716  3.9864 -0.0328 -1.9300
  255MOL0     H34383  -0.193   8.361   2.505  1.8813 -3.8496  0.6909
  255MOL0     H34384  -0.186   8.514   2.607  1.7003 -0.2389 -1.7209
  255MOL0     H34385  -0.446   8.243   2.818  1.1654  2.1670  0.4241
  255MOL0     H34386  -0.754   8.173   2.775 -0.4718  1.1997 -0.0227
  255MOL0     H34387  -0.635   8.189   2.897  1.0006 -0.2524 -0.9446
  255MOL0     H34388  -0.766   8.311   2.898  0.7577 -0.2453  0.7675
  255MOL0     H34389  -1.020   8.668   2.605 -2.7255  1.4715  0.4148
  255MOL0     H34390  -1.224   8.748   2.487 -1.2702 -0.9295  0.6932
  255MOL0     H34391  -1.474   8.514   2.229 -0.5909  1.4914 -0.5800
  255MOL0     H34392  -1.415   8.506   2.390 -3.2774  0.1243  0.2530
  255MOL0     H34393  -1.643   8.623   2.390 -2.5677  1.3693 -3.1958
  255MOL0     H34394  -1.530   8.757   2.400  0.4444 -0.9282  1.0400
  255MOL0     H34395  -1.532   8.766   2.155  0.2085  0.1906  0.1070
  255MOL0     H34396  -1.692   8.801   2.225 -0.7674  0.7942 -4.9081
  255MOL0     H34397  -1.654   8.522   2.132  1.7549  0.4247 -2.7266
  255MOL0     H34398  -1.796   8.624   2.149 -0.7760 -1.5458 -0.7852
  255MOL0     H34399  -1.588   8.613   1.926 -0.8708  0.7381 -2.0640
  255MOL0     H34400  -1.669   8.765   1.955  1.2502 -0.4310  1.0364
  255MOL0     H34401  -1.818   8.492   1.930 -1.8020 -1.8357 -4.0649
  255MOL0     H34402  -1.880   8.655   1.883  0.1427  1.2533 -2.2908
  255MOL0     H34403  -1.644   8.512   1.737  0.6230  2.4283  2.3090
  255MOL0     H34404  -1.727   8.650   1.681  2.9038  0.2384  0.4308
  255MOL0     H34405  -1.840   8.366   1.717  0.3253 -0.5611 -1.0273
  255MOL0     H34406  -1.807   8.450   1.570 -3.0256 -0.8280 -1.3057
  255MOL0     H34407  -1.150   8.483   2.159  3.0776 -1.4911 -0.5798
  255MOL0     H34408  -0.918   8.430   2.277  1.8308  1.3133  3.1174
  255MOL0     H34409  -0.610   8.543   2.473  0.2858  0.6070  0.8424
  255MOL0     H34410  -0.391   8.543   2.518 -2.5093  1.0112 -0.3527
  255MOL0     H34411  -0.082   7.992   3.886 -0.2516  0.0407  0.8723
  255MOL0     H34412   0.094   7.966   4.030 -0.5943  0.0662  0.2547
  255MOL0     H34413   0.669   7.795   4.071 -0.9755  4.3258  0.9138
  255MOL0     H34414   0.796   7.698   4.270 -0.2326  1.6213 -0.4051
  255MOL0     H34415   0.895   7.623   4.464  0.8618  1.5537  1.3360
  255MOL0     H34416   0.780   7.748   4.511  0.1128 -0.1077 -2.8068
  255MOL0     H34417   0.840   7.506   4.690  2.1843 -0.0022  0.1781
  255MOL0     H34418   0.738   7.640   4.738 -0.0341  0.2488 -0.1757
  255MOL0     H34419   0.938   7.794   4.709 -1.3305  0.0760 -3.4114
  255MOL0     H34420   1.041   7.667   4.653  1.7557  1.8150  1.7653
  255MOL0     H34421   1.090   7.679   4.877  0.2365 -0.7602 -0.6132
  255MOL0     H34422   0.984   7.531   4.871  3.3888 -0.4262 -0.2286
  255MOL0     H34423   0.701   7.754   5.077  0.2808 -0.5416  1.1523
  255MOL0     H34424   0.401   7.572   4.413 -1.0369 -1.4624 -2.9851
  255MOL0     H34425   0.303   7.657   4.232 -0.1264  0.0239  2.2096
  256MOL0     O34426   3.140  10.944  11.036  0.4920 -0.0785 -0.6813
  256MOL0     C34427   3.047  11.003  10.988 -0.3745 -0.6146 -0.0358
  256MOL0     O34428   2.916  10.952  10.969 -0.0750 -0.3947 -0.8187
  256MOL0     C34429   2.880  10.821  11.002  1.0450  0.0976  0.4093
  256MOL0     C34430   2.967  10.710  11.012  0.0489  0.4159  0.2853
  256MOL0     C34431   2.919  10.584  11.036  0.2936  0.4282  0.5657
  256MOL0     C34432   2.789  10.564  11.078 -0.3039  0.4343 -0.3738
  256MOL0     O34433   2.755  10.434  11.113 -0.1223  0.3066  0.8302
  256MOL0     C34434   2.620  10.406  11.147 -0.3151  0.0721 -0.3440
  256MOL0     C34435   2.592  10.266  11.196 -0.2666  0.6500 -0.0547
  256MOL0     C34436   2.713  10.175  11.232  0.4976 -1.2558  0.4972
  256MOL0     C34437   2.676  10.035  11.301  0.5485 -0.2931 -0.2680
  256MOL0     C34438   2.624   9.945  11.194 -0.0011 -0.5895  0.0330
  256MOL0     C34439   2.548   9.827  11.247 -0.2282 -0.9051  0.1815
  256MOL0     C34440   2.415   9.865  11.317 -0.9432  0.0193 -0.1238
  256MOL0     C34441   2.317   9.748  11.321 -0.0805  0.3846  0.1585
  256MOL0     N34442   2.217   9.784  11.415 -0.4590  1.4015  0.3978
  256MOL0     C34443   2.144   9.904  11.413 -0.2136 -0.1987  0.0675
  256MOL0     C34444   2.070   9.893  11.531  0.0760  0.7573 -0.0979
  256MOL0     C34445   1.993  10.007  11.600 -0.0741 -0.5103 -0.0784
  256MOL0     C34446   1.836   9.985  11.608  0.3530  0.0335 -0.3154
  256MOL0     C34447   1.788   9.847  11.673  0.3807 -0.2124  0.8450
  256MOL0     C34448   1.633   9.834  11.665 -0.5597 -0.1919  0.4135
  256MOL0     O34449   1.610   9.688  11.676  0.4183 -0.0494 -0.2355
  256MOL0     C34450   1.484   9.643  11.715  0.4283  0.3172  0.8068
  256MOL0     C34451   1.367   9.719  11.711  1.5511 -0.5890  0.1952
  256MOL0     C34452   1.246   9.666  11.751  0.0418  0.2223 -0.7624
  256MOL0     C34453   1.127   9.763  11.759  0.1766 -0.5456 -0.0793
  256MOL0     C34454   1.241   9.536  11.800 -0.1284 -0.1159  1.0688
  256MOL0     C34455   1.117   9.469  11.845  0.7429  0.2420  0.3166
  256MOL0     O34456   0.994   9.520  11.802 -0.7138  0.9042  0.0151
  256MOL0     C34457   0.878   9.464  11.827 -0.8689 -0.1154 -0.2890
  256MOL0     C34458   0.835   9.329  11.800 -0.2848 -0.6490  0.1105
  256MOL0     C34459   0.706   9.291  11.823  0.0708 -0.0752 -0.2481
  256MOL0     C34460   0.605   9.379  11.850 -0.1739  0.8320  0.0734
  256MOL0     O34461   0.468   9.350  11.858 -0.0329 -0.2498 -0.3312
  256MOL0     C34462   0.440   9.240  11.943  0.0702  0.3847  0.5435
  256MOL0     C34463   0.288   9.233  11.971 -0.6868 -0.3522  0.1642
  256MOL0     C34464   0.209   9.183  11.851  0.4867 -0.4095 -0.3848
  256MOL0     C34465   0.057   9.173  11.899 -0.5491  0.0715 -0.0824
  256MOL0     C34466  -0.035   9.120  11.780 -1.4290 -0.2865 -0.8777
  256MOL0     C34467  -0.179   9.097  11.804  0.9798 -0.0366 -0.0347
  256MOL0     C34468  -0.249   9.216  11.875 -0.5151  0.1090  0.6812
  256MOL0     C34469  -0.394   9.184  11.903  0.1838 -0.2373 -0.7420
  256MOL0    Cl34470  -0.457   9.322  11.992 -0.1867  0.0003  0.2658
  256MOL0     C34471   0.646   9.512  11.882  0.6008 -0.3283  0.2678
  256MOL0     C34472   0.777   9.553  11.873 -0.0716 -0.3760  0.8005
  256MOL0     O34473   1.131   9.364  11.904 -0.3375 -0.3596  0.3187
  256MOL0     C34474   1.357   9.458  11.795 -1.2482 -0.3547  0.3677
  256MOL0     C34475   1.477   9.509  11.740 -0.0224  0.8259 -0.0168
  256MOL0     N34476   2.098   9.767  11.591 -0.2897  0.2129  0.0053
  256MOL0     N34477   2.191   9.703  11.524 -0.0933 -0.8560  0.1612
  256MOL0     C34478   2.703  10.680  11.077 -0.3188  0.2800 -0.7343
  256MOL0     C34479   2.748  10.800  11.038 -0.0887 -0.3106 -0.1549
  256MOL0     C34480   3.083  11.140  10.935  0.4198 -0.0293  0.0213
  256MOL0     C34481   2.981  11.223  10.897  0.7947 -0.2154 -0.6108
  256MOL0     C34482   3.017  11.365  10.871  0.5309 -0.0189 -0.9037
  256MOL0     C34483   3.143  11.410  10.887  0.9614  0.3761  0.1529
  256MOL0     O34484   3.162  11.547  10.878  0.2697  0.1413 -0.0228
  256MOL0     C34485   3.295  11.604  10.905 -0.2946  0.4136 -0.3704
  256MOL0     C34486   3.327  11.629  11.058 -0.4811  0.4458  0.4929
  256MOL0     C34487   3.483  11.646  11.075  1.0081 -0.0685 -0.2752
  256MOL0     C34488   3.530  11.678  11.220 -0.1967  0.3712  0.6282
  256MOL0     C34489   3.676  11.637  11.238 -0.9411 -0.8268 -0.7495
  256MOL0     C34490   3.796  11.627  11.261  0.5969 -1.0361  0.4435
  256MOL0     C34491   3.244  11.319  10.916 -0.0886  1.3723  0.3582
  256MOL0     C34492   3.215  11.181  10.931 -0.3038 -0.2781 -0.1250
  256MOL0     H34493   3.072  10.715  10.984  0.3462  0.8130  1.3880
  256MOL0     H34494   2.984  10.498  11.031 -1.9842 -1.3011 -2.3979
  256MOL0     H34495   2.604  10.473  11.232 -3.7822 -3.2560  1.9672
  256MOL0     H34496   2.548  10.430  11.069 -1.1876 -0.0132  0.4165
  256MOL0     H34497   2.524  10.271  11.282 -1.6930  2.8353 -1.2009
  256MOL0     H34498   2.539  10.211  11.117  1.9877 -0.2289 -1.0221
  256MOL0     H34499   2.766  10.160  11.137  0.1663 -0.1543  0.1251
  256MOL0     H34500   2.787  10.236  11.285  2.1380 -1.5263 -1.3503
  256MOL0     H34501   2.763   9.987  11.345 -0.7593 -2.0265  0.5415
  256MOL0     H34502   2.608  10.050  11.385  0.8476  0.5068 -0.1547
  256MOL0     H34503   2.563  10.005  11.126  2.3296 -0.0243 -1.6846
  256MOL0     H34504   2.710   9.908  11.137  0.6597 -1.6547  1.6361
  256MOL0     H34505   2.519   9.775  11.155 -1.3388 -0.1970  0.1160
  256MOL0     H34506   2.607   9.779  11.325  1.2928  0.3598 -0.1480
  256MOL0     H34507   2.451   9.886  11.418 -0.0206  1.3566 -0.7083
  256MOL0     H34508   2.372   9.957  11.276  0.3345  0.4827 -0.4983
  256MOL0     H34509   2.369   9.655  11.346  2.5572  1.5228 -0.7833
  256MOL0     H34510   2.263   9.732  11.228  0.7090  1.3707 -0.4892
  256MOL0     H34511   2.147   9.984  11.340  0.6892  1.4095  1.7660
  256MOL0     H34512   2.042  10.032  11.695  1.8207  0.6886 -1.3141
  256MOL0     H34513   2.008  10.100  11.545  2.4444 -0.1358  1.1195
  256MOL0     H34514   1.803   9.993  11.504 -0.6697  0.4466  0.0257
  256MOL0     H34515   1.798  10.067  11.670 -0.6220 -0.1642 -0.6367
  256MOL0     H34516   1.810   9.847  11.780 -0.0511 -0.2720  0.9346
  256MOL0     H34517   1.841   9.767  11.621 -0.2237  1.0210 -1.9047
  256MOL0     H34518   1.594   9.852  11.564  1.8124  0.9059 -0.3819
  256MOL0     H34519   1.588   9.887  11.749 -2.0341  0.4515 -0.7220
  256MOL0     H34520   1.363   9.826  11.692  2.7567 -0.1885  1.8470
  256MOL0     H34521   1.160   9.867  11.759 -0.3907 -0.3650  0.1283
  256MOL0     H34522   1.059   9.760  11.674 -1.4549 -3.0517  1.1743
  256MOL0     H34523   1.057   9.759  11.843 -0.3031  0.2954 -0.4327
  256MOL0     H34524   0.889   9.246  11.755 -3.5866 -2.4619 -0.8394
  256MOL0     H34525   0.680   9.191  11.790 -0.5400  0.7143 -2.3676
  256MOL0     H34526   0.474   9.146  11.898  1.1269  0.5436  0.9803
  256MOL0     H34527   0.490   9.253  12.039 -0.7087  0.2980  0.9753
  256MOL0     H34528   0.273   9.168  12.058  3.2719 -2.5522 -0.5328
  256MOL0     H34529   0.238   9.328  11.991 -2.3979 -1.4941  1.6357
  256MOL0     H34530   0.248   9.082  11.838  0.1242 -0.7136  0.7249
  256MOL0     H34531   0.216   9.242  11.759 -0.4035 -0.9032 -0.7820
  256MOL0     H34532   0.061   9.118  11.993  1.3012  0.9705  0.4328
  256MOL0     H34533   0.022   9.270  11.936 -4.1729 -0.5292 -1.5088
  256MOL0     H34534   0.009   9.030  11.736  2.6645  0.6394  0.8628
  256MOL0     H34535  -0.024   9.202  11.709  1.2275 -0.4144 -0.7162
  256MOL0     H34536  -0.222   9.080  11.705  1.3344 -1.3031  0.0092
  256MOL0     H34537  -0.189   9.005  11.862  0.3049  0.4383  0.6164
  256MOL0     H34538  -0.246   9.293  11.797 -0.2290  0.6266  1.1993
  256MOL0     H34539  -0.199   9.243  11.968  2.6758 -2.5475 -0.0888
  256MOL0     H34540  -0.402   9.085  11.948 -1.1498 -1.7849 -4.0787
  256MOL0     H34541  -0.441   9.167  11.806  0.7448 -3.3535 -0.5805
  256MOL0     H34542   0.561   9.579  11.894  0.3861  1.0790 -5.8805
  256MOL0     H34543   0.815   9.652  11.896  2.8793 -1.6466  1.8531
  256MOL0     H34544   1.350   9.350  11.805  2.2775 -0.7689 -0.2242
  256MOL0     H34545   1.561   9.442  11.724 -0.1435  0.7331 -0.2833
  256MOL0     H34546   2.604  10.687  11.122 -0.8225  0.9061 -1.8879
  256MOL0     H34547   2.677  10.881  11.030 -1.0757 -1.2745 -1.9352
  256MOL0     H34548   2.876  11.196  10.903 -0.3079  3.8399  0.9074
  256MOL0     H34549   2.929  11.425  10.849  1.6310  1.2561 -1.9677
  256MOL0     H34550   3.376  11.541  10.867  1.6359  3.0771 -0.9041
  256MOL0     H34551   3.305  11.700  10.855  0.8977  1.4330  1.7054
  256MOL0     H34552   3.304  11.541  11.120 -0.7870  0.3748  0.2779
  256MOL0     H34553   3.273  11.710  11.108  2.3485  0.5206  3.7640
  256MOL0     H34554   3.523  11.730  11.017  1.2741  0.0029  0.0034
  256MOL0     H34555   3.540  11.563  11.032 -1.3688 -2.5507  1.0651
  256MOL0     H34556   3.472  11.622  11.294 -2.2670  1.2482 -0.2620
  256MOL0     H34557   3.518  11.785  11.238 -2.2384  0.1075  1.0562
  256MOL0     H34558   3.903  11.629  11.269  0.5348 -0.7599  1.3291
  256MOL0     H34559   3.350  11.340  10.911  0.1745 -0.0813 -3.6034
  256MOL0     H34560   3.292  11.108  10.951  0.3135  0.7249  1.3517
  257MOL0     O34561   8.262   6.937   7.208 -0.5143  0.6204 -0.0342
  257MOL0     C34562   8.353   6.858   7.185  0.2913  0.3894 -0.2278
  257MOL0     O34563   8.346   6.727   7.161  0.1352  1.1108 -0.0264
  257MOL0     C34564   8.214   6.676   7.157  0.1455 -0.7532 -0.3466
  257MOL0     C34565   8.161   6.575   7.238 -0.3709  0.6211  0.7896
  257MOL0     C34566   8.033   6.528   7.216  0.4354 -0.1716  0.1756
  257MOL0     C34567   7.948   6.580   7.119  0.9066 -0.0197  0.3607
  257MOL0     O34568   7.820   6.530   7.098  0.8786  0.3056  0.0470
  257MOL0     C34569   7.812   6.408   7.024  0.0749  0.1239 -0.5377
  257MOL0     C34570   7.751   6.312   7.122 -0.9678  0.7275  0.2022
  257MOL0     C34571   7.606   6.335   7.140  0.3159 -0.9050 -0.0866
  257MOL0     C34572   7.545   6.221   7.214  0.8020 -0.1246  0.1235
  257MOL0     C34573   7.398   6.234   7.231  0.5536  0.3012 -0.7220
  257MOL0     C34574   7.352   6.109   7.316 -0.2801 -0.2467 -0.7241
  257MOL0     C34575   7.304   6.161   7.459 -0.8241 -0.3120  0.1302
  257MOL0     C34576   7.245   6.044   7.548 -0.9737 -0.4811 -0.2919
  257MOL0     N34577   7.110   6.002   7.511  0.6407 -0.3683  0.6846
  257MOL0     C34578   6.991   6.070   7.528 -0.3300  0.3610  0.1270
  257MOL0     C34579   6.889   5.997   7.484 -0.1891  0.7662 -0.5771
  257MOL0     C34580   6.735   6.027   7.470 -0.4155  1.0956 -0.2609
  257MOL0     C34581   6.662   5.989   7.592  0.5466 -0.5013  0.1632
  257MOL0     C34582   6.666   5.839   7.638  0.2643 -0.9330 -0.0764
  257MOL0     C34583   6.617   5.745   7.529  0.4700  0.5178  0.2762
  257MOL0     O34584   6.541   5.627   7.570 -0.0277 -0.0040 -1.1377
  257MOL0     C34585   6.415   5.644   7.621  0.6149 -0.2199 -0.5170
  257MOL0     C34586   6.344   5.532   7.670  0.1382  0.0531 -0.6426
  257MOL0     C34587   6.209   5.536   7.719  0.4699 -0.0170  0.1760
  257MOL0     C34588   6.136   5.410   7.764  0.0393  0.2974 -0.5654
  257MOL0     C34589   6.145   5.667   7.730 -0.8096  0.3562 -0.8549
  257MOL0     C34590   6.000   5.690   7.782  0.2002 -0.6418 -0.2285
  257MOL0     O34591   5.962   5.826   7.798 -0.5160 -0.0369 -0.2452
  257MOL0     C34592   5.831   5.858   7.814  0.6582 -0.0697 -0.4908
  257MOL0     C34593   5.796   5.922   7.933  0.0497 -0.1344  0.1238
  257MOL0     C34594   5.662   5.956   7.955 -0.7528  0.2668  0.7805
  257MOL0     C34595   5.562   5.926   7.867  0.1990  0.6361  1.0899
  257MOL0     O34596   5.435   5.950   7.903 -0.1620  0.5211  0.3444
  257MOL0     C34597   5.336   5.842   7.885 -0.0428  0.4179 -0.0911
  257MOL0     C34598   5.214   5.877   7.961  0.0604  0.1641 -0.5368
  257MOL0     C34599   5.235   5.872   8.119  0.0117  0.2161 -0.0219
  257MOL0     C34600   5.135   5.975   8.193  0.6803  0.3184 -0.3704
  257MOL0     C34601   4.994   5.921   8.226  0.9256  0.5602  0.0504
  257MOL0     C34602   4.900   5.928   8.104  0.5512 -0.1377  0.0125
  257MOL0     C34603   4.750   5.910   8.136  1.2241  0.0436  0.1434
  257MOL0     C34604   4.672   5.864   8.007  0.3925 -0.2875  1.0463
  257MOL0    Cl34605   4.649   5.689   8.006  0.1873  0.0167 -0.4200
  257MOL0     C34606   5.604   5.870   7.743  0.6298  1.0267 -0.7931
  257MOL0     C34607   5.734   5.833   7.715  0.2934  1.6381 -0.3563
  257MOL0     O34608   5.923   5.598   7.806  0.0516  0.5161  0.1728
  257MOL0     C34609   6.223   5.777   7.677 -0.5685  0.8020  0.6252
  257MOL0     C34610   6.347   5.760   7.620  0.6823  0.1125  0.2413
  257MOL0     N34611   6.952   5.886   7.430  0.0545  0.1846 -0.0228
  257MOL0     N34612   7.076   5.890   7.450 -0.9351  0.0736 -0.0626
  257MOL0     C34613   7.993   6.678   7.034  0.6011  0.8955  1.4315
  257MOL0     C34614   8.128   6.714   7.050 -0.4760 -0.7729 -0.0843
  257MOL0     C34615   8.490   6.904   7.172 -0.0788 -0.1139 -0.3076
  257MOL0     C34616   8.520   7.022   7.106  0.1188  0.0832 -0.7019
  257MOL0     C34617   8.650   7.067   7.095  0.7929 -0.4242  0.6701
  257MOL0     C34618   8.747   6.990   7.147 -0.7780 -0.4878 -0.2632
  257MOL0     O34619   8.883   7.017   7.143  0.1577  0.0663  0.5022
  257MOL0     C34620   8.953   6.975   7.023  0.5034  0.2957  0.1136
  257MOL0     C34621   9.026   6.836   7.019 -0.1687  0.0931 -0.2929
  257MOL0     C34622   9.124   6.798   7.131  0.2336  0.2160  0.0397
  257MOL0     C34623   9.220   6.695   7.069 -0.3375 -0.1625 -1.5364
  257MOL0     C34624   9.322   6.752   6.978  0.2000 -0.6493  0.1688
  257MOL0     C34625   9.401   6.822   6.913 -0.0741  0.7185  0.0491
  257MOL0     C34626   8.724   6.873   7.207 -0.6336 -0.8848 -0.1926
  257MOL0     C34627   8.594   6.826   7.222 -0.4207 -0.3610 -0.9613
  257MOL0     H34628   8.232   6.524   7.303  0.4352 -0.2731 -0.7274
  257MOL0     H34629   7.997   6.444   7.274  0.2561 -1.3923 -1.6236
  257MOL0     H34630   7.745   6.414   6.938  0.0612 -0.8248 -0.6053
  257MOL0     H34631   7.911   6.373   6.993  0.5346 -1.7217  2.6132
  257MOL0     H34632   7.761   6.213   7.078  1.0482  1.2757 -0.7272
  257MOL0     H34633   7.799   6.311   7.221  1.9614  0.7689 -1.0968
  257MOL0     H34634   7.593   6.428   7.196  1.8952 -0.4236 -0.4617
  257MOL0     H34635   7.552   6.353   7.046  2.6028 -2.2272 -1.7655
  257MOL0     H34636   7.557   6.127   7.158 -1.0835  0.1412 -0.8073
  257MOL0     H34637   7.599   6.214   7.308  3.2640 -3.3480 -1.3158
  257MOL0     H34638   7.376   6.333   7.271  2.2451  0.1138  0.7855
  257MOL0     H34639   7.345   6.226   7.135 -2.9440 -1.2131  1.1787
  257MOL0     H34640   7.276   6.055   7.257  0.7420 -0.5623 -1.7917
  257MOL0     H34641   7.431   6.034   7.328 -0.5946 -0.3185  1.1493
  257MOL0     H34642   7.393   6.208   7.501  0.0238  0.1107 -2.0254
  257MOL0     H34643   7.228   6.239   7.448 -0.5772 -0.2365 -1.1763
  257MOL0     H34644   7.236   6.092   7.646  0.2108  1.0708 -0.9079
  257MOL0     H34645   7.315   5.959   7.552 -1.3291 -0.7667 -0.0259
  257MOL0     H34646   6.982   6.157   7.593 -2.0320 -1.9111  3.2503
  257MOL0     H34647   6.720   6.132   7.441 -2.1590  0.4182 -1.9854
  257MOL0     H34648   6.691   5.985   7.380 -1.4662 -0.6967  1.0379
  257MOL0     H34649   6.564   6.021   7.559  1.2633  1.9443  0.2414
  257MOL0     H34650   6.701   6.047   7.677 -0.2405 -0.8123  0.7454
  257MOL0     H34651   6.599   5.828   7.724 -0.1665 -0.4686 -0.3533
  257MOL0     H34652   6.767   5.814   7.671  0.1420  0.3127  1.3275
  257MOL0     H34653   6.709   5.711   7.479  2.5030  2.3293  2.5383
  257MOL0     H34654   6.558   5.788   7.448 -2.7858 -1.7255  1.2352
  257MOL0     H34655   6.392   5.436   7.661  0.3330  0.0234  0.5669
  257MOL0     H34656   6.040   5.385   7.717 -0.3969 -0.3727  0.6348
  257MOL0     H34657   6.193   5.322   7.732 -1.0047 -0.2961 -0.8512
  257MOL0     H34658   6.133   5.407   7.873  0.6580 -0.3173 -0.5543
  257MOL0     H34659   5.861   5.944   8.018 -2.2693  1.9320  1.4732
  257MOL0     H34660   5.618   5.987   8.049 -1.0640 -1.2413  1.1618
  257MOL0     H34661   5.311   5.828   7.779  1.9933  1.1792 -0.7243
  257MOL0     H34662   5.354   5.744   7.928 -3.3559 -0.7650 -1.0453
  257MOL0     H34663   5.172   5.973   7.931 -3.1815 -1.5286 -1.8183
  257MOL0     H34664   5.136   5.810   7.925 -0.6095  1.4174 -1.5049
  257MOL0     H34665   5.339   5.901   8.137  1.8551 -3.8032 -2.8059
  257MOL0     H34666   5.225   5.772   8.162  0.8633  1.1235  2.4560
  257MOL0     H34667   5.172   6.009   8.290 -0.8993  1.5148 -0.1542
  257MOL0     H34668   5.127   6.069   8.139 -1.8955  1.6397  2.0892
  257MOL0     H34669   4.947   5.984   8.302  0.1317 -0.9642  0.8647
  257MOL0     H34670   4.993   5.820   8.267  3.5168  0.8464  1.0007
  257MOL0     H34671   4.915   6.016   8.041 -3.4149 -0.4330 -1.6412
  257MOL0     H34672   4.927   5.841   8.043  1.6198  2.0362 -2.8793
  257MOL0     H34673   4.705   5.999   8.182  0.7458 -0.8792  1.5261
  257MOL0     H34674   4.731   5.832   8.210 -2.1647  1.6901  1.2003
  257MOL0     H34675   4.739   5.893   7.925  2.3010 -0.1772  2.5682
  257MOL0     H34676   4.571   5.905   7.999  0.0924 -1.0823  0.7341
  257MOL0     H34677   5.534   5.871   7.661  0.6281  0.7108 -0.7956
  257MOL0     H34678   5.754   5.779   7.623  2.4022 -2.7305  2.3625
  257MOL0     H34679   6.181   5.877   7.673 -1.2510  0.4651 -2.5195
  257MOL0     H34680   6.395   5.850   7.583  0.4597  0.5741  1.0495
  257MOL0     H34681   7.931   6.715   6.953  1.5585  0.7896  0.6285
  257MOL0     H34682   8.174   6.786   6.983  3.0768 -1.2965  1.5674
  257MOL0     H34683   8.438   7.089   7.081  0.2886  0.5959  0.0517
  257MOL0     H34684   8.690   7.155   7.045  2.2512 -1.1662  0.4903
  257MOL0     H34685   8.889   6.998   6.937  1.8118  2.8448 -0.2749
  257MOL0     H34686   9.039   7.042   7.013  0.8772  0.4240  3.2683
  257MOL0     H34687   9.075   6.834   6.921  0.2779 -1.4184 -0.0665
  257MOL0     H34688   8.953   6.755   7.023 -1.1043  0.8843 -0.9218
  257MOL0     H34689   9.065   6.761   7.216 -0.8905  1.2103 -0.2869
  257MOL0     H34690   9.186   6.884   7.157  1.5826  0.7668 -4.2293
  257MOL0     H34691   9.167   6.612   7.021 -1.7666 -1.5088  2.0506
  257MOL0     H34692   9.270   6.654   7.157  0.1008  0.7766 -1.3433
  257MOL0     H34693   9.470   6.871   6.847  0.9799  0.4167  0.8875
  257MOL0     H34694   8.807   6.819   7.249 -0.8976 -1.3211 -0.2304
  257MOL0     H34695   8.575   6.728   7.266 -0.8850  1.0220  2.2158
  258MOL0     O34696   1.597   7.138   8.054 -0.4466 -0.2206 -0.2623
  258MOL0     C34697   1.638   7.065   7.967 -1.1307  0.2271  0.5041
  258MOL0     O34698   1.768   7.071   7.918  0.5227 -0.3111  0.2048
  258MOL0     C34699   1.844   6.959   7.890 -0.5526 -0.6639  0.5429
  258MOL0     C34700   1.816   6.819   7.899  0.2404 -0.2180  0.2832
  258MOL0     C34701   1.912   6.723   7.863 -0.0424  0.1332  0.3291
  258MOL0     C34702   2.034   6.767   7.808 -0.5359 -0.1801 -0.0351
  258MOL0     O34703   2.116   6.660   7.770 -0.8674  0.1811 -0.2082
  258MOL0     C34704   2.242   6.687   7.702 -0.4805 -0.2614 -0.6140
  258MOL0     C34705   2.269   6.582   7.593  0.2448  0.0942 -0.7567
  258MOL0     C34706   2.210   6.624   7.462 -0.1469  0.6694 -0.5431
  258MOL0     C34707   2.209   6.510   7.356  0.4353 -0.5447  0.3885
  258MOL0     C34708   2.352   6.465   7.315 -0.1722 -0.3893  0.1671
  258MOL0     C34709   2.364   6.327   7.247 -0.1827 -0.8954 -0.4339
  258MOL0     C34710   2.335   6.214   7.344 -0.0307  0.4701 -0.8483
  258MOL0     C34711   2.397   6.085   7.290  0.4534  0.7196 -0.5708
  258MOL0     N34712   2.390   5.977   7.383  0.2106  0.1303  0.8145
  258MOL0     C34713   2.300   5.872   7.391  0.4127  0.1029  0.4112
  258MOL0     C34714   2.351   5.787   7.482  0.3841 -0.0905 -0.0246
  258MOL0     C34715   2.294   5.654   7.513 -0.4781  0.4378 -1.2325
  258MOL0     C34716   2.191   5.656   7.624 -0.2682  0.0694 -0.2110
  258MOL0     C34717   2.143   5.506   7.654  0.0380 -0.3024  1.3108
  258MOL0     C34718   2.052   5.492   7.779 -0.7908 -0.3742  0.1347
  258MOL0     O34719   1.920   5.447   7.737 -0.4477 -0.2194  0.3043
  258MOL0     C34720   1.827   5.421   7.841 -0.5373 -0.2997  1.1574
  258MOL0     C34721   1.831   5.482   7.972  0.3204 -0.0284  0.2856
  258MOL0     C34722   1.714   5.465   8.060  0.1053  0.0937  0.2968
  258MOL0     C34723   1.714   5.550   8.186  0.4512  0.2385 -0.4702
  258MOL0     C34724   1.610   5.373   8.027  0.0601  0.5933  0.0470
  258MOL0     C34725   1.489   5.344   8.102  0.3406 -0.1476  0.3624
  258MOL0     O34726   1.424   5.233   8.061 -0.3665  0.3563 -0.1126
  258MOL0     C34727   1.281   5.223   8.072 -0.8435 -0.9393 -0.4943
  258MOL0     C34728   1.223   5.095   8.097  0.5431 -0.2511 -0.4342
  258MOL0     C34729   1.082   5.095   8.099 -0.2539 -0.1581  0.1479
  258MOL0     C34730   1.005   5.213   8.096 -0.9979  0.1744  0.7710
  258MOL0     O34731   0.870   5.229   8.099  0.6804 -0.8390  0.2850
  258MOL0     C34732   0.791   5.120   8.147 -0.0144  0.3525  0.4683
  258MOL0     C34733   0.645   5.149   8.104 -0.6794  0.2661 -0.4923
  258MOL0     C34734   0.577   5.012   8.073 -0.6143  0.7072  1.1840
  258MOL0     C34735   0.447   5.048   8.022  0.2459  0.1078 -0.4203
  258MOL0     C34736   0.346   4.931   7.987  0.7625 -0.3159  0.2878
  258MOL0     C34737   0.207   4.984   7.939 -0.5966  0.0108 -0.8797
  258MOL0     C34738   0.125   4.856   7.905  0.2436 -0.0922  0.4550
  258MOL0     C34739  -0.013   4.889   7.854  0.2239  0.0133 -0.6818
  258MOL0    Cl34740  -0.099   4.733   7.805 -0.5338  0.3055 -0.3780
  258MOL0     C34741   1.070   5.335   8.064  0.1573  0.1328 -0.3072
  258MOL0     C34742   1.209   5.340   8.052 -1.5146 -0.7817 -0.3699
  258MOL0     O34743   1.445   5.424   8.185 -0.8520  0.1652 -0.4444
  258MOL0     C34744   1.613   5.306   7.902 -0.9446  0.6410  0.1059
  258MOL0     C34745   1.716   5.335   7.811  0.1627  0.7472  0.0945
  258MOL0     N34746   2.469   5.846   7.530  0.3503  0.1289  0.3375
  258MOL0     N34747   2.483   5.966   7.475 -0.1172  0.4234 -0.2882
  258MOL0     C34748   2.069   6.906   7.803 -0.3179  0.4054 -0.5167
  258MOL0     C34749   1.973   6.996   7.849  0.5503 -0.5384  0.0560
  258MOL0     C34750   1.549   6.960   7.917 -0.2167  0.2543  0.4864
  258MOL0     C34751   1.540   6.933   7.786  0.0196 -0.7483 -0.2083
  258MOL0     C34752   1.484   6.816   7.741  0.1621 -0.0666  1.0916
  258MOL0     C34753   1.408   6.743   7.829 -0.0736  0.1583 -0.9996
  258MOL0     O34754   1.329   6.635   7.796  0.8806  0.3400 -0.1006
  258MOL0     C34755   1.382   6.552   7.694  0.6326 -0.8576 -0.1984
  258MOL0     C34756   1.315   6.418   7.680  0.0440  0.0325 -1.5282
  258MOL0     C34757   1.323   6.327   7.813 -0.2571 -0.9714  0.9774
  258MOL0     C34758   1.276   6.182   7.790 -0.3488 -0.1961  0.3828
  258MOL0     C34759   1.139   6.169   7.732 -0.1992  0.1209 -0.2979
  258MOL0     C34760   1.016   6.183   7.705  0.1747  0.6293 -0.0674
  258MOL0     C34761   1.385   6.788   7.962 -0.1415  0.6037 -0.2261
  258MOL0     C34762   1.475   6.889   8.010  0.5931  0.7702 -0.1608
  258MOL0     H34763   1.724   6.790   7.950  0.6737  2.1817  2.6562
  258MOL0     H34764   1.886   6.618   7.868 -2.4472  0.6556  0.0888
  258MOL0     H34765   2.245   6.780   7.644 -0.2434 -0.8291 -1.5278
  258MOL0     H34766   2.333   6.697   7.762 -0.4553  1.5578 -0.8854
  258MOL0     H34767   2.378   6.567   7.590  0.1285 -0.9200 -0.4437
  258MOL0     H34768   2.227   6.485   7.623  2.2913 -0.9429 -1.0676
  258MOL0     H34769   2.111   6.665   7.483  0.2699  0.7954  1.2734
  258MOL0     H34770   2.267   6.707   7.419  1.3142  0.1085  0.2333
  258MOL0     H34771   2.151   6.435   7.409 -0.5260 -0.1746 -0.1181
  258MOL0     H34772   2.142   6.531   7.272 -1.2041 -1.4359  1.4329
  258MOL0     H34773   2.401   6.543   7.257  1.9553 -1.7527 -0.0133
  258MOL0     H34774   2.412   6.450   7.405 -0.1678 -0.6273  0.1272
  258MOL0     H34775   2.301   6.308   7.160 -0.6643  0.5472 -0.4244
  258MOL0     H34776   2.472   6.319   7.228 -0.1104 -3.2075  0.5358
  258MOL0     H34777   2.379   6.232   7.442 -0.7561 -1.1743 -0.1773
  258MOL0     H34778   2.226   6.206   7.354 -0.2216  1.5645 -1.8625
  258MOL0     H34779   2.504   6.108   7.287  0.3300  1.2023 -1.4723
  258MOL0     H34780   2.353   6.068   7.192  0.4557  1.1936 -0.6570
  258MOL0     H34781   2.211   5.867   7.330  1.4141  0.7547 -1.1478
  258MOL0     H34782   2.244   5.599   7.433  0.6839 -0.1806 -1.5621
  258MOL0     H34783   2.375   5.592   7.552 -1.2840  0.3183  0.3253
  258MOL0     H34784   2.103   5.709   7.586 -0.6949 -1.0250 -0.7664
  258MOL0     H34785   2.220   5.700   7.720 -3.8261  0.9489  0.6132
  258MOL0     H34786   2.229   5.441   7.666 -0.3448 -0.6845  2.0790
  258MOL0     H34787   2.089   5.462   7.569  2.5369  0.2877 -0.7036
  258MOL0     H34788   2.048   5.585   7.836  1.2071  1.3105 -2.2762
  258MOL0     H34789   2.101   5.430   7.854 -0.9500 -1.1310 -0.3738
  258MOL0     H34790   1.904   5.554   8.007  1.2291 -0.7058 -0.1578
  258MOL0     H34791   1.623   5.610   8.190  1.4775  1.7869  0.7047
  258MOL0     H34792   1.731   5.480   8.269 -0.4968  0.2915 -0.2196
  258MOL0     H34793   1.794   5.623   8.200 -0.9050  1.5621  0.5585
  258MOL0     H34794   1.288   5.010   8.107  1.3121  0.2380 -1.1403
  258MOL0     H34795   1.029   5.000   8.105 -1.7677  0.6913  0.9239
  258MOL0     H34796   0.821   5.029   8.094 -1.5155 -0.4159  0.8738
  258MOL0     H34797   0.796   5.103   8.255 -1.0185  2.5132  0.8906
  258MOL0     H34798   0.597   5.198   8.189  2.0798  0.1903  1.2190
  258MOL0     H34799   0.642   5.222   8.023 -2.2086  1.0031  0.1981
  258MOL0     H34800   0.558   4.942   8.155 -1.4223 -3.0391 -1.8676
  258MOL0     H34801   0.631   4.952   7.999 -2.0960 -0.3635  0.9030
  258MOL0     H34802   0.401   5.118   8.092  0.3367 -1.0594  0.8507
  258MOL0     H34803   0.465   5.116   7.938  0.6064 -1.1870 -1.4093
  258MOL0     H34804   0.335   4.855   8.065 -0.2188 -1.8316 -1.2520
  258MOL0     H34805   0.391   4.878   7.902 -2.4178 -0.0658 -1.7345
  258MOL0     H34806   0.158   5.039   8.020 -1.2820 -0.1787 -1.1544
  258MOL0     H34807   0.213   5.051   7.852  5.1850 -0.2204 -1.0574
  258MOL0     H34808   0.120   4.801   7.999 -0.7129 -0.2307  0.3316
  258MOL0     H34809   0.177   4.800   7.827 -0.0214  0.8694 -0.4489
  258MOL0     H34810  -0.001   4.952   7.765 -1.8860 -0.0920 -1.0826
  258MOL0     H34811  -0.066   4.952   7.926 -0.2064 -3.0707  1.8938
  258MOL0     H34812   1.004   5.422   8.064 -3.6267 -2.5198 -0.2109
  258MOL0     H34813   1.252   5.438   8.036 -5.9625  1.7339  1.4009
  258MOL0     H34814   1.551   5.222   7.874 -0.0516  0.4631 -1.5048
  258MOL0     H34815   1.692   5.271   7.726 -3.3101 -1.4508  2.4237
  258MOL0     H34816   2.166   6.938   7.765  1.1271 -0.8843  1.7913
  258MOL0     H34817   1.997   7.101   7.854  1.5556 -0.8078  2.5358
  258MOL0     H34818   1.612   6.988   7.726 -1.8194  2.2332  0.1510
  258MOL0     H34819   1.502   6.780   7.641 -0.6795  0.2456  0.8226
  258MOL0     H34820   1.390   6.598   7.595 -0.1289  1.2375  0.6630
  258MOL0     H34821   1.490   6.547   7.716  0.9569  1.0209 -1.1267
  258MOL0     H34822   1.360   6.366   7.595 -0.2148  0.6610 -2.0562
  258MOL0     H34823   1.210   6.431   7.653 -0.4142  0.7301  0.4022
  258MOL0     H34824   1.262   6.380   7.886 -3.1304  0.0877 -1.9508
  258MOL0     H34825   1.426   6.316   7.847  0.3720 -1.5607 -1.0050
  258MOL0     H34826   1.283   6.125   7.883  1.0824 -0.6348  0.0270
  258MOL0     H34827   1.339   6.123   7.722 -4.2840 -1.1500 -2.8544
  258MOL0     H34828   0.910   6.186   7.687 -0.4275 -1.8810  2.4767
  258MOL0     H34829   1.321   6.724   8.023 -0.2521 -1.0277 -1.9749
  258MOL0     H34830   1.471   6.909   8.117 -0.8700 -1.3724  0.2490
  259MOL0     O34831   4.072   5.404   3.753  0.0647  0.4468 -0.6536
  259MOL0     C34832   4.115   5.488   3.827  0.5892  0.4552 -0.7970
  259MOL0     O34833   4.034   5.557   3.906  0.4540 -0.7573 -0.4974
  259MOL0     C34834   3.899   5.533   3.897 -0.3199  0.2398 -0.1890
  259MOL0     C34835   3.815   5.546   3.787 -0.2696  0.0717 -0.0300
  259MOL0     C34836   3.677   5.529   3.800  0.7111  0.3994 -0.1453
  259MOL0     C34837   3.628   5.494   3.921  0.0528 -0.5035  0.9002
  259MOL0     O34838   3.489   5.483   3.925 -0.2198  0.0339  0.0221
  259MOL0     C34839   3.431   5.512   4.053  0.1697 -0.1606 -0.0971
  259MOL0     C34840   3.376   5.382   4.116 -0.0185  0.1828 -0.4840
  259MOL0     C34841   3.238   5.348   4.075  0.3958  0.8727  0.3434
  259MOL0     C34842   3.220   5.193   4.080 -0.8223 -0.0391  0.2852
  259MOL0     C34843   3.242   5.139   4.227  0.3234 -0.0798  0.0878
  259MOL0     C34844   3.142   5.024   4.255  0.4084  0.3033 -0.1263
  259MOL0     C34845   3.105   4.922   4.143 -0.2742  0.0206  0.3490
  259MOL0     C34846   3.219   4.807   4.114  0.1811  0.1183  0.2503
  259MOL0     N34847   3.263   4.741   4.234 -0.4711  0.4688 -0.4534
  259MOL0     C34848   3.400   4.719   4.262  0.3172 -0.1355  1.0197
  259MOL0     C34849   3.391   4.669   4.382  0.6729  0.2416  0.0111
  259MOL0     C34850   3.503   4.605   4.456 -0.7918  0.0234 -0.1576
  259MOL0     C34851   3.523   4.456   4.431  0.2551 -0.5125 -0.2322
  259MOL0     C34852   3.606   4.390   4.539  0.7968 -0.1348  0.5479
  259MOL0     C34853   3.748   4.442   4.528  0.4380 -0.0486  0.9453
  259MOL0     O34854   3.815   4.386   4.641  0.6747 -0.4315  0.1015
  259MOL0     C34855   3.953   4.411   4.642  0.3696 -0.0091 -0.2040
  259MOL0     C34856   4.027   4.318   4.718 -0.0498 -0.1084 -0.3200
  259MOL0     C34857   4.166   4.324   4.730  0.9890 -0.1669 -0.2708
  259MOL0     C34858   4.243   4.228   4.811  0.5790  0.6992 -0.5044
  259MOL0     C34859   4.235   4.433   4.671 -0.5326 -0.1574  0.3697
  259MOL0     C34860   4.377   4.448   4.679 -0.4319 -0.0839  0.4194
  259MOL0     O34861   4.441   4.468   4.557  0.2654  0.7160 -0.0463
  259MOL0     C34862   4.572   4.515   4.563 -0.1654 -0.4581  0.6292
  259MOL0     C34863   4.604   4.612   4.473 -0.0338  0.6180 -0.1367
  259MOL0     C34864   4.733   4.672   4.458 -0.4305 -0.0296 -0.2259
  259MOL0     C34865   4.833   4.632   4.551 -0.0469 -0.1767  0.0832
  259MOL0     O34866   4.956   4.693   4.539  0.8527 -0.1368 -0.5597
  259MOL0     C34867   5.061   4.640   4.633  0.1927 -0.7097  0.0734
  259MOL0     C34868   5.193   4.719   4.605  0.6374  0.6820 -0.4553
  259MOL0     C34869   5.212   4.859   4.661  0.4935  0.2181 -0.9133
  259MOL0     C34870   5.192   4.861   4.814 -0.1454  0.3060  0.5701
  259MOL0     C34871   5.281   4.786   4.899  0.3170  0.3829  0.4141
  259MOL0     C34872   5.256   4.791   5.042 -0.1709 -0.6299 -0.0370
  259MOL0     C34873   5.373   4.711   5.109  0.1308 -0.1783  0.9197
  259MOL0     C34874   5.506   4.766   5.082 -0.9307  0.2395 -0.3838
  259MOL0    Cl34875   5.521   4.945   5.058  0.1340 -0.7271  0.1381
  259MOL0     C34876   4.799   4.542   4.647 -0.2492  0.1035  0.5012
  259MOL0     C34877   4.673   4.477   4.652 -0.2960  0.3106 -0.3819
  259MOL0     O34878   4.421   4.467   4.786  0.8019 -1.0517 -0.4613
  259MOL0     C34879   4.160   4.528   4.597  0.4616 -0.5446 -0.4734
  259MOL0     C34880   4.021   4.520   4.585  0.2430  0.1744  0.1798
  259MOL0     N34881   3.259   4.658   4.431 -0.2991  0.4058  0.3725
  259MOL0     N34882   3.187   4.713   4.339 -0.4018 -0.6595  0.3542
  259MOL0     C34883   3.708   5.461   4.024 -0.4041  0.5801 -0.3778
  259MOL0     C34884   3.847   5.493   4.019  0.3304  0.6711 -0.4378
  259MOL0     C34885   4.255   5.508   3.841 -0.0218  0.2339  0.5186
  259MOL0     C34886   4.347   5.403   3.824  0.7064 -0.3396 -0.1035
  259MOL0     C34887   4.480   5.433   3.801  0.3271 -0.5522 -0.4925
  259MOL0     C34888   4.533   5.563   3.829 -0.2246  0.3977 -0.6449
  259MOL0     O34889   4.664   5.602   3.818 -0.1008  0.2433  0.7031
  259MOL0     C34890   4.743   5.538   3.719 -0.1513 -0.1551  0.6160
  259MOL0     C34891   4.679   5.564   3.585  0.4209 -0.7960  0.2916
  259MOL0     C34892   4.792   5.522   3.482 -0.1172  0.0923 -0.0625
  259MOL0     C34893   4.808   5.370   3.488 -0.3272  0.1587  0.4028
  259MOL0     C34894   4.862   5.316   3.363 -0.3085  0.5502 -0.6764
  259MOL0     C34895   4.897   5.282   3.248  0.5217  1.1994 -0.9118
  259MOL0     C34896   4.438   5.661   3.868  0.3137 -0.1171 -0.7452
  259MOL0     C34897   4.299   5.629   3.883 -1.0601 -0.1312 -0.0697
  259MOL0     H34898   3.853   5.560   3.686 -1.5427 -4.6576 -1.4384
  259MOL0     H34899   3.609   5.558   3.720  1.9049  1.3151 -0.8504
  259MOL0     H34900   3.502   5.561   4.120 -0.4821 -0.7832  1.0909
  259MOL0     H34901   3.352   5.586   4.034  0.7374  0.4693 -0.0115
  259MOL0     H34902   3.454   5.307   4.102  0.7740  0.7201  0.8406
  259MOL0     H34903   3.380   5.391   4.225 -1.3596 -2.4753 -0.1487
  259MOL0     H34904   3.164   5.393   4.141 -0.3495  0.0771  0.0672
  259MOL0     H34905   3.224   5.372   3.969  0.2179  1.4205  0.4905
  259MOL0     H34906   3.124   5.167   4.033  0.8398 -0.5186 -3.1617
  259MOL0     H34907   3.294   5.142   4.018 -2.5977 -1.6530 -0.6247
  259MOL0     H34908   3.343   5.101   4.242 -0.5417 -3.9408 -2.5017
  259MOL0     H34909   3.218   5.221   4.295  1.0880 -0.1841  0.4967
  259MOL0     H34910   3.166   4.975   4.350 -0.2724 -0.5472 -0.3819
  259MOL0     H34911   3.048   5.077   4.276  0.7606  0.3556  1.4737
  259MOL0     H34912   3.015   4.864   4.168  1.2267 -2.3220  0.6429
  259MOL0     H34913   3.094   4.974   4.048  2.0620 -1.7317 -0.9858
  259MOL0     H34914   3.311   4.849   4.071  0.2146  1.1601  1.2680
  259MOL0     H34915   3.183   4.725   4.052 -0.0382 -0.7079  1.4335
  259MOL0     H34916   3.484   4.723   4.193 -1.4561 -0.2147 -1.2618
  259MOL0     H34917   3.593   4.660   4.427  0.2225 -0.2855  2.1989
  259MOL0     H34918   3.492   4.619   4.564 -3.1080  1.6750 -0.5196
  259MOL0     H34919   3.567   4.458   4.331  1.8286  1.4414  0.4402
  259MOL0     H34920   3.425   4.406   4.431 -0.7715  1.3708 -0.5006
  259MOL0     H34921   3.593   4.283   4.523  0.5537 -0.2795  1.6154
  259MOL0     H34922   3.567   4.412   4.639  1.3365  0.5908  0.6132
  259MOL0     H34923   3.751   4.551   4.542 -0.8772  0.3592 -1.4744
  259MOL0     H34924   3.787   4.420   4.429  0.0440 -1.8484  1.1583
  259MOL0     H34925   3.963   4.254   4.777  0.7393  0.5534  1.3141
  259MOL0     H34926   4.185   4.137   4.830 -1.2383  1.3297 -2.6385
  259MOL0     H34927   4.338   4.200   4.764  0.0898 -1.4615 -0.2875
  259MOL0     H34928   4.266   4.266   4.911 -3.7145  0.3503  0.8262
  259MOL0     H34929   4.516   4.658   4.428 -2.0099  0.0238  2.7846
  259MOL0     H34930   4.770   4.744   4.385  3.6806 -2.2496 -0.6331
  259MOL0     H34931   5.028   4.654   4.737  1.4966 -1.6794  0.6531
  259MOL0     H34932   5.084   4.535   4.616  2.7535 -0.2199  0.0818
  259MOL0     H34933   5.276   4.652   4.625  1.6915  0.7247 -3.9427
  259MOL0     H34934   5.183   4.731   4.496 -0.8672 -0.2565 -0.4473
  259MOL0     H34935   5.139   4.925   4.613  0.6273  0.5966 -0.6002
  259MOL0     H34936   5.313   4.896   4.642  1.7844 -2.9012 -0.7727
  259MOL0     H34937   5.207   4.964   4.848  0.5877  0.2694  0.3814
  259MOL0     H34938   5.088   4.833   4.834  0.0012 -0.8923 -0.2764
  259MOL0     H34939   5.382   4.817   4.873  0.8292 -0.1067  1.7324
  259MOL0     H34940   5.275   4.679   4.874 -0.9964 -0.0602  2.3831
  259MOL0     H34941   5.252   4.896   5.073 -1.3823  0.6775 -4.0166
  259MOL0     H34942   5.166   4.736   5.073 -0.8981  1.2951  1.5175
  259MOL0     H34943   5.369   4.606   5.078  1.3450  0.2134 -0.6452
  259MOL0     H34944   5.353   4.711   5.217  1.6133  0.9018  1.2270
  259MOL0     H34945   5.539   4.723   4.987 -0.0758 -0.2776  0.1346
  259MOL0     H34946   5.575   4.725   5.156  0.6131  3.0055 -0.1407
  259MOL0     H34947   4.871   4.501   4.718  0.4282 -0.8112 -0.6819
  259MOL0     H34948   4.648   4.392   4.714 -0.3249  0.0656 -0.7216
  259MOL0     H34949   4.215   4.612   4.556 -1.2485  0.3103 -1.1178
  259MOL0     H34950   3.968   4.594   4.526 -0.5747 -2.0671 -2.0873
  259MOL0     H34951   3.689   5.412   4.119  2.0132 -3.1025 -1.5917
  259MOL0     H34952   3.916   5.466   4.099 -1.9247 -0.2437  1.2832
  259MOL0     H34953   4.319   5.301   3.798  0.3054 -0.0978 -0.6390
  259MOL0     H34954   4.534   5.346   3.765 -2.8828 -2.1801 -1.8523
  259MOL0     H34955   4.844   5.580   3.722  0.3758 -1.4108  0.9533
  259MOL0     H34956   4.745   5.430   3.733 -3.3592 -0.8174 -2.3729
  259MOL0     H34957   4.643   5.667   3.587 -0.7473 -1.1860  0.1959
  259MOL0     H34958   4.587   5.507   3.568 -0.6126  1.0609 -0.6409
  259MOL0     H34959   4.885   5.577   3.499  0.5886 -0.7588 -1.0609
  259MOL0     H34960   4.761   5.553   3.382  2.8418 -0.9884 -1.4356
  259MOL0     H34961   4.708   5.327   3.499 -0.6711  0.1494 -2.2243
  259MOL0     H34962   4.871   5.340   3.573 -0.9121 -2.5365 -0.0033
  259MOL0     H34963   4.919   5.260   3.145  3.6516 -1.1394  0.0702
  259MOL0     H34964   4.465   5.765   3.884 -2.2966  1.2310 -3.8980
  259MOL0     H34965   4.235   5.713   3.908 -1.2960 -0.8419  1.8594
  260MOL0     O34966   4.535   7.504   5.778  0.1522  0.2368 -0.5656
  260MOL0     C34967   4.530   7.536   5.659 -0.8869 -0.7883  0.0416
  260MOL0     O34968   4.485   7.466   5.555  0.2169 -0.1323 -0.1624
  260MOL0     C34969   4.436   7.335   5.579  0.1799 -0.5134  0.2614
  260MOL0     C34970   4.515   7.248   5.652  0.4830 -0.4207  0.2162
  260MOL0     C34971   4.472   7.115   5.664 -1.2666 -0.6125  0.1916
  260MOL0     C34972   4.348   7.072   5.619 -1.3376  0.7857  0.1579
  260MOL0     O34973   4.319   6.944   5.646  0.7418  0.1133 -0.2752
  260MOL0     C34974   4.181   6.912   5.659 -0.4437 -0.3916  0.3306
  260MOL0     C34975   4.138   6.977   5.797 -0.1235  0.0898  0.7105
  260MOL0     C34976   4.114   6.866   5.901  0.0319 -0.2739 -0.4911
  260MOL0     C34977   3.993   6.788   5.884 -0.2820 -0.0268  0.1266
  260MOL0     C34978   3.993   6.690   6.000  0.5574 -0.0499 -0.1943
  260MOL0     C34979   3.869   6.603   6.024  0.3296  0.1756 -0.1595
  260MOL0     C34980   3.860   6.479   5.938  0.7651 -0.6388  0.2024
  260MOL0     C34981   3.715   6.420   5.936 -0.5095 -0.7563  0.2324
  260MOL0     N34982   3.707   6.317   5.842 -0.1935  0.7758  0.4791
  260MOL0     C34983   3.661   6.339   5.718  0.5682  0.8425 -0.2197
  260MOL0     C34984   3.665   6.214   5.660 -0.5257  0.2210 -0.6211
  260MOL0     C34985   3.619   6.183   5.515 -0.7847  0.6508 -0.9398
  260MOL0     C34986   3.486   6.115   5.512  0.2028  0.0543 -0.7375
  260MOL0     C34987   3.367   6.191   5.572 -0.5343 -0.2123  0.1502
  260MOL0     C34988   3.241   6.119   5.546 -0.1119  0.2630 -0.1455
  260MOL0     O34989   3.246   5.996   5.620  0.3078  0.4813 -0.0068
  260MOL0     C34990   3.135   5.933   5.639 -0.1759  0.4660 -0.1862
  260MOL0     C34991   3.147   5.829   5.727  0.5143  0.1338  0.1466
  260MOL0     C34992   3.034   5.741   5.756  0.3328 -0.0261  1.0309
  260MOL0     C34993   3.044   5.642   5.857  0.3749  0.2359 -0.4289
  260MOL0     C34994   2.908   5.763   5.682 -0.5965  0.6461  0.3304
  260MOL0     C34995   2.783   5.686   5.697  0.0737 -1.0530  0.4906
  260MOL0     O34996   2.657   5.748   5.676 -0.1819 -0.5622 -0.5728
  260MOL0     C34997   2.542   5.689   5.719 -0.7136 -0.5652  0.4405
  260MOL0     C34998   2.428   5.702   5.631 -0.2682 -0.9018  0.4838
  260MOL0     C34999   2.305   5.646   5.658 -0.0192  0.8764 -0.6494
  260MOL0     C35000   2.281   5.580   5.785 -0.9850  0.2864  0.3912
  260MOL0     O35001   2.169   5.519   5.828  0.3785 -0.4534 -0.9471
  260MOL0     C35002   2.058   5.507   5.742  0.5940  0.2347  0.5533
  260MOL0     C35003   1.940   5.593   5.789  0.0156 -0.3094  0.0635
  260MOL0     C35004   1.898   5.556   5.933 -0.2646 -0.9171 -1.5010
  260MOL0     C35005   1.789   5.657   5.989 -0.6378 -0.3081 -0.3116
  260MOL0     C35006   1.661   5.667   5.909  0.0358  0.5433 -0.4466
  260MOL0     C35007   1.554   5.735   5.991 -0.0467  0.4515  1.0823
  260MOL0     C35008   1.419   5.713   5.921 -0.3541  0.2544 -0.4985
  260MOL0     C35009   1.317   5.803   5.980  0.2559  0.7688 -0.9447
  260MOL0    Cl35010   1.168   5.818   5.875 -0.2107 -0.0086 -0.2998
  260MOL0     C35011   2.387   5.579   5.871  0.4295 -0.0318 -0.3237
  260MOL0     C35012   2.511   5.634   5.842  0.9690  0.0600  0.9641
  260MOL0     O35013   2.790   5.563   5.730 -0.1209  0.6374 -0.1482
  260MOL0     C35014   2.907   5.868   5.600 -0.0251 -0.2614 -0.3007
  260MOL0     C35015   3.012   5.959   5.580 -0.1827 -0.5425  0.2163
  260MOL0     N35016   3.710   6.130   5.761  0.3064  0.3644  0.0713
  260MOL0     N35017   3.728   6.187   5.863  0.6915 -0.8015 -0.2492
  260MOL0     C35018   4.266   7.164   5.556 -0.7480 -0.1356  0.0128
  260MOL0     C35019   4.314   7.296   5.531  0.5112  0.7567 -0.4027
  260MOL0     C35020   4.599   7.661   5.634 -0.2355  0.0185 -0.1632
  260MOL0     C35021   4.563   7.722   5.513  0.8995 -0.2502  0.2876
  260MOL0     C35022   4.609   7.857   5.477 -0.8747 -0.9283  0.3030
  260MOL0     C35023   4.686   7.920   5.569 -0.4768 -0.9405 -1.2171
  260MOL0     O35024   4.739   8.042   5.526  0.3577 -0.0704  0.3948
  260MOL0     C35025   4.812   8.128   5.612 -0.6198  1.0617 -0.0877
  260MOL0     C35026   4.855   8.258   5.546 -0.2481 -0.6408 -0.3165
  260MOL0     C35027   4.975   8.228   5.449 -1.1979 -0.4225 -1.3619
  260MOL0     C35028   4.946   8.198   5.305 -0.6130  0.8745  0.5500
  260MOL0     C35029   4.854   8.293   5.248 -0.3920  0.2040 -0.5535
  260MOL0     C35030   4.775   8.369   5.211  0.2184 -0.1223  0.2403
  260MOL0     C35031   4.733   7.847   5.687  0.5224 -0.8119 -0.3599
  260MOL0     C35032   4.688   7.718   5.719 -0.2880 -1.2805  0.0944
  260MOL0     H35033   4.613   7.274   5.693 -1.2594  1.7355  3.4409
  260MOL0     H35034   4.535   7.039   5.710  0.6017 -0.4638 -1.9475
  260MOL0     H35035   4.133   6.969   5.580  1.7461  3.6770  1.6431
  260MOL0     H35036   4.165   6.804   5.648  1.1606 -0.6890  0.5583
  260MOL0     H35037   4.218   7.044   5.827  1.1529 -1.7295  1.5770
  260MOL0     H35038   4.056   7.048   5.795  0.1023  0.3531 -0.8848
  260MOL0     H35039   4.207   6.808   5.901  0.9969  1.1042  1.7574
  260MOL0     H35040   4.112   6.909   6.002 -2.5629 -2.9640  0.7501
  260MOL0     H35041   3.914   6.863   5.895  2.0268  2.6270 -0.3534
  260MOL0     H35042   3.997   6.742   5.785  1.8006  2.9429 -1.2976
  260MOL0     H35043   4.079   6.625   5.983  0.8273  0.8865 -2.7721
  260MOL0     H35044   4.012   6.750   6.090 -1.0022  0.7357 -0.3467
  260MOL0     H35045   3.862   6.563   6.125  0.6191 -0.8110 -0.5162
  260MOL0     H35046   3.786   6.671   6.002 -0.6075 -0.7573  0.4157
  260MOL0     H35047   3.894   6.500   5.836  0.6938  1.0488  0.4892
  260MOL0     H35048   3.913   6.396   5.987 -1.4834 -1.8281  0.7343
  260MOL0     H35049   3.649   6.503   5.908  1.9399  1.0963 -0.3165
  260MOL0     H35050   3.686   6.394   6.039 -3.9004  0.1966 -0.3243
  260MOL0     H35051   3.628   6.433   5.675 -0.7630 -0.6573 -2.7224
  260MOL0     H35052   3.632   6.276   5.460  0.5813  0.5457 -0.8333
  260MOL0     H35053   3.698   6.113   5.484  0.1566 -0.2872  3.0431
  260MOL0     H35054   3.501   6.014   5.552 -1.1376 -0.8613 -2.3975
  260MOL0     H35055   3.464   6.101   5.406  2.8521  2.5980 -1.7448
  260MOL0     H35056   3.362   6.293   5.534 -1.9182 -1.0333 -2.0718
  260MOL0     H35057   3.388   6.198   5.679  1.1853  2.0375 -0.2470
  260MOL0     H35058   3.230   6.106   5.438 -0.4926 -1.2856  0.0506
  260MOL0     H35059   3.157   6.178   5.583 -1.2084 -1.2312 -0.1736
  260MOL0     H35060   3.243   5.825   5.777  0.8466 -0.2502 -0.4996
  260MOL0     H35061   2.987   5.669   5.946  1.4792  3.2920 -0.5374
  260MOL0     H35062   3.018   5.545   5.813  0.2669 -0.8331  1.8129
  260MOL0     H35063   3.151   5.643   5.882  0.3196 -1.2543 -0.0081
  260MOL0     H35064   2.442   5.763   5.543  0.3197  0.9483  1.8052
  260MOL0     H35065   2.227   5.662   5.584 -1.2072 -2.3045 -0.2347
  260MOL0     H35066   2.084   5.522   5.637  2.0086  1.2631  1.0169
  260MOL0     H35067   2.019   5.405   5.747  3.5232 -1.1386 -1.4695
  260MOL0     H35068   1.965   5.699   5.775 -2.0523  0.2563  0.4112
  260MOL0     H35069   1.856   5.567   5.724  1.1843  0.9549 -2.0899
  260MOL0     H35070   1.982   5.584   5.998 -1.3550 -0.0775 -0.3999
  260MOL0     H35071   1.876   5.450   5.950  0.1565 -0.5781  1.9958
  260MOL0     H35072   1.776   5.635   6.095  0.6723  0.2531 -0.0076
  260MOL0     H35073   1.825   5.761   5.994 -2.7919  0.4512  0.3517
  260MOL0     H35074   1.624   5.566   5.886 -1.0899  1.0587 -0.9928
  260MOL0     H35075   1.677   5.707   5.808  1.3631 -2.1304 -1.4017
  260MOL0     H35076   1.540   5.694   6.092 -0.1871 -0.2745  0.7756
  260MOL0     H35077   1.575   5.842   5.991 -2.1282  1.0189 -2.1421
  260MOL0     H35078   1.401   5.610   5.957  3.0930 -1.0295 -2.0352
  260MOL0     H35079   1.426   5.721   5.813 -0.0332  1.8154 -0.3874
  260MOL0     H35080   1.365   5.900   5.996  1.9865 -0.1077 -0.5920
  260MOL0     H35081   1.273   5.769   6.074 -0.1001  0.2361 -1.2985
  260MOL0     H35082   2.374   5.535   5.969 -0.7220  0.5874 -0.1821
  260MOL0     H35083   2.580   5.623   5.924 -1.1918  1.4661  3.1036
  260MOL0     H35084   2.826   5.882   5.529  1.3705 -1.7572 -2.2945
  260MOL0     H35085   2.995   6.036   5.504  3.2193  0.0609 -0.0956
  260MOL0     H35086   4.168   7.145   5.516 -0.9813 -1.8630  1.2757
  260MOL0     H35087   4.249   7.360   5.472 -1.7983 -2.1036 -1.1456
  260MOL0     H35088   4.492   7.694   5.436  0.6768  1.8791 -0.3601
  260MOL0     H35089   4.586   7.902   5.382 -2.0396  0.0828  1.0312
  260MOL0     H35090   4.750   8.157   5.696  0.9576  2.6858  0.5843
  260MOL0     H35091   4.899   8.070   5.647 -1.4912  1.3426  2.7564
  260MOL0     H35092   4.889   8.326   5.624  1.8356  0.8244 -2.3314
  260MOL0     H35093   4.769   8.309   5.502  0.7870  1.7156  0.2454
  260MOL0     H35094   5.039   8.148   5.487  1.6762  2.3405  0.1999
  260MOL0     H35095   5.041   8.316   5.449 -0.0693 -1.2018  0.4998
  260MOL0     H35096   4.905   8.097   5.292  0.0995  0.7092 -0.5801
  260MOL0     H35097   5.038   8.199   5.246 -1.2757  0.5616 -0.5226
  260MOL0     H35098   4.695   8.439   5.199 -1.7406 -1.6231  3.2943
  260MOL0     H35099   4.818   7.885   5.742  1.2807  0.5848 -2.3989
  260MOL0     H35100   4.719   7.669   5.811  0.9752  1.5426  1.2899
  261MOL0     O35101   1.210  10.455   4.194  0.2813 -0.4679  0.2284
  261MOL0     C35102   1.160  10.402   4.099  0.2203  1.5577 -0.5027
  261MOL0     O35103   1.024  10.375   4.078  0.5121  0.1488  0.1685
  261MOL0     C35104   0.928  10.400   4.177  0.2468 -0.7140  0.2854
  261MOL0     C35105   0.936  10.485   4.292 -0.9304 -0.0293 -0.5781
  261MOL0     C35106   0.821  10.492   4.374  0.0878  0.0672  0.4725
  261MOL0     C35107   0.694  10.435   4.344 -0.8260  1.2117  0.1580
  261MOL0     O35108   0.596  10.461   4.437  0.5157 -0.2008 -0.4316
  261MOL0     C35109   0.468  10.406   4.409 -0.4083  0.5634 -0.5101
  261MOL0     C35110   0.378  10.405   4.528  0.0494  0.2679  0.1808
  261MOL0     C35111   0.362  10.540   4.594  0.5525  0.2487  1.0972
  261MOL0     C35112   0.291  10.517   4.728 -0.3452 -0.6260 -0.2281
  261MOL0     C35113   0.397  10.456   4.825  0.6145 -0.0375  0.3658
  261MOL0     C35114   0.330  10.456   4.969 -0.3143  0.0423  0.6279
  261MOL0     C35115   0.208  10.359   4.997 -0.6643  0.4206  0.5299
  261MOL0     C35116   0.077  10.438   5.031 -0.1054  0.8149 -0.3755
  261MOL0     N35117  -0.014  10.330   5.089  0.2056 -0.7823 -0.1686
  261MOL0     C35118  -0.087  10.330   5.206 -1.1978 -0.7345 -0.1538
  261MOL0     C35119  -0.179  10.230   5.196 -0.0574 -0.4045  0.4151
  261MOL0     C35120  -0.295  10.190   5.282  0.6514  0.0276 -0.7046
  261MOL0     C35121  -0.435  10.249   5.251 -0.0181  0.5728 -0.4309
  261MOL0     C35122  -0.507  10.300   5.373 -0.5088  0.0258  0.5331
  261MOL0     C35123  -0.635  10.378   5.334 -0.3390 -0.7584 -1.0575
  261MOL0     O35124  -0.681  10.442   5.461  0.7434 -0.3809  0.4740
  261MOL0     C35125  -0.810  10.484   5.463  0.3371  0.3005 -0.3888
  261MOL0     C35126  -0.900  10.498   5.360 -0.0198  0.0376 -0.1187
  261MOL0     C35127  -1.037  10.514   5.373 -0.4415  0.2325 -0.2127
  261MOL0     C35128  -1.118  10.527   5.244  0.6775 -0.6358 -0.5078
  261MOL0     C35129  -1.080  10.543   5.501 -0.0012 -0.0250  0.6672
  261MOL0     C35130  -1.224  10.576   5.540  0.1230  0.2546 -0.3525
  261MOL0     O35131  -1.253  10.648   5.657 -0.5072  0.3632 -0.0440
  261MOL0     C35132  -1.374  10.647   5.718 -0.1535  0.6933  0.6777
  261MOL0     C35133  -1.420  10.547   5.802  0.2697 -1.1401  0.8170
  261MOL0     C35134  -1.546  10.557   5.862  0.5603  0.7315  0.0742
  261MOL0     C35135  -1.636  10.667   5.839  0.4273  0.0722  0.4744
  261MOL0     O35136  -1.761  10.679   5.904  0.2241 -0.0616  1.0944
  261MOL0     C35137  -1.876  10.601   5.872  0.1241  0.6385 -0.1566
  261MOL0     C35138  -1.914  10.623   5.722 -0.0819 -0.1173  0.2412
  261MOL0     C35139  -1.979  10.769   5.700 -0.1000 -0.0484  0.4439
  261MOL0     C35140  -2.121  10.782   5.757 -0.1595 -0.5570  0.8579
  261MOL0     C35141  -2.210  10.897   5.704  0.0654 -0.0632  1.0377
  261MOL0     C35142  -2.359  10.899   5.708  0.8877 -0.6936  0.8731
  261MOL0     C35143  -2.416  11.019   5.626  0.4088 -0.0253  0.0977
  261MOL0     C35144  -2.515  11.095   5.702  0.0620 -0.7197 -0.3560
  261MOL0    Cl35145  -2.575  11.237   5.608  0.2524  0.0746  0.1128
  261MOL0     C35146  -1.589  10.768   5.751  0.3032  0.2889  0.1222
  261MOL0     C35147  -1.462  10.756   5.692 -0.6738 -0.0142 -0.2186
  261MOL0     O35148  -1.308  10.533   5.466  0.8812  0.9807 -0.1957
  261MOL0     C35149  -0.993  10.530   5.615 -0.4682 -0.0773  0.2622
  261MOL0     C35150  -0.860  10.506   5.593 -0.1163 -0.3475 -0.4168
  261MOL0     N35151  -0.154  10.161   5.075  0.0010 -0.0127 -0.6178
  261MOL0     N35152  -0.054  10.218   5.020 -0.3221  0.2164  0.3926
  261MOL0     C35153   0.687  10.350   4.228  0.2302  0.5342 -0.8642
  261MOL0     C35154   0.805  10.347   4.147 -0.5237  0.2360 -0.0010
  261MOL0     C35155   1.253  10.369   3.979 -0.0429  0.3800 -0.0555
  261MOL0     C35156   1.397  10.379   3.982 -0.0881 -0.1619 -0.8377
  261MOL0     C35157   1.477  10.358   3.874  0.2413 -0.0252 -0.0939
  261MOL0     C35158   1.417  10.329   3.757 -0.2243  0.5833  0.8860
  261MOL0     O35159   1.506  10.319   3.650  0.8250  0.0285  0.4663
  261MOL0     C35160   1.469  10.410   3.545  0.5845 -0.4521 -0.1273
  261MOL0     C35161   1.606  10.492   3.528  0.3889  0.4750  0.2061
  261MOL0     C35162   1.599  10.597   3.421  0.3210 -0.5407  0.2972
  261MOL0     C35163   1.693  10.721   3.454 -0.4571  0.4319  0.2084
  261MOL0     C35164   1.658  10.840   3.374  0.7175 -0.2643 -0.5821
  261MOL0     C35165   1.640  10.947   3.318 -0.8290  0.3882  0.3894
  261MOL0     C35166   1.285  10.291   3.749 -0.3831 -0.0385  0.0446
  261MOL0     C35167   1.202  10.317   3.857  0.1169 -0.2342 -0.4347
  261MOL0     H35168   1.032  10.517   4.329 -0.9633 -0.9936  0.4093
  261MOL0     H35169   0.828  10.540   4.471  0.1779 -0.4394  0.7208
  261MOL0     H35170   0.425  10.474   4.335 -1.0503 -0.0504 -0.7136
  261MOL0     H35171   0.479  10.307   4.365 -0.5363 -0.7859  2.2675
  261MOL0     H35172   0.284  10.357   4.498 -0.6833  1.3057  0.7437
  261MOL0     H35173   0.415  10.324   4.592 -0.8782 -0.1703  0.1799
  261MOL0     H35174   0.454  10.598   4.606  0.0535  0.9013  1.9274
  261MOL0     H35175   0.297  10.603   4.532  0.2322  0.1114  1.2937
  261MOL0     H35176   0.262  10.607   4.783  1.7985 -1.2880  2.1901
  261MOL0     H35177   0.206  10.450   4.716 -0.8419  0.4029 -3.5594
  261MOL0     H35178   0.408  10.349   4.804 -0.0925 -0.1814  0.7066
  261MOL0     H35179   0.494  10.506   4.826  1.1048 -0.9283 -0.4443
  261MOL0     H35180   0.406  10.429   5.044 -0.0523 -1.0698 -0.0110
  261MOL0     H35181   0.293  10.553   5.003 -0.2132 -0.4591  2.2462
  261MOL0     H35182   0.185  10.287   4.918 -3.4335  0.9666  0.7287
  261MOL0     H35183   0.244  10.306   5.085  0.4460 -1.9082 -1.2329
  261MOL0     H35184   0.033  10.473   4.937 -1.7058 -2.8442 -1.1823
  261MOL0     H35185   0.096  10.522   5.099 -1.2107 -1.2573  2.7330
  261MOL0     H35186  -0.078  10.399   5.289  0.4833 -0.4010 -0.5705
  261MOL0     H35187  -0.310  10.081   5.279 -3.5262  0.1775  2.9542
  261MOL0     H35188  -0.270  10.226   5.382  1.2414  0.2998 -0.9459
  261MOL0     H35189  -0.489  10.169   5.199 -0.8247  1.0255 -0.3084
  261MOL0     H35190  -0.418  10.335   5.187 -0.9516  0.0753 -1.3814
  261MOL0     H35191  -0.444  10.366   5.433  0.8374 -1.8953  1.3482
  261MOL0     H35192  -0.525  10.214   5.439 -3.5574  0.0362 -0.1116
  261MOL0     H35193  -0.708  10.315   5.282  0.1886  1.1974 -4.4445
  261MOL0     H35194  -0.610  10.458   5.264 -0.8698  0.8641  0.5218
  261MOL0     H35195  -0.855  10.487   5.262  1.8592 -1.8762  0.8640
  261MOL0     H35196  -1.173  10.434   5.236  2.5179 -2.0527  1.8689
  261MOL0     H35197  -1.180  10.617   5.245  1.9677  0.3268 -2.0041
  261MOL0     H35198  -1.049  10.550   5.162 -1.1057  1.4133 -1.5534
  261MOL0     H35199  -1.361  10.457   5.820 -2.1029 -2.8204  0.7003
  261MOL0     H35200  -1.582  10.486   5.936 -0.6701  1.8426  0.5856
  261MOL0     H35201  -1.862  10.496   5.899 -0.1377  0.8346  0.7830
  261MOL0     H35202  -1.960  10.626   5.937  1.0618  3.0125  0.2672
  261MOL0     H35203  -1.834  10.602   5.651  1.4718  0.0829  1.8791
  261MOL0     H35204  -1.993  10.549   5.704  0.3185 -0.6080  0.4957
  261MOL0     H35205  -1.976  10.787   5.592  0.8718  0.6232  0.5663
  261MOL0     H35206  -1.915  10.850   5.737  0.7326 -1.5548  2.5056
  261MOL0     H35207  -2.179  10.691   5.736 -1.2415  0.2187  0.4400
  261MOL0     H35208  -2.107  10.794   5.865  0.6735  0.8504  0.6110
  261MOL0     H35209  -2.175  10.921   5.603  2.1879  0.8265  1.9348
  261MOL0     H35210  -2.166  10.980   5.759  0.1522 -1.6775  3.5276
  261MOL0     H35211  -2.401  10.814   5.654 -2.0656  1.0149  0.2982
  261MOL0     H35212  -2.398  10.901   5.810  1.5960  2.1644  1.1757
  261MOL0     H35213  -2.462  10.979   5.536  1.3914 -0.9180 -0.0316
  261MOL0     H35214  -2.329  11.081   5.603  1.0565 -0.1304  2.0408
  261MOL0     H35215  -2.471  11.130   5.796  1.8598  1.6316 -1.9452
  261MOL0     H35216  -2.596  11.027   5.729 -0.6739  1.0214  2.1972
  261MOL0     H35217  -1.642  10.861   5.731  0.1021  0.8978  3.0533
  261MOL0     H35218  -1.418  10.833   5.630  2.3530 -3.8719 -3.3892
  261MOL0     H35219  -1.018  10.535   5.721  3.5049  1.9415  1.3115
  261MOL0     H35220  -0.791  10.494   5.676 -0.4016  0.8203  0.0057
  261MOL0     H35221   0.605  10.289   4.191  0.1224 -0.6432  1.1439
  261MOL0     H35222   0.793  10.285   4.059  0.2477 -1.4271  1.0100
  261MOL0     H35223   1.442  10.421   4.071 -0.1971 -0.1165 -0.8035
  261MOL0     H35224   1.585  10.374   3.880  0.0645  1.1754  0.1029
  261MOL0     H35225   1.457  10.350   3.454 -0.5064  1.0576 -1.0171
  261MOL0     H35226   1.379  10.468   3.568  1.4160  0.9924 -0.3851
  261MOL0     H35227   1.699  10.441   3.504  1.8497  2.2718  1.7339
  261MOL0     H35228   1.615  10.540   3.626 -3.7022  0.1697  0.9088
  261MOL0     H35229   1.498  10.637   3.421  0.7952  0.8586 -1.6838
  261MOL0     H35230   1.607  10.556   3.320 -2.4696  0.0269 -0.2281
  261MOL0     H35231   1.798  10.704   3.431 -0.7510  0.0129 -0.8944
  261MOL0     H35232   1.687  10.743   3.561  0.3326  0.9807  0.1482
  261MOL0     H35233   1.625  11.046   3.281 -2.5571  0.2232  0.5879
  261MOL0     H35234   1.241  10.252   3.658 -0.2088 -0.7837  0.2763
  261MOL0     H35235   1.095  10.302   3.846  0.1382 -0.4899 -0.2928
  262MOL0     O35236  10.591   8.186   9.301 -0.4977  1.1895 -0.6928
  262MOL0     C35237  10.564   8.280   9.378 -0.6073  0.6380 -0.0824
  262MOL0     O35238  10.446   8.316   9.431 -0.0420  0.0960 -0.5679
  262MOL0     C35239  10.335   8.242   9.405 -0.0132  0.3081 -0.5105
  262MOL0     C35240  10.332   8.102   9.399  0.3723  0.4077 -0.0783
  262MOL0     C35241  10.212   8.033   9.356  0.5359 -0.4688  0.1017
  262MOL0     C35242  10.088   8.109   9.333  0.5545  0.2515 -0.1424
  262MOL0     O35243   9.971   8.043   9.299 -0.1562  0.0491 -1.2589
  262MOL0     C35244   9.841   8.098   9.319  0.0459 -0.9852 -1.1061
  262MOL0     C35245   9.739   8.007   9.255  0.1322  0.6306 -0.7123
  262MOL0     C35246   9.601   8.072   9.232  0.0126 -0.1883 -0.5213
  262MOL0     C35247   9.501   7.961   9.180 -0.0767  0.4836  0.2556
  262MOL0     C35248   9.369   8.025   9.136  1.0518  1.0096  0.2472
  262MOL0     C35249   9.246   7.953   9.194 -0.5151 -0.4969 -0.5571
  262MOL0     C35250   9.122   8.021   9.149 -0.3816  0.0811 -0.0012
  262MOL0     C35251   8.997   7.938   9.201 -0.1551  0.5860  0.4911
  262MOL0     N35252   8.979   7.800   9.149 -0.3708  0.2290 -0.8098
  262MOL0     C35253   8.947   7.774   9.027  0.2652 -0.5544 -0.4528
  262MOL0     C35254   8.918   7.641   9.026  0.2697  0.2333  0.1259
  262MOL0     C35255   8.853   7.570   8.908  0.7879 -0.0150 -0.0739
  262MOL0     C35256   8.695   7.573   8.890 -0.0505  0.1538 -0.3291
  262MOL0     C35257   8.631   7.707   8.863  0.5526 -0.0419 -0.4785
  262MOL0     C35258   8.662   7.766   8.727  0.0242 -0.1310  1.0373
  262MOL0     O35259   8.582   7.702   8.623 -0.4721  0.4687 -0.0461
  262MOL0     C35260   8.548   7.767   8.503  0.3484  0.1276 -0.1597
  262MOL0     C35261   8.538   7.903   8.487 -0.4283 -0.8622  0.0302
  262MOL0     C35262   8.495   7.964   8.368  0.1493 -1.1399  0.8105
  262MOL0     C35263   8.487   8.118   8.366  0.0885  0.2681 -0.2190
  262MOL0     C35264   8.468   7.875   8.260 -0.4198 -0.0280  0.3126
  262MOL0     C35265   8.458   7.920   8.119 -0.3802  0.1386  0.2793
  262MOL0     O35266   8.381   7.838   8.035 -0.3831 -0.5331 -0.6101
  262MOL0     C35267   8.349   7.890   7.909 -0.9578  0.0387 -1.4220
  262MOL0     C35268   8.450   7.920   7.822 -0.0146  0.5687  0.0252
  262MOL0     C35269   8.425   7.990   7.698 -0.1474 -0.6269 -0.7564
  262MOL0     C35270   8.296   8.035   7.669 -0.1754 -0.2079  0.2596
  262MOL0     O35271   8.279   8.106   7.551 -0.1367  0.8671 -0.3308
  262MOL0     C35272   8.169   8.050   7.473  1.3387  0.1484 -0.3733
  262MOL0     C35273   8.209   8.053   7.326  0.0771 -0.1947 -0.0976
  262MOL0     C35274   8.294   7.932   7.299  0.2585  0.3338  0.5546
  262MOL0     C35275   8.328   7.936   7.152 -0.7435 -0.3472 -0.7981
  262MOL0     C35276   8.423   7.818   7.108 -0.2358 -0.7698  0.2797
  262MOL0     C35277   8.570   7.830   7.147  0.1147  0.5627 -0.3721
  262MOL0     C35278   8.667   7.728   7.072 -0.0317 -0.0852 -0.0567
  262MOL0     C35279   8.634   7.584   7.086  0.0006 -0.2189 -1.2090
  262MOL0    Cl35280   8.783   7.481   7.082 -0.0868  0.1237  0.3516
  262MOL0     C35281   8.201   8.006   7.757  0.4974  0.3174 -1.1541
  262MOL0     C35282   8.220   7.935   7.881  0.2140 -0.0876 -0.6792
  262MOL0     O35283   8.535   8.008   8.078 -0.4500  0.3198  0.1019
  262MOL0     C35284   8.459   7.736   8.284 -0.2322 -0.4512  0.3887
  262MOL0     C35285   8.501   7.685   8.405  0.1755 -0.6093  0.1497
  262MOL0     N35286   8.963   7.590   9.148  0.5033 -0.1396  0.3794
  262MOL0     N35287   9.005   7.691   9.224 -0.2816  0.4402  0.1388
  262MOL0     C35288  10.098   8.241   9.377 -1.3239 -0.4580  0.0520
  262MOL0     C35289  10.223   8.307   9.399 -0.1475 -0.6394 -0.0129
  262MOL0     C35290  10.684   8.362   9.410 -0.3171 -0.5245 -0.0377
  262MOL0     C35291  10.819   8.319   9.376  0.1327  0.6924 -0.4315
  262MOL0     C35292  10.927   8.403   9.408  0.3698  0.4396  0.5403
  262MOL0     C35293  10.905   8.524   9.468 -1.5634 -0.0237 -0.6499
  262MOL0     O35294  11.018   8.584   9.520  0.5590  0.4553 -0.8155
  262MOL0     C35295  11.139   8.596   9.436 -0.0252  0.3524  0.1536
  262MOL0     C35296  11.206   8.724   9.476 -0.6629  0.3625  0.3612
  262MOL0     C35297  11.309   8.723   9.582  0.0562  0.0534 -0.5562
  262MOL0     C35298  11.337   8.856   9.641 -0.0511 -0.1963  0.1651
  262MOL0     C35299  11.379   8.967   9.552  0.8222  0.0532 -0.0451
  262MOL0     C35300  11.422   9.059   9.478  0.1557  1.4424  0.2919
  262MOL0     C35301  10.776   8.560   9.497 -0.1117 -0.6201  0.1960
  262MOL0     C35302  10.663   8.493   9.455  0.6940 -0.0144 -0.2879
  262MOL0     H35303  10.425   8.046   9.410 -0.8005 -1.7067 -0.4376
  262MOL0     H35304  10.197   7.926   9.340 -1.7612 -0.1853 -0.0344
  262MOL0     H35305   9.820   8.103   9.426  0.6158 -0.8901 -0.9982
  262MOL0     H35306   9.828   8.195   9.269 -2.3454 -1.1648 -0.9548
  262MOL0     H35307   9.789   7.973   9.163  1.5029 -1.1035  0.5993
  262MOL0     H35308   9.726   7.914   9.311 -0.5275  0.9152 -0.3859
  262MOL0     H35309   9.571   8.112   9.329 -0.0236 -3.4927  0.9736
  262MOL0     H35310   9.608   8.149   9.155  0.4904 -0.3382 -0.6334
  262MOL0     H35311   9.541   7.904   9.096 -0.0175 -1.0129  1.2422
  262MOL0     H35312   9.478   7.888   9.259  0.8283  0.3550  0.4135
  262MOL0     H35313   9.363   8.130   9.166  2.0869  1.0866  0.2519
  262MOL0     H35314   9.351   8.027   9.028 -0.7645 -0.3315  0.4788
  262MOL0     H35315   9.236   7.849   9.160  0.9046 -0.7118 -0.3936
  262MOL0     H35316   9.268   7.962   9.301  1.1619 -1.9045 -0.7435
  262MOL0     H35317   9.119   8.123   9.191  0.0844 -0.7481  2.1999
  262MOL0     H35318   9.105   8.045   9.044  1.9790  0.9491 -0.2431
  262MOL0     H35319   8.912   7.993   9.160  1.5557  2.4136 -0.7914
  262MOL0     H35320   8.993   7.923   9.309  0.9241 -1.8327  0.2770
  262MOL0     H35321   8.929   7.852   8.954  1.4698 -1.8168 -2.1558
  262MOL0     H35322   8.889   7.606   8.811  0.4739  0.8181  0.1101
  262MOL0     H35323   8.871   7.465   8.931 -3.9481 -0.5209  2.4253
  262MOL0     H35324   8.643   7.535   8.979  2.3212 -2.0960  0.2162
  262MOL0     H35325   8.668   7.499   8.813  0.1568  0.4761 -0.7112
  262MOL0     H35326   8.658   7.776   8.944  1.1933 -1.5874  0.6768
  262MOL0     H35327   8.522   7.696   8.860  0.5865 -1.3205  1.3706
  262MOL0     H35328   8.768   7.754   8.706  0.5233  1.2845  2.6099
  262MOL0     H35329   8.658   7.875   8.732 -1.5552 -0.2077  2.1321
  262MOL0     H35330   8.567   7.971   8.567 -1.4950  0.8442 -0.9897
  262MOL0     H35331   8.422   8.170   8.296  1.5696  1.6007 -0.6670
  262MOL0     H35332   8.459   8.158   8.463 -0.9732  1.3621 -0.9505
  262MOL0     H35333   8.588   8.157   8.348 -0.9293  2.8958 -0.6736
  262MOL0     H35334   8.546   7.892   7.864 -1.0610  1.3762  3.3080
  262MOL0     H35335   8.498   8.013   7.621  1.3618  0.4295  0.9201
  262MOL0     H35336   8.130   7.952   7.502 -0.4765  1.0579  0.4168
  262MOL0     H35337   8.084   8.114   7.501  0.7490 -1.2314  1.1578
  262MOL0     H35338   8.122   8.072   7.262 -0.6466  3.3655  1.6674
  262MOL0     H35339   8.283   8.133   7.313 -1.1750  0.8509 -1.1182
  262MOL0     H35340   8.250   7.843   7.343  0.8415  0.5234  1.5513
  262MOL0     H35341   8.386   7.949   7.355  0.6097  3.3283 -0.7285
  262MOL0     H35342   8.239   7.940   7.088 -1.2765 -2.9549 -0.3429
  262MOL0     H35343   8.381   8.031   7.140 -0.3474 -0.2679  1.2762
  262MOL0     H35344   8.434   7.816   6.999  3.9132 -0.4133  0.5452
  262MOL0     H35345   8.382   7.721   7.137  3.1344 -1.8916  1.8734
  262MOL0     H35346   8.610   7.930   7.130  0.2390  0.6657  0.4791
  262MOL0     H35347   8.577   7.819   7.256 -3.3465 -0.6920 -0.1439
  262MOL0     H35348   8.767   7.748   7.112 -0.4361 -0.2605  1.0848
  262MOL0     H35349   8.663   7.754   6.966 -1.4471  0.8117  0.1906
  262MOL0     H35350   8.557   7.538   7.023  0.0741 -4.0075  1.1355
  262MOL0     H35351   8.599   7.574   7.189 -0.0156 -2.4346 -1.3866
  262MOL0     H35352   8.098   8.041   7.750 -0.1025 -1.4692 -1.7853
  262MOL0     H35353   8.134   7.920   7.947  0.1113  1.1387 -0.5114
  262MOL0     H35354   8.423   7.682   8.198  5.3397  0.5247 -3.0425
  262MOL0     H35355   8.507   7.578   8.423 -1.3591 -0.9550 -1.1292
  262MOL0     H35356  10.018   8.315   9.378 -0.0746  1.0436  2.8828
  262MOL0     H35357  10.221   8.416   9.403  1.3456 -0.5854 -0.0797
  262MOL0     H35358  10.838   8.219   9.339 -1.0952 -0.3696  1.6087
  262MOL0     H35359  11.025   8.368   9.376 -0.3620  0.3065 -1.7505
  262MOL0     H35360  11.210   8.512   9.438 -0.8245 -0.4855 -2.3260
  262MOL0     H35361  11.122   8.591   9.328  2.2800  0.7958 -0.2818
  262MOL0     H35362  11.128   8.799   9.488  0.4593  1.3669  1.6534
  262MOL0     H35363  11.258   8.750   9.384  2.7729 -2.8501  1.1074
  262MOL0     H35364  11.399   8.684   9.533  0.2845  0.0112 -0.1097
  262MOL0     H35365  11.274   8.651   9.656 -3.0374 -0.3203 -2.2020
  262MOL0     H35366  11.422   8.834   9.706 -0.2799  0.5552  0.7412
  262MOL0     H35367  11.250   8.888   9.699 -0.4365  0.9410 -0.9698
  262MOL0     H35368  11.468   9.140   9.425 -1.8540  1.5054 -1.4776
  262MOL0     H35369  10.762   8.649   9.558  1.5303 -1.5209  2.0167
  262MOL0     H35370  10.565   8.535   9.478  0.1114 -2.3846  2.0805
  263MOL0     O35371  11.259  10.161   8.531 -0.0421 -0.5233 -0.9286
  263MOL0     C35372  11.199  10.152   8.428 -0.1975 -0.4367  0.2574
  263MOL0     O35373  11.263  10.134   8.307  0.1374  0.2067 -0.1788
  263MOL0     C35374  11.398  10.116   8.289  1.0110  0.4589 -0.0399
  263MOL0     C35375  11.438  10.002   8.207  0.9424  0.0458 -0.5462
  263MOL0     C35376  11.570   9.985   8.168  0.0588  0.0464  0.9166
  263MOL0     C35377  11.666  10.090   8.209  0.3027  0.2300 -0.0982
  263MOL0     O35378  11.789  10.075   8.150 -0.0937  0.0019 -0.5459
  263MOL0     C35379  11.876  10.186   8.148 -0.3607  0.2024 -0.4377
  263MOL0     C35380  11.999  10.171   8.056  0.4734  0.4904 -0.7558
  263MOL0     C35381  12.060  10.313   8.034  0.2617  0.2625 -0.6192
  263MOL0     C35382  12.007  10.375   7.909  0.3214 -0.6188  0.6078
  263MOL0     C35383  12.045  10.301   7.781 -0.2962  0.9397 -0.3664
  263MOL0     C35384  12.187  10.334   7.724 -0.7093 -0.3505 -0.2868
  263MOL0     C35385  12.220  10.482   7.714 -0.4476 -0.2495  0.0900
  263MOL0     C35386  12.115  10.575   7.644 -0.2036 -0.5472 -0.0023
  263MOL0     N35387  12.174  10.714   7.658 -0.3953  0.1206 -0.3257
  263MOL0     C35388  12.298  10.757   7.605 -0.0235 -0.3495 -0.7741
  263MOL0     C35389  12.303  10.887   7.649 -0.1162  0.3817 -0.0698
  263MOL0     C35390  12.414  10.994   7.615  0.5200 -0.7756 -0.9429
  263MOL0     C35391  12.555  10.946   7.669 -0.5809 -0.2687  0.3555
  263MOL0     C35392  12.545  10.883   7.802 -0.2435  0.2713 -0.3110
  263MOL0     C35393  12.682  10.869   7.871 -0.5545 -0.1126  0.0479
  263MOL0     O35394  12.729  10.990   7.930  0.0877 -0.0651  0.0573
  263MOL0     C35395  12.647  11.048   8.025  0.1187  0.4561 -0.4124
  263MOL0     C35396  12.620  10.995   8.154  0.2739 -0.1744  0.2511
  263MOL0     C35397  12.541  11.068   8.242 -0.3997  0.4273  0.8473
  263MOL0     C35398  12.548  11.031   8.387  0.2422 -0.0473 -0.7851
  263MOL0     C35399  12.459  11.174   8.194 -0.5458  0.0030  0.3212
  263MOL0     C35400  12.352  11.238   8.263  0.1179 -0.4577 -0.0922
  263MOL0     O35401  12.320  11.359   8.225  0.3087  0.0273 -0.1423
  263MOL0     C35402  12.205  11.408   8.267  0.5152 -0.1070 -0.1685
  263MOL0     C35403  12.201  11.481   8.387 -0.2834  0.1076 -0.0198
  263MOL0     C35404  12.095  11.562   8.432 -0.1852 -0.0740 -0.0809
  263MOL0     C35405  11.991  11.589   8.336 -0.7604  0.3293 -0.7057
  263MOL0     O35406  11.884  11.671   8.360  0.4973 -0.0885 -0.0314
  263MOL0     C35407  11.921  11.789   8.422 -0.6268 -0.2595 -0.0799
  263MOL0     C35408  11.810  11.883   8.409 -0.0387  0.0986  0.7508
  263MOL0     C35409  11.690  11.841   8.487  0.3772  0.0063  0.7348
  263MOL0     C35410  11.578  11.944   8.474  0.5910 -0.1050 -0.0033
  263MOL0     C35411  11.434  11.895   8.501  0.3459 -0.3593 -0.0017
  263MOL0     C35412  11.415  11.851   8.641  0.1969  0.4569  0.0900
  263MOL0     C35413  11.267  11.810   8.660  0.8563  0.1442  0.0122
  263MOL0     C35414  11.156  11.920   8.658 -1.1132  0.7765 -0.7288
  263MOL0    Cl35415  11.184  12.019   8.804  0.4527  0.0736  0.0603
  263MOL0     C35416  12.000  11.528   8.210 -0.1138  0.0867  0.4464
  263MOL0     C35417  12.097  11.433   8.182 -0.1981  0.6907 -0.1413
  263MOL0     O35418  12.296  11.174   8.356 -0.6906 -0.1719 -1.3231
  263MOL0     C35419  12.484  11.222   8.064  0.7011 -1.4962  0.1354
  263MOL0     C35420  12.581  11.161   7.987 -0.2395  0.0610  0.0564
  263MOL0     N35421  12.187  10.917   7.726 -0.9001  0.0969  0.3432
  263MOL0     N35422  12.109  10.816   7.721 -0.2234  0.0830 -0.6185
  263MOL0     C35423  11.624  10.199   8.293  0.6594  0.5506  0.5193
  263MOL0     C35424  11.489  10.213   8.331  0.1197  0.5355  0.0133
  263MOL0     C35425  11.056  10.132   8.436 -0.3739 -0.2909 -0.6281
  263MOL0     C35426  10.985  10.149   8.555  0.7285 -0.9727  0.1046
  263MOL0     C35427  10.846  10.125   8.563 -0.0675 -0.2052  0.3191
  263MOL0     C35428  10.780  10.090   8.451  0.2536  0.4964 -0.2837
  263MOL0     O35429  10.645  10.048   8.443 -0.1309 -0.1422  0.1385
  263MOL0     C35430  10.583  10.014   8.572 -0.0883 -0.1397  0.8127
  263MOL0     C35431  10.467   9.919   8.559  0.0078  0.0252 -0.2942
  263MOL0     C35432  10.360   9.979   8.479  0.1068  0.1403  0.1307
  263MOL0     C35433  10.247   9.874   8.456 -0.5079 -0.2437  0.7586
  263MOL0     C35434  10.137   9.938   8.372  0.0425  0.6894 -0.2306
  263MOL0     C35435  10.064  10.008   8.307 -0.3641  0.1106 -0.1482
  263MOL0     C35436  10.844  10.081   8.333  0.7563  0.3975 -0.8349
  263MOL0     C35437  10.983  10.088   8.328 -0.8385 -0.4329 -0.9895
  263MOL0     H35438  11.363   9.932   8.171  1.4391 -2.2764  2.5515
  263MOL0     H35439  11.598   9.897   8.112 -1.6649 -0.0089  0.0895
  263MOL0     H35440  11.808  10.260   8.105 -0.0207  0.2453 -0.9036
  263MOL0     H35441  11.913  10.211   8.249 -0.1869 -0.4383 -0.3361
  263MOL0     H35442  12.065  10.098   8.103 -1.7842 -1.8024 -0.9174
  263MOL0     H35443  11.964  10.128   7.961  1.1817 -1.0835 -0.3326
  263MOL0     H35444  12.072  10.382   8.118  4.2980  1.9638 -2.3115
  263MOL0     H35445  12.164  10.283   8.016 -1.1186 -4.5146 -2.1025
  263MOL0     H35446  11.899  10.386   7.925  0.8183 -0.2483  4.6281
  263MOL0     H35447  12.045  10.476   7.889 -1.1476  0.0675  1.1591
  263MOL0     H35448  12.047  10.192   7.792  1.6493  1.0983  1.6625
  263MOL0     H35449  11.985  10.333   7.696  1.1088 -0.7133 -2.0601
  263MOL0     H35450  12.269  10.297   7.786 -0.3112  3.6938  1.9296
  263MOL0     H35451  12.184  10.286   7.626 -0.4547  0.5914 -0.7612
  263MOL0     H35452  12.229  10.516   7.818  0.7406 -2.4837  0.7844
  263MOL0     H35453  12.317  10.502   7.667 -1.3838  1.4028 -1.2594
  263MOL0     H35454  12.015  10.579   7.687  0.4077  1.0120  1.4005
  263MOL0     H35455  12.112  10.545   7.539 -1.0920 -0.8345  0.1039
  263MOL0     H35456  12.368  10.702   7.542 -1.2796 -1.9068 -0.8922
  263MOL0     H35457  12.421  11.016   7.508 -0.4868  2.0602 -0.5228
  263MOL0     H35458  12.388  11.083   7.673 -0.4276 -0.5788 -1.6585
  263MOL0     H35459  12.630  11.026   7.676  1.4020 -1.8671 -1.2016
  263MOL0     H35460  12.586  10.866   7.601  0.7171  0.9700 -0.5659
  263MOL0     H35461  12.505  10.783   7.785  0.6011 -0.2215  0.5451
  263MOL0     H35462  12.484  10.942   7.871 -1.1467  0.3802 -1.1831
  263MOL0     H35463  12.751  10.838   7.791  1.9541  3.7936  0.4104
  263MOL0     H35464  12.671  10.793   7.948  0.0397  0.0235  0.2784
  263MOL0     H35465  12.665  10.905   8.194  1.1019  0.3568  0.5405
  263MOL0     H35466  12.500  10.934   8.402  0.2708 -0.3056 -2.2193
  263MOL0     H35467  12.652  11.013   8.415 -0.3397 -0.9965  0.9017
  263MOL0     H35468  12.510  11.111   8.452  1.4865 -1.2198  1.5147
  263MOL0     H35469  12.288  11.474   8.451 -1.2737  0.2248  1.3787
  263MOL0     H35470  12.109  11.603   8.532  1.0492 -0.6016 -0.0196
  263MOL0     H35471  11.941  11.772   8.528  0.3177  0.4680 -0.1231
  263MOL0     H35472  12.004  11.844   8.376 -0.1376 -1.3196 -0.4999
  263MOL0     H35473  11.850  11.980   8.440  0.5518 -0.1085  0.6483
  263MOL0     H35474  11.786  11.885   8.302 -1.5291 -1.9034  0.9821
  263MOL0     H35475  11.714  11.835   8.593 -2.7056  0.3090  1.5591
  263MOL0     H35476  11.658  11.744   8.449 -2.6149  0.6169  1.4191
  263MOL0     H35477  11.614  12.017   8.546 -0.2474 -2.1574  2.6754
  263MOL0     H35478  11.579  11.987   8.374 -0.7376 -1.0182 -0.4528
  263MOL0     H35479  11.415  11.813   8.431  2.9212 -0.4657 -0.6779
  263MOL0     H35480  11.368  11.979   8.479 -0.6619 -1.2912 -0.6409
  263MOL0     H35481  11.489  11.777   8.670  0.8766  1.7012  1.7015
  263MOL0     H35482  11.454  11.936   8.699  0.7023 -1.2675  2.4345
  263MOL0     H35483  11.262  11.765   8.759  1.0954  0.0001 -0.0423
  263MOL0     H35484  11.245  11.725   8.595  1.0197  0.3517 -0.3189
  263MOL0     H35485  11.054  11.883   8.674 -0.1483 -1.4523  0.6635
  263MOL0     H35486  11.164  11.986   8.570  2.8525  1.4362 -0.0537
  263MOL0     H35487  11.924  11.540   8.134  0.1543 -4.4804 -0.8434
  263MOL0     H35488  12.101  11.392   8.081  1.9416 -1.4063  0.6857
  263MOL0     H35489  12.445  11.314   8.023  1.3063 -1.8315 -1.2382
  263MOL0     H35490  12.591  11.196   7.885  1.9262 -0.5030  0.0347
  263MOL0     H35491  11.697  10.264   8.339 -0.3156  0.1037  2.8327
  263MOL0     H35492  11.455  10.295   8.394 -0.0941 -0.1431  0.8088
  263MOL0     H35493  11.036  10.183   8.645  1.3223 -0.1363 -0.5316
  263MOL0     H35494  10.774  10.134   8.643 -1.1118 -0.3167 -0.5905
  263MOL0     H35495  10.652   9.968   8.643 -0.1640 -0.9012  0.4031
  263MOL0     H35496  10.554  10.113   8.610 -1.3757 -0.8562  1.7713
  263MOL0     H35497  10.436   9.896   8.661  0.2014 -3.3852 -0.8710
  263MOL0     H35498  10.515   9.828   8.521  2.8690  0.8481  1.0761
  263MOL0     H35499  10.402  10.014   8.384 -0.5268  2.1474  0.5525
  263MOL0     H35500  10.318  10.074   8.514 -0.1717  1.0791 -2.5207
  263MOL0     H35501  10.217   9.844   8.557  3.3408 -1.5947  1.6852
  263MOL0     H35502  10.287   9.792   8.396 -1.0305  0.0539 -0.0117
  263MOL0     H35503  10.015  10.095   8.268 -0.4579 -0.2562 -0.8587
  263MOL0     H35504  10.796  10.048   8.241 -2.1775 -2.2459  1.4385
  263MOL0     H35505  11.036  10.079   8.234  0.8300 -1.0743 -0.0219
  264MOL0     O35506   7.929  10.716   0.355 -0.1439  1.1244 -0.4262
  264MOL0     C35507   7.941  10.625   0.438  0.2175 -0.1454  0.1164
  264MOL0     O35508   8.058  10.594   0.511  0.0555 -0.5793 -0.5208
  264MOL0     C35509   8.166  10.681   0.494  0.0063 -0.0764  0.7682
  264MOL0     C35510   8.290  10.625   0.514 -0.1218  0.0378  0.1548
  264MOL0     C35511   8.403  10.697   0.511  0.0162 -0.7188 -0.3581
  264MOL0     C35512   8.395  10.834   0.496 -0.2518  0.5103  0.6442
  264MOL0     O35513   8.513  10.909   0.505 -0.2350 -0.2361  0.4244
  264MOL0     C35514   8.567  10.910   0.644  0.2818 -0.0956 -0.1655
  264MOL0     C35515   8.713  10.953   0.640  0.4457 -0.7471 -1.0471
  264MOL0     C35516   8.726  11.101   0.600  0.1208  0.1698 -1.2847
  264MOL0     C35517   8.861  11.169   0.640  0.4746  0.0869  0.1865
  264MOL0     C35518   8.876  11.189   0.795  0.3970 -0.7736  0.3281
  264MOL0     C35519   8.769  11.275   0.860 -0.3088  0.2086 -0.2760
  264MOL0     C35520   8.813  11.363   0.982 -0.0235  0.3527 -0.0460
  264MOL0     C35521   8.702  11.467   1.006  0.1328 -0.6908  0.8037
  264MOL0     N35522   8.744  11.548   1.119 -0.2881 -0.4943  0.0744
  264MOL0     C35523   8.817  11.665   1.122 -0.4527  0.6789 -0.8172
  264MOL0     C35524   8.824  11.683   1.251  0.0463 -0.1482 -0.1201
  264MOL0     C35525   8.904  11.796   1.313  0.6557 -0.4044  0.1230
  264MOL0     C35526   9.030  11.846   1.242  0.2662  0.2536  0.5779
  264MOL0     C35527   9.153  11.800   1.327 -1.1065 -0.0157 -0.1422
  264MOL0     C35528   9.281  11.879   1.297 -0.0647 -0.2118 -0.1891
  264MOL0     O35529   9.399  11.823   1.357 -1.1517 -0.2133  0.2659
  264MOL0     C35530   9.527  11.874   1.344 -0.1945 -0.0131  0.2512
  264MOL0     C35531   9.563  11.984   1.268  0.5245 -0.1564  0.6173
  264MOL0     C35532   9.688  12.035   1.257 -0.2982 -0.1722 -0.4606
  264MOL0     C35533   9.716  12.157   1.186 -0.5629 -1.2875  0.0380
  264MOL0     C35534   9.786  11.973   1.348  0.0725  0.0892  0.6727
  264MOL0     C35535   9.931  12.021   1.357  0.3245  0.0830  0.2501
  264MOL0     O35536  10.027  11.941   1.415  0.4465  0.7856  0.1122
  264MOL0     C35537  10.156  11.966   1.426 -0.9106 -0.6667 -0.2259
  264MOL0     C35538  10.222  12.068   1.359  0.0488 -0.0206  0.9659
  264MOL0     C35539  10.357  12.097   1.393  0.2465 -0.5559  0.0179
  264MOL0     C35540  10.426  12.026   1.493 -0.0810  0.2058  0.0087
  264MOL0     O35541  10.560  12.062   1.521  0.3951  0.0771  0.6233
  264MOL0     C35542  10.653  11.972   1.599  0.0549  0.1999 -0.1592
  264MOL0     C35543  10.788  12.044   1.584 -0.5518  0.5434 -0.4073
  264MOL0     C35544  10.894  12.020   1.690  0.1121  0.8512  0.6605
  264MOL0     C35545  11.025  11.995   1.617 -0.5481  0.0997  0.1377
  264MOL0     C35546  11.146  11.975   1.718  0.7741 -1.2583  0.4226
  264MOL0     C35547  11.272  12.045   1.667  0.6050  0.1699 -0.3129
  264MOL0     C35548  11.380  12.045   1.786  0.1731  0.1978  0.5411
  264MOL0     C35549  11.466  12.168   1.765  0.7954  0.3156  0.0247
  264MOL0    Cl35550  11.607  12.156   1.874  0.7417 -0.0666  0.1923
  264MOL0     C35551  10.353  11.926   1.560 -0.0690  1.2294  0.3261
  264MOL0     C35552  10.226  11.895   1.526  0.3953  0.3859 -0.3002
  264MOL0     O35553   9.945  12.133   1.321 -0.0779 -0.2513 -0.8038
  264MOL0     C35554   9.755  11.862   1.411 -0.0524  0.3076 -0.2024
  264MOL0     C35555   9.628  11.812   1.413 -0.1208 -0.3350 -0.5136
  264MOL0     N35556   8.735  11.589   1.317 -0.3160 -0.0279 -0.1984
  264MOL0     N35557   8.690  11.521   1.233  0.0647  1.1125 -0.3635
  264MOL0     C35558   8.270  10.897   0.485 -0.6723 -0.2971 -0.3502
  264MOL0     C35559   8.156  10.822   0.487  0.0967 -0.9274  0.4331
  264MOL0     C35560   7.814  10.550   0.473 -0.4453 -1.1031 -0.5265
  264MOL0     C35561   7.819  10.461   0.582  0.0941 -0.8349  0.6015
  264MOL0     C35562   7.704  10.402   0.633 -0.4477  0.1090  0.3329
  264MOL0     C35563   7.576  10.434   0.584 -0.2785  0.6488 -0.2133
  264MOL0     O35564   7.466  10.373   0.645  0.0884  0.2704  0.7569
  264MOL0     C35565   7.338  10.423   0.607  0.3784 -0.2131 -0.1651
  264MOL0     C35566   7.234  10.368   0.708  0.3419  0.4252 -0.1967
  264MOL0     C35567   7.104  10.451   0.699 -0.6127  0.5905  0.2333
  264MOL0     C35568   7.026  10.428   0.825 -0.0268  0.2110 -0.0060
  264MOL0     C35569   6.881  10.415   0.811  0.5188  0.1551  0.1276
  264MOL0     C35570   6.756  10.398   0.799 -0.7208 -0.3429  0.4054
  264MOL0     C35571   7.566  10.516   0.473 -0.5913 -0.2610 -0.0452
  264MOL0     C35572   7.685  10.572   0.415  0.2059  0.3129 -0.3824
  264MOL0     H35573   8.309  10.519   0.519  0.6698  0.2090  1.0465
  264MOL0     H35574   8.498  10.646   0.519  0.0546 -0.5015  0.6680
  264MOL0     H35575   8.508  10.973   0.711  0.2690 -0.5380  0.2442
  264MOL0     H35576   8.555  10.810   0.687 -0.9775  0.3543  0.5659
  264MOL0     H35577   8.762  10.942   0.737  0.7593  0.2619 -1.0888
  264MOL0     H35578   8.770  10.890   0.571  0.1561 -1.5889 -0.5429
  264MOL0     H35579   8.714  11.090   0.492  0.7540 -1.1216 -1.2455
  264MOL0     H35580   8.641  11.159   0.638  1.9433  0.6329  2.6644
  264MOL0     H35581   8.950  11.110   0.615  0.7081  0.2003  0.7356
  264MOL0     H35582   8.872  11.267   0.593  0.5801  1.2226  2.4342
  264MOL0     H35583   8.871  11.093   0.847  2.0165 -0.6440  0.7892
  264MOL0     H35584   8.977  11.229   0.807 -0.3013  0.1736  4.2466
  264MOL0     H35585   8.728  11.344   0.787 -2.5501  0.7405  1.3794
  264MOL0     H35586   8.693  11.203   0.890  0.6984 -0.0583  1.8815
  264MOL0     H35587   8.836  11.305   1.072 -0.5278  2.1341  1.2944
  264MOL0     H35588   8.906  11.417   0.966 -0.4793  0.9574 -0.6804
  264MOL0     H35589   8.610  11.413   1.030 -0.4739  0.5001  1.2755
  264MOL0     H35590   8.685  11.523   0.914  0.9836 -0.7960  0.5801
  264MOL0     H35591   8.875  11.714   1.044  1.8503  1.7276  1.4128
  264MOL0     H35592   8.846  11.888   1.313  1.8797  0.5626 -3.8779
  264MOL0     H35593   8.912  11.766   1.418 -2.3745 -1.1862  0.2341
  264MOL0     H35594   9.032  11.954   1.254 -0.3844  0.4014 -0.5107
  264MOL0     H35595   9.032  11.820   1.136 -0.2247 -0.1350  0.6554
  264MOL0     H35596   9.173  11.696   1.303 -0.2467  0.5965 -2.3030
  264MOL0     H35597   9.145  11.806   1.436 -0.3575 -1.7469  0.0442
  264MOL0     H35598   9.263  11.982   1.330 -0.6374 -0.4408  0.2382
  264MOL0     H35599   9.296  11.878   1.189  0.3513  2.0249 -0.1965
  264MOL0     H35600   9.481  12.039   1.222 -0.5507 -2.2221 -0.0917
  264MOL0     H35601   9.731  12.244   1.251 -2.9224 -0.8138  0.0377
  264MOL0     H35602   9.803  12.150   1.120  0.9099  3.5721  1.0743
  264MOL0     H35603   9.627  12.182   1.127 -0.0999  0.1537 -0.0930
  264MOL0     H35604  10.183  12.132   1.281 -1.5951 -1.3866  0.5965
  264MOL0     H35605  10.410  12.180   1.348 -2.6502  2.0034  1.0428
  264MOL0     H35606  10.622  11.965   1.704  2.6855 -1.6745  0.5979
  264MOL0     H35607  10.645  11.867   1.572 -3.0900  0.1315  0.6235
  264MOL0     H35608  10.827  12.017   1.485  3.7397 -0.3703  1.3249
  264MOL0     H35609  10.760  12.150   1.590 -2.6105 -0.0235  1.9078
  264MOL0     H35610  10.871  11.926   1.741  1.4226  0.2048  0.0866
  264MOL0     H35611  10.895  12.112   1.748 -0.4359  0.6485  1.0014
  264MOL0     H35612  11.012  11.898   1.568  1.0374  0.6600 -1.4795
  264MOL0     H35613  11.044  12.074   1.544  0.6065 -1.6832 -1.5950
  264MOL0     H35614  11.164  11.868   1.735  0.3622 -1.0135  2.6652
  264MOL0     H35615  11.110  12.019   1.812 -0.2900  0.2885 -0.6734
  264MOL0     H35616  11.316  12.006   1.575  1.7530 -1.7524  0.9610
  264MOL0     H35617  11.250  12.151   1.655  1.7962  0.9084  2.9294
  264MOL0     H35618  11.440  11.956   1.769 -2.7099 -1.2300 -3.9173
  264MOL0     H35619  11.345  12.043   1.890  4.0941  0.8741  2.0232
  264MOL0     H35620  11.411  12.259   1.790 -0.5305 -0.0688 -1.3554
  264MOL0     H35621  11.489  12.180   1.659  0.0617  0.0057 -0.1772
  264MOL0     H35622  10.396  11.893   1.654  0.8276 -1.1011 -0.8289
  264MOL0     H35623  10.178  11.813   1.579 -1.0919 -0.2447 -2.4827
  264MOL0     H35624   9.831  11.807   1.464 -0.5334 -1.4189 -1.2289
  264MOL0     H35625   9.611  11.713   1.454  1.8948 -0.5875 -0.1751
  264MOL0     H35626   8.271  11.005   0.478  0.0676 -0.4014 -2.1924
  264MOL0     H35627   8.057  10.866   0.473  0.2461 -0.7447 -0.0559
  264MOL0     H35628   7.917  10.440   0.624  1.1706  1.8430 -0.3626
  264MOL0     H35629   7.725  10.324   0.706  0.5257  0.5097  0.4931
  264MOL0     H35630   7.346  10.531   0.618  0.5877 -0.3332  1.0359
  264MOL0     H35631   7.309  10.391   0.507  1.5022 -0.2623 -0.4901
  264MOL0     H35632   7.269  10.363   0.812 -1.5373 -1.8723  0.4023
  264MOL0     H35633   7.209  10.266   0.677 -0.4232  0.1214  1.3599
  264MOL0     H35634   7.047  10.421   0.610 -1.4673  0.0375  0.9464
  264MOL0     H35635   7.124  10.558   0.688  2.3312  0.1066  0.1741
  264MOL0     H35636   7.040  10.512   0.893  1.0573  2.2909 -2.6011
  264MOL0     H35637   7.069  10.344   0.881  2.2245 -0.9077 -3.0970
  264MOL0     H35638   6.654  10.371   0.785 -0.5351 -1.0066  0.3256
  264MOL0     H35639   7.472  10.533   0.422 -0.7593 -1.7082 -0.2610
  264MOL0     H35640   7.679  10.635   0.327  1.7996  0.3675 -0.4801
  265MOL0     O35641   0.931   2.180   1.270 -0.2767  0.5855 -0.2980
  265MOL0     C35642   1.009   2.239   1.196 -1.1200  0.0706  0.7234
  265MOL0     O35643   0.982   2.330   1.097 -0.0142 -0.0515 -0.3759
  265MOL0     C35644   0.861   2.338   1.039 -0.1259  0.1241  0.7910
  265MOL0     C35645   0.774   2.227   1.027 -0.3485  0.9866 -0.1495
  265MOL0     C35646   0.650   2.241   0.976  0.5528 -0.5171 -0.1750
  265MOL0     C35647   0.620   2.362   0.909  0.4126  0.0064 -0.8086
  265MOL0     O35648   0.502   2.385   0.843 -0.1040 -0.1318  0.1684
  265MOL0     C35649   0.379   2.324   0.887  0.8943 -0.4271  0.7215
  265MOL0     C35650   0.266   2.426   0.889 -0.4481 -0.2702 -0.4525
  265MOL0     C35651   0.133   2.359   0.928  0.3945 -0.6314  0.2958
  265MOL0     C35652   0.015   2.459   0.925 -0.7182 -0.5738  0.0723
  265MOL0     C35653  -0.112   2.385   0.973 -1.1489 -0.6559  0.8088
  265MOL0     C35654  -0.236   2.465   0.991 -0.0816  0.6357 -0.5532
  265MOL0     C35655  -0.264   2.546   0.867 -1.2127  0.7326 -0.0352
  265MOL0     C35656  -0.413   2.563   0.856 -0.1973  0.7488  0.7717
  265MOL0     N35657  -0.479   2.636   0.965 -0.2495 -0.2013 -0.4457
  265MOL0     C35658  -0.565   2.578   1.049  0.6134  0.1591  0.5292
  265MOL0     C35659  -0.605   2.681   1.125  0.1577  0.1345  0.2572
  265MOL0     C35660  -0.710   2.707   1.229  0.5320  0.8205  0.5847
  265MOL0     C35661  -0.751   2.568   1.283 -0.3486 -0.4423 -0.1800
  265MOL0     C35662  -0.867   2.580   1.387  0.2317 -0.7581  0.8347
  265MOL0     C35663  -0.986   2.653   1.320  0.0419 -0.2126 -0.6618
  265MOL0     O35664  -1.104   2.626   1.393 -0.5075  0.0870 -0.0608
  265MOL0     C35665  -1.220   2.645   1.327 -0.8631 -0.0726 -0.3229
  265MOL0     C35666  -1.317   2.558   1.338 -0.1077  0.3154  0.2150
  265MOL0     C35667  -1.437   2.571   1.261 -0.0309  0.8243  0.2572
  265MOL0     C35668  -1.536   2.464   1.288  0.3778 -0.3274  0.3069
  265MOL0     C35669  -1.456   2.690   1.188  0.6515 -0.7815  0.0972
  265MOL0     C35670  -1.577   2.730   1.109 -1.0170 -0.3705  0.0150
  265MOL0     O35671  -1.594   2.855   1.078  0.3135  0.7491 -0.3022
  265MOL0     C35672  -1.696   2.885   0.996  0.3089 -0.3005 -0.0458
  265MOL0     C35673  -1.820   2.925   1.052 -0.8014  0.2876  0.7762
  265MOL0     C35674  -1.928   2.951   0.965  1.2740  0.3859  0.1805
  265MOL0     C35675  -1.914   2.936   0.822  0.6916 -0.5876  0.1875
  265MOL0     O35676  -2.032   2.950   0.746 -0.3172  0.3896 -0.0489
  265MOL0     C35677  -2.012   2.962   0.606  0.5703 -0.4830 -0.2185
  265MOL0     C35678  -2.136   2.968   0.532  0.4621 -0.0839 -0.5558
  265MOL0     C35679  -2.126   2.966   0.376  0.6096  0.4168 -0.4724
  265MOL0     C35680  -2.257   2.952   0.303 -0.0725 -0.0216 -0.1209
  265MOL0     C35681  -2.253   2.982   0.155 -0.6645  0.0916  0.0042
  265MOL0     C35682  -2.397   3.005   0.092 -0.1187  0.9516  1.0408
  265MOL0     C35683  -2.363   3.032  -0.055  0.2044 -0.7985  0.4536
  265MOL0     C35684  -2.487   3.050  -0.148 -0.0535 -0.7390 -0.2348
  265MOL0    Cl35685  -2.421   3.042  -0.312 -0.0742 -0.1121 -0.1110
  265MOL0     C35686  -1.791   2.914   0.770 -0.5934  0.7512 -0.1721
  265MOL0     C35687  -1.684   2.880   0.855 -0.6594 -0.0712  0.5224
  265MOL0     O35688  -1.659   2.639   1.086  1.1885 -0.9232 -0.0848
  265MOL0     C35689  -1.354   2.779   1.178  0.0096 -0.3950  0.7567
  265MOL0     C35690  -1.242   2.763   1.253 -0.7910  0.9640  0.1233
  265MOL0     N35691  -0.541   2.796   1.091 -0.0758 -0.6098 -0.5158
  265MOL0     N35692  -0.471   2.768   0.992 -0.3037 -0.0923  0.1705
  265MOL0     C35693   0.706   2.472   0.926  0.3513 -0.1596 -1.0175
  265MOL0     C35694   0.818   2.461   0.998 -0.6053 -0.5346  0.8123
  265MOL0     C35695   1.156   2.227   1.228 -0.0344  0.3096 -1.2339
  265MOL0     C35696   1.202   2.142   1.331 -0.2047  0.6281  0.6384
  265MOL0     C35697   1.336   2.106   1.340  0.5617 -0.4694  0.6424
  265MOL0     C35698   1.427   2.172   1.255 -0.2908 -0.6355  0.3309
  265MOL0     O35699   1.560   2.150   1.258  0.2479  0.1816  0.0818
  265MOL0     C35700   1.621   2.052   1.339 -0.6752  0.6770  0.7411
  265MOL0     C35701   1.770   2.053   1.294  1.2364  0.3234 -0.8321
  265MOL0     C35702   1.853   1.930   1.330  0.6296  0.0633  0.2222
  265MOL0     C35703   2.003   1.935   1.287 -0.3881 -0.6346  0.7032
  265MOL0     C35704   2.049   2.001   1.158 -1.2921 -1.4204 -0.2061
  265MOL0     C35705   2.098   2.057   1.062 -0.2936 -0.2429  0.6425
  265MOL0     C35706   1.387   2.274   1.172 -0.4308 -0.7996  0.3684
  265MOL0     C35707   1.252   2.297   1.147  0.8740  0.7723  0.3827
  265MOL0     H35708   0.802   2.126   1.054 -0.9761  1.3976  2.2333
  265MOL0     H35709   0.591   2.151   0.958 -1.1498  0.2347  1.4164
  265MOL0     H35710   0.354   2.247   0.813  3.0007  1.7452 -2.5289
  265MOL0     H35711   0.391   2.284   0.988  1.0255 -0.5898  0.6432
  265MOL0     H35712   0.285   2.511   0.955  3.4472 -2.2694  1.3155
  265MOL0     H35713   0.265   2.474   0.791  1.0077  1.8318  0.5026
  265MOL0     H35714   0.112   2.274   0.861  0.3793  0.7176 -1.4747
  265MOL0     H35715   0.134   2.322   1.031  0.3133  0.9686  0.8953
  265MOL0     H35716   0.045   2.541   0.992 -3.3741  1.7447 -1.3688
  265MOL0     H35717  -0.005   2.500   0.826 -3.2572 -1.6453  0.0801
  265MOL0     H35718  -0.131   2.304   0.902  2.2032 -1.3363  0.5496
  265MOL0     H35719  -0.084   2.341   1.069 -0.7900  1.3624  1.6749
  265MOL0     H35720  -0.320   2.398   1.009  0.8402 -0.1202  1.2399
  265MOL0     H35721  -0.231   2.534   1.076 -1.4214  1.6848 -1.2769
  265MOL0     H35722  -0.204   2.637   0.875  0.2358 -0.1606 -0.3778
  265MOL0     H35723  -0.222   2.495   0.780 -2.3193  2.6249 -1.7449
  265MOL0     H35724  -0.456   2.464   0.840 -0.3540  1.2316 -2.3278
  265MOL0     H35725  -0.431   2.629   0.771 -0.6240  0.3825  0.5725
  265MOL0     H35726  -0.598   2.475   1.050  1.8633 -0.2506  0.5364
  265MOL0     H35727  -0.681   2.775   1.309 -1.4011  1.2133  1.0034
  265MOL0     H35728  -0.800   2.751   1.183 -0.4925 -2.2724 -0.6653
  265MOL0     H35729  -0.668   2.519   1.334 -1.0980 -1.1609  0.3818
  265MOL0     H35730  -0.782   2.500   1.203 -4.0758  1.7361 -0.8257
  265MOL0     H35731  -0.826   2.647   1.464  3.8280  1.9338 -2.9380
  265MOL0     H35732  -0.894   2.482   1.427  2.8418 -2.5926 -1.4574
  265MOL0     H35733  -1.002   2.615   1.218 -0.4689 -0.9976 -0.2967
  265MOL0     H35734  -0.958   2.759   1.318  2.1346 -0.6849 -3.2532
  265MOL0     H35735  -1.291   2.470   1.395  0.4207  0.7365  0.6319
  265MOL0     H35736  -1.610   2.455   1.208 -0.3608 -2.5963  1.1795
  265MOL0     H35737  -1.487   2.366   1.274 -0.8466 -0.9615  0.3382
  265MOL0     H35738  -1.581   2.467   1.387  0.9198  2.0381  0.5301
  265MOL0     H35739  -1.834   2.934   1.160 -1.4788  0.2523  0.6992
  265MOL0     H35740  -2.027   2.971   1.003  1.5197  1.3699  0.3156
  265MOL0     H35741  -1.965   3.060   0.594  3.0751 -1.0338  3.3400
  265MOL0     H35742  -1.952   2.882   0.560 -0.4623  0.3204 -3.1453
  265MOL0     H35743  -2.204   2.890   0.567 -2.0441  2.3384  0.4111
  265MOL0     H35744  -2.194   3.057   0.559 -1.1033 -0.9555 -0.9442
  265MOL0     H35745  -2.064   2.879   0.352  1.5662  0.5192  1.4072
  265MOL0     H35746  -2.073   3.053   0.335 -3.6977  2.2634 -2.8045
  265MOL0     H35747  -2.290   2.849   0.322 -0.3514  0.4160  1.8950
  265MOL0     H35748  -2.328   3.022   0.349  0.4999  0.5971 -0.1721
  265MOL0     H35749  -2.200   2.903   0.101  0.9197  0.1162  1.4585
  265MOL0     H35750  -2.198   3.075   0.138  0.1600  0.2442  2.9890
  265MOL0     H35751  -2.472   2.926   0.105 -1.6221  1.7829 -1.7193
  265MOL0     H35752  -2.439   3.100   0.126  1.2975  2.2860 -0.7494
  265MOL0     H35753  -2.308   2.945  -0.093 -1.4473 -1.0657 -1.5475
  265MOL0     H35754  -2.292   3.115  -0.055 -1.6995  0.9147 -0.3157
  265MOL0     H35755  -2.524   3.153  -0.137 -0.2723 -0.2753 -4.0293
  265MOL0     H35756  -2.564   2.977  -0.119  0.3799 -1.1341 -0.0698
  265MOL0     H35757  -1.758   2.912   0.667  2.2666 -0.4248  0.6686
  265MOL0     H35758  -1.588   2.848   0.815  0.7625  0.5499  3.2609
  265MOL0     H35759  -1.366   2.874   1.127  0.9065 -0.2488  0.8088
  265MOL0     H35760  -1.160   2.834   1.241 -1.1664  1.3330 -0.3100
  265MOL0     H35761   0.681   2.573   0.896  0.7474  0.5746  0.9826
  265MOL0     H35762   0.878   2.551   1.006 -1.7135  0.0855  3.0560
  265MOL0     H35763   1.134   2.096   1.402  2.3099 -0.8005  2.2892
  265MOL0     H35764   1.368   2.021   1.399  0.2596  1.9099  4.6092
  265MOL0     H35765   1.634   2.071   1.446 -0.1215  1.1857  0.5863
  265MOL0     H35766   1.576   1.953   1.323  0.8012  0.4631 -3.2465
  265MOL0     H35767   1.807   2.143   1.344  0.2017 -0.5977  1.7287
  265MOL0     H35768   1.766   2.061   1.185  2.8712 -1.3652 -1.0615
  265MOL0     H35769   1.803   1.842   1.289 -2.1459  0.5012  2.3671
  265MOL0     H35770   1.855   1.919   1.438  1.0851  0.1000  0.2194
  265MOL0     H35771   2.034   1.830   1.281  2.1425  0.0562  0.2873
  265MOL0     H35772   2.066   1.972   1.368  0.8061 -2.2420  0.5703
  265MOL0     H35773   2.144   2.101   0.976  0.2774  0.4223  1.2701
  265MOL0     H35774   1.449   2.331   1.105 -2.2053  0.0127 -0.6533
  265MOL0     H35775   1.218   2.376   1.080  1.6758  1.0208  0.2659
  266MOL0     O35776   6.431  10.978   6.600 -0.1753 -0.1599  0.1924
  266MOL0     C35777   6.508  10.884   6.594  0.4965  0.9090 -0.4928
  266MOL0     O35778   6.472  10.760   6.544  0.4483 -1.1594 -0.2335
  266MOL0     C35779   6.338  10.738   6.559 -0.4267 -0.3107 -1.0313
  266MOL0     C35780   6.276  10.724   6.684  0.6833 -0.3985  0.3011
  266MOL0     C35781   6.147  10.681   6.697  1.0230  0.4908  0.6845
  266MOL0     C35782   6.067  10.674   6.577 -0.3361 -0.7555 -0.5323
  266MOL0     O35783   5.934  10.665   6.584 -0.3276  0.3901  0.1767
  266MOL0     C35784   5.864  10.667   6.707  0.0684 -0.3194 -0.3686
  266MOL0     C35785   5.718  10.631   6.696  0.8536  0.3127 -0.0810
  266MOL0     C35786   5.643  10.641   6.830  0.1220  0.0375  0.0147
  266MOL0     C35787   5.636  10.504   6.898 -0.6512  0.4399 -0.5334
  266MOL0     C35788   5.542  10.532   7.013  0.4035  0.1800 -0.9425
  266MOL0     C35789   5.526  10.403   7.098 -0.0641  0.4654 -0.2751
  266MOL0     C35790   5.428  10.295   7.045  0.0817 -0.4478 -0.4862
  266MOL0     C35791   5.372  10.207   7.165  0.4422  0.5558  0.4033
  266MOL0     N35792   5.267  10.104   7.127 -0.7884 -0.5567 -0.5595
  266MOL0     C35793   5.278   9.971   7.149 -0.0031 -0.6532 -0.2532
  266MOL0     C35794   5.169   9.915   7.086 -0.6656  0.2038 -0.4751
  266MOL0     C35795   5.127   9.777   7.106  0.4138 -0.9671  0.7209
  266MOL0     C35796   5.001   9.743   7.019 -0.7335 -0.0072  0.2422
  266MOL0     C35797   5.025   9.720   6.868  0.4507  0.0556  0.0663
  266MOL0     C35798   5.134   9.618   6.829  0.1419  0.4198  0.7976
  266MOL0     O35799   5.137   9.498   6.902  0.1797 -1.0029 -0.1501
  266MOL0     C35800   5.032   9.411   6.884 -0.5475 -1.0675  0.1297
  266MOL0     C35801   4.935   9.421   6.789 -0.5339 -0.2718  0.0775
  266MOL0     C35802   4.839   9.320   6.783  0.0821  0.0684  0.7725
  266MOL0     C35803   4.738   9.339   6.668  0.4342 -0.7013 -0.1167
  266MOL0     C35804   4.833   9.222   6.877 -0.0751  0.3975 -0.1669
  266MOL0     C35805   4.731   9.112   6.878 -0.2748  0.4747 -0.1689
  266MOL0     O35806   4.695   9.055   6.762  0.3184  0.1106 -0.9211
  266MOL0     C35807   4.657   8.923   6.751  0.2586  0.4373 -0.4138
  266MOL0     C35808   4.717   8.815   6.823  0.3181  0.9895  0.1448
  266MOL0     C35809   4.706   8.675   6.787  0.6254  0.4028 -0.5450
  266MOL0     C35810   4.628   8.641   6.677 -0.0990  0.1498  0.2806
  266MOL0     O35811   4.615   8.513   6.645 -0.6097 -0.5065 -0.2310
  266MOL0     C35812   4.541   8.472   6.527 -0.0838 -0.6063  0.3004
  266MOL0     C35813   4.556   8.312   6.499  0.2584  0.1505 -0.4282
  266MOL0     C35814   4.476   8.266   6.376 -0.0830 -0.4886  0.8945
  266MOL0     C35815   4.509   8.120   6.354  0.0458  0.2978  0.0356
  266MOL0     C35816   4.459   8.078   6.210 -0.7976 -0.1727 -0.2070
  266MOL0     C35817   4.474   7.928   6.186 -0.2194  0.6618  0.5106
  266MOL0     C35818   4.443   7.893   6.045  0.7553  0.4452 -0.1941
  266MOL0     C35819   4.459   7.743   6.030  0.0638 -0.1093 -0.0314
  266MOL0    Cl35820   4.636   7.700   6.047 -0.0193  0.0756 -0.1071
  266MOL0     C35821   4.574   8.742   6.602 -0.2183  0.0952 -0.0605
  266MOL0     C35822   4.580   8.882   6.642 -0.5169 -0.0586  0.5075
  266MOL0     O35823   4.698   9.072   6.990  0.6858  0.0730 -0.2322
  266MOL0     C35824   4.933   9.213   6.971 -0.3985  0.1364 -0.0367
  266MOL0     C35825   5.027   9.309   6.979 -0.9934  0.7293 -0.3331
  266MOL0     N35826   5.103  10.018   7.017  0.2854  0.0426 -0.0038
  266MOL0     N35827   5.168  10.129   7.043  0.2583 -0.1745 -0.0075
  266MOL0     C35828   6.128  10.688   6.455 -0.0363 -0.2067 -0.4765
  266MOL0     C35829   6.267  10.709   6.446 -0.5455 -0.5381  0.0006
  266MOL0     C35830   6.647  10.907   6.609 -0.1411 -0.1134 -0.4790
  266MOL0     C35831   6.687  11.027   6.670  0.9980 -0.0214  0.2465
  266MOL0     C35832   6.823  11.066   6.687 -0.7417 -0.5301 -0.8280
  266MOL0     C35833   6.920  10.969   6.647  0.1800  0.0829  0.9362
  266MOL0     O35834   7.057  10.993   6.654 -0.5897 -0.0254 -0.6002
  266MOL0     C35835   7.119  11.116   6.715 -0.0199 -0.6839  1.4822
  266MOL0     C35836   7.266  11.101   6.749  0.0905 -0.4095 -0.3679
  266MOL0     C35837   7.358  11.095   6.631  0.0851 -0.1246  0.8990
  266MOL0     C35838   7.327  10.984   6.533  0.4544 -0.0855 -0.2871
  266MOL0     C35839   7.444  10.958   6.452  0.2180  0.2711  0.5351
  266MOL0     C35840   7.550  10.956   6.389 -0.3432  0.2338 -0.3809
  266MOL0     C35841   6.877  10.862   6.567  0.4932 -0.4263 -0.1640
  266MOL0     C35842   6.743  10.827   6.552  0.2196 -0.6654  0.4938
  266MOL0     H35843   6.334  10.741   6.774 -0.0544 -2.4723  1.2381
  266MOL0     H35844   6.101  10.683   6.795 -0.1289 -1.0669  0.2210
  266MOL0     H35845   5.913  10.598   6.775 -1.1955 -0.4704  0.4248
  266MOL0     H35846   5.874  10.765   6.756  1.4213  0.6367 -2.4199
  266MOL0     H35847   5.677  10.712   6.635  1.0729 -0.6471 -1.5394
  266MOL0     H35848   5.708  10.536   6.643  1.2462  0.1247  0.1731
  266MOL0     H35849   5.697  10.706   6.900 -0.9936  0.1520  0.8023
  266MOL0     H35850   5.544  10.676   6.798  0.4144  0.3494 -0.5565
  266MOL0     H35851   5.605  10.421   6.834 -0.2233 -1.2152  1.3056
  266MOL0     H35852   5.742  10.482   6.918 -0.2882 -0.1275 -2.8209
  266MOL0     H35853   5.584  10.605   7.083  2.3543 -1.7799  0.0559
  266MOL0     H35854   5.448  10.572   6.973  0.3005  0.5583 -0.3353
  266MOL0     H35855   5.625  10.365   7.129  0.1201 -0.9208 -2.3557
  266MOL0     H35856   5.471  10.438   7.186 -0.7169 -0.5774 -0.2557
  266MOL0     H35857   5.345  10.335   6.987 -1.1659 -1.4603  0.5319
  266MOL0     H35858   5.483  10.223   6.983 -2.1491 -2.1550 -0.6021
  266MOL0     H35859   5.320  10.280   7.227 -0.9951  1.2386 -1.4808
  266MOL0     H35860   5.454  10.162   7.221  0.2031  0.4290  0.6521
  266MOL0     H35861   5.346   9.912   7.211  0.1470  1.2255  1.4850
  266MOL0     H35862   5.212   9.709   7.092  0.0253 -1.3314  0.0500
  266MOL0     H35863   5.087   9.779   7.208 -1.1277  1.8347  0.1618
  266MOL0     H35864   4.922   9.816   7.041  0.2529  0.7408  1.3851
  266MOL0     H35865   4.954   9.652   7.056  1.3127 -0.9004  0.7592
  266MOL0     H35866   5.059   9.820   6.838 -2.3732  1.0586 -0.1022
  266MOL0     H35867   4.934   9.698   6.812  1.7140 -0.1886 -2.0049
  266MOL0     H35868   5.228   9.673   6.827 -0.4351  1.4833 -1.8157
  266MOL0     H35869   5.117   9.598   6.723 -0.4319  0.4677  0.8746
  266MOL0     H35870   4.938   9.505   6.721  1.5973 -1.0924 -0.9502
  266MOL0     H35871   4.775   9.412   6.596 -0.0419 -0.1711  0.1714
  266MOL0     H35872   4.727   9.250   6.605 -2.3529  0.4127 -1.3793
  266MOL0     H35873   4.645   9.370   6.715  0.6606 -1.3484  0.7861
  266MOL0     H35874   4.773   8.832   6.914  0.4295 -0.6007  0.3899
  266MOL0     H35875   4.747   8.598   6.852 -0.2480  0.4599  0.1024
  266MOL0     H35876   4.433   8.493   6.530  0.2290  1.1631  0.1625
  266MOL0     H35877   4.590   8.523   6.443  0.3367 -0.3159  0.7188
  266MOL0     H35878   4.663   8.289   6.492  0.6071 -0.2192  3.7665
  266MOL0     H35879   4.521   8.263   6.590  0.5479 -0.3587 -0.5884
  266MOL0     H35880   4.500   8.321   6.285 -0.3506 -2.4235 -0.4228
  266MOL0     H35881   4.368   8.281   6.387 -0.3929 -0.3798 -1.7973
  266MOL0     H35882   4.617   8.108   6.361  0.1251  1.0228  0.1690
  266MOL0     H35883   4.463   8.067   6.438 -1.9778 -0.1316 -1.2685
  266MOL0     H35884   4.520   8.144   6.149  1.1495  0.7708  2.5726
  266MOL0     H35885   4.353   8.105   6.202 -0.7624 -0.2228 -0.9474
  266MOL0     H35886   4.577   7.904   6.213  0.1224  0.3622 -1.0168
  266MOL0     H35887   4.409   7.874   6.256  0.6488  0.9069  1.5308
  266MOL0     H35888   4.514   7.940   5.976 -1.1462 -0.4043 -2.8815
  266MOL0     H35889   4.342   7.926   6.018  1.0363  0.3839 -1.3653
  266MOL0     H35890   4.429   7.717   5.928 -1.5087  0.0629  0.3593
  266MOL0     H35891   4.395   7.682   6.095 -1.2074 -0.9079 -1.9370
  266MOL0     H35892   4.522   8.728   6.507  1.8004 -1.3819 -1.0266
  266MOL0     H35893   4.538   8.960   6.579 -0.6960  1.3072  2.2624
  266MOL0     H35894   4.933   9.138   7.050 -2.5291  0.2360  0.1304
  266MOL0     H35895   5.103   9.297   7.056  0.2497 -3.3253 -1.9068
  266MOL0     H35896   6.056  10.680   6.374 -0.6338 -0.4289  0.0680
  266MOL0     H35897   6.321  10.733   6.355  2.5892  0.4112  1.9533
  266MOL0     H35898   6.610  11.102   6.686 -1.2631 -1.6071 -2.2838
  266MOL0     H35899   6.855  11.162   6.725 -0.1053 -0.9102 -0.3966
  266MOL0     H35900   7.105  11.202   6.649  0.3118 -2.8025 -1.5643
  266MOL0     H35901   7.060  11.144   6.803 -0.7168 -0.2969  0.9053
  266MOL0     H35902   7.287  11.014   6.812 -0.2222 -0.4975 -0.3797
  266MOL0     H35903   7.297  11.180   6.816  0.5968 -2.1334  1.5332
  266MOL0     H35904   7.462  11.084   6.662 -0.0591 -2.9228  0.6416
  266MOL0     H35905   7.352  11.190   6.577 -1.7496 -1.2483 -1.0135
  266MOL0     H35906   7.249  11.016   6.464  1.6117  0.5530 -1.3346
  266MOL0     H35907   7.291  10.893   6.584 -3.2570  0.2657 -1.9346
  266MOL0     H35908   7.642  10.966   6.336 -1.7580 -1.4988 -3.4358
  266MOL0     H35909   6.958  10.796   6.536  1.7986  0.8710  0.4217
  266MOL0     H35910   6.718  10.727   6.518 -0.4837 -0.5261  0.5785
  267MOL0     O35911   8.803   9.329   4.296 -0.1726  0.5454 -0.0460
  267MOL0     C35912   8.860   9.336   4.182  0.3108 -0.1037 -0.5068
  267MOL0     O35913   8.796   9.320   4.065 -0.5698 -0.0498 -0.3387
  267MOL0     C35914   8.657   9.312   4.053 -0.0900 -0.9147  0.5587
  267MOL0     C35915   8.568   9.389   4.119  0.8504 -1.0211 -0.0916
  267MOL0     C35916   8.430   9.378   4.100  0.1379  0.3695  0.5325
  267MOL0     C35917   8.378   9.272   4.023 -0.4687  0.6230  0.2069
  267MOL0     O35918   8.245   9.236   4.027  0.3838  0.2135  0.7771
  267MOL0     C35919   8.163   9.296   4.119  0.9347 -0.1207  0.3860
  267MOL0     C35920   8.050   9.195   4.124 -0.4569 -0.2856 -0.5617
  267MOL0     C35921   7.936   9.246   4.221 -0.1119  0.2552  0.2158
  267MOL0     C35922   7.978   9.265   4.363 -0.1519 -0.1470  1.2281
  267MOL0     C35923   7.860   9.310   4.449  1.2987 -0.2939  0.9315
  267MOL0     C35924   7.892   9.329   4.595 -0.1247  0.5856  0.4037
  267MOL0     C35925   7.783   9.408   4.671  0.1867  0.1935 -0.4069
  267MOL0     C35926   7.654   9.330   4.675  0.4053  0.1503  0.0855
  267MOL0     N35927   7.675   9.202   4.736 -0.2598 -0.0550  0.1460
  267MOL0     C35928   7.689   9.166   4.867 -0.4720  0.9630 -0.3288
  267MOL0     C35929   7.664   9.030   4.863 -0.8207  0.1753  0.8422
  267MOL0     C35930   7.644   8.937   4.991 -0.3568  0.0557  0.1915
  267MOL0     C35931   7.502   8.944   5.060 -0.2490  0.1254  0.3405
  267MOL0     C35932   7.462   9.087   5.090  0.3584  0.7868  0.1605
  267MOL0     C35933   7.334   9.087   5.181 -0.6303 -1.0017  0.2297
  267MOL0     O35934   7.300   9.224   5.196  0.4302  0.1976 -0.3218
  267MOL0     C35935   7.192   9.253   5.279 -0.4856 -1.0536  0.8731
  267MOL0     C35936   7.170   9.386   5.308 -0.2842  0.0445 -0.0573
  267MOL0     C35937   7.064   9.435   5.387  0.0134  0.0585 -0.1095
  267MOL0     C35938   7.052   9.590   5.407  0.3763  0.0446  0.3825
  267MOL0     C35939   6.974   9.341   5.441  0.3248 -0.0480  1.1313
  267MOL0     C35940   6.848   9.378   5.519  0.4041  0.1180  0.3884
  267MOL0     O35941   6.781   9.271   5.567  0.0223  0.3087  0.0740
  267MOL0     C35942   6.651   9.264   5.614 -0.3591  0.0726  0.3641
  267MOL0     C35943   6.562   9.366   5.628 -0.0055 -0.1710 -0.0299
  267MOL0     C35944   6.431   9.361   5.667 -0.3072 -0.0387  0.3559
  267MOL0     C35945   6.380   9.250   5.710  0.3052  0.5127  0.3982
  267MOL0     O35946   6.250   9.243   5.745  0.7707  0.1462  0.1499
  267MOL0     C35947   6.176   9.124   5.709  0.3099 -1.3903  0.1206
  267MOL0     C35948   6.029   9.139   5.770 -0.1694 -0.0636  0.3680
  267MOL0     C35949   5.939   9.028   5.712  0.6386  0.7571 -0.7201
  267MOL0     C35950   5.796   9.047   5.758  0.1398 -0.4242  0.2210
  267MOL0     C35951   5.705   8.939   5.691  0.5314 -0.4665 -1.1869
  267MOL0     C35952   5.559   8.948   5.737 -0.3254 -0.2148  0.4113
  267MOL0     C35953   5.468   8.841   5.692  0.4350  0.0613  0.2279
  267MOL0     C35954   5.452   8.836   5.539 -0.0103 -1.0609 -0.0187
  267MOL0    Cl35955   5.398   8.992   5.481 -0.5127  0.1427 -0.2599
  267MOL0     C35956   6.475   9.132   5.714  0.6395  0.0301  0.2748
  267MOL0     C35957   6.610   9.146   5.663  1.2780 -0.2298 -0.7169
  267MOL0     O35958   6.817   9.499   5.541 -0.0804 -0.5587  0.3776
  267MOL0     C35959   7.000   9.207   5.412 -0.1564 -1.2519 -0.5812
  267MOL0     C35960   7.109   9.169   5.343  0.3278  0.2732  0.5185
  267MOL0     N35961   7.641   8.992   4.734  0.4732 -0.0803 -0.2412
  267MOL0     N35962   7.650   9.089   4.658 -0.9033  0.5924  0.4137
  267MOL0     C35963   8.470   9.191   3.961  0.2115  0.2299 -1.2047
  267MOL0     C35964   8.607   9.214   3.972 -1.1031  0.0812  1.2727
  267MOL0     C35965   8.999   9.376   4.177  0.2816 -0.0246  0.1008
  267MOL0     C35966   9.070   9.409   4.291 -0.4121 -0.0314  0.3777
  267MOL0     C35967   9.203   9.460   4.282  0.2143  0.3889 -0.5961
  267MOL0     C35968   9.262   9.472   4.161 -0.3019  0.4186  0.7585
  267MOL0     O35969   9.389   9.506   4.138  0.2636 -0.2704 -0.0811
  267MOL0     C35970   9.473   9.532   4.257  0.7450 -1.4995 -0.9051
  267MOL0     C35971   9.623   9.556   4.214 -0.7289  0.1030 -0.0460
  267MOL0     C35972   9.701   9.522   4.345  0.7823 -0.2135  0.0773
  267MOL0     C35973   9.855   9.527   4.300  0.9125  0.2011  0.2275
  267MOL0     C35974   9.888   9.401   4.223 -0.3677  0.2835  0.1857
  267MOL0     C35975   9.922   9.311   4.146 -0.0607  0.1838  0.7217
  267MOL0     C35976   9.187   9.433   4.044  0.3856 -0.2756 -0.2914
  267MOL0     C35977   9.057   9.398   4.048 -0.0565  0.5963 -0.4261
  267MOL0     H35978   8.605   9.461   4.191  2.0709 -1.3810 -0.3413
  267MOL0     H35979   8.363   9.439   4.159  0.7277  0.4433  1.1471
  267MOL0     H35980   8.208   9.292   4.219  0.1065 -2.0259  0.7180
  267MOL0     H35981   8.122   9.395   4.098  1.5390 -0.4627 -2.8270
  267MOL0     H35982   8.017   9.170   4.023  1.0180 -1.5190 -0.7820
  267MOL0     H35983   8.098   9.105   4.164 -0.3300  1.1089  2.6948
  267MOL0     H35984   7.896   9.343   4.189 -0.6490  0.3081  1.0360
  267MOL0     H35985   7.856   9.172   4.215 -1.2422  1.3436  1.2269
  267MOL0     H35986   8.025   9.172   4.397  0.1995 -0.1868  0.6540
  267MOL0     H35987   8.053   9.344   4.364  3.0709 -2.8574 -1.1534
  267MOL0     H35988   7.833   9.408   4.408 -0.1349 -1.0035  0.1090
  267MOL0     H35989   7.774   9.243   4.440  1.0368  0.1705 -0.2297
  267MOL0     H35990   7.924   9.235   4.641  0.4714  0.1162 -0.9174
  267MOL0     H35991   7.990   9.377   4.604  0.5766 -0.4515 -1.2121
  267MOL0     H35992   7.812   9.424   4.775  1.6840  4.3822 -1.2847
  267MOL0     H35993   7.771   9.509   4.631 -1.3782  0.4362  0.6023
  267MOL0     H35994   7.602   9.318   4.579 -1.7810  1.3631  1.0358
  267MOL0     H35995   7.582   9.385   4.736  2.0682 -0.0313  2.3342
  267MOL0     H35996   7.713   9.230   4.951 -0.2616 -0.8743  1.0734
  267MOL0     H35997   7.666   8.837   4.955 -0.5919 -1.1928  3.2615
  267MOL0     H35998   7.717   8.966   5.067  1.6956  0.1331 -1.6826
  267MOL0     H35999   7.500   8.890   5.155 -0.6934  2.0730  1.5065
  267MOL0     H36000   7.432   8.883   5.001  0.4175 -1.7795  1.4435
  267MOL0     H36001   7.436   9.141   4.998  1.6710 -2.4642 -2.3545
  267MOL0     H36002   7.547   9.140   5.134  1.7291 -0.2008 -1.1879
  267MOL0     H36003   7.354   9.053   5.283 -1.1722  2.0436  1.4560
  267MOL0     H36004   7.254   9.037   5.126 -1.9905  3.7875 -2.7096
  267MOL0     H36005   7.234   9.459   5.259  0.8489 -0.5926  0.4226
  267MOL0     H36006   6.962   9.621   5.354  0.6888  2.9160  1.3624
  267MOL0     H36007   7.040   9.614   5.513  1.0686 -0.1317  0.5082
  267MOL0     H36008   7.142   9.648   5.384  0.6202 -0.9989 -1.5071
  267MOL0     H36009   6.597   9.467   5.607  1.7265 -1.0160 -1.4895
  267MOL0     H36010   6.371   9.451   5.665  3.3317  2.5892 -1.3716
  267MOL0     H36011   6.173   9.111   5.601  1.2147 -2.6496  0.2173
  267MOL0     H36012   6.215   9.033   5.756  2.5322 -0.3919  0.3728
  267MOL0     H36013   6.037   9.122   5.877 -1.9333  2.2598  0.9464
  267MOL0     H36014   6.001   9.243   5.752  2.0160  0.7135  1.2378
  267MOL0     H36015   5.979   8.927   5.726 -1.8548 -0.9885 -4.4135
  267MOL0     H36016   5.956   9.039   5.605 -0.4464  2.3570 -0.7520
  267MOL0     H36017   5.780   9.038   5.866 -1.1177  1.0659  0.1976
  267MOL0     H36018   5.759   9.148   5.736 -1.4007 -1.0140 -0.0382
  267MOL0     H36019   5.756   8.848   5.722  0.8761  0.7242  2.2072
  267MOL0     H36020   5.716   8.952   5.583 -1.6595  2.1948 -1.1952
  267MOL0     H36021   5.553   8.953   5.846  4.1311 -3.5892  1.1037
  267MOL0     H36022   5.517   9.046   5.712 -0.1376 -0.4998 -1.1314
  267MOL0     H36023   5.374   8.873   5.738  1.5629  1.7723  1.5069
  267MOL0     H36024   5.483   8.741   5.733 -1.5907 -0.8580 -1.1397
  267MOL0     H36025   5.381   8.755   5.526 -0.3222 -1.2692  2.4929
  267MOL0     H36026   5.549   8.803   5.499 -0.3280 -2.2544  0.1634
  267MOL0     H36027   6.432   9.037   5.743 -0.7402  0.1772 -1.1486
  267MOL0     H36028   6.671   9.056   5.668 -0.1211 -1.1552  1.9378
  267MOL0     H36029   6.922   9.138   5.443 -1.0421 -0.0618 -0.0848
  267MOL0     H36030   7.113   9.062   5.323  4.2323 -0.0021  1.9135
  267MOL0     H36031   8.439   9.094   3.924 -0.8637 -0.0370  0.2941
  267MOL0     H36032   8.674   9.152   3.914 -2.0284  1.5509 -1.5332
  267MOL0     H36033   9.023   9.393   4.388 -1.7708  0.1086 -0.2339
  267MOL0     H36034   9.254   9.475   4.376  3.9665  1.5822 -2.6281
  267MOL0     H36035   9.434   9.614   4.318  1.9306 -2.7790  1.6973
  267MOL0     H36036   9.463   9.442   4.318  1.6198 -0.6963  0.4427
  267MOL0     H36037   9.655   9.657   4.189  0.2710 -0.2080 -0.0527
  267MOL0     H36038   9.654   9.492   4.130 -0.3675  0.7007 -0.3702
  267MOL0     H36039   9.671   9.423   4.380 -2.8125  0.4869 -0.6351
  267MOL0     H36040   9.680   9.588   4.430  6.3118 -0.5981  2.1596
  267MOL0     H36041   9.909   9.528   4.395 -1.5183 -0.5153  1.6936
  267MOL0     H36042   9.875   9.619   4.244  0.4615 -1.1333 -2.2628
  267MOL0     H36043   9.921   9.228   4.078  0.8539 -0.0363  0.9700
  267MOL0     H36044   9.234   9.439   3.946  2.1850  1.3391  0.6031
  267MOL0     H36045   8.993   9.380   3.962 -1.4370 -3.9805  1.2350
  268MOL0     O36046   3.880   7.907   5.438 -0.2441  0.3264 -0.0494
  268MOL0     C36047   3.875   7.784   5.444  0.4657  0.5805 -0.0170
  268MOL0     O36048   3.763   7.706   5.476 -0.0651  0.4228  0.6837
  268MOL0     C36049   3.645   7.755   5.527 -0.3368 -0.3482 -0.2028
  268MOL0     C36050   3.603   7.694   5.644 -0.3162  0.0671 -0.1849
  268MOL0     C36051   3.478   7.723   5.686  0.5932 -0.4509 -0.2694
  268MOL0     C36052   3.389   7.811   5.624  0.2943 -1.8099 -0.5256
  268MOL0     O36053   3.276   7.818   5.692  0.2062 -0.2518 -0.0257
  268MOL0     C36054   3.175   7.907   5.641  0.5727 -0.1007  0.6386
  268MOL0     C36055   3.055   7.894   5.718  0.0111 -0.1046  0.4294
  268MOL0     C36056   2.938   7.973   5.656 -0.1638  1.1404  0.4212
  268MOL0     C36057   2.822   8.012   5.748  0.2456 -0.5597  0.0984
  268MOL0     C36058   2.704   8.077   5.678 -1.4173  0.7923 -0.2358
  268MOL0     C36059   2.590   7.977   5.635 -0.1974  0.8456 -0.0718
  268MOL0     C36060   2.517   7.913   5.754  0.0887 -1.0852 -1.0490
  268MOL0     C36061   2.387   7.843   5.723  0.4528  0.2046 -0.2048
  268MOL0     N36062   2.284   7.944   5.687  0.7151  0.4764 -0.3344
  268MOL0     C36063   2.189   8.008   5.771 -0.4990  0.2649 -0.4580
  268MOL0     C36064   2.121   8.099   5.691  0.3023  0.8394 -0.7793
  268MOL0     C36065   2.036   8.211   5.740  1.0744  0.2173  1.0616
  268MOL0     C36066   1.937   8.165   5.845  0.5104  0.2408  0.8754
  268MOL0     C36067   1.830   8.272   5.864  0.7353  0.2197  0.1796
  268MOL0     C36068   1.728   8.250   5.978  0.5156 -0.2758 -0.0340
  268MOL0     O36069   1.624   8.348   6.001 -0.5463 -0.1868  0.0344
  268MOL0     C36070   1.512   8.306   6.065  0.3503 -0.6624 -0.1959
  268MOL0     C36071   1.386   8.334   6.007  0.7162  0.1657  0.5686
  268MOL0     C36072   1.259   8.293   6.072  0.5757 -1.2645  0.0240
  268MOL0     C36073   1.140   8.336   5.990 -0.1776 -0.0429 -0.2174
  268MOL0     C36074   1.256   8.242   6.207  0.1461 -0.2149  0.3864
  268MOL0     C36075   1.140   8.204   6.277  0.5670  1.2280 -0.5553
  268MOL0     O36076   1.146   8.196   6.414  0.3774 -0.2925 -0.6893
  268MOL0     C36077   1.031   8.207   6.492  0.1895  0.1874  0.3267
  268MOL0     C36078   1.039   8.148   6.617 -0.0325  0.3728  0.5093
  268MOL0     C36079   0.931   8.168   6.710  0.1943 -0.0126  0.9962
  268MOL0     C36080   0.822   8.249   6.675  0.1148  0.8265 -0.7851
  268MOL0     O36081   0.718   8.274   6.762  0.8959  0.4199 -0.7797
  268MOL0     C36082   0.696   8.190   6.870  0.0045 -0.6037 -0.1975
  268MOL0     C36083   0.584   8.230   6.965  0.1800  0.0126 -1.0544
  268MOL0     C36084   0.450   8.231   6.894 -1.2021  0.5196  0.4614
  268MOL0     C36085   0.356   8.311   6.968  0.7611 -0.5790  0.4037
  268MOL0     C36086   0.207   8.282   6.926 -0.2323 -0.4066  0.6512
  268MOL0     C36087   0.106   8.342   7.032  0.7804 -0.6527 -0.1952
  268MOL0     C36088  -0.038   8.305   6.997  0.2417 -0.2017 -1.1142
  268MOL0     C36089  -0.140   8.380   7.082 -0.0640  0.3841 -0.5477
  268MOL0    Cl36090  -0.128   8.559   7.085 -0.5286  0.2034  0.1359
  268MOL0     C36091   0.811   8.300   6.551  0.1399  0.4350 -0.8192
  268MOL0     C36092   0.915   8.288   6.463 -0.4003 -0.2976  0.2793
  268MOL0     O36093   1.042   8.162   6.215 -0.3763 -0.3166 -0.2135
  268MOL0     C36094   1.384   8.225   6.259  0.1985  0.4157  0.2358
  268MOL0     C36095   1.502   8.257   6.193  0.1462  0.9907  0.9405
  268MOL0     N36096   2.172   8.090   5.562  0.0779 -0.1593  0.7817
  268MOL0     N36097   2.258   7.990   5.560 -0.3320  0.2921 -0.0744
  268MOL0     C36098   3.423   7.877   5.505 -0.2308  0.2016  0.2974
  268MOL0     C36099   3.555   7.848   5.462 -1.0223 -0.2216  0.1266
  268MOL0     C36100   3.982   7.705   5.386 -0.5219  0.2592  0.1555
  268MOL0     C36101   3.975   7.562   5.372  0.2488 -0.3223  0.3401
  268MOL0     C36102   4.082   7.493   5.315 -0.1578  0.6041 -0.0520
  268MOL0     C36103   4.195   7.554   5.277  0.3909 -0.1317  0.9530
  268MOL0     O36104   4.301   7.480   5.236 -0.4708 -0.0024  0.5065
  268MOL0     C36105   4.419   7.529   5.174  0.1894 -0.2315  0.2425
  268MOL0     C36106   4.500   7.414   5.133 -0.5763  0.2203  1.0512
  268MOL0     C36107   4.635   7.458   5.060  1.1335  0.1627  0.2972
  268MOL0     C36108   4.761   7.471   5.141 -0.1049  0.3676  0.0200
  268MOL0     C36109   4.884   7.468   5.062  0.1476  0.6281 -0.2435
  268MOL0     C36110   4.998   7.460   5.024  0.5778  1.5433  0.1232
  268MOL0     C36111   4.212   7.692   5.298 -0.1028  0.2048  0.1286
  268MOL0     C36112   4.111   7.765   5.361  0.6215  0.0356  0.0472
  268MOL0     H36113   3.655   7.623   5.707 -1.3473  1.0168  1.8448
  268MOL0     H36114   3.441   7.679   5.777 -0.5901  1.9960  0.5231
  268MOL0     H36115   3.201   8.013   5.637  2.7967 -0.6222 -1.9881
  268MOL0     H36116   3.158   7.849   5.549  1.4146 -3.5165  2.4432
  268MOL0     H36117   3.016   7.792   5.729 -1.6651  0.3225 -0.9281
  268MOL0     H36118   3.062   7.939   5.817 -2.3180 -2.6209  1.8991
  268MOL0     H36119   2.988   8.057   5.607  2.4767 -1.3721 -1.4550
  268MOL0     H36120   2.900   7.910   5.576  1.7552  0.7065 -0.1769
  268MOL0     H36121   2.784   7.921   5.796 -2.1340  0.1742 -0.2580
  268MOL0     H36122   2.874   8.077   5.819  1.5322  0.1626 -1.4288
  268MOL0     H36123   2.670   8.151   5.751  2.4608 -0.6507  3.4171
  268MOL0     H36124   2.735   8.128   5.587  0.6492  0.1349  0.0623
  268MOL0     H36125   2.521   8.037   5.575 -2.7773 -1.4441  0.4104
  268MOL0     H36126   2.618   7.895   5.569 -4.2352 -0.1433 -0.8063
  268MOL0     H36127   2.582   7.842   5.805 -0.7040 -1.3058 -0.3293
  268MOL0     H36128   2.497   7.990   5.829 -2.5488  0.7064 -3.3826
  268MOL0     H36129   2.357   7.786   5.811  0.7282  0.9370  0.3838
  268MOL0     H36130   2.397   7.771   5.641  1.1656  0.3216 -0.2234
  268MOL0     H36131   2.176   7.999   5.878 -1.7323  2.9398 -0.2991
  268MOL0     H36132   2.101   8.289   5.782 -0.3930  4.0015 -2.9023
  268MOL0     H36133   1.986   8.239   5.647  3.1664 -3.6205 -1.4310
  268MOL0     H36134   1.986   8.134   5.937  0.4731 -0.0735  0.7912
  268MOL0     H36135   1.876   8.078   5.818 -0.8483  1.0255  1.3315
  268MOL0     H36136   1.772   8.287   5.773 -0.0616 -0.3954  0.5663
  268MOL0     H36137   1.887   8.361   5.891 -1.4300  1.9201 -0.5883
  268MOL0     H36138   1.778   8.216   6.069 -0.5663 -0.1438  0.6287
  268MOL0     H36139   1.673   8.162   5.945  0.5791 -0.2973 -0.0780
  268MOL0     H36140   1.380   8.383   5.910  1.1234 -1.3729 -0.2696
  268MOL0     H36141   1.047   8.297   6.031  0.5609  0.0214  1.5714
  268MOL0     H36142   1.132   8.445   5.987 -0.4124 -0.0368  0.4780
  268MOL0     H36143   1.151   8.294   5.889 -0.5726  0.5445 -0.5075
  268MOL0     H36144   1.129   8.092   6.641 -2.9220 -4.5656  1.0788
  268MOL0     H36145   0.954   8.131   6.809  1.2757 -2.5980 -0.1340
  268MOL0     H36146   0.671   8.093   6.826  1.1101 -0.5045 -1.1138
  268MOL0     H36147   0.785   8.191   6.934  0.3562  2.2031 -0.6005
  268MOL0     H36148   0.576   8.155   7.045  0.0834 -0.6069 -1.6330
  268MOL0     H36149   0.603   8.327   7.012  0.2246  2.0990 -4.9507
  268MOL0     H36150   0.405   8.133   6.879  0.2043  0.0492 -0.9756
  268MOL0     H36151   0.455   8.272   6.793 -0.8818  1.3473  0.7982
  268MOL0     H36152   0.361   8.293   7.076 -4.4071 -0.3550  0.9237
  268MOL0     H36153   0.367   8.416   6.939 -1.1441 -0.1953  0.9545
  268MOL0     H36154   0.174   8.177   6.928 -1.8021  0.0337 -0.0092
  268MOL0     H36155   0.175   8.322   6.829 -1.6320 -1.1752  0.7684
  268MOL0     H36156   0.122   8.299   7.131 -0.2410  2.3718  1.4042
  268MOL0     H36157   0.120   8.448   7.054  2.8054 -1.2138  1.5089
  268MOL0     H36158  -0.052   8.196   6.999  2.7148 -0.5582 -0.7402
  268MOL0     H36159  -0.070   8.340   6.898 -1.7496 -0.5071 -0.6245
  268MOL0     H36160  -0.129   8.339   7.182 -0.3502  1.0229 -0.2455
  268MOL0     H36161  -0.234   8.349   7.037  0.2741 -0.1309 -0.9164
  268MOL0     H36162   0.725   8.359   6.521 -0.7436  0.5867  1.8329
  268MOL0     H36163   0.914   8.339   6.367 -0.6783 -0.8369 -0.0061
  268MOL0     H36164   1.404   8.182   6.357  0.3452 -0.0982 -0.0185
  268MOL0     H36165   1.604   8.239   6.224  0.7846  0.5901 -1.2129
  268MOL0     H36166   3.357   7.942   5.449  0.1861  0.9849  0.6924
  268MOL0     H36167   3.590   7.888   5.368  0.9566 -0.7027  0.6252
  268MOL0     H36168   3.887   7.500   5.389 -0.0315 -0.0078  0.0535
  268MOL0     H36169   4.072   7.386   5.302 -2.9537  0.6060  1.3928
  268MOL0     H36170   4.400   7.590   5.086  1.4094 -0.8571 -0.4719
  268MOL0     H36171   4.480   7.584   5.246 -3.4415  3.1543  1.0930
  268MOL0     H36172   4.446   7.368   5.051  1.4766  0.1914 -0.3540
  268MOL0     H36173   4.524   7.351   5.219  0.6512  1.2616  1.5242
  268MOL0     H36174   4.616   7.550   5.003  1.4067 -1.2729 -2.2815
  268MOL0     H36175   4.658   7.382   4.985  2.6954  1.3616 -0.5115
  268MOL0     H36176   4.767   7.393   5.218 -0.1677 -0.8229 -1.1589
  268MOL0     H36177   4.753   7.571   5.184 -1.8317  1.1352 -1.9220
  268MOL0     H36178   5.102   7.456   4.998  1.0581  0.3872  2.0303
  268MOL0     H36179   4.303   7.747   5.276 -0.3212  0.6528  0.3386
  268MOL0     H36180   4.136   7.869   5.378 -0.1586  0.3654 -0.7302
  269MOL0     O36181   3.412   0.644   2.962 -0.4221  0.7256  0.0317
  269MOL0     C36182   3.381   0.565   3.055 -0.2933 -0.6280  0.1798
  269MOL0     O36183   3.446   0.456   3.086  0.0706 -1.0144 -0.0218
  269MOL0     C36184   3.561   0.433   3.033 -0.7474  0.5322  0.6359
  269MOL0     C36185   3.610   0.446   2.898  1.0704 -0.5095  0.1899
  269MOL0     C36186   3.736   0.415   2.858 -0.0564  0.1548  0.8745
  269MOL0     C36187   3.832   0.378   2.953 -0.4838  0.5649 -0.5738
  269MOL0     O36188   3.962   0.341   2.922  0.2338  0.2772 -0.2772
  269MOL0     C36189   4.012   0.404   2.803 -0.5916  0.5544  0.2685
  269MOL0     C36190   4.159   0.367   2.803 -0.2105 -0.3522 -0.2592
  269MOL0     C36191   4.217   0.431   2.681  0.2789  0.4035  0.1114
  269MOL0     C36192   4.362   0.442   2.683  0.1140  0.0446 -0.1667
  269MOL0     C36193   4.439   0.316   2.684 -1.3034  0.9727 -0.3584
  269MOL0     C36194   4.578   0.349   2.709 -0.5174 -0.1402  0.2633
  269MOL0     C36195   4.667   0.218   2.708 -0.3508  0.2061 -0.6094
  269MOL0     C36196   4.809   0.245   2.771 -0.0182 -0.3915  0.2847
  269MOL0     N36197   4.819   0.269   2.911  0.4799 -0.0860 -0.8947
  269MOL0     C36198   4.776   0.178   3.003  0.2169 -0.9542 -0.2613
  269MOL0     C36199   4.831   0.225   3.120 -0.5264  0.5329  0.2845
  269MOL0     C36200   4.839   0.155   3.254 -0.1714 -0.8010 -0.6350
  269MOL0     C36201   4.727   0.183   3.348  0.5135 -0.6646  0.1117
  269MOL0     C36202   4.750   0.320   3.413  0.0836 -0.2239 -0.8384
  269MOL0     C36203   4.635   0.354   3.507 -0.3347  0.3763  0.2018
  269MOL0     O36204   4.629   0.503   3.523  0.1669  0.0411 -0.3780
  269MOL0     C36205   4.515   0.565   3.567  0.1766  0.7701 -1.4248
  269MOL0     C36206   4.496   0.687   3.521 -0.0731  0.1458 -0.4614
  269MOL0     C36207   4.389   0.764   3.561 -0.2681 -0.8359  0.8293
  269MOL0     C36208   4.360   0.892   3.479  0.2122 -0.5664 -0.0680
  269MOL0     C36209   4.299   0.710   3.661 -0.3381 -0.5559  0.0757
  269MOL0     C36210   4.180   0.783   3.728  0.1047 -0.3764 -0.1994
  269MOL0     O36211   4.156   0.908   3.687  0.9892 -0.1546 -0.3465
  269MOL0     C36212   4.029   0.950   3.706  0.2514 -0.1075  0.0501
  269MOL0     C36213   3.938   0.943   3.603 -0.1647 -1.1043  0.0117
  269MOL0     C36214   3.815   1.002   3.625  0.2735  0.5160 -0.7823
  269MOL0     C36215   3.782   1.070   3.742  0.1235 -0.0526 -0.3905
  269MOL0     O36216   3.656   1.123   3.740  0.0354 -0.4980 -0.6338
  269MOL0     C36217   3.585   1.140   3.870  0.0345  0.0044 -1.0060
  269MOL0     C36218   3.453   1.205   3.821 -0.3667  0.3025 -0.1900
  269MOL0     C36219   3.368   1.254   3.937  0.5089  0.5339  0.4771
  269MOL0     C36220   3.222   1.252   3.888  0.7006 -0.3304 -0.2314
  269MOL0     C36221   3.113   1.301   3.987  0.0589 -0.7307  0.3293
  269MOL0     C36222   2.968   1.284   3.931  1.2220  0.5776  0.5105
  269MOL0     C36223   2.856   1.341   4.025 -0.2346  0.2917 -0.7976
  269MOL0     C36224   2.726   1.349   3.945  0.1668 -0.2239  0.3211
  269MOL0    Cl36225   2.724   1.482   3.834 -0.5422  0.3970 -0.1727
  269MOL0     C36226   3.883   1.091   3.840 -0.1868 -0.3436  0.3359
  269MOL0     C36227   4.001   1.027   3.820 -0.7493  0.3367  0.2940
  269MOL0     O36228   4.105   0.716   3.798 -0.0684 -0.1894  0.1483
  269MOL0     C36229   4.315   0.581   3.700 -0.3571  0.1252 -0.2079
  269MOL0     C36230   4.423   0.516   3.666 -0.0153  0.7227  0.2293
  269MOL0     N36231   4.895   0.345   3.092  0.5239  0.0508 -0.1012
  269MOL0     N36232   4.879   0.370   2.971  0.4403 -0.0946  0.2541
  269MOL0     C36233   3.792   0.353   3.084  0.1640  0.1123 -0.0993
  269MOL0     C36234   3.661   0.381   3.120  0.1910 -0.5795 -0.3252
  269MOL0     C36235   3.262   0.592   3.139  0.0230  0.2868 -0.5377
  269MOL0     C36236   3.164   0.684   3.097  0.4522  0.1021  0.5526
  269MOL0     C36237   3.040   0.700   3.168  0.8200 -0.1719 -0.2177
  269MOL0     C36238   3.014   0.627   3.287  0.4050 -0.0754  0.1071
  269MOL0     O36239   2.897   0.654   3.356  0.7016  0.0231  0.4366
  269MOL0     C36240   2.782   0.712   3.293  0.0354 -0.1027 -0.0250
  269MOL0     C36241   2.653   0.669   3.375  0.0778  0.0962 -0.4550
  269MOL0     C36242   2.595   0.545   3.313 -0.0288  0.4781 -0.7234
  269MOL0     C36243   2.463   0.513   3.368  0.0792  0.3052  0.2705
  269MOL0     C36244   2.398   0.386   3.312  0.4735  0.7651 -0.7482
  269MOL0     C36245   2.335   0.298   3.262  0.3350  0.5113  0.0770
  269MOL0     C36246   3.113   0.548   3.335 -0.2284  0.1197 -1.0663
  269MOL0     C36247   3.229   0.525   3.256 -0.1744 -0.1444 -0.0910
  269MOL0     H36248   3.537   0.481   2.826  0.9638 -1.1348 -0.0097
  269MOL0     H36249   3.755   0.442   2.754  1.3817  0.9784  1.3119
  269MOL0     H36250   3.967   0.367   2.711  0.4454  1.2773 -0.5470
  269MOL0     H36251   3.985   0.510   2.800 -1.4805  0.3192 -0.4561
  269MOL0     H36252   4.197   0.406   2.898  0.5955 -3.5413  0.8725
  269MOL0     H36253   4.181   0.260   2.805  2.8480  0.1930  0.9670
  269MOL0     H36254   4.183   0.370   2.597  0.5292 -0.5198  0.6659
  269MOL0     H36255   4.187   0.534   2.661  2.6179  1.0117 -0.7235
  269MOL0     H36256   4.401   0.501   2.599  0.3915  2.8484  1.7922
  269MOL0     H36257   4.395   0.505   2.766 -1.4587 -1.3969  1.6445
  269MOL0     H36258   4.389   0.244   2.750 -1.8956 -0.4999 -2.3172
  269MOL0     H36259   4.428   0.271   2.585 -0.4091  1.7318 -0.8154
  269MOL0     H36260   4.604   0.427   2.637  0.1813 -0.4537  0.1620
  269MOL0     H36261   4.581   0.374   2.815  1.9113  1.9130 -0.1825
  269MOL0     H36262   4.616   0.144   2.771 -1.4691 -0.0068 -1.7341
  269MOL0     H36263   4.691   0.186   2.607 -0.9953  1.8057 -1.2957
  269MOL0     H36264   4.863   0.326   2.722 -0.5327  0.0081  0.3680
  269MOL0     H36265   4.878   0.165   2.743 -0.1672  0.1347 -1.7793
  269MOL0     H36266   4.720   0.089   2.976 -0.5581 -0.3611 -0.6454
  269MOL0     H36267   4.845   0.048   3.232 -2.4879 -1.2485  0.5722
  269MOL0     H36268   4.933   0.189   3.298 -1.1795  0.9208  0.3242
  269MOL0     H36269   4.726   0.108   3.428 -0.0588  1.1782  1.9327
  269MOL0     H36270   4.630   0.186   3.297  0.2582  1.5847  0.5925
  269MOL0     H36271   4.764   0.404   3.344  0.9090  0.9801  0.7396
  269MOL0     H36272   4.838   0.311   3.476 -1.1210 -1.8875  0.7038
  269MOL0     H36273   4.645   0.301   3.602  0.5125 -0.7397 -0.4837
  269MOL0     H36274   4.545   0.319   3.456 -0.8486 -1.3725  2.1769
  269MOL0     H36275   4.572   0.718   3.451  2.4753 -0.3298  1.9521
  269MOL0     H36276   4.255   0.915   3.463  0.6983  2.9215  0.8327
  269MOL0     H36277   4.396   0.983   3.530  2.0387 -0.6548 -1.1136
  269MOL0     H36278   4.411   0.876   3.384  0.4418 -0.3389  0.0127
  269MOL0     H36279   3.946   0.880   3.515 -0.5889 -2.0786  0.6635
  269MOL0     H36280   3.736   0.993   3.551 -0.7283  3.6490 -0.2332
  269MOL0     H36281   3.558   1.051   3.927 -0.7299  1.1666  0.5243
  269MOL0     H36282   3.655   1.197   3.932  0.2684 -3.4753  2.2098
  269MOL0     H36283   3.467   1.278   3.740 -1.9260 -0.9453 -1.6587
  269MOL0     H36284   3.403   1.129   3.761 -0.0367  1.0050 -1.4098
  269MOL0     H36285   3.390   1.351   3.982 -1.5806  0.2896  2.1820
  269MOL0     H36286   3.379   1.191   4.026  0.6983  2.6686  2.0276
  269MOL0     H36287   3.219   1.324   3.806 -2.6217 -1.3096 -1.1344
  269MOL0     H36288   3.197   1.149   3.859  0.8596 -1.0640  2.0621
  269MOL0     H36289   3.123   1.410   4.000  1.4914 -0.4486 -2.3492
  269MOL0     H36290   3.127   1.247   4.081  2.3501 -1.0627 -0.1292
  269MOL0     H36291   2.953   1.334   3.835 -2.6209 -1.3093 -0.0574
  269MOL0     H36292   2.947   1.177   3.927  0.5276  0.3467  4.8991
  269MOL0     H36293   2.884   1.442   4.055 -0.3839 -0.1248  0.8476
  269MOL0     H36294   2.854   1.277   4.114 -0.7379  1.3068 -0.0689
  269MOL0     H36295   2.646   1.361   4.019  1.8716  0.6527  2.1291
  269MOL0     H36296   2.699   1.255   3.897  0.5307 -0.8408  1.2863
  269MOL0     H36297   3.878   1.154   3.928  0.4091 -0.5991  0.5623
  269MOL0     H36298   4.080   1.032   3.895  0.2958 -0.2352 -0.7380
  269MOL0     H36299   4.245   0.528   3.763  0.2004 -2.8688 -1.9163
  269MOL0     H36300   4.445   0.415   3.698  0.9842  0.2316 -1.7979
  269MOL0     H36301   3.864   0.318   3.158 -1.0940 -1.1175  0.6026
  269MOL0     H36302   3.631   0.368   3.223 -0.1565  2.0377 -0.0189
  269MOL0     H36303   3.171   0.747   3.009 -1.3166  0.0647  0.3348
  269MOL0     H36304   2.965   0.761   3.120 -0.1452  1.1574  2.7574
  269MOL0     H36305   2.799   0.820   3.296 -0.3461 -0.0606  0.9229
  269MOL0     H36306   2.771   0.677   3.190 -1.5168  0.8484 -0.2037
  269MOL0     H36307   2.580   0.750   3.379 -0.2185  0.1101 -3.6398
  269MOL0     H36308   2.674   0.644   3.480 -2.8119 -0.5004  0.0789
  269MOL0     H36309   2.658   0.459   3.337  1.9265  2.3812  1.4633
  269MOL0     H36310   2.582   0.557   3.205 -1.1200  0.7756 -0.5658
  269MOL0     H36311   2.389   0.591   3.348 -2.7382 -1.9085  1.3874
  269MOL0     H36312   2.484   0.499   3.474 -1.7734 -1.1077  0.5024
  269MOL0     H36313   2.273   0.221   3.220  1.8827  0.3010 -1.9531
  269MOL0     H36314   3.106   0.490   3.426 -0.8917  0.0834 -1.1321
  269MOL0     H36315   3.311   0.470   3.302 -0.6690 -1.6755 -0.9794
  270MOL0     O36316   6.836   4.797   9.164 -0.2747  0.2390 -0.2520
  270MOL0     C36317   6.900   4.722   9.095  0.2001 -0.0790  0.2775
  270MOL0     O36318   6.858   4.620   9.008  0.6909 -0.0978 -0.3545
  270MOL0     C36319   6.731   4.565   9.004  0.2737  0.1600  0.0279
  270MOL0     C36320   6.640   4.569   9.110 -0.0461  0.7840 -0.2011
  270MOL0     C36321   6.518   4.505   9.096  0.5263  0.6749  0.2722
  270MOL0     C36322   6.501   4.409   8.996 -0.4665 -0.0504 -0.7794
  270MOL0     O36323   6.385   4.334   8.993 -0.0452  0.2276 -0.2890
  270MOL0     C36324   6.261   4.399   8.949  0.6630 -0.0581 -0.2903
  270MOL0     C36325   6.139   4.307   8.954  0.0517 -0.9185 -0.2455
  270MOL0     C36326   6.083   4.304   9.098  0.2465 -0.9616 -0.2820
  270MOL0     C36327   5.948   4.239   9.099 -0.9257 -0.9452  0.3730
  270MOL0     C36328   5.892   4.254   9.242  0.1770  0.2419 -0.4732
  270MOL0     C36329   5.749   4.186   9.249 -0.6042 -0.3191  0.1902
  270MOL0     C36330   5.680   4.204   9.388 -0.4847 -0.2657  0.4283
  270MOL0     C36331   5.751   4.127   9.495 -0.3482 -0.1261 -0.0059
  270MOL0     N36332   5.670   4.131   9.621 -0.3195  0.5641  0.0317
  270MOL0     C36333   5.593   4.027   9.669 -0.8502  0.3059 -0.1371
  270MOL0     C36334   5.554   4.065   9.791  0.3219 -0.0501 -0.0124
  270MOL0     C36335   5.477   3.991   9.894  0.1143 -0.6657  0.0473
  270MOL0     C36336   5.496   4.064  10.032  0.0940 -0.5636  0.2175
  270MOL0     C36337   5.427   3.977  10.135  0.6798  0.0655 -0.0245
  270MOL0     C36338   5.276   3.998  10.157 -0.5709 -0.1894  0.1221
  270MOL0     O36339   5.206   4.022  10.040  0.1905  0.8467 -0.5254
  270MOL0     C36340   5.072   4.022  10.044  0.8991  0.6488 -0.2615
  270MOL0     C36341   5.012   4.017   9.921 -0.2749 -0.4454  0.9654
  270MOL0     C36342   4.874   4.018   9.896  0.7975 -0.2495  0.1518
  270MOL0     C36343   4.828   3.993   9.756 -0.5487 -0.0757  0.3307
  270MOL0     C36344   4.793   4.044  10.009  0.1980  0.4377  0.6966
  270MOL0     C36345   4.648   4.056  10.007  0.4179  0.0798 -0.4564
  270MOL0     O36346   4.587   4.057  10.134 -0.6291 -0.0319 -0.4556
  270MOL0     C36347   4.446   4.055  10.127  0.5366  0.0538  0.0376
  270MOL0     C36348   4.378   3.947  10.066  0.3781 -0.1944  0.5937
  270MOL0     C36349   4.234   3.932  10.062 -0.3438 -1.5069  0.7304
  270MOL0     C36350   4.163   4.040  10.109  0.0085  0.5061 -0.3964
  270MOL0     O36351   4.025   4.030  10.119  0.1527 -0.1940  0.7727
  270MOL0     C36352   3.946   4.144  10.082 -0.3796  0.0879  0.4000
  270MOL0     C36353   3.822   4.104  10.005  0.6007  0.1842 -0.0083
  270MOL0     C36354   3.851   4.046   9.861 -0.3250 -0.0262 -0.6644
  270MOL0     C36355   3.890   3.900   9.865 -0.7396  0.1371 -0.1825
  270MOL0     C36356   3.887   3.821   9.728 -0.1839  0.0516 -0.0044
  270MOL0     C36357   3.995   3.863   9.633  0.5642  0.3885 -0.4779
  270MOL0     C36358   4.035   3.753   9.530 -0.5003 -1.1541 -0.4317
  270MOL0     C36359   4.137   3.802   9.430  0.3779 -0.1110 -0.4272
  270MOL0    Cl36360   4.191   3.672   9.320  0.0320 -0.1202 -0.0660
  270MOL0     C36361   4.229   4.157  10.161  0.5378 -0.2015  0.0623
  270MOL0     C36362   4.366   4.155  10.178 -0.5737 -0.3325 -1.6057
  270MOL0     O36363   4.588   4.079   9.897 -0.8477  0.5909 -0.1125
  270MOL0     C36364   4.852   4.054  10.135 -0.2416 -0.0934  0.4256
  270MOL0     C36365   4.987   4.041  10.153 -0.0246  0.6581  0.1300
  270MOL0     N36366   5.592   4.197   9.809 -0.2104 -0.2568  1.2013
  270MOL0     N36367   5.666   4.229   9.711 -0.1853 -0.2188  0.5006
  270MOL0     C36368   6.586   4.400   8.897 -0.3095 -0.2467 -0.2551
  270MOL0     C36369   6.705   4.474   8.898 -0.7956 -0.7694 -0.3080
  270MOL0     C36370   7.042   4.746   9.101 -0.7576 -0.6551  0.5130
  270MOL0     C36371   7.123   4.664   9.027 -0.7252 -0.1036 -0.5913
  270MOL0     C36372   7.265   4.680   9.032 -0.2500  0.5077 -0.3485
  270MOL0     C36373   7.322   4.787   9.102  1.1431 -0.7272  0.1176
  270MOL0     O36374   7.455   4.814   9.120 -0.1387  0.6462 -0.1975
  270MOL0     C36375   7.551   4.707   9.087  1.3969  0.1077  0.1757
  270MOL0     C36376   7.681   4.755   9.131  0.2352  0.7652 -0.0008
  270MOL0     C36377   7.782   4.652   9.099 -0.5201  0.1768  0.0413
  270MOL0     C36378   7.917   4.719   9.072 -0.4008  0.0698  0.3677
  270MOL0     C36379   8.022   4.609   9.095  0.0823  0.0581  0.7735
  270MOL0     C36380   8.111   4.537   9.134 -1.1144  0.4812  0.2090
  270MOL0     C36381   7.239   4.878   9.165 -0.1487  0.8039  0.3129
  270MOL0     C36382   7.100   4.854   9.167 -0.6217 -0.7508 -0.5618
  270MOL0     H36383   6.653   4.644   9.188 -2.1529 -2.0039  3.1144
  270MOL0     H36384   6.453   4.522   9.181 -0.3754  1.1502 -0.4882
  270MOL0     H36385   6.253   4.484   9.018 -0.0595 -1.4340  1.3725
  270MOL0     H36386   6.263   4.438   8.846 -3.2283  3.8296  0.7896
  270MOL0     H36387   6.075   4.354   8.879  0.3209 -2.0312 -1.1992
  270MOL0     H36388   6.151   4.203   8.923  0.8885 -1.3986  1.4995
  270MOL0     H36389   6.160   4.251   9.155 -0.0717  0.5916  1.6788
  270MOL0     H36390   6.075   4.403   9.144 -0.6846 -0.0506 -2.3226
  270MOL0     H36391   5.881   4.291   9.029 -0.2119 -0.1791  0.2448
  270MOL0     H36392   5.952   4.134   9.066 -0.5417 -0.3358 -1.6783
  270MOL0     H36393   5.957   4.200   9.311  1.3626  2.1667  0.0157
  270MOL0     H36394   5.898   4.359   9.273  4.8130  1.0253 -3.1849
  270MOL0     H36395   5.684   4.236   9.177  0.1189  2.0786  1.0855
  270MOL0     H36396   5.741   4.082   9.218 -3.5439  0.0462 -0.5484
  270MOL0     H36397   5.689   4.312   9.402  2.5786 -0.4451  0.4516
  270MOL0     H36398   5.573   4.186   9.373 -0.9841  2.2675  0.5533
  270MOL0     H36399   5.848   4.173   9.516 -0.9492  1.3761 -0.3903
  270MOL0     H36400   5.760   4.026   9.454  3.1195 -1.2800  3.0353
  270MOL0     H36401   5.566   3.934   9.619 -1.8352 -0.2842  1.4049
  270MOL0     H36402   5.370   3.981   9.878  0.4940 -2.8016 -1.5456
  270MOL0     H36403   5.508   3.885   9.894  2.7080  0.0079  1.0452
  270MOL0     H36404   5.462   4.168  10.034  1.2912 -0.1654  0.9584
  270MOL0     H36405   5.604   4.060  10.047  0.1903 -0.4027 -0.3998
  270MOL0     H36406   5.473   3.992  10.233 -4.7092  1.6860  2.6031
  270MOL0     H36407   5.436   3.874  10.099 -1.0427  0.6525 -2.3834
  270MOL0     H36408   5.273   4.087  10.221  0.2071 -0.6963  0.8914
  270MOL0     H36409   5.245   3.913  10.218  2.4439 -1.9118 -0.5221
  270MOL0     H36410   5.076   4.000   9.835 -1.5892  2.5033 -0.7448
  270MOL0     H36411   4.899   3.934   9.698 -0.1694  0.7746 -0.0834
  270MOL0     H36412   4.730   3.944   9.754 -1.7627  2.1145  1.6873
  270MOL0     H36413   4.824   4.094   9.713 -1.2760 -0.3821 -0.3501
  270MOL0     H36414   4.441   3.872  10.019  1.3546 -0.4702  2.3001
  270MOL0     H36415   4.181   3.841  10.034 -2.2045 -1.3437  3.3371
  270MOL0     H36416   3.915   4.193  10.174  1.7741  1.9014  0.2315
  270MOL0     H36417   4.006   4.210  10.019 -1.2212  1.6334  1.1784
  270MOL0     H36418   3.765   4.035  10.068 -0.0617  0.1946 -0.5839
  270MOL0     H36419   3.755   4.190  10.000  0.2679 -0.1496 -1.9443
  270MOL0     H36420   3.930   4.100   9.810  0.3754 -0.2413  0.1667
  270MOL0     H36421   3.761   4.071   9.804 -0.9827 -0.1713  0.2747
  270MOL0     H36422   3.994   3.889   9.899 -0.0455  1.0512 -1.8779
  270MOL0     H36423   3.832   3.840   9.936 -1.0323  0.7459  0.1007
  270MOL0     H36424   3.790   3.837   9.680  0.0689 -1.4964 -1.1021
  270MOL0     H36425   3.893   3.712   9.732 -2.0881 -0.1311 -0.8351
  270MOL0     H36426   3.966   3.957   9.584 -1.9582  0.5994  1.2417
  270MOL0     H36427   4.089   3.881   9.685  0.8092  0.5126 -0.9534
  270MOL0     H36428   3.952   3.726   9.464  1.3427 -1.1873 -2.8715
  270MOL0     H36429   4.064   3.660   9.580  1.5904 -3.2070 -4.8497
  270MOL0     H36430   4.086   3.878   9.370  0.0415  0.4016  0.4768
  270MOL0     H36431   4.220   3.845   9.486 -0.0630  1.0583 -0.6335
  270MOL0     H36432   4.154   4.223  10.204 -0.2221 -1.7181  1.1921
  270MOL0     H36433   4.405   4.230  10.247 -2.1127 -3.0041  2.4872
  270MOL0     H36434   4.793   4.069  10.225 -1.0477  0.9354 -0.2491
  270MOL0     H36435   5.034   4.027  10.249 -0.8810 -3.6272  0.1006
  270MOL0     H36436   6.572   4.322   8.824 -0.6752 -2.2948  1.8951
  270MOL0     H36437   6.783   4.463   8.823 -0.2126  0.4310  0.0973
  270MOL0     H36438   7.085   4.580   8.969 -2.6178 -0.7676  1.4953
  270MOL0     H36439   7.319   4.618   8.961  0.3817  2.2126 -1.4208
  270MOL0     H36440   7.538   4.611   9.139  1.2268  1.5991  3.0835
  270MOL0     H36441   7.559   4.677   8.982  0.0282  1.0402 -0.2253
  270MOL0     H36442   7.683   4.772   9.240  2.3772 -1.3348  0.3539
  270MOL0     H36443   7.711   4.843   9.073 -1.4623  1.3524 -0.0587
  270MOL0     H36444   7.762   4.595   9.008  2.5287  1.0443 -1.2929
  270MOL0     H36445   7.801   4.587   9.185  6.6879  1.5559  0.1309
  270MOL0     H36446   7.952   4.785   9.152 -0.5926  0.2823  0.2753
  270MOL0     H36447   7.924   4.779   8.981  0.0883  0.3466  0.5829
  270MOL0     H36448   8.186   4.464   9.159 -3.0213 -1.6343  0.1728
  270MOL0     H36449   7.284   4.958   9.224 -2.5292  0.9290  2.0885
  270MOL0     H36450   7.033   4.923   9.218  0.3195  0.6395 -1.1197
  271MOL0     O36451   0.359   5.941   4.235 -0.1597  0.2965 -0.0457
  271MOL0     C36452   0.429   5.875   4.152  0.5231  0.1549  0.3060
  271MOL0     O36453   0.384   5.788   4.057  0.3769 -0.1600  0.0574
  271MOL0     C36454   0.244   5.775   4.049 -0.0094  1.0013  0.1502
  271MOL0     C36455   0.168   5.744   4.160  0.4213 -0.1119  1.1168
  271MOL0     C36456   0.029   5.730   4.155  1.0588  0.5562  0.8505
  271MOL0     C36457  -0.035   5.754   4.031 -0.4676  0.2837  0.4556
  271MOL0     O36458  -0.170   5.765   4.007 -0.3766 -0.4734  0.6179
  271MOL0     C36459  -0.254   5.688   4.094  0.2004 -0.5159 -0.8270
  271MOL0     C36460  -0.395   5.669   4.031 -0.8222 -0.1932 -0.6685
  271MOL0     C36461  -0.357   5.590   3.900  0.1367  0.1868  0.0033
  271MOL0     C36462  -0.479   5.529   3.833 -0.7074 -0.2006 -0.8793
  271MOL0     C36463  -0.452   5.394   3.778 -0.1107 -0.8365  0.5332
  271MOL0     C36464  -0.549   5.354   3.662  0.0142 -0.2933  0.0656
  271MOL0     C36465  -0.542   5.203   3.619 -0.1658  1.2739  0.1824
  271MOL0     C36466  -0.610   5.181   3.486  0.4816  0.0808  0.6515
  271MOL0     N36467  -0.674   5.045   3.469 -0.0746  0.4052  0.2154
  271MOL0     C36468  -0.810   5.027   3.448 -0.1699  0.8485 -0.0377
  271MOL0     C36469  -0.826   4.890   3.429  0.3564 -0.3736  0.5414
  271MOL0     C36470  -0.947   4.806   3.412 -0.1019  0.1809 -0.1160
  271MOL0     C36471  -0.918   4.677   3.336  0.0357  0.3564  0.1801
  271MOL0     C36472  -1.041   4.627   3.249 -0.9270  1.4769  0.3562
  271MOL0     C36473  -1.075   4.721   3.129  0.3461  0.0087 -0.2546
  271MOL0     O36474  -1.197   4.794   3.139 -0.0287 -0.1578  0.0302
  271MOL0     C36475  -1.317   4.729   3.144  0.2897  0.0428 -0.2514
  271MOL0     C36476  -1.335   4.594   3.121  0.8161 -0.7811 -0.3247
  271MOL0     C36477  -1.464   4.534   3.134 -0.2997 -0.1376 -0.7900
  271MOL0     C36478  -1.471   4.384   3.108 -0.1849 -0.0905  0.1458
  271MOL0     C36479  -1.576   4.610   3.157 -0.2729 -0.1791  0.7967
  271MOL0     C36480  -1.704   4.544   3.202  0.9635  1.0917 -0.4808
  271MOL0     O36481  -1.703   4.426   3.275 -0.1927 -0.1937 -0.4907
  271MOL0     C36482  -1.825   4.373   3.281 -0.6175  0.0602 -0.5592
  271MOL0     C36483  -1.924   4.411   3.381  0.9138 -0.4151  0.0314
  271MOL0     C36484  -2.056   4.364   3.381  0.6161 -0.2872 -1.0685
  271MOL0     C36485  -2.108   4.279   3.282  0.4549  0.1288  0.1916
  271MOL0     O36486  -2.231   4.215   3.273 -0.2719 -0.0263  0.3087
  271MOL0     C36487  -2.330   4.238   3.372 -0.1377  0.4331  0.3333
  271MOL0     C36488  -2.465   4.177   3.328 -0.3846 -0.4074  0.1004
  271MOL0     C36489  -2.585   4.257   3.372 -0.1979 -0.9204  0.1258
  271MOL0     C36490  -2.711   4.208   3.300  0.4659  0.7342  0.5816
  271MOL0     C36491  -2.779   4.088   3.352  0.0949  0.0236  0.2124
  271MOL0     C36492  -2.921   4.081   3.291 -0.3024  0.6419 -0.3447
  271MOL0     C36493  -3.007   3.968   3.350 -0.9320 -0.0459  0.9412
  271MOL0     C36494  -3.148   3.967   3.284  0.3690  0.4684  0.6920
  271MOL0    Cl36495  -3.147   3.954   3.103 -0.3088  0.1906 -0.3743
  271MOL0     C36496  -2.011   4.244   3.184 -0.1597 -0.0861 -0.3171
  271MOL0     C36497  -1.882   4.292   3.178  0.4660  0.0651 -1.0156
  271MOL0     O36498  -1.807   4.598   3.161 -0.9661  0.1530  0.2474
  271MOL0     C36499  -1.551   4.748   3.167  0.3690  0.0518 -0.4246
  271MOL0     C36500  -1.423   4.802   3.170  0.0717  0.3040  0.8210
  271MOL0     N36501  -0.696   4.832   3.433  0.3403 -0.5388  0.6485
  271MOL0     N36502  -0.610   4.924   3.466  0.1846 -0.2560  0.2688
  271MOL0     C36503   0.045   5.799   3.922 -0.6463 -1.4116 -0.2332
  271MOL0     C36504   0.182   5.806   3.927  0.2139 -1.1536  0.4912
  271MOL0     C36505   0.580   5.885   4.179 -0.1459 -0.1486  0.3733
  271MOL0     C36506   0.670   5.787   4.122  0.1717  0.6452 -0.5412
  271MOL0     C36507   0.807   5.805   4.140 -0.3982  0.0030 -0.2900
  271MOL0     C36508   0.862   5.915   4.204  0.1105  0.3229 -0.4887
  271MOL0     O36509   0.995   5.904   4.215 -0.1560 -0.1291 -0.2999
  271MOL0     C36510   1.068   6.002   4.300  0.3633 -0.5688 -0.1596
  271MOL0     C36511   1.224   5.968   4.301 -0.4354 -0.4582 -0.8329
  271MOL0     C36512   1.298   5.906   4.176 -0.0492 -0.6420  0.2816
  271MOL0     C36513   1.449   5.905   4.208  0.3890 -0.2938 -0.8320
  271MOL0     C36514   1.468   5.801   4.306  0.0759  0.1767 -0.2878
  271MOL0     C36515   1.469   5.699   4.369 -0.3750 -0.2173 -0.2953
  271MOL0     C36516   0.774   6.010   4.257 -0.4770  0.2916  0.4328
  271MOL0     C36517   0.632   5.995   4.246 -0.7790 -0.1835  0.5039
  271MOL0     H36518   0.217   5.734   4.256 -0.7243 -0.4161  1.6963
  271MOL0     H36519  -0.025   5.709   4.247  1.1561 -0.3914  0.7009
  271MOL0     H36520  -0.216   5.588   4.118 -3.2613 -1.6993  0.4144
  271MOL0     H36521  -0.266   5.752   4.181 -2.1854 -0.1823 -1.3224
  271MOL0     H36522  -0.463   5.622   4.104 -1.2928  0.9210 -0.3614
  271MOL0     H36523  -0.437   5.766   4.002  0.4107  0.6082  0.1172
  271MOL0     H36524  -0.309   5.660   3.830  0.2955 -1.1164 -1.2268
  271MOL0     H36525  -0.283   5.512   3.922 -0.9173 -1.3751 -1.6859
  271MOL0     H36526  -0.564   5.516   3.900 -1.9141  2.1295 -1.8251
  271MOL0     H36527  -0.505   5.591   3.747 -2.4239 -1.9268 -1.6635
  271MOL0     H36528  -0.352   5.399   3.734 -0.2694 -1.0585  0.1481
  271MOL0     H36529  -0.464   5.327   3.863  0.0946 -1.6781 -0.0971
  271MOL0     H36530  -0.651   5.368   3.700 -0.4276 -0.2561 -1.0768
  271MOL0     H36531  -0.538   5.415   3.572  0.1239 -3.7868 -2.4788
  271MOL0     H36532  -0.439   5.169   3.608 -1.0387 -1.0463 -1.5609
  271MOL0     H36533  -0.594   5.141   3.692 -3.2828  1.7447 -1.4673
  271MOL0     H36534  -0.532   5.204   3.413 -0.8323  0.8653 -0.5736
  271MOL0     H36535  -0.696   5.246   3.464 -2.4145 -3.5710  0.0146
  271MOL0     H36536  -0.890   5.099   3.459 -0.5774  0.2444  1.0776
  271MOL0     H36537  -0.992   4.787   3.510 -0.8628 -1.1113 -0.7004
  271MOL0     H36538  -1.025   4.862   3.360 -1.2047 -0.9346  0.3202
  271MOL0     H36539  -0.889   4.601   3.409 -0.1310  1.7837  1.7790
  271MOL0     H36540  -0.830   4.686   3.271  1.4856 -4.0349  1.1933
  271MOL0     H36541  -1.129   4.621   3.313  0.4100  1.1350  2.2246
  271MOL0     H36542  -1.023   4.526   3.211 -2.6273  0.9566  0.8570
  271MOL0     H36543  -1.091   4.656   3.042 -0.3523 -1.0953  0.6643
  271MOL0     H36544  -0.994   4.793   3.111  1.2983 -0.9796 -0.0614
  271MOL0     H36545  -1.253   4.526   3.100  0.4838 -0.3724 -3.5008
  271MOL0     H36546  -1.571   4.355   3.075 -0.3873  0.9238 -0.1549
  271MOL0     H36547  -1.407   4.349   3.026  0.3879 -0.0231  0.5578
  271MOL0     H36548  -1.445   4.332   3.200 -1.2377 -0.3153  0.3265
  271MOL0     H36549  -1.894   4.484   3.455 -0.2154  1.3436 -1.1984
  271MOL0     H36550  -2.121   4.400   3.459 -0.6794 -2.9071 -0.8548
  271MOL0     H36551  -2.300   4.203   3.471  1.5644  3.5490  1.0302
  271MOL0     H36552  -2.340   4.346   3.388  0.8630  0.6007 -0.0860
  271MOL0     H36553  -2.462   4.159   3.220  1.4576  1.4143 -0.2055
  271MOL0     H36554  -2.475   4.080   3.376 -0.8163  0.2956  1.4764
  271MOL0     H36555  -2.572   4.357   3.330  2.1416 -1.8941 -1.7406
  271MOL0     H36556  -2.599   4.271   3.479 -2.5365  2.2033 -0.4532
  271MOL0     H36557  -2.784   4.288   3.287 -1.0003 -0.1678  2.7913
  271MOL0     H36558  -2.684   4.193   3.195  1.8516 -0.1074  1.0253
  271MOL0     H36559  -2.779   4.102   3.460  0.2638  0.4202  0.1641
  271MOL0     H36560  -2.715   4.004   3.323 -0.6453 -0.3821 -0.2725
  271MOL0     H36561  -2.978   4.170   3.319 -1.6503 -0.7305  1.5214
  271MOL0     H36562  -2.899   4.067   3.184 -2.2206 -1.4000 -0.5476
  271MOL0     H36563  -3.018   3.982   3.458 -1.8339 -0.9812  0.9860
  271MOL0     H36564  -2.944   3.880   3.334  0.3385  1.3359 -2.5592
  271MOL0     H36565  -3.198   4.055   3.324  1.2822  2.2169 -1.7842
  271MOL0     H36566  -3.189   3.876   3.329  0.2533  0.0370 -0.2524
  271MOL0     H36567  -2.036   4.175   3.103  0.6131 -2.9295  1.7334
  271MOL0     H36568  -1.823   4.253   3.095 -0.9203 -0.7490 -1.6544
  271MOL0     H36569  -1.637   4.806   3.198  1.0175 -0.1970  2.0463
  271MOL0     H36570  -1.415   4.908   3.193 -0.8881  0.9032 -1.3382
  271MOL0     H36571  -0.009   5.813   3.829  0.3038 -1.0452 -0.7462
  271MOL0     H36572   0.243   5.828   3.840 -2.1437 -0.8573 -1.1882
  271MOL0     H36573   0.636   5.706   4.057  1.4544  0.3635 -0.8782
  271MOL0     H36574   0.865   5.726   4.095 -1.9580 -0.9683 -0.6739
  271MOL0     H36575   1.046   6.103   4.264  1.0315 -0.7328 -1.0736
  271MOL0     H36576   1.028   5.985   4.400  0.2668 -0.9624 -0.2631
  271MOL0     H36577   1.230   5.902   4.387 -0.3721  0.4431 -0.1349
  271MOL0     H36578   1.274   6.062   4.327  0.3862 -1.5233  1.6898
  271MOL0     H36579   1.285   5.963   4.084  0.9995 -1.6003 -0.4813
  271MOL0     H36580   1.259   5.806   4.156 -3.7068  0.5223  0.7516
  271MOL0     H36581   1.480   6.004   4.241  0.8831 -0.2905 -1.2892
  271MOL0     H36582   1.511   5.868   4.125 -0.0389  0.2412 -1.3962
  271MOL0     H36583   1.473   5.603   4.417  3.0548 -0.5287 -0.9332
  271MOL0     H36584   0.813   6.100   4.304 -1.9572 -0.2719  2.9076
  271MOL0     H36585   0.561   6.067   4.287 -0.4127  3.1238 -3.8952
  272MOL0     O36586   0.692   4.198   2.690  0.2518  0.0544 -0.8367
  272MOL0     C36587   0.721   4.314   2.679 -0.4854 -1.0902  0.3293
  272MOL0     O36588   0.641   4.419   2.655 -1.0962 -0.9673 -0.1640
  272MOL0     C36589   0.508   4.410   2.660 -0.9987 -0.0118 -0.0219
  272MOL0     C36590   0.439   4.408   2.785 -0.2683 -0.5202 -0.2011
  272MOL0     C36591   0.297   4.383   2.783  0.3598  0.6156 -0.1526
  272MOL0     C36592   0.222   4.372   2.661 -1.0470  0.9321  0.0911
  272MOL0     O36593   0.091   4.349   2.678  0.4168  0.5881  0.8680
  272MOL0     C36594  -0.003   4.392   2.572  0.3930 -0.1709 -0.6028
  272MOL0     C36595  -0.082   4.277   2.503 -0.5750 -0.2741  0.2266
  272MOL0     C36596  -0.211   4.316   2.446  0.6117  0.3631  0.2444
  272MOL0     C36597  -0.331   4.220   2.477 -0.1744 -0.1356 -0.6248
  272MOL0     C36598  -0.475   4.264   2.438 -0.2962 -0.4377  0.5787
  272MOL0     C36599  -0.529   4.374   2.524  0.0808  0.4102  0.0786
  272MOL0     C36600  -0.678   4.368   2.539 -0.0143  0.3883  0.1052
  272MOL0     C36601  -0.756   4.376   2.416 -0.2509 -0.1254 -0.3801
  272MOL0     N36602  -0.898   4.343   2.433  0.4158 -0.7490  0.2306
  272MOL0     C36603  -0.944   4.213   2.442  0.1345 -0.3711  0.3830
  272MOL0     C36604  -1.039   4.222   2.533 -0.1765 -0.2355  0.0245
  272MOL0     C36605  -1.117   4.121   2.612 -0.8399 -0.7903  0.5295
  272MOL0     C36606  -1.116   3.984   2.550 -0.4485  0.0912  0.1391
  272MOL0     C36607  -1.187   3.881   2.636 -0.0654 -0.4288  0.5055
  272MOL0     C36608  -1.206   3.755   2.551 -0.2106  0.3632 -0.5603
  272MOL0     O36609  -1.272   3.761   2.418 -0.6145 -0.0242 -0.6354
  272MOL0     C36610  -1.387   3.830   2.402  0.5948  0.7728  0.0913
  272MOL0     C36611  -1.500   3.820   2.482 -0.9077 -0.8606  0.7027
  272MOL0     C36612  -1.614   3.905   2.479  0.4816 -0.7425  1.0862
  272MOL0     C36613  -1.720   3.887   2.587  0.0514  0.4188 -0.1961
  272MOL0     C36614  -1.616   3.993   2.364  0.6684 -0.3739  0.1231
  272MOL0     C36615  -1.720   4.096   2.335  0.1470  0.5163 -0.1373
  272MOL0     O36616  -1.841   4.102   2.406 -0.8505 -0.4870  0.4980
  272MOL0     C36617  -1.912   4.220   2.415 -0.5200 -0.6078  0.3030
  272MOL0     C36618  -1.864   4.349   2.459 -0.1640 -0.9426 -0.6407
  272MOL0     C36619  -1.956   4.459   2.475 -0.4057 -0.1097  0.7195
  272MOL0     C36620  -2.094   4.436   2.464  0.6865  0.2602  0.4385
  272MOL0     O36621  -2.172   4.536   2.514  0.0567 -0.1724 -0.4678
  272MOL0     C36622  -2.296   4.560   2.454  0.3763  0.1002 -0.0310
  272MOL0     C36623  -2.362   4.674   2.534 -0.6605  0.7160  0.0539
  272MOL0     C36624  -2.516   4.664   2.536 -0.1771 -0.5123 -0.5272
  272MOL0     C36625  -2.577   4.646   2.396 -0.2259 -0.1925 -0.1432
  272MOL0     C36626  -2.723   4.671   2.393  1.4177 -0.6509 -0.4115
  272MOL0     C36627  -2.784   4.631   2.256 -0.3116  0.1839 -0.1294
  272MOL0     C36628  -2.937   4.651   2.286 -0.4888 -0.5977  1.0494
  272MOL0     C36629  -3.016   4.654   2.159 -0.3996 -0.0231 -1.0463
  272MOL0    Cl36630  -3.187   4.614   2.197  0.0873  0.1648  1.0100
  272MOL0     C36631  -2.138   4.315   2.412  0.2744  0.1649 -0.2357
  272MOL0     C36632  -2.052   4.209   2.377 -0.2355  1.2955 -0.5646
  272MOL0     O36633  -1.686   4.185   2.256 -0.4212 -0.2560  0.3721
  272MOL0     C36634  -1.507   3.990   2.266  0.5373  0.1037 -0.7164
  272MOL0     C36635  -1.402   3.903   2.286  0.4046 -0.9188  0.3523
  272MOL0     N36636  -1.052   4.348   2.571  0.0575 -0.0023 -0.6431
  272MOL0     N36637  -0.967   4.424   2.514 -0.8651 -0.6415  0.0921
  272MOL0     C36638   0.293   4.380   2.547 -1.0060  0.1308 -0.6383
  272MOL0     C36639   0.435   4.393   2.544 -0.3324  0.7426 -0.4750
  272MOL0     C36640   0.863   4.348   2.722 -0.0736 -1.1108 -0.5194
  272MOL0     C36641   0.890   4.477   2.773  0.0487  0.3064 -0.2018
  272MOL0     C36642   1.013   4.520   2.828  0.0851 -0.1395  0.1580
  272MOL0     C36643   1.112   4.414   2.833  0.3833  0.5318 -0.0575
  272MOL0     O36644   1.230   4.419   2.901  0.2164 -0.0986 -1.0932
  272MOL0     C36645   1.260   4.531   2.985  0.1820 -0.5783  0.8014
  272MOL0     C36646   1.404   4.536   3.025  0.3469 -0.1116  0.1683
  272MOL0     C36647   1.511   4.546   2.908 -0.1530 -0.7600 -0.1763
  272MOL0     C36648   1.485   4.668   2.818 -1.0327 -0.9810  0.0350
  272MOL0     C36649   1.616   4.685   2.734  0.8263  0.6549  0.0686
  272MOL0     C36650   1.706   4.694   2.653  0.3319  0.5871  0.3401
  272MOL0     C36651   1.087   4.288   2.783  0.1898 -1.0382 -0.1537
  272MOL0     C36652   0.976   4.260   2.712  0.3213 -0.2439 -0.6144
  272MOL0     H36653   0.494   4.421   2.878  0.8276 -2.7335 -0.4721
  272MOL0     H36654   0.246   4.350   2.873  1.2533  0.6134  0.3647
  272MOL0     H36655  -0.076   4.463   2.612  1.3739 -0.6528  2.3483
  272MOL0     H36656   0.049   4.461   2.504  0.9885  1.0412  1.0136
  272MOL0     H36657  -0.014   4.240   2.425  1.2230  2.4232  0.3699
  272MOL0     H36658  -0.094   4.200   2.580  2.0279 -0.8993  0.1163
  272MOL0     H36659  -0.232   4.416   2.484 -0.3375  1.0450 -1.9146
  272MOL0     H36660  -0.193   4.309   2.338 -1.0118 -0.3634 -0.0023
  272MOL0     H36661  -0.303   4.124   2.431  2.8941  1.2157 -1.8801
  272MOL0     H36662  -0.328   4.198   2.584  1.5612 -1.2081 -0.8540
  272MOL0     H36663  -0.471   4.304   2.337  1.6713 -0.0304  0.7672
  272MOL0     H36664  -0.539   4.175   2.439  1.1891 -1.6487 -2.0246
  272MOL0     H36665  -0.474   4.379   2.618  1.3537  0.8075 -0.6608
  272MOL0     H36666  -0.504   4.470   2.478 -0.9704  0.4827 -0.3645
  272MOL0     H36667  -0.701   4.276   2.594  0.6181  0.4334  0.4593
  272MOL0     H36668  -0.713   4.444   2.610  0.9818  0.8029  0.1629
  272MOL0     H36669  -0.718   4.307   2.341  0.7852 -2.6454  2.2763
  272MOL0     H36670  -0.742   4.475   2.371 -3.3617  1.2999  1.4076
  272MOL0     H36671  -0.904   4.125   2.392 -2.3568 -1.2656 -0.2239
  272MOL0     H36672  -1.085   4.107   2.716 -0.9133 -1.7803  0.4283
  272MOL0     H36673  -1.222   4.153   2.613 -0.1207  1.8708  0.5620
  272MOL0     H36674  -1.009   3.964   2.534 -0.2726 -0.0558  1.3905
  272MOL0     H36675  -1.161   3.984   2.451 -2.3491 -0.0300  0.9719
  272MOL0     H36676  -1.289   3.911   2.659  0.3662 -0.1609  2.2162
  272MOL0     H36677  -1.129   3.869   2.729  0.9158  2.6492  0.4006
  272MOL0     H36678  -1.268   3.689   2.612  2.1324 -3.0804 -1.5539
  272MOL0     H36679  -1.111   3.700   2.544  0.1093  0.3584  2.5992
  272MOL0     H36680  -1.482   3.757   2.569  0.1226 -2.0509 -0.3382
  272MOL0     H36681  -1.790   3.816   2.542  3.4224 -2.5230 -1.3513
  272MOL0     H36682  -1.681   3.844   2.679  0.4754  1.5153  0.1553
  272MOL0     H36683  -1.766   3.982   2.615 -2.2698 -0.3637 -1.1218
  272MOL0     H36684  -1.767   4.369   2.504 -0.7581 -3.4543  2.1201
  272MOL0     H36685  -1.925   4.559   2.503 -1.8585  0.6557 -0.2408
  272MOL0     H36686  -2.292   4.583   2.347 -0.7603  0.9922  0.1052
  272MOL0     H36687  -2.351   4.466   2.454  1.8961 -0.8955  2.6530
  272MOL0     H36688  -2.314   4.664   2.632  0.7158 -1.5756 -0.7650
  272MOL0     H36689  -2.329   4.773   2.500  0.6396  0.6190  0.9518
  272MOL0     H36690  -2.551   4.762   2.570  0.8900 -0.0604 -0.7086
  272MOL0     H36691  -2.561   4.585   2.598 -1.5725  0.3675 -0.3570
  272MOL0     H36692  -2.526   4.723   2.337 -0.3500  3.1033  3.6210
  272MOL0     H36693  -2.553   4.548   2.354 -1.3695 -0.8895  0.7671
  272MOL0     H36694  -2.747   4.776   2.415  1.0264 -1.2614  2.5367
  272MOL0     H36695  -2.769   4.609   2.472  1.7752  0.1332  0.4288
  272MOL0     H36696  -2.750   4.686   2.168 -1.5653  0.6706 -0.3351
  272MOL0     H36697  -2.790   4.522   2.244 -0.9429  0.0631  1.1250
  272MOL0     H36698  -2.950   4.747   2.337 -3.2595 -1.8723  2.9345
  272MOL0     H36699  -2.971   4.566   2.346  2.5203 -1.5985  1.4999
  272MOL0     H36700  -2.980   4.573   2.094  2.9172  1.6358 -1.4917
  272MOL0     H36701  -3.002   4.750   2.108 -0.4906 -0.6948 -2.3961
  272MOL0     H36702  -2.240   4.285   2.390  0.2161  0.7492 -0.7973
  272MOL0     H36703  -2.112   4.122   2.350 -3.3991  2.3171  2.4251
  272MOL0     H36704  -1.489   4.051   2.178  0.4623  0.8851 -0.1908
  272MOL0     H36705  -1.321   3.895   2.214  0.1006 -1.3398  0.0517
  272MOL0     H36706   0.239   4.346   2.459  0.5887 -1.8624 -0.9288
  272MOL0     H36707   0.487   4.397   2.449  1.0139  2.1709  0.2915
  272MOL0     H36708   0.813   4.553   2.765  1.1915  1.4489 -0.8159
  272MOL0     H36709   1.024   4.621   2.866  2.4657 -0.1319 -0.3787
  272MOL0     H36710   1.236   4.629   2.942 -0.5447 -0.2269  1.9510
  272MOL0     H36711   1.203   4.517   3.077  1.4141 -0.0565  1.6675
  272MOL0     H36712   1.433   4.461   3.099 -1.5781 -0.5026  0.5682
  272MOL0     H36713   1.416   4.628   3.083  0.5950  0.8889 -1.4193
  272MOL0     H36714   1.522   4.450   2.856  3.1595 -1.3746  1.3656
  272MOL0     H36715   1.601   4.556   2.970 -0.9475  0.7553  0.7828
  272MOL0     H36716   1.470   4.759   2.876  0.2256 -0.8396  0.1731
  272MOL0     H36717   1.398   4.654   2.753 -0.1672  2.2514 -2.0639
  272MOL0     H36718   1.792   4.708   2.591 -0.2593  1.6848 -0.2585
  272MOL0     H36719   1.171   4.220   2.775 -0.6244 -2.1282  0.2751
  272MOL0     H36720   0.953   4.163   2.670 -0.0724 -1.5323  2.3355
  273MOL0     O36721   8.801  11.240  10.554  0.3311  0.0822 -0.4049
  273MOL0     C36722   8.770  11.268  10.670  0.6208 -0.3407 -0.5448
  273MOL0     O36723   8.852  11.305  10.771 -0.2024 -0.2739  0.3639
  273MOL0     C36724   8.992  11.296  10.779  0.3227  0.2886 -0.3788
  273MOL0     C36725   9.076  11.278  10.668  0.2539  0.4633  0.2229
  273MOL0     C36726   9.210  11.297  10.677 -0.1468  0.5454  0.0955
  273MOL0     C36727   9.280  11.314  10.799  0.0713  0.1747  0.3110
  273MOL0     O36728   9.417  11.328  10.809 -0.2063 -0.5062 -0.6020
  273MOL0     C36729   9.479  11.217  10.855 -0.0539  0.7412 -0.4142
  273MOL0     C36730   9.635  11.221  10.844 -0.0329  0.3966  0.9301
  273MOL0     C36731   9.672  11.244  10.692 -0.6783  0.5452  0.3306
  273MOL0     C36732   9.821  11.237  10.679 -0.5864 -0.4364  0.2521
  273MOL0     C36733   9.878  11.170  10.558  0.0464 -0.2996 -0.2132
  273MOL0     C36734   9.975  11.053  10.596 -0.1400  0.9257 -0.2774
  273MOL0     C36735   9.905  10.925  10.632 -0.2074  1.1438  0.9439
  273MOL0     C36736   9.996  10.819  10.684  0.1222  1.0064 -0.1056
  273MOL0     N36737   9.934  10.686  10.692  0.2747  0.1633  0.1129
  273MOL0     C36738   9.938  10.589  10.593  0.0327 -0.2342  0.7118
  273MOL0     C36739   9.907  10.474  10.655  0.7211 -0.0440 -0.5746
  273MOL0     C36740   9.898  10.339  10.596  0.0868  0.1021  0.2577
  273MOL0     C36741   9.779  10.324  10.491 -0.0378  0.4661 -0.5032
  273MOL0     C36742   9.639  10.347  10.544  0.8588  0.5661 -0.2462
  273MOL0     C36743   9.529  10.348  10.434  0.0289 -0.3734  0.2395
  273MOL0     O36744   9.511  10.221  10.368  0.3589  0.2139  0.1398
  273MOL0     C36745   9.411  10.147  10.419  0.5851  1.0464  0.8812
  273MOL0     C36746   9.336  10.153  10.547  0.1393 -0.2482  0.4357
  273MOL0     C36747   9.236  10.063  10.573 -0.5287  0.1499  0.2054
  273MOL0     C36748   9.174  10.077  10.713 -0.3173 -0.2293 -0.2438
  273MOL0     C36749   9.201   9.958  10.486  0.4587 -0.0651 -0.2188
  273MOL0     C36750   9.088   9.857  10.494  0.2136  0.1025 -0.1841
  273MOL0     O36751   9.071   9.783  10.390  0.0229 -0.3478 -0.0993
  273MOL0     C36752   8.979   9.672  10.398 -0.0819 -0.0753 -0.5530
  273MOL0     C36753   8.984   9.586  10.507  0.4464  0.2045 -0.1101
  273MOL0     C36754   8.926   9.465  10.505 -0.7511 -0.2143  0.5692
  273MOL0     C36755   8.876   9.412  10.381 -0.3606 -0.2240  0.2925
  273MOL0     O36756   8.816   9.291  10.383  0.3511  0.2230 -0.1895
  273MOL0     C36757   8.719   9.265  10.279  0.7534  0.2210 -0.2663
  273MOL0     C36758   8.664   9.128  10.304 -0.9257 -0.0948 -0.6406
  273MOL0     C36759   8.550   9.083  10.222  0.1366 -0.1156  0.2398
  273MOL0     C36760   8.446   9.002  10.297  0.3149  0.0298  0.2802
  273MOL0     C36761   8.316   8.997  10.215 -0.5842  0.4363 -0.2821
  273MOL0     C36762   8.200   8.919  10.272  0.1492  0.2404 -0.0770
  273MOL0     C36763   8.101   8.891  10.155 -0.7020 -0.1597 -0.5788
  273MOL0     C36764   8.041   9.027  10.106 -0.1710  1.2371  0.5180
  273MOL0    Cl36765   7.861   9.022  10.095  0.4305 -0.0954 -0.4726
  273MOL0     C36766   8.899   9.487  10.268  0.2515 -0.4725 -0.1743
  273MOL0     C36767   8.940   9.621  10.280 -0.0278 -0.1603 -0.2824
  273MOL0     O36768   9.035   9.854  10.605  0.2595  0.2268  0.0149
  273MOL0     C36769   9.281   9.954  10.375 -0.1996 -0.0126  0.0222
  273MOL0     C36770   9.382  10.037  10.343 -0.0331 -0.0701  0.1210
  273MOL0     N36771   9.885  10.508  10.784  0.4218  0.2937 -0.5470
  273MOL0     N36772   9.897  10.632  10.810  0.2254 -0.1566  0.0722
  273MOL0     C36773   9.199  11.330  10.911  0.9893  0.0909 -0.3494
  273MOL0     C36774   9.057  11.321  10.901 -0.4552  0.4982 -0.4179
  273MOL0     C36775   8.625  11.253  10.715 -0.4939 -0.5403 -0.3487
  273MOL0     C36776   8.589  11.257  10.851 -0.7965  0.2151 -0.2913
  273MOL0     C36777   8.448  11.243  10.884 -0.9963  0.6852  0.1278
  273MOL0     C36778   8.352  11.217  10.792  0.1953 -1.0913 -0.1241
  273MOL0     O36779   8.222  11.208  10.825 -0.0505 -0.1455  0.6740
  273MOL0     C36780   8.188  11.231  10.966 -0.1293 -0.6863  0.2937
  273MOL0     C36781   8.042  11.212  10.983 -0.3559  0.2828  0.9064
  273MOL0     C36782   8.003  11.228  11.128  1.7001 -0.4608 -0.5760
  273MOL0     C36783   7.853  11.261  11.146  0.2465 -0.5515 -0.7612
  273MOL0     C36784   7.828  11.395  11.121  0.7263 -0.4504 -0.1438
  273MOL0     C36785   7.818  11.510  11.085  0.5648 -0.2395  0.0766
  273MOL0     C36786   8.388  11.207  10.661 -0.8897 -0.2119 -0.2659
  273MOL0     C36787   8.517  11.220  10.621  0.6091  0.6045 -0.0746
  273MOL0     H36788   9.047  11.255  10.566  0.5104  0.4753  0.1448
  273MOL0     H36789   9.264  11.292  10.583  1.7172 -0.7128  1.1360
  273MOL0     H36790   9.454  11.201  10.960 -0.8800  2.2015 -0.3634
  273MOL0     H36791   9.440  11.130  10.801 -3.6800  1.4724  0.7739
  273MOL0     H36792   9.677  11.306  10.898 -2.3233  3.2519 -1.4678
  273MOL0     H36793   9.679  11.131  10.888 -2.6202 -1.6283 -0.2928
  273MOL0     H36794   9.636  11.159  10.633 -1.4903  0.4761  0.8974
  273MOL0     H36795   9.637  11.334  10.641 -1.8585 -1.2360 -2.2398
  273MOL0     H36796   9.862  11.338  10.689 -0.9653 -0.2021 -0.4828
  273MOL0     H36797   9.852  11.186  10.771 -0.1415  2.7434  2.0152
  273MOL0     H36798   9.800  11.133  10.490 -1.8877  0.6513  1.3670
  273MOL0     H36799   9.935  11.241  10.498 -0.6744 -0.0508 -0.6111
  273MOL0     H36800  10.033  11.023  10.508 -0.6764 -2.7448  0.4559
  273MOL0     H36801  10.054  11.083  10.665  0.9073 -3.2394  0.6397
  273MOL0     H36802   9.842  10.931  10.721 -0.3842 -0.8286  0.9976
  273MOL0     H36803   9.848  10.897  10.542  3.2528 -0.6971 -0.9050
  273MOL0     H36804  10.038  10.850  10.780  0.3955 -3.0505  1.2640
  273MOL0     H36805  10.085  10.803  10.622 -0.3320 -3.0065  0.0328
  273MOL0     H36806   9.976  10.598  10.492  1.0838 -2.8587  0.7897
  273MOL0     H36807   9.995  10.322  10.550  0.5678  0.8298  0.9884
  273MOL0     H36808   9.882  10.259  10.669 -0.4788 -1.2470 -1.2697
  273MOL0     H36809   9.770  10.223  10.451 -1.9054  1.2463 -2.2247
  273MOL0     H36810   9.795  10.397  10.411 -1.4929  0.2445 -1.0307
  273MOL0     H36811   9.636  10.441  10.600 -2.0516  1.1486 -1.2308
  273MOL0     H36812   9.604  10.271  10.614 -3.5784  1.9766 -0.6729
  273MOL0     H36813   9.554  10.424  10.359 -0.8582  0.7357  1.0373
  273MOL0     H36814   9.432  10.383  10.470 -0.6901 -2.2034  0.2003
  273MOL0     H36815   9.363  10.231  10.617  1.9826 -0.8528  0.4664
  273MOL0     H36816   9.169   9.987  10.773 -0.3978  0.4197  0.7425
  273MOL0     H36817   9.217  10.152  10.779 -2.4432  1.3605 -0.5361
  273MOL0     H36818   9.072  10.112  10.695  0.6723  2.5340 -1.1600
  273MOL0     H36819   9.052   9.616  10.587 -1.2152  0.9801  1.0607
  273MOL0     H36820   8.918   9.404  10.594  1.1904  1.2467  1.8344
  273MOL0     H36821   8.634   9.335  10.277 -0.8549 -1.5788  1.2879
  273MOL0     H36822   8.771   9.257  10.183 -0.3567 -1.1560 -0.7790
  273MOL0     H36823   8.735   9.044  10.300  1.1004  1.5676 -1.8795
  273MOL0     H36824   8.642   9.135  10.411  0.5336 -2.3482 -0.1082
  273MOL0     H36825   8.589   9.025  10.138  0.4041  2.8788 -1.8134
  273MOL0     H36826   8.499   9.169  10.178  0.8066  0.4343  0.5288
  273MOL0     H36827   8.482   8.900  10.312 -1.7609 -0.8234 -0.2689
  273MOL0     H36828   8.434   9.044  10.397 -4.3057 -1.4159  0.5264
  273MOL0     H36829   8.353   8.958  10.120 -0.1241  1.8401 -0.7132
  273MOL0     H36830   8.285   9.101  10.202  1.2329  1.2227  1.1948
  273MOL0     H36831   8.223   8.819  10.309  0.2445  0.6279  0.9659
  273MOL0     H36832   8.163   8.981  10.355  1.4774  1.3914 -0.2939
  273MOL0     H36833   8.017   8.826  10.181  0.5498 -1.8338 -0.5157
  273MOL0     H36834   8.160   8.840  10.078  2.1264  2.2786 -0.2133
  273MOL0     H36835   8.083   9.049  10.007  1.8296 -2.3323  0.4255
  273MOL0     H36836   8.077   9.109  10.168  0.1753  0.9351  0.7196
  273MOL0     H36837   8.881   9.445  10.169 -0.4456  2.2254 -1.2828
  273MOL0     H36838   8.942   9.678  10.188  0.2948 -1.2848 -0.9960
  273MOL0     H36839   9.260   9.889  10.291 -0.2790 -0.3472  0.2984
  273MOL0     H36840   9.426  10.022  10.245 -0.2139  1.2638 -0.1884
  273MOL0     H36841   9.247  11.329  11.008  1.5714 -0.2270 -0.6291
  273MOL0     H36842   9.000  11.333  10.992  0.6050 -2.6604  0.7973
  273MOL0     H36843   8.667  11.293  10.918  1.6306 -1.9646 -1.7816
  273MOL0     H36844   8.424  11.260  10.988  2.0981  2.5418  0.6627
  273MOL0     H36845   8.233  11.149  11.023 -1.8337 -1.2183  0.9386
  273MOL0     H36846   8.227  11.328  11.000  0.8619 -0.7998 -0.4777
  273MOL0     H36847   8.024  11.107  10.959 -1.5040  0.8224 -0.8284
  273MOL0     H36848   7.983  11.280  10.920 -1.1408 -2.4826 -1.5330
  273MOL0     H36849   8.064  11.305  11.176  0.2103 -0.4769  1.4166
  273MOL0     H36850   8.026  11.131  11.173  1.7786  1.2646  3.4551
  273MOL0     H36851   7.830  11.245  11.252  3.2164 -1.7576 -0.1960
  273MOL0     H36852   7.802  11.183  11.089 -1.3403 -1.8966  2.2344
  273MOL0     H36853   7.803  11.615  11.072 -6.0967 -0.7997 -0.5430
  273MOL0     H36854   8.307  11.179  10.594 -3.5179  0.6223  2.3276
  273MOL0     H36855   8.515  11.216  10.513 -2.3830  0.1292 -0.0893
  274MOL0     O36856   4.088   6.991   8.513  0.2265  0.2224  0.6181
  274MOL0     C36857   4.101   6.971   8.636  0.1660 -0.9013 -0.0587
  274MOL0     O36858   4.003   6.943   8.728  0.0912 -0.9738  0.3374
  274MOL0     C36859   3.875   6.977   8.691  0.4299 -0.1272 -0.0424
  274MOL0     C36860   3.837   7.114   8.708 -0.0602  1.0686  0.4218
  274MOL0     C36861   3.698   7.144   8.680 -0.1269  1.2165 -0.5899
  274MOL0     C36862   3.602   7.048   8.642  0.2939 -0.6799  0.3055
  274MOL0     O36863   3.465   7.062   8.630  0.4544  0.7102  0.1669
  274MOL0     C36864   3.425   7.196   8.657  0.4644  0.5811  0.8585
  274MOL0     C36865   3.276   7.201   8.635  0.8473 -0.0908 -0.0453
  274MOL0     C36866   3.216   7.334   8.686 -0.5712  0.7147 -0.2469
  274MOL0     C36867   3.273   7.445   8.607  0.2470  0.6210  0.6030
  274MOL0     C36868   3.193   7.571   8.621  0.3888 -1.1355  0.5385
  274MOL0     C36869   3.151   7.615   8.766 -0.4814  0.3162 -0.5276
  274MOL0     C36870   3.281   7.653   8.854  0.9850  0.5733  0.5667
  274MOL0     C36871   3.368   7.768   8.795  0.4206 -0.6736 -0.2271
  274MOL0     N36872   3.289   7.887   8.766  0.9813 -1.2039 -0.5516
  274MOL0     C36873   3.198   7.943   8.855  0.7935  0.0743 -0.1636
  274MOL0     C36874   3.133   8.038   8.784 -0.7108 -0.6439 -0.1256
  274MOL0     C36875   3.021   8.134   8.830 -0.2031 -0.1298 -0.4169
  274MOL0     C36876   2.882   8.079   8.830 -0.8229  0.5974 -0.0459
  274MOL0     C36877   2.778   8.187   8.870  0.2539 -0.1219  0.4633
  274MOL0     C36878   2.630   8.152   8.829  0.6928 -0.0460  0.1912
  274MOL0     O36879   2.594   8.021   8.887 -0.5894  0.3906 -0.5186
  274MOL0     C36880   2.488   7.950   8.855  0.3649 -0.2155 -0.6406
  274MOL0     C36881   2.363   8.013   8.823 -0.0565  0.4001  0.4765
  274MOL0     C36882   2.259   7.939   8.771 -0.0632  0.1471  0.1883
  274MOL0     C36883   2.140   8.021   8.735  0.1068 -0.1217  0.0331
  274MOL0     C36884   2.268   7.796   8.771 -0.0411 -0.9230 -0.4097
  274MOL0     C36885   2.167   7.702   8.723 -0.5454  0.0910  0.7413
  274MOL0     O36886   2.219   7.577   8.684  1.0373  0.1961  0.2509
  274MOL0     C36887   2.147   7.478   8.622 -0.2423 -0.4313 -0.2808
  274MOL0     C36888   2.014   7.459   8.643  0.1447 -0.0142  0.2651
  274MOL0     C36889   1.938   7.359   8.588  0.0685  0.8486 -0.4392
  274MOL0     C36890   2.001   7.258   8.508  0.2448  0.4631 -0.4106
  274MOL0     O36891   1.937   7.156   8.435 -0.3510  0.2655  0.1616
  274MOL0     C36892   1.796   7.126   8.456 -0.2785 -0.3634  0.3634
  274MOL0     C36893   1.739   7.029   8.349 -0.8028 -0.1182  0.1045
  274MOL0     C36894   1.827   6.900   8.341 -0.3268  1.0694 -0.3096
  274MOL0     C36895   1.800   6.815   8.221  0.0356 -0.2737 -0.0164
  274MOL0     C36896   1.752   6.674   8.237  0.6090  0.4104  0.3841
  274MOL0     C36897   1.866   6.573   8.271 -0.5063 -0.3595 -0.4822
  274MOL0     C36898   1.968   6.546   8.155 -0.0393 -0.1102  0.8521
  274MOL0     C36899   2.044   6.419   8.183  0.1746 -0.0551 -0.2503
  274MOL0    Cl36900   2.128   6.404   8.348 -0.6195  0.1204  0.0447
  274MOL0     C36901   2.140   7.269   8.492  0.0368  1.9127  0.9892
  274MOL0     C36902   2.211   7.370   8.549  0.0252 -0.5205 -0.8077
  274MOL0     O36903   2.053   7.746   8.692  0.0554  0.0327  0.3904
  274MOL0     C36904   2.385   7.743   8.824 -0.3408  0.7210  0.5176
  274MOL0     C36905   2.496   7.815   8.859  0.0782 -0.1856  0.2056
  274MOL0     N36906   3.179   8.043   8.650  0.0159  0.7868  0.0441
  274MOL0     N36907   3.271   7.952   8.642 -0.5525  0.0740  0.1454
  274MOL0     C36908   3.641   6.919   8.651  0.6352 -0.1598  0.6718
  274MOL0     C36909   3.776   6.889   8.665  0.3881  0.3645 -0.0581
  274MOL0     C36910   4.237   6.961   8.692  0.8497 -1.1925  0.2609
  274MOL0     C36911   4.356   6.980   8.616  0.8892 -0.2785  0.4154
  274MOL0     C36912   4.478   6.971   8.672  0.0915  0.6573 -0.4905
  274MOL0     C36913   4.494   6.938   8.812 -0.5561  0.7152 -0.4719
  274MOL0     O36914   4.621   6.911   8.853 -0.1575 -0.0030 -0.6317
  274MOL0     C36915   4.653   6.900   8.991 -0.0600 -0.1533 -0.1670
  274MOL0     C36916   4.801   6.872   9.023 -0.1896  0.6154  0.5160
  274MOL0     C36917   4.899   6.926   8.914 -0.7241 -0.0348 -0.3505
  274MOL0     C36918   5.055   6.926   8.949  0.3398 -0.0767  0.7127
  274MOL0     C36919   5.096   6.792   8.991 -0.1929 -0.9687  0.2784
  274MOL0     C36920   5.136   6.681   9.025 -0.4442 -0.1847 -0.5470
  274MOL0     C36921   4.382   6.936   8.892  0.1558 -0.2117 -0.1684
  274MOL0     C36922   4.253   6.944   8.830 -0.2977  0.0746  0.0783
  274MOL0     H36923   3.899   7.187   8.759  1.9833 -2.1178  2.9032
  274MOL0     H36924   3.667   7.248   8.690 -1.1523  1.2888 -3.5961
  274MOL0     H36925   3.452   7.234   8.756  0.8975 -1.2168  1.4672
  274MOL0     H36926   3.467   7.255   8.576  1.1360 -0.9256  0.0792
  274MOL0     H36927   3.248   7.189   8.530  0.9855 -0.8219 -0.0034
  274MOL0     H36928   3.232   7.114   8.685 -0.3222 -0.5381 -1.7763
  274MOL0     H36929   3.110   7.321   8.664  0.2147 -2.2724 -3.0469
  274MOL0     H36930   3.245   7.353   8.790 -0.6735 -0.7593  0.0751
  274MOL0     H36931   3.372   7.480   8.640 -1.0831  3.8411  1.4998
  274MOL0     H36932   3.283   7.414   8.503 -0.7318 -3.0130  1.4418
  274MOL0     H36933   3.250   7.660   8.594  0.9370 -0.8795  2.3970
  274MOL0     H36934   3.103   7.553   8.560  0.1111 -2.0863  1.2061
  274MOL0     H36935   3.089   7.704   8.768  0.4527  1.0050  1.5430
  274MOL0     H36936   3.104   7.526   8.809  2.6754 -1.4718 -0.4234
  274MOL0     H36937   3.247   7.682   8.954 -0.3685  2.3180 -0.3430
  274MOL0     H36938   3.334   7.558   8.865 -0.6197 -0.3149  0.8895
  274MOL0     H36939   3.428   7.747   8.706  2.3055 -0.7839  1.0104
  274MOL0     H36940   3.447   7.791   8.867  1.8788 -1.2191 -1.5930
  274MOL0     H36941   3.190   7.908   8.958  1.9019  1.1626  0.3146
  274MOL0     H36942   3.036   8.171   8.932 -0.9228 -1.8681  0.3565
  274MOL0     H36943   3.025   8.220   8.762  0.7960  1.6936  1.8243
  274MOL0     H36944   2.873   7.988   8.890 -1.2090 -0.9253 -2.2787
  274MOL0     H36945   2.870   8.049   8.725  1.9324  0.4806 -0.3962
  274MOL0     H36946   2.800   8.280   8.818 -1.0483 -0.7117 -1.2489
  274MOL0     H36947   2.787   8.207   8.977  1.8166  0.8794  0.1798
  274MOL0     H36948   2.638   8.138   8.721 -0.9220 -0.9023  0.1576
  274MOL0     H36949   2.559   8.233   8.850 -1.9192 -2.6966  2.4370
  274MOL0     H36950   2.353   8.121   8.830  1.4422  0.8940 -2.8610
  274MOL0     H36951   2.096   7.997   8.638  1.7565  0.6654 -0.9560
  274MOL0     H36952   2.059   8.002   8.806  0.9080  1.5448  1.4576
  274MOL0     H36953   2.162   8.128   8.724  1.8741 -0.5768 -1.2561
  274MOL0     H36954   1.954   7.524   8.705  0.1348 -0.3061  0.5604
  274MOL0     H36955   1.835   7.352   8.623 -0.2695 -0.2387 -1.5857
  274MOL0     H36956   1.790   7.075   8.553  1.6189 -1.9375 -0.2760
  274MOL0     H36957   1.741   7.220   8.457  0.3516  0.0862 -2.0860
  274MOL0     H36958   1.632   7.011   8.369 -1.0608  1.3401  0.1571
  274MOL0     H36959   1.750   7.085   8.256  0.8647 -0.1572  0.2634
  274MOL0     H36960   1.813   6.842   8.432  1.3966 -1.9091 -1.7828
  274MOL0     H36961   1.930   6.937   8.338 -0.9636  3.5945  3.4253
  274MOL0     H36962   1.720   6.865   8.165  0.3845 -1.8459 -2.0365
  274MOL0     H36963   1.889   6.816   8.158 -0.8912 -0.2566 -1.3792
  274MOL0     H36964   1.701   6.637   8.147 -2.8806 -4.0360  3.7278
  274MOL0     H36965   1.683   6.665   8.321  1.7842 -0.4613  1.2886
  274MOL0     H36966   1.921   6.598   8.362 -0.6904  1.4468 -0.8220
  274MOL0     H36967   1.817   6.477   8.288  1.1887 -1.3226 -0.7439
  274MOL0     H36968   2.038   6.630   8.152 -2.4489  2.0735 -3.0431
  274MOL0     H36969   1.913   6.536   8.061 -1.6815 -0.6333  1.8306
  274MOL0     H36970   2.125   6.413   8.111  1.2956  2.0151  0.7486
  274MOL0     H36971   1.989   6.327   8.163  1.5573 -0.7210 -1.0821
  274MOL0     H36972   2.182   7.201   8.418 -2.4273 -1.8024  2.7018
  274MOL0     H36973   2.314   7.395   8.525 -0.0865  0.7473 -0.0363
  274MOL0     H36974   2.400   7.636   8.824 -0.3283  0.6812  3.0096
  274MOL0     H36975   2.590   7.772   8.891 -0.2099 -0.3619  0.8305
  274MOL0     H36976   3.574   6.835   8.637  1.1969 -0.3228 -1.3951
  274MOL0     H36977   3.806   6.785   8.677  3.7284  1.1059 -1.0597
  274MOL0     H36978   4.338   7.007   8.513  1.2962  0.2289  0.4770
  274MOL0     H36979   4.566   6.973   8.607  1.3812  2.3272  1.1690
  274MOL0     H36980   4.614   6.987   9.045 -1.0269 -1.9452  2.2002
  274MOL0     H36981   4.604   6.814   9.037 -0.1279  1.0358  2.1509
  274MOL0     H36982   4.814   6.764   9.025 -0.1710  0.6133  0.2130
  274MOL0     H36983   4.832   6.922   9.116 -0.3406  2.8996 -0.5942
  274MOL0     H36984   4.860   7.026   8.891 -0.9295 -0.1245 -0.3962
  274MOL0     H36985   4.886   6.871   8.820 -1.3891  3.7101 -2.6338
  274MOL0     H36986   5.078   7.004   9.022  1.6672 -0.9097  1.2313
  274MOL0     H36987   5.108   6.954   8.857  1.7279 -0.4940  1.3580
  274MOL0     H36988   5.172   6.586   9.059 -0.8678  0.1261  0.8416
  274MOL0     H36989   4.399   6.919   8.998 -2.2433 -0.7162  0.1945
  274MOL0     H36990   4.170   6.941   8.901 -0.2289  0.1398  0.1622
  275MOL0     O36991   4.611  10.318   7.352 -0.2619  0.6265  0.1769
  275MOL0     C36992   4.692  10.249   7.418  0.3439  0.1394  0.1569
  275MOL0     O36993   4.665  10.142   7.488  0.0906  0.2029 -0.3860
  275MOL0     C36994   4.536  10.097   7.526 -0.0633  0.4205 -0.1968
  275MOL0     C36995   4.538   9.970   7.575  0.1802  0.0757 -0.7382
  275MOL0     C36996   4.425   9.907   7.619  0.5243 -0.1262  0.2416
  275MOL0     C36997   4.306   9.967   7.613 -0.3233 -0.8005  0.3142
  275MOL0     O36998   4.200   9.895   7.657 -0.1364  0.3267 -0.2125
  275MOL0     C36999   4.098   9.980   7.706  0.7347  0.0456 -0.4578
  275MOL0     C37000   4.020   9.882   7.811  0.6574 -0.2705  0.1201
  275MOL0     C37001   4.123   9.844   7.923  0.1028  0.2486  0.2610
  275MOL0     C37002   4.117   9.695   7.955 -0.2450 -0.9349 -0.3234
  275MOL0     C37003   4.198   9.646   8.077  0.7263 -0.0240 -1.3685
  275MOL0     C37004   4.346   9.644   8.041  1.0368 -0.4174 -0.8627
  275MOL0     C37005   4.414   9.599   8.174  0.0774  0.1259  0.4127
  275MOL0     C37006   4.386   9.452   8.222  0.1660  0.3152  0.4819
  275MOL0     N37007   4.425   9.358   8.113  0.0425  0.1205  0.5854
  275MOL0     C37008   4.555   9.357   8.058  1.0150  0.2488 -1.5926
  275MOL0     C37009   4.536   9.280   7.954 -0.5576 -0.9641  0.8866
  275MOL0     C37010   4.643   9.258   7.859 -0.2157  0.6494  0.2903
  275MOL0     C37011   4.599   9.223   7.721 -0.2643 -0.0690 -0.8421
  275MOL0     C37012   4.710   9.237   7.621 -0.0557 -0.1261  0.2478
  275MOL0     C37013   4.835   9.156   7.645 -0.1069  1.1242 -0.5109
  275MOL0     O37014   4.921   9.111   7.530 -0.4061 -0.6125 -0.2068
  275MOL0     C37015   5.048   9.080   7.575  0.6297  0.8157 -0.6883
  275MOL0     C37016   5.104   9.062   7.709  0.3761  0.4239  0.1307
  275MOL0     C37017   5.234   9.069   7.731 -0.4252 -0.0540 -0.4999
  275MOL0     C37018   5.297   9.079   7.871 -0.5051  0.0080  0.6251
  275MOL0     C37019   5.321   9.064   7.620  0.5044  0.3833 -0.3924
  275MOL0     C37020   5.465   9.059   7.635 -0.1717  0.4252 -0.0291
  275MOL0     O37021   5.521   9.161   7.709 -0.2565 -0.3696 -0.1453
  275MOL0     C37022   5.655   9.158   7.740  0.4076  0.0341 -0.9380
  275MOL0     C37023   5.700   9.204   7.867  0.6802  0.7476  0.1316
  275MOL0     C37024   5.836   9.209   7.905  0.2426  0.8163  0.0994
  275MOL0     C37025   5.925   9.169   7.815 -0.1118  0.2492 -0.3782
  275MOL0     O37026   6.062   9.183   7.836  0.7303  0.9499  1.1376
  275MOL0     C37027   6.134   9.062   7.812  0.2408 -0.3929 -0.3326
  275MOL0     C37028   6.209   9.038   7.945 -0.6521 -0.0044  0.8476
  275MOL0     C37029   6.296   8.910   7.931 -0.3996  0.1662 -0.8409
  275MOL0     C37030   6.402   8.895   8.052  0.6405 -0.7752  0.2773
  275MOL0     C37031   6.512   8.790   8.014 -0.7795  0.1135  0.9458
  275MOL0     C37032   6.624   8.777   8.119  0.2604  0.1771 -0.0533
  275MOL0     C37033   6.709   8.903   8.112 -0.5717 -0.3984 -0.0326
  275MOL0     C37034   6.780   8.945   8.245 -0.6069 -0.3879 -0.7974
  275MOL0    Cl37035   6.679   9.064   8.341  0.2393  0.1475  0.5343
  275MOL0     C37036   5.886   9.136   7.684  0.5709  0.0753 -0.0761
  275MOL0     C37037   5.753   9.126   7.649 -0.8692  0.7624 -0.3154
  275MOL0     O37038   5.524   8.956   7.596 -0.2678 -0.4810 -0.1928
  275MOL0     C37039   5.262   9.062   7.490  0.6319  0.0140 -0.2808
  275MOL0     C37040   5.133   9.069   7.467  0.2684 -0.0543 -0.3670
  275MOL0     N37041   4.404   9.251   7.931  0.1704 -0.1518  0.0522
  275MOL0     N37042   4.335   9.304   8.026 -0.4584  0.1124 -0.3272
  275MOL0     C37043   4.293  10.094   7.551 -0.5528 -0.7322  0.3140
  275MOL0     C37044   4.418  10.159   7.516  0.5986 -1.0796 -0.0505
  275MOL0     C37045   4.827  10.294   7.426  1.0597  0.1479 -0.1629
  275MOL0     C37046   4.922  10.255   7.329 -0.1599  0.1476 -0.2747
  275MOL0     C37047   5.056  10.280   7.353 -0.1631 -1.1598 -0.1782
  275MOL0     C37048   5.098  10.369   7.454 -1.1621 -0.9115 -0.1727
  275MOL0     O37049   5.236  10.398   7.461  0.3869  0.0452  0.3051
  275MOL0     C37050   5.292  10.459   7.583  0.4575  0.0371  0.0102
  275MOL0     C37051   5.314  10.615   7.570  0.1803 -0.4973  0.2737
  275MOL0     C37052   5.447  10.633   7.491 -0.0309  0.5278 -0.1886
  275MOL0     C37053   5.489  10.777   7.482  0.2013 -0.3523 -0.2087
  275MOL0     C37054   5.530  10.819   7.619  0.2908 -0.9331  0.9207
  275MOL0     C37055   5.555  10.861   7.732 -0.2218  0.6456  0.0577
  275MOL0     C37056   4.996  10.440   7.526 -0.1584 -0.4522 -0.8077
  275MOL0     C37057   4.864  10.390   7.517  0.5504 -0.0620 -0.5578
  275MOL0     H37058   4.633   9.924   7.601  0.8223  0.7541 -1.7855
  275MOL0     H37059   4.425   9.811   7.669 -0.4380  0.0284  0.5539
  275MOL0     H37060   4.133  10.065   7.766  0.9809 -2.1752  2.8116
  275MOL0     H37061   4.019  10.004   7.634  0.2211 -0.9632 -0.2545
  275MOL0     H37062   3.942   9.946   7.853  1.9162  2.3246 -1.2716
  275MOL0     H37063   3.961   9.800   7.769  3.1949 -1.1820 -1.9419
  275MOL0     H37064   4.219   9.887   7.894 -1.0713  2.0922 -1.1576
  275MOL0     H37065   4.091   9.888   8.019  0.3586  0.2339  0.3546
  275MOL0     H37066   4.012   9.666   7.970  0.7110 -3.5061  2.3181
  275MOL0     H37067   4.148   9.638   7.867  1.6899 -0.0065 -0.2790
  275MOL0     H37068   4.173   9.716   8.158 -1.4011 -1.3432 -0.7888
  275MOL0     H37069   4.165   9.543   8.094 -0.5161  0.7414  1.4458
  275MOL0     H37070   4.361   9.585   7.951 -1.9885 -0.9608 -1.1166
  275MOL0     H37071   4.379   9.748   8.033 -3.6267  1.5184  1.2290
  275MOL0     H37072   4.522   9.604   8.154  0.2696 -3.2080 -0.0642
  275MOL0     H37073   4.390   9.671   8.253 -2.2925  2.4291 -2.2339
  275MOL0     H37074   4.278   9.440   8.238 -0.2510 -0.5465 -2.3102
  275MOL0     H37075   4.448   9.428   8.308  1.3330 -0.1343 -0.4611
  275MOL0     H37076   4.643   9.394   8.109 -0.1716 -1.0474  1.6631
  275MOL0     H37077   4.705   9.348   7.858  1.0821 -0.2143  0.4520
  275MOL0     H37078   4.696   9.170   7.897 -0.3580  0.6690  0.5419
  275MOL0     H37079   4.514   9.274   7.676  0.5026  1.0617 -1.0578
  275MOL0     H37080   4.562   9.121   7.729  0.5054 -0.2572  0.7763
  275MOL0     H37081   4.735   9.342   7.604 -2.6540  0.2916 -1.6564
  275MOL0     H37082   4.677   9.206   7.521 -0.1925 -2.1637  0.8817
  275MOL0     H37083   4.806   9.065   7.699  0.1929  0.2306 -1.8100
  275MOL0     H37084   4.893   9.219   7.713 -2.1324  3.4323 -0.8216
  275MOL0     H37085   5.039   9.079   7.795  0.4113  3.7264 -0.3460
  275MOL0     H37086   5.225   9.071   7.953 -0.4055 -2.3147  0.5425
  275MOL0     H37087   5.368   8.998   7.889 -0.1955  0.1143 -0.0704
  275MOL0     H37088   5.344   9.177   7.886  1.9356 -1.1662  0.9745
  275MOL0     H37089   5.634   9.230   7.948  0.6175 -0.0682  0.3494
  275MOL0     H37090   5.854   9.223   8.011 -1.9409 -1.7130  0.9220
  275MOL0     H37091   6.063   8.980   7.801  0.1552 -0.8760  2.7578
  275MOL0     H37092   6.202   9.068   7.727 -1.9729  1.5826 -2.1085
  275MOL0     H37093   6.277   9.122   7.958 -0.5160 -0.3317  2.5633
  275MOL0     H37094   6.148   9.042   8.036  0.9563  2.3867  1.9325
  275MOL0     H37095   6.356   8.927   7.842 -0.5157 -0.8303 -1.1212
  275MOL0     H37096   6.231   8.822   7.921 -2.0495  1.3371 -0.8416
  275MOL0     H37097   6.450   8.992   8.070  0.8338 -0.7842 -0.1810
  275MOL0     H37098   6.351   8.865   8.144  0.7506  0.5811  0.7991
  275MOL0     H37099   6.561   8.818   7.920 -2.1699 -3.3321 -0.9894
  275MOL0     H37100   6.473   8.689   7.998 -0.0604  0.1416 -1.2631
  275MOL0     H37101   6.584   8.770   8.221  2.5155  0.0826  0.8880
  275MOL0     H37102   6.687   8.689   8.102 -1.0233 -0.9872  0.9380
  275MOL0     H37103   6.652   8.981   8.060  0.0211 -0.9575 -1.5949
  275MOL0     H37104   6.787   8.876   8.041 -0.9197 -2.4221  0.3019
  275MOL0     H37105   6.876   8.994   8.223 -0.9345  2.0054  2.3754
  275MOL0     H37106   6.809   8.858   8.304 -4.2631  0.2386  2.2753
  275MOL0     H37107   5.963   9.141   7.607 -1.1942  1.8459 -1.8438
  275MOL0     H37108   5.739   9.100   7.545 -0.2127 -0.0922 -0.2091
  275MOL0     H37109   5.323   9.050   7.401  0.7461 -0.1289 -0.1822
  275MOL0     H37110   5.102   9.078   7.364 -2.4994 -2.4352  0.1058
  275MOL0     H37111   4.200  10.146   7.531  0.1965  1.0772  1.3028
  275MOL0     H37112   4.403  10.258   7.475 -2.9953 -1.9794 -1.3133
  275MOL0     H37113   4.893  10.188   7.249 -1.9152  1.8426 -1.1400
  275MOL0     H37114   5.135  10.250   7.284  0.8875  0.6924  0.1415
  275MOL0     H37115   5.231  10.441   7.672  1.4495  1.0508  0.9181
  275MOL0     H37116   5.387  10.409   7.603 -0.9877 -1.7985  3.0719
  275MOL0     H37117   5.325  10.656   7.671  1.1481 -0.1468  0.0348
  275MOL0     H37118   5.229  10.663   7.520  0.7188  1.2511  0.9555
  275MOL0     H37119   5.430  10.592   7.392 -2.4747 -0.7139  0.6545
  275MOL0     H37120   5.523  10.575   7.544 -1.9610 -0.8591  1.2422
  275MOL0     H37121   5.404  10.830   7.439  0.3500 -2.1855 -3.1038
  275MOL0     H37122   5.576  10.782   7.415  1.0331 -1.0472  0.7995
  275MOL0     H37123   5.570  10.917   7.822  1.0930 -0.2381  0.4160
  275MOL0     H37124   5.017  10.528   7.587  2.0236 -2.2577  1.2391
  275MOL0     H37125   4.780  10.433   7.571 -0.1869 -0.8570 -1.0430
  276MOL0     O37126   6.467   8.026   3.280 -0.7572  0.7217 -0.6246
  276MOL0     C37127   6.528   7.934   3.231  0.2540  0.7954  0.5599
  276MOL0     O37128   6.465   7.841   3.150 -0.7440  0.0438  0.3828
  276MOL0     C37129   6.338   7.867   3.110  0.1038  0.4542 -0.3242
  276MOL0     C37130   6.230   7.794   3.169  0.0199 -0.0139 -0.0448
  276MOL0     C37131   6.095   7.821   3.143  0.4873 -0.5990  0.0440
  276MOL0     C37132   6.066   7.928   3.053 -0.0096  0.2515  0.2659
  276MOL0     O37133   5.948   7.989   3.031  0.1225  0.3937  0.3810
  276MOL0     C37134   5.845   7.950   3.119  0.3167  0.3887 -1.2779
  276MOL0     C37135   5.727   8.024   3.070 -0.0900  0.1137 -0.1391
  276MOL0     C37136   5.596   7.980   3.147 -0.1298 -1.1803 -0.0389
  276MOL0     C37137   5.470   8.003   3.060  0.3731  0.5501  0.5571
  276MOL0     C37138   5.340   7.963   3.149  0.2618 -0.1839  0.4448
  276MOL0     C37139   5.219   7.907   3.068  0.1125  0.8655 -0.6988
  276MOL0     C37140   5.096   7.892   3.162  0.6272 -0.3209  0.4134
  276MOL0     C37141   4.958   7.871   3.105  0.1869 -0.0918 -1.0555
  276MOL0     N37142   4.957   7.762   3.010  0.4223  1.5390  0.1558
  276MOL0     C37143   4.992   7.770   2.880  0.2861  0.5495 -0.2003
  276MOL0     C37144   4.948   7.651   2.825  0.0631 -0.2327  0.0843
  276MOL0     C37145   4.972   7.629   2.673  0.2266  0.5422 -0.0250
  276MOL0     C37146   4.973   7.471   2.641  0.1319  0.6539  0.0608
  276MOL0     C37147   4.838   7.393   2.656  0.2048 -0.4381  0.0855
  276MOL0     C37148   4.854   7.250   2.609  0.1421 -0.1366 -0.3139
  276MOL0     O37149   4.745   7.155   2.622 -0.4077 -0.4075  0.1092
  276MOL0     C37150   4.631   7.176   2.552  0.4907  0.3427 -0.3872
  276MOL0     C37151   4.624   7.250   2.433 -0.4833  0.2278  0.0104
  276MOL0     C37152   4.505   7.247   2.363 -0.3215 -0.0884  0.0225
  276MOL0     C37153   4.496   7.311   2.228 -0.6629  0.6908 -0.7428
  276MOL0     C37154   4.395   7.160   2.407  0.4360  0.4028 -0.1102
  276MOL0     C37155   4.262   7.148   2.337 -0.1213 -0.5551 -0.3149
  276MOL0     O37156   4.194   7.035   2.346 -0.5574  0.0838 -0.6335
  276MOL0     C37157   4.087   7.013   2.265  0.8220  0.0606  0.4871
  276MOL0     C37158   4.101   6.949   2.140 -0.9086  0.6261  0.3687
  276MOL0     C37159   3.993   6.910   2.068 -0.1923 -0.4063 -0.0392
  276MOL0     C37160   3.864   6.925   2.121 -0.5667  0.1778 -0.1319
  276MOL0     O37161   3.752   6.892   2.053 -0.2702 -0.1118  0.6656
  276MOL0     C37162   3.769   6.784   1.963  0.4616  1.0335 -0.4738
  276MOL0     C37163   3.628   6.768   1.898 -0.4516 -0.3633 -0.1717
  276MOL0     C37164   3.521   6.720   1.998 -0.5483  0.4065  1.0465
  276MOL0     C37165   3.422   6.827   2.026 -0.2334 -1.1555 -0.2730
  276MOL0     C37166   3.312   6.788   2.125  0.0433 -0.3415 -0.4617
  276MOL0     C37167   3.222   6.682   2.056  0.4608  1.3128 -0.1370
  276MOL0     C37168   3.093   6.647   2.136 -0.2676  0.1159  1.4441
  276MOL0     C37169   3.014   6.767   2.175  0.7172 -0.1552  0.4712
  276MOL0    Cl37170   2.848   6.715   2.183 -0.4051 -0.1859  0.5350
  276MOL0     C37171   3.853   6.987   2.243  0.0398  0.6555 -0.3368
  276MOL0     C37172   3.962   7.026   2.316  0.1272  0.3980 -0.3194
  276MOL0     O37173   4.228   7.246   2.273  0.3845  0.2876  1.0221
  276MOL0     C37174   4.406   7.092   2.528 -0.0837 -0.4783  0.6438
  276MOL0     C37175   4.522   7.096   2.594  0.0970  0.0869  0.5379
  276MOL0     N37176   4.892   7.578   2.923  0.4549  0.4910 -0.9409
  276MOL0     N37177   4.895   7.647   3.034 -0.4680 -0.4758  0.0826
  276MOL0     C37178   6.170   7.994   2.998 -0.4207 -0.3371  0.2139
  276MOL0     C37179   6.305   7.960   3.019  0.4002 -0.5815 -0.0473
  276MOL0     C37180   6.673   7.908   3.263 -0.2876  0.0819 -0.0443
  276MOL0     C37181   6.751   7.988   3.344 -0.5486  0.5027  0.2977
  276MOL0     C37182   6.890   7.960   3.366 -0.3161  0.3007 -0.2972
  276MOL0     C37183   6.945   7.853   3.303  0.2530  0.5910 -0.3543
  276MOL0     O37184   7.075   7.841   3.304 -0.4204  1.0464 -0.2363
  276MOL0     C37185   7.150   7.922   3.215  0.2442 -0.1314  0.6747
  276MOL0     C37186   7.139   7.858   3.075  0.0335 -0.2330  0.9678
  276MOL0     C37187   7.200   7.719   3.073  0.1344 -0.3140 -0.5096
  276MOL0     C37188   7.166   7.629   2.954  0.2477  0.7619 -0.5218
  276MOL0     C37189   7.034   7.560   2.961  0.4321  0.0773 -0.5513
  276MOL0     C37190   6.923   7.504   2.970  0.1103  0.5676  0.3403
  276MOL0     C37191   6.865   7.765   3.228 -0.0635 -0.4246  0.0166
  276MOL0     C37192   6.726   7.792   3.204 -0.2755 -0.7123  0.2092
  276MOL0     H37193   6.270   7.742   3.256  1.1907  0.3092 -0.3756
  276MOL0     H37194   6.016   7.768   3.196  0.3052  0.8830  1.3109
  276MOL0     H37195   5.828   7.842   3.109  3.0112 -0.1509 -0.7986
  276MOL0     H37196   5.862   7.972   3.225  2.3368  1.8160 -1.8438
  276MOL0     H37197   5.747   8.131   3.078  0.7328 -0.1317  1.3680
  276MOL0     H37198   5.712   7.997   2.965 -0.5643 -0.4214  0.0567
  276MOL0     H37199   5.608   7.880   3.189  3.4739 -1.8770 -2.2108
  276MOL0     H37200   5.574   8.051   3.227  0.6460  0.3462 -1.1120
  276MOL0     H37201   5.467   8.107   3.028 -0.3733 -0.2255 -2.2098
  276MOL0     H37202   5.476   7.944   2.967 -0.7589 -0.4521  1.0865
  276MOL0     H37203   5.363   7.891   3.228  0.0171 -0.0531  0.6391
  276MOL0     H37204   5.309   8.063   3.181  0.1292  0.6165 -2.0358
  276MOL0     H37205   5.199   7.976   2.985 -0.8858 -1.4024 -2.4585
  276MOL0     H37206   5.263   7.814   3.032  0.0358  0.4470  0.2721
  276MOL0     H37207   5.101   7.808   3.232  0.1666 -0.8900 -0.2238
  276MOL0     H37208   5.093   7.989   3.212 -1.7490  0.8692 -1.8194
  276MOL0     H37209   4.933   7.966   3.056 -1.8420  1.2853  2.2363
  276MOL0     H37210   4.889   7.848   3.187  1.3025  0.2306  0.0087
  276MOL0     H37211   5.034   7.856   2.827 -2.6648  1.8645 -0.5763
  276MOL0     H37212   4.903   7.690   2.614 -1.4256  0.3652  1.6435
  276MOL0     H37213   5.071   7.669   2.650  0.0842  0.4050 -0.9328
  276MOL0     H37214   5.046   7.410   2.695  0.0776  0.6291  0.1058
  276MOL0     H37215   5.004   7.474   2.536 -3.4948  1.1895 -1.1361
  276MOL0     H37216   4.756   7.441   2.602 -3.3362 -5.4775  0.3371
  276MOL0     H37217   4.820   7.400   2.764 -0.6042 -1.9328  0.0772
  276MOL0     H37218   4.924   7.205   2.679  0.4408  2.4793  1.2068
  276MOL0     H37219   4.896   7.252   2.508 -3.0353  3.9481 -1.8600
  276MOL0     H37220   4.710   7.308   2.400  0.3358  0.2080  1.9731
  276MOL0     H37221   4.456   7.240   2.156 -2.1109 -0.9790  1.5616
  276MOL0     H37222   4.424   7.394   2.223 -1.1780  0.2231 -1.1570
  276MOL0     H37223   4.592   7.352   2.195 -0.5866 -0.6874 -2.3424
  276MOL0     H37224   4.189   6.910   2.092 -3.1554 -0.3735 -3.3622
  276MOL0     H37225   4.020   6.863   1.975  1.1193  3.3642 -1.7383
  276MOL0     H37226   3.837   6.798   1.879 -3.6022  2.7265 -3.8655
  276MOL0     H37227   3.803   6.693   2.013  0.1169  1.0193 -0.2553
  276MOL0     H37228   3.598   6.864   1.855  0.6981 -0.0932 -0.4168
  276MOL0     H37229   3.645   6.696   1.817  1.2735 -1.2712  0.9537
  276MOL0     H37230   3.572   6.686   2.089  0.4113 -0.7492  0.1131
  276MOL0     H37231   3.468   6.641   1.944 -2.8025  1.3882  1.7329
  276MOL0     H37232   3.473   6.914   2.068 -0.1974 -1.7464  0.9762
  276MOL0     H37233   3.370   6.863   1.937 -0.4097  0.1036  0.3282
  276MOL0     H37234   3.265   6.883   2.152  0.8822 -0.0124 -0.1190
  276MOL0     H37235   3.357   6.743   2.213 -0.0500 -1.6669 -1.0648
  276MOL0     H37236   3.195   6.708   1.954 -0.5241 -4.4211 -1.7223
  276MOL0     H37237   3.283   6.591   2.048  1.2647  1.5393  2.4841
  276MOL0     H37238   3.123   6.611   2.235  1.1692 -3.0417 -0.0096
  276MOL0     H37239   3.032   6.570   2.087  0.0750  0.4844  0.4169
  276MOL0     H37240   3.030   6.840   2.095  2.0221 -1.1765 -0.2399
  276MOL0     H37241   3.051   6.808   2.269  1.5641  0.7106 -0.2143
  276MOL0     H37242   3.750   6.996   2.279  0.7140  1.7338  1.4960
  276MOL0     H37243   3.954   7.069   2.416  0.3829  1.7521 -0.8579
  276MOL0     H37244   4.322   7.030   2.558 -0.2611 -0.7850 -0.4402
  276MOL0     H37245   4.539   7.044   2.688  1.0786 -0.0972  0.2697
  276MOL0     H37246   6.153   8.084   2.939  0.6727  0.3863  0.9516
  276MOL0     H37247   6.378   8.020   2.966 -1.5332  2.8715  0.8624
  276MOL0     H37248   6.706   8.077   3.386 -1.0236  0.3767  0.0701
  276MOL0     H37249   6.956   8.020   3.428 -0.7881  1.4438 -0.8529
  276MOL0     H37250   7.111   8.024   3.218 -0.1540 -0.1857 -1.3355
  276MOL0     H37251   7.254   7.919   3.248 -0.4679 -1.1858  2.9877
  276MOL0     H37252   7.207   7.916   3.012  1.6884 -3.3445 -0.3222
  276MOL0     H37253   7.037   7.854   3.035  0.7654  0.3133 -1.0782
  276MOL0     H37254   7.175   7.669   3.167 -0.7943  0.0654 -0.5448
  276MOL0     H37255   7.307   7.741   3.070 -0.1667  1.2565 -0.6247
  276MOL0     H37256   7.236   7.546   2.940 -3.4306 -2.9803  1.1227
  276MOL0     H37257   7.163   7.698   2.870 -0.8438  0.1232 -1.0205
  276MOL0     H37258   6.833   7.447   2.974  0.1666  0.2677 -1.5037
  276MOL0     H37259   6.911   7.681   3.177  1.8114 -0.6700  1.9524
  276MOL0     H37260   6.663   7.731   3.140 -0.4398  3.5609 -4.3302
  277MOL0     O37261   0.971   4.274   9.974 -0.0897  0.7119 -0.1204
  277MOL0     C37262   0.958   4.161   9.934  0.1052  0.5895  0.7562
  277MOL0     O37263   1.059   4.067   9.909 -0.3747  0.1248  0.1364
  277MOL0     C37264   1.194   4.108   9.910  0.3012  0.6263 -0.2334
  277MOL0     C37265   1.287   4.010   9.933 -0.0455 -0.1226 -0.3723
  277MOL0     C37266   1.423   4.027   9.942  0.1231  0.6774  0.6177
  277MOL0     C37267   1.480   4.151   9.922 -0.4792 -0.2480 -0.4198
  277MOL0     O37268   1.616   4.164   9.933 -0.0139  0.9307 -0.3572
  277MOL0     C37269   1.704   4.055   9.876  0.1345 -0.0544  0.2822
  277MOL0     C37270   1.845   4.112   9.828  0.1632 -0.0961 -1.0865
  277MOL0     C37271   1.921   4.166   9.948  0.0618 -0.6447  0.7165
  277MOL0     C37272   2.063   4.223   9.910  0.3701  0.1716 -0.7818
  277MOL0     C37273   2.171   4.111   9.907 -0.6689 -0.1657  0.4482
  277MOL0     C37274   2.295   4.166   9.843  0.0547 -0.0881 -0.5161
  277MOL0     C37275   2.399   4.053   9.825  0.4938  0.4849  0.0194
  277MOL0     C37276   2.538   4.097   9.770  0.4683  0.6956  1.2127
  277MOL0     N37277   2.524   4.148   9.638  0.1978 -0.6521  0.1253
  277MOL0     C37278   2.550   4.082   9.524 -0.6459  0.8409 -0.0657
  277MOL0     C37279   2.510   4.174   9.427  0.0833  0.4444 -0.7569
  277MOL0     C37280   2.498   4.160   9.278 -0.0440  0.1860  0.5839
  277MOL0     C37281   2.589   4.064   9.218 -1.1019 -0.3580  0.5652
  277MOL0     C37282   2.557   4.025   9.070  0.3566  1.2944  0.2284
  277MOL0     C37283   2.447   3.918   9.061  0.5753 -0.0086 -0.1091
  277MOL0     O37284   2.320   3.968   9.101 -0.7069 -0.1846  0.1496
  277MOL0     C37285   2.239   3.896   9.186 -0.3274 -0.4506  0.9574
  277MOL0     C37286   2.259   3.910   9.323 -0.3919  0.6784  0.8244
  277MOL0     C37287   2.168   3.849   9.416 -0.4181 -0.1118 -0.6942
  277MOL0     C37288   2.187   3.875   9.561  0.1515  0.4091 -1.0489
  277MOL0     C37289   2.062   3.769   9.367  0.1854  0.5969 -1.1924
  277MOL0     C37290   1.951   3.702   9.451  0.1130 -0.5373 -0.1925
  277MOL0     O37291   1.927   3.754   9.575  0.7924  0.2802  0.7702
  277MOL0     C37292   1.814   3.722   9.643  0.4556  0.7851 -0.1662
  277MOL0     C37293   1.679   3.740   9.599 -0.0930 -0.3156 -0.0605
  277MOL0     C37294   1.572   3.701   9.671  0.9531 -1.0578  0.5347
  277MOL0     C37295   1.588   3.649   9.796  0.3522 -0.0558  0.2535
  277MOL0     O37296   1.478   3.608   9.872  0.3490  0.3455  0.2492
  277MOL0     C37297   1.501   3.562  10.009 -0.3834  0.6148  0.1483
  277MOL0     C37298   1.370   3.525  10.065 -0.2273 -0.3844 -0.2292
  277MOL0     C37299   1.274   3.643  10.084  0.8103  0.4004  0.8224
  277MOL0     C37300   1.151   3.591  10.143  0.6239  0.2850 -0.1220
  277MOL0     C37301   1.037   3.692  10.149 -0.4652  0.3162  0.1284
  277MOL0     C37302   0.920   3.638  10.236  0.5409  0.7337 -0.3283
  277MOL0     C37303   0.806   3.736  10.227  0.4182  0.0125 -0.7499
  277MOL0     C37304   0.702   3.709  10.331 -0.0500 -0.1395 -0.4531
  277MOL0    Cl37305   0.558   3.792  10.309  0.2113  0.2001  0.1113
  277MOL0     C37306   1.719   3.626   9.846 -0.1516  0.1358 -0.3314
  277MOL0     C37307   1.833   3.659   9.768  0.3510  0.6668  0.4250
  277MOL0     O37308   1.884   3.615   9.399  0.2714  0.2054 -0.2272
  277MOL0     C37309   2.057   3.748   9.221 -0.7126 -0.2072 -0.3378
  277MOL0     C37310   2.144   3.803   9.132 -0.7999  0.0568 -0.2109
  277MOL0     N37311   2.480   4.287   9.494  0.3476 -0.0748  0.0589
  277MOL0     N37312   2.491   4.276   9.614  0.0403 -0.6730 -0.2896
  277MOL0     C37313   1.393   4.261   9.893 -0.5479  0.1550  0.0201
  277MOL0     C37314   1.248   4.241   9.887 -0.4835 -0.0512  0.1502
  277MOL0     C37315   0.822   4.113   9.913 -0.0716 -0.3867 -0.5377
  277MOL0     C37316   0.800   3.975   9.908 -0.2440 -0.2915 -0.1071
  277MOL0     C37317   0.673   3.924   9.888  0.2730 -0.1453  0.2441
  277MOL0     C37318   0.568   4.007   9.878  0.0888 -0.9005  0.4909
  277MOL0     O37319   0.444   3.953   9.860 -0.1790 -0.1257 -0.4375
  277MOL0     C37320   0.370   4.002   9.754  0.2721  0.3224  0.1844
  277MOL0     C37321   0.420   3.977   9.614  0.6101  0.0694  0.1619
  277MOL0     C37322   0.387   3.835   9.576 -0.0115  0.6409  0.0729
  277MOL0     C37323   0.445   3.798   9.440  0.7308  0.7285 -0.8438
  277MOL0     C37324   0.586   3.768   9.456  0.1800 -0.2796  0.3689
  277MOL0     C37325   0.706   3.752   9.465  0.4432 -0.8322 -0.7545
  277MOL0     C37326   0.590   4.148   9.891  0.3877 -0.3864 -0.0030
  277MOL0     C37327   0.716   4.201   9.914  0.0608 -0.4065 -0.1094
  277MOL0     H37328   1.261   3.906   9.947  0.0268  0.2136  2.9126
  277MOL0     H37329   1.489   3.941   9.948 -1.9383 -1.1512 -1.2718
  277MOL0     H37330   1.715   3.972   9.947 -1.1129  0.9561  1.7154
  277MOL0     H37331   1.649   4.015   9.790 -0.3484  1.8843 -0.3687
  277MOL0     H37332   1.909   4.035   9.783  1.0888 -1.8713  2.8330
  277MOL0     H37333   1.835   4.201   9.766  4.1881  1.3704  0.0093
  277MOL0     H37334   1.869   4.252   9.991 -0.1772  0.1866 -1.1786
  277MOL0     H37335   1.928   4.091  10.028  0.7262  0.5322  1.8005
  277MOL0     H37336   2.059   4.272   9.812  1.9585  0.4482 -0.7320
  277MOL0     H37337   2.089   4.305   9.977  1.8180  0.3167 -1.4784
  277MOL0     H37338   2.182   4.077  10.010 -1.9688  2.2899  1.4779
  277MOL0     H37339   2.130   4.033   9.842  1.3353 -2.0012  1.2776
  277MOL0     H37340   2.279   4.207   9.743 -1.0065 -2.3845 -1.3574
  277MOL0     H37341   2.338   4.240   9.913  0.5671  1.2409 -2.1658
  277MOL0     H37342   2.409   4.002   9.921 -0.2192 -0.6170 -0.4669
  277MOL0     H37343   2.357   3.985   9.751 -0.8940  1.3986 -0.0612
  277MOL0     H37344   2.605   4.011   9.770  0.9280  1.0470  1.0404
  277MOL0     H37345   2.570   4.163   9.851 -2.4258  1.9976  1.4181
  277MOL0     H37346   2.588   3.982   9.510 -0.6081  0.8106  0.2520
  277MOL0     H37347   2.392   4.137   9.260 -0.4722  0.9909  1.9518
  277MOL0     H37348   2.507   4.263   9.241  0.8724 -0.3448 -0.7584
  277MOL0     H37349   2.605   3.972   9.276 -1.1478  0.1407  1.3777
  277MOL0     H37350   2.682   4.121   9.212 -0.4609 -1.4844 -3.9934
  277MOL0     H37351   2.643   3.967   9.033 -0.4081  0.5799 -0.4577
  277MOL0     H37352   2.561   4.109   9.000 -0.5041  0.7343 -0.5137
  277MOL0     H37353   2.474   3.837   9.130 -0.7851  0.4764  1.0479
  277MOL0     H37354   2.434   3.871   8.963  2.3773  2.4978 -1.6623
  277MOL0     H37355   2.343   3.971   9.354  0.1338 -0.7278  2.2833
  277MOL0     H37356   2.140   3.965   9.600  2.5318  1.3426 -0.1148
  277MOL0     H37357   2.159   3.781   9.610 -0.1324  1.5669  1.1557
  277MOL0     H37358   2.296   3.882   9.569 -0.0905  3.7407  2.6654
  277MOL0     H37359   1.667   3.785   9.501 -1.8136 -2.0802 -0.7324
  277MOL0     H37360   1.476   3.708   9.621  1.5324 -0.9957 -0.5995
  277MOL0     H37361   1.565   3.474  10.016 -0.2308  0.8643  2.6731
  277MOL0     H37362   1.550   3.639  10.070  1.0319 -1.7979  2.2242
  277MOL0     H37363   1.324   3.451   9.999  2.5724 -0.8104 -1.8695
  277MOL0     H37364   1.380   3.472  10.160 -1.6227  1.1889  0.8592
  277MOL0     H37365   1.251   3.691   9.989  0.6522 -1.2647 -0.0232
  277MOL0     H37366   1.313   3.712  10.159 -1.4094 -0.1986  2.6508
  277MOL0     H37367   1.116   3.502  10.089  0.3778 -0.5919  1.4200
  277MOL0     H37368   1.176   3.556  10.244 -1.2148  1.1775  0.7085
  277MOL0     H37369   1.015   3.708  10.043 -1.3355 -1.0791  0.0741
  277MOL0     H37370   1.074   3.787  10.188 -0.5889  0.5182 -0.2399
  277MOL0     H37371   0.885   3.541  10.200  2.0151 -0.8391  2.1661
  277MOL0     H37372   0.955   3.616  10.338 -2.2739 -0.5437  0.4622
  277MOL0     H37373   0.765   3.738  10.126  1.3425  0.8990 -1.1195
  277MOL0     H37374   0.837   3.839  10.246 -1.1483  0.1835  1.2224
  277MOL0     H37375   0.754   3.728  10.425  2.7799  0.2460 -1.9951
  277MOL0     H37376   0.676   3.602  10.333 -0.5746 -0.0072  0.6132
  277MOL0     H37377   1.741   3.579   9.941 -1.3331 -1.0566 -0.6137
  277MOL0     H37378   1.934   3.639   9.800  0.0141 -2.4677 -0.2009
  277MOL0     H37379   1.977   3.689   9.176  0.7217 -1.7504 -1.0069
  277MOL0     H37380   2.130   3.787   9.025  3.8612  0.3847 -1.0958
  277MOL0     H37381   1.441   4.356   9.873 -1.1449  0.9421  2.0215
  277MOL0     H37382   1.190   4.324   9.848  1.7072  2.7128  2.3484
  277MOL0     H37383   0.880   3.906   9.932 -2.0992 -2.4330  0.2341
  277MOL0     H37384   0.664   3.816   9.881  1.6243 -0.2778  0.3176
  277MOL0     H37385   0.275   3.948   9.744  1.0877 -1.4699  1.4400
  277MOL0     H37386   0.351   4.109   9.760  3.3890  0.8721  2.0802
  277MOL0     H37387   0.528   3.997   9.623  0.7996 -0.7776 -0.1541
  277MOL0     H37388   0.363   4.033   9.539 -1.8723 -0.4376  1.5660
  277MOL0     H37389   0.278   3.831   9.567 -0.0830 -0.1258  1.0663
  277MOL0     H37390   0.417   3.767   9.657  0.2160  0.0872 -0.4625
  277MOL0     H37391   0.423   3.886   9.379  0.1752  1.3521  0.2148
  277MOL0     H37392   0.397   3.706   9.404  1.3049 -0.3295  0.9576
  277MOL0     H37393   0.810   3.731   9.477  0.5751  0.2561  0.1891
  277MOL0     H37394   0.503   4.210   9.871  0.2917 -0.2948  0.6810
  277MOL0     H37395   0.732   4.308   9.922  3.0131 -0.6088 -1.5799
  278MOL0     O37396   1.604   8.353   3.336  0.1658 -0.5005 -0.2647
  278MOL0     C37397   1.620   8.242   3.396  0.2918 -0.5159 -0.0638
  278MOL0     O37398   1.517   8.169   3.442  0.1136  0.1207  0.0202
  278MOL0     C37399   1.389   8.212   3.416  0.2815 -0.9859  0.3605
  278MOL0     C37400   1.342   8.278   3.302 -0.3322 -0.4671  0.2302
  278MOL0     C37401   1.218   8.331   3.288  0.1895 -0.3791  0.0934
  278MOL0     C37402   1.129   8.310   3.388 -0.2783  0.4214 -0.5907
  278MOL0     O37403   1.005   8.351   3.364  0.0662 -0.1809 -0.5677
  278MOL0     C37404   0.947   8.443   3.472  0.1656  0.0273  0.2172
  278MOL0     C37405   0.806   8.489   3.436  0.7768 -0.4363  0.2511
  278MOL0     C37406   0.706   8.376   3.460  0.1575 -0.3446 -0.8153
  278MOL0     C37407   0.578   8.387   3.375 -0.5378 -0.0226 -0.2766
  278MOL0     C37408   0.477   8.294   3.431  0.2120 -0.5941  0.2623
  278MOL0     C37409   0.511   8.145   3.398  0.8972  0.0516 -0.2904
  278MOL0     C37410   0.407   8.047   3.456 -0.0715  0.6131 -0.2536
  278MOL0     C37411   0.451   7.904   3.467 -0.0579 -0.7576 -0.3938
  278MOL0     N37412   0.417   7.828   3.346 -0.1826 -0.7229  0.9662
  278MOL0     C37413   0.472   7.854   3.221 -0.0146  0.1199  0.5823
  278MOL0     C37414   0.406   7.775   3.131 -0.1404  0.6837  0.7754
  278MOL0     C37415   0.430   7.770   2.983  0.5600 -0.2661  0.1181
  278MOL0     C37416   0.317   7.728   2.891  0.4947  0.3663  0.3756
  278MOL0     C37417   0.204   7.836   2.885 -0.7957 -0.1771 -0.3989
  278MOL0     C37418   0.065   7.778   2.865 -0.5415 -0.1290  0.4868
  278MOL0     O37419  -0.018   7.889   2.849  0.2956 -0.4426 -0.0281
  278MOL0     C37420  -0.155   7.875   2.872  0.4656 -0.1117 -0.0054
  278MOL0     C37421  -0.217   7.979   2.944  0.4280 -0.2362  0.4435
  278MOL0     C37422  -0.345   7.973   2.983  0.1200 -0.2039 -1.2353
  278MOL0     C37423  -0.397   8.083   3.074  0.7101  0.0222 -0.5231
  278MOL0     C37424  -0.426   7.859   2.949 -0.5381 -0.0555 -0.4840
  278MOL0     C37425  -0.566   7.852   2.995 -0.3113 -0.8042 -0.2891
  278MOL0     O37426  -0.647   7.789   2.899 -0.2736 -0.2673  0.1729
  278MOL0     C37427  -0.782   7.789   2.909  0.0377  0.1647 -0.3214
  278MOL0     C37428  -0.860   7.817   2.797  0.6437 -0.1179  0.3154
  278MOL0     C37429  -0.998   7.849   2.798  0.3308  0.4993  0.1815
  278MOL0     C37430  -1.067   7.839   2.919 -0.1449 -0.3732 -0.8359
  278MOL0     O37431  -1.200   7.856   2.944 -0.1257  0.5134  0.5932
  278MOL0     C37432  -1.287   7.834   2.841 -0.7693  0.1869 -0.1349
  278MOL0     C37433  -1.437   7.864   2.895  0.5168 -0.2354 -0.0307
  278MOL0     C37434  -1.560   7.832   2.815 -0.0512  0.2110  0.5058
  278MOL0     C37435  -1.620   7.698   2.861  0.0739 -0.2786  0.3184
  278MOL0     C37436  -1.753   7.686   2.785 -0.9525 -0.1011  0.4048
  278MOL0     C37437  -1.840   7.580   2.839  0.2734 -0.3952  0.6107
  278MOL0     C37438  -1.810   7.438   2.784 -0.4402  0.5338  1.0763
  278MOL0     C37439  -1.872   7.406   2.645 -0.0010 -0.6215 -0.6578
  278MOL0    Cl37440  -1.769   7.268   2.604 -0.0169  0.0407 -0.0427
  278MOL0     C37441  -0.993   7.803   3.033 -0.3241  0.1448 -0.3021
  278MOL0     C37442  -0.853   7.769   3.027  0.0174 -0.5198  0.2954
  278MOL0     O37443  -0.600   7.894   3.106  0.3330 -0.2839  0.1327
  278MOL0     C37444  -0.365   7.755   2.871  0.1361 -1.0228  0.6225
  278MOL0     C37445  -0.228   7.755   2.849 -0.3330  0.6577  0.4483
  278MOL0     N37446   0.302   7.722   3.196  0.4568  0.1930  0.0517
  278MOL0     N37447   0.316   7.741   3.322  0.6639  0.0851  0.9870
  278MOL0     C37448   1.157   8.231   3.501 -0.6388 -0.1576 -0.2569
  278MOL0     C37449   1.290   8.187   3.512 -0.7136  0.5213 -0.2493
  278MOL0     C37450   1.752   8.179   3.398 -0.1319  0.3068  0.4657
  278MOL0     C37451   1.856   8.232   3.317  0.3728  1.1184  0.0772
  278MOL0     C37452   1.981   8.175   3.328 -0.4351 -0.2509  0.1398
  278MOL0     C37453   2.014   8.072   3.406 -0.0998 -0.3489 -0.7739
  278MOL0     O37454   2.145   8.023   3.398  0.3550  0.5931 -0.3090
  278MOL0     C37455   2.186   7.912   3.484 -0.1132 -0.1527 -0.0804
  278MOL0     C37456   2.332   7.908   3.489 -0.2665 -0.5933  0.0943
  278MOL0     C37457   2.392   7.908   3.352 -0.2542  0.2089  0.3218
  278MOL0     C37458   2.551   7.919   3.359  0.1870 -0.2947 -0.3168
  278MOL0     C37459   2.607   7.971   3.232 -1.0423 -1.4017  0.5399
  278MOL0     C37460   2.665   8.011   3.127 -0.9864  1.2853  0.0241
  278MOL0     C37461   1.915   8.028   3.487  0.2642 -0.7967 -0.6039
  278MOL0     C37462   1.783   8.078   3.487  0.7045  0.4726  0.7342
  278MOL0     H37463   1.408   8.296   3.217 -0.1090  0.3898  0.5750
  278MOL0     H37464   1.197   8.385   3.196 -0.2512 -1.6082 -0.5465
  278MOL0     H37465   0.941   8.397   3.571 -1.6762 -1.5080 -0.5292
  278MOL0     H37466   1.004   8.536   3.473 -0.7820  0.6681 -1.3008
  278MOL0     H37467   0.771   8.573   3.496 -0.5198  1.5403 -2.9903
  278MOL0     H37468   0.798   8.511   3.329 -0.9770 -0.5659  0.3421
  278MOL0     H37469   0.753   8.281   3.434 -0.2859  0.2613 -4.3001
  278MOL0     H37470   0.684   8.370   3.567  0.1467 -2.3538 -0.8910
  278MOL0     H37471   0.538   8.481   3.415  1.9884  1.5059 -1.0933
  278MOL0     H37472   0.596   8.382   3.267  2.4483 -0.5780  0.1614
  278MOL0     H37473   0.460   8.311   3.538 -2.1016 -0.5042 -0.0814
  278MOL0     H37474   0.384   8.325   3.382 -0.0499  1.7572  2.0320
  278MOL0     H37475   0.523   8.120   3.292 -2.4750 -0.0147 -0.7610
  278MOL0     H37476   0.612   8.139   3.439  0.9158  2.4084  0.1177
  278MOL0     H37477   0.378   8.080   3.556  1.2133  0.5637  0.1550
  278MOL0     H37478   0.323   8.053   3.386  1.5278  1.5148 -2.2192
  278MOL0     H37479   0.401   7.859   3.553 -1.0097  0.1258 -0.4699
  278MOL0     H37480   0.558   7.905   3.487 -0.5486  2.2747  3.1035
  278MOL0     H37481   0.560   7.912   3.194 -0.2299 -0.3473 -1.2279
  278MOL0     H37482   0.459   7.872   2.955  0.0430  0.6473  2.6265
  278MOL0     H37483   0.514   7.706   2.952  1.2314  0.6897 -0.0817
  278MOL0     H37484   0.284   7.629   2.924  3.8594 -1.1738 -0.4046
  278MOL0     H37485   0.356   7.718   2.790 -0.6206  2.6061 -0.3624
  278MOL0     H37486   0.223   7.915   2.812 -0.2976 -0.3405 -0.4531
  278MOL0     H37487   0.200   7.876   2.987 -1.4738 -1.8038  0.2643
  278MOL0     H37488   0.029   7.702   2.934 -1.6870 -0.6832 -0.6941
  278MOL0     H37489   0.069   7.712   2.778 -0.5347 -3.0324  2.5543
  278MOL0     H37490  -0.161   8.070   2.966 -0.4681  0.6197 -0.6927
  278MOL0     H37491  -0.492   8.120   3.035  0.7305  1.4689  0.7235
  278MOL0     H37492  -0.424   8.047   3.174 -1.5167  1.4535 -0.5374
  278MOL0     H37493  -0.329   8.168   3.074 -2.2369  2.5602 -2.7930
  278MOL0     H37494  -0.823   7.809   2.695 -0.1634 -2.7355  0.1628
  278MOL0     H37495  -1.051   7.878   2.708 -0.9086 -0.3134  0.6310
  278MOL0     H37496  -1.270   7.897   2.753 -0.0394 -0.0712 -0.1827
  278MOL0     H37497  -1.272   7.729   2.815 -4.4414 -1.4444  3.2555
  278MOL0     H37498  -1.442   7.794   2.979 -0.8490 -0.9705 -0.6860
  278MOL0     H37499  -1.443   7.967   2.931  0.5512 -0.0068 -0.6643
  278MOL0     H37500  -1.519   7.815   2.715  0.3798  0.2666  0.6718
  278MOL0     H37501  -1.630   7.916   2.808 -1.4648 -0.7686  2.2023
  278MOL0     H37502  -1.554   7.615   2.836 -0.3467 -1.2315  2.1891
  278MOL0     H37503  -1.643   7.703   2.968 -4.7274  0.5863 -0.5313
  278MOL0     H37504  -1.736   7.672   2.678 -1.1238 -2.0977  0.5860
  278MOL0     H37505  -1.810   7.778   2.803  1.6532  1.0534  3.6074
  278MOL0     H37506  -1.844   7.577   2.948  0.3301 -0.2171  0.6183
  278MOL0     H37507  -1.942   7.611   2.814  0.0151 -1.8213 -0.2237
  278MOL0     H37508  -1.843   7.365   2.858 -1.9563 -1.1295 -1.1077
  278MOL0     H37509  -1.701   7.428   2.786 -0.6146 -2.1165  2.0003
  278MOL0     H37510  -1.852   7.480   2.567 -0.8116  2.9047  2.2181
  278MOL0     H37511  -1.979   7.384   2.638  0.2158 -1.2160 -3.1419
  278MOL0     H37512  -1.045   7.792   3.128 -2.0233 -0.7418 -1.2964
  278MOL0     H37513  -0.798   7.732   3.113 -0.8968 -1.4321  0.5133
  278MOL0     H37514  -0.414   7.662   2.847  0.1514 -1.5666  2.5294
  278MOL0     H37515  -0.178   7.666   2.811 -1.3261  1.2769 -2.6187
  278MOL0     H37516   1.077   8.204   3.570 -1.4175  2.4686 -0.0043
  278MOL0     H37517   1.322   8.136   3.602  2.9407  1.6379 -0.7570
  278MOL0     H37518   1.830   8.304   3.240 -0.5668  1.1989  0.4586
  278MOL0     H37519   2.062   8.212   3.266 -1.1400 -0.0264 -0.6551
  278MOL0     H37520   2.150   7.934   3.585  0.4647 -1.2627  0.3807
  278MOL0     H37521   2.156   7.815   3.444  2.0424 -0.5249 -0.9418
  278MOL0     H37522   2.366   7.812   3.529  0.0628 -0.6520 -0.3213
  278MOL0     H37523   2.365   7.988   3.556 -1.4431 -0.0754  0.0896
  278MOL0     H37524   2.356   7.987   3.285  0.0373 -1.4138 -1.8565
  278MOL0     H37525   2.367   7.812   3.306  2.5342 -2.0663  3.1398
  278MOL0     H37526   2.597   7.824   3.385  2.7708  1.6081  2.8809
  278MOL0     H37527   2.584   7.984   3.441 -3.3182 -3.0187  3.7021
  278MOL0     H37528   2.706   8.028   3.029  1.1166  1.4705  0.8934
  278MOL0     H37529   1.920   7.949   3.561 -0.4286  1.1002  1.6062
  278MOL0     H37530   1.709   8.036   3.554  2.3083 -0.9859  1.6592
  279MOL0     O37531   0.744   7.172  11.310 -0.5036  0.0588  0.5731
  279MOL0     C37532   0.808   7.072  11.270 -0.5598 -0.8721  0.6577
  279MOL0     O37533   0.760   6.950  11.243  0.0885 -0.0340  0.0500
  279MOL0     C37534   0.626   6.924  11.219 -0.2549 -1.1089  0.9969
  279MOL0     C37535   0.529   7.012  11.155  0.2450 -0.1997  0.5163
  279MOL0     C37536   0.397   6.982  11.143  0.4533  0.0264 -0.3116
  279MOL0     C37537   0.349   6.855  11.182  0.4890 -0.1590  0.0842
  279MOL0     O37538   0.218   6.814  11.176  0.4216  0.2836  0.1313
  279MOL0     C37539   0.111   6.908  11.202  0.4661 -0.0265 -1.1869
  279MOL0     C37540  -0.025   6.832  11.195 -0.3074 -0.3858 -0.8785
  279MOL0     C37541  -0.037   6.765  11.057  0.0842 -0.0078 -0.8363
  279MOL0     C37542  -0.168   6.684  11.063  0.4138  0.0928  0.0890
  279MOL0     C37543  -0.194   6.600  10.932  0.5028 -0.1370 -0.5585
  279MOL0     C37544  -0.322   6.508  10.952 -0.3426  0.0029 -0.6505
  279MOL0     C37545  -0.326   6.397  10.848  0.2381  0.8790  1.5198
  279MOL0     C37546  -0.392   6.444  10.713 -0.3777 -0.4241 -0.0659
  279MOL0     N37547  -0.537   6.452  10.726  0.1392 -0.8608  0.2573
  279MOL0     C37548  -0.635   6.362  10.728 -0.1332  0.0193  1.1146
  279MOL0     C37549  -0.756   6.430  10.735  0.9635  0.2960  1.2608
  279MOL0     C37550  -0.891   6.367  10.734  0.0352  0.5047  0.0173
  279MOL0     C37551  -0.982   6.414  10.842  0.4667  0.9106 -0.2117
  279MOL0     C37552  -1.116   6.346  10.824 -0.5552  0.1087 -0.4895
  279MOL0     C37553  -1.102   6.193  10.842  0.5172  0.7990  0.1422
  279MOL0     O37554  -1.227   6.116  10.860 -0.1970 -0.5052 -0.1767
  279MOL0     C37555  -1.279   6.093  10.988 -0.2908 -0.4314  0.1463
  279MOL0     C37556  -1.389   6.011  10.994  0.4260 -0.2646  0.7124
  279MOL0     C37557  -1.455   5.983  11.113 -0.4845 -0.1188  0.4520
  279MOL0     C37558  -1.579   5.893  11.107  0.6941  0.3123  0.4316
  279MOL0     C37559  -1.406   6.035  11.235  0.5910  0.6820  0.1071
  279MOL0     C37560  -1.463   5.996  11.374  0.1972  0.1137 -0.1328
  279MOL0     O37561  -1.396   6.066  11.481 -0.3154 -0.1628 -0.3951
  279MOL0     C37562  -1.444   6.034  11.607 -0.7064  0.2884 -0.1143
  279MOL0     C37563  -1.576   6.069  11.649 -0.2438 -0.5627  0.1343
  279MOL0     C37564  -1.615   6.064  11.786  0.6258 -0.2756  0.2612
  279MOL0     C37565  -1.533   5.995  11.873 -0.7678  0.4143  0.6901
  279MOL0     O37566  -1.584   5.986  11.999  0.2559  0.0931  0.2661
  279MOL0     C37567  -1.528   5.889  12.082  0.5627 -0.0775  0.2098
  279MOL0     C37568  -1.610   5.870  12.215  0.2137  0.2786 -0.5273
  279MOL0     C37569  -1.758   5.833  12.193 -0.0429 -0.4887 -0.0166
  279MOL0     C37570  -1.826   5.827  12.329  0.0657 -0.0458 -1.0096
  279MOL0     C37571  -1.976   5.796  12.316  0.1531 -0.7988 -0.0061
  279MOL0     C37572  -2.038   5.812  12.455 -0.9505 -0.1729  0.3902
  279MOL0     C37573  -2.191   5.797  12.450 -0.9662 -0.4944  0.6552
  279MOL0     C37574  -2.246   5.836  12.589 -0.1225  0.0301 -0.5298
  279MOL0    Cl37575  -2.245   5.698  12.697  0.0439  0.0437 -0.0824
  279MOL0     C37576  -1.407   5.942  11.828 -0.4395  0.0542 -0.9668
  279MOL0     C37577  -1.361   5.966  11.700  0.1618 -0.5351 -0.2974
  279MOL0     O37578  -1.566   5.933  11.386  0.3773 -0.3105 -0.2212
  279MOL0     C37579  -1.286   6.109  11.227  0.4400  0.1307 -0.3303
  279MOL0     C37580  -1.242   6.157  11.104  0.0229  0.1299  0.2324
  279MOL0     N37581  -0.729   6.562  10.754  0.0566  0.0650 -0.2905
  279MOL0     N37582  -0.601   6.577  10.742  0.1821  0.2370  0.8411
  279MOL0     C37583   0.442   6.766  11.234 -0.0465 -0.1136 -0.2290
  279MOL0     C37584   0.576   6.806  11.262  0.6441  0.0113  0.5759
  279MOL0     C37585   0.957   7.075  11.304 -0.1991 -0.5874  0.5748
  279MOL0     C37586   1.023   7.197  11.335  0.2256 -0.7384  0.2904
  279MOL0     C37587   1.160   7.208  11.365  0.6029  0.7729  0.4503
  279MOL0     C37588   1.233   7.083  11.371  0.4805 -0.1224 -0.6733
  279MOL0     O37589   1.365   7.073  11.410  0.1290 -0.1702 -0.4904
  279MOL0     C37590   1.429   7.194  11.444  0.4948  0.6514  0.0827
  279MOL0     C37591   1.549   7.153  11.524 -0.5705  0.2066 -0.1459
  279MOL0     C37592   1.617   7.271  11.599 -0.2597  0.2032  0.0101
  279MOL0     C37593   1.742   7.229  11.668 -0.1979 -0.1873  0.6529
  279MOL0     C37594   1.718   7.128  11.770  0.1551 -0.2879 -0.1729
  279MOL0     C37595   1.690   7.035  11.845  1.0396  0.7485 -0.2867
  279MOL0     C37596   1.167   6.961  11.332  0.6058 -0.1765 -0.1152
  279MOL0     C37597   1.034   6.960  11.294  0.4419 -0.0701 -0.7603
  279MOL0     H37598   0.568   7.111  11.132 -0.5999  0.2106  0.8119
  279MOL0     H37599   0.324   7.057  11.116  0.6315 -0.4665 -2.2519
  279MOL0     H37600   0.136   6.954  11.298 -0.0211 -0.9722 -0.5961
  279MOL0     H37601   0.100   6.980  11.120  1.3199 -0.4263 -1.6706
  279MOL0     H37602  -0.033   6.765  11.281  1.7082  1.2237  0.6587
  279MOL0     H37603  -0.106   6.903  11.213  0.4110  0.5218 -1.1825
  279MOL0     H37604  -0.042   6.846  10.983  0.6803 -0.0588 -0.9380
  279MOL0     H37605   0.043   6.692  11.044 -1.6580 -1.6904 -2.8936
  279MOL0     H37606  -0.170   6.618  11.151 -3.0585  3.2901  2.7113
  279MOL0     H37607  -0.253   6.751  11.077 -0.0796 -0.3159 -0.8456
  279MOL0     H37608  -0.203   6.670  10.848  0.9592  0.0335 -0.4733
  279MOL0     H37609  -0.106   6.540  10.908  1.1738  1.1053 -1.3154
  279MOL0     H37610  -0.316   6.461  11.050  4.1653 -0.0114 -0.7262
  279MOL0     H37611  -0.403   6.580  10.932 -0.2183 -0.2010 -1.9724
  279MOL0     H37612  -0.229   6.356  10.820 -1.6572 -1.3342 -2.9977
  279MOL0     H37613  -0.380   6.307  10.880 -0.3184 -0.8638 -3.3906
  279MOL0     H37614  -0.372   6.377  10.629 -0.1779 -0.7347  0.2264
  279MOL0     H37615  -0.359   6.544  10.687 -2.8472  0.1627 -1.2847
  279MOL0     H37616  -0.624   6.255  10.724 -0.8039 -0.0207 -1.2381
  279MOL0     H37617  -0.931   6.387  10.634  0.1752  2.9476  0.3916
  279MOL0     H37618  -0.873   6.260  10.743 -2.2834  0.0368 -0.2536
  279MOL0     H37619  -0.993   6.522  10.831 -0.2801  0.6219 -3.0382
  279MOL0     H37620  -0.936   6.391  10.939 -1.3065 -2.1320  0.0429
  279MOL0     H37621  -1.146   6.369  10.722 -1.3070 -0.8598 -0.5064
  279MOL0     H37622  -1.188   6.383  10.899 -0.5399  1.3810 -1.0771
  279MOL0     H37623  -1.028   6.163  10.918  1.7689 -0.8252 -1.6271
  279MOL0     H37624  -1.070   6.151  10.747 -0.9504  0.1901 -0.1111
  279MOL0     H37625  -1.421   5.985  10.894 -1.3118  2.7348  0.3623
  279MOL0     H37626  -1.582   5.837  11.014 -1.4271  1.0908 -0.0353
  279MOL0     H37627  -1.589   5.813  11.181 -2.6945 -0.0866 -0.2586
  279MOL0     H37628  -1.671   5.951  11.095  2.2834  3.3414  1.8228
  279MOL0     H37629  -1.633   6.110  11.566 -0.6821  0.1753  0.7859
  279MOL0     H37630  -1.704   6.119  11.814  0.4800 -0.2490 -0.2565
  279MOL0     H37631  -1.519   5.793  12.030 -0.4253 -0.7145  1.1709
  279MOL0     H37632  -1.435   5.928  12.125 -0.5694  0.8732  1.9175
  279MOL0     H37633  -1.564   5.784  12.265 -0.5806  0.8080  1.1989
  279MOL0     H37634  -1.604   5.960  12.277 -3.9919  1.3507 -1.3393
  279MOL0     H37635  -1.776   5.737  12.144 -3.6063 -0.5852  1.1515
  279MOL0     H37636  -1.803   5.914  12.134 -0.7538 -0.8539  0.0157
  279MOL0     H37637  -1.779   5.741  12.377 -2.0997 -0.1746  1.0662
  279MOL0     H37638  -1.816   5.922  12.382  1.1983  0.0857 -1.4271
  279MOL0     H37639  -1.984   5.689  12.298  0.8587 -0.8991  0.2735
  279MOL0     H37640  -2.016   5.862  12.239 -0.9717  0.5558  1.6602
  279MOL0     H37641  -2.005   5.733  12.524  2.8425 -0.4830 -1.4590
  279MOL0     H37642  -2.025   5.912  12.497 -0.6397  0.5286 -1.2911
  279MOL0     H37643  -2.214   5.695  12.419 -0.0911 -0.3559 -0.5268
  279MOL0     H37644  -2.225   5.866  12.372  1.2078  0.6502  0.6403
  279MOL0     H37645  -2.352   5.860  12.571  0.1296  2.1420  0.4261
  279MOL0     H37646  -2.203   5.928  12.630 -2.0355  0.2975  1.0080
  279MOL0     H37647  -1.350   5.885  11.902 -0.7054  1.2599  0.2182
  279MOL0     H37648  -1.259   5.937  11.680  0.3147 -1.1527  1.2389
  279MOL0     H37649  -1.233   6.142  11.315  0.2497 -0.6694  0.0955
  279MOL0     H37650  -1.169   6.238  11.102 -0.3668  0.4809  0.1802
  279MOL0     H37651   0.416   6.667  11.269  1.1266  0.6972  3.3821
  279MOL0     H37652   0.642   6.735  11.311 -0.4140 -0.6438  1.0997
  279MOL0     H37653   0.953   7.280  11.343 -3.0313 -3.2030 -0.3611
  279MOL0     H37654   1.199   7.304  11.397 -0.0161  1.0177  0.4773
  279MOL0     H37655   1.460   7.245  11.353  1.2859 -1.4065 -0.8602
  279MOL0     H37656   1.366   7.262  11.503  0.7078 -0.1851  1.3196
  279MOL0     H37657   1.626   7.105  11.463  2.2051 -0.2486  3.4042
  279MOL0     H37658   1.510   7.083  11.597 -0.4451 -1.9130 -1.9991
  279MOL0     H37659   1.557   7.315  11.679  0.6663  1.9500 -0.2249
  279MOL0     H37660   1.637   7.343  11.519  1.4640  0.7656  0.8980
  279MOL0     H37661   1.794   7.310  11.719 -0.3325 -0.0355  0.5528
  279MOL0     H37662   1.817   7.199  11.595  0.7441  2.2366  0.5593
  279MOL0     H37663   1.669   6.949  11.905  0.8575  1.1902  0.2935
  279MOL0     H37664   1.230   6.874  11.348  2.0786  0.6307 -1.2812
  279MOL0     H37665   0.981   6.870  11.263 -2.0062 -0.1337  2.9711
  280MOL0     O37666  10.918   7.110   6.766  0.5932 -0.1285 -1.0579
  280MOL0     C37667  10.976   7.033   6.692 -0.2240  0.8708 -0.6996
  280MOL0     O37668  10.909   6.941   6.605 -0.3273 -0.1423 -0.0341
  280MOL0     C37669  10.773   6.952   6.601  0.0255 -0.0512 -0.4996
  280MOL0     C37670  10.694   6.920   6.710 -0.4708  0.0900 -0.6137
  280MOL0     C37671  10.556   6.912   6.702  0.0900 -0.4796  0.0298
  280MOL0     C37672  10.490   6.945   6.583 -1.3317  0.1128 -0.0861
  280MOL0     O37673  10.351   6.945   6.574  0.1748 -0.3058 -1.0350
  280MOL0     C37674  10.298   7.051   6.491 -0.0517  0.0540 -0.3402
  280MOL0     C37675  10.191   7.120   6.576  0.0508 -0.4839  0.5144
  280MOL0     C37676  10.229   7.141   6.715 -0.2871 -0.5899 -0.3411
  280MOL0     C37677  10.109   7.185   6.794 -0.3920  0.8554 -0.2333
  280MOL0     C37678  10.136   7.172   6.939 -1.1331 -0.1750  0.3267
  280MOL0     C37679  10.015   7.241   7.012  0.5591 -0.2548 -0.4634
  280MOL0     C37680  10.033   7.252   7.164 -0.2076 -0.6041 -0.7657
  280MOL0     C37681  10.142   7.351   7.223  0.4233  0.1214  0.1620
  280MOL0     N37682  10.127   7.339   7.363  0.1470 -0.1354 -0.2368
  280MOL0     C37683  10.016   7.341   7.448 -0.1724 -0.1056  0.0451
  280MOL0     C37684  10.055   7.306   7.576 -0.0809  0.6736  0.1770
  280MOL0     C37685   9.969   7.296   7.704 -0.1781 -0.4514  0.1184
  280MOL0     C37686   9.979   7.422   7.782  0.1253  0.2316  0.2194
  280MOL0     C37687   9.933   7.551   7.712 -0.6697 -0.1884  0.5412
  280MOL0     C37688   9.948   7.670   7.807 -0.0079 -0.4475 -0.1248
  280MOL0     O37689   9.950   7.802   7.738  0.2344 -0.0661  0.1783
  280MOL0     C37690   9.827   7.867   7.723  0.1157  0.9422  0.1666
  280MOL0     C37691   9.831   7.992   7.669  0.4502 -0.6855  0.8441
  280MOL0     C37692   9.718   8.080   7.669  0.1840  0.1529 -0.0488
  280MOL0     C37693   9.736   8.227   7.637 -0.3381  0.3766 -0.1212
  280MOL0     C37694   9.594   8.025   7.702 -0.1089  0.3729  0.5512
  280MOL0     C37695   9.458   8.099   7.687 -0.2778  0.9425 -0.4004
  280MOL0     O37696   9.351   8.061   7.755 -0.3665  0.3075  0.0660
  280MOL0     C37697   9.236   8.119   7.732 -0.3229 -0.2792 -0.4362
  280MOL0     C37698   9.202   8.224   7.810  0.3752  0.4450 -0.4820
  280MOL0     C37699   9.083   8.289   7.802 -0.4881  0.1084 -0.1531
  280MOL0     C37700   8.990   8.250   7.706 -0.9208  0.5774  1.1847
  280MOL0     O37701   8.863   8.294   7.715  0.6309  0.4431 -0.0584
  280MOL0     C37702   8.762   8.237   7.636  0.5164  0.0102 -0.3496
  280MOL0     C37703   8.628   8.307   7.653  0.4959  0.8701 -0.0704
  280MOL0     C37704   8.624   8.455   7.595 -0.3923 -0.5130  0.4031
  280MOL0     C37705   8.491   8.526   7.606 -0.3228  0.4072 -0.3962
  280MOL0     C37706   8.405   8.475   7.487  0.5352 -0.0616 -0.4748
  280MOL0     C37707   8.279   8.564   7.498  0.4230  0.4444 -0.0210
  280MOL0     C37708   8.178   8.540   7.388 -0.1577 -0.5395  0.3381
  280MOL0     C37709   8.040   8.605   7.414  0.5288  0.4646 -0.4197
  280MOL0    Cl37710   7.991   8.554   7.578  0.1769  0.2982  0.1512
  280MOL0     C37711   9.031   8.145   7.616  0.0761  0.3915  0.0193
  280MOL0     C37712   9.155   8.082   7.626  0.0142  1.0505  0.0645
  280MOL0     O37713   9.459   8.191   7.600  0.4263  0.2781  0.0748
  280MOL0     C37714   9.583   7.893   7.748  0.6961 -0.3478 -0.9309
  280MOL0     C37715   9.700   7.813   7.754  0.4687 -0.6828 -0.3533
  280MOL0     N37716  10.190   7.284   7.564  0.0232  0.0448  0.0315
  280MOL0     N37717  10.230   7.295   7.443  0.4355  0.0482  0.7683
  280MOL0     C37718  10.571   6.976   6.471 -0.7880  0.4990 -0.0788
  280MOL0     C37719  10.712   6.968   6.480  0.4921  0.6369  0.6013
  280MOL0     C37720  11.116   7.028   6.688  0.0255 -0.7122  0.3734
  280MOL0     C37721  11.176   6.960   6.578  0.4126  0.5968  0.3664
  280MOL0     C37722  11.313   6.964   6.560  0.1292  0.3848  0.5049
  280MOL0     C37723  11.392   7.036   6.647 -0.1714 -1.4791  0.1984
  280MOL0     O37724  11.528   7.029   6.617  0.1411  0.0987  0.9171
  280MOL0     C37725  11.627   7.088   6.706 -0.1325  0.5167 -0.4185
  280MOL0     C37726  11.636   7.244   6.686 -0.3807 -0.0024  0.1151
  280MOL0     C37727  11.710   7.323   6.803 -0.1427 -0.0038  1.0704
  280MOL0     C37728  11.859   7.306   6.809  0.2007  0.2394 -0.7416
  280MOL0     C37729  11.890   7.171   6.857 -0.4422  0.4992  0.8899
  280MOL0     C37730  11.893   7.051   6.884 -0.2611 -0.0591 -0.5245
  280MOL0     C37731  11.334   7.104   6.756  0.5756 -0.1931 -1.2189
  280MOL0     C37732  11.196   7.096   6.771  0.0948  0.5286 -0.1822
  280MOL0     H37733  10.748   6.909   6.803 -0.0044 -1.8379 -1.0675
  280MOL0     H37734  10.488   6.888   6.783 -1.5131  0.1600 -1.0760
  280MOL0     H37735  10.381   7.117   6.464  0.3988 -0.5457 -0.4281
  280MOL0     H37736  10.264   7.027   6.389 -1.3519 -0.5903  0.2201
  280MOL0     H37737  10.186   7.220   6.532 -4.1588 -1.5435 -1.9722
  280MOL0     H37738  10.094   7.073   6.558  0.7467 -1.7376 -0.1469
  280MOL0     H37739  10.269   7.053   6.765  0.2172 -1.2226 -1.7988
  280MOL0     H37740  10.310   7.214   6.710  1.1970 -2.2602 -1.9666
  280MOL0     H37741  10.083   7.289   6.775  2.3337  1.9716  1.6113
  280MOL0     H37742  10.017   7.129   6.772 -1.5132  3.4153 -2.6818
  280MOL0     H37743  10.149   7.066   6.960 -0.0628  0.2892  2.2542
  280MOL0     H37744  10.233   7.219   6.959 -0.3075 -2.2348  1.5377
  280MOL0     H37745   9.998   7.342   6.974 -2.3903 -1.2094 -1.9576
  280MOL0     H37746   9.923   7.186   6.992  0.3123  0.5563 -1.6709
  280MOL0     H37747   9.931   7.274   7.198  0.5331  0.3190  1.0100
  280MOL0     H37748  10.064   7.156   7.206 -0.1208 -1.0770 -1.8867
  280MOL0     H37749  10.129   7.452   7.184 -3.0982  0.7322  2.5132
  280MOL0     H37750  10.245   7.323   7.198  0.1743 -1.6069  0.8935
  280MOL0     H37751   9.911   7.356   7.424  0.4251  3.2024 -1.0368
  280MOL0     H37752   9.865   7.269   7.684 -0.6007  0.3607  1.0900
  280MOL0     H37753  10.019   7.217   7.761  1.0559 -0.7907 -1.3814
  280MOL0     H37754  10.080   7.442   7.818  0.7658 -1.2094 -0.6788
  280MOL0     H37755   9.912   7.402   7.866  0.8399 -0.0073  0.7433
  280MOL0     H37756   9.837   7.539   7.661 -0.6223 -2.4775  0.8688
  280MOL0     H37757  10.010   7.558   7.635  1.5795 -0.5400  2.6296
  280MOL0     H37758  10.044   7.672   7.859 -1.0789  1.7015  1.9879
  280MOL0     H37759   9.872   7.667   7.886 -0.1008  0.8702 -0.1415
  280MOL0     H37760   9.927   8.037   7.647  0.4479 -0.6399  0.9294
  280MOL0     H37761   9.842   8.253   7.644  0.0746 -1.0732 -0.6394
  280MOL0     H37762   9.689   8.246   7.541  0.2268 -0.9630 -0.6907
  280MOL0     H37763   9.688   8.293   7.710 -0.1931 -0.1761  0.4924
  280MOL0     H37764   9.264   8.254   7.894  0.9423 -2.2931  0.1929
  280MOL0     H37765   9.053   8.367   7.871 -2.4993  0.3751 -1.2507
  280MOL0     H37766   8.791   8.242   7.531  0.4130  2.8429 -0.3152
  280MOL0     H37767   8.751   8.135   7.675 -1.3952  1.2196  2.6093
  280MOL0     H37768   8.555   8.240   7.606  2.0533 -3.3109  2.8386
  280MOL0     H37769   8.605   8.295   7.759  0.8171 -5.2966 -0.3220
  280MOL0     H37770   8.649   8.450   7.489  1.2311  0.4499  0.7155
  280MOL0     H37771   8.700   8.510   7.651  0.3759 -1.8327  0.6910
  280MOL0     H37772   8.449   8.527   7.707 -0.1465  1.6900 -0.3243
  280MOL0     H37773   8.520   8.630   7.591 -1.7487  1.5894  3.6324
  280MOL0     H37774   8.379   8.369   7.491 -2.8594  0.4700 -3.4672
  280MOL0     H37775   8.444   8.512   7.392 -2.2722  1.9207 -0.9851
  280MOL0     H37776   8.235   8.526   7.591  0.7059  4.8820  2.2142
  280MOL0     H37777   8.309   8.669   7.506 -2.1178  1.0858  3.6200
  280MOL0     H37778   8.157   8.436   7.365 -1.1936 -0.0932 -0.8249
  280MOL0     H37779   8.212   8.574   7.290 -1.5595 -0.8185 -0.2643
  280MOL0     H37780   7.973   8.568   7.336 -0.4091  0.5313  0.3389
  280MOL0     H37781   8.046   8.713   7.404 -1.0418  0.4949 -1.3250
  280MOL0     H37782   8.961   8.101   7.546  1.8654 -2.5271 -0.1393
  280MOL0     H37783   9.195   8.002   7.564 -0.2202 -0.6262  1.9835
  280MOL0     H37784   9.491   7.845   7.780  0.9147 -1.8908 -2.4734
  280MOL0     H37785   9.694   7.708   7.783 -2.2444  0.1364  2.5857
  280MOL0     H37786  10.514   7.002   6.382 -2.0519 -0.6767  0.3571
  280MOL0     H37787  10.769   7.001   6.394  0.2596  1.4946  0.7725
  280MOL0     H37788  11.113   6.896   6.517  2.0075 -1.0305  0.3381
  280MOL0     H37789  11.360   6.901   6.484  1.3391  1.9338 -0.0741
  280MOL0     H37790  11.613   7.052   6.808  0.5353 -3.2096 -1.4882
  280MOL0     H37791  11.724   7.048   6.674 -0.3043  0.8128 -1.3196
  280MOL0     H37792  11.535   7.284   6.670  0.4675  1.3481 -2.3412
  280MOL0     H37793  11.681   7.263   6.588 -0.5296  2.5567  0.4711
  280MOL0     H37794  11.667   7.307   6.902 -2.4579 -1.3495 -0.0623
  280MOL0     H37795  11.696   7.429   6.783  5.9683  1.0166  0.3576
  280MOL0     H37796  11.901   7.378   6.880  1.1506 -1.1917  0.2149
  280MOL0     H37797  11.881   7.321   6.703 -1.7196 -0.7723 -1.3210
  280MOL0     H37798  11.889   6.948   6.912  0.2601  0.6047  2.3170
  280MOL0     H37799  11.385   7.163   6.831 -2.9604 -0.8436  2.0036
  280MOL0     H37800  11.145   7.148   6.851 -0.6147  0.3803 -0.5317
  281MOL0     O37801  10.738   9.377   9.783 -0.1469  0.2436  0.5654
  281MOL0     C37802  10.836   9.299   9.783  0.2179 -0.0407 -0.9033
  281MOL0     O37803  10.816   9.166   9.814 -0.0389  0.9798 -0.3997
  281MOL0     C37804  10.697   9.112   9.861  0.0512 -1.1595 -0.5660
  281MOL0     C37805  10.607   9.174   9.961 -0.0480  0.1339  0.8503
  281MOL0     C37806  10.486   9.092   9.989  0.1412 -0.5115 -0.2668
  281MOL0     C37807  10.462   8.975   9.918 -0.2184 -0.2581  0.8668
  281MOL0     O37808  10.345   8.899   9.929  0.3245  0.4656 -0.4661
  281MOL0     C37809  10.236   8.977   9.982  0.5100  0.0667 -0.0627
  281MOL0     C37810  10.102   8.927   9.937 -0.0268 -0.6556  0.3851
  281MOL0     C37811  10.071   8.789  10.005 -0.8105 -0.0481 -0.2506
  281MOL0     C37812   9.941   8.731   9.951  0.7406 -0.4305  0.2178
  281MOL0     C37813   9.888   8.632  10.056 -0.5114 -0.2872  0.5477
  281MOL0     C37814   9.796   8.531  10.002 -0.1757  0.6349 -0.0335
  281MOL0     C37815   9.767   8.416  10.099  0.7270 -1.0684  0.8247
  281MOL0     C37816   9.686   8.460  10.224  0.1515  0.1118 -0.2100
  281MOL0     N37817   9.547   8.518  10.206  0.8171  0.4128  0.0534
  281MOL0     C37818   9.438   8.448  10.164  0.1184  0.0584  0.0351
  281MOL0     C37819   9.333   8.535  10.177  0.2459 -0.5932 -1.0099
  281MOL0     C37820   9.189   8.502  10.148  0.2523  0.0277 -0.6727
  281MOL0     C37821   9.116   8.629  10.100  0.1261 -0.4286  0.0322
  281MOL0     C37822   8.967   8.599  10.088 -0.4702 -0.6994  0.1425
  281MOL0     C37823   8.887   8.726  10.062  0.0254  1.6784  0.2791
  281MOL0     O37824   8.926   8.814   9.954  0.1318  0.0274  1.1425
  281MOL0     C37825   8.895   8.766   9.832 -0.8818 -0.1040 -0.0577
  281MOL0     C37826   8.985   8.793   9.730  0.3099 -0.2334  0.6805
  281MOL0     C37827   8.963   8.769   9.590 -0.7289 -0.7405 -0.0648
  281MOL0     C37828   9.078   8.810   9.492  0.8906  0.8501 -0.6740
  281MOL0     C37829   8.838   8.702   9.559  0.2201 -0.2451 -0.5121
  281MOL0     C37830   8.800   8.672   9.420 -0.4819  0.1349  0.4014
  281MOL0     O37831   8.691   8.590   9.408 -0.9183  0.0892  0.4523
  281MOL0     C37832   8.613   8.604   9.302  1.2447  0.4449 -0.3390
  281MOL0     C37833   8.648   8.548   9.186  0.6293  0.1000  0.1195
  281MOL0     C37834   8.562   8.568   9.082  0.1773 -0.1739  0.1820
  281MOL0     C37835   8.432   8.624   9.097 -0.5497 -0.3012 -0.2198
  281MOL0     O37836   8.338   8.593   8.994 -0.8066 -0.6708 -1.0308
  281MOL0     C37837   8.212   8.652   9.008 -0.4532  0.1834  0.8898
  281MOL0     C37838   8.148   8.641   8.865  0.5567  0.0251 -0.1472
  281MOL0     C37839   7.993   8.646   8.877  0.6889 -0.0895  0.4383
  281MOL0     C37840   7.914   8.636   8.745 -0.3645  0.1479 -0.0343
  281MOL0     C37841   7.764   8.670   8.765  1.0086 -0.2803 -0.0789
  281MOL0     C37842   7.677   8.657   8.634  0.3392 -0.1134  1.2940
  281MOL0     C37843   7.538   8.600   8.650 -0.8216  0.5041  0.2713
  281MOL0     C37844   7.462   8.591   8.511 -0.4792 -1.0244  0.1862
  281MOL0    Cl37845   7.297   8.564   8.540  0.4761 -0.3036  0.0146
  281MOL0     C37846   8.394   8.678   9.219  0.3900 -0.0105  0.0339
  281MOL0     C37847   8.482   8.661   9.322  0.0207  0.1118 -0.4969
  281MOL0     O37848   8.861   8.728   9.328 -0.3968 -0.0507  0.5016
  281MOL0     C37849   8.741   8.679   9.664  0.3881  0.0845  0.2446
  281MOL0     C37850   8.774   8.712   9.798  0.2469  0.7060  0.2623
  281MOL0     N37851   9.385   8.648  10.237 -0.3582  0.1461 -0.1501
  281MOL0     N37852   9.514   8.643  10.243 -0.0961 -1.1314  0.6505
  281MOL0     C37853  10.563   8.918   9.841  0.6642 -0.4135  0.3677
  281MOL0     C37854  10.670   8.986   9.805  0.5253 -0.1067 -0.0725
  281MOL0     C37855  10.970   9.347   9.733 -1.2714 -0.2796 -0.1147
  281MOL0     C37856  10.983   9.483   9.700  0.0510  0.4655 -0.1153
  281MOL0     C37857  11.099   9.531   9.646 -0.4693  0.6930  0.8435
  281MOL0     C37858  11.215   9.446   9.646 -0.1297 -0.1021 -0.5298
  281MOL0     O37859  11.337   9.485   9.594  0.0377  0.1319  0.1902
  281MOL0     C37860  11.345   9.596   9.507 -0.7100  0.1357  1.0810
  281MOL0     C37861  11.483   9.608   9.443  0.1356  0.1547  0.0101
  281MOL0     C37862  11.523   9.731   9.357  0.0750  0.1262 -0.0185
  281MOL0     C37863  11.463   9.705   9.220  0.6571 -0.3005 -0.0705
  281MOL0     C37864  11.510   9.801   9.119  0.1515  0.4489 -0.3335
  281MOL0     C37865  11.565   9.849   9.026  0.7817  0.3677 -0.8481
  281MOL0     C37866  11.203   9.314   9.693 -0.3020 -0.0597  0.3636
  281MOL0     C37867  11.084   9.267   9.738  0.8327 -0.3241 -0.6974
  281MOL0     H37868  10.628   9.275   9.994  1.5337  1.1269 -2.6508
  281MOL0     H37869  10.412   9.133  10.057  0.0657 -0.3679 -0.4341
  281MOL0     H37870  10.235   8.983  10.091 -3.1025 -0.7716  0.0625
  281MOL0     H37871  10.242   9.072   9.929 -0.1363 -1.4888 -3.1425
  281MOL0     H37872  10.019   8.995   9.958 -0.9438 -1.9322  0.9922
  281MOL0     H37873  10.102   8.917   9.828 -0.1140  4.7252 -0.3767
  281MOL0     H37874  10.146   8.715   9.975 -2.6175 -1.6002 -1.1179
  281MOL0     H37875  10.066   8.805  10.113 -1.0034  3.4780 -0.6673
  281MOL0     H37876   9.872   8.815   9.940 -0.5102 -1.5159 -0.5139
  281MOL0     H37877   9.941   8.681   9.853 -1.0252 -0.7742  0.3628
  281MOL0     H37878   9.976   8.581  10.095  1.9462  1.7817 -1.9191
  281MOL0     H37879   9.837   8.692  10.131  1.1307  1.5907  0.2185
  281MOL0     H37880   9.701   8.579   9.974 -0.1739  0.2501 -0.7296
  281MOL0     H37881   9.840   8.489   9.911  0.3623 -0.2370  0.6266
  281MOL0     H37882   9.708   8.339  10.049  1.9347  0.0479 -2.6017
  281MOL0     H37883   9.855   8.363  10.137  0.8571 -2.5521 -1.3530
  281MOL0     H37884   9.741   8.534  10.282 -2.2173  1.7635  0.0803
  281MOL0     H37885   9.676   8.374  10.292  1.0887 -0.3062 -0.5883
  281MOL0     H37886   9.418   8.345  10.139  1.1558 -0.1620  0.0590
  281MOL0     H37887   9.189   8.432  10.064  2.6667  0.7602 -1.3482
  281MOL0     H37888   9.141   8.467  10.240  3.1248  1.6505  1.6471
  281MOL0     H37889   9.158   8.664  10.005  0.9915  1.9465  1.2100
  281MOL0     H37890   9.127   8.717  10.163 -0.1801  0.4565 -1.1039
  281MOL0     H37891   8.934   8.546  10.178  0.3446  0.1775  0.9725
  281MOL0     H37892   8.956   8.532  10.002 -0.2438  0.0055 -0.4454
  281MOL0     H37893   8.899   8.785  10.154 -0.6207 -1.2961  2.4011
  281MOL0     H37894   8.782   8.695  10.054  0.3361  0.4284  0.8168
  281MOL0     H37895   9.080   8.833   9.763  0.1859  0.1225  0.6155
  281MOL0     H37896   9.040   8.884   9.421 -1.4957 -0.3014 -0.6853
  281MOL0     H37897   9.162   8.851   9.549  1.0603 -4.4076  3.5993
  281MOL0     H37898   9.112   8.720   9.439 -0.0871  0.3381 -0.4560
  281MOL0     H37899   8.743   8.498   9.173  1.7606  2.4113 -1.3111
  281MOL0     H37900   8.596   8.538   8.983  2.9915 -1.5223  1.4720
  281MOL0     H37901   8.152   8.582   9.068 -1.3788  0.3047  0.1223
  281MOL0     H37902   8.219   8.758   9.032  1.0039  0.4563 -0.6196
  281MOL0     H37903   8.194   8.711   8.794  3.5117  1.1628  2.6002
  281MOL0     H37904   8.193   8.553   8.817  0.1224  0.7908 -2.0532
  281MOL0     H37905   7.966   8.737   8.930  0.5771 -0.3298  0.7961
  281MOL0     H37906   7.954   8.568   8.943  0.6924  0.2164  0.8065
  281MOL0     H37907   7.951   8.694   8.659 -0.8572 -2.6656 -2.2810
  281MOL0     H37908   7.919   8.532   8.714  1.3733 -0.0932  0.9139
  281MOL0     H37909   7.752   8.773   8.800  1.5943 -0.9609  2.3286
  281MOL0     H37910   7.727   8.602   8.842 -1.6713  0.2192 -0.8098
  281MOL0     H37911   7.680   8.755   8.586 -0.3242 -1.1723 -1.0767
  281MOL0     H37912   7.734   8.597   8.562  1.6363 -0.7628  2.8117
  281MOL0     H37913   7.482   8.665   8.717  0.5259 -0.2139  2.1872
  281MOL0     H37914   7.544   8.498   8.690  2.1988 -0.3747 -2.0154
  281MOL0     H37915   7.508   8.511   8.452  0.1154 -1.2606  0.9679
  281MOL0     H37916   7.480   8.679   8.448  1.4011 -1.9704 -0.6998
  281MOL0     H37917   8.296   8.721   9.238  0.7721  1.7498 -1.6514
  281MOL0     H37918   8.452   8.688   9.423 -0.0184  3.6111 -1.3041
  281MOL0     H37919   8.640   8.644   9.648  0.5138  0.8740 -2.9413
  281MOL0     H37920   8.697   8.691   9.871  1.2792  0.5976  1.3420
  281MOL0     H37921  10.545   8.819   9.803 -3.3309  1.5462 -3.7326
  281MOL0     H37922  10.744   8.940   9.739  0.0780 -0.8648 -0.0605
  281MOL0     H37923  10.901   9.554   9.703  1.1048  1.7434 -0.5615
  281MOL0     H37924  11.105   9.637   9.621 -0.9695  0.1428 -1.9625
  281MOL0     H37925  11.265   9.590   9.433 -3.5154  2.1439  3.6867
  281MOL0     H37926  11.326   9.688   9.563  1.5377  1.3080  0.0512
  281MOL0     H37927  11.513   9.519   9.387  0.7822  0.0177  0.5537
  281MOL0     H37928  11.545   9.617   9.533 -0.2396 -0.2146  0.3084
  281MOL0     H37929  11.629   9.756   9.347  0.3866 -0.9700  0.3875
  281MOL0     H37930  11.467   9.821   9.385 -1.6639 -0.0034 -2.7070
  281MOL0     H37931  11.355   9.704   9.239  0.9779 -0.5851  2.0732
  281MOL0     H37932  11.488   9.609   9.175 -0.3454 -0.2972 -0.6571
  281MOL0     H37933  11.613   9.902   8.946 -0.5437  3.0914  0.0471
  281MOL0     H37934  11.291   9.250   9.692 -0.2753 -0.0157 -0.1978
  281MOL0     H37935  11.076   9.163   9.768  1.8275  0.6359  3.5564
  282MOL0     O37936   7.749   1.036   1.952  0.8398  0.1725  0.0372
  282MOL0     C37937   7.810   1.132   2.000  0.3292  0.3903  0.4504
  282MOL0     O37938   7.762   1.259   2.020  0.0156  0.2475  0.2023
  282MOL0     C37939   7.636   1.275   1.972 -0.1496  0.4826  0.0712
  282MOL0     C37940   7.598   1.295   1.832  0.4456  0.4868 -0.5777
  282MOL0     C37941   7.467   1.293   1.796 -0.6159  0.1774 -0.1733
  282MOL0     C37942   7.357   1.291   1.886 -0.7143 -0.4149  0.2137
  282MOL0     O37943   7.236   1.314   1.827  0.6361  1.0944 -0.3563
  282MOL0     C37944   7.175   1.438   1.861  0.9487  0.0336 -0.0146
  282MOL0     C37945   7.122   1.443   2.011 -0.5276  0.3917  0.3685
  282MOL0     C37946   6.975   1.503   2.026  0.2410  1.0528  0.1073
  282MOL0     C37947   6.978   1.656   2.001 -0.6871 -0.5039  0.9995
  282MOL0     C37948   6.850   1.720   1.977  0.6298 -0.2972 -0.3717
  282MOL0     C37949   6.783   1.762   2.112 -0.8000 -0.6023  0.3267
  282MOL0     C37950   6.658   1.838   2.081 -0.0832  0.3009  0.2028
  282MOL0     C37951   6.607   1.913   2.205  0.4902  0.2067 -0.4715
  282MOL0     N37952   6.472   1.953   2.176  0.5839  0.3446  0.4412
  282MOL0     C37953   6.348   1.898   2.222  0.0197  0.2329  0.4555
  282MOL0     C37954   6.250   1.972   2.153  0.0287  0.4919  0.0463
  282MOL0     C37955   6.098   1.961   2.168 -0.5457 -0.9373 -0.3944
  282MOL0     C37956   6.063   2.037   2.295 -0.4558  0.0981 -0.3925
  282MOL0     C37957   5.914   2.032   2.339  0.8250  0.0470  0.0864
  282MOL0     C37958   5.833   2.077   2.220  0.1695  0.3572  1.0016
  282MOL0     O37959   5.700   2.104   2.265 -0.5147 -0.3994  0.4180
  282MOL0     C37960   5.619   2.189   2.175 -0.5142 -0.6688 -0.8309
  282MOL0     C37961   5.504   2.240   2.224 -0.8048 -0.3381 -0.2237
  282MOL0     C37962   5.413   2.300   2.131 -0.4352 -0.7322 -0.6996
  282MOL0     C37963   5.281   2.342   2.186  0.9245 -0.1662  0.6225
  282MOL0     C37964   5.444   2.328   1.995  0.0625  0.7350  0.4213
  282MOL0     C37965   5.356   2.403   1.898 -0.3768 -0.0495 -0.2014
  282MOL0     O37966   5.391   2.390   1.770  0.4464 -0.5774  0.2558
  282MOL0     C37967   5.327   2.469   1.673 -0.0604 -0.5995 -0.6681
  282MOL0     C37968   5.260   2.394   1.577 -0.6488 -0.5837  0.2411
  282MOL0     C37969   5.171   2.443   1.487  0.0522  0.3106 -0.4040
  282MOL0     C37970   5.143   2.576   1.487 -0.3285 -0.2364  0.1859
  282MOL0     O37971   5.052   2.621   1.393 -0.6996  0.7019  0.1535
  282MOL0     C37972   5.062   2.747   1.339 -0.6056 -0.1886 -0.3454
  282MOL0     C37973   4.973   2.846   1.412 -0.0678  0.1123 -0.0790
  282MOL0     C37974   4.829   2.791   1.408 -0.3067 -0.4676  0.0800
  282MOL0     C37975   4.727   2.888   1.476 -0.0885 -0.5856 -0.7152
  282MOL0     C37976   4.621   2.808   1.555 -0.4426 -0.4798 -0.1866
  282MOL0     C37977   4.500   2.901   1.579 -0.2814 -0.0847  0.5857
  282MOL0     C37978   4.539   3.021   1.665  0.3953 -0.7025 -0.3036
  282MOL0     C37979   4.624   2.974   1.786  0.2805  0.0757  0.0335
  282MOL0    Cl37980   4.543   2.854   1.886 -0.0504 -0.3696  0.3747
  282MOL0     C37981   5.220   2.656   1.576  0.6151 -0.2437 -0.7952
  282MOL0     C37982   5.315   2.604   1.670  0.4038  0.4472 -0.5504
  282MOL0     O37983   5.293   2.496   1.943  0.3890  0.1307  0.4338
  282MOL0     C37984   5.557   2.266   1.949  0.5664  0.9041  0.5312
  282MOL0     C37985   5.650   2.208   2.038  1.1407 -0.1407 -0.2671
  282MOL0     N37986   6.321   2.066   2.070  0.1840 -0.3837 -0.9328
  282MOL0     N37987   6.447   2.055   2.095 -0.3114  0.7288 -0.0518
  282MOL0     C37988   7.395   1.262   2.015 -0.0023  0.8867  0.2709
  282MOL0     C37989   7.529   1.252   2.061 -0.7836  0.5125 -0.1820
  282MOL0     C37990   7.952   1.107   2.026 -0.1010 -0.5867  0.5001
  282MOL0     C37991   8.014   0.993   1.983 -0.4209  0.2644 -0.0876
  282MOL0     C37992   8.156   0.973   2.017  0.4541 -0.9826 -0.0878
  282MOL0     C37993   8.228   1.073   2.090  0.2958 -0.2340  0.3069
  282MOL0     O37994   8.358   1.053   2.110 -0.4374 -0.1556  0.2695
  282MOL0     C37995   8.444   1.166   2.131 -0.2686  0.2530 -0.4434
  282MOL0     C37996   8.586   1.115   2.145 -0.6443  0.2131  0.1028
  282MOL0     C37997   8.696   1.222   2.133  0.8394  0.1527 -0.0651
  282MOL0     C37998   8.701   1.334   2.240 -0.0356  0.2067 -0.3976
  282MOL0     C37999   8.599   1.433   2.234  0.0533  0.4381 -0.1090
  282MOL0     C38000   8.504   1.507   2.228 -0.7580 -0.7910  0.1661
  282MOL0     C38001   8.151   1.181   2.144 -0.1779  0.6848 -0.1146
  282MOL0     C38002   8.023   1.205   2.098 -0.4548 -0.0529  0.1478
  282MOL0     H38003   7.671   1.291   1.752  0.6925  0.2715 -0.3469
  282MOL0     H38004   7.436   1.284   1.692  0.9898 -3.6003 -0.4954
  282MOL0     H38005   7.239   1.525   1.844 -1.9513  2.0791 -1.2986
  282MOL0     H38006   7.091   1.463   1.795 -1.2043 -0.2774  2.4545
  282MOL0     H38007   7.129   1.338   2.038  0.7251  0.1451 -0.7890
  282MOL0     H38008   7.193   1.501   2.070  0.5950  2.1050 -2.4176
  282MOL0     H38009   6.910   1.461   1.949 -0.7508 -0.5248  1.7118
  282MOL0     H38010   6.938   1.476   2.126  1.4571 -2.5413 -0.2589
  282MOL0     H38011   7.025   1.713   2.081 -1.7024  1.9938 -0.0832
  282MOL0     H38012   7.049   1.678   1.921 -1.1151 -0.3926  0.6456
  282MOL0     H38013   6.869   1.806   1.913  0.0608 -1.8343 -2.7374
  282MOL0     H38014   6.784   1.659   1.914  2.0086 -1.0971 -1.0865
  282MOL0     H38015   6.766   1.672   2.172  0.9861 -1.5156 -0.4467
  282MOL0     H38016   6.854   1.826   2.165 -1.6788 -1.1786  2.2998
  282MOL0     H38017   6.674   1.909   1.999 -1.3156  1.4556  0.9211
  282MOL0     H38018   6.581   1.764   2.054  2.4614 -2.4514 -0.0256
  282MOL0     H38019   6.665   2.005   2.212 -1.8451  1.7775 -0.4917
  282MOL0     H38020   6.607   1.851   2.296  4.0439  0.8801  0.1161
  282MOL0     H38021   6.328   1.815   2.288 -1.3222 -1.2318 -1.6556
  282MOL0     H38022   6.050   2.008   2.081 -2.3307 -4.6610 -1.6327
  282MOL0     H38023   6.070   1.856   2.172  0.7226 -1.2918 -0.6106
  282MOL0     H38024   6.094   2.141   2.285  1.0780  0.0868  2.8324
  282MOL0     H38025   6.115   1.994   2.381 -3.5935  0.2638  1.7533
  282MOL0     H38026   5.889   2.096   2.425  0.3840 -0.0915  0.0620
  282MOL0     H38027   5.883   1.931   2.365  2.1013 -0.9206 -1.9298
  282MOL0     H38028   5.827   2.000   2.142 -0.4102  1.5729 -0.1740
  282MOL0     H38029   5.870   2.170   2.178  0.8265 -1.0597 -1.8422
  282MOL0     H38030   5.478   2.227   2.329  1.3427  0.8828  0.5186
  282MOL0     H38031   5.200   2.317   2.117  1.5062 -2.1138  0.5923
  282MOL0     H38032   5.255   2.289   2.278  0.6298 -0.1473  0.5488
  282MOL0     H38033   5.288   2.450   2.203  0.6869 -0.2434  1.2304
  282MOL0     H38034   5.273   2.287   1.573  1.1813 -0.3993 -3.9741
  282MOL0     H38035   5.118   2.371   1.426  1.3779 -0.6989 -0.3965
  282MOL0     H38036   5.164   2.786   1.340 -0.7135  0.1182 -1.1072
  282MOL0     H38037   5.033   2.726   1.236 -0.7117  1.4394 -0.6734
  282MOL0     H38038   4.998   2.872   1.516 -0.6427 -0.2806  0.1582
  282MOL0     H38039   4.978   2.932   1.345 -1.0321 -1.5656 -2.4131
  282MOL0     H38040   4.836   2.701   1.469 -1.3483  0.5152  1.7329
  282MOL0     H38041   4.795   2.769   1.306 -4.7169 -0.3255  1.2963
  282MOL0     H38042   4.776   2.960   1.542 -0.1408 -1.4082  0.2371
  282MOL0     H38043   4.673   2.945   1.400 -0.3128  1.5334  0.9631
  282MOL0     H38044   4.658   2.758   1.645  0.3158 -1.3607 -0.9714
  282MOL0     H38045   4.586   2.728   1.489 -0.7466  0.1770 -0.8429
  282MOL0     H38046   4.463   2.936   1.482 -0.8618 -0.6514  0.5926
  282MOL0     H38047   4.415   2.852   1.628 -1.4256  0.1307 -1.1169
  282MOL0     H38048   4.452   3.078   1.697  1.5002  1.1710 -0.5053
  282MOL0     H38049   4.597   3.092   1.606 -0.8071  1.6441  1.1563
  282MOL0     H38050   4.635   3.064   1.848 -4.0552  0.9639 -0.1112
  282MOL0     H38051   4.724   2.937   1.765  0.9949  2.4367 -1.0267
  282MOL0     H38052   5.191   2.760   1.580 -0.7773 -0.5828 -1.3449
  282MOL0     H38053   5.379   2.663   1.734  3.1667 -0.6946 -2.1058
  282MOL0     H38054   5.578   2.255   1.843  2.6873 -3.1474  1.1622
  282MOL0     H38055   5.742   2.169   1.996  1.6796  1.3056 -0.4726
  282MOL0     H38056   7.316   1.257   2.089 -1.1331  1.5561 -0.8502
  282MOL0     H38057   7.546   1.211   2.161  0.0152  1.0836 -0.0695
  282MOL0     H38058   7.967   0.916   1.922  0.4185 -1.0850  0.8885
  282MOL0     H38059   8.203   0.885   1.974 -1.5435 -1.6656 -1.0249
  282MOL0     H38060   8.431   1.239   2.050 -0.9675  1.2630  0.5536
  282MOL0     H38061   8.413   1.224   2.218 -1.5911  1.1034 -1.4302
  282MOL0     H38062   8.591   1.040   2.066 -0.8017 -0.2516  0.5288
  282MOL0     H38063   8.602   1.071   2.243  1.0764 -0.9758 -0.6850
  282MOL0     H38064   8.704   1.270   2.035  1.7975  0.5305  0.1857
  282MOL0     H38065   8.792   1.170   2.148 -0.3395 -1.6979  1.7050
  282MOL0     H38066   8.799   1.383   2.233 -0.2641  1.0821  1.8927
  282MOL0     H38067   8.696   1.288   2.339 -0.2010  2.2773  0.5974
  282MOL0     H38068   8.416   1.569   2.220  1.1247  2.4015  2.2639
  282MOL0     H38069   8.201   1.255   2.206 -1.7544  1.8026 -0.1290
  282MOL0     H38070   7.972   1.298   2.119 -2.2968 -0.7626 -0.8629
  283MOL0     O38071   3.003   1.591   2.509 -0.0260  0.2927  0.1385
  283MOL0     C38072   3.072   1.489   2.540  0.2091  0.0059  0.3008
  283MOL0     O38073   3.019   1.368   2.566  0.0131  0.2132 -0.0801
  283MOL0     C38074   2.889   1.355   2.623 -0.4184 -0.1359  0.3558
  283MOL0     C38075   2.839   1.446   2.716  0.7527 -0.3977  0.6778
  283MOL0     C38076   2.698   1.448   2.737 -0.2998  0.3935  0.0767
  283MOL0     C38077   2.611   1.355   2.675  0.3334 -0.5149  0.0668
  283MOL0     O38078   2.479   1.349   2.691  0.4659 -0.7579 -0.4958
  283MOL0     C38079   2.417   1.479   2.719  0.6850 -0.2928 -0.0735
  283MOL0     C38080   2.264   1.476   2.709  0.1518  0.3826  0.1303
  283MOL0     C38081   2.203   1.599   2.781 -0.0258  0.5175 -0.4133
  283MOL0     C38082   2.048   1.611   2.755 -0.6333  0.0303  0.2076
  283MOL0     C38083   1.971   1.494   2.814  0.4620  0.3245 -0.7593
  283MOL0     C38084   1.812   1.510   2.799 -0.6883 -0.4215  0.5539
  283MOL0     C38085   1.743   1.406   2.885  0.0774 -0.5493 -0.5378
  283MOL0     C38086   1.588   1.421   2.871 -0.9712  0.2308  0.7025
  283MOL0     N38087   1.553   1.535   2.954  0.3746 -0.3250  0.2454
  283MOL0     C38088   1.527   1.540   3.092  0.2197  0.1878  0.4426
  283MOL0     C38089   1.506   1.674   3.126 -0.0580 -0.5346  0.1028
  283MOL0     C38090   1.488   1.733   3.266 -0.3485 -0.0926 -0.4179
  283MOL0     C38091   1.347   1.738   3.329  0.3794 -0.0334 -0.0239
  283MOL0     C38092   1.246   1.826   3.258  1.0220  0.1344 -0.3955
  283MOL0     C38093   1.100   1.786   3.281 -0.8338 -0.6788 -0.7809
  283MOL0     O38094   1.049   1.819   3.408  1.0397  0.2836 -0.0515
  283MOL0     C38095   0.916   1.781   3.442 -0.8337  1.0516  0.0458
  283MOL0     C38096   0.893   1.665   3.509  0.5254 -0.4107  0.6355
  283MOL0     C38097   0.761   1.629   3.551 -0.1556 -0.6603  1.3993
  283MOL0     C38098   0.741   1.496   3.609 -0.2678 -0.0423 -0.0759
  283MOL0     C38099   0.653   1.715   3.514 -0.0291 -0.6599 -0.2573
  283MOL0     C38100   0.510   1.700   3.549 -0.1617 -0.6947 -0.1637
  283MOL0     O38101   0.420   1.805   3.549 -0.4953  0.1134  0.0840
  283MOL0     C38102   0.294   1.772   3.559  0.9242 -0.1647  0.3865
  283MOL0     C38103   0.211   1.801   3.452 -0.6544 -0.6141 -0.0201
  283MOL0     C38104   0.076   1.785   3.468  0.2767 -0.0648 -0.9391
  283MOL0     C38105   0.018   1.721   3.581 -0.9281  0.2083  0.3180
  283MOL0     O38106  -0.122   1.694   3.588  0.5437  0.1398  0.1915
  283MOL0     C38107  -0.188   1.733   3.711  0.2477  0.8996  0.3819
  283MOL0     C38108  -0.321   1.807   3.670  0.5791 -0.2358 -0.1719
  283MOL0     C38109  -0.301   1.918   3.561  0.6720  0.1659  0.3494
  283MOL0     C38110  -0.438   1.977   3.526 -0.3724  0.3906 -0.3969
  283MOL0     C38111  -0.518   1.877   3.442 -0.2200 -0.4466 -0.1579
  283MOL0     C38112  -0.641   1.936   3.370 -0.8378  0.1746  0.5686
  283MOL0     C38113  -0.693   1.862   3.250  0.2586  0.5679 -0.1041
  283MOL0     C38114  -0.828   1.921   3.196 -0.3490  0.2881 -0.1283
  283MOL0    Cl38115  -0.880   1.804   3.051 -0.0407 -0.0639  0.4608
  283MOL0     C38116   0.099   1.667   3.675 -0.5112  0.4064 -0.0002
  283MOL0     C38117   0.239   1.699   3.670 -0.0689  0.6919  0.1488
  283MOL0     O38118   0.472   1.588   3.577 -0.0638  0.3365  0.4053
  283MOL0     C38119   0.682   1.834   3.449  0.2992  0.3860  0.0548
  283MOL0     C38120   0.816   1.870   3.420 -0.8170 -0.2537  0.7600
  283MOL0     N38121   1.502   1.747   3.005  0.0755 -0.0600 -0.7677
  283MOL0     N38122   1.550   1.666   2.921  0.3851 -0.1943 -0.1602
  283MOL0     C38123   2.659   1.265   2.582 -0.5276 -0.0667  0.8250
  283MOL0     C38124   2.801   1.265   2.563 -0.3753  0.7059 -0.1001
  283MOL0     C38125   3.217   1.501   2.555 -0.3420  0.4604 -0.0457
  283MOL0     C38126   3.279   1.608   2.491 -0.1565  0.3381  0.1862
  283MOL0     C38127   3.419   1.623   2.500 -0.1159 -0.0107  0.4908
  283MOL0     C38128   3.494   1.529   2.572  0.6317  0.0448  0.2602
  283MOL0     O38129   3.627   1.532   2.596  0.7891  0.0246  0.3544
  283MOL0     C38130   3.699   1.616   2.506  0.2713  0.5257 -0.0001
  283MOL0     C38131   3.846   1.589   2.526  0.6580  0.4808 -0.1651
  283MOL0     C38132   3.931   1.669   2.431  0.9561 -0.3126  0.7177
  283MOL0     C38133   4.086   1.652   2.459  0.5502  0.7972 -0.8162
  283MOL0     C38134   4.171   1.723   2.370 -0.3545 -0.8054  1.4474
  283MOL0     C38135   4.234   1.781   2.283  0.3513 -0.6158 -0.1186
  283MOL0     C38136   3.432   1.430   2.642  0.6502  0.1810  0.9811
  283MOL0     C38137   3.294   1.418   2.624  0.6626  0.3813  0.1255
  283MOL0     H38138   2.906   1.512   2.769  1.3004 -2.0489  2.1358
  283MOL0     H38139   2.661   1.526   2.803 -0.0066 -0.4594  1.3027
  283MOL0     H38140   2.449   1.526   2.812  3.7772 -0.4455 -0.9269
  283MOL0     H38141   2.447   1.554   2.645 -2.5937 -0.7952 -2.1342
  283MOL0     H38142   2.231   1.482   2.605 -0.5072 -0.5805  0.2748
  283MOL0     H38143   2.226   1.387   2.759  0.4895  0.4041  0.4277
  283MOL0     H38144   2.216   1.586   2.889  0.0640 -2.0166 -0.6801
  283MOL0     H38145   2.259   1.688   2.751 -1.0785  0.2871 -3.3075
  283MOL0     H38146   2.015   1.701   2.808  0.7077 -0.4886  2.0300
  283MOL0     H38147   2.023   1.622   2.650  2.8134 -1.7196 -0.9772
  283MOL0     H38148   1.994   1.400   2.762  0.1024  1.2787 -2.7390
  283MOL0     H38149   1.991   1.476   2.920 -0.0556  2.4689 -0.2574
  283MOL0     H38150   1.781   1.605   2.842  1.7297  0.5547  0.3243
  283MOL0     H38151   1.787   1.493   2.694  0.6597 -1.5701  0.3855
  283MOL0     H38152   1.779   1.306   2.860  1.0105  0.1406 -2.1725
  283MOL0     H38153   1.786   1.418   2.985 -1.9457 -1.9369  0.5538
  283MOL0     H38154   1.535   1.330   2.900 -0.4723  0.2870  1.8305
  283MOL0     H38155   1.568   1.448   2.767 -1.5241 -0.8376  0.5210
  283MOL0     H38156   1.515   1.454   3.157  0.1966 -0.4072 -0.3479
  283MOL0     H38157   1.554   1.677   3.332 -1.2109 -0.7146 -0.0716
  283MOL0     H38158   1.521   1.838   3.266 -0.8278  0.0603  0.1037
  283MOL0     H38159   1.349   1.784   3.428  1.6179  0.5145 -0.2786
  283MOL0     H38160   1.303   1.638   3.331 -0.2507  0.2546  0.7808
  283MOL0     H38161   1.274   1.816   3.153 -1.9050 -0.2709 -1.2500
  283MOL0     H38162   1.262   1.932   3.277  0.8161  1.0885 -4.6772
  283MOL0     H38163   1.086   1.679   3.264 -3.3689 -0.5403  0.0501
  283MOL0     H38164   1.039   1.832   3.203  0.0364 -0.5910 -1.4194
  283MOL0     H38165   0.976   1.598   3.527  0.6299 -0.3493  0.3900
  283MOL0     H38166   0.684   1.435   3.538  3.5845 -0.4392 -3.1869
  283MOL0     H38167   0.838   1.449   3.627 -0.6455  0.0274  2.5683
  283MOL0     H38168   0.692   1.517   3.705 -0.2653  2.0511 -0.4844
  283MOL0     H38169   0.246   1.851   3.362 -1.9062 -0.9572 -0.7125
  283MOL0     H38170   0.012   1.813   3.384 -0.2616 -0.3757 -0.6378
  283MOL0     H38171  -0.212   1.642   3.767 -1.5569 -0.0901 -1.8386
  283MOL0     H38172  -0.118   1.803   3.757  1.4538 -0.9084  1.4132
  283MOL0     H38173  -0.392   1.734   3.632 -1.9225  1.6075  0.7302
  283MOL0     H38174  -0.357   1.864   3.756  0.4132 -0.3396 -0.1719
  283MOL0     H38175  -0.250   1.880   3.472 -1.2374  0.6764 -1.0172
  283MOL0     H38176  -0.237   1.993   3.608  3.6065 -2.3610  0.6908
  283MOL0     H38177  -0.487   1.996   3.622 -2.2544 -0.3116 -1.1551
  283MOL0     H38178  -0.421   2.070   3.471  0.3941  1.0055  0.8269
  283MOL0     H38179  -0.550   1.792   3.502  2.8796 -0.3540  1.8263
  283MOL0     H38180  -0.448   1.838   3.368  0.9155  1.3997 -0.1115
  283MOL0     H38181  -0.727   1.966   3.430 -1.5805  0.4872 -0.6066
  283MOL0     H38182  -0.604   2.030   3.328 -1.3251  0.2185  0.2261
  283MOL0     H38183  -0.704   1.763   3.295  0.4442  1.0262  0.9828
  283MOL0     H38184  -0.618   1.860   3.171 -0.4984 -0.0488 -0.8313
  283MOL0     H38185  -0.825   2.026   3.166  1.3394 -0.1893 -1.8007
  283MOL0     H38186  -0.904   1.911   3.274 -0.4680 -2.4662 -0.5032
  283MOL0     H38187   0.055   1.607   3.754  1.5514  0.4914  1.2800
  283MOL0     H38188   0.295   1.661   3.754  0.0117  4.1022  1.8171
  283MOL0     H38189   0.601   1.901   3.419 -1.2383 -1.3947  0.0154
  283MOL0     H38190   0.851   1.963   3.376  1.1491 -0.9237  0.8117
  283MOL0     H38191   2.595   1.209   2.515 -1.2794  3.0218 -1.2726
  283MOL0     H38192   2.842   1.187   2.500  0.6322 -0.2327  1.6269
  283MOL0     H38193   3.227   1.681   2.430  0.0999  2.0210  1.8802
  283MOL0     H38194   3.467   1.710   2.457 -0.1904  2.7305  5.2142
  283MOL0     H38195   3.683   1.589   2.401  1.3076  0.8340 -0.2488
  283MOL0     H38196   3.669   1.721   2.515  0.8633  0.6769  0.2509
  283MOL0     H38197   3.865   1.481   2.529  0.9284  0.3351 -3.7343
  283MOL0     H38198   3.859   1.621   2.630 -4.2556 -0.5031  1.0300
  283MOL0     H38199   3.901   1.775   2.433 -3.3830 -1.1195 -3.4055
  283MOL0     H38200   3.906   1.629   2.333  1.3404  0.0638  0.4590
  283MOL0     H38201   4.107   1.547   2.436 -0.1134  0.5092 -0.1277
  283MOL0     H38202   4.103   1.662   2.566  1.6205 -0.6890 -0.8290
  283MOL0     H38203   4.299   1.817   2.206  0.4718 -5.1025 -2.4946
  283MOL0     H38204   3.497   1.361   2.693  0.4819 -0.7121  0.0119
  283MOL0     H38205   3.248   1.334   2.675  2.8423 -1.8313 -1.3096
  284MOL0     O38206   1.208   6.037   1.885  0.0164  0.1154  0.3849
  284MOL0     C38207   1.145   6.102   1.969  0.2232 -0.2348 -0.1281
  284MOL0     O38208   1.013   6.095   1.989 -0.0186  0.0081  0.4915
  284MOL0     C38209   0.946   6.027   1.891 -0.0174 -0.7345 -0.2161
  284MOL0     C38210   0.882   5.912   1.926  0.1780 -0.6055 -0.6075
  284MOL0     C38211   0.809   5.831   1.844 -0.3282  0.0074  0.3533
  284MOL0     C38212   0.786   5.869   1.714 -0.9168  0.2396  0.4108
  284MOL0     O38213   0.705   5.794   1.640  0.9297 -0.2634 -0.0243
  284MOL0     C38214   0.730   5.795   1.495 -0.0065 -0.3076  0.1225
  284MOL0     C38215   0.683   5.659   1.433 -0.4764 -0.3740 -0.2617
  284MOL0     C38216   0.533   5.638   1.440  0.1692 -0.0213  0.0360
  284MOL0     C38217   0.510   5.509   1.351 -0.2005  1.0656  0.1203
  284MOL0     C38218   0.362   5.462   1.359 -0.5726  0.4011  0.5527
  284MOL0     C38219   0.342   5.337   1.282  1.0649  0.8650 -0.1583
  284MOL0     C38220   0.192   5.313   1.266  0.1297 -0.1335  0.0304
  284MOL0     C38221   0.116   5.266   1.388  0.4160 -0.2436  0.4177
  284MOL0     N38222  -0.029   5.292   1.385 -0.0709 -0.0074 -0.0978
  284MOL0     C38223  -0.137   5.210   1.353  0.4203 -0.2661 -0.5923
  284MOL0     C38224  -0.245   5.289   1.358 -0.1693  0.7403  0.4045
  284MOL0     C38225  -0.390   5.223   1.324 -0.1847 -0.3849 -0.1476
  284MOL0     C38226  -0.517   5.313   1.347 -0.2299  0.2233 -0.1431
  284MOL0     C38227  -0.551   5.337   1.500  1.3740  0.0539  1.1691
  284MOL0     C38228  -0.611   5.479   1.524 -0.5649  0.4714  0.1077
  284MOL0     O38229  -0.732   5.487   1.459  0.5987  0.8169  0.7473
  284MOL0     C38230  -0.848   5.430   1.510 -0.3319 -0.3433 -0.2157
  284MOL0     C38231  -0.955   5.438   1.426 -0.8546 -0.1484  0.6542
  284MOL0     C38232  -1.079   5.372   1.452  0.7439 -0.5998 -0.0583
  284MOL0     C38233  -1.193   5.379   1.351 -1.1224 -0.3396  0.8168
  284MOL0     C38234  -1.091   5.300   1.575  0.9651  0.2835  0.1544
  284MOL0     C38235  -1.214   5.215   1.620 -0.3201 -0.4645  0.0701
  284MOL0     O38236  -1.320   5.212   1.539  0.7145  0.6488  0.0830
  284MOL0     C38237  -1.436   5.162   1.585 -0.8081 -0.5420  0.1637
  284MOL0     C38238  -1.447   5.022   1.625  0.6975  0.2939  0.3763
  284MOL0     C38239  -1.569   4.969   1.669  0.1430 -0.6118 -0.0532
  284MOL0     C38240  -1.680   5.051   1.671 -0.2131 -0.8881  0.0542
  284MOL0     O38241  -1.802   5.010   1.711 -0.1024  0.1188  0.6227
  284MOL0     C38242  -1.810   4.917   1.819 -0.7941  0.3489 -1.3388
  284MOL0     C38243  -1.953   4.889   1.875  0.6139 -0.3985 -1.1814
  284MOL0     C38244  -2.061   4.884   1.772 -0.1247 -0.0417  0.0609
  284MOL0     C38245  -2.066   4.754   1.687 -0.2284 -0.0814  0.3158
  284MOL0     C38246  -2.147   4.773   1.555 -1.0247  1.1774 -0.1836
  284MOL0     C38247  -2.300   4.752   1.578 -0.3106 -0.7700 -0.0383
  284MOL0     C38248  -2.358   4.724   1.438 -0.4062  0.4032  0.7080
  284MOL0     C38249  -2.501   4.665   1.456  0.1011  0.9713  0.5147
  284MOL0    Cl38250  -2.625   4.789   1.481 -0.4027  0.0245 -0.4221
  284MOL0     C38251  -1.667   5.185   1.624  0.3732  0.1278  0.6916
  284MOL0     C38252  -1.547   5.241   1.587 -0.4997 -0.0460  0.6945
  284MOL0     O38253  -1.203   5.163   1.735 -0.2161 -0.6887  0.0023
  284MOL0     C38254  -0.980   5.293   1.662  0.4125 -0.0165  0.1294
  284MOL0     C38255  -0.864   5.365   1.635  0.1490  0.3397  0.6407
  284MOL0     N38256  -0.218   5.421   1.375 -0.4624 -0.3375  0.4147
  284MOL0     N38257  -0.084   5.421   1.378  0.0677  0.1118  0.9465
  284MOL0     C38258   0.842   5.994   1.671  0.0345  0.0585 -0.2259
  284MOL0     C38259   0.927   6.077   1.762 -0.7318  0.0278 -0.9613
  284MOL0     C38260   1.228   6.172   2.065  0.0208  0.2301 -0.9087
  284MOL0     C38261   1.184   6.187   2.198 -0.4295  0.6743  0.0692
  284MOL0     C38262   1.267   6.256   2.280  0.4246 -0.5345  0.0206
  284MOL0     C38263   1.390   6.314   2.245  0.6145 -0.4006  0.3896
  284MOL0     O38264   1.478   6.375   2.330 -0.4347  0.3475 -0.7436
  284MOL0     C38265   1.445   6.385   2.472  0.3621  0.2012 -0.5190
  284MOL0     C38266   1.569   6.414   2.559 -0.6610  0.2588  0.2713
  284MOL0     C38267   1.624   6.553   2.543  0.7194  0.1018 -0.1584
  284MOL0     C38268   1.714   6.584   2.664 -0.1471 -1.0172  0.1149
  284MOL0     C38269   1.823   6.688   2.632  0.5195 -0.0339  0.1861
  284MOL0     C38270   1.919   6.753   2.599  1.3362 -0.4788  0.5391
  284MOL0     C38271   1.417   6.310   2.110 -0.2407 -0.0538  0.0417
  284MOL0     C38272   1.337   6.246   2.018 -0.1564 -0.0634 -0.1960
  284MOL0     H38273   0.887   5.880   2.030  0.9353  1.5762  0.0803
  284MOL0     H38274   0.771   5.732   1.867 -1.9582  0.1663 -1.3737
  284MOL0     H38275   0.675   5.876   1.447  1.1656 -0.5827 -1.7555
  284MOL0     H38276   0.837   5.801   1.478  0.2615 -4.0432 -0.4605
  284MOL0     H38277   0.724   5.661   1.332  0.8995  2.6797  0.2322
  284MOL0     H38278   0.734   5.584   1.495 -0.4552  1.8368  2.6434
  284MOL0     H38279   0.495   5.619   1.541 -0.1701 -1.5007 -0.3444
  284MOL0     H38280   0.473   5.711   1.384  0.1512 -1.6797 -2.2525
  284MOL0     H38281   0.545   5.525   1.249 -2.2407  0.2802 -0.7464
  284MOL0     H38282   0.562   5.419   1.386 -1.3321  0.4377  0.2063
  284MOL0     H38283   0.348   5.417   1.458  1.2607 -2.0365 -0.1931
  284MOL0     H38284   0.286   5.537   1.338 -0.1420  0.7080  0.0496
  284MOL0     H38285   0.393   5.352   1.186  1.8528  1.0889  0.2875
  284MOL0     H38286   0.385   5.246   1.325  0.7359 -0.3923 -2.3101
  284MOL0     H38287   0.154   5.409   1.231  2.3059  1.1498  0.9900
  284MOL0     H38288   0.176   5.240   1.186 -1.5081 -0.0924  0.2978
  284MOL0     H38289   0.137   5.302   1.489 -3.3912 -2.8229  2.3876
  284MOL0     H38290   0.135   5.158   1.397 -0.5551 -0.6439 -1.7356
  284MOL0     H38291  -0.137   5.102   1.348 -0.0367 -0.5728  3.3167
  284MOL0     H38292  -0.391   5.197   1.218 -3.1110  2.1844 -0.8612
  284MOL0     H38293  -0.412   5.133   1.383 -0.9683 -0.1890 -0.1398
  284MOL0     H38294  -0.604   5.265   1.300 -0.4507 -0.4453  0.9137
  284MOL0     H38295  -0.510   5.410   1.297  0.7229  0.4514  0.4136
  284MOL0     H38296  -0.461   5.330   1.561 -0.1040  2.2785  3.8411
  284MOL0     H38297  -0.617   5.262   1.545 -1.7598  1.3578 -0.9510
  284MOL0     H38298  -0.547   5.555   1.479 -1.3807  0.0400 -1.8943
  284MOL0     H38299  -0.623   5.511   1.628 -0.6282  0.9830 -0.0548
  284MOL0     H38300  -0.932   5.496   1.337 -2.5869  0.2479  0.4280
  284MOL0     H38301  -1.195   5.282   1.301 -1.8475 -0.3689  0.8883
  284MOL0     H38302  -1.283   5.405   1.407 -0.7682 -1.5153  1.9862
  284MOL0     H38303  -1.173   5.457   1.277 -1.1608 -0.5766  0.5553
  284MOL0     H38304  -1.355   4.964   1.619  1.2726  1.3171 -3.6889
  284MOL0     H38305  -1.577   4.865   1.701 -0.8927 -0.3324  0.6655
  284MOL0     H38306  -1.781   4.814   1.795  0.9503  0.5831 -0.3909
  284MOL0     H38307  -1.744   4.951   1.899 -0.5020 -1.9001 -0.5675
  284MOL0     H38308  -1.950   4.803   1.941 -2.3322  0.5242  0.3341
  284MOL0     H38309  -1.989   4.967   1.942 -3.1550 -1.9561 -1.1477
  284MOL0     H38310  -2.061   4.975   1.711 -2.8854 -0.8517 -1.3194
  284MOL0     H38311  -2.161   4.889   1.816 -0.5062  2.7409 -0.9414
  284MOL0     H38312  -1.961   4.751   1.656 -0.3696  2.1497 -0.6264
  284MOL0     H38313  -2.088   4.661   1.740  2.5774 -0.2251  1.4196
  284MOL0     H38314  -2.106   4.697   1.488 -0.4014  3.0508 -2.0464
  284MOL0     H38315  -2.116   4.867   1.507  1.2541  1.1959  1.1482
  284MOL0     H38316  -2.321   4.668   1.645 -0.9903  0.4988  1.3987
  284MOL0     H38317  -2.350   4.839   1.621 -2.1237 -0.7546 -2.0379
  284MOL0     H38318  -2.300   4.645   1.388 -2.1252 -0.1995 -0.4302
  284MOL0     H38319  -2.360   4.815   1.378 -2.4035  0.0223  0.1085
  284MOL0     H38320  -2.496   4.593   1.537  1.2972 -1.9356 -1.9531
  284MOL0     H38321  -2.537   4.615   1.366  1.8981 -1.6446  1.1278
  284MOL0     H38322  -1.751   5.253   1.612 -1.1673 -1.8793 -0.8801
  284MOL0     H38323  -1.553   5.342   1.549  0.8968 -0.3576 -0.4857
  284MOL0     H38324  -0.980   5.239   1.756  0.5713 -0.1192  0.0722
  284MOL0     H38325  -0.781   5.365   1.704  0.8350  1.6072 -0.1351
  284MOL0     H38326   0.801   6.030   1.577  0.5649 -2.0458 -1.3230
  284MOL0     H38327   0.964   6.175   1.736  2.9090 -0.5274  1.3139
  284MOL0     H38328   1.087   6.151   2.230  0.1982 -1.1368  0.0599
  284MOL0     H38329   1.239   6.257   2.385 -1.3559 -1.1895 -0.4098
  284MOL0     H38330   1.362   6.452   2.496 -1.1054 -1.1557 -1.6194
  284MOL0     H38331   1.416   6.282   2.496 -0.6190  0.7673  0.8778
  284MOL0     H38332   1.654   6.355   2.525  1.9993  2.6836  2.3002
  284MOL0     H38333   1.563   6.379   2.662  0.9175 -1.4347 -0.1791
  284MOL0     H38334   1.537   6.619   2.536  0.9221  0.3999  0.1218
  284MOL0     H38335   1.682   6.560   2.451 -0.8714  1.5280 -1.1278
  284MOL0     H38336   1.758   6.487   2.686 -1.5270 -1.9066 -0.8628
  284MOL0     H38337   1.656   6.624   2.747 -2.7189 -1.2273 -1.4702
  284MOL0     H38338   2.008   6.797   2.558  0.8302 -0.4522 -0.5696
  284MOL0     H38339   1.510   6.358   2.081 -0.3147  0.5880  0.8310
  284MOL0     H38340   1.363   6.234   1.913 -3.4764 -2.0072 -0.9303
  285MOL0     O38341   5.450   6.018  10.017  0.7392 -0.2571 -0.7193
  285MOL0     C38342   5.487   5.953   9.920  1.0382  0.3697 -0.7192
  285MOL0     O38343   5.409   5.917   9.806  0.0906  0.1426  0.4128
  285MOL0     C38344   5.268   5.941   9.806 -0.9409 -0.3921  0.5364
  285MOL0     C38345   5.187   5.959   9.924  1.2653  1.0489  0.1293
  285MOL0     C38346   5.042   5.965   9.908 -0.3923  0.4051 -0.4360
  285MOL0     C38347   4.981   5.959   9.787  0.3262  0.2710  0.7486
  285MOL0     O38348   4.849   5.955   9.767 -0.0759  0.5825  0.3431
  285MOL0     C38349   4.771   5.913   9.875  0.5083  1.1935 -0.2628
  285MOL0     C38350   4.653   5.827   9.829  0.5436 -0.2390  0.8412
  285MOL0     C38351   4.551   5.915   9.740 -1.3179  0.0624  0.3542
  285MOL0     C38352   4.432   5.840   9.709 -1.2265  0.5261 -0.3294
  285MOL0     C38353   4.462   5.718   9.627 -0.9572  0.3694  0.8094
  285MOL0     C38354   4.325   5.674   9.558 -0.5193 -0.0946 -0.4955
  285MOL0     C38355   4.223   5.607   9.647 -0.0873  0.0083 -0.3970
  285MOL0     C38356   4.094   5.590   9.561  0.7530 -0.5087 -0.4561
  285MOL0     N38357   3.975   5.579   9.648  0.1077  0.6152 -0.2987
  285MOL0     C38358   3.876   5.675   9.687  0.5135 -0.5205  0.4003
  285MOL0     C38359   3.795   5.616   9.773 -0.2610  0.2944 -0.5989
  285MOL0     C38360   3.685   5.683   9.828 -0.2354 -0.8190 -0.5544
  285MOL0     C38361   3.688   5.846   9.811 -0.1302  0.4038 -0.6240
  285MOL0     C38362   3.568   5.924   9.864  0.4566  0.0917 -0.0107
  285MOL0     C38363   3.454   5.916   9.764 -0.7065  1.0020  0.1229
  285MOL0     O38364   3.433   5.781   9.714 -0.3243  0.4316 -0.1159
  285MOL0     C38365   3.307   5.726   9.720  0.7346  0.0440 -0.5209
  285MOL0     C38366   3.303   5.587   9.742 -0.6871 -0.7379  0.2801
  285MOL0     C38367   3.185   5.521   9.752 -0.4945  0.5248  0.2285
  285MOL0     C38368   3.207   5.374   9.758 -0.4300  0.3591  0.1998
  285MOL0     C38369   3.063   5.588   9.725 -0.5278 -0.8172  0.3987
  285MOL0     C38370   2.925   5.529   9.725 -0.0277  0.6172 -0.0311
  285MOL0     O38371   2.818   5.599   9.681  0.6352 -0.1504  0.6696
  285MOL0     C38372   2.698   5.583   9.740  0.2722  0.6041 -0.7767
  285MOL0     C38373   2.583   5.597   9.666 -0.6639 -1.0103  0.2006
  285MOL0     C38374   2.463   5.594   9.724  0.5343  0.7869  0.6609
  285MOL0     C38375   2.445   5.573   9.862  0.6314 -0.9155  0.9515
  285MOL0     O38376   2.327   5.565   9.924  0.9846 -0.4707  0.5823
  285MOL0     C38377   2.210   5.605   9.851  1.1587  0.2291  1.1789
  285MOL0     C38378   2.082   5.610   9.941 -0.5659 -0.4155  0.0895
  285MOL0     C38379   1.962   5.642   9.854  0.5987 -0.2694  0.0128
  285MOL0     C38380   1.827   5.630   9.920 -0.2794  0.1050  0.5827
  285MOL0     C38381   1.802   5.734  10.039 -0.1914  0.2642 -0.4643
  285MOL0     C38382   1.660   5.771  10.074  0.3825 -0.3417  0.2104
  285MOL0     C38383   1.562   5.652  10.089 -0.3401 -0.6304  0.0207
  285MOL0     C38384   1.422   5.702  10.122 -0.0345 -0.1064  0.9468
  285MOL0    Cl38385   1.399   5.740  10.297 -0.2751  0.3907  0.3395
  285MOL0     C38386   2.554   5.577   9.941 -0.7222  0.1437  0.2724
  285MOL0     C38387   2.683   5.585   9.879  0.7546 -0.1202  0.2631
  285MOL0     O38388   2.914   5.411   9.750  0.0047  0.1875  0.0450
  285MOL0     C38389   3.074   5.728   9.688  1.0459  0.7314 -0.9506
  285MOL0     C38390   3.195   5.801   9.680 -0.0169  0.0811  0.6742
  285MOL0     N38391   3.838   5.486   9.801  0.2092  0.7838  0.3608
  285MOL0     N38392   3.947   5.474   9.732  0.4283  0.4634 -0.4880
  285MOL0     C38393   5.065   5.933   9.679 -0.2753 -0.4738  0.3301
  285MOL0     C38394   5.201   5.926   9.687 -0.0547  0.4804 -0.0060
  285MOL0     C38395   5.625   5.904   9.932  0.5642  0.0770  0.2830
  285MOL0     C38396   5.715   5.951  10.026  0.2880 -0.9241 -0.1969
  285MOL0     C38397   5.846   5.915  10.024  0.4691  0.1613  0.2070
  285MOL0     C38398   5.901   5.841   9.911  0.3094  0.1886  0.2085
  285MOL0     O38399   6.036   5.830   9.892 -0.4399  0.2984 -0.2306
  285MOL0     C38400   6.127   5.900   9.979  0.0187 -0.3693  0.1553
  285MOL0     C38401   6.259   5.904   9.899 -0.5913  0.3886 -0.7950
  285MOL0     C38402   6.255   5.986   9.770 -0.0374 -0.3239 -0.3248
  285MOL0     C38403   6.394   5.983   9.706 -0.6487  0.7278 -0.4757
  285MOL0     C38404   6.498   6.029   9.789 -0.0116 -0.7949 -0.0565
  285MOL0     C38405   6.572   6.074   9.876 -0.3898  0.0345  0.1021
  285MOL0     C38406   5.812   5.780   9.825 -0.7024  0.3960  0.2645
  285MOL0     C38407   5.682   5.814   9.839 -0.0387  0.6293 -0.2037
  285MOL0     H38408   5.235   5.957  10.022  0.9974  2.0085  0.2866
  285MOL0     H38409   4.986   5.982   9.999 -0.6169  0.2398 -0.5407
  285MOL0     H38410   4.826   5.842   9.938  0.2098 -1.1631 -2.4832
  285MOL0     H38411   4.726   6.000   9.924 -4.0680 -1.3005  0.5564
  285MOL0     H38412   4.681   5.740   9.770 -0.8618 -1.0558  1.3486
  285MOL0     H38413   4.588   5.800   9.912  2.1282 -0.5010  2.0408
  285MOL0     H38414   4.520   6.006   9.792 -3.3793 -0.1287 -0.4268
  285MOL0     H38415   4.605   5.931   9.646  1.5209  0.2971  1.9213
  285MOL0     H38416   4.372   5.817   9.798 -1.7053  2.1437 -0.1978
  285MOL0     H38417   4.362   5.906   9.657 -2.3005 -0.1378  0.2477
  285MOL0     H38418   4.530   5.746   9.546 -0.7702 -1.2315  0.3882
  285MOL0     H38419   4.503   5.631   9.680  1.2261  1.1477  0.5338
  285MOL0     H38420   4.296   5.765   9.504 -2.1218 -0.8752 -1.0243
  285MOL0     H38421   4.350   5.605   9.477 -0.2322  0.3947 -0.8284
  285MOL0     H38422   4.266   5.512   9.682  2.7267  1.2982 -0.0264
  285MOL0     H38423   4.212   5.666   9.738  1.0454  0.7433 -0.7054
  285MOL0     H38424   4.118   5.501   9.501  1.3292  0.5235 -1.8050
  285MOL0     H38425   4.059   5.676   9.503 -0.6965  0.8842  2.3251
  285MOL0     H38426   3.866   5.775   9.646  0.0034  0.6713  3.1613
  285MOL0     H38427   3.591   5.639   9.794  0.3487 -1.9073 -0.8142
  285MOL0     H38428   3.697   5.658   9.933  0.6060 -2.1465 -0.9408
  285MOL0     H38429   3.689   5.870   9.704 -0.9458 -1.2621 -1.0377
  285MOL0     H38430   3.772   5.893   9.861 -0.9250  2.3680 -1.0195
  285MOL0     H38431   3.593   6.028   9.886  2.6095 -0.1475 -1.0329
  285MOL0     H38432   3.542   5.878   9.960  0.3266  0.8455  0.3156
  285MOL0     H38433   3.471   5.983   9.680 -2.9267  1.2352 -0.2031
  285MOL0     H38434   3.364   5.963   9.805 -0.4161  0.7192  1.1252
  285MOL0     H38435   3.400   5.538   9.739  1.1576  2.6146 -2.0649
  285MOL0     H38436   3.312   5.346   9.744 -0.5807  0.3875 -1.1706
  285MOL0     H38437   3.163   5.331   9.848 -0.3947 -1.7392 -0.7281
  285MOL0     H38438   3.170   5.315   9.674 -1.4746 -0.0250  0.9126
  285MOL0     H38439   2.601   5.605   9.559 -0.3269 -3.9940 -0.0484
  285MOL0     H38440   2.380   5.602   9.654  1.0858 -0.7519 -0.2046
  285MOL0     H38441   2.234   5.698   9.799  0.6556 -0.8757 -1.1844
  285MOL0     H38442   2.196   5.527   9.776  1.4214 -0.0804  1.4491
  285MOL0     H38443   2.077   5.515   9.995 -2.4246  0.7179  1.9947
  285MOL0     H38444   2.088   5.687  10.017 -2.5486  0.0331 -0.1692
  285MOL0     H38445   1.953   5.568   9.773 -0.1228  0.5038 -0.6242
  285MOL0     H38446   1.976   5.744   9.817 -0.2387  0.9646  2.8688
  285MOL0     H38447   1.754   5.636   9.839  0.1195 -4.2124 -0.3625
  285MOL0     H38448   1.823   5.528   9.959 -2.8679  0.3327  1.1011
  285MOL0     H38449   1.850   5.832  10.029 -1.4858  0.9876  0.1558
  285MOL0     H38450   1.841   5.686  10.128  0.8590 -1.2043 -1.6696
  285MOL0     H38451   1.660   5.825  10.169  0.4238 -0.7659  0.4548
  285MOL0     H38452   1.627   5.836   9.993 -2.1452  0.5727  1.8678
  285MOL0     H38453   1.602   5.595  10.174  2.9168 -0.6023 -1.3431
  285MOL0     H38454   1.563   5.587  10.001  1.6446 -0.9677  0.2361
  285MOL0     H38455   1.349   5.627  10.091  0.2243 -0.4656  1.2112
  285MOL0     H38456   1.393   5.793  10.067  1.4982 -1.1711 -1.8533
  285MOL0     H38457   2.547   5.555  10.047 -0.0765 -1.2365  0.0526
  285MOL0     H38458   2.768   5.595   9.946 -0.0889  1.8750  1.1102
  285MOL0     H38459   2.980   5.777   9.664  1.3726  2.1078  0.4762
  285MOL0     H38460   3.201   5.902   9.640 -0.8598 -0.2919 -0.4623
  285MOL0     H38461   5.011   5.929   9.585  2.4532 -1.4961 -1.2994
  285MOL0     H38462   5.274   5.915   9.608  2.2506 -2.6186  2.3078
  285MOL0     H38463   5.678   6.023  10.098 -1.1090 -0.7516 -1.0688
  285MOL0     H38464   5.899   5.962  10.106 -0.4095  0.4732  0.6085
  285MOL0     H38465   6.101   6.005   9.993 -2.5308 -0.2227 -3.9745
  285MOL0     H38466   6.131   5.850  10.077  0.4060 -0.3277  0.1625
  285MOL0     H38467   6.290   5.801   9.879 -1.2054 -0.4615  2.0564
  285MOL0     H38468   6.329   5.963   9.959  0.6616 -0.5035 -1.3443
  285MOL0     H38469   6.224   6.089   9.789  0.3638 -0.1227 -0.7372
  285MOL0     H38470   6.190   5.935   9.699 -2.4429 -0.7732  2.0068
  285MOL0     H38471   6.384   6.040   9.613 -1.8320 -1.0204 -1.4722
  285MOL0     H38472   6.415   5.878   9.686  0.9417  0.6557  1.2457
  285MOL0     H38473   6.638   6.111   9.952  1.4582 -2.2229 -0.3088
  285MOL0     H38474   5.854   5.724   9.743  1.0715 -0.5948  1.7699
  285MOL0     H38475   5.621   5.769   9.762  0.7579  0.1199 -0.5450
  286MOL0     O38476   9.609   5.638   3.714  0.5705  0.2612  0.0535
  286MOL0     C38477   9.570   5.752   3.744  0.4555 -0.5029  0.5195
  286MOL0     O38478   9.443   5.809   3.732 -0.0489 -0.0613  0.5910
  286MOL0     C38479   9.328   5.733   3.696  0.1951  0.4244 -0.8358
  286MOL0     C38480   9.318   5.602   3.674 -0.5845 -0.0833  1.0847
  286MOL0     C38481   9.200   5.536   3.629 -0.3089 -1.0192 -0.7439
  286MOL0     C38482   9.081   5.612   3.624  0.6606  0.0137  0.0768
  286MOL0     O38483   8.952   5.562   3.615  0.2317 -0.4850 -0.1601
  286MOL0     C38484   8.935   5.425   3.586 -0.8580 -0.6519 -0.1649
  286MOL0     C38485   8.789   5.420   3.579 -0.6021 -0.1258  0.0900
  286MOL0     C38486   8.747   5.279   3.543  0.1933  0.5974  0.3095
  286MOL0     C38487   8.596   5.266   3.542  0.3334 -0.3273 -0.0090
  286MOL0     C38488   8.550   5.139   3.484  0.9583 -0.1693 -0.4786
  286MOL0     C38489   8.403   5.101   3.527  0.0528  1.2738  0.1472
  286MOL0     C38490   8.381   4.958   3.475  0.3815  0.1043  0.6696
  286MOL0     C38491   8.250   4.910   3.502  0.2461 -0.4410 -0.2488
  286MOL0     N38492   8.153   4.984   3.415 -0.5557  0.6175 -0.5103
  286MOL0     C38493   8.045   5.054   3.458 -0.2477  0.3121 -0.0626
  286MOL0     C38494   7.983   5.104   3.342  0.3509 -1.2062 -0.1133
  286MOL0     C38495   7.860   5.191   3.334  0.4893  0.9874  0.9740
  286MOL0     C38496   7.726   5.118   3.312  0.3630  0.3097  0.0334
  286MOL0     C38497   7.710   5.088   3.161 -0.2670  0.8386  0.2515
  286MOL0     C38498   7.658   5.203   3.080 -0.8178  0.1766 -0.5563
  286MOL0     O38499   7.630   5.156   2.952  0.0287 -0.2920  0.3924
  286MOL0     C38500   7.499   5.180   2.914  0.5927 -0.4853 -0.4634
  286MOL0     C38501   7.392   5.126   2.994  0.8256  0.6542  0.4148
  286MOL0     C38502   7.262   5.149   2.951 -0.3235 -0.2374 -0.3423
  286MOL0     C38503   7.149   5.081   3.026  0.1067  0.5623 -0.1689
  286MOL0     C38504   7.233   5.217   2.826  0.0009  0.6022  0.0395
  286MOL0     C38505   7.097   5.251   2.766  0.1014 -0.5591  1.1046
  286MOL0     O38506   7.091   5.356   2.682 -1.0582  0.0239  0.1426
  286MOL0     C38507   6.977   5.406   2.632  0.1102 -1.0489  0.5661
  286MOL0     C38508   6.875   5.446   2.714  0.5360  0.0930  0.7083
  286MOL0     C38509   6.753   5.478   2.647 -0.7825 -0.7807 -0.1701
  286MOL0     C38510   6.737   5.474   2.506 -0.7464  0.8681  0.3015
  286MOL0     O38511   6.606   5.479   2.461 -0.2071  0.2247 -0.4945
  286MOL0     C38512   6.586   5.508   2.328 -0.4712  0.8763 -0.9056
  286MOL0     C38513   6.441   5.550   2.312  0.4187 -0.0022 -0.3825
  286MOL0     C38514   6.355   5.425   2.346 -0.0250  0.9313  0.8760
  286MOL0     C38515   6.198   5.444   2.348 -0.0949  0.3118  0.3973
  286MOL0     C38516   6.134   5.455   2.210 -0.3618  1.1880  0.1139
  286MOL0     C38517   5.994   5.518   2.217 -0.3258  0.8720 -1.1365
  286MOL0     C38518   5.930   5.552   2.081 -0.4644  0.2251 -0.8636
  286MOL0     C38519   5.774   5.581   2.083 -0.2176  0.2529  1.0138
  286MOL0    Cl38520   5.682   5.438   2.137 -0.3287  0.2958 -0.1226
  286MOL0     C38521   6.852   5.448   2.428 -0.0184  0.6720  0.5386
  286MOL0     C38522   6.966   5.408   2.492 -0.3400  0.2580 -0.9579
  286MOL0     O38523   6.999   5.184   2.799 -0.1212 -0.2128 -0.2992
  286MOL0     C38524   7.343   5.256   2.746  0.3888 -0.1786  0.2532
  286MOL0     C38525   7.472   5.224   2.786  0.0620 -0.4067 -1.1632
  286MOL0     N38526   8.054   5.058   3.235 -0.6563  0.1480  0.8061
  286MOL0     N38527   8.151   4.982   3.282  0.0411 -0.1203  0.4691
  286MOL0     C38528   9.088   5.753   3.642 -0.9447  0.0905 -0.3163
  286MOL0     C38529   9.212   5.811   3.687 -0.5272 -0.6244 -0.1654
  286MOL0     C38530   9.687   5.848   3.768 -0.4039 -0.1517 -0.3830
  286MOL0     C38531   9.821   5.803   3.778  0.3366  0.0004 -0.3918
  286MOL0     C38532   9.925   5.887   3.806  0.3061 -0.5886 -0.5606
  286MOL0     C38533   9.905   6.022   3.838  0.4560  0.5105  0.3795
  286MOL0     O38534   9.997   6.118   3.882  0.2855  0.5118  0.2126
  286MOL0     C38535  10.141   6.084   3.881 -0.3009  0.1618 -0.4011
  286MOL0     C38536  10.166   6.017   4.009 -0.2564  1.1374 -0.1512
  286MOL0     C38537  10.128   6.105   4.123 -0.5595  0.2125 -0.1736
  286MOL0     C38538  10.151   6.046   4.262 -0.0691  0.6263  0.3839
  286MOL0     C38539  10.285   6.002   4.285  0.2461 -0.7952 -0.1333
  286MOL0     C38540  10.394   5.966   4.314  0.5881  0.8436 -0.4825
  286MOL0     C38541   9.773   6.065   3.835 -0.2888  0.4836 -0.5988
  286MOL0     C38542   9.670   5.989   3.789  0.4573  0.8060 -0.0218
  286MOL0     H38543   9.405   5.540   3.699 -1.2890 -2.2196 -1.3315
  286MOL0     H38544   9.210   5.428   3.634  2.0013 -0.8405 -0.3200
  286MOL0     H38545   8.983   5.387   3.495 -0.8766 -0.1524 -0.3882
  286MOL0     H38546   8.970   5.360   3.667 -1.7804 -2.8149 -1.4230
  286MOL0     H38547   8.750   5.445   3.678 -2.4181 -2.9379  0.2232
  286MOL0     H38548   8.750   5.493   3.508 -1.7041  1.0588  1.8252
  286MOL0     H38549   8.787   5.254   3.444 -0.7678  0.2697 -0.0093
  286MOL0     H38550   8.775   5.215   3.627  0.6026 -0.5352 -0.6532
  286MOL0     H38551   8.557   5.276   3.644 -1.4555  2.0952 -0.8293
  286MOL0     H38552   8.552   5.352   3.490  4.6165  4.3103  3.0175
  286MOL0     H38553   8.555   5.134   3.375  2.2621  0.6035 -0.4724
  286MOL0     H38554   8.610   5.060   3.530  0.2677 -0.7647 -0.5827
  286MOL0     H38555   8.394   5.123   3.633 -4.5149  4.7806 -0.6803
  286MOL0     H38556   8.336   5.168   3.473 -0.7853 -0.8842 -1.6623
  286MOL0     H38557   8.393   4.955   3.366  0.1452  0.4490  0.6301
  286MOL0     H38558   8.447   4.885   3.522 -2.1600 -1.8643  1.4218
  286MOL0     H38559   8.233   4.925   3.609  2.9545 -0.1218  0.1831
  286MOL0     H38560   8.244   4.805   3.471 -0.0969  0.4547 -3.5759
  286MOL0     H38561   8.015   5.067   3.562 -0.3398 -1.0716  0.0947
  286MOL0     H38562   7.847   5.225   3.438 -2.2148 -1.0213  1.3921
  286MOL0     H38563   7.887   5.278   3.273 -1.9603  0.6095 -0.7816
  286MOL0     H38564   7.646   5.184   3.346  1.2617  1.0241  0.8226
  286MOL0     H38565   7.718   5.024   3.368  2.6424 -0.8016 -1.3268
  286MOL0     H38566   7.645   5.002   3.142 -0.6572  1.6359 -2.3449
  286MOL0     H38567   7.805   5.051   3.120  0.8057  0.8964  2.5387
  286MOL0     H38568   7.748   5.264   3.066 -0.5260  0.4306  1.9721
  286MOL0     H38569   7.578   5.260   3.129 -0.4695 -0.7716  1.1666
  286MOL0     H38570   7.407   5.065   3.082  0.1586  2.2969  1.7329
  286MOL0     H38571   7.098   5.006   2.965  1.2131  1.0079 -1.7246
  286MOL0     H38572   7.199   5.022   3.103  2.1472  0.9924 -1.0892
  286MOL0     H38573   7.084   5.156   3.073  3.7474  1.5841  3.9072
  286MOL0     H38574   6.877   5.460   2.821  2.6551 -2.0596  1.0228
  286MOL0     H38575   6.672   5.500   2.716 -0.2205 -1.3570  0.6880
  286MOL0     H38576   6.652   5.587   2.292  2.2790 -0.8705  0.0308
  286MOL0     H38577   6.599   5.423   2.261 -3.5614  0.8992 -1.6944
  286MOL0     H38578   6.415   5.627   2.386 -3.5305 -1.1666 -0.3398
  286MOL0     H38579   6.422   5.570   2.206 -1.3091 -2.0862 -0.5434
  286MOL0     H38580   6.385   5.387   2.444  2.9919  1.5428  0.2941
  286MOL0     H38581   6.371   5.345   2.272 -1.0342  2.7953 -1.5007
  286MOL0     H38582   6.156   5.366   2.411  2.8665 -1.2803  0.5871
  286MOL0     H38583   6.182   5.539   2.400  0.1044  1.4822 -1.5773
  286MOL0     H38584   6.132   5.352   2.174 -0.9252  0.5022  1.9842
  286MOL0     H38585   6.197   5.505   2.136 -1.6945  0.0252 -1.9086
  286MOL0     H38586   5.933   5.444   2.270  0.4564 -1.2367 -3.0466
  286MOL0     H38587   5.993   5.603   2.286  0.1640 -1.3947  1.9251
  286MOL0     H38588   5.950   5.464   2.020  2.3811 -0.0121  0.2481
  286MOL0     H38589   5.973   5.641   2.035  0.1347 -0.0263 -0.7985
  286MOL0     H38590   5.742   5.610   1.982 -3.3033 -4.2823  0.3619
  286MOL0     H38591   5.753   5.664   2.151  2.3983  2.7900 -1.0270
  286MOL0     H38592   6.858   5.452   2.320  0.8425 -0.7973  0.4957
  286MOL0     H38593   7.053   5.385   2.431 -0.2952  2.1084 -1.6521
  286MOL0     H38594   7.330   5.308   2.652 -2.5064  0.8665  1.1455
  286MOL0     H38595   7.561   5.251   2.731  2.7431 -0.4743  2.7396
  286MOL0     H38596   8.998   5.814   3.643  1.8025  4.6192 -1.2728
  286MOL0     H38597   9.223   5.918   3.704 -0.2572 -0.8925  1.5422
  286MOL0     H38598   9.855   5.701   3.762  1.8588  0.2076  1.2333
  286MOL0     H38599  10.029   5.861   3.825  0.4900  1.7035  2.3609
  286MOL0     H38600  10.181   6.017   3.804 -1.1413 -0.9761  0.1325
  286MOL0     H38601  10.197   6.178   3.876  0.1913 -0.1317 -0.4996
  286MOL0     H38602  10.273   5.993   4.007 -0.6197 -0.5545 -0.2736
  286MOL0     H38603  10.110   5.924   4.016  1.8259 -0.1898 -0.3167
  286MOL0     H38604  10.020   6.121   4.125 -0.6898 -0.6391  1.5493
  286MOL0     H38605  10.173   6.203   4.109  0.7642  0.0800  2.4370
  286MOL0     H38606  10.091   5.955   4.259  2.5340 -1.1681 -0.2394
  286MOL0     H38607  10.115   6.104   4.348 -2.0531 -2.2507  1.6400
  286MOL0     H38608  10.492   5.927   4.332 -0.8814 -3.7052 -1.1099
  286MOL0     H38609   9.746   6.168   3.857  0.8257  0.5418  0.6620
  286MOL0     H38610   9.570   6.030   3.780  1.4690  3.0437 -2.0174
  287MOL0     O38611  10.595   1.750   5.921  0.2055 -0.5752 -0.2625
  287MOL0     C38612  10.588   1.862   5.968  0.1347  0.2438 -0.4037
  287MOL0     O38613  10.472   1.915   6.014 -0.2139  0.4639  0.0917
  287MOL0     C38614  10.353   1.864   5.974  0.7115  0.2140 -0.5596
  287MOL0     C38615  10.255   1.953   5.958  0.5652 -0.2858  0.3591
  287MOL0     C38616  10.122   1.922   5.934 -0.4812 -0.3424  0.3886
  287MOL0     C38617  10.077   1.790   5.940  0.4580  0.0261 -1.0529
  287MOL0     O38618   9.955   1.743   5.912 -0.5252 -1.3036 -0.0728
  287MOL0     C38619   9.845   1.834   5.913 -0.2825 -0.5769 -0.4734
  287MOL0     C38620   9.709   1.765   5.952 -0.8575 -0.4697  0.0079
  287MOL0     C38621   9.585   1.856   5.936  0.3241  0.5161 -0.2579
  287MOL0     C38622   9.459   1.776   5.953  0.8669  0.1014  0.2339
  287MOL0     C38623   9.333   1.861   5.914  0.7034  0.3799  0.4097
  287MOL0     C38624   9.296   1.961   6.028 -0.1855 -0.4540  0.8829
  287MOL0     C38625   9.241   1.901   6.157 -0.4193 -1.2859 -0.0374
  287MOL0     C38626   9.240   1.993   6.280 -0.1328 -0.4749  0.2319
  287MOL0     N38627   9.152   1.927   6.384  0.0958 -0.3418  0.6194
  287MOL0     C38628   9.013   1.917   6.373 -0.1764 -0.5050  0.4387
  287MOL0     C38629   8.971   1.890   6.498  0.5142 -0.0487  0.2545
  287MOL0     C38630   8.826   1.870   6.542  0.2288  1.0405 -0.3279
  287MOL0     C38631   8.749   1.999   6.558  0.4019 -0.3215 -0.1566
  287MOL0     C38632   8.774   2.073   6.694 -0.3367 -0.2783 -0.2617
  287MOL0     C38633   8.920   2.117   6.722 -0.4143 -0.3234  0.2516
  287MOL0     O38634   8.979   2.192   6.612 -0.1128 -0.0757  0.0459
  287MOL0     C38635   9.114   2.202   6.605  0.0770  0.3528  0.0381
  287MOL0     C38636   9.170   2.271   6.500  1.1167  0.2836 -0.1550
  287MOL0     C38637   9.301   2.276   6.478  0.3854  0.1364  1.1734
  287MOL0     C38638   9.328   2.309   6.333  0.1921 -0.3689  0.7507
  287MOL0     C38639   9.395   2.221   6.567  0.2794 -0.7885  0.0079
  287MOL0     C38640   9.536   2.240   6.549 -1.3270 -0.4844 -0.6573
  287MOL0     O38641   9.616   2.169   6.644  0.4485 -0.7998 -0.1093
  287MOL0     C38642   9.755   2.172   6.638 -0.7726 -0.1881 -0.1452
  287MOL0     C38643   9.831   2.056   6.618  1.3082 -0.2756  0.1101
  287MOL0     C38644   9.970   2.053   6.617  0.6835 -0.2939  0.1175
  287MOL0     C38645  10.035   2.175   6.617  0.6440 -0.0981 -0.6487
  287MOL0     O38646  10.166   2.162   6.602  0.3356 -0.2730  0.4205
  287MOL0     C38647  10.250   2.275   6.589  0.3526 -0.1769 -0.1974
  287MOL0     C38648  10.394   2.231   6.560 -0.3351  0.0995 -0.5591
  287MOL0     C38649  10.416   2.123   6.450  0.1425  0.0069  0.2915
  287MOL0     C38650  10.364   2.170   6.312 -0.1380  0.1488 -0.0356
  287MOL0     C38651  10.421   2.310   6.269  1.2523  1.0268 -0.3811
  287MOL0     C38652  10.409   2.334   6.119 -0.4153 -0.3398  1.1943
  287MOL0     C38653  10.438   2.482   6.089  0.4803  0.7397 -0.0411
  287MOL0     C38654  10.436   2.517   5.938  0.0295 -0.3100 -0.4757
  287MOL0    Cl38655  10.580   2.476   5.862 -0.2681  0.1990 -0.0879
  287MOL0     C38656   9.964   2.289   6.636 -0.0755 -1.4299  0.2333
  287MOL0     C38657   9.826   2.291   6.652  0.2541 -0.3322  0.0717
  287MOL0     O38658   9.577   2.301   6.454  0.1549 -0.0328 -0.6488
  287MOL0     C38659   9.347   2.157   6.674 -0.1857  1.1892 -0.8412
  287MOL0     C38660   9.205   2.138   6.694  0.6830  0.3196 -0.6965
  287MOL0     N38661   9.083   1.876   6.578 -0.3535 -0.1322  0.4953
  287MOL0     N38662   9.193   1.888   6.506  0.0282 -0.1203 -0.6225
  287MOL0     C38663  10.176   1.693   5.959 -0.3973  0.9411 -0.8004
  287MOL0     C38664  10.313   1.731   5.967  0.9738 -0.2260  0.0374
  287MOL0     C38665  10.713   1.929   5.977 -0.3449 -0.5084 -0.0489
  287MOL0     C38666  10.724   2.035   6.071  0.3653  0.0477  0.4783
  287MOL0     C38667  10.848   2.102   6.086  0.3840  0.8611  0.7938
  287MOL0     C38668  10.949   2.080   5.989  0.2876 -1.5709 -0.3972
  287MOL0     O38669  11.064   2.159   6.001 -0.2198 -0.2800  0.2490
  287MOL0     C38670  11.154   2.181   5.885  0.1570  0.3713  0.0148
  287MOL0     C38671  11.133   2.322   5.842 -0.1928  0.1797 -0.7026
  287MOL0     C38672  11.101   2.425   5.949 -0.0238  0.3494  0.1459
  287MOL0     C38673  11.086   2.563   5.893 -0.4622  0.1696  0.4504
  287MOL0     C38674  11.182   2.624   5.796 -0.5703 -0.0806  0.1535
  287MOL0     C38675  11.259   2.665   5.711 -0.1404 -0.1656  0.1145
  287MOL0     C38676  10.941   1.979   5.897  0.1184  0.2044 -0.1875
  287MOL0     C38677  10.823   1.903   5.895 -0.1732 -0.1520 -0.0043
  287MOL0     H38678  10.280   2.059   5.960 -2.5553  0.5855 -0.5462
  287MOL0     H38679  10.051   1.998   5.902  0.7262  1.0677  0.9507
  287MOL0     H38680   9.857   1.923   5.975 -1.1223 -0.2889 -0.7116
  287MOL0     H38681   9.844   1.869   5.810  4.5800  1.5151 -0.0866
  287MOL0     H38682   9.703   1.672   5.895 -3.5078  0.9669 -2.3014
  287MOL0     H38683   9.715   1.752   6.061 -0.9260  1.6797  0.2952
  287MOL0     H38684   9.579   1.934   6.013 -2.4676 -0.7907  0.9823
  287MOL0     H38685   9.592   1.914   5.843  2.6757  4.6263  2.1188
  287MOL0     H38686   9.460   1.692   5.883  0.6196 -0.2777  0.6784
  287MOL0     H38687   9.446   1.727   6.050  0.4134 -0.9006 -0.3161
  287MOL0     H38688   9.359   1.911   5.820 -2.9725 -1.0106 -1.5386
  287MOL0     H38689   9.246   1.799   5.892  0.5367  0.5093  0.6938
  287MOL0     H38690   9.381   2.022   6.059  1.4625 -2.3112  0.2650
  287MOL0     H38691   9.227   2.035   5.988  1.9147  1.7394  1.0647
  287MOL0     H38692   9.137   1.870   6.143 -0.7376 -0.3529  0.1456
  287MOL0     H38693   9.295   1.809   6.180  2.4385  0.7318  2.2235
  287MOL0     H38694   9.188   2.082   6.242  0.5862  0.9390  2.4305
  287MOL0     H38695   9.342   2.011   6.315 -0.1421  1.3270 -0.5599
  287MOL0     H38696   8.964   1.948   6.281  3.8694 -0.9646 -2.1376
  287MOL0     H38697   8.786   1.796   6.472 -0.0564 -0.4728  1.3748
  287MOL0     H38698   8.823   1.818   6.638  3.1720  0.5403 -0.3957
  287MOL0     H38699   8.644   1.982   6.535 -0.2383  1.2084  1.3940
  287MOL0     H38700   8.779   2.071   6.481  0.8297  1.2371  1.3873
  287MOL0     H38701   8.748   2.002   6.773 -1.7896 -0.4893 -0.9137
  287MOL0     H38702   8.711   2.162   6.687  0.9008  0.5423 -1.6007
  287MOL0     H38703   8.972   2.023   6.746  0.1883  0.5691  2.7514
  287MOL0     H38704   8.925   2.164   6.821  2.0694  0.0477  0.0091
  287MOL0     H38705   9.100   2.306   6.425  1.1053 -0.3781 -0.4601
  287MOL0     H38706   9.245   2.296   6.263  1.0862  0.8268 -0.5941
  287MOL0     H38707   9.363   2.412   6.323 -0.6879  0.0168  1.5446
  287MOL0     H38708   9.405   2.237   6.302  1.4619 -0.0637  3.0217
  287MOL0     H38709   9.771   1.966   6.622 -0.3857  0.5573 -2.8885
  287MOL0     H38710  10.019   1.956   6.617 -1.6076 -1.5395 -0.5954
  287MOL0     H38711  10.221   2.336   6.503 -0.4808 -1.5943 -0.9483
  287MOL0     H38712  10.243   2.344   6.673  1.2217  1.5742 -1.4856
  287MOL0     H38713  10.451   2.319   6.532 -1.0023  1.2592  1.5317
  287MOL0     H38714  10.440   2.184   6.648  0.1658 -0.4599 -1.1110
  287MOL0     H38715  10.357   2.036   6.481  1.2959 -1.6936 -1.9610
  287MOL0     H38716  10.524   2.107   6.448  0.3680  0.5366  3.2600
  287MOL0     H38717  10.382   2.095   6.235 -1.1692  0.7828 -0.9153
  287MOL0     H38718  10.258   2.187   6.330  0.1205  0.9971  0.8105
  287MOL0     H38719  10.525   2.328   6.297  0.7016  1.6743  1.3775
  287MOL0     H38720  10.362   2.378   6.331  2.8859 -0.5949  3.2729
  287MOL0     H38721  10.481   2.270   6.067 -0.4056  1.4085 -1.1267
  287MOL0     H38722  10.311   2.301   6.082  0.3838 -0.1196 -1.3282
  287MOL0     H38723  10.535   2.496   6.136  0.6256  0.0458 -0.1281
  287MOL0     H38724  10.354   2.538   6.132 -0.6116  0.0567 -1.1962
  287MOL0     H38725  10.418   2.625   5.928  2.9397  0.5580  2.0203
  287MOL0     H38726  10.355   2.475   5.877  0.6865 -2.7002  0.2194
  287MOL0     H38727  10.015   2.385   6.637 -0.4818 -0.9721 -4.0614
  287MOL0     H38728   9.764   2.378   6.675 -0.1186 -0.3107 -0.9655
  287MOL0     H38729   9.411   2.103   6.743 -2.4709 -1.5268 -0.6385
  287MOL0     H38730   9.182   2.072   6.777  1.5283 -0.5211 -1.1114
  287MOL0     H38731  10.153   1.587   5.968  1.9326  0.3615 -0.9764
  287MOL0     H38732  10.386   1.652   5.981  2.5444  0.7653 -2.0898
  287MOL0     H38733  10.641   2.066   6.133 -0.3896 -0.0312 -0.4767
  287MOL0     H38734  10.865   2.187   6.151 -0.5863  0.9586  0.9297
  287MOL0     H38735  11.260   2.168   5.911 -0.3102 -0.9855  1.4353
  287MOL0     H38736  11.143   2.118   5.796 -2.9816  0.4338  0.2395
  287MOL0     H38737  11.042   2.328   5.782 -3.7641 -1.1227  3.9418
  287MOL0     H38738  11.223   2.359   5.792  0.4372  0.8343  0.8403
  287MOL0     H38739  11.186   2.426   6.017 -0.2314  0.9101  0.4009
  287MOL0     H38740  11.009   2.403   6.004 -0.2534 -1.9773 -1.0336
  287MOL0     H38741  11.089   2.638   5.973  1.4364  1.7924 -1.0289
  287MOL0     H38742  10.989   2.581   5.845  1.3787  1.6873 -3.0790
  287MOL0     H38743  11.325   2.696   5.633 -1.4874 -1.0603 -1.4532
  287MOL0     H38744  11.024   1.946   5.835  0.9541 -3.0358  2.4219
  287MOL0     H38745  10.815   1.825   5.819 -0.7153  0.6238 -0.7535
  288MOL0     O38746   4.531   4.813   7.869 -1.0341  0.0819  0.2018
  288MOL0     C38747   4.600   4.744   7.798 -0.1782  0.8089 -0.0143
  288MOL0     O38748   4.563   4.625   7.746  0.6688 -0.2954  0.4564
  288MOL0     C38749   4.454   4.551   7.787 -0.1897 -0.2511  0.0433
  288MOL0     C38750   4.405   4.559   7.915  0.5649 -0.1255 -0.3640
  288MOL0     C38751   4.298   4.479   7.955 -0.7397 -0.0940 -0.1277
  288MOL0     C38752   4.241   4.390   7.859  0.1873  0.2459 -0.0065
  288MOL0     O38753   4.134   4.306   7.879 -0.0262  0.2436 -0.0115
  288MOL0     C38754   4.020   4.350   7.960  0.2089  0.6154  0.3431
  288MOL0     C38755   3.927   4.241   8.021  0.6058 -0.0843  0.2868
  288MOL0     C38756   4.004   4.111   8.066  0.0159  0.0094  0.0793
  288MOL0     C38757   3.916   4.006   8.149  0.0687 -0.0544 -0.5956
  288MOL0     C38758   4.004   3.913   8.227 -0.4302 -0.2208  0.2639
  288MOL0     C38759   3.937   3.783   8.264  0.2109 -0.3411  0.6268
  288MOL0     C38760   3.823   3.799   8.366 -0.2808 -0.4623 -0.2302
  288MOL0     C38761   3.776   3.655   8.390 -0.0815 -0.7331 -0.8801
  288MOL0     N38762   3.661   3.630   8.306 -0.0284  0.5304 -0.4002
  288MOL0     C38763   3.550   3.706   8.310  0.6467 -0.0743  0.5891
  288MOL0     C38764   3.473   3.658   8.211 -0.2360  0.5877 -0.4561
  288MOL0     C38765   3.341   3.702   8.173  0.5006 -0.1728 -0.9379
  288MOL0     C38766   3.248   3.588   8.155  0.0524 -0.6495 -0.0185
  288MOL0     C38767   3.105   3.652   8.148  0.6194  0.8949  0.2462
  288MOL0     C38768   3.001   3.547   8.124  0.5007  0.7785  0.1234
  288MOL0     O38769   2.868   3.605   8.108 -0.2438 -0.0392  0.7772
  288MOL0     C38770   2.775   3.541   8.196  0.5846  0.1415  0.0025
  288MOL0     C38771   2.758   3.591   8.323  0.7478  0.4763  0.3933
  288MOL0     C38772   2.672   3.540   8.417 -0.0580 -0.1488 -0.1977
  288MOL0     C38773   2.655   3.619   8.548 -0.3075  0.3777 -0.4195
  288MOL0     C38774   2.590   3.434   8.383  0.7010  0.5134 -0.1433
  288MOL0     C38775   2.480   3.384   8.467 -0.5429 -0.8421  0.0754
  288MOL0     O38776   2.404   3.284   8.406  0.0547 -0.1587  0.0772
  288MOL0     C38777   2.271   3.284   8.445  0.5991  0.5386 -0.2157
  288MOL0     C38778   2.205   3.167   8.431  0.1711  0.1789 -0.1141
  288MOL0     C38779   2.075   3.149   8.461  0.5484 -0.2162  0.2972
  288MOL0     C38780   2.004   3.256   8.515  0.0065  0.2511  0.2624
  288MOL0     O38781   1.874   3.251   8.548  0.4257 -0.9545 -0.0306
  288MOL0     C38782   1.788   3.220   8.438 -0.6878 -0.6581  0.7279
  288MOL0     C38783   1.648   3.269   8.484 -0.5121  0.6714  0.6922
  288MOL0     C38784   1.553   3.294   8.369 -0.4026  0.2428 -0.5599
  288MOL0     C38785   1.414   3.325   8.413  0.2571  0.0586  0.0681
  288MOL0     C38786   1.321   3.339   8.289 -0.1914  0.1072  0.4324
  288MOL0     C38787   1.190   3.402   8.321  0.1953 -0.1436 -0.8376
  288MOL0     C38788   1.109   3.404   8.195  0.6814  0.6786 -0.2652
  288MOL0     C38789   0.970   3.421   8.228  0.2115 -0.2766 -0.2409
  288MOL0    Cl38790   0.947   3.605   8.257  0.0962 -0.1413  0.2599
  288MOL0     C38791   2.068   3.377   8.533 -0.4300  0.0053 -0.1194
  288MOL0     C38792   2.201   3.395   8.500  0.1595  0.1650  0.8002
  288MOL0     O38793   2.468   3.423   8.585  0.0085  0.3280  1.0928
  288MOL0     C38794   2.607   3.377   8.255 -0.9217 -0.2710 -0.6761
  288MOL0     C38795   2.700   3.430   8.165 -0.2811  0.2977 -0.3719
  288MOL0     N38796   3.545   3.558   8.145 -0.0859  0.1944 -0.0582
  288MOL0     N38797   3.656   3.539   8.209  0.5019  0.0691  0.3982
  288MOL0     C38798   4.290   4.390   7.730 -0.2511 -0.7540  0.0801
  288MOL0     C38799   4.404   4.468   7.697 -0.0334  0.4765  0.5513
  288MOL0     C38800   4.742   4.790   7.763  0.0222 -0.0482 -0.1745
  288MOL0     C38801   4.803   4.729   7.650  0.3381 -0.7654  0.4911
  288MOL0     C38802   4.932   4.780   7.617  0.1930  0.6962 -1.2410
  288MOL0     C38803   4.996   4.888   7.694 -0.2849  0.4088 -0.3387
  288MOL0     O38804   5.116   4.953   7.656  0.1272 -0.4942 -0.3676
  288MOL0     C38805   5.161   4.945   7.517  0.3079  0.8123 -0.0244
  288MOL0     C38806   5.271   5.050   7.485  0.1816  0.2638  0.2877
  288MOL0     C38807   5.399   5.057   7.574 -0.2367  0.7461 -0.8508
  288MOL0     C38808   5.525   5.131   7.519 -0.1771  0.0525 -0.1229
  288MOL0     C38809   5.590   5.044   7.423 -0.7115 -1.2812  0.2058
  288MOL0     C38810   5.627   4.973   7.335 -0.0347  0.0660  0.6709
  288MOL0     C38811   4.928   4.934   7.798  1.2339 -0.8158 -0.3374
  288MOL0     C38812   4.811   4.884   7.841  0.3963 -0.1623 -0.3290
  288MOL0     H38813   4.451   4.635   7.977 -0.9563  0.9190 -0.4635
  288MOL0     H38814   4.250   4.488   8.052  0.7484 -1.7473  0.8088
  288MOL0     H38815   4.051   4.418   8.040 -0.7319 -1.6830  2.8058
  288MOL0     H38816   3.959   4.419   7.901  1.7537  2.0988  0.3772
  288MOL0     H38817   3.880   4.269   8.116  0.0046 -0.0288 -0.0307
  288MOL0     H38818   3.839   4.220   7.961  0.9548 -1.9210  0.3463
  288MOL0     H38819   4.040   4.073   7.970 -2.3021 -1.4984 -0.2553
  288MOL0     H38820   4.084   4.148   8.131 -1.8768  1.7107  1.5843
  288MOL0     H38821   3.852   4.063   8.217  0.1748  0.0649 -0.5970
  288MOL0     H38822   3.855   3.949   8.077  2.2818 -1.1582 -1.7071
  288MOL0     H38823   4.092   3.889   8.166  0.6614 -1.2596  2.1396
  288MOL0     H38824   4.028   3.966   8.320 -1.0852 -0.2276  0.4371
  288MOL0     H38825   3.898   3.732   8.176  0.2405  2.9634 -1.4861
  288MOL0     H38826   4.025   3.729   8.300  0.0757 -2.5342 -2.0088
  288MOL0     H38827   3.856   3.848   8.457  2.6727 -2.6789  0.0647
  288MOL0     H38828   3.754   3.863   8.311  1.9861 -0.0268 -2.7805
  288MOL0     H38829   3.762   3.641   8.497  3.7920 -0.5230 -0.2074
  288MOL0     H38830   3.854   3.582   8.364  0.8526  0.3178 -1.0778
  288MOL0     H38831   3.518   3.771   8.391  1.6450 -1.6953  2.3840
  288MOL0     H38832   3.298   3.764   8.252  0.3522  0.1741 -1.2857
  288MOL0     H38833   3.352   3.765   8.084  1.2482  2.7676  1.1158
  288MOL0     H38834   3.272   3.523   8.240  0.6759 -0.1598  0.1925
  288MOL0     H38835   3.278   3.539   8.062 -2.3470 -1.1802 -0.5626
  288MOL0     H38836   3.097   3.718   8.062  1.6438  0.5847 -0.1101
  288MOL0     H38837   3.080   3.703   8.242 -0.4248 -0.5500  0.7944
  288MOL0     H38838   3.005   3.465   8.196  0.8978 -1.7312 -2.5766
  288MOL0     H38839   3.018   3.495   8.030  2.2041  1.4257  0.0442
  288MOL0     H38840   2.820   3.679   8.340  1.9697  0.1012 -1.7302
  288MOL0     H38841   2.745   3.680   8.557  1.2092 -1.7307 -0.5579
  288MOL0     H38842   2.565   3.680   8.538  0.5960  2.1648  1.5493
  288MOL0     H38843   2.664   3.562   8.641  3.5645  1.7858  0.2880
  288MOL0     H38844   2.257   3.087   8.381 -0.1919 -0.7863  1.0009
  288MOL0     H38845   2.030   3.051   8.453 -3.3092  1.5232 -3.9960
  288MOL0     H38846   1.823   3.286   8.358  1.9944 -0.7590  1.7000
  288MOL0     H38847   1.793   3.115   8.411 -0.1080 -0.9611  1.9533
  288MOL0     H38848   1.601   3.186   8.538 -4.4573  0.7778 -2.1143
  288MOL0     H38849   1.659   3.356   8.551  0.8033  0.5672  0.6228
  288MOL0     H38850   1.538   3.202   8.312  0.2436 -1.3882  1.7348
  288MOL0     H38851   1.581   3.378   8.305  3.0212  0.3646  0.8686
  288MOL0     H38852   1.376   3.253   8.487  2.1341 -1.4369 -0.3328
  288MOL0     H38853   1.422   3.426   8.453  2.8265  0.1822 -0.5585
  288MOL0     H38854   1.312   3.240   8.243  1.4459 -1.0957  2.5118
  288MOL0     H38855   1.382   3.403   8.225  2.3477  0.2139  2.7924
  288MOL0     H38856   1.151   3.353   8.411  0.5797 -1.2451 -1.2541
  288MOL0     H38857   1.198   3.507   8.348  0.7230 -0.1581 -0.9391
  288MOL0     H38858   1.111   3.307   8.145 -1.9618  0.7373 -0.6602
  288MOL0     H38859   1.140   3.492   8.139 -2.9635  2.7602  0.6564
  288MOL0     H38860   0.929   3.367   8.314  2.4064  1.2963  1.9131
  288MOL0     H38861   0.923   3.399   8.132 -1.2049 -1.7503  0.7390
  288MOL0     H38862   2.017   3.465   8.570  0.1621  0.6714 -0.8499
  288MOL0     H38863   2.252   3.491   8.505  2.4428 -0.9529  0.5627
  288MOL0     H38864   2.542   3.297   8.221 -2.0560  0.4580 -0.2873
  288MOL0     H38865   2.710   3.380   8.069 -2.6717 -2.0192  0.4740
  288MOL0     H38866   4.255   4.316   7.657  0.5296  0.6074 -1.7527
  288MOL0     H38867   4.435   4.452   7.594  2.4770  0.0463  1.3092
  288MOL0     H38868   4.754   4.658   7.585 -2.5634  0.4565  1.1792
  288MOL0     H38869   4.986   4.755   7.526  0.9772  0.3703 -0.7005
  288MOL0     H38870   5.193   4.843   7.493  1.6294  1.2096 -0.0637
  288MOL0     H38871   5.081   4.975   7.449  1.0627  2.8331 -0.1113
  288MOL0     H38872   5.228   5.150   7.490 -3.2917 -1.1148  0.5538
  288MOL0     H38873   5.299   5.032   7.380 -0.0424  1.7977 -0.0593
  288MOL0     H38874   5.426   4.952   7.587  2.4708  1.0955 -2.7892
  288MOL0     H38875   5.371   5.108   7.667 -0.4351 -0.3335 -0.3068
  288MOL0     H38876   5.599   5.156   7.595 -0.4334 -1.3150  0.5983
  288MOL0     H38877   5.491   5.223   7.470 -1.2167 -1.6481 -2.8212
  288MOL0     H38878   5.659   4.917   7.249 -3.7658 -0.9870 -0.2499
  288MOL0     H38879   4.972   5.020   7.847  3.8148 -1.0981 -1.9518
  288MOL0     H38880   4.770   4.926   7.933 -2.5262 -1.6935 -0.8124
  289MOL0     O38881   8.267   4.102   8.060  0.6729 -0.3828  0.1567
  289MOL0     C38882   8.361   4.166   8.016  0.0953  0.1181  0.9385
  289MOL0     O38883   8.387   4.297   8.037  0.0426  0.0626  0.3671
  289MOL0     C38884   8.285   4.382   8.069 -0.2851 -0.6631  0.7812
  289MOL0     C38885   8.166   4.409   7.992 -0.3586 -0.0055  0.9696
  289MOL0     C38886   8.065   4.489   8.048 -0.0325  0.0347  0.3377
  289MOL0     C38887   8.071   4.540   8.176  0.3036 -0.4558 -0.1183
  289MOL0     O38888   7.972   4.613   8.239 -0.1866  0.9956 -0.2134
  289MOL0     C38889   7.834   4.590   8.202  0.0932 -0.0801 -0.8925
  289MOL0     C38890   7.739   4.676   8.294 -0.3113  0.5795 -0.4054
  289MOL0     C38891   7.610   4.706   8.219  0.6191  0.0095  0.9249
  289MOL0     C38892   7.498   4.753   8.311 -1.0373 -0.4162  0.1285
  289MOL0     C38893   7.375   4.799   8.239 -0.2600 -0.3280  0.2178
  289MOL0     C38894   7.272   4.856   8.341  1.3439 -0.9048  0.1496
  289MOL0     C38895   7.129   4.822   8.304 -0.1592  0.0708 -0.5845
  289MOL0     C38896   7.026   4.888   8.407 -0.3018  1.0069  0.0009
  289MOL0     N38897   6.886   4.857   8.384  0.1640  0.0335  0.4917
  289MOL0     C38898   6.804   4.923   8.294  0.3019 -0.2914 -0.1775
  289MOL0     C38899   6.677   4.886   8.338  0.2304  0.5602 -0.1370
  289MOL0     C38900   6.549   4.950   8.289 -0.3173 -0.6343 -0.0061
  289MOL0     C38901   6.486   5.053   8.381  0.0084 -0.0497 -0.4107
  289MOL0     C38902   6.585   5.156   8.435 -0.5038 -0.1981 -0.2701
  289MOL0     C38903   6.536   5.242   8.542 -0.0207 -0.2352  0.1248
  289MOL0     O38904   6.414   5.308   8.502 -0.4655  1.2047 -0.0497
  289MOL0     C38905   6.294   5.288   8.569  0.6366 -0.4450 -0.7455
  289MOL0     C38906   6.270   5.197   8.676 -0.6719 -0.7782  0.2097
  289MOL0     C38907   6.139   5.197   8.737  0.4661 -0.0028  0.4205
  289MOL0     C38908   6.116   5.098   8.838 -0.7900  0.6015  0.1123
  289MOL0     C38909   6.034   5.283   8.693  0.2831 -0.2076 -0.0062
  289MOL0     C38910   5.895   5.290   8.750  0.1224 -0.3818 -0.7877
  289MOL0     O38911   5.802   5.353   8.668  0.1197 -0.6165 -0.0444
  289MOL0     C38912   5.670   5.324   8.690  0.6546 -0.7221  0.4215
  289MOL0     C38913   5.615   5.236   8.595 -0.4754  0.3768  0.9408
  289MOL0     C38914   5.484   5.195   8.611  0.4346 -0.1310  0.6775
  289MOL0     C38915   5.400   5.242   8.717  0.0225 -0.3951 -0.1885
  289MOL0     O38916   5.268   5.205   8.745 -0.3569 -0.1678  0.3245
  289MOL0     C38917   5.190   5.170   8.626  0.5052 -0.5895  0.3911
  289MOL0     C38918   5.041   5.218   8.650 -0.0668  0.2903 -0.0066
  289MOL0     C38919   4.986   5.155   8.781 -0.3918  0.3668 -0.4148
  289MOL0     C38920   4.835   5.148   8.768  0.1047  0.1167  0.4593
  289MOL0     C38921   4.774   5.065   8.881  0.0198  0.8131 -0.4551
  289MOL0     C38922   4.621   5.090   8.882 -0.0962  0.2240 -1.0080
  289MOL0     C38923   4.542   4.980   8.960  0.1732 -0.4358  0.2352
  289MOL0     C38924   4.405   4.976   8.901 -0.1594  0.0428  0.0065
  289MOL0    Cl38925   4.412   4.898   8.739  0.1683 -0.1325  0.2764
  289MOL0     C38926   5.452   5.330   8.818 -0.9151  0.3665 -0.2488
  289MOL0     C38927   5.587   5.370   8.797 -0.7072 -0.3054 -0.6568
  289MOL0     O38928   5.881   5.257   8.874 -0.3735 -0.0716 -0.2396
  289MOL0     C38929   6.065   5.378   8.596  0.1219 -0.1831  0.5492
  289MOL0     C38930   6.190   5.379   8.539  0.0113 -0.6368  0.0198
  289MOL0     N38931   6.690   4.790   8.444  0.7410  0.5511  0.0933
  289MOL0     N38932   6.809   4.777   8.466  0.2987  0.6296 -0.2673
  289MOL0     C38933   8.191   4.522   8.241 -0.1234  0.0673  0.1343
  289MOL0     C38934   8.304   4.454   8.189  0.3795 -0.7228 -0.8012
  289MOL0     C38935   8.468   4.088   7.950  0.9178  0.9531  0.2351
  289MOL0     C38936   8.455   3.947   7.934 -0.2213  1.3177  0.0207
  289MOL0     C38937   8.561   3.881   7.873  0.0835 -0.0246  0.2967
  289MOL0     C38938   8.670   3.947   7.811 -0.1268  0.4466  0.0937
  289MOL0     O38939   8.762   3.885   7.734 -0.5976  0.6006 -0.6155
  289MOL0     C38940   8.807   3.752   7.770 -0.4206  1.1039 -0.7941
  289MOL0     C38941   8.943   3.726   7.719 -0.3530  0.1002 -0.3992
  289MOL0     C38942   9.051   3.791   7.806  0.1403  0.6087  0.4255
  289MOL0     C38943   9.055   3.946   7.804  0.2903  1.0570 -0.3543
  289MOL0     C38944   9.195   3.984   7.831  0.0689  1.0170 -0.1465
  289MOL0     C38945   9.316   3.997   7.830 -0.5399 -0.6328 -0.6230
  289MOL0     C38946   8.671   4.086   7.812  0.0734  0.0638  0.3151
  289MOL0     C38947   8.578   4.158   7.886  1.0215 -0.0134 -1.2997
  289MOL0     H38948   8.170   4.378   7.888  3.6016 -4.4113  2.1213
  289MOL0     H38949   7.986   4.523   7.981 -1.5474 -1.8797  1.0770
  289MOL0     H38950   7.808   4.613   8.098 -2.2966  1.7046 -0.0140
  289MOL0     H38951   7.807   4.484   8.205 -3.0249  0.5991 -0.2482
  289MOL0     H38952   7.715   4.613   8.381  0.5325  2.6547  1.4344
  289MOL0     H38953   7.780   4.773   8.326 -1.3838  1.3397 -1.2460
  289MOL0     H38954   7.628   4.774   8.136  1.3468 -1.2820 -0.0014
  289MOL0     H38955   7.578   4.618   8.163 -0.4175  1.0621 -0.2015
  289MOL0     H38956   7.474   4.668   8.375 -2.3648  1.1942  1.8884
  289MOL0     H38957   7.525   4.843   8.368  0.2448 -0.4496 -0.3761
  289MOL0     H38958   7.409   4.874   8.167  0.0982  0.7236  1.4476
  289MOL0     H38959   7.329   4.724   8.174  0.0573 -0.6813  0.3981
  289MOL0     H38960   7.295   4.802   8.434  0.0071  0.6412  1.4399
  289MOL0     H38961   7.270   4.965   8.351 -2.7835 -0.7284 -0.9552
  289MOL0     H38962   7.107   4.851   8.201  1.3879 -4.8221 -2.6026
  289MOL0     H38963   7.121   4.713   8.300  2.2210 -0.2286  1.1305
  289MOL0     H38964   7.022   4.997   8.408 -2.1740  1.1137 -3.3682
  289MOL0     H38965   7.062   4.843   8.500  3.1819  0.3480 -1.4899
  289MOL0     H38966   6.827   4.993   8.214  0.7145 -1.8739 -1.4951
  289MOL0     H38967   6.576   4.989   8.190  2.7708  1.6180  1.5428
  289MOL0     H38968   6.472   4.874   8.275 -0.9923 -0.2309  1.4110
  289MOL0     H38969   6.448   4.994   8.464  0.7116 -2.0139 -1.4279
  289MOL0     H38970   6.399   5.103   8.338 -1.4037 -0.9971  1.2472
  289MOL0     H38971   6.616   5.221   8.352 -0.6235 -2.6776 -2.4000
  289MOL0     H38972   6.674   5.110   8.480 -1.0621  0.7116  1.8698
  289MOL0     H38973   6.608   5.315   8.579  1.3881 -1.5457  0.0486
  289MOL0     H38974   6.508   5.195   8.637 -1.8195  3.2037  1.4901
  289MOL0     H38975   6.349   5.140   8.724 -0.3663 -0.1193  0.4925
  289MOL0     H38976   6.202   5.036   8.864 -1.2594 -0.4527 -0.7242
  289MOL0     H38977   6.089   5.149   8.931 -0.4658 -0.9844  1.1221
  289MOL0     H38978   6.032   5.031   8.818 -1.3502  1.4370 -0.3997
  289MOL0     H38979   5.677   5.213   8.508 -2.0908  0.5468 -0.3124
  289MOL0     H38980   5.442   5.126   8.538  1.4340  1.5462 -1.5898
  289MOL0     H38981   5.215   5.225   8.535 -3.3032 -2.3651 -2.0012
  289MOL0     H38982   5.197   5.063   8.602  2.5052 -0.4058  0.0185
  289MOL0     H38983   5.019   5.324   8.640  0.0024  0.2965 -0.0957
  289MOL0     H38984   4.987   5.170   8.567 -1.1560 -0.2615  0.9952
  289MOL0     H38985   5.016   5.226   8.860  1.4764 -0.9758  0.1722
  289MOL0     H38986   5.031   5.057   8.803  0.1346  1.0598  1.9078
  289MOL0     H38987   4.799   5.251   8.765 -0.4939 -0.0703 -2.9447
  289MOL0     H38988   4.816   5.096   8.674  1.3172 -0.1948  0.3668
  289MOL0     H38989   4.813   5.100   8.977 -1.9845 -0.3668  0.8497
  289MOL0     H38990   4.785   4.958   8.860 -2.5875  0.1024  1.4497
  289MOL0     H38991   4.607   5.181   8.941  0.9642  1.7141 -2.9157
  289MOL0     H38992   4.584   5.098   8.779 -0.0968  0.6116 -0.9806
  289MOL0     H38993   4.535   5.007   9.066  2.2877 -0.2047  0.3559
  289MOL0     H38994   4.599   4.887   8.956 -1.5181 -1.6762  2.5880
  289MOL0     H38995   4.350   5.071   8.898 -1.9676 -0.3520  6.2269
  289MOL0     H38996   4.339   4.923   8.971 -1.5531 -1.2387 -2.1720
  289MOL0     H38997   5.400   5.374   8.902  1.0982 -1.3508  2.0521
  289MOL0     H38998   5.646   5.438   8.858  2.1586 -2.4269 -0.8263
  289MOL0     H38999   6.000   5.454   8.553  3.3120  0.4710 -3.8209
  289MOL0     H39000   6.206   5.456   8.464 -3.7733 -0.1444 -0.4829
  289MOL0     H39001   8.191   4.551   8.345  0.9166 -0.4076  0.2734
  289MOL0     H39002   8.385   4.428   8.256  1.7035  1.4266 -1.4661
  289MOL0     H39003   8.366   3.894   7.965  0.5047  0.9284  1.6056
  289MOL0     H39004   8.539   3.776   7.862  1.7337 -0.3359 -0.2562
  289MOL0     H39005   8.797   3.748   7.879 -1.4748  0.4016 -0.9024
  289MOL0     H39006   8.739   3.675   7.732 -1.9075  3.0491 -2.2842
  289MOL0     H39007   8.948   3.760   7.615 -0.8329  1.1362 -0.1036
  289MOL0     H39008   8.954   3.617   7.716  1.6247  0.2922 -2.3128
  289MOL0     H39009   9.148   3.758   7.767 -0.1551 -0.4774  0.5778
  289MOL0     H39010   9.055   3.757   7.910  2.1862 -0.3170  0.1046
  289MOL0     H39011   8.993   3.990   7.882 -0.1647 -0.7668  0.3689
  289MOL0     H39012   9.027   3.980   7.704 -1.5791 -3.4393 -1.6270
  289MOL0     H39013   9.423   3.991   7.827  0.0043  4.3700  0.0639
  289MOL0     H39014   8.749   4.136   7.756 -1.9322  1.9488 -1.0001
  289MOL0     H39015   8.594   4.265   7.876 -0.6927  0.2048 -1.9394
  290MOL0     O39016   7.432   9.385   9.264  0.2076  0.5961  0.2609
  290MOL0     C39017   7.426   9.282   9.195  0.5792 -0.2164 -0.0341
  290MOL0     O39018   7.319   9.204   9.177  0.1707  0.1870  0.0877
  290MOL0     C39019   7.195   9.247   9.219 -1.1347  0.2191 -0.7232
  290MOL0     C39020   7.116   9.153   9.286  0.1166 -0.3631  0.9082
  290MOL0     C39021   6.980   9.191   9.316 -0.7855  0.1294 -0.4248
  290MOL0     C39022   6.936   9.318   9.298 -0.3127  0.0501 -0.4120
  290MOL0     O39023   6.805   9.347   9.330 -0.2592  0.6178 -0.3067
  290MOL0     C39024   6.763   9.477   9.355 -0.9059 -0.1694 -0.2235
  290MOL0     C39025   6.622   9.456   9.414  0.0051  0.5898  0.7839
  290MOL0     C39026   6.560   9.588   9.434 -0.1177 -0.1901 -0.3814
  290MOL0     C39027   6.420   9.559   9.497 -0.6284 -0.3465  0.0906
  290MOL0     C39028   6.345   9.688   9.541  1.1617  0.1862 -0.8309
  290MOL0     C39029   6.238   9.668   9.642 -0.2514  0.5467  0.0777
  290MOL0     C39030   6.290   9.656   9.796  0.1085 -0.3971 -0.0191
  290MOL0     C39031   6.181   9.603   9.887  1.2899 -0.3384 -0.0571
  290MOL0     N39032   6.145   9.460   9.881  0.5243  0.0268 -0.4857
  290MOL0     C39033   6.047   9.404   9.793  0.0570 -0.0035 -0.2628
  290MOL0     C39034   6.048   9.267   9.795  0.1669 -0.7526 -0.1219
  290MOL0     C39035   5.978   9.155   9.721  0.0742 -0.3049  0.2376
  290MOL0     C39036   6.078   9.090   9.617  0.4053 -0.6291 -0.9512
  290MOL0     C39037   6.137   9.191   9.520  0.0715 -0.0206  0.6000
  290MOL0     C39038   6.092   9.164   9.369  0.1516  0.2353  0.1647
  290MOL0     O39039   6.132   9.265   9.288  0.0221  0.5733 -0.1037
  290MOL0     C39040   6.261   9.263   9.231  0.2639 -0.4113 -0.2358
  290MOL0     C39041   6.361   9.161   9.235 -1.2614  0.0537 -0.1273
  290MOL0     C39042   6.483   9.170   9.172 -0.8583 -0.3871 -0.4005
  290MOL0     C39043   6.590   9.063   9.191 -0.7137  0.1964  0.2314
  290MOL0     C39044   6.493   9.267   9.067 -0.1568 -1.5740 -0.5033
  290MOL0     C39045   6.615   9.285   8.974 -0.6684 -0.2886  0.1448
  290MOL0     O39046   6.635   9.405   8.908 -0.6813  0.1201 -0.1644
  290MOL0     C39047   6.757   9.432   8.850 -0.6498  0.0773  0.1968
  290MOL0     C39048   6.767   9.457   8.715 -1.1004 -0.9467  0.5546
  290MOL0     C39049   6.889   9.494   8.649 -0.1633 -0.2676 -1.0146
  290MOL0     C39050   7.009   9.496   8.719  0.0374  0.1429  0.0794
  290MOL0     O39051   7.118   9.531   8.645 -0.3402 -0.5132  0.2764
  290MOL0     C39052   7.243   9.548   8.714 -0.4141 -0.3298 -0.3679
  290MOL0     C39053   7.372   9.512   8.637 -0.4414  0.2219 -0.3349
  290MOL0     C39054   7.362   9.554   8.489 -0.2792  1.1056 -0.5912
  290MOL0     C39055   7.481   9.507   8.420  0.0886 -0.5954  1.4201
  290MOL0     C39056   7.459   9.529   8.260 -0.3873 -0.9262 -0.5829
  290MOL0     C39057   7.430   9.674   8.209 -0.8978 -0.0140 -0.8362
  290MOL0     C39058   7.428   9.669   8.058  0.6705 -0.2346 -0.7454
  290MOL0     C39059   7.439   9.813   7.998  0.5026 -0.0681  0.4041
  290MOL0    Cl39060   7.271   9.895   7.973 -0.3375 -0.2732 -0.2622
  290MOL0     C39061   7.008   9.469   8.856  0.5118 -0.7302 -0.1792
  290MOL0     C39062   6.878   9.438   8.915 -0.7093 -0.2492 -0.1434
  290MOL0     O39063   6.691   9.189   8.961 -0.4393 -0.9500 -0.4609
  290MOL0     C39064   6.408   9.377   9.069 -0.5749 -0.1215  0.2228
  290MOL0     C39065   6.291   9.374   9.150 -0.2427  0.3907 -0.6031
  290MOL0     N39066   6.141   9.235   9.888 -0.2270 -0.6643 -0.1964
  290MOL0     N39067   6.202   9.347   9.937  0.5549  0.9498  0.7768
  290MOL0     C39068   7.019   9.409   9.244 -0.3493 -0.2677  0.1493
  290MOL0     C39069   7.144   9.375   9.200  0.0131  0.6841 -0.0044
  290MOL0     C39070   7.550   9.226   9.140  0.7639 -0.2717  0.3733
  290MOL0     C39071   7.558   9.106   9.061 -0.0301  0.2903 -0.3129
  290MOL0     C39072   7.688   9.053   9.026  0.7741 -0.0138 -0.6370
  290MOL0     C39073   7.807   9.108   9.069 -0.3792  0.0279 -0.3266
  290MOL0     O39074   7.931   9.047   9.062  0.2569 -0.1068  0.4840
  290MOL0     C39075   7.979   9.063   8.926 -0.1156 -1.0245 -0.0265
  290MOL0     C39076   8.136   9.050   8.939 -0.3836  0.9345  0.2484
  290MOL0     C39077   8.192   9.143   9.040  0.5326  0.2868 -0.6371
  290MOL0     C39078   8.338   9.175   9.036 -0.1426 -0.4199 -0.2123
  290MOL0     C39079   8.429   9.058   9.044 -0.6296 -0.0346  0.0533
  290MOL0     C39080   8.515   8.980   9.064 -0.5137  0.6508 -0.7430
  290MOL0     C39081   7.801   9.229   9.137  0.0049 -0.0481  0.2577
  290MOL0     C39082   7.674   9.285   9.172  0.1350 -0.4800 -1.0452
  290MOL0     H39083   7.164   9.062   9.322  0.7700  0.2178  1.5233
  290MOL0     H39084   6.927   9.123   9.381  1.0617 -0.0549  0.9627
  290MOL0     H39085   6.823   9.521   9.435 -0.6759 -1.2890  0.2340
  290MOL0     H39086   6.765   9.543   9.268  1.1683  1.2513  0.8187
  290MOL0     H39087   6.567   9.389   9.347  0.4469 -1.2723  2.1742
  290MOL0     H39088   6.628   9.396   9.505 -0.6847  1.7313  1.5967
  290MOL0     H39089   6.615   9.653   9.502  0.6615  0.5464 -1.6661
  290MOL0     H39090   6.549   9.639   9.338 -0.4011 -0.0705 -0.2840
  290MOL0     H39091   6.354   9.503   9.431 -1.0852 -0.1187  0.3521
  290MOL0     H39092   6.441   9.491   9.581 -2.5279 -0.0132  0.8858
  290MOL0     H39093   6.408   9.767   9.584 -1.3743  0.7453  2.1980
  290MOL0     H39094   6.311   9.732   9.447  0.3419 -0.0912 -0.6674
  290MOL0     H39095   6.171   9.754   9.628 -1.8448 -0.6977 -0.1996
  290MOL0     H39096   6.181   9.577   9.622  1.4095 -0.5287  0.0546
  290MOL0     H39097   6.378   9.591   9.800  2.2028  2.2550 -0.2518
  290MOL0     H39098   6.327   9.753   9.830 -0.5833  0.5355 -1.8257
  290MOL0     H39099   6.086   9.657   9.878  1.3022 -0.1745  0.6757
  290MOL0     H39100   6.208   9.621   9.992  0.2165  1.5783 -0.0613
  290MOL0     H39101   5.974   9.461   9.737 -0.8588 -0.9395 -0.0396
  290MOL0     H39102   5.948   9.076   9.790  2.9702  0.1986  2.2629
  290MOL0     H39103   5.885   9.190   9.676 -0.0493 -1.2634 -0.2952
  290MOL0     H39104   6.026   9.007   9.570 -0.7306 -0.5621  0.1324
  290MOL0     H39105   6.155   9.042   9.678 -1.2511 -2.7648 -0.4454
  290MOL0     H39106   6.246   9.193   9.525  0.0717 -0.3673  0.7756
  290MOL0     H39107   6.103   9.292   9.546 -0.2324 -0.2724  1.1949
  290MOL0     H39108   5.983   9.170   9.380  0.2433  1.9763  0.4904
  290MOL0     H39109   6.112   9.064   9.330  2.5824  0.1158  1.5438
  290MOL0     H39110   6.329   9.077   9.297 -2.8731  0.8148  0.1360
  290MOL0     H39111   6.687   9.106   9.217  1.0635 -3.3580  0.0929
  290MOL0     H39112   6.568   8.992   9.271 -0.4411  0.0797  0.2024
  290MOL0     H39113   6.599   9.000   9.102  1.7990  0.7000  0.0499
  290MOL0     H39114   6.681   9.436   8.652  1.6795 -0.7752 -3.6890
  290MOL0     H39115   6.884   9.526   8.545 -1.3401  2.4593 -0.2210
  290MOL0     H39116   7.252   9.654   8.737  0.2321 -0.3775 -0.3854
  290MOL0     H39117   7.255   9.482   8.801  1.8670 -1.9476 -1.7938
  290MOL0     H39118   7.460   9.552   8.688  0.3499 -0.0075 -1.4785
  290MOL0     H39119   7.384   9.405   8.653 -2.8871 -0.3019 -1.4865
  290MOL0     H39120   7.349   9.662   8.492  0.2927  1.1803  2.8438
  290MOL0     H39121   7.273   9.507   8.446 -0.6519 -0.2352  1.4788
  290MOL0     H39122   7.573   9.555   8.455  0.1639 -0.6045  1.2365
  290MOL0     H39123   7.485   9.398   8.426 -2.1752 -0.7596  0.6103
  290MOL0     H39124   7.379   9.463   8.225 -0.9484 -0.7705  0.3866
  290MOL0     H39125   7.557   9.499   8.220 -0.1904 -2.0037  0.6071
  290MOL0     H39126   7.332   9.704   8.246 -1.0321  1.2836 -2.1689
  290MOL0     H39127   7.505   9.748   8.242 -2.1530  2.0740 -2.4492
  290MOL0     H39128   7.341   9.614   8.020  0.6506 -1.1805  0.5970
  290MOL0     H39129   7.526   9.624   8.042  0.8066  0.3419 -1.5818
  290MOL0     H39130   7.482   9.801   7.899 -2.0305 -1.2283 -0.6656
  290MOL0     H39131   7.511   9.867   8.060  1.6525 -2.3915  1.2235
  290MOL0     H39132   7.098   9.451   8.914  1.2419 -0.8086 -1.2979
  290MOL0     H39133   6.870   9.404   9.018 -0.6236 -0.0916 -0.0834
  290MOL0     H39134   6.431   9.467   9.013  0.5520  1.1889  2.6403
  290MOL0     H39135   6.228   9.463   9.143 -1.1723 -0.3761 -2.7400
  290MOL0     H39136   6.982   9.507   9.216 -0.9379 -0.8625 -1.2672
  290MOL0     H39137   7.214   9.451   9.168  1.5113 -0.7408 -0.2479
  290MOL0     H39138   7.469   9.047   9.038  0.9381 -1.6347  0.6211
  290MOL0     H39139   7.690   8.959   8.971  1.6340  0.1249 -0.8546
  290MOL0     H39140   7.932   8.993   8.857  1.2631 -0.6524 -1.4022
  290MOL0     H39141   7.954   9.164   8.894  1.9892 -0.0576  1.1446
  290MOL0     H39142   8.173   9.064   8.837 -0.0257 -1.5629 -0.0113
  290MOL0     H39143   8.150   8.945   8.965 -0.0587  1.6419  3.2127
  290MOL0     H39144   8.168   9.098   9.136 -1.3913 -4.1544 -2.9018
  290MOL0     H39145   8.135   9.236   9.036 -0.9519 -0.5898 -0.4619
  290MOL0     H39146   8.359   9.247   9.116  1.6727 -1.1714  0.0534
  290MOL0     H39147   8.362   9.218   8.939  0.1825  1.4821  0.6716
  290MOL0     H39148   8.591   8.908   9.085 -2.5397 -0.8684  1.9574
  290MOL0     H39149   7.886   9.275   9.186 -1.1989  0.3063  2.1224
  290MOL0     H39150   7.673   9.379   9.226 -0.0053  0.8139 -3.1931
  291MOL0     O39151   7.431   0.278   9.626  0.9462  0.8885 -1.0138
  291MOL0     C39152   7.463   0.362   9.547  0.4824 -0.7214 -0.2467
  291MOL0     O39153   7.404   0.384   9.425  0.0491  0.2536  0.3806
  291MOL0     C39154   7.269   0.351   9.413 -0.4207  0.3153 -0.0798
  291MOL0     C39155   7.169   0.387   9.508  0.3845  0.5728  0.0573
  291MOL0     C39156   7.039   0.350   9.491 -0.5769  0.0479 -0.8801
  291MOL0     C39157   6.997   0.281   9.376  0.0406 -0.3065 -0.5227
  291MOL0     O39158   6.868   0.250   9.343  0.1799 -1.0582  0.1651
  291MOL0     C39159   6.761   0.323   9.406  0.5399  0.2984  0.4970
  291MOL0     C39160   6.623   0.264   9.369 -0.7103  0.0055  0.5688
  291MOL0     C39161   6.570   0.309   9.227 -0.2177 -0.0563  0.2742
  291MOL0     C39162   6.454   0.221   9.182  0.3381 -0.3909 -0.6259
  291MOL0     C39163   6.506   0.073   9.148 -0.0438  0.3602 -0.5621
  291MOL0     C39164   6.421  -0.016   9.056 -0.1322  0.4464  0.7767
  291MOL0     C39165   6.282  -0.017   9.095 -0.0887  0.6212 -0.1790
  291MOL0     C39166   6.203  -0.118   9.002  0.5861 -0.4483 -0.6885
  291MOL0     N39167   6.064  -0.109   9.050 -0.2685 -0.7829 -0.0498
  291MOL0     C39168   6.003  -0.156   9.162 -0.2974 -0.9168  0.7754
  291MOL0     C39169   5.873  -0.117   9.149 -0.5875  0.0614  0.1764
  291MOL0     C39170   5.758  -0.147   9.230  0.2512  0.6554  0.7630
  291MOL0     C39171   5.690  -0.284   9.187 -0.0879  0.0992  0.1169
  291MOL0     C39172   5.639  -0.295   9.041  0.2243 -0.0002 -0.4224
  291MOL0     C39173   5.529  -0.199   8.994 -0.5189 -0.2815 -0.4215
  291MOL0     O39174   5.454  -0.147   9.110  0.4779 -0.0354  0.1305
  291MOL0     C39175   5.327  -0.196   9.121 -0.6298 -0.1805  0.5591
  291MOL0     C39176   5.297  -0.268   9.230  0.0410  0.6252 -0.1533
  291MOL0     C39177   5.162  -0.308   9.249  0.4150  0.5076  0.3661
  291MOL0     C39178   5.134  -0.379   9.378  0.3899 -0.8104  0.4179
  291MOL0     C39179   5.061  -0.275   9.160  0.0236  0.6165  0.9531
  291MOL0     C39180   4.918  -0.315   9.168 -0.2575 -1.0346  0.2196
  291MOL0     O39181   4.832  -0.250   9.083 -0.0414 -0.1265 -0.5083
  291MOL0     C39182   4.699  -0.276   9.098  0.1712 -0.1379 -0.3110
  291MOL0     C39183   4.640  -0.367   9.009  1.3319  0.0200  0.6364
  291MOL0     C39184   4.506  -0.410   9.022  0.1864  0.0227  0.1994
  291MOL0     C39185   4.430  -0.371   9.129  0.5521 -0.1166 -0.2154
  291MOL0     O39186   4.294  -0.404   9.143 -0.1279  0.7265 -0.1482
  291MOL0     C39187   4.248  -0.509   9.047  0.0208 -0.6345  0.0507
  291MOL0     C39188   4.164  -0.438   8.933 -0.2496  0.1723 -0.4363
  291MOL0     C39189   4.063  -0.523   8.857 -0.0026  0.4690  0.4083
  291MOL0     C39190   3.994  -0.418   8.766 -0.0224  0.2829 -0.4440
  291MOL0     C39191   3.900  -0.472   8.654 -0.2484  0.3195  0.2825
  291MOL0     C39192   3.783  -0.563   8.713  0.2742  0.0588 -0.2775
  291MOL0     C39193   3.709  -0.628   8.585 -0.8729  0.1649 -0.0769
  291MOL0     C39194   3.606  -0.728   8.633  1.1455 -0.0723  0.0346
  291MOL0    Cl39195   3.539  -0.798   8.481  0.0308 -0.1301  0.4110
  291MOL0     C39196   4.487  -0.280   9.231 -0.1635 -0.8046 -0.7838
  291MOL0     C39197   4.617  -0.226   9.200  0.1088 -0.5663 -0.6485
  291MOL0     O39198   4.884  -0.384   9.260 -0.0414 -0.1573  0.0497
  291MOL0     C39199   5.102  -0.185   9.051  0.2921  0.0146  0.0035
  291MOL0     C39200   5.228  -0.147   9.031 -0.3608  0.3519  0.5955
  291MOL0     N39201   5.859  -0.059   9.025 -0.1407  0.7863 -0.3472
  291MOL0     N39202   5.976  -0.046   8.974  0.3008 -0.5600 -0.4132
  291MOL0     C39203   7.093   0.248   9.288 -0.0786 -0.4018  0.0379
  291MOL0     C39204   7.230   0.284   9.306  0.3317  0.0647 -0.0549
  291MOL0     C39205   7.584   0.434   9.570  0.4884  0.3400  0.3581
  291MOL0     C39206   7.621   0.545   9.494  0.4964 -0.2339  1.4715
  291MOL0     C39207   7.759   0.592   9.500  0.1668  0.3243 -0.2032
  291MOL0     C39208   7.850   0.526   9.582  0.0720 -0.9256  0.1856
  291MOL0     O39209   7.989   0.546   9.586  1.0251 -0.2495 -0.1647
  291MOL0     C39210   8.036   0.664   9.521 -0.6835  0.8453 -0.5748
  291MOL0     C39211   8.160   0.723   9.582  0.1765  0.8722  0.9070
  291MOL0     C39212   8.277   0.635   9.569  0.6334 -0.1547  1.0572
  291MOL0     C39213   8.402   0.724   9.604  0.1506 -0.0747 -0.6998
  291MOL0     C39214   8.524   0.655   9.559 -0.3752  0.1645 -0.4059
  291MOL0     C39215   8.630   0.596   9.537 -0.4720  0.5372  0.2988
  291MOL0     C39216   7.800   0.422   9.663 -0.7024  0.3641 -0.6118
  291MOL0     C39217   7.665   0.394   9.670 -0.0335  0.1318 -1.1188
  291MOL0     H39218   7.191   0.435   9.603  0.6643 -1.2287  0.9483
  291MOL0     H39219   6.977   0.363   9.579 -1.2917 -1.9920 -1.0275
  291MOL0     H39220   6.757   0.309   9.514  0.4859  3.2794  0.9721
  291MOL0     H39221   6.773   0.429   9.382  2.3099  0.0671  0.2178
  291MOL0     H39222   6.635   0.155   9.376  2.5531  0.2793  0.9471
  291MOL0     H39223   6.542   0.284   9.439 -2.4733 -1.0804 -1.0543
  291MOL0     H39224   6.525   0.407   9.244 -0.0077 -0.0513  0.8385
  291MOL0     H39225   6.650   0.314   9.152 -1.4388  0.4812 -1.0143
  291MOL0     H39226   6.380   0.222   9.263  0.4824  3.1598 -0.3746
  291MOL0     H39227   6.408   0.261   9.091 -1.1954 -2.5580 -0.8841
  291MOL0     H39228   6.603   0.067   9.099  0.1605 -2.9303  0.0168
  291MOL0     H39229   6.532   0.014   9.237 -0.6226 -1.2457 -1.4254
  291MOL0     H39230   6.425   0.023   8.954 -0.2905  0.7916  0.9010
  291MOL0     H39231   6.470  -0.113   9.052  1.5248  1.2700  0.1505
  291MOL0     H39232   6.272  -0.048   9.199  3.1267 -2.1850 -0.5381
  291MOL0     H39233   6.236   0.081   9.083  0.8623  1.5419  2.8473
  291MOL0     H39234   6.235  -0.221   9.019 -3.0402 -1.1943  3.5426
  291MOL0     H39235   6.222  -0.080   8.901  1.3576 -1.4319 -0.9264
  291MOL0     H39236   6.060  -0.206   9.239 -0.1897 -0.9345  0.6835
  291MOL0     H39237   5.792  -0.146   9.334  1.2457 -1.7581  0.5363
  291MOL0     H39238   5.681  -0.069   9.221 -0.8675 -0.6111 -2.3455
  291MOL0     H39239   5.605  -0.293   9.256 -1.3084  0.6788 -1.2627
  291MOL0     H39240   5.761  -0.366   9.203  0.6205  0.9607  1.5515
  291MOL0     H39241   5.583  -0.387   9.024 -0.0013  0.0341  0.1077
  291MOL0     H39242   5.723  -0.305   8.972  1.1156  0.7893  0.5126
  291MOL0     H39243   5.471  -0.246   8.915 -2.6852 -1.9299  2.0031
  291MOL0     H39244   5.577  -0.111   8.950  0.9135  1.2392  3.6661
  291MOL0     H39245   5.383  -0.301   9.287  1.7908 -0.1180 -3.0145
  291MOL0     H39246   5.218  -0.386   9.448  0.4692 -1.4284  0.2728
  291MOL0     H39247   5.055  -0.328   9.432 -0.8695  2.8441 -4.2290
  291MOL0     H39248   5.102  -0.480   9.349  0.6023 -0.4810 -1.0140
  291MOL0     H39249   4.699  -0.408   8.928 -3.4366 -2.9772 -1.8155
  291MOL0     H39250   4.474  -0.466   8.934 -1.3502  0.3565  0.5139
  291MOL0     H39251   4.323  -0.575   9.002 -0.8687 -0.5100 -1.7203
  291MOL0     H39252   4.174  -0.569   9.101  0.4559  0.7593  2.3090
  291MOL0     H39253   4.117  -0.359   8.994  0.9728  0.2848  0.3904
  291MOL0     H39254   4.231  -0.408   8.852 -0.3324 -1.7581 -1.2546
  291MOL0     H39255   3.998  -0.567   8.933 -0.9325  4.3331  2.1029
  291MOL0     H39256   4.111  -0.587   8.782 -2.2917  0.4938 -1.2009
  291MOL0     H39257   3.928  -0.367   8.836  0.3655  0.0712  0.0817
  291MOL0     H39258   4.060  -0.346   8.716  1.6116 -1.6073 -1.1512
  291MOL0     H39259   3.963  -0.537   8.592 -1.0282 -0.7439  0.5761
  291MOL0     H39260   3.858  -0.393   8.591  0.2782 -0.3421 -0.9204
  291MOL0     H39261   3.812  -0.645   8.779 -2.9737  1.0419  2.6875
  291MOL0     H39262   3.703  -0.498   8.750 -0.0239  0.8394 -2.2117
  291MOL0     H39263   3.788  -0.680   8.529 -0.4941 -0.4787  1.0200
  291MOL0     H39264   3.662  -0.555   8.519  0.2244 -1.5211 -2.9157
  291MOL0     H39265   3.527  -0.678   8.690  1.9132  1.6265 -0.3174
  291MOL0     H39266   3.655  -0.808   8.690 -1.6418 -3.2295 -1.6672
  291MOL0     H39267   4.430  -0.237   9.313  0.9471  2.2791 -1.5037
  291MOL0     H39268   4.668  -0.149   9.257 -1.1224 -0.0845 -0.1656
  291MOL0     H39269   5.033  -0.147   8.976  0.6974 -0.4721 -0.6151
  291MOL0     H39270   5.254  -0.085   8.946 -1.7721 -0.2821 -0.3327
  291MOL0     H39271   7.058   0.195   9.200  1.2510 -0.8987 -0.2184
  291MOL0     H39272   7.300   0.246   9.232  1.1143 -3.5494  2.2811
  291MOL0     H39273   7.563   0.588   9.412  0.1662 -0.7548  1.4274
  291MOL0     H39274   7.795   0.670   9.433 -2.2562  1.1821 -0.6155
  291MOL0     H39275   8.063   0.635   9.419 -0.4449  2.4558 -0.9887
  291MOL0     H39276   7.964   0.746   9.526  2.4065  3.7101 -0.0047
  291MOL0     H39277   8.140   0.746   9.687 -2.4091 -0.4747  0.7686
  291MOL0     H39278   8.189   0.811   9.523  1.8465 -0.0234  0.3271
  291MOL0     H39279   8.297   0.598   9.468  3.2968  1.2673  0.9535
  291MOL0     H39280   8.269   0.543   9.628 -3.1730 -0.6526  0.0242
  291MOL0     H39281   8.389   0.744   9.711 -1.5865  0.5846 -1.0028
  291MOL0     H39282   8.390   0.822   9.557 -2.8148 -0.7379 -1.5162
  291MOL0     H39283   8.727   0.554   9.521 -1.2244 -1.9222  1.6425
  291MOL0     H39284   7.869   0.356   9.714 -1.5991 -0.7251 -0.7855
  291MOL0     H39285   7.627   0.310   9.727 -1.4062  1.2052 -0.3977
  292MOL0     O39286   9.348   6.155   3.067  0.3466  0.0611 -0.1580
  292MOL0     C39287   9.404   6.085   2.979 -0.0380  0.4649 -0.0793
  292MOL0     O39288   9.335   5.999   2.894  0.5166  0.4940  0.2402
  292MOL0     C39289   9.198   6.001   2.905  0.1919 -0.6241  0.0803
  292MOL0     C39290   9.121   6.094   2.833  0.4179  0.2889  0.2154
  292MOL0     C39291   8.978   6.092   2.834 -0.0501  0.6138  0.0361
  292MOL0     C39292   8.907   6.000   2.910 -0.7371 -0.3782  0.5062
  292MOL0     O39293   8.771   6.010   2.908  0.0802  0.2728  0.0345
  292MOL0     C39294   8.693   5.908   2.987 -1.3313  0.1042 -0.0849
  292MOL0     C39295   8.562   5.974   3.023  0.0838 -0.3636  1.0261
  292MOL0     C39296   8.481   5.869   3.089  0.4990  0.8126 -0.0637
  292MOL0     C39297   8.337   5.908   3.135 -0.7905  0.1648  0.2773
  292MOL0     C39298   8.273   5.784   3.201 -0.1313 -0.3694 -0.2724
  292MOL0     C39299   8.136   5.810   3.256  0.1973  0.0665 -1.0773
  292MOL0     C39300   8.041   5.879   3.158  0.3102 -0.7789  0.1569
  292MOL0     C39301   7.895   5.901   3.211 -0.0877 -0.5043  0.6325
  292MOL0     N39302   7.805   5.790   3.167 -0.9968 -0.6343  0.2350
  292MOL0     C39303   7.734   5.791   3.047  0.1056  0.1026  0.9027
  292MOL0     C39304   7.677   5.670   3.050  0.6058  0.7061  0.2348
  292MOL0     C39305   7.589   5.615   2.939  0.4387 -0.0464 -0.1175
  292MOL0     C39306   7.460   5.694   2.928 -0.1415 -0.3813  0.2488
  292MOL0     C39307   7.377   5.715   3.056  0.4023  0.0924  0.1400
  292MOL0     C39308   7.255   5.797   3.039  0.3724 -0.1999 -0.5459
  292MOL0     O39309   7.166   5.777   3.154  0.0644  0.5904  0.2685
  292MOL0     C39310   7.048   5.722   3.121 -0.1479  0.8698 -0.1560
  292MOL0     C39311   7.031   5.581   3.130 -0.5310  0.5992 -0.5738
  292MOL0     C39312   6.903   5.534   3.094  0.7912 -0.1514 -0.5908
  292MOL0     C39313   6.889   5.382   3.099 -0.2223  0.1322 -0.5614
  292MOL0     C39314   6.794   5.627   3.067 -0.1255  0.2290  0.1405
  292MOL0     C39315   6.652   5.581   3.036 -0.0976 -0.0429  0.8386
  292MOL0     O39316   6.585   5.679   2.966  0.2029 -0.2568  0.7239
  292MOL0     C39317   6.453   5.661   2.920 -0.7249  0.1725  0.0662
  292MOL0     C39318   6.335   5.666   3.006  0.0550  0.5393 -0.7585
  292MOL0     C39319   6.215   5.666   2.940  0.1975  0.2508 -0.2565
  292MOL0     C39320   6.200   5.672   2.803 -0.1830  0.0260  1.5529
  292MOL0     O39321   6.084   5.666   2.737 -0.2637  0.2878  0.2777
  292MOL0     C39322   5.968   5.723   2.796 -0.4825 -0.4934  0.3015
  292MOL0     C39323   5.872   5.738   2.677 -0.5694  0.5716 -0.0782
  292MOL0     C39324   5.718   5.765   2.703  0.3603 -0.4179 -0.9667
  292MOL0     C39325   5.636   5.733   2.583 -0.4976  0.3419 -0.3098
  292MOL0     C39326   5.628   5.573   2.564  0.6525  0.2251  0.1274
  292MOL0     C39327   5.573   5.503   2.691  0.4390  0.5589  0.1866
  292MOL0     C39328   5.521   5.357   2.670  0.1038 -0.2340  0.3212
  292MOL0     C39329   5.461   5.298   2.797  0.1247 -0.7854 -0.2397
  292MOL0    Cl39330   5.384   5.149   2.739 -0.3357  0.2215 -0.1491
  292MOL0     C39331   6.309   5.659   2.720 -0.1296  0.6058 -0.2612
  292MOL0     C39332   6.441   5.660   2.780 -0.2167 -0.2779 -0.0028
  292MOL0     O39333   6.607   5.473   3.073  0.4636  0.3819 -0.2723
  292MOL0     C39334   6.820   5.763   3.071 -0.7212 -0.3424 -0.3416
  292MOL0     C39335   6.939   5.822   3.097 -0.8658  0.4328 -0.2982
  292MOL0     N39336   7.718   5.598   3.154  0.1259 -0.0607 -0.1236
  292MOL0     N39337   7.787   5.671   3.228  0.9758 -0.4139  0.4921
  292MOL0     C39338   8.989   5.916   2.986 -0.3636  1.0009 -0.0668
  292MOL0     C39339   9.128   5.916   2.983 -0.7561  0.7798  0.1597
  292MOL0     C39340   9.548   6.076   2.972  0.1865 -0.8211 -0.4274
  292MOL0     C39341   9.618   6.019   2.864  0.3879 -0.6617  0.3466
  292MOL0     C39342   9.756   6.009   2.859  0.8229 -0.1334 -0.7679
  292MOL0     C39343   9.827   6.085   2.965 -0.7675 -0.0727  0.3616
  292MOL0     O39344   9.965   6.102   2.958  0.5130  0.5454  0.7105
  292MOL0     C39345  10.033   5.979   2.936 -0.3707 -0.0884  0.2506
  292MOL0     C39346  10.178   6.024   2.952  0.6258 -1.1371  1.3397
  292MOL0     C39347  10.263   5.913   2.891  0.6422  0.0230  0.2416
  292MOL0     C39348  10.411   5.917   2.927  0.4122  0.3213  0.0593
  292MOL0     C39349  10.436   5.893   3.073  0.8635 -0.3435  0.0909
  292MOL0     C39350  10.453   5.869   3.190  0.1416 -0.1731  0.0701
  292MOL0     C39351   9.761   6.148   3.070 -0.2540  0.5755 -0.3457
  292MOL0     C39352   9.621   6.128   3.073  0.3717 -0.1669  0.7041
  292MOL0     H39353   9.163   6.165   2.761  0.2386  1.2097  0.9933
  292MOL0     H39354   8.923   6.166   2.777  0.1016  1.6614  1.2316
  292MOL0     H39355   8.668   5.817   2.931 -4.2991  1.2470 -0.8444
  292MOL0     H39356   8.741   5.874   3.079  1.8972  1.0695 -1.2899
  292MOL0     H39357   8.583   6.058   3.089 -3.5985  0.9039  0.8028
  292MOL0     H39358   8.520   6.015   2.930  1.6212 -0.5723  0.2029
  292MOL0     H39359   8.463   5.781   3.027 -4.2524  1.3147  0.2687
  292MOL0     H39360   8.536   5.836   3.178  0.8414  0.9555 -0.2198
  292MOL0     H39361   8.342   5.982   3.215 -0.1755  0.8181 -0.3487
  292MOL0     H39362   8.285   5.951   3.049 -1.1116  1.4693  1.1014
  292MOL0     H39363   8.265   5.712   3.119 -0.8640  2.2521 -2.6698
  292MOL0     H39364   8.336   5.749   3.283  1.0113  2.8708  0.3953
  292MOL0     H39365   8.093   5.716   3.292  1.2305  0.8192  2.5530
  292MOL0     H39366   8.153   5.869   3.347  0.3048 -0.6256 -0.6371
  292MOL0     H39367   8.081   5.978   3.135 -0.1151 -0.8956 -1.1570
  292MOL0     H39368   8.038   5.820   3.066 -1.3612  1.1665 -1.1135
  292MOL0     H39369   7.858   5.993   3.165 -0.4742 -0.4914  0.9596
  292MOL0     H39370   7.903   5.912   3.320 -2.9717  0.1622  0.8506
  292MOL0     H39371   7.717   5.866   2.970 -2.9997 -0.1493  1.1934
  292MOL0     H39372   7.639   5.634   2.843 -0.7749  1.5946 -0.4880
  292MOL0     H39373   7.574   5.508   2.952  0.5192 -0.1816 -1.0311
  292MOL0     H39374   7.400   5.650   2.848  1.9915 -1.5589 -0.8094
  292MOL0     H39375   7.495   5.794   2.901 -0.4166  0.4488  2.7427
  292MOL0     H39376   7.433   5.759   3.140 -1.0990  0.3727  1.0204
  292MOL0     H39377   7.335   5.622   3.095  1.1647  0.2968  1.5271
  292MOL0     H39378   7.212   5.761   2.945 -2.2864  1.6132 -0.1372
  292MOL0     H39379   7.288   5.900   3.020  1.0596 -0.4043 -0.4844
  292MOL0     H39380   7.118   5.519   3.150 -2.5856 -1.5434  2.8395
  292MOL0     H39381   6.980   5.327   3.125 -1.5966 -3.1557 -2.1052
  292MOL0     H39382   6.814   5.364   3.176  1.2361 -1.0536  0.6372
  292MOL0     H39383   6.864   5.347   2.999  5.8906  0.2950 -2.5870
  292MOL0     H39384   6.335   5.668   3.114  0.7368  3.4484 -0.7302
  292MOL0     H39385   6.123   5.668   2.997 -1.6659 -0.7260 -3.0308
  292MOL0     H39386   5.915   5.660   2.869 -2.7078  0.3402 -0.5153
  292MOL0     H39387   5.987   5.821   2.840 -0.6908  1.0302 -2.8080
  292MOL0     H39388   5.902   5.818   2.608  0.3921 -1.7304 -2.5244
  292MOL0     H39389   5.879   5.638   2.634  1.8609  0.0231  1.4249
  292MOL0     H39390   5.703   5.872   2.721  0.5367 -0.1199 -2.4429
  292MOL0     H39391   5.683   5.704   2.787 -0.6701  0.8776 -0.4259
  292MOL0     H39392   5.538   5.778   2.602 -0.5293 -0.5734  2.0436
  292MOL0     H39393   5.678   5.760   2.486 -1.1120 -1.0825 -1.0049
  292MOL0     H39394   5.728   5.539   2.534  0.9490  1.6517 -0.5837
  292MOL0     H39395   5.554   5.547   2.488  0.0172  0.2000  0.7439
  292MOL0     H39396   5.657   5.503   2.761  2.1917  4.0366 -1.6256
  292MOL0     H39397   5.492   5.562   2.736 -0.7332  0.4689 -1.6586
  292MOL0     H39398   5.606   5.297   2.638  0.6092  1.6409 -2.1315
  292MOL0     H39399   5.446   5.359   2.591  1.5578  1.9776 -1.0938
  292MOL0     H39400   5.394   5.370   2.844  2.2655 -0.4925  2.6882
  292MOL0     H39401   5.529   5.278   2.881 -0.8295 -0.3718  0.6676
  292MOL0     H39402   6.315   5.663   2.611 -0.2350 -1.1931 -0.3565
  292MOL0     H39403   6.527   5.666   2.715 -0.5203  3.8714 -0.2680
  292MOL0     H39404   6.743   5.833   3.040 -1.0047 -0.5653 -0.1444
  292MOL0     H39405   6.947   5.930   3.087  1.5882  0.2171 -1.5521
  292MOL0     H39406   8.939   5.847   3.054  1.9158 -0.5615  0.1697
  292MOL0     H39407   9.189   5.849   3.043 -0.5611  0.4589 -0.3893
  292MOL0     H39408   9.557   5.965   2.793  0.5201 -0.3419 -0.0110
  292MOL0     H39409   9.795   5.961   2.770  0.3581 -0.5526 -0.7537
  292MOL0     H39410  10.007   5.904   3.011 -0.8729 -0.0544  0.1084
  292MOL0     H39411  10.022   5.949   2.832  1.6285  0.3520 -0.1355
  292MOL0     H39412  10.192   6.046   3.058 -2.4582 -0.0946  1.5991
  292MOL0     H39413  10.192   6.113   2.891 -1.6268 -0.8750  1.1312
  292MOL0     H39414  10.265   5.922   2.782  1.9094 -0.9230  0.1626
  292MOL0     H39415  10.216   5.819   2.920 -3.0283  1.4686 -0.5070
  292MOL0     H39416  10.460   6.010   2.895  3.0420 -0.5154  1.2922
  292MOL0     H39417  10.462   5.836   2.873  0.6450  1.0483 -0.8205
  292MOL0     H39418  10.453   5.835   3.292  0.6336 -1.8661 -0.4549
  292MOL0     H39419   9.820   6.182   3.155  1.8752 -1.3020 -0.9912
  292MOL0     H39420   9.572   6.160   3.164 -1.7488 -1.5208  0.1155
  293MOL0     O39421  11.133   9.908   1.132 -0.3849  0.2171  0.7421
  293MOL0     C39422  11.069   9.827   1.201 -0.5302  0.4270 -0.0068
  293MOL0     O39423  11.117   9.727   1.269  0.2123  0.2406 -0.9291
  293MOL0     C39424  11.249   9.698   1.288 -0.9678 -0.3564  0.0437
  293MOL0     C39425  11.275   9.563   1.290  0.3663 -0.2271  0.2383
  293MOL0     C39426  11.399   9.510   1.318  0.1635 -0.5001 -0.3536
  293MOL0     C39427  11.510   9.605   1.346 -0.7490  0.8881 -1.1358
  293MOL0     O39428  11.635   9.537   1.377  0.0519 -0.1075 -0.1319
  293MOL0     C39429  11.734   9.634   1.418 -0.0338  0.2297 -0.5522
  293MOL0     C39430  11.859   9.571   1.482 -0.2410  0.5771 -0.2260
  293MOL0     C39431  11.946   9.489   1.382 -0.7529  0.1543  0.0240
  293MOL0     C39432  12.024   9.577   1.283  0.8128 -0.5798 -0.0550
  293MOL0     C39433  12.147   9.660   1.333  0.6964 -0.0781 -0.5980
  293MOL0     C39434  12.276   9.590   1.292  0.6173 -0.3456  0.1399
  293MOL0     C39435  12.395   9.674   1.342 -0.4343  0.3144  0.1857
  293MOL0     C39436  12.521   9.617   1.289 -0.2568  0.9341  0.0671
  293MOL0     N39437  12.632   9.704   1.335  0.1796  0.0551  0.0745
  293MOL0     C39438  12.666   9.820   1.273 -0.2876  0.4664 -0.6362
  293MOL0     C39439  12.790   9.846   1.326 -0.2632  0.4054  0.6927
  293MOL0     C39440  12.864   9.977   1.283 -0.0521  0.2294  1.1452
  293MOL0     C39441  13.008   9.964   1.223 -0.3884 -0.2652 -0.1655
  293MOL0     C39442  13.070  10.098   1.188 -1.4017  0.6770  0.8335
  293MOL0     C39443  13.204  10.089   1.121 -0.5553  0.7178  0.9296
  293MOL0     O39444  13.193   9.999   1.005  0.2934  0.6669 -0.1227
  293MOL0     C39445  13.307   9.989   0.921  0.0780  1.1109  0.0295
  293MOL0     C39446  13.294   9.899   0.810  0.2078  0.2330 -0.2890
  293MOL0     C39447  13.403   9.880   0.722  0.1772 -0.5424  0.4332
  293MOL0     C39448  13.392   9.781   0.611 -0.5199 -0.4149 -0.0967
  293MOL0     C39449  13.517   9.965   0.732 -0.0004 -0.7679 -0.3865
  293MOL0     C39450  13.634   9.954   0.642 -0.3040  1.1035 -0.1974
  293MOL0     O39451  13.679   9.823   0.627  0.7954  0.2404  0.0577
  293MOL0     C39452  13.797   9.808   0.560 -0.1408 -0.1387 -0.8236
  293MOL0     C39453  13.913   9.833   0.633 -0.3037 -0.2480  0.5850
  293MOL0     C39454  14.038   9.835   0.568 -0.9553  1.4918 -0.5068
  293MOL0     C39455  14.051   9.809   0.430 -0.0255  0.0872 -0.1319
  293MOL0     O39456  14.177   9.804   0.372 -0.1771 -0.6741 -0.2876
  293MOL0     C39457  14.192   9.863   0.247 -0.3442 -0.5309  0.1473
  293MOL0     C39458  14.319   9.955   0.253  0.3443 -1.6408 -0.1834
  293MOL0     C39459  14.446   9.879   0.243 -0.2964  0.4125  0.2388
  293MOL0     C39460  14.562   9.973   0.223  0.2160  0.2032 -0.0511
  293MOL0     C39461  14.685   9.901   0.154 -0.6814 -1.1307 -0.1135
  293MOL0     C39462  14.810   9.999   0.156  1.1821  0.7069 -0.3160
  293MOL0     C39463  14.913   9.937   0.065 -0.3647  0.0006 -1.0762
  293MOL0     C39464  14.915   9.978  -0.079  0.3328  0.3213 -0.5474
  293MOL0    Cl39465  14.889  10.157  -0.101 -0.5602  0.0945  0.3973
  293MOL0     C39466  13.933   9.785   0.356 -0.1948 -0.6820  0.6184
  293MOL0     C39467  13.803   9.788   0.424  0.3929 -0.1786  0.2124
  293MOL0     O39468  13.699  10.058   0.628 -0.2913  0.9354 -0.1439
  293MOL0     C39469  13.524  10.059   0.841  0.7025 -0.1569  0.0294
  293MOL0     C39470  13.422  10.076   0.941 -0.4598  0.8019  0.2804
  293MOL0     N39471  12.836   9.741   1.398 -0.2475  0.0983  0.4043
  293MOL0     N39472  12.738   9.663   1.412  0.1351  0.3167  0.2999
  293MOL0     C39473  11.484   9.745   1.345 -1.4285 -0.6102 -0.1980
  293MOL0     C39474  11.354   9.786   1.331  0.7408  0.4701  0.6712
  293MOL0     C39475  10.917   9.845   1.211 -0.4056  0.3619  0.4891
  293MOL0     C39476  10.831   9.760   1.291 -0.4240  0.5263  0.0862
  293MOL0     C39477  10.690   9.788   1.295 -0.1514 -0.0974  0.4439
  293MOL0     C39478  10.630   9.892   1.218  0.2469  0.4564 -0.6874
  293MOL0     O39479  10.497   9.890   1.216 -0.3137  0.3252  0.1034
  293MOL0     C39480  10.434   9.983   1.130  0.5681  0.2822  0.6984
  293MOL0     C39481  10.277   9.977   1.162 -0.4635 -0.7119  0.0979
  293MOL0     C39482  10.260  10.002   1.312 -0.1805 -0.5859  0.1580
  293MOL0     C39483  10.117  10.007   1.358 -0.2185 -0.1133  0.3009
  293MOL0     C39484  10.028  10.087   1.273 -0.0737  0.0491  0.0124
  293MOL0     C39485   9.934  10.131   1.211 -0.0077  0.2218 -0.8655
  293MOL0     C39486  10.714   9.969   1.138  0.1915  0.5463 -0.0367
  293MOL0     C39487  10.857   9.949   1.143 -0.6181  0.2141  0.5915
  293MOL0     H39488  11.195   9.494   1.264  1.3138 -2.2007  2.3233
  293MOL0     H39489  11.414   9.405   1.340 -1.9167 -0.1943  3.1619
  293MOL0     H39490  11.768   9.693   1.332 -0.6302  0.7605 -0.4319
  293MOL0     H39491  11.686   9.689   1.500 -0.9048 -0.5100 -0.5514
  293MOL0     H39492  11.918   9.652   1.524  0.6966 -0.7617  1.1380
  293MOL0     H39493  11.845   9.506   1.569 -0.0711  1.1742  0.2558
  293MOL0     H39494  12.021   9.426   1.431 -0.4972 -1.2183 -2.0106
  293MOL0     H39495  11.880   9.423   1.326 -1.7270  0.2932  0.9739
  293MOL0     H39496  12.064   9.516   1.202  2.1573  1.4644 -1.0192
  293MOL0     H39497  11.955   9.653   1.244 -0.8233 -1.4230  1.0624
  293MOL0     H39498  12.146   9.767   1.314  0.0666  0.9611  4.1375
  293MOL0     H39499  12.140   9.651   1.442 -0.9815  0.0143 -0.6632
  293MOL0     H39500  12.279   9.490   1.336  2.3741  0.1220  1.1888
  293MOL0     H39501  12.272   9.581   1.184 -0.9869  0.9280  0.0484
  293MOL0     H39502  12.379   9.775   1.302 -1.0421 -0.0725 -0.5794
  293MOL0     H39503  12.401   9.673   1.451  2.8643 -2.1632  0.1387
  293MOL0     H39504  12.525   9.637   1.181  1.9253  2.2116  0.3278
  293MOL0     H39505  12.539   9.511   1.307 -1.8026  0.5145 -0.6079
  293MOL0     H39506  12.612   9.879   1.199  3.6002  1.7148 -2.7492
  293MOL0     H39507  12.801  10.020   1.205  0.3583 -0.6453  0.3029
  293MOL0     H39508  12.866  10.049   1.365 -2.0722 -0.6441  2.0033
  293MOL0     H39509  12.998   9.906   1.130 -1.1201  0.6031 -0.6490
  293MOL0     H39510  13.085   9.924   1.289  1.8781  3.3784 -0.3465
  293MOL0     H39511  13.077  10.164   1.275 -0.1793  0.2757  1.0516
  293MOL0     H39512  13.004  10.147   1.116  1.0374 -0.6775 -2.6159
  293MOL0     H39513  13.279  10.053   1.191  0.4317 -1.2068 -0.9883
  293MOL0     H39514  13.236  10.185   1.079 -1.2356  0.8219  0.6279
  293MOL0     H39515  13.207   9.835   0.795  0.0011  0.1017  1.2683
  293MOL0     H39516  13.464   9.699   0.622  2.6832  2.2174  0.0655
  293MOL0     H39517  13.290   9.743   0.604 -1.5369  1.9813  0.7079
  293MOL0     H39518  13.416   9.832   0.518  1.3063  2.6984  1.8671
  293MOL0     H39519  13.904   9.856   0.739 -1.9082  1.3571  0.1633
  293MOL0     H39520  14.123   9.863   0.628 -1.1233  2.4422 -0.7051
  293MOL0     H39521  14.205   9.791   0.166 -0.2919 -0.0418 -0.2871
  293MOL0     H39522  14.103   9.922   0.222  0.2419  0.2233 -0.2189
  293MOL0     H39523  14.313  10.027   0.171  1.8562  0.2278  1.2558
  293MOL0     H39524  14.340  10.017   0.341 -0.8791  0.6759 -1.4293
  293MOL0     H39525  14.443   9.804   0.164  0.8606  0.1812  0.4040
  293MOL0     H39526  14.457   9.819   0.334  0.4145 -2.2052 -1.4560
  293MOL0     H39527  14.532  10.048   0.148  3.0402 -2.0982 -3.8642
  293MOL0     H39528  14.600  10.013   0.317 -0.5150  0.7047  0.0417
  293MOL0     H39529  14.660   9.867   0.054 -2.6426  1.0893 -0.4656
  293MOL0     H39530  14.707   9.807   0.205 -3.6721 -2.1296 -0.5236
  293MOL0     H39531  14.777  10.101   0.131  0.2322  0.4478 -0.1596
  293MOL0     H39532  14.836   9.994   0.262  2.0809 -1.3985 -0.5925
  293MOL0     H39533  14.892   9.830   0.068 -0.8468  0.0564 -2.0920
  293MOL0     H39534  15.014   9.944   0.106 -1.2315 -1.8268  1.6564
  293MOL0     H39535  14.849   9.914  -0.138 -1.7057  0.9775  0.8851
  293MOL0     H39536  15.017   9.957  -0.114  0.0883 -1.9598 -0.0675
  293MOL0     H39537  13.945   9.751   0.254  1.7065 -0.7508  0.8234
  293MOL0     H39538  13.708   9.790   0.372  1.4271  1.6482 -1.7646
  293MOL0     H39539  13.609  10.126   0.847  0.3425  0.2226  1.2253
  293MOL0     H39540  13.437  10.153   1.016 -0.5425  2.4683 -1.3224
  293MOL0     H39541  11.557   9.824   1.364  0.3466 -2.4388  0.9851
  293MOL0     H39542  11.340   9.892   1.311  1.5595  0.3859 -0.4134
  293MOL0     H39543  10.866   9.678   1.353 -1.8121 -0.3591 -0.2366
  293MOL0     H39544  10.634   9.719   1.358  0.6183 -1.8390 -0.7186
  293MOL0     H39545  10.479  10.082   1.139 -0.7465  1.2250 -1.9476
  293MOL0     H39546  10.453   9.959   1.024  1.7373 -0.8793  1.1454
  293MOL0     H39547  10.240   9.875   1.150 -3.2633  0.2108  0.1728
  293MOL0     H39548  10.231  10.054   1.099 -0.9191  0.5660  1.8938
  293MOL0     H39549  10.299  10.103   1.330 -1.5162 -0.3753  2.1266
  293MOL0     H39550  10.325   9.935   1.369 -0.5806  1.4062  3.1967
  293MOL0     H39551  10.107  10.036   1.463 -1.6376 -0.1727  0.2014
  293MOL0     H39552  10.082   9.904   1.349 -1.0891  0.1312  0.8435
  293MOL0     H39553   9.842  10.171   1.176 -0.4573 -1.1934 -1.3755
  293MOL0     H39554  10.675  10.053   1.082  4.0489  1.8726 -1.0029
  293MOL0     H39555  10.923  10.022   1.096 -0.8017  0.6255  0.9622
  294MOL0     O39556   9.862   3.751   8.145 -0.0922 -0.1664  0.8747
  294MOL0     C39557   9.916   3.843   8.209  0.4981  0.0918 -0.6549
  294MOL0     O39558   9.855   3.940   8.276  0.0848  0.7358 -0.5124
  294MOL0     C39559   9.721   3.951   8.286 -0.1946  0.3485  0.0975
  294MOL0     C39560   9.635   3.957   8.175  0.5982  0.6941 -0.6463
  294MOL0     C39561   9.495   3.979   8.181  0.7140 -0.0863 -0.4328
  294MOL0     C39562   9.443   3.992   8.308 -0.9930  0.8339 -0.7596
  294MOL0     O39563   9.310   3.984   8.329  0.1976 -0.6496  0.0397
  294MOL0     C39564   9.214   4.047   8.237 -0.6059 -0.5617  0.1466
  294MOL0     C39565   9.177   4.190   8.272  0.0570 -0.4348 -0.0652
  294MOL0     C39566   9.027   4.216   8.247  0.0185 -0.2694 -0.3004
  294MOL0     C39567   9.001   4.352   8.311 -0.4783 -0.0882 -0.7033
  294MOL0     C39568   8.857   4.387   8.313  0.5227  0.5402  0.5659
  294MOL0     C39569   8.825   4.523   8.376 -0.3993  0.8155  0.3940
  294MOL0     C39570   8.679   4.561   8.368  0.3228 -0.5515 -0.0376
  294MOL0     C39571   8.649   4.694   8.428 -0.1765 -0.7760 -0.9838
  294MOL0     N39572   8.504   4.731   8.430  0.2412  0.2182 -0.3749
  294MOL0     C39573   8.431   4.791   8.330 -0.5378  0.8057 -0.3260
  294MOL0     C39574   8.316   4.832   8.389 -0.0388 -1.2970 -0.1019
  294MOL0     C39575   8.194   4.887   8.307  0.3501  0.8077 -1.2104
  294MOL0     C39576   8.102   4.966   8.402 -0.1568  0.0050 -0.4916
  294MOL0     C39577   7.987   5.016   8.314 -0.2417 -0.1151 -0.6447
  294MOL0     C39578   7.853   5.050   8.395 -0.2178  0.0881  0.8694
  294MOL0     O39579   7.778   5.123   8.305  0.9810 -0.3468 -0.2167
  294MOL0     C39580   7.650   5.160   8.337 -0.0471 -0.2420 -0.3967
  294MOL0     C39581   7.584   5.239   8.243  0.2941 -0.2578  0.3733
  294MOL0     C39582   7.453   5.290   8.272  0.0268  0.3875  0.5452
  294MOL0     C39583   7.383   5.374   8.179  0.7877 -0.1598 -0.2120
  294MOL0     C39584   7.399   5.269   8.403  0.1599 -0.0558  0.7190
  294MOL0     C39585   7.274   5.326   8.446 -0.1749  0.5020  0.8994
  294MOL0     O39586   7.236   5.448   8.397 -0.1643  0.1424  0.2035
  294MOL0     C39587   7.102   5.472   8.400  1.6046  0.1248  0.0566
  294MOL0     C39588   7.030   5.534   8.505 -0.7880  0.3443  1.3855
  294MOL0     C39589   6.896   5.543   8.517 -0.5857 -0.6424  0.6254
  294MOL0     C39590   6.826   5.499   8.402  0.7305 -0.6320 -0.7824
  294MOL0     O39591   6.688   5.506   8.401 -0.4771 -0.2832  0.4059
  294MOL0     C39592   6.613   5.592   8.486 -0.1779  0.2056  0.8282
  294MOL0     C39593   6.480   5.616   8.403  0.3903  0.4644 -0.8570
  294MOL0     C39594   6.406   5.728   8.478  0.3036 -0.6963  0.8587
  294MOL0     C39595   6.262   5.742   8.426  0.0841 -0.1433 -0.2209
  294MOL0     C39596   6.194   5.872   8.475 -0.1837 -0.2644 -0.2759
  294MOL0     C39597   6.044   5.867   8.467 -0.6081  0.0493  0.0835
  294MOL0     C39598   6.003   5.834   8.326 -0.3464 -1.0247  0.2998
  294MOL0     C39599   5.849   5.824   8.320 -0.6308  0.2223  0.0301
  294MOL0    Cl39600   5.772   5.955   8.401 -0.2759 -0.1718 -0.0106
  294MOL0     C39601   6.887   5.433   8.293 -0.5053 -0.5449  0.3809
  294MOL0     C39602   7.023   5.409   8.288 -0.0025 -0.4572 -0.8792
  294MOL0     O39603   7.210   5.269   8.526  0.9094  0.1028 -0.5127
  294MOL0     C39604   7.472   5.188   8.496  0.3335 -0.1164  0.4848
  294MOL0     C39605   7.595   5.138   8.462  0.1900 -0.4312 -0.9627
  294MOL0     N39606   8.315   4.805   8.520 -0.6416 -0.5870  0.2527
  294MOL0     N39607   8.422   4.735   8.540  0.0961 -1.0376 -0.9158
  294MOL0     C39608   9.522   3.989   8.426 -0.4491  0.4445  0.5151
  294MOL0     C39609   9.662   3.972   8.410  0.0646  0.1486 -0.3221
  294MOL0     C39610  10.067   3.835   8.215 -0.4918  1.0148 -0.5776
  294MOL0     C39611  10.142   3.949   8.264  0.9634 -0.0876 -0.3246
  294MOL0     C39612  10.278   3.950   8.271 -0.7479 -0.0405  0.1982
  294MOL0     C39613  10.346   3.839   8.211 -0.7423  0.2430 -0.2697
  294MOL0     O39614  10.484   3.835   8.217 -0.2796 -0.2034 -0.6691
  294MOL0     C39615  10.556   3.721   8.174 -0.3044  0.5590 -0.0847
  294MOL0     C39616  10.708   3.752   8.196  0.7323 -0.1169 -0.0228
  294MOL0     C39617  10.753   3.878   8.110  1.1036  0.0017  0.1548
  294MOL0     C39618  10.901   3.895   8.132 -0.0589 -0.5857  0.2398
  294MOL0     C39619  10.958   3.979   8.025  0.4234  0.2270  0.2634
  294MOL0     C39620  11.001   4.062   7.946  0.1745 -0.0523 -1.1613
  294MOL0     C39621  10.276   3.724   8.159 -0.6087 -0.2232 -0.6895
  294MOL0     C39622  10.138   3.716   8.161  0.0418 -0.4779 -0.5144
  294MOL0     H39623   9.673   3.936   8.076  1.7633  0.2359 -0.1152
  294MOL0     H39624   9.426   3.985   8.097  0.1503  0.3278  0.0511
  294MOL0     H39625   9.242   4.038   8.131 -1.2006 -0.0575 -0.0586
  294MOL0     H39626   9.117   3.996   8.237 -0.8155 -0.2213  2.3045
  294MOL0     H39627   9.200   4.211   8.377 -0.2794  1.7797 -0.3867
  294MOL0     H39628   9.242   4.251   8.209  1.5233 -2.9402 -1.1386
  294MOL0     H39629   9.006   4.213   8.139 -0.0573 -1.3317 -0.2686
  294MOL0     H39630   8.977   4.141   8.309  1.6749 -1.8332 -0.7475
  294MOL0     H39631   9.030   4.368   8.415 -1.6179  1.5390 -0.6007
  294MOL0     H39632   9.056   4.426   8.253  1.6874 -0.9441  0.1357
  294MOL0     H39633   8.823   4.376   8.210  1.3840 -1.0857  0.4207
  294MOL0     H39634   8.805   4.319   8.381 -1.3784 -1.3146 -2.5591
  294MOL0     H39635   8.862   4.523   8.479 -0.0670 -1.3782  0.3224
  294MOL0     H39636   8.878   4.609   8.332 -1.4378 -0.0632 -2.8395
  294MOL0     H39637   8.654   4.557   8.262 -0.0011 -4.3226  0.0506
  294MOL0     H39638   8.618   4.485   8.420  2.1855 -1.1110  1.4596
  294MOL0     H39639   8.705   4.773   8.379  0.1852 -1.1375 -1.1596
  294MOL0     H39640   8.677   4.688   8.534 -2.1947 -2.4820 -0.4690
  294MOL0     H39641   8.467   4.784   8.228 -0.2916 -0.9815 -0.1463
  294MOL0     H39642   8.219   4.960   8.230 -0.6448  1.3227 -1.0679
  294MOL0     H39643   8.147   4.803   8.256  0.4462 -1.0690  1.5453
  294MOL0     H39644   8.143   5.052   8.455  0.8050  0.6852 -2.2710
  294MOL0     H39645   8.073   4.894   8.479  0.8853 -0.4160 -0.4792
  294MOL0     H39646   7.953   4.944   8.239 -1.3632  0.8942 -1.1362
  294MOL0     H39647   8.018   5.107   8.263 -3.2175  0.1315 -2.2082
  294MOL0     H39648   7.885   5.101   8.486  1.0274  0.7749  0.0852
  294MOL0     H39649   7.803   4.960   8.433 -0.3967  0.3553  1.2710
  294MOL0     H39650   7.627   5.269   8.148  0.6204  0.9959  0.9049
  294MOL0     H39651   7.385   5.479   8.209  1.6105 -0.5439  1.1452
  294MOL0     H39652   7.432   5.365   8.081 -0.0757 -1.9094 -0.5215
  294MOL0     H39653   7.280   5.348   8.154  1.0616  1.7536 -4.2177
  294MOL0     H39654   7.087   5.572   8.589 -0.9576 -1.4543  2.3595
  294MOL0     H39655   6.848   5.570   8.610 -1.0333 -1.6395  0.7012
  294MOL0     H39656   6.606   5.548   8.586  2.0201  1.1553  1.4609
  294MOL0     H39657   6.647   5.696   8.498  2.1961 -0.5514  1.0564
  294MOL0     H39658   6.503   5.637   8.298  1.2324  3.0326 -0.2248
  294MOL0     H39659   6.425   5.521   8.404 -0.3834  0.8818  1.4456
  294MOL0     H39660   6.456   5.821   8.450  0.8456 -0.3271  2.8379
  294MOL0     H39661   6.407   5.720   8.588  0.6947  4.0257  1.3821
  294MOL0     H39662   6.263   5.730   8.318 -0.0032 -2.8647  0.0122
  294MOL0     H39663   6.207   5.654   8.461  2.2784 -2.3003 -1.8705
  294MOL0     H39664   6.241   5.958   8.427 -1.6826  1.2444  0.8730
  294MOL0     H39665   6.211   5.894   8.580 -0.5880  1.9274 -0.6179
  294MOL0     H39666   5.998   5.785   8.523 -1.9134  1.3513  0.9711
  294MOL0     H39667   6.003   5.960   8.508 -0.2722 -0.9487  2.8593
  294MOL0     H39668   6.042   5.738   8.291  1.5949  0.2572 -1.2541
  294MOL0     H39669   6.029   5.910   8.253 -1.1367 -1.1179 -0.0938
  294MOL0     H39670   5.819   5.722   8.349  1.0425 -0.7013 -1.2639
  294MOL0     H39671   5.811   5.818   8.217 -0.1758 -0.9808 -0.0872
  294MOL0     H39672   6.817   5.386   8.225 -2.1816 -1.9057  2.8751
  294MOL0     H39673   7.062   5.333   8.222 -1.0095  0.3018 -2.4092
  294MOL0     H39674   7.431   5.170   8.595  1.3878 -0.6928  0.8346
  294MOL0     H39675   7.649   5.081   8.537 -1.3838 -0.5958  0.0905
  294MOL0     H39676   9.475   3.984   8.523  1.9793 -3.0675  1.7164
  294MOL0     H39677   9.731   3.963   8.493  1.9518 -0.1974 -1.8496
  294MOL0     H39678  10.083   4.033   8.301  1.0530 -0.3931  0.5302
  294MOL0     H39679  10.337   4.032   8.309  1.5144 -0.9788 -1.0579
  294MOL0     H39680  10.532   3.635   8.237  0.7898  1.5794  1.7974
  294MOL0     H39681  10.542   3.688   8.070 -0.4781  0.5169 -0.0494
  294MOL0     H39682  10.773   3.672   8.161  1.2602 -0.4291  1.5621
  294MOL0     H39683  10.722   3.768   8.304 -0.7661 -0.3603  0.2244
  294MOL0     H39684  10.699   3.970   8.137  1.9993  0.9903 -1.2809
  294MOL0     H39685  10.730   3.856   8.006 -0.4508  2.0563 -0.0060
  294MOL0     H39686  10.952   3.798   8.122 -1.0187 -1.0916  0.1592
  294MOL0     H39687  10.921   3.948   8.225 -0.1937 -2.2121  1.2236
  294MOL0     H39688  11.035   4.135   7.876  0.8434  1.2673  0.4772
  294MOL0     H39689  10.321   3.632   8.124 -1.7675 -0.2588 -2.1806
  294MOL0     H39690  10.089   3.628   8.121  0.2758  0.0622 -2.0284
  295MOL0     O39691   5.521  11.317   6.555 -0.0235  1.0157 -0.0795
  295MOL0     C39692   5.555  11.374   6.452  0.0983  0.3568  0.4454
  295MOL0     O39693   5.465  11.411   6.349  0.3498  1.1472 -0.4399
  295MOL0     C39694   5.339  11.364   6.367  0.8958  0.7198 -0.0528
  295MOL0     C39695   5.284  11.256   6.287 -0.1876  0.3229 -0.3959
  295MOL0     C39696   5.155  11.207   6.311  0.4030 -0.3315  0.4073
  295MOL0     C39697   5.066  11.270   6.403  0.1676 -0.3802  0.5594
  295MOL0     O39698   4.937  11.215   6.422 -0.3727  0.9468 -0.2768
  295MOL0     C39699   4.866  11.272   6.534  0.0696  0.0673  0.4507
  295MOL0     C39700   4.735  11.188   6.535  0.0172 -0.0649  0.2574
  295MOL0     C39701   4.640  11.246   6.420 -0.0950  0.0886  0.1192
  295MOL0     C39702   4.522  11.153   6.392  0.5541  0.6234 -0.3178
  295MOL0     C39703   4.554  11.008   6.355  0.3199  0.5759 -0.0330
  295MOL0     C39704   4.575  10.977   6.204  0.3611 -0.7625  0.5823
  295MOL0     C39705   4.456  11.016   6.122 -0.1661  0.1867 -0.6083
  295MOL0     C39706   4.332  10.924   6.142 -0.2801 -0.2341 -0.4960
  295MOL0     N39707   4.217  10.970   6.061 -0.2111  0.1055  0.7986
  295MOL0     C39708   4.101  11.006   6.107  1.2678  0.1107  0.2749
  295MOL0     C39709   4.019  11.015   6.000  0.7585 -0.3315 -0.3067
  295MOL0     C39710   3.865  11.044   6.012  0.8258  0.5540 -0.5185
  295MOL0     C39711   3.831  11.195   5.987  0.5507  0.3049  0.5312
  295MOL0     C39712   3.690  11.248   6.004  0.1839  0.2164 -0.1880
  295MOL0     C39713   3.599  11.243   5.877 -0.5108  0.3920 -0.4684
  295MOL0     O39714   3.587  11.107   5.820 -0.2968 -0.1288 -0.3587
  295MOL0     C39715   3.478  11.083   5.745  0.2848 -0.1010  1.0301
  295MOL0     C39716   3.398  10.967   5.763  0.1456  0.5088 -0.9654
  295MOL0     C39717   3.285  10.955   5.687  0.1703 -0.1028 -0.4402
  295MOL0     C39718   3.202  10.831   5.719 -0.0877  0.3851 -0.7137
  295MOL0     C39719   3.254  11.047   5.581  0.5435  0.2105  1.1984
  295MOL0     C39720   3.144  11.029   5.480 -0.4322 -0.1710 -0.4289
  295MOL0     O39721   3.080  11.141   5.423 -1.0187 -0.0811  0.0704
  295MOL0     C39722   2.946  11.120   5.387 -0.3649  0.3260  0.9245
  295MOL0     C39723   2.852  11.159   5.477 -0.1331  0.1821  0.2490
  295MOL0     C39724   2.719  11.167   5.440 -0.5114 -0.2223  0.5316
  295MOL0     C39725   2.678  11.132   5.310  0.4340 -0.0271 -0.3335
  295MOL0     O39726   2.539  11.133   5.290 -0.0540  0.4971  0.3339
  295MOL0     C39727   2.495  11.153   5.149 -0.7603 -0.0590 -0.5413
  295MOL0     C39728   2.348  11.178   5.137  1.1752 -0.3226 -0.1006
  295MOL0     C39729   2.302  11.320   5.180 -0.6121 -0.3581 -0.0632
  295MOL0     C39730   2.142  11.329   5.205  0.1671 -0.2826 -0.7006
  295MOL0     C39731   2.106  11.480   5.212  0.3745  0.2604  0.0121
  295MOL0     C39732   1.960  11.475   5.245  0.1949  0.3376 -0.4404
  295MOL0     C39733   1.904  11.621   5.252 -0.0855 -0.2803 -0.2247
  295MOL0     C39734   1.749  11.615   5.259  0.2790 -0.6256  0.1128
  295MOL0    Cl39735   1.681  11.534   5.406  0.1888  0.2219  0.2936
  295MOL0     C39736   2.775  11.094   5.213 -0.3156  0.6442 -0.8837
  295MOL0     C39737   2.907  11.087   5.260  0.9967 -0.2321 -0.6057
  295MOL0     O39738   3.102  10.909   5.463 -0.2481  0.4393  0.1964
  295MOL0     C39739   3.327  11.165   5.573 -0.8180  0.0029 -0.3133
  295MOL0     C39740   3.436  11.183   5.651  0.0892  0.3043  0.8580
  295MOL0     N39741   4.095  10.983   5.890 -0.0689  0.0589 -0.3489
  295MOL0     N39742   4.218  10.968   5.924  0.4459 -0.9620  0.3602
  295MOL0     C39743   5.112  11.380   6.473  0.7066 -0.4707  0.4951
  295MOL0     C39744   5.245  11.427   6.456 -0.7038  0.5530  0.7732
  295MOL0     C39745   5.700  11.394   6.424 -0.7001 -1.0953 -0.2133
  295MOL0     C39746   5.732  11.482   6.326 -0.0385  0.3470  0.6312
  295MOL0     C39747   5.861  11.518   6.301  0.2751 -0.2097 -0.5164
  295MOL0     C39748   5.962  11.458   6.381  0.4221  0.3263 -0.7812
  295MOL0     O39749   6.098  11.490   6.373 -0.4211 -0.5024  1.2298
  295MOL0     C39750   6.169  11.515   6.249 -0.4881 -0.5753  0.5525
  295MOL0     C39751   6.322  11.519   6.261  0.2187  0.5876 -0.6682
  295MOL0     C39752   6.377  11.659   6.280  0.1542  0.1742  0.2695
  295MOL0     C39753   6.390  11.733   6.146 -0.6062 -0.8077 -0.1498
  295MOL0     C39754   6.407  11.878   6.166  0.4353  0.7141 -1.2044
  295MOL0     C39755   6.431  11.987   6.193 -0.3498 -0.2840 -0.2973
  295MOL0     C39756   5.933  11.363   6.488  0.3001 -0.0892  0.4148
  295MOL0     C39757   5.800  11.339   6.509  0.5444  0.2577  0.3270
  295MOL0     H39758   5.352  11.207   6.218 -1.6193 -1.2613 -0.7579
  295MOL0     H39759   5.123  11.115   6.263 -0.5973  0.4684 -0.5141
  295MOL0     H39760   4.900  11.262   6.637 -1.2762  2.9833  1.2800
  295MOL0     H39761   4.844  11.376   6.511  0.0488 -0.0379 -0.0206
  295MOL0     H39762   4.760  11.082   6.528  0.2094  0.0827 -2.2112
  295MOL0     H39763   4.670  11.187   6.623 -2.3476 -1.8781 -1.3738
  295MOL0     H39764   4.620  11.352   6.438 -0.1072  0.3449 -1.2594
  295MOL0     H39765   4.684  11.237   6.320 -2.8020 -3.1179 -0.9768
  295MOL0     H39766   4.468  11.147   6.487 -1.0146  1.0789 -1.1530
  295MOL0     H39767   4.454  11.214   6.332  0.4473  2.0167  1.1451
  295MOL0     H39768   4.636  10.961   6.411 -0.8399 -2.2517 -0.5227
  295MOL0     H39769   4.469  10.946   6.386  1.4126 -0.8053  0.3032
  295MOL0     H39770   4.665  11.024   6.164 -0.6197  0.0420 -0.7622
  295MOL0     H39771   4.589  10.869   6.196 -0.5945 -0.9478  1.2617
  295MOL0     H39772   4.419  11.117   6.142 -1.9732 -0.3146 -1.2556
  295MOL0     H39773   4.482  11.003   6.017 -3.4183 -1.9940 -1.3015
  295MOL0     H39774   4.300  10.925   6.247  2.2302 -0.0750  0.3471
  295MOL0     H39775   4.370  10.823   6.123  2.4963  1.0256 -2.0981
  295MOL0     H39776   4.071  11.007   6.211  2.5227  1.7073  0.6630
  295MOL0     H39777   3.809  10.986   5.939 -0.5163  3.2484 -1.7578
  295MOL0     H39778   3.833  11.017   6.113 -1.9934  1.4175 -1.1025
  295MOL0     H39779   3.855  11.233   5.887  0.6890  1.5714  1.0261
  295MOL0     H39780   3.906  11.239   6.053  1.9357  1.7445 -1.8829
  295MOL0     H39781   3.706  11.352   6.033 -0.9777  0.2107  0.5514
  295MOL0     H39782   3.631  11.199   6.082 -1.2999  2.2808  0.0884
  295MOL0     H39783   3.638  11.317   5.806 -0.0443  1.2478  0.6549
  295MOL0     H39784   3.501  11.278   5.910 -0.3021 -0.5610  1.2580
  295MOL0     H39785   3.415  10.903   5.849  0.2987  3.6683  1.5586
  295MOL0     H39786   3.202  10.819   5.828 -1.7236  2.1778 -0.4569
  295MOL0     H39787   3.098  10.851   5.691 -1.0646  0.7858  2.6872
  295MOL0     H39788   3.237  10.747   5.659 -1.4422 -0.5313 -0.2670
  295MOL0     H39789   2.881  11.189   5.577  0.2613  0.6721 -0.0074
  295MOL0     H39790   2.630  11.183   5.500 -2.8086 -0.0288 -2.6532
  295MOL0     H39791   2.549  11.236   5.102  0.2419 -0.1339  0.4317
  295MOL0     H39792   2.538  11.066   5.100  2.0224  0.9167 -0.0434
  295MOL0     H39793   2.328  11.171   5.030  0.3916  0.5935 -0.0251
  295MOL0     H39794   2.286  11.108   5.192 -0.4446 -0.5706 -2.1418
  295MOL0     H39795   2.332  11.391   5.103  1.3484 -0.5020  0.5183
  295MOL0     H39796   2.348  11.358   5.272 -0.6775 -2.0502  0.7224
  295MOL0     H39797   2.095  11.271   5.125 -1.9513 -0.6621  0.7633
  295MOL0     H39798   2.115  11.280   5.298  1.1491  0.0021 -0.2549
  295MOL0     H39799   2.127  11.537   5.121 -1.2572  2.7049  1.0763
  295MOL0     H39800   2.167  11.517   5.295  1.0112 -1.3761  0.3213
  295MOL0     H39801   1.918  11.414   5.164  2.9798 -1.1094 -0.9123
  295MOL0     H39802   1.938  11.434   5.344  2.2241  1.6949  0.6455
  295MOL0     H39803   1.935  11.680   5.166  0.9231  0.0927  0.3741
  295MOL0     H39804   1.939  11.677   5.340 -0.7609  0.8741 -0.6696
  295MOL0     H39805   1.723  11.560   5.168 -0.7197  0.7031 -0.4503
  295MOL0     H39806   1.702  11.714   5.254  0.2504 -0.4514  2.7847
  295MOL0     H39807   2.751  11.055   5.114 -0.0075 -5.0697  0.9126
  295MOL0     H39808   2.982  11.048   5.193 -0.8256  1.3235 -3.8213
  295MOL0     H39809   3.323  11.232   5.488  2.5632 -2.9599 -3.1723
  295MOL0     H39810   3.491  11.277   5.647 -0.5285  0.6526  0.2830
  295MOL0     H39811   5.053  11.434   6.547  1.4848  1.1811 -0.0242
  295MOL0     H39812   5.284  11.504   6.521 -0.7475 -0.5503  2.1516
  295MOL0     H39813   5.662  11.534   6.261  0.7552  0.6039 -0.0278
  295MOL0     H39814   5.897  11.593   6.231  0.0753  2.8998  2.4675
  295MOL0     H39815   6.143  11.446   6.168 -1.5211  0.5719 -0.1282
  295MOL0     H39816   6.134  11.611   6.211  1.1871 -0.5195 -0.9478
  295MOL0     H39817   6.374  11.467   6.180 -1.0041 -2.1097  0.1910
  295MOL0     H39818   6.342  11.469   6.356  0.1600  2.6339  0.4986
  295MOL0     H39819   6.478  11.650   6.321  1.7781  0.8069 -3.1976
  295MOL0     H39820   6.319  11.720   6.350  2.5256  0.2108  2.3307
  295MOL0     H39821   6.297  11.718   6.090  0.2852 -0.3458 -1.8378
  295MOL0     H39822   6.474  11.685   6.094  2.9153  4.1191  0.3067
  295MOL0     H39823   6.444  12.087   6.231 -0.5660 -0.4295  0.1719
  295MOL0     H39824   6.009  11.328   6.557 -0.0886  2.2783  2.1825
  295MOL0     H39825   5.775  11.279   6.596 -0.7869 -1.7852 -1.3801
  296MOL0     O39826   1.803   8.334   9.646 -0.1680 -0.0049 -0.1300
  296MOL0     C39827   1.863   8.422   9.705 -1.0296 -0.0420  0.1391
  296MOL0     O39828   1.934   8.408   9.817  0.4357  0.3073  0.5235
  296MOL0     C39829   1.935   8.283   9.880  0.5049 -0.0439  1.0037
  296MOL0     C39830   2.057   8.216   9.894 -0.6337 -0.4178  0.3396
  296MOL0     C39831   2.051   8.094   9.959  0.0654  0.1611 -0.4776
  296MOL0     C39832   1.931   8.029  10.002 -0.3801  0.2553 -0.3956
  296MOL0     O39833   1.939   7.898  10.042 -0.0154  0.1652 -0.4047
  296MOL0     C39834   1.821   7.816  10.022  0.7725 -0.2709  0.6411
  296MOL0     C39835   1.872   7.667  10.045 -0.6887  0.0756  0.1921
  296MOL0     C39836   1.757   7.575   9.988 -0.6680  0.6320  0.2776
  296MOL0     C39837   1.624   7.567  10.078 -0.8199  0.1248 -0.4537
  296MOL0     C39838   1.659   7.568  10.227  0.3796 -0.0663  0.0435
  296MOL0     C39839   1.538   7.547  10.317  0.4444  0.1535  0.4180
  296MOL0     C39840   1.434   7.663  10.296  0.3086  0.1330  0.0828
  296MOL0     C39841   1.320   7.623  10.202 -0.3120 -0.3080 -0.5108
  296MOL0     N39842   1.225   7.736  10.209 -0.0720  0.0252  0.6214
  296MOL0     C39843   1.143   7.756  10.315  0.4045  0.1144  0.5434
  296MOL0     C39844   1.089   7.873  10.283 -0.3568 -0.8648  0.1193
  296MOL0     C39845   0.984   7.956  10.356  0.2542  0.5690 -0.7098
  296MOL0     C39846   0.847   7.885  10.358  0.4837 -0.2101 -0.0197
  296MOL0     C39847   0.737   7.978  10.428 -0.6656 -0.0489  0.3144
  296MOL0     C39848   0.625   7.880  10.459 -0.9676  0.0235  0.3271
  296MOL0     O39849   0.518   7.959  10.503  0.3619  0.3162 -0.2703
  296MOL0     C39850   0.433   7.904  10.594  0.1970  0.4295  0.3752
  296MOL0     C39851   0.419   7.770  10.628  0.4949  0.8142 -0.2469
  296MOL0     C39852   0.313   7.717  10.705 -0.1910 -0.3324  0.0397
  296MOL0     C39853   0.307   7.572  10.745  0.3450  1.0781  0.9081
  296MOL0     C39854   0.223   7.819  10.761  0.6914 -0.1930  0.1048
  296MOL0     C39855   0.103   7.785  10.838 -0.1690  1.4460 -0.7850
  296MOL0     O39856   0.018   7.889  10.887 -0.4344  0.0951 -0.4965
  296MOL0     C39857  -0.110   7.863  10.919  0.8556 -0.2046 -0.3520
  296MOL0     C39858  -0.205   7.828  10.825  0.4835 -0.1723  0.8115
  296MOL0     C39859  -0.340   7.807  10.863 -0.0668  0.7214  0.2329
  296MOL0     C39860  -0.380   7.813  10.995 -0.5954  0.8304 -0.2967
  296MOL0     O39861  -0.510   7.795  11.040  0.2748  0.1411  1.1214
  296MOL0     C39862  -0.615   7.802  10.942  0.4047 -0.2414 -0.5575
  296MOL0     C39863  -0.662   7.657  10.912  0.1965 -0.0477 -0.8971
  296MOL0     C39864  -0.776   7.645  10.818 -0.2439  0.7438  0.5759
  296MOL0     C39865  -0.920   7.621  10.884 -0.2318 -0.7812 -0.3444
  296MOL0     C39866  -1.024   7.618  10.775 -0.2697  0.4714  0.6917
  296MOL0     C39867  -1.158   7.604  10.839  0.1647 -0.2861 -0.4109
  296MOL0     C39868  -1.275   7.623  10.738  0.5464 -0.4731 -0.1745
  296MOL0     C39869  -1.310   7.766  10.722  0.1257 -0.3307 -0.0933
  296MOL0    Cl39870  -1.416   7.811  10.585 -0.3971  0.2940 -0.0836
  296MOL0     C39871  -0.284   7.840  11.089  0.6193 -0.0771  0.2533
  296MOL0     C39872  -0.149   7.862  11.054  0.5924  0.4135  0.4396
  296MOL0     O39873   0.077   7.666  10.852 -0.3179  0.8660  0.3086
  296MOL0     C39874   0.238   7.957  10.729  0.3665  0.2277  0.0573
  296MOL0     C39875   0.339   7.993  10.639  0.6015  0.2037 -0.2846
  296MOL0     N39876   1.141   7.924  10.165  0.5041  0.3997  0.2530
  296MOL0     N39877   1.216   7.834  10.118  0.3319 -0.1442 -0.2959
  296MOL0     C39878   1.812   8.099   9.979  0.3440  0.0098 -0.3714
  296MOL0     C39879   1.810   8.227   9.929  0.5164  0.7078  0.1225
  296MOL0     C39880   1.851   8.560   9.661 -0.3942 -0.4030 -0.6041
  296MOL0     C39881   1.748   8.597   9.572  0.1804 -0.0139 -1.0591
  296MOL0     C39882   1.734   8.729   9.544 -0.2670 -0.4780  0.7170
  296MOL0     C39883   1.806   8.829   9.594 -0.3076  0.9208  0.7395
  296MOL0     O39884   1.781   8.958   9.551 -0.4741  0.3072  0.3581
  296MOL0     C39885   1.831   9.072   9.634 -0.3714  0.3161  0.1404
  296MOL0     C39886   1.720   9.159   9.695  0.5328  0.1273 -0.0898
  296MOL0     C39887   1.638   9.226   9.583 -0.3294  0.0245  0.1661
  296MOL0     C39888   1.532   9.316   9.643  0.3092  0.1838  0.2867
  296MOL0     C39889   1.601   9.440   9.676  0.7800  0.8023 -0.2870
  296MOL0     C39890   1.668   9.531   9.700  0.1316 -0.0787  0.0001
  296MOL0     C39891   1.919   8.789   9.672  0.4267  0.2660 -0.1336
  296MOL0     C39892   1.934   8.658   9.710 -0.4896 -0.0921 -0.1368
  296MOL0     H39893   2.148   8.268   9.867 -2.6803  4.2998  1.5653
  296MOL0     H39894   2.148   8.046   9.966 -0.6221 -1.3747 -1.1132
  296MOL0     H39895   1.746   7.846  10.096 -1.1110 -2.1061 -0.4122
  296MOL0     H39896   1.784   7.823   9.920 -1.1424  0.6988  1.3395
  296MOL0     H39897   1.967   7.655   9.992 -0.3229  0.5700  0.7190
  296MOL0     H39898   1.890   7.639  10.149 -0.8909  1.7390  0.7144
  296MOL0     H39899   1.742   7.611   9.885 -0.5725 -2.0304 -0.7382
  296MOL0     H39900   1.794   7.473   9.974  0.3041  1.3163 -3.3131
  296MOL0     H39901   1.561   7.654  10.057  0.4098  1.3724  0.7978
  296MOL0     H39902   1.568   7.476  10.054 -1.3452  0.6429 -1.2073
  296MOL0     H39903   1.731   7.489  10.250 -2.1833 -2.6369 -0.2494
  296MOL0     H39904   1.703   7.666  10.249  0.8737 -0.4709  0.9230
  296MOL0     H39905   1.492   7.448  10.307 -1.7589  1.1943 -0.5445
  296MOL0     H39906   1.575   7.552  10.419  0.2500  2.2222  0.4214
  296MOL0     H39907   1.400   7.683  10.398 -2.3927 -1.3728 -0.4434
  296MOL0     H39908   1.489   7.750  10.258 -0.1187  0.7723  0.9043
  296MOL0     H39909   1.269   7.530  10.227 -0.2605 -0.6161 -1.4998
  296MOL0     H39910   1.356   7.617  10.099  1.8644 -0.8885  0.2418
  296MOL0     H39911   1.116   7.695  10.401 -0.7153 -0.9673 -0.5450
  296MOL0     H39912   1.016   7.965  10.461 -1.2816  1.1582 -0.2766
  296MOL0     H39913   0.977   8.052  10.305 -0.4254 -0.3129 -2.3382
  296MOL0     H39914   0.846   7.794  10.418  1.5472 -0.3738 -0.2308
  296MOL0     H39915   0.829   7.871  10.251  2.5906  2.9478 -0.9311
  296MOL0     H39916   0.711   8.063  10.364  2.2713  0.3094 -0.5380
  296MOL0     H39917   0.779   8.017  10.521  2.3944 -0.0358 -0.9702
  296MOL0     H39918   0.657   7.824  10.548 -1.4633 -1.6615 -0.5052
  296MOL0     H39919   0.601   7.809  10.379 -1.9838  0.4729  0.2157
  296MOL0     H39920   0.492   7.698  10.594 -2.3194 -2.3460 -0.1791
  296MOL0     H39921   0.215   7.527  10.706 -0.2559  3.3358 -0.5266
  296MOL0     H39922   0.394   7.517  10.706 -1.1153  0.7124 -2.1411
  296MOL0     H39923   0.311   7.570  10.854 -4.3951  1.6542  1.2811
  296MOL0     H39924  -0.174   7.834  10.721 -0.4452  0.1310  0.5425
  296MOL0     H39925  -0.411   7.799  10.782  1.3321  0.3180 -0.9998
  296MOL0     H39926  -0.703   7.852  10.985 -0.6356 -0.8221 -1.9627
  296MOL0     H39927  -0.586   7.868  10.860  0.9334  1.2261  0.7558
  296MOL0     H39928  -0.584   7.606  10.854 -0.3120  1.0956 -2.6395
  296MOL0     H39929  -0.675   7.607  11.009 -0.3171  1.9826  0.1411
  296MOL0     H39930  -0.765   7.556  10.754  1.1287  0.9385  0.5107
  296MOL0     H39931  -0.785   7.738  10.761  0.5259  0.0668 -0.7087
  296MOL0     H39932  -0.924   7.531  10.946  4.4426  0.2307  1.8582
  296MOL0     H39933  -0.914   7.710  10.947  2.3829 -0.5065 -0.8594
  296MOL0     H39934  -1.001   7.537  10.705  1.6254 -0.0174  1.7982
  296MOL0     H39935  -1.018   7.719  10.734  0.4261  0.9330  1.8850
  296MOL0     H39936  -1.156   7.506  10.888 -1.8254 -0.4104 -0.4755
  296MOL0     H39937  -1.182   7.674  10.920 -0.0719 -0.7787 -0.0530
  296MOL0     H39938  -1.362   7.566  10.772 -1.0808  1.3202 -1.1165
  296MOL0     H39939  -1.251   7.578  10.641  4.4990 -1.6357  1.1309
  296MOL0     H39940  -1.217   7.821  10.708  1.0499 -1.6702  0.6076
  296MOL0     H39941  -1.361   7.803  10.811 -0.2799  1.0205 -0.8514
  296MOL0     H39942  -0.314   7.858  11.192  0.0172 -1.8664  0.4293
  296MOL0     H39943  -0.077   7.895  11.128  1.6337  0.0157 -0.3816
  296MOL0     H39944   0.162   8.031  10.755  0.6355  0.3951  0.3873
  296MOL0     H39945   0.357   8.094  10.603  1.2782 -0.0900 -0.7831
  296MOL0     H39946   1.714   8.053   9.995 -0.8148  2.5394  0.3555
  296MOL0     H39947   1.716   8.282   9.931  0.9331  1.4484  2.4417
  296MOL0     H39948   1.686   8.520   9.528  1.5369 -2.6062  1.2152
  296MOL0     H39949   1.659   8.755   9.469  1.2925 -1.3445 -1.2330
  296MOL0     H39950   1.889   9.037   9.719  3.2491  0.8504 -1.8863
  296MOL0     H39951   1.906   9.127   9.576 -0.9012 -0.3891 -1.2819
  296MOL0     H39952   1.771   9.240   9.748  0.3234  0.2866 -0.1296
  296MOL0     H39953   1.663   9.096   9.764 -0.2317  0.1941 -0.6519
  296MOL0     H39954   1.588   9.140   9.536  1.7049 -2.0545  1.5444
  296MOL0     H39955   1.708   9.280   9.518  0.1672  1.9272  2.1768
  296MOL0     H39956   1.492   9.268   9.733  0.1254  0.9484  0.6250
  296MOL0     H39957   1.456   9.330   9.564 -1.0632 -0.8179  1.3693
  296MOL0     H39958   1.735   9.613   9.715 -2.9093  2.6232 -0.0877
  296MOL0     H39959   1.992   8.865   9.698 -1.0299  1.2481  1.3091
  296MOL0     H39960   2.020   8.623   9.766 -0.0438 -1.3646 -1.5684
  297MOL0     O39961   3.682   0.894   4.727 -0.2466 -0.2449  0.2325
  297MOL0     C39962   3.764   0.986   4.750 -0.2535  0.0426 -0.6771
  297MOL0     O39963   3.734   1.121   4.748 -0.2512  0.3959 -0.8651
  297MOL0     C39964   3.604   1.160   4.715 -1.6306 -0.5031 -0.8759
  297MOL0     C39965   3.581   1.218   4.599 -0.1970  0.1692  0.0064
  297MOL0     C39966   3.461   1.273   4.547 -0.9205 -0.0057  0.9193
  297MOL0     C39967   3.353   1.267   4.631 -0.5842  0.2487 -0.0184
  297MOL0     O39968   3.227   1.326   4.609  0.1777  0.1806  0.0872
  297MOL0     C39969   3.203   1.388   4.484 -0.1343  0.6179 -0.5635
  297MOL0     C39970   3.049   1.400   4.485 -0.3826  0.2469 -0.1741
  297MOL0     C39971   3.002   1.494   4.600 -0.8476 -0.2755 -0.3945
  297MOL0     C39972   2.854   1.497   4.596  1.6375  0.1230  0.2359
  297MOL0     C39973   2.795   1.568   4.723 -0.7254  0.0530  0.3899
  297MOL0     C39974   2.660   1.506   4.761 -0.2350 -0.5258  0.4283
  297MOL0     C39975   2.594   1.566   4.884  0.1618  0.1538  0.0163
  297MOL0     C39976   2.479   1.482   4.922 -0.6710  0.6801 -0.0308
  297MOL0     N39977   2.366   1.483   4.828 -0.1953 -0.2230 -0.7442
  297MOL0     C39978   2.265   1.395   4.832  0.6877 -0.1251 -0.3727
  297MOL0     C39979   2.181   1.429   4.728 -0.3848 -0.0108  0.3723
  297MOL0     C39980   2.052   1.370   4.693 -0.0838  0.0316  0.1884
  297MOL0     C39981   1.946   1.454   4.750 -0.4073 -0.0087 -0.2286
  297MOL0     C39982   1.813   1.366   4.740  0.5901  0.2545  0.1188
  297MOL0     C39983   1.682   1.454   4.741 -0.1105 -0.4581  0.1903
  297MOL0     O39984   1.671   1.541   4.628 -0.8362 -0.4369  0.2898
  297MOL0     C39985   1.568   1.624   4.620  0.7930 -0.0723  0.4658
  297MOL0     C39986   1.571   1.705   4.511  0.0325  0.4974  1.0314
  297MOL0     C39987   1.461   1.790   4.486  0.6873 -0.1397 -0.5225
  297MOL0     C39988   1.485   1.871   4.355 -1.1837 -0.9430 -0.0527
  297MOL0     C39989   1.351   1.800   4.574  0.7325  0.2410  0.2742
  297MOL0     C39990   1.228   1.868   4.536 -0.2326 -0.0583  0.7735
  297MOL0     O39991   1.120   1.836   4.618 -0.3602 -0.0794  0.1867
  297MOL0     C39992   1.000   1.875   4.562  0.0501 -0.1446  0.1418
  297MOL0     C39993   0.940   1.990   4.597  0.0602  0.5583  1.1631
  297MOL0     C39994   0.807   2.030   4.565  0.5147  0.3478 -0.2866
  297MOL0     C39995   0.735   1.930   4.489 -0.5858  0.6013 -0.1410
  297MOL0     O39996   0.607   1.951   4.438 -0.3270 -0.2482 -0.0011
  297MOL0     C39997   0.543   2.087   4.446 -0.0211 -0.8930  0.4762
  297MOL0     C39998   0.410   2.096   4.366 -0.6576 -0.5092 -0.7759
  297MOL0     C39999   0.297   2.017   4.424 -0.4324  0.2628 -0.1210
  297MOL0     C40000   0.165   2.022   4.356  0.8242  0.1406 -0.2378
  297MOL0     C40001   0.109   2.166   4.329  0.9451 -0.4976  0.3910
  297MOL0     C40002   0.082   2.256   4.447 -0.4237  0.0470  0.8441
  297MOL0     C40003  -0.046   2.221   4.532  0.0238 -0.2248 -0.2666
  297MOL0     C40004  -0.072   2.321   4.637 -0.9659  0.1091 -0.4743
  297MOL0    Cl40005   0.039   2.327   4.774 -0.2940 -0.0085  0.5590
  297MOL0     C40006   0.798   1.812   4.441  0.7618 -0.4388 -0.6505
  297MOL0     C40007   0.931   1.788   4.480  0.4290 -0.2050  0.4557
  297MOL0     O40008   1.222   1.942   4.438 -0.1479  0.3642  0.3424
  297MOL0     C40009   1.368   1.731   4.698  0.1000  0.0939  0.3457
  297MOL0     C40010   1.473   1.645   4.722  0.8674  0.6254  0.1397
  297MOL0     N40011   2.232   1.543   4.664  0.0660  0.0764  0.4049
  297MOL0     N40012   2.340   1.571   4.726  0.1221 -0.2460  0.2065
  297MOL0     C40013   3.374   1.214   4.761  0.3403 -0.3722 -0.2688
  297MOL0     C40014   3.495   1.154   4.805 -1.0262 -0.4410  0.9454
  297MOL0     C40015   3.912   0.954   4.754  0.0771 -0.0566  0.1088
  297MOL0     C40016   4.015   1.053   4.763  0.5582 -0.5381  0.3374
  297MOL0     C40017   4.148   1.028   4.743  0.0830  0.0534  0.7211
  297MOL0     C40018   4.193   0.897   4.713 -0.1317  0.4501 -0.3565
  297MOL0     O40019   4.321   0.865   4.690 -0.0796  0.3465 -0.1326
  297MOL0     C40020   4.421   0.965   4.685  0.6165 -0.0599  0.6722
  297MOL0     C40021   4.554   0.891   4.672 -0.1386  0.3339  0.0385
  297MOL0     C40022   4.577   0.800   4.794  0.7452 -0.4741  0.0378
  297MOL0     C40023   4.713   0.752   4.813 -0.2439  0.5735  0.1268
  297MOL0     C40024   4.751   0.663   4.697 -0.2343 -0.4303 -0.4393
  297MOL0     C40025   4.782   0.591   4.606  0.2001 -0.3769 -0.1427
  297MOL0     C40026   4.097   0.795   4.719  0.8892 -0.1779  0.2325
  297MOL0     C40027   3.965   0.824   4.747 -0.4179 -0.2191 -0.3250
  297MOL0     H40028   3.673   1.214   4.541 -0.8546 -1.1844 -0.9976
  297MOL0     H40029   3.458   1.322   4.450 -1.6592 -1.9371 -0.0740
  297MOL0     H40030   3.264   1.476   4.463  2.7536 -1.6997 -2.6423
  297MOL0     H40031   3.224   1.317   4.404  1.1839  0.7364 -0.3337
  297MOL0     H40032   2.999   1.438   4.396 -2.0548 -0.2675  0.4953
  297MOL0     H40033   3.020   1.295   4.501  1.1463 -0.0004  1.2719
  297MOL0     H40034   3.039   1.457   4.697  0.5815  1.8424 -0.0683
  297MOL0     H40035   3.039   1.594   4.579  0.4377 -0.5232  0.5464
  297MOL0     H40036   2.813   1.553   4.511  0.3071 -2.8531 -1.2177
  297MOL0     H40037   2.817   1.396   4.579 -2.8025  1.5834 -0.0321
  297MOL0     H40038   2.862   1.548   4.807 -2.4016 -0.5662  1.6330
  297MOL0     H40039   2.787   1.676   4.712 -0.3612  0.1188  0.7538
  297MOL0     H40040   2.593   1.526   4.676  0.1017  2.1985  0.7006
  297MOL0     H40041   2.678   1.399   4.764  1.1396 -0.3101  0.2751
  297MOL0     H40042   2.662   1.557   4.969 -1.0563 -2.7365  0.7983
  297MOL0     H40043   2.559   1.669   4.871 -2.2066 -0.7757 -1.5372
  297MOL0     H40044   2.443   1.516   5.020  0.9329  0.3892  0.6809
  297MOL0     H40045   2.496   1.375   4.940 -1.4544  0.3755 -1.0118
  297MOL0     H40046   2.253   1.322   4.911 -2.1512  0.8811  0.2503
  297MOL0     H40047   2.039   1.372   4.585  1.1093  0.7818  0.0437
  297MOL0     H40048   2.039   1.268   4.731 -0.5402 -0.2066 -0.5856
  297MOL0     H40049   1.938   1.546   4.693 -0.4860 -0.4870 -0.9991
  297MOL0     H40050   1.978   1.480   4.852  1.9793  0.9674 -1.1536
  297MOL0     H40051   1.811   1.294   4.823 -0.0247 -2.2695 -1.9513
  297MOL0     H40052   1.813   1.308   4.648 -0.5984  0.5275 -0.0632
  297MOL0     H40053   1.684   1.524   4.825 -1.9711  1.7728 -1.4933
  297MOL0     H40054   1.590   1.397   4.758 -0.3556 -0.0928  0.1137
  297MOL0     H40055   1.643   1.689   4.431 -0.8569  0.6865  0.1686
  297MOL0     H40056   1.406   1.851   4.282 -2.0597 -0.7778  0.8203
  297MOL0     H40057   1.481   1.977   4.381 -1.2081 -0.9353 -0.0880
  297MOL0     H40058   1.579   1.851   4.303 -0.3796  1.1068  0.5393
  297MOL0     H40059   0.994   2.075   4.636 -0.0907  0.6745  1.1188
  297MOL0     H40060   0.770   2.126   4.599 -1.1144  0.3401 -1.9133
  297MOL0     H40061   0.531   2.119   4.550 -1.1182  1.7371 -0.3802
  297MOL0     H40062   0.605   2.160   4.394 -2.0563  1.1657  0.8129
  297MOL0     H40063   0.388   2.202   4.379  3.5087  0.5473 -1.0794
  297MOL0     H40064   0.423   2.082   4.258 -0.7035  0.3587 -0.9003
  297MOL0     H40065   0.295   2.048   4.529 -0.5562 -0.4061  0.0768
  297MOL0     H40066   0.339   1.916   4.428  1.0003  0.7840 -0.9898
  297MOL0     H40067   0.174   1.972   4.259  4.0988  1.6036 -0.8022
  297MOL0     H40068   0.081   1.975   4.409  0.9329  1.9524  1.6937
  297MOL0     H40069   0.012   2.164   4.280  0.3812 -0.7675  1.4917
  297MOL0     H40070   0.179   2.215   4.261 -0.0992  0.1762 -0.2264
  297MOL0     H40071   0.165   2.239   4.517 -0.7339 -2.2120  0.7594
  297MOL0     H40072   0.076   2.363   4.425 -1.3737  0.6259  3.5522
  297MOL0     H40073  -0.038   2.120   4.571  0.3437 -1.7013 -3.7350
  297MOL0     H40074  -0.132   2.206   4.465 -1.4112 -1.2509  1.7176
  297MOL0     H40075  -0.172   2.318   4.682 -1.2483 -1.6493 -1.1296
  297MOL0     H40076  -0.067   2.419   4.589 -1.6384  1.8058  2.5875
  297MOL0     H40077   0.748   1.737   4.381  1.4487 -1.3058 -0.1621
  297MOL0     H40078   0.972   1.692   4.449 -0.1069  0.0081 -1.0230
  297MOL0     H40079   1.288   1.740   4.771  1.0971  1.7913  1.2765
  297MOL0     H40080   1.469   1.595   4.818 -0.3788 -1.7003 -1.0333
  297MOL0     H40081   3.286   1.222   4.825  0.5700 -1.2236  0.1713
  297MOL0     H40082   3.530   1.115   4.900  0.7933  1.0590  0.9414
  297MOL0     H40083   3.985   1.156   4.780  3.3533  0.5542 -0.7252
  297MOL0     H40084   4.216   1.113   4.744  0.7546 -0.4677  1.6711
  297MOL0     H40085   4.408   1.039   4.605 -0.7120 -2.2990 -1.3463
  297MOL0     H40086   4.413   1.020   4.779 -2.5820 -3.5062  2.7112
  297MOL0     H40087   4.634   0.965   4.681  1.6855 -1.4970 -0.1994
  297MOL0     H40088   4.554   0.841   4.575 -2.5068 -0.2697  0.2943
  297MOL0     H40089   4.508   0.715   4.800 -1.4713  1.3154  2.5648
  297MOL0     H40090   4.549   0.852   4.886 -0.0384 -1.2995  0.2839
  297MOL0     H40091   4.712   0.708   4.913 -4.0732  0.0695  0.0063
  297MOL0     H40092   4.787   0.833   4.823  0.9163 -0.6503  1.9553
  297MOL0     H40093   4.808   0.516   4.534 -2.3076 -2.9795  1.4507
  297MOL0     H40094   4.135   0.694   4.704  1.6832 -0.1633  1.9086
  297MOL0     H40095   3.900   0.738   4.737  0.0337 -0.4833 -1.0656
  298MOL0     O40096  10.870  10.058   8.940 -0.3396 -0.0328  0.3484
  298MOL0     C40097  10.976  10.003   8.901 -0.3969  0.2552  0.1286
  298MOL0     O40098  10.989   9.877   8.859 -0.3912 -0.1562 -0.4112
  298MOL0     C40099  10.916   9.769   8.909 -0.6326  0.5383 -0.8426
  298MOL0     C40100  10.943   9.642   8.858  0.0822 -0.4440  0.4388
  298MOL0     C40101  10.880   9.527   8.912 -0.1757 -0.7037 -0.3581
  298MOL0     C40102  10.779   9.542   9.011  0.6340 -0.3649 -0.0467
  298MOL0     O40103  10.708   9.435   9.049  0.7397  0.1144 -0.2773
  298MOL0     C40104  10.571   9.428   9.003  0.2742  0.4330 -0.2339
  298MOL0     C40105  10.507   9.302   9.071 -0.7061  0.3754 -0.0213
  298MOL0     C40106  10.378   9.258   9.012 -0.1744 -0.1567 -0.3645
  298MOL0     C40107  10.285   9.170   9.098 -0.6053  0.1692 -0.0322
  298MOL0     C40108  10.176   9.103   9.021 -0.4967 -0.3983 -0.8002
  298MOL0     C40109  10.073   9.034   9.108 -0.1748 -0.2068 -0.6646
  298MOL0     C40110   9.985   8.952   9.022  0.2353 -0.2267 -0.4426
  298MOL0     C40111   9.932   8.827   9.098  0.3850 -0.2075  1.1638
  298MOL0     N40112   9.815   8.774   9.026  1.2849 -0.0413 -0.5084
  298MOL0     C40113   9.808   8.762   8.886  1.3243 -0.3674  0.8406
  298MOL0     C40114   9.700   8.691   8.868  1.2245  0.8759  0.4420
  298MOL0     C40115   9.630   8.648   8.740  0.4470  0.0805 -0.5679
  298MOL0     C40116   9.524   8.749   8.692 -0.3364  0.6282  0.5198
  298MOL0     C40117   9.427   8.784   8.798 -0.7713  0.1251  1.0964
  298MOL0     C40118   9.305   8.864   8.758 -0.7220 -0.6232 -0.2054
  298MOL0     O40119   9.253   8.817   8.632 -0.1408  0.1042  0.2668
  298MOL0     C40120   9.121   8.846   8.587 -0.0717 -0.1365  0.0041
  298MOL0     C40121   9.076   8.806   8.461 -0.0695  0.1405  0.2649
  298MOL0     C40122   8.949   8.847   8.407 -0.4971 -0.7158 -0.0811
  298MOL0     C40123   8.911   8.803   8.272 -0.4235  0.7319  0.4396
  298MOL0     C40124   8.861   8.912   8.491  0.2853  0.0031 -1.0796
  298MOL0     C40125   8.717   8.944   8.446 -0.6148  0.5987 -0.3040
  298MOL0     O40126   8.657   9.053   8.510  0.4918  0.3037 -0.0254
  298MOL0     C40127   8.522   9.067   8.520  0.3810  0.1959 -0.2344
  298MOL0     C40128   8.436   8.977   8.585 -0.2840  0.0473  0.7488
  298MOL0     C40129   8.305   8.982   8.580 -0.5512 -0.7133 -0.0100
  298MOL0     C40130   8.235   9.093   8.526  0.0661 -0.2873  0.1006
  298MOL0     O40131   8.093   9.115   8.534 -0.6924  0.3991  0.3427
  298MOL0     C40132   8.043   9.240   8.583  0.0405  0.2662  0.4447
  298MOL0     C40133   7.897   9.273   8.559  0.3126 -0.2075  0.2974
  298MOL0     C40134   7.834   9.192   8.447  0.0310  0.0873 -0.6737
  298MOL0     C40135   7.741   9.072   8.502  0.1964  0.1100 -0.0616
  298MOL0     C40136   7.605   9.126   8.538  0.0030 -0.0336  0.0040
  298MOL0     C40137   7.517   9.001   8.565  0.2767 -0.0707  0.4011
  298MOL0     C40138   7.376   9.052   8.603  0.3813 -0.1952 -0.3107
  298MOL0     C40139   7.391   9.117   8.743 -0.7346  0.5647  0.4228
  298MOL0    Cl40140   7.231   9.123   8.824  0.0339  0.3684  0.1327
  298MOL0     C40141   8.318   9.199   8.485 -0.1647  0.1262  0.3581
  298MOL0     C40142   8.459   9.187   8.485  0.2856 -0.0179 -0.2920
  298MOL0     O40143   8.666   8.877   8.364  0.4813  0.2498  0.2224
  298MOL0     C40144   8.911   8.956   8.616 -0.0719 -0.8016 -0.0704
  298MOL0     C40145   9.035   8.925   8.661  0.3236 -0.5668  0.1327
  298MOL0     N40146   9.638   8.656   8.989  0.0195  0.3187 -0.5119
  298MOL0     N40147   9.704   8.707   9.084  0.0337 -0.6655 -1.2507
  298MOL0     C40148  10.732   9.668   9.046  0.0982 -0.5611 -0.5418
  298MOL0     C40149  10.814   9.786   9.009  0.0899  1.1013  0.5716
  298MOL0     C40150  11.100  10.086   8.892 -0.3949 -0.0174  0.7135
  298MOL0     C40151  11.226  10.028   8.870 -0.2426  0.1506  0.1369
  298MOL0     C40152  11.347  10.098   8.851 -0.1467  0.5546  0.5454
  298MOL0     C40153  11.330  10.235   8.850  0.6223  0.5092  0.6386
  298MOL0     O40154  11.435  10.316   8.826 -0.1991  0.6405 -0.4420
  298MOL0     C40155  11.555  10.259   8.760  0.4094 -0.1527 -0.2791
  298MOL0     C40156  11.649  10.371   8.719 -0.0615 -0.1479 -0.2037
  298MOL0     C40157  11.693  10.446   8.844  0.0245  0.2376  0.1954
  298MOL0     C40158  11.806  10.535   8.823  0.3222 -0.0294  0.2444
  298MOL0     C40159  11.759  10.653   8.753 -0.2520 -0.6919 -0.5297
  298MOL0     C40160  11.729  10.767   8.708  0.0646 -0.0313 -0.1806
  298MOL0     C40161  11.217  10.300   8.884  0.3050 -0.0532  0.3336
  298MOL0     C40162  11.098  10.227   8.898 -0.3328 -0.1200  0.4478
  298MOL0     H40163  11.027   9.632   8.790  0.1256  2.4703 -0.0780
  298MOL0     H40164  10.908   9.429   8.876 -1.9818 -1.0434 -0.9722
  298MOL0     H40165  10.513   9.518   9.027 -1.5781 -0.4693 -1.0553
  298MOL0     H40166  10.564   9.415   8.895  0.0763 -0.2069 -0.1442
  298MOL0     H40167  10.575   9.217   9.078 -0.7312  0.1787 -1.6164
  298MOL0     H40168  10.497   9.333   9.175 -1.0670 -3.7852  1.3503
  298MOL0     H40169  10.316   9.347   9.000 -0.6179  0.0597  2.7532
  298MOL0     H40170  10.393   9.217   8.912  0.6586  0.2670 -0.4183
  298MOL0     H40171  10.336   9.084   9.142 -2.3386 -0.0249  1.7378
  298MOL0     H40172  10.253   9.233   9.182  2.0615  2.1450 -0.3345
  298MOL0     H40173  10.121   9.176   8.961  0.5451  0.1972 -1.0385
  298MOL0     H40174  10.225   9.029   8.958 -3.6175 -1.4277 -2.2329
  298MOL0     H40175  10.112   8.975   9.192 -0.0884  1.0163  0.1845
  298MOL0     H40176  10.012   9.114   9.150 -0.3546 -1.4328  1.6064
  298MOL0     H40177   9.908   9.017   8.979  4.8236  5.4783 -1.2013
  298MOL0     H40178  10.041   8.911   8.937  1.7952  0.6186  0.1446
  298MOL0     H40179   9.887   8.859   9.193 -0.7015  1.7387  0.0579
  298MOL0     H40180  10.007   8.748   9.101  0.7157 -0.0029 -0.6443
  298MOL0     H40181   9.855   8.803   8.798 -0.3593 -1.7119 -0.7617
  298MOL0     H40182   9.708   8.630   8.665 -1.8329 -2.0752 -2.6270
  298MOL0     H40183   9.574   8.557   8.766  0.8817  0.6773  2.8360
  298MOL0     H40184   9.473   8.704   8.606  1.0010  0.6592 -0.3349
  298MOL0     H40185   9.569   8.838   8.647 -1.6062 -0.1112 -2.4739
  298MOL0     H40186   9.493   8.842   8.863  2.9101 -0.5054 -1.7252
  298MOL0     H40187   9.388   8.690   8.839 -1.2499 -2.0274 -3.5765
  298MOL0     H40188   9.333   8.967   8.736 -1.7107 -0.2511  0.1862
  298MOL0     H40189   9.231   8.856   8.839 -0.0491  1.0619  0.6115
  298MOL0     H40190   9.147   8.764   8.389 -1.3679 -2.7819  0.5153
  298MOL0     H40191   8.861   8.706   8.275  0.1110  0.4129 -0.6072
  298MOL0     H40192   8.856   8.883   8.223 -0.8896  0.7376  0.9576
  298MOL0     H40193   8.993   8.781   8.204 -1.5159 -1.2300 -0.3047
  298MOL0     H40194   8.471   8.882   8.626 -1.2481 -0.0301  1.4203
  298MOL0     H40195   8.245   8.911   8.636 -1.0498 -0.3485 -0.0681
  298MOL0     H40196   8.070   9.243   8.689 -0.1147  0.0636  0.4905
  298MOL0     H40197   8.099   9.323   8.538 -1.0251  0.1795 -1.1547
  298MOL0     H40198   7.839   9.253   8.650 -0.1378 -0.6931 -0.0884
  298MOL0     H40199   7.885   9.381   8.542 -1.1645 -0.3237  0.4516
  298MOL0     H40200   7.916   9.136   8.400 -0.9749 -3.5058  1.4355
  298MOL0     H40201   7.787   9.253   8.370  0.9219 -0.3883 -1.6137
  298MOL0     H40202   7.736   9.004   8.416  0.7864 -1.2722  0.9594
  298MOL0     H40203   7.785   9.021   8.588  1.6886 -0.5638 -1.1718
  298MOL0     H40204   7.563   9.194   8.464 -0.7598 -1.2407 -0.7246
  298MOL0     H40205   7.620   9.173   8.636 -1.8090 -2.2300  1.4654
  298MOL0     H40206   7.518   8.935   8.478  1.0287  0.9210 -0.3580
  298MOL0     H40207   7.557   8.946   8.651 -0.0400 -0.1555  0.4971
  298MOL0     H40208   7.309   8.966   8.598 -0.6996  0.4999  1.4718
  298MOL0     H40209   7.330   9.114   8.525  1.0066 -0.3901 -0.8489
  298MOL0     H40210   7.430   9.219   8.743 -5.3849  2.6471  2.9843
  298MOL0     H40211   7.450   9.049   8.805  1.1556  3.4610  2.0543
  298MOL0     H40212   8.278   9.294   8.451 -0.1279  0.2294  0.5974
  298MOL0     H40213   8.527   9.267   8.455  1.4232  0.2134  2.6126
  298MOL0     H40214   8.842   9.013   8.677  0.4230 -2.0664  1.7624
  298MOL0     H40215   9.067   8.967   8.757  3.2669  0.2198 -1.0726
  298MOL0     H40216  10.646   9.682   9.111  0.7850  1.4687  0.0365
  298MOL0     H40217  10.794   9.881   9.056 -2.2792  2.1056 -2.1869
  298MOL0     H40218  11.227   9.921   8.857 -2.4955  0.0375  0.4769
  298MOL0     H40219  11.441  10.045   8.834 -1.5692 -2.2014  0.7350
  298MOL0     H40220  11.612  10.200   8.832  1.1828  1.0428  0.1354
  298MOL0     H40221  11.522  10.197   8.677 -2.4552 -0.3125  0.8716
  298MOL0     H40222  11.588  10.437   8.657  0.4377 -1.8344 -2.6445
  298MOL0     H40223  11.732  10.336   8.658 -0.8727 -2.3084 -0.1724
  298MOL0     H40224  11.719  10.364   8.911  2.0754  0.4444 -0.2828
  298MOL0     H40225  11.614  10.506   8.892  2.6320  3.2912  1.0400
  298MOL0     H40226  11.888  10.482   8.773 -1.1002 -0.2847 -1.9521
  298MOL0     H40227  11.830  10.568   8.924  1.2568 -0.1018  0.0538
  298MOL0     H40228  11.693  10.858   8.664 -1.4449  0.5290  2.0469
  298MOL0     H40229  11.199  10.407   8.883 -3.5382 -0.5680  0.5941
  298MOL0     H40230  11.004  10.273   8.926  0.4530  0.6320  1.9788
  299MOL0     O40231  10.322   2.723   5.489 -0.0876 -0.4940  0.1499
  299MOL0     C40232  10.346   2.787   5.590  0.0488  0.0138 -0.2872
  299MOL0     O40233  10.286   2.755   5.713 -0.3474  0.4293  0.3916
  299MOL0     C40234  10.190   2.651   5.726  0.3205 -0.3777  0.3556
  299MOL0     C40235  10.077   2.683   5.793  0.5672 -0.9744  0.2058
  299MOL0     C40236   9.964   2.591   5.796  0.1615  0.6999 -0.4011
  299MOL0     C40237   9.969   2.464   5.731 -0.4947  0.3313 -0.5373
  299MOL0     O40238   9.859   2.386   5.732 -0.3112 -0.1116 -0.1615
  299MOL0     C40239   9.859   2.255   5.691  0.9608  0.4598  0.1507
  299MOL0     C40240   9.714   2.188   5.699 -0.3911  0.2860 -0.3410
  299MOL0     C40241   9.606   2.273   5.621 -0.3345 -0.6167 -1.0150
  299MOL0     C40242   9.464   2.210   5.623 -0.4199  0.4510 -0.2263
  299MOL0     C40243   9.361   2.300   5.555  0.2168 -0.3603  0.6194
  299MOL0     C40244   9.241   2.211   5.514  0.2765 -0.1017 -0.2446
  299MOL0     C40245   9.123   2.297   5.470  0.6730 -0.1821  0.1425
  299MOL0     C40246   8.989   2.224   5.452  0.9107 -0.3934  0.0140
  299MOL0     N40247   8.875   2.315   5.414  0.0382  1.0081  0.3286
  299MOL0     C40248   8.766   2.275   5.346  0.4791  0.0291  0.4831
  299MOL0     C40249   8.687   2.384   5.346  0.7665  0.1649  0.4733
  299MOL0     C40250   8.561   2.410   5.271  0.5312 -0.6724  0.4714
  299MOL0     C40251   8.453   2.500   5.331 -1.0927 -0.0936 -0.5366
  299MOL0     C40252   8.482   2.654   5.298 -0.0434  0.3155 -0.0670
  299MOL0     C40253   8.376   2.747   5.362  0.3212 -0.0221  0.5526
  299MOL0     O40254   8.243   2.702   5.340 -0.4719 -0.0321  0.9270
  299MOL0     C40255   8.130   2.766   5.378 -0.4387  0.4132  0.0046
  299MOL0     C40256   8.131   2.887   5.446 -0.4038  0.2536  0.2566
  299MOL0     C40257   8.017   2.966   5.457  0.2471 -0.0605 -0.6414
  299MOL0     C40258   8.035   3.104   5.526  0.0975  0.3552  0.0569
  299MOL0     C40259   7.897   2.912   5.408  0.5548  0.0360  0.7022
  299MOL0     C40260   7.766   2.988   5.400  0.9491 -0.9296 -0.8777
  299MOL0     O40261   7.772   3.125   5.415 -0.1229  0.0101 -0.1909
  299MOL0     C40262   7.669   3.210   5.388 -0.8637 -0.0038  0.4151
  299MOL0     C40263   7.678   3.325   5.466 -0.1246 -0.1764  0.0533
  299MOL0     C40264   7.576   3.427   5.448 -0.1443  0.4018 -0.0198
  299MOL0     C40265   7.473   3.411   5.356  0.2643 -0.7425 -0.5243
  299MOL0     O40266   7.385   3.514   5.349  0.3878  0.0755  0.7192
  299MOL0     C40267   7.271   3.508   5.250 -0.3462  0.0659 -0.1337
  299MOL0     C40268   7.189   3.637   5.236  0.3186  0.2077 -0.0188
  299MOL0     C40269   7.283   3.750   5.179  0.0166  0.4347 -0.5059
  299MOL0     C40270   7.230   3.835   5.060 -0.5346  0.9212  0.5694
  299MOL0     C40271   7.335   3.952   5.027 -0.5498 -0.2515  0.3585
  299MOL0     C40272   7.456   3.904   4.943 -0.3430 -0.7287  0.0625
  299MOL0     C40273   7.533   4.034   4.911  0.0233  0.9366  0.1765
  299MOL0     C40274   7.668   4.004   4.849 -0.7993 -0.2361  0.6230
  299MOL0    Cl40275   7.663   3.907   4.704 -0.2404 -0.0041 -0.3039
  299MOL0     C40276   7.466   3.300   5.272 -0.2483 -0.0530  0.6119
  299MOL0     C40277   7.573   3.207   5.282  0.3113  0.2020 -0.2994
  299MOL0     O40278   7.659   2.927   5.382  0.7988 -0.4150  0.7232
  299MOL0     C40279   7.892   2.788   5.357 -0.1979  0.7553  0.7770
  299MOL0     C40280   8.007   2.714   5.342  0.0617 -0.0340 -1.2154
  299MOL0     N40281   8.754   2.493   5.404  0.1687 -0.2843  0.1065
  299MOL0     N40282   8.865   2.444   5.457 -0.0213 -0.2741  0.5119
  299MOL0     C40283  10.092   2.432   5.670 -0.9766 -1.2795 -1.0137
  299MOL0     C40284  10.202   2.526   5.663  0.8856  0.3700 -0.5626
  299MOL0     C40285  10.437   2.901   5.580 -0.1602 -0.5300 -0.7327
  299MOL0     C40286  10.463   2.967   5.691 -0.7220 -0.6130 -0.8441
  299MOL0     C40287  10.520   3.097   5.682 -0.0052  0.9632 -0.1775
  299MOL0     C40288  10.558   3.160   5.561 -0.7544  0.8209 -0.0692
  299MOL0     O40289  10.624   3.280   5.556  0.0956  0.0444 -0.3512
  299MOL0     C40290  10.668   3.337   5.678  0.2457  1.1261 -0.2013
  299MOL0     C40291  10.747   3.460   5.671 -0.1023  0.4740  0.3292
  299MOL0     C40292  10.655   3.585   5.670  1.0108  0.7754  0.3456
  299MOL0     C40293  10.736   3.712   5.653 -0.2281 -0.4943 -0.0470
  299MOL0     C40294  10.832   3.734   5.762 -0.5309 -0.7125  0.7442
  299MOL0     C40295  10.904   3.733   5.856 -0.5413  0.0847  0.0080
  299MOL0     C40296  10.528   3.086   5.450 -0.7552  0.4051 -0.5003
  299MOL0     C40297  10.474   2.961   5.455  0.2937  0.4460  0.1366
  299MOL0     H40298  10.063   2.779   5.841  2.0830 -0.1934 -0.8156
  299MOL0     H40299   9.877   2.613   5.856 -0.5857 -0.0047 -1.1989
  299MOL0     H40300   9.904   2.244   5.592  2.5183  0.8790  0.7863
  299MOL0     H40301   9.929   2.196   5.750  1.9353  2.8722  1.5277
  299MOL0     H40302   9.714   2.082   5.671 -2.1805  0.6346 -1.8720
  299MOL0     H40303   9.683   2.191   5.803 -0.7883 -3.5397 -0.2088
  299MOL0     H40304   9.598   2.377   5.654  1.5524 -0.8414  0.2919
  299MOL0     H40305   9.630   2.282   5.515 -4.0568 -1.3102 -2.0627
  299MOL0     H40306   9.469   2.114   5.570  2.3889  1.4480 -1.9680
  299MOL0     H40307   9.434   2.186   5.725 -1.2904  2.6492  0.0798
  299MOL0     H40308   9.326   2.387   5.611 -0.6557  0.2291 -0.7932
  299MOL0     H40309   9.408   2.333   5.462  0.3778  2.2752  1.5461
  299MOL0     H40310   9.272   2.151   5.428 -2.2345  0.6529 -1.7953
  299MOL0     H40311   9.213   2.150   5.601  1.4194  0.3011  0.4240
  299MOL0     H40312   9.118   2.377   5.545  1.0942  0.3915 -0.4243
  299MOL0     H40313   9.145   2.349   5.377 -0.8443  0.9256  0.3730
  299MOL0     H40314   8.953   2.187   5.548 -0.8375  1.7394  0.2696
  299MOL0     H40315   8.990   2.144   5.378 -3.3108  1.3658 -2.3418
  299MOL0     H40316   8.743   2.179   5.300 -0.6631  1.1944 -1.5185
  299MOL0     H40317   8.599   2.457   5.180  3.6576  0.3174  2.1336
  299MOL0     H40318   8.503   2.321   5.243  2.4734 -1.5619 -1.0139
  299MOL0     H40319   8.462   2.491   5.440  0.8192  0.9552 -0.5602
  299MOL0     H40320   8.354   2.472   5.293 -0.9418 -1.3812 -0.0534
  299MOL0     H40321   8.480   2.679   5.191 -0.1694  0.4444 -0.0349
  299MOL0     H40322   8.582   2.681   5.332  0.0704 -0.7702  0.4932
  299MOL0     H40323   8.378   2.844   5.311 -1.3572 -0.5712 -0.6669
  299MOL0     H40324   8.388   2.761   5.470 -2.2089 -2.6091  1.3204
  299MOL0     H40325   8.223   2.930   5.485 -0.9171  1.2856  0.3526
  299MOL0     H40326   8.045   3.193   5.464  3.1224  0.2065  0.1464
  299MOL0     H40327   7.960   3.128   5.602 -0.4899 -0.1601 -0.3581
  299MOL0     H40328   8.127   3.105   5.586  0.9881 -1.3009 -1.1853
  299MOL0     H40329   7.762   3.345   5.532  0.6262  0.7767 -1.1271
  299MOL0     H40330   7.590   3.506   5.520  0.0661  0.1160  0.2546
  299MOL0     H40331   7.322   3.490   5.155  1.0001  1.2707  0.3274
  299MOL0     H40332   7.203   3.424   5.270 -0.5927  0.4260  0.5813
  299MOL0     H40333   7.100   3.622   5.174 -2.2801 -0.0463  3.4905
  299MOL0     H40334   7.155   3.662   5.337 -0.6053  0.3238 -0.3476
  299MOL0     H40335   7.381   3.710   5.152  1.8878  4.2030 -0.0038
  299MOL0     H40336   7.292   3.817   5.265  2.6519  2.2701 -2.0746
  299MOL0     H40337   7.211   3.767   4.977 -1.6858 -2.4683  3.3362
  299MOL0     H40338   7.136   3.877   5.098 -3.1659 -2.6639 -1.3693
  299MOL0     H40339   7.376   3.992   5.120  1.1936 -1.5914  0.2358
  299MOL0     H40340   7.271   4.027   4.980 -0.6921 -0.8514 -0.4182
  299MOL0     H40341   7.507   3.828   5.004 -0.7672 -0.3430  0.9227
  299MOL0     H40342   7.425   3.849   4.854 -0.6964 -1.0837  0.4003
  299MOL0     H40343   7.546   4.086   5.006 -0.3465 -1.6147  1.7112
  299MOL0     H40344   7.471   4.093   4.843 -1.3273 -1.5295 -0.8630
  299MOL0     H40345   7.723   3.950   4.926 -0.8070 -1.1320  0.0197
  299MOL0     H40346   7.723   4.091   4.811 -1.4355 -0.1176 -0.0743
  299MOL0     H40347   7.372   3.278   5.222 -0.7161 -2.0940  2.2294
  299MOL0     H40348   7.571   3.123   5.213 -2.8639  0.7116 -0.9787
  299MOL0     H40349   7.803   2.739   5.319  0.4109  0.2446 -0.0346
  299MOL0     H40350   7.993   2.617   5.296 -0.6184  1.1693 -3.7169
  299MOL0     H40351  10.125   2.343   5.618  1.7301 -0.2267 -1.3069
  299MOL0     H40352  10.296   2.507   5.612  1.3510  0.8139  0.1032
  299MOL0     H40353  10.433   2.938   5.791 -1.8534  4.0493  0.4015
  299MOL0     H40354  10.520   3.146   5.779 -4.3575  0.3031  0.3346
  299MOL0     H40355  10.575   3.358   5.731  0.8597 -0.5010  1.6330
  299MOL0     H40356  10.725   3.260   5.732 -2.1694  0.2917  1.3262
  299MOL0     H40357  10.822   3.451   5.592 -1.0693 -0.0817 -0.5588
  299MOL0     H40358  10.795   3.458   5.769 -1.6060 -0.5989  1.0861
  299MOL0     H40359  10.610   3.589   5.770  1.0635 -1.9011  0.5350
  299MOL0     H40360  10.573   3.595   5.598  0.9967  2.7435  0.5551
  299MOL0     H40361  10.667   3.796   5.658 -2.0983 -1.9411 -0.5166
  299MOL0     H40362  10.795   3.713   5.561  0.4673  1.2357  0.3765
  299MOL0     H40363  10.969   3.753   5.939 -0.9418  0.2340  0.2939
  299MOL0     H40364  10.554   3.136   5.357 -4.2119  1.2124 -1.1698
  299MOL0     H40365  10.446   2.917   5.359 -0.7133  2.7819 -0.7341
  300MOL0     O40366  10.935   4.663  10.841 -0.5749 -0.6665  0.1307
  300MOL0     C40367  10.824   4.682  10.789 -0.2501  0.4770 -0.1874
  300MOL0     O40368  10.811   4.759  10.683  0.0059  0.3142 -0.5236
  300MOL0     C40369  10.718   4.733  10.588 -0.2043 -1.1877  0.1036
  300MOL0     C40370  10.639   4.842  10.555  0.6160 -0.0966 -0.2706
  300MOL0     C40371  10.529   4.830  10.464 -0.5897  0.7848  0.3925
  300MOL0     C40372  10.507   4.706  10.393  0.3560  0.1716  0.1512
  300MOL0     O40373  10.415   4.689  10.294  0.0466 -0.6841  0.2156
  300MOL0     C40374  10.335   4.797  10.253 -0.6647  0.8641 -0.0225
  300MOL0     C40375  10.252   4.741  10.143 -0.0291  0.3449 -0.5216
  300MOL0     C40376  10.131   4.656  10.194 -1.1278 -0.1106  0.0867
  300MOL0     C40377  10.045   4.601  10.076  0.1336  0.1476  0.0146
  300MOL0     C40378   9.962   4.477  10.124  0.0199 -0.5927 -0.7302
  300MOL0     C40379   9.869   4.404  10.023 -0.0721 -0.2453 -0.7252
  300MOL0     C40380   9.807   4.273  10.076 -0.7779 -1.1297 -0.0033
  300MOL0     C40381   9.683   4.228  10.002 -0.1296 -0.2485  0.2058
  300MOL0     N40382   9.646   4.087  10.023  0.1859 -0.8707  0.4942
  300MOL0     C40383   9.688   3.982   9.949 -0.4349  0.8542  0.0840
  300MOL0     C40384   9.615   3.881   9.984 -0.6062  0.0037 -0.4934
  300MOL0     C40385   9.630   3.737   9.920 -0.8700 -0.0624 -0.7443
  300MOL0     C40386   9.532   3.708   9.813  0.5336 -0.1832  0.1917
  300MOL0     C40387   9.382   3.728   9.844 -1.1516  0.9441 -0.5600
  300MOL0     C40388   9.342   3.649   9.973 -0.4429  0.2295  0.1350
  300MOL0     O40389   9.196   3.636   9.977  0.3711  0.2390 -0.5836
  300MOL0     C40390   9.131   3.752  10.009  0.6416 -0.2109 -0.9122
  300MOL0     C40391   9.184   3.880  10.045 -0.1847 -0.2510  0.6860
  300MOL0     C40392   9.111   3.997  10.061  0.0821  0.5495  0.0396
  300MOL0     C40393   9.187   4.127  10.077  0.0117 -0.1077 -0.0479
  300MOL0     C40394   8.968   3.983  10.051 -0.2392  0.4434 -0.7477
  300MOL0     C40395   8.877   4.098  10.077 -0.6521  0.3372  0.9160
  300MOL0     O40396   8.741   4.074  10.063  0.3247 -0.0145 -0.5530
  300MOL0     C40397   8.646   4.165  10.108  1.1005  0.1803 -0.1175
  300MOL0     C40398   8.520   4.151  10.047  0.0367  0.2036  0.3339
  300MOL0     C40399   8.404   4.207  10.111  0.4131 -0.0782  0.4326
  300MOL0     C40400   8.419   4.300  10.220 -0.2304  0.3195 -1.0794
  300MOL0     O40401   8.313   4.370  10.253  0.1023 -0.6186 -0.0827
  300MOL0     C40402   8.276   4.393  10.393 -0.3052  0.2861  0.2024
  300MOL0     C40403   8.134   4.413  10.413  0.4505 -0.0836 -0.2274
  300MOL0     C40404   8.066   4.470  10.301 -0.0529  0.2834  0.0451
  300MOL0     C40405   7.921   4.503  10.334 -0.1396 -0.1407 -0.0067
  300MOL0     C40406   7.853   4.595  10.228  0.2040 -0.3191 -0.1328
  300MOL0     C40407   7.710   4.644  10.253  0.0986 -0.2311  0.0801
  300MOL0     C40408   7.605   4.533  10.220 -0.0875  0.3030 -0.3736
  300MOL0     C40409   7.467   4.593  10.204  0.1703  0.2905 -0.7953
  300MOL0    Cl40410   7.354   4.452  10.172 -0.1547  0.1215  0.0357
  300MOL0     C40411   8.541   4.313  10.270 -0.5418  0.4511 -0.4301
  300MOL0     C40412   8.655   4.249  10.218  0.7342  0.6050  0.0978
  300MOL0     O40413   8.924   4.205  10.105  0.0126  0.7783 -0.2956
  300MOL0     C40414   8.910   3.860  10.019  0.9277 -0.0676 -0.1795
  300MOL0     C40415   8.992   3.750  10.000 -0.5169  0.6628  0.1448
  300MOL0     N40416   9.523   3.916  10.084 -0.2720  0.1098  0.1397
  300MOL0     N40417   9.547   4.045  10.110  0.2047 -0.0821 -0.1194
  300MOL0     C40418  10.592   4.606  10.412 -0.8116 -0.6346 -0.4806
  300MOL0     C40419  10.698   4.624  10.502  0.1650  0.1828 -0.9259
  300MOL0     C40420  10.715   4.592  10.837  1.0496 -0.2803 -0.6484
  300MOL0     C40421  10.750   4.463  10.893 -0.3553 -0.6478 -0.4997
  300MOL0     C40422  10.657   4.369  10.938 -0.1194  0.2844  0.3101
  300MOL0     C40423  10.519   4.399  10.934 -0.6799  0.5288 -0.9533
  300MOL0     O40424  10.435   4.304  10.999  0.6771 -0.0579 -0.3292
  300MOL0     C40425  10.295   4.335  11.035  0.2195  0.9031  0.1242
  300MOL0     C40426  10.207   4.216  11.092  0.5543 -0.4324  0.0313
  300MOL0     C40427  10.067   4.275  11.142  0.8048 -0.0379  0.0703
  300MOL0     C40428  10.088   4.334  11.287  0.3102 -0.8288  0.3921
  300MOL0     C40429   9.962   4.396  11.335 -0.0935  0.3506  1.7629
  300MOL0     C40430   9.872   4.439  11.409 -0.1228 -0.4784 -0.8043
  300MOL0     C40431  10.481   4.513  10.870 -0.0496  0.0580 -0.1099
  300MOL0     C40432  10.571   4.613  10.824  0.1931  0.3919 -0.5111
  300MOL0     H40433  10.660   4.938  10.601  1.5682 -0.5290  0.2318
  300MOL0     H40434  10.482   4.923  10.433  0.8312  1.3235 -0.1941
  300MOL0     H40435  10.273   4.842  10.332 -1.3238 -1.1800  0.6920
  300MOL0     H40436  10.409   4.867  10.212  0.9708 -2.4055 -3.1801
  300MOL0     H40437  10.223   4.823  10.077  0.0762  2.2613  1.6866
  300MOL0     H40438  10.312   4.684  10.071 -0.0331  0.6326 -0.7531
  300MOL0     H40439  10.180   4.584  10.261 -2.7001  1.7188  3.4522
  300MOL0     H40440  10.065   4.717  10.257 -1.3154  0.2959 -0.4948
  300MOL0     H40441   9.986   4.681  10.031  2.6127  0.6200 -2.7219
  300MOL0     H40442  10.109   4.563   9.996  1.6414  1.8976  0.3268
  300MOL0     H40443  10.024   4.406  10.180 -2.1936  0.2551  3.1396
  300MOL0     H40444   9.890   4.507  10.201 -1.3701 -2.6750 -1.1314
  300MOL0     H40445   9.794   4.476   9.992  0.4650  0.7278  0.1769
  300MOL0     H40446   9.917   4.377   9.929 -0.1187  0.2778 -0.8994
  300MOL0     H40447   9.886   4.197  10.068  0.7563  0.4727 -0.8537
  300MOL0     H40448   9.785   4.271  10.183  1.8580  2.1679  0.7490
  300MOL0     H40449   9.690   4.239   9.893 -0.0225  0.1123  0.2472
  300MOL0     H40450   9.603   4.293  10.041  0.5900 -0.3121  1.8637
  300MOL0     H40451   9.767   3.971   9.875  1.4617 -0.6629  2.2117
  300MOL0     H40452   9.727   3.723   9.870 -0.0754  0.2663  0.6415
  300MOL0     H40453   9.625   3.665  10.002 -1.1302  1.3034  0.4776
  300MOL0     H40454   9.543   3.603   9.787 -0.7835 -1.1046  2.9762
  300MOL0     H40455   9.560   3.764   9.723 -0.2103  0.3017  0.2502
  300MOL0     H40456   9.334   3.697   9.751 -0.1105 -0.8287 -0.5356
  300MOL0     H40457   9.359   3.835   9.855 -0.1431  1.1989 -0.8350
  300MOL0     H40458   9.370   3.699  10.067 -1.6970  0.2609  0.5011
  300MOL0     H40459   9.386   3.549   9.971  0.5000  0.6131  0.5825
  300MOL0     H40460   9.290   3.892  10.062 -0.0114 -2.2459  1.1995
  300MOL0     H40461   9.172   4.198   9.995  0.2812  0.7858  0.6523
  300MOL0     H40462   9.163   4.180  10.170  0.9409  0.6824 -0.2491
  300MOL0     H40463   9.295   4.115  10.081  0.1432  0.7829 -0.7484
  300MOL0     H40464   8.496   4.097   9.956 -1.8757  0.9446  0.3535
  300MOL0     H40465   8.301   4.191  10.081 -0.1804  1.3378  1.5850
  300MOL0     H40466   8.311   4.303  10.444  2.2027  0.5491 -0.9155
  300MOL0     H40467   8.324   4.483  10.432  3.0767 -0.9563 -0.7209
  300MOL0     H40468   8.083   4.317  10.427 -2.7662  1.5039 -0.0162
  300MOL0     H40469   8.104   4.484  10.491 -1.5101  0.8591 -1.7357
  300MOL0     H40470   8.071   4.392  10.224  3.1589 -1.3481  1.6916
  300MOL0     H40471   8.112   4.566  10.275  0.7687  0.7875  3.0053
  300MOL0     H40472   7.861   4.414  10.354 -1.3540  0.7961  0.5796
  300MOL0     H40473   7.917   4.563  10.425  1.7876  1.0234 -0.6178
  300MOL0     H40474   7.851   4.541  10.133  0.3289 -2.8152  1.2208
  300MOL0     H40475   7.908   4.689  10.218 -1.8286  1.6745  4.5070
  300MOL0     H40476   7.712   4.688  10.354  0.3837  0.6416 -0.2947
  300MOL0     H40477   7.689   4.730  10.189 -2.3333  1.7492  3.2066
  300MOL0     H40478   7.613   4.455  10.296  0.2167  1.5541  0.9366
  300MOL0     H40479   7.632   4.482  10.128  0.7826 -0.4508  0.2890
  300MOL0     H40480   7.458   4.667  10.125  0.7230 -0.7629 -1.8673
  300MOL0     H40481   7.432   4.635  10.299  2.0950  1.6842 -0.6259
  300MOL0     H40482   8.551   4.375  10.359  1.3819 -1.4222  0.7843
  300MOL0     H40483   8.755   4.250  10.261  0.9003 -1.2710 -0.1334
  300MOL0     H40484   8.806   3.833  10.005  1.8644 -3.0755 -2.3758
  300MOL0     H40485   8.938   3.658   9.981 -0.5142  0.4565  1.0664
  300MOL0     H40486  10.589   4.511  10.358  2.4351 -0.9070 -0.3674
  300MOL0     H40487  10.763   4.539  10.522 -2.3134 -1.8093 -0.8681
  300MOL0     H40488  10.853   4.431  10.883 -0.5421 -0.6084 -3.2919
  300MOL0     H40489  10.699   4.280  10.983  1.8962 -0.3258 -2.4463
  300MOL0     H40490  10.293   4.415  11.110 -3.6945  1.0271  0.1054
  300MOL0     H40491  10.235   4.375  10.953 -1.9668  1.4822  1.8903
  300MOL0     H40492  10.267   4.172  11.171  1.3118 -1.7499 -1.2305
  300MOL0     H40493  10.182   4.132  11.027  2.6287  0.7921 -2.5408
  300MOL0     H40494   9.986   4.201  11.152 -2.2451  2.9641 -0.7626
  300MOL0     H40495  10.023   4.352  11.078 -2.0605 -0.0775  1.8227
  300MOL0     H40496  10.177   4.397  11.299 -0.1542  0.2089 -1.2742
  300MOL0     H40497  10.092   4.255  11.362  2.6083  0.1480  1.3754
  300MOL0     H40498   9.790   4.484  11.460  1.0690 -0.1374  0.8940
  300MOL0     H40499  10.375   4.534  10.862  0.6624  4.2436 -1.1060
  300MOL0     H40500  10.532   4.688  10.756  1.0137  2.2090  0.9329
  301MOL0     O40501   6.605   5.334   6.720  0.3511  0.0319 -0.6498
  301MOL0     C40502   6.582   5.455   6.693 -0.1944  0.3326  0.4479
  301MOL0     O40503   6.462   5.508   6.663  0.7053 -0.0741  0.1517
  301MOL0     C40504   6.347   5.423   6.671 -0.5312  0.6549  0.5532
  301MOL0     C40505   6.309   5.355   6.790  0.0738 -0.0540  0.5104
  301MOL0     C40506   6.189   5.290   6.794  0.3650 -0.9069 -0.0076
  301MOL0     C40507   6.097   5.296   6.698 -0.4808  0.3851  0.9414
  301MOL0     O40508   5.975   5.246   6.685  0.0386  0.0397 -0.0907
  301MOL0     C40509   5.915   5.208   6.809  0.3722 -0.9228  0.0156
  301MOL0     C40510   5.863   5.332   6.883  0.5082 -0.9027 -0.3563
  301MOL0     C40511   5.795   5.290   7.011 -0.2474  0.7058 -0.2073
  301MOL0     C40512   5.667   5.365   7.009  0.1277 -0.3667  0.3954
  301MOL0     C40513   5.588   5.327   7.130 -0.0630  0.0161 -0.2726
  301MOL0     C40514   5.451   5.380   7.101  0.5576  0.0627 -0.1355
  301MOL0     C40515   5.363   5.319   7.212  0.2599  0.6681 -0.6182
  301MOL0     C40516   5.227   5.363   7.182 -0.0365  0.4444 -0.3697
  301MOL0     N40517   5.118   5.285   7.246 -0.6333 -0.1740  0.5237
  301MOL0     C40518   5.070   5.309   7.372 -0.0572 -0.3001  0.7143
  301MOL0     C40519   4.982   5.217   7.396  0.3624  0.1264 -0.5728
  301MOL0     C40520   4.898   5.186   7.518 -0.4854  0.1494  0.0681
  301MOL0     C40521   4.757   5.241   7.483  0.0018  1.1220 -1.0445
  301MOL0     C40522   4.666   5.184   7.594 -1.0666  0.2748  0.6240
  301MOL0     C40523   4.520   5.201   7.564 -0.3933  0.5627  0.1012
  301MOL0     O40524   4.453   5.084   7.615 -0.1562  0.4665 -0.0155
  301MOL0     C40525   4.319   5.079   7.615  0.3733  0.1855  0.6858
  301MOL0     C40526   4.262   4.975   7.677 -0.5919  0.5673  0.0630
  301MOL0     C40527   4.125   4.963   7.705  0.4379 -0.5708  0.3594
  301MOL0     C40528   4.071   4.842   7.777 -0.7573 -0.1244  0.3533
  301MOL0     C40529   4.039   5.077   7.657 -0.7408  0.2400 -0.7897
  301MOL0     C40530   3.892   5.077   7.658  0.4323  0.2522  0.8008
  301MOL0     O40531   3.830   5.131   7.541 -0.0363  0.2314  0.0836
  301MOL0     C40532   3.700   5.098   7.538  1.2326 -1.2839  0.0794
  301MOL0     C40533   3.600   5.196   7.578  0.3776  0.2485  0.1007
  301MOL0     C40534   3.464   5.159   7.573  0.0780  0.0033 -0.5144
  301MOL0     C40535   3.414   5.032   7.540 -0.6700 -0.4605 -0.4204
  301MOL0     O40536   3.280   5.008   7.532  0.0239  0.1642 -0.2109
  301MOL0     C40537   3.219   4.901   7.613  0.7246 -0.2366 -0.4891
  301MOL0     C40538   3.095   4.854   7.532  0.2138  0.3443  0.5568
  301MOL0     C40539   2.999   4.767   7.618  0.0284 -0.0901 -0.7709
  301MOL0     C40540   2.886   4.698   7.541 -0.1784 -1.1002 -0.8169
  301MOL0     C40541   2.778   4.640   7.643  0.1446  0.7467 -0.5336
  301MOL0     C40542   2.840   4.551   7.758 -0.3411  0.3674  0.1231
  301MOL0     C40543   2.927   4.439   7.718  0.0244  0.7588 -0.1571
  301MOL0     C40544   2.858   4.306   7.750  1.5388 -0.0339 -0.0637
  301MOL0    Cl40545   2.696   4.283   7.671  0.4734  0.4183  0.1103
  301MOL0     C40546   3.511   4.941   7.510 -0.2410 -0.5609 -0.3027
  301MOL0     C40547   3.652   4.969   7.509 -0.0711  0.4358  0.1093
  301MOL0     O40548   3.832   5.037   7.761 -0.7276 -0.0029 -0.6366
  301MOL0     C40549   4.095   5.182   7.589  0.0126 -0.4005  0.4930
  301MOL0     C40550   4.233   5.183   7.572 -0.4312 -0.7809 -0.6634
  301MOL0     N40551   4.977   5.135   7.285  0.4909  0.3220  0.2188
  301MOL0     N40552   5.064   5.173   7.196 -0.1935 -0.5509  0.2876
  301MOL0     C40553   6.127   5.368   6.579 -0.2882 -0.0023 -0.1745
  301MOL0     C40554   6.259   5.425   6.567 -0.0943 -0.3070  0.0607
  301MOL0     C40555   6.694   5.551   6.657  0.0791  0.5901 -0.0384
  301MOL0     C40556   6.825   5.503   6.633  0.2121  0.6522 -0.2627
  301MOL0     C40557   6.937   5.587   6.632 -0.0036 -1.1257  0.6106
  301MOL0     C40558   6.922   5.722   6.639  0.6634 -0.4005 -0.2548
  301MOL0     O40559   7.028   5.809   6.634 -0.1556  0.2748 -0.5864
  301MOL0     C40560   7.143   5.784   6.726 -0.0903  0.1144  0.4073
  301MOL0     C40561   7.267   5.842   6.663 -0.4732  0.5382 -0.0703
  301MOL0     C40562   7.306   5.792   6.526 -0.6097  0.6626 -0.4176
  301MOL0     C40563   7.457   5.821   6.502  0.4899  0.4910 -0.4652
  301MOL0     C40564   7.486   5.962   6.491 -0.2366  0.3207  0.3604
  301MOL0     C40565   7.529   6.076   6.509  0.2234  0.6377 -0.7640
  301MOL0     C40566   6.793   5.777   6.650 -0.7631 -0.0803 -0.1712
  301MOL0     C40567   6.683   5.688   6.660  0.1952 -0.5379  1.4390
  301MOL0     H40568   6.379   5.351   6.873 -1.7948  0.3394  2.2015
  301MOL0     H40569   6.165   5.242   6.888 -2.6257 -1.1807 -0.8169
  301MOL0     H40570   5.830   5.147   6.779 -0.9417  1.2712 -0.9596
  301MOL0     H40571   5.983   5.145   6.866 -0.7352 -2.0259  0.1696
  301MOL0     H40572   5.947   5.387   6.926  1.7141 -4.3559  2.1904
  301MOL0     H40573   5.799   5.391   6.817 -2.1486 -2.1211  1.0065
  301MOL0     H40574   5.785   5.181   7.010  0.8366  0.5343  2.2743
  301MOL0     H40575   5.849   5.329   7.097  0.1693 -0.6989  0.1817
  301MOL0     H40576   5.684   5.473   6.997  0.5327 -0.4740 -0.0552
  301MOL0     H40577   5.618   5.338   6.915  1.6788 -1.7341 -0.0713
  301MOL0     H40578   5.574   5.220   7.148 -0.5665 -0.7254 -4.1759
  301MOL0     H40579   5.623   5.381   7.219 -0.9595 -0.5059  0.4182
  301MOL0     H40580   5.435   5.488   7.105  2.4615  0.3739 -0.0802
  301MOL0     H40581   5.416   5.353   7.001  1.4925  1.6889 -0.9283
  301MOL0     H40582   5.358   5.210   7.207 -3.2119  0.7825 -2.7771
  301MOL0     H40583   5.395   5.345   7.313 -3.6114 -0.3101  1.0155
  301MOL0     H40584   5.209   5.351   7.075 -2.1065 -0.2490  0.0207
  301MOL0     H40585   5.206   5.468   7.206 -3.3045 -0.7587  2.9526
  301MOL0     H40586   5.096   5.397   7.430 -0.0160 -0.6246  1.1953
  301MOL0     H40587   4.901   5.077   7.524 -0.3284 -0.2383 -3.9480
  301MOL0     H40588   4.945   5.232   7.605 -1.0520  0.1026  0.4054
  301MOL0     H40589   4.724   5.193   7.391 -0.8386 -3.2327  1.2248
  301MOL0     H40590   4.751   5.350   7.475  0.4138  1.5129  2.2891
  301MOL0     H40591   4.707   5.218   7.689  1.9238  0.0973 -0.4967
  301MOL0     H40592   4.686   5.076   7.600  0.9586  0.6053  0.5151
  301MOL0     H40593   4.502   5.211   7.457 -0.0271  0.6494  0.0501
  301MOL0     H40594   4.491   5.286   7.626 -1.7703 -0.0911  0.4038
  301MOL0     H40595   4.329   4.893   7.700 -0.7758  0.7694  1.3936
  301MOL0     H40596   4.157   4.775   7.788 -0.3125  0.0378 -1.6948
  301MOL0     H40597   4.044   4.876   7.877  1.6400  3.4342 -0.0020
  301MOL0     H40598   3.990   4.797   7.719  0.6307  1.2866 -2.9320
  301MOL0     H40599   3.629   5.296   7.609 -1.8029  0.3284  2.1530
  301MOL0     H40600   3.386   5.230   7.600 -3.6719 -3.1753 -1.9875
  301MOL0     H40601   3.292   4.818   7.615  1.1562 -0.0745  4.2584
  301MOL0     H40602   3.195   4.939   7.713  1.6684  0.4697 -0.5122
  301MOL0     H40603   3.047   4.945   7.498  3.5210  3.3019  3.0549
  301MOL0     H40604   3.148   4.796   7.455  2.0903  0.5867  1.5832
  301MOL0     H40605   2.960   4.826   7.702  2.4132  0.9632 -0.3172
  301MOL0     H40606   3.062   4.686   7.657  0.1468  0.9682  1.3741
  301MOL0     H40607   2.830   4.780   7.495  1.9262  0.8628 -0.0976
  301MOL0     H40608   2.919   4.622   7.471 -0.5446 -0.6659 -1.4661
  301MOL0     H40609   2.721   4.573   7.577  1.9603  0.8447 -2.3038
  301MOL0     H40610   2.719   4.712   7.700 -2.8286 -2.8615  1.3752
  301MOL0     H40611   2.898   4.613   7.828  1.2996 -0.4746 -0.4410
  301MOL0     H40612   2.753   4.513   7.812 -2.1169  0.0073 -2.7962
  301MOL0     H40613   3.024   4.460   7.765 -0.7835  5.2485 -0.0543
  301MOL0     H40614   2.934   4.444   7.609 -3.3509 -0.2119 -0.5435
  301MOL0     H40615   2.840   4.301   7.858 -1.1057  0.1076 -0.4261
  301MOL0     H40616   2.920   4.224   7.711  0.5345 -0.9655  0.2527
  301MOL0     H40617   3.478   4.844   7.473 -0.2139 -2.2748  3.7488
  301MOL0     H40618   3.725   4.889   7.499 -0.4530  0.3248 -2.5057
  301MOL0     H40619   4.035   5.265   7.551  2.5404  2.5495  2.4588
  301MOL0     H40620   4.284   5.270   7.532  3.1430 -1.8177  1.1807
  301MOL0     H40621   6.061   5.366   6.493 -0.8035 -0.8721  0.2328
  301MOL0     H40622   6.282   5.476   6.474 -1.5431 -2.1168 -1.3603
  301MOL0     H40623   6.836   5.396   6.624  0.1912  0.5560  0.7442
  301MOL0     H40624   7.031   5.533   6.624  1.6457  1.5119  0.7217
  301MOL0     H40625   7.130   5.824   6.827  1.2123 -2.6855  1.8050
  301MOL0     H40626   7.167   5.679   6.746  1.5928  0.5925  1.1129
  301MOL0     H40627   7.347   5.835   6.737 -0.2346  1.6104 -0.2099
  301MOL0     H40628   7.243   5.948   6.648 -1.1133  0.3545 -0.3835
  301MOL0     H40629   7.258   5.850   6.447 -0.0104  0.3997 -0.9864
  301MOL0     H40630   7.293   5.685   6.504 -3.4519  1.0485 -0.9066
  301MOL0     H40631   7.492   5.768   6.413  1.9012 -1.6546  1.2665
  301MOL0     H40632   7.521   5.781   6.581  0.0611  1.0149  0.1633
  301MOL0     H40633   7.559   6.177   6.529  2.0878  0.0447 -0.3024
  301MOL0     H40634   6.772   5.881   6.629  0.5173 -0.0625 -1.5848
  301MOL0     H40635   6.592   5.744   6.680  0.7297  0.2117  1.8067
  302MOL0     O40636   5.567   4.184  10.502  0.6936  0.1113 -0.2595
  302MOL0     C40637   5.531   4.256  10.410  0.0441  0.0930 -0.4157
  302MOL0     O40638   5.607   4.318  10.325  0.2184 -0.5832 -0.6710
  302MOL0     C40639   5.742   4.306  10.318  0.0086 -0.2693 -0.1844
  302MOL0     C40640   5.787   4.287  10.190 -0.2663 -0.4829  0.8593
  302MOL0     C40641   5.926   4.270  10.170  0.5251  0.2664  0.3283
  302MOL0     C40642   6.013   4.259  10.279 -0.7615 -0.4701  0.2699
  302MOL0     O40643   6.150   4.225  10.250  0.5218 -0.6314  0.9366
  302MOL0     C40644   6.237   4.178  10.339 -0.4235  0.1926  0.0014
  302MOL0     C40645   6.328   4.266  10.419  0.2602  0.8425 -0.5304
  302MOL0     C40646   6.403   4.376  10.350  0.2648 -0.2300 -0.1820
  302MOL0     C40647   6.489   4.457  10.449  0.3713 -0.1765  0.9529
  302MOL0     C40648   6.580   4.557  10.378  0.4658  0.5271 -0.7658
  302MOL0     C40649   6.658   4.639  10.485 -1.1782 -0.4205 -0.4363
  302MOL0     C40650   6.776   4.554  10.537  0.1888  0.0836 -0.5344
  302MOL0     C40651   6.884   4.634  10.603 -0.1043  0.6461  0.1159
  302MOL0     N40652   6.827   4.722  10.702 -0.1238 -0.2623  0.6143
  302MOL0     C40653   6.832   4.860  10.700  0.8064  0.0131  0.2095
  302MOL0     C40654   6.749   4.896  10.804 -0.0112 -0.2917  0.1832
  302MOL0     C40655   6.730   5.040  10.858  0.3038 -0.0883  0.7561
  302MOL0     C40656   6.661   5.133  10.752  0.6496  0.1194  1.0655
  302MOL0     C40657   6.510   5.146  10.769 -0.3501 -1.6519  0.3894
  302MOL0     C40658   6.435   5.009  10.769 -0.2636  0.3206  0.2036
  302MOL0     O40659   6.292   5.028  10.764 -0.1921  0.2222 -0.1220
  302MOL0     C40660   6.216   4.912  10.747  0.1265  0.3405  0.9410
  302MOL0     C40661   6.259   4.780  10.737  0.3350  0.7719 -1.0251
  302MOL0     C40662   6.164   4.674  10.732  0.3628 -0.5960 -0.3395
  302MOL0     C40663   6.226   4.543  10.725 -0.7336 -0.2657 -0.6950
  302MOL0     C40664   6.022   4.703  10.743 -0.1294  0.4728  0.5293
  302MOL0     C40665   5.913   4.601  10.756 -1.0431  0.1853 -0.6028
  302MOL0     O40666   5.798   4.637  10.816  0.1556 -0.1612  0.1808
  302MOL0     C40667   5.700   4.546  10.851 -0.8692 -1.0950 -0.1558
  302MOL0     C40668   5.650   4.536  10.980 -0.0346 -0.5876  0.4913
  302MOL0     C40669   5.530   4.458  11.001 -0.6793 -0.4585  1.0081
  302MOL0     C40670   5.466   4.393  10.898 -0.2410  0.5520  0.5763
  302MOL0     O40671   5.361   4.306  10.920  0.0350  0.0114 -0.6082
  302MOL0     C40672   5.320   4.201  10.828  0.4784  0.1622  0.2588
  302MOL0     C40673   5.218   4.112  10.894  0.1789  0.8144 -0.0737
  302MOL0     C40674   5.094   4.061  10.807 -1.1023  0.7379 -1.0996
  302MOL0     C40675   4.988   4.179  10.814  0.2688 -0.2273 -0.6113
  302MOL0     C40676   4.847   4.166  10.740  0.3800  0.4946 -1.2878
  302MOL0     C40677   4.744   4.278  10.770 -0.8864 -0.1934 -0.5286
  302MOL0     C40678   4.613   4.264  10.691  0.0164 -0.0055 -0.2729
  302MOL0     C40679   4.510   4.372  10.722  0.0424 -0.0692 -0.5843
  302MOL0    Cl40680   4.355   4.350  10.625 -0.0346 -0.3115  0.3666
  302MOL0     C40681   5.527   4.397  10.773 -0.1285 -0.1437  0.1314
  302MOL0     C40682   5.641   4.472  10.756  0.9562 -0.3944  0.5800
  302MOL0     O40683   5.942   4.487  10.722 -0.5248  0.0429 -0.9773
  302MOL0     C40684   5.979   4.833  10.733 -0.0929 -0.2222  0.5072
  302MOL0     C40685   6.074   4.934  10.742  0.4574 -0.8437 -0.7178
  302MOL0     N40686   6.711   4.787  10.875 -0.1706  0.4274  1.2350
  302MOL0     N40687   6.768   4.683  10.817  0.3577 -0.6708 -0.0374
  302MOL0     C40688   5.960   4.274  10.406  0.3902  0.0938  0.2176
  302MOL0     C40689   5.826   4.295  10.427  0.5522 -0.5552  0.6047
  302MOL0     C40690   5.383   4.271  10.397  0.3294  0.6346 -0.6588
  302MOL0     C40691   5.299   4.195  10.484  0.5405  0.1505  0.7797
  302MOL0     C40692   5.153   4.206  10.477 -0.3129  0.2865  1.4456
  302MOL0     C40693   5.088   4.290  10.387 -0.4623 -0.1501  0.0567
  302MOL0     O40694   4.951   4.286  10.380  0.1085  0.3523  0.3609
  302MOL0     C40695   4.868   4.358  10.292  0.1084 -1.0445  0.4413
  302MOL0     C40696   4.841   4.499  10.328  0.5043 -0.0203 -0.3301
  302MOL0     C40697   4.780   4.520  10.467  0.4328 -0.7715 -0.0338
  302MOL0     C40698   4.781   4.676  10.489 -1.0147  0.3103  0.2515
  302MOL0     C40699   4.744   4.693  10.625  0.7083  0.6661 -0.0607
  302MOL0     C40700   4.725   4.709  10.746 -0.0422 -0.1028 -0.4467
  302MOL0     C40701   5.168   4.365  10.300 -0.4511  0.3452  0.8658
  302MOL0     C40702   5.317   4.362  10.307  0.1604  0.3259 -0.1974
  302MOL0     H40703   5.712   4.286  10.111 -1.0570  2.2960  1.4680
  302MOL0     H40704   5.960   4.256  10.068 -2.2169  0.0964 -0.6460
  302MOL0     H40705   6.198   4.112  10.418  1.0898 -0.4896  0.2071
  302MOL0     H40706   6.304   4.118  10.277  1.4231  1.7156  0.4285
  302MOL0     H40707   6.267   4.299  10.504  0.1255 -1.6303  0.4082
  302MOL0     H40708   6.407   4.205  10.463  1.4867  2.0728 -0.9711
  302MOL0     H40709   6.461   4.333  10.267  2.0523 -0.4843  1.1354
  302MOL0     H40710   6.335   4.446  10.301  2.3265  0.2352 -2.6224
  302MOL0     H40711   6.419   4.509  10.515 -2.3669 -2.0452 -0.2911
  302MOL0     H40712   6.554   4.398  10.513  2.8171  0.0673 -1.1273
  302MOL0     H40713   6.650   4.517  10.304 -0.0593 -0.8815 -0.5414
  302MOL0     H40714   6.520   4.631  10.325 -0.7459  0.1813  0.0754
  302MOL0     H40715   6.701   4.728  10.439 -0.3190 -2.2339 -3.3402
  302MOL0     H40716   6.594   4.679  10.565 -1.7934  4.4953 -2.9700
  302MOL0     H40717   6.727   4.485  10.607 -0.2647  0.0731 -0.8570
  302MOL0     H40718   6.814   4.500  10.450  0.3575  0.9674 -1.0165
  302MOL0     H40719   6.941   4.701  10.538 -0.9668  3.0959  1.7247
  302MOL0     H40720   6.952   4.571  10.661  0.7165 -0.7027 -2.1985
  302MOL0     H40721   6.883   4.935  10.640 -1.4129  1.8006  0.3790
  302MOL0     H40722   6.672   5.048  10.950 -3.4274 -0.3842 -1.4020
  302MOL0     H40723   6.835   5.066  10.879  0.6457 -1.4323  0.8218
  302MOL0     H40724   6.692   5.101  10.653  0.0502  0.5894  0.7181
  302MOL0     H40725   6.707   5.229  10.774  1.4409 -0.3653  1.5769
  302MOL0     H40726   6.463   5.220  10.703 -1.8462  0.0132  3.1379
  302MOL0     H40727   6.484   5.192  10.865  2.2133 -0.7650  0.7239
  302MOL0     H40728   6.452   4.954  10.863 -1.3083  3.1381  2.1807
  302MOL0     H40729   6.470   4.953  10.682 -0.1567  1.1881 -0.3237
  302MOL0     H40730   6.366   4.759  10.745 -0.0203 -0.3389  3.1436
  302MOL0     H40731   6.199   4.494  10.819  0.4355 -1.3266 -0.8848
  302MOL0     H40732   6.183   4.492  10.639 -0.7205  0.6522 -1.2605
  302MOL0     H40733   6.335   4.543  10.710 -1.0045  0.4720 -3.1131
  302MOL0     H40734   5.700   4.591  11.059  2.1829 -3.3849  1.2396
  302MOL0     H40735   5.486   4.445  11.100 -0.5364 -0.7808  1.0319
  302MOL0     H40736   5.262   4.251  10.750 -1.4730 -1.0514  0.8454
  302MOL0     H40737   5.396   4.136  10.784 -0.3849 -0.5698 -0.1920
  302MOL0     H40738   5.272   4.022  10.922  0.8177  0.3774 -2.5060
  302MOL0     H40739   5.180   4.149  10.990  0.5841  0.4660  0.2222
  302MOL0     H40740   5.048   3.971  10.848  0.6901  0.0861 -0.4554
  302MOL0     H40741   5.128   4.037  10.706  2.0530  1.6013 -0.3439
  302MOL0     H40742   4.963   4.197  10.919 -1.2214  4.4978 -1.5167
  302MOL0     H40743   5.024   4.278  10.783  0.0813 -0.7764 -2.7356
  302MOL0     H40744   4.814   4.069  10.779  0.2593  1.2549  0.6013
  302MOL0     H40745   4.865   4.152  10.633  0.3352  1.7008 -1.4650
  302MOL0     H40746   4.731   4.275  10.878  2.7831 -2.0736 -0.0126
  302MOL0     H40747   4.781   4.376  10.737 -2.0841  0.2474 -0.6116
  302MOL0     H40748   4.575   4.166  10.721  0.6227  0.0874  0.8565
  302MOL0     H40749   4.638   4.264  10.585 -0.7825  3.3700 -0.5864
  302MOL0     H40750   4.545   4.472  10.693 -0.5397  0.7210  1.2829
  302MOL0     H40751   4.494   4.365  10.830  0.4238 -2.4513 -0.6347
  302MOL0     H40752   5.492   4.337  10.690  0.4525 -1.6624  0.9382
  302MOL0     H40753   5.680   4.489  10.656  2.4734  1.7074  1.4683
  302MOL0     H40754   5.873   4.853  10.746 -0.0397  0.3453  0.0767
  302MOL0     H40755   6.041   5.038  10.742  0.0177 -0.9803 -0.5025
  302MOL0     H40756   6.014   4.266  10.500  0.8369  0.4854 -0.0043
  302MOL0     H40757   5.787   4.304  10.528 -1.3998  2.5249 -0.2566
  302MOL0     H40758   5.345   4.121  10.549  1.4111 -0.5771 -0.5889
  302MOL0     H40759   5.096   4.134  10.534 -1.0930 -0.4872 -0.2174
  302MOL0     H40760   4.912   4.361  10.192 -1.4149  1.4022 -0.2786
  302MOL0     H40761   4.769   4.311  10.286 -1.4933  1.8584  1.8864
  302MOL0     H40762   4.776   4.536  10.248  1.1228  2.5136  0.2467
  302MOL0     H40763   4.934   4.556  10.322  1.3394 -1.2185  0.5985
  302MOL0     H40764   4.827   4.465  10.549 -0.0229 -0.9827  0.0914
  302MOL0     H40765   4.674   4.493  10.465 -0.1073  1.1343 -1.8056
  302MOL0     H40766   4.720   4.736  10.422  1.4672  2.4550 -0.2336
  302MOL0     H40767   4.878   4.725  10.478  0.6398 -3.1793 -2.7768
  302MOL0     H40768   4.699   4.726  10.848  3.0444  1.9549  0.1282
  302MOL0     H40769   5.139   4.444  10.233 -0.2603 -0.6811 -0.4720
  302MOL0     H40770   5.369   4.420  10.231 -0.2741  2.0739  0.7810
  303MOL0     O40771   2.210  10.291   7.919  0.2896 -0.5765  0.2532
  303MOL0     C40772   2.259  10.356   8.005  0.4695 -0.3143  0.1696
  303MOL0     O40773   2.197  10.447   8.086  0.4261 -0.4713  0.2320
  303MOL0     C40774   2.081  10.491   8.038  0.2996  0.5325 -0.7171
  303MOL0     C40775   1.969  10.470   8.126  0.7718 -0.0109 -0.1200
  303MOL0     C40776   1.837  10.505   8.085  0.3626  0.2827  1.0161
  303MOL0     C40777   1.825  10.561   7.951 -0.4691  0.0077 -0.9281
  303MOL0     O40778   1.704  10.610   7.908  0.7418 -0.4474 -0.3325
  303MOL0     C40779   1.579  10.541   7.944  0.8915  0.5571  0.4513
  303MOL0     C40780   1.526  10.489   7.812  0.7392 -0.0925  0.8178
  303MOL0     C40781   1.423  10.372   7.824 -0.2830 -0.0798  0.2135
  303MOL0     C40782   1.277  10.421   7.866  0.4112 -0.2891  0.7241
  303MOL0     C40783   1.199  10.297   7.914 -0.1174 -0.2611  0.0971
  303MOL0     C40784   1.206  10.277   8.077 -0.7001 -0.0881  0.4685
  303MOL0     C40785   1.080  10.209   8.122 -0.2613  0.1936  0.5493
  303MOL0     C40786   1.084  10.181   8.275 -0.1000 -0.4234 -1.0407
  303MOL0     N40787   0.947  10.157   8.321  0.6078 -0.4061  0.0217
  303MOL0     C40788   0.894  10.029   8.323 -0.4250 -0.4323 -0.2784
  303MOL0     C40789   0.776  10.050   8.393 -0.7673  0.3039  0.7011
  303MOL0     C40790   0.660   9.962   8.435  0.0284  1.1317 -1.0843
  303MOL0     C40791   0.695   9.811   8.400 -0.1294  0.7773  0.1823
  303MOL0     C40792   0.676   9.773   8.256 -0.9462  1.0354 -0.6503
  303MOL0     C40793   0.736   9.629   8.235 -0.9116 -0.7475 -0.1935
  303MOL0     O40794   0.708   9.533   8.332 -0.0448  0.5893 -0.4363
  303MOL0     C40795   0.578   9.501   8.343  0.0184 -0.5016  0.2571
  303MOL0     C40796   0.474   9.544   8.264  0.0768 -0.2228  0.2650
  303MOL0     C40797   0.343   9.511   8.291  0.3393 -0.1107 -0.2774
  303MOL0     C40798   0.237   9.561   8.197  0.8258 -0.3999 -0.6579
  303MOL0     C40799   0.301   9.432   8.408 -0.3748  0.6606  0.1843
  303MOL0     C40800   0.164   9.384   8.451 -1.1310  0.5925 -0.4333
  303MOL0     O40801   0.147   9.396   8.584 -0.2691  0.9869 -0.9648
  303MOL0     C40802   0.038   9.335   8.640  0.0487 -0.3854 -0.0030
  303MOL0     C40803  -0.025   9.393   8.748  0.2284  0.5924  0.1529
  303MOL0     C40804  -0.141   9.339   8.800  0.6374  0.1866 -0.0250
  303MOL0     C40805  -0.206   9.226   8.750  0.4618  1.7342 -0.5569
  303MOL0     O40806  -0.325   9.182   8.805  0.0423  0.0374  0.6765
  303MOL0     C40807  -0.406   9.094   8.720 -0.8365  0.1237 -0.2368
  303MOL0     C40808  -0.551   9.075   8.775 -0.3789 -0.4215  0.5686
  303MOL0     C40809  -0.619   8.947   8.706  1.1112 -0.5947 -0.2425
  303MOL0     C40810  -0.764   8.929   8.762  0.2505 -0.1913  0.5002
  303MOL0     C40811  -0.847   8.812   8.690  0.2363 -0.2794  0.4260
  303MOL0     C40812  -0.979   8.774   8.766 -0.3806 -0.1850 -0.4436
  303MOL0     C40813  -1.053   8.681   8.676 -0.0355  0.2072 -0.0448
  303MOL0     C40814  -1.208   8.671   8.720 -0.8481  0.0949 -0.2506
  303MOL0    Cl40815  -1.273   8.512   8.672 -0.2872  0.2425 -0.1963
  303MOL0     C40816  -0.135   9.157   8.653 -1.2900  0.6814 -0.0053
  303MOL0     C40817  -0.018   9.209   8.599 -1.1461  0.2330 -0.1280
  303MOL0     O40818   0.086   9.330   8.366 -0.0814 -1.0190  0.0457
  303MOL0     C40819   0.415   9.378   8.472  0.1867  0.6970 -0.3579
  303MOL0     C40820   0.542   9.415   8.443 -1.1196 -0.3994 -0.6988
  303MOL0     N40821   0.769  10.184   8.433 -0.2557 -0.1072 -0.2063
  303MOL0     N40822   0.874  10.248   8.389 -0.1814 -0.1602 -0.0018
  303MOL0     C40823   1.939  10.591   7.869  0.8995  0.1751 -0.8870
  303MOL0     C40824   2.060  10.560   7.917  0.0180 -0.1637 -0.5904
  303MOL0     C40825   2.402  10.337   8.032 -0.2320 -0.4300  0.2379
  303MOL0     C40826   2.465  10.381   8.149  0.7471  0.2567 -0.1579
  303MOL0     C40827   2.595  10.346   8.172  0.0332  0.1860 -0.9487
  303MOL0     C40828   2.667  10.274   8.086  0.0193 -0.5375 -0.8020
  303MOL0     O40829   2.792  10.243   8.122 -0.3328  0.1170 -0.4162
  303MOL0     C40830   2.899  10.216   8.025  0.0677 -0.1953  0.8037
  303MOL0     C40831   3.015  10.177   8.104  0.0462 -0.6915 -0.3949
  303MOL0     C40832   3.138  10.154   8.026 -0.2767  0.1542 -0.4212
  303MOL0     C40833   3.250  10.078   8.105  0.1913 -0.1042  0.2351
  303MOL0     C40834   3.379  10.078   8.040  0.1486 -0.5391 -0.2971
  303MOL0     C40835   3.496  10.065   7.998  0.2265  0.0255 -0.6306
  303MOL0     C40836   2.606  10.223   7.969 -0.3399 -0.6094 -0.7527
  303MOL0     C40837   2.480  10.265   7.938 -0.5294  0.2041  0.2665
  303MOL0     H40838   1.969  10.419   8.222  0.0177  2.3752  1.2220
  303MOL0     H40839   1.758  10.481   8.154 -1.0560  0.6229 -0.4275
  303MOL0     H40840   1.592  10.453   8.006  1.5702  1.7355  2.0494
  303MOL0     H40841   1.516  10.609   8.001  0.6127 -0.5131  1.4446
  303MOL0     H40842   1.477  10.579   7.774 -0.9403 -1.3356 -0.1085
  303MOL0     H40843   1.607  10.446   7.752  1.1305 -0.2974  1.4711
  303MOL0     H40844   1.410  10.335   7.722  2.2522  3.2952 -1.5288
  303MOL0     H40845   1.446  10.291   7.895 -2.5093 -1.5168 -0.6146
  303MOL0     H40846   1.274  10.487   7.953 -1.6158 -0.9756  1.2382
  303MOL0     H40847   1.226  10.474   7.785  1.9939  3.6067  2.0342
  303MOL0     H40848   1.095  10.322   7.890  0.3808  0.6057 -1.2761
  303MOL0     H40849   1.235  10.205   7.866  0.1077  0.9746 -2.2866
  303MOL0     H40850   1.295  10.224   8.112 -0.2855  0.6822  0.5807
  303MOL0     H40851   1.217  10.373   8.129 -1.6161  0.4926 -0.3761
  303MOL0     H40852   1.000  10.282   8.107 -1.4839 -1.0998  0.5318
  303MOL0     H40853   1.061  10.117   8.066 -2.1439  0.4204  0.7622
  303MOL0     H40854   1.118  10.268   8.333  0.2721  0.2170 -2.1939
  303MOL0     H40855   1.152  10.098   8.297  2.4894  2.2792  2.2339
  303MOL0     H40856   0.931   9.936   8.279  0.8268  0.1238 -0.4446
  303MOL0     H40857   0.664   9.966   8.544 -1.4894 -1.6302 -0.8124
  303MOL0     H40858   0.561   9.999   8.404 -1.0162  0.3765  1.1636
  303MOL0     H40859   0.649   9.738   8.466  0.2221  0.0966 -0.3138
  303MOL0     H40860   0.799   9.798   8.429  0.1188 -0.4064 -1.1058
  303MOL0     H40861   0.726   9.848   8.194  0.1839  0.3268 -0.6288
  303MOL0     H40862   0.571   9.781   8.226 -1.1909 -2.4168 -1.1755
  303MOL0     H40863   0.845   9.637   8.235 -0.9234 -0.5811 -0.8450
  303MOL0     H40864   0.709   9.600   8.133 -3.3639 -1.2539  0.5252
  303MOL0     H40865   0.503   9.586   8.168  2.2474  0.2127  1.0443
  303MOL0     H40866   0.145   9.577   8.253  2.1395 -1.3096  1.9396
  303MOL0     H40867   0.257   9.662   8.162  2.0405  0.3769  2.0371
  303MOL0     H40868   0.220   9.485   8.119  1.2894 -2.0232  0.7509
  303MOL0     H40869   0.017   9.488   8.782  1.3363  0.4537 -0.7740
  303MOL0     H40870  -0.185   9.394   8.882 -0.1820  1.9549 -1.5961
  303MOL0     H40871  -0.414   9.147   8.625  0.3245  0.9471  0.0933
  303MOL0     H40872  -0.359   8.996   8.706  1.0039  1.0797 -1.1755
  303MOL0     H40873  -0.566   9.067   8.883  1.1955 -2.3590  0.7094
  303MOL0     H40874  -0.609   9.163   8.747 -0.4220 -0.9515 -1.1593
  303MOL0     H40875  -0.569   8.853   8.735  2.3733 -0.2468 -1.1979
  303MOL0     H40876  -0.616   8.973   8.600  1.5878  1.0700  0.1478
  303MOL0     H40877  -0.753   8.896   8.866  0.3599 -2.9110 -0.2940
  303MOL0     H40878  -0.812   9.026   8.751  1.8433  0.7753  1.6634
  303MOL0     H40879  -0.785   8.723   8.682 -3.1060 -2.6507 -1.4524
  303MOL0     H40880  -0.866   8.857   8.592  1.6879 -0.1504  0.1848
  303MOL0     H40881  -0.954   8.726   8.862  1.0491 -0.6968 -1.0414
  303MOL0     H40882  -1.041   8.864   8.771  1.7454  1.5337 -2.7409
  303MOL0     H40883  -1.008   8.582   8.685  2.7543  1.4849  1.2329
  303MOL0     H40884  -1.044   8.705   8.569  0.6445 -2.7111 -0.7262
  303MOL0     H40885  -1.260   8.744   8.657  1.6414  1.4973 -0.8244
  303MOL0     H40886  -1.233   8.690   8.825 -3.8078 -1.9415 -0.4840
  303MOL0     H40887  -0.161   9.058   8.616  1.7155  0.8768 -3.2222
  303MOL0     H40888   0.036   9.144   8.531 -2.6007 -0.7438 -0.4063
  303MOL0     H40889   0.406   9.308   8.554 -0.9475  1.4585  0.1920
  303MOL0     H40890   0.616   9.373   8.511  0.4069 -1.3742 -2.8622
  303MOL0     H40891   1.920  10.629   7.769 -1.2735 -2.6122 -1.6755
  303MOL0     H40892   2.153  10.584   7.866  1.8316 -0.0933  2.5090
  303MOL0     H40893   2.412  10.445   8.218 -0.4488 -0.1800 -0.6482
  303MOL0     H40894   2.636  10.391   8.261 -0.8662  0.9993 -0.9276
  303MOL0     H40895   2.871  10.136   7.956  0.2347  1.9225 -1.8898
  303MOL0     H40896   2.925  10.303   7.964 -0.1700 -0.7225 -0.0711
  303MOL0     H40897   2.985  10.087   8.159  1.5428 -0.2337  1.2673
  303MOL0     H40898   3.041  10.258   8.173  2.5706 -2.5542  1.0051
  303MOL0     H40899   3.181  10.248   7.992 -1.5199  1.0214  0.3225
  303MOL0     H40900   3.108  10.097   7.938 -1.3889  1.5103 -0.9524
  303MOL0     H40901   3.219   9.976   8.126  2.1742 -1.0831 -1.1700
  303MOL0     H40902   3.263  10.132   8.199 -0.1774  0.1598  0.1370
  303MOL0     H40903   3.597  10.040   7.975 -0.4349 -1.7526 -1.7957
  303MOL0     H40904   2.656  10.163   7.895  0.9443  1.2473 -1.4775
  303MOL0     H40905   2.434  10.230   7.845  1.9517  3.6292 -2.5211
  304MOL0     O40906   6.594  10.722   0.569 -0.5344 -0.0528 -0.2504
  304MOL0     C40907   6.701  10.730   0.517 -0.6348  0.5619  0.4658
  304MOL0     O40908   6.774  10.844   0.509 -0.4771  0.1177 -0.1081
  304MOL0     C40909   6.753  10.957   0.589 -0.0861  0.3940  0.6128
  304MOL0     C40910   6.823  11.068   0.545 -0.4666 -1.2116  0.8680
  304MOL0     C40911   6.839  11.182   0.631  0.2489 -0.4224  0.2604
  304MOL0     C40912   6.769  11.187   0.747  1.1146 -0.5325 -0.0436
  304MOL0     O40913   6.794  11.293   0.826  0.7384 -0.0446 -0.3069
  304MOL0     C40914   6.680  11.352   0.896 -0.0828 -0.0307 -0.5212
  304MOL0     C40915   6.710  11.507   0.903  0.3928  0.2666 -0.6033
  304MOL0     C40916   6.825  11.530   1.005 -0.0317  0.7498  0.4990
  304MOL0     C40917   6.964  11.547   0.941 -0.4661 -0.2816  0.3814
  304MOL0     C40918   7.071  11.603   1.025 -0.5829 -0.3829 -0.8951
  304MOL0     C40919   7.116  11.510   1.145  0.0031  0.4069  0.5263
  304MOL0     C40920   7.239  11.578   1.215 -0.4089  0.2828  0.0773
  304MOL0     C40921   7.271  11.508   1.348 -0.3231  0.2442 -0.1181
  304MOL0     N40922   7.166  11.495   1.452  0.5448 -0.2904  0.0976
  304MOL0     C40923   7.076  11.591   1.487 -0.6766  0.8646 -0.5981
  304MOL0     C40924   6.996  11.539   1.586  0.2134 -0.2423 -0.2064
  304MOL0     C40925   6.867  11.602   1.633  0.0206  0.0275  0.2867
  304MOL0     C40926   6.764  11.613   1.514  0.3371 -0.3859  0.5013
  304MOL0     C40927   6.730  11.470   1.466 -0.6895  0.6804  0.0710
  304MOL0     C40928   6.657  11.491   1.331  0.7494 -0.5852 -0.8619
  304MOL0     O40929   6.649  11.368   1.247  0.1240  0.1817  0.1023
  304MOL0     C40930   6.573  11.264   1.292 -0.4246 -1.2623 -0.1079
  304MOL0     C40931   6.609  11.135   1.247  0.5016  0.0230  0.4771
  304MOL0     C40932   6.548  11.021   1.300 -0.1898 -0.0679 -0.2482
  304MOL0     C40933   6.590  10.883   1.248  0.7884  0.4322  0.8751
  304MOL0     C40934   6.450  11.035   1.397 -0.4701 -0.4570  0.0395
  304MOL0     C40935   6.384  10.919   1.462  0.2202 -0.0252  0.2690
  304MOL0     O40936   6.312  10.944   1.579 -0.4895  0.0824 -0.0377
  304MOL0     C40937   6.224  10.849   1.611 -1.2628 -0.4123  0.5288
  304MOL0     C40938   6.088  10.861   1.592 -0.0302  0.5994  0.6425
  304MOL0     C40939   6.001  10.782   1.660 -0.0083  0.2881 -0.2168
  304MOL0     C40940   6.039  10.685   1.748  0.0834  0.0143 -1.3790
  304MOL0     O40941   5.943  10.607   1.817  0.3075 -0.6063  0.8410
  304MOL0     C40942   5.983  10.546   1.929 -0.2573  0.2186 -1.2289
  304MOL0     C40943   5.871  10.491   2.014  0.3630 -0.6541  0.2451
  304MOL0     C40944   5.769  10.413   1.934 -0.0486  0.4268  0.8247
  304MOL0     C40945   5.624  10.420   2.004  0.5688  0.0098  0.3866
  304MOL0     C40946   5.514  10.376   1.917  0.5517  0.0420  0.1876
  304MOL0     C40947   5.380  10.345   1.994  0.4120  0.6038  0.6571
  304MOL0     C40948   5.306  10.475   2.040  0.1671  0.0539 -0.3635
  304MOL0     C40949   5.175  10.446   2.105  0.9254 -0.8664  0.0220
  304MOL0    Cl40950   5.047  10.378   1.997  0.5957  0.2482 -0.0394
  304MOL0     C40951   6.176  10.670   1.766 -0.0545  0.0548 -0.1272
  304MOL0     C40952   6.268  10.746   1.701  0.1178 -0.3234  0.5275
  304MOL0     O40953   6.366  10.816   1.399 -0.0026 -0.4667  0.9192
  304MOL0     C40954   6.419  11.160   1.449  0.2304 -0.1548  0.1438
  304MOL0     C40955   6.480  11.275   1.399  0.4496  0.3747 -0.4099
  304MOL0     N40956   7.042  11.412   1.615 -1.0496 -0.4050 -0.2682
  304MOL0     N40957   7.141  11.395   1.538  0.6992  0.3593  0.8995
  304MOL0     C40958   6.688  11.086   0.786 -0.0351  0.4766 -0.3441
  304MOL0     C40959   6.684  10.967   0.710  0.7906 -0.3537  0.2242
  304MOL0     C40960   6.769  10.602   0.474 -0.2839 -0.0781 -1.4550
  304MOL0     C40961   6.697  10.483   0.487 -0.2360  0.0232 -0.3620
  304MOL0     C40962   6.759  10.365   0.444  0.5376 -0.2108 -0.9798
  304MOL0     C40963   6.885  10.358   0.386  0.0310  0.1539  0.1811
  304MOL0     O40964   6.945  10.245   0.346 -0.1541 -0.1057  0.7065
  304MOL0     C40965   6.869  10.121   0.328  0.1028 -0.1223  0.3020
  304MOL0     C40966   6.866  10.059   0.472 -0.0475  0.1629 -0.5077
  304MOL0     C40967   7.006  10.037   0.527  0.0167 -0.2955  0.0826
  304MOL0     C40968   7.012   9.966   0.659  0.2830  0.7176  0.3459
  304MOL0     C40969   7.006   9.819   0.638 -0.1629 -0.3305  0.4058
  304MOL0     C40970   6.988   9.697   0.620 -0.2311 -0.5966 -0.4830
  304MOL0     C40971   6.954  10.475   0.380 -0.1914  0.0954 -0.4457
  304MOL0     C40972   6.905  10.600   0.431  0.0400  0.3186  0.6460
  304MOL0     H40973   6.879  11.064   0.453  1.1380  1.4812  1.6209
  304MOL0     H40974   6.900  11.263   0.591 -3.9298  2.1282 -1.5718
  304MOL0     H40975   6.586  11.334   0.843 -1.0853  2.3083  0.3672
  304MOL0     H40976   6.664  11.312   0.996 -0.7489  1.8484  0.1522
  304MOL0     H40977   6.739  11.543   0.803 -0.6452  1.5781 -0.4683
  304MOL0     H40978   6.616  11.556   0.930  0.2134 -0.4223  0.0391
  304MOL0     H40979   6.797  11.622   1.058  4.1063  3.0058 -0.7637
  304MOL0     H40980   6.838  11.460   1.088 -0.3549  1.6132  1.3007
  304MOL0     H40981   7.000  11.452   0.900  1.2357  1.3112 -2.0660
  304MOL0     H40982   6.950  11.618   0.859  2.5376 -1.3151 -1.1682
  304MOL0     H40983   7.159  11.615   0.962  1.3190 -0.6204  1.5784
  304MOL0     H40984   7.045  11.701   1.066  2.2968  0.1187 -0.0110
  304MOL0     H40985   7.036  11.481   1.214 -0.3871 -0.1557 -0.1517
  304MOL0     H40986   7.152  11.418   1.099 -0.1075  0.8004 -0.3606
  304MOL0     H40987   7.323  11.592   1.145 -1.9780  0.2861 -1.8840
  304MOL0     H40988   7.208  11.679   1.241  0.5784  0.2700  1.3747
  304MOL0     H40989   7.364  11.557   1.378  0.7704 -1.1331 -1.0787
  304MOL0     H40990   7.307  11.408   1.321  1.3379  0.6973  0.2862
  304MOL0     H40991   7.053  11.682   1.433 -2.1672  1.3856  0.8631
  304MOL0     H40992   6.827  11.537   1.711 -0.8629 -0.1208 -0.2727
  304MOL0     H40993   6.872  11.709   1.658 -3.4007  0.7586 -1.4909
  304MOL0     H40994   6.796  11.689   1.442 -0.6689  1.9356  2.3666
  304MOL0     H40995   6.676  11.664   1.555  1.2757  1.2031  0.6349
  304MOL0     H40996   6.670  11.410   1.534  1.3553  0.2729  1.6134
  304MOL0     H40997   6.823  11.416   1.445  0.0919  1.5078  1.2847
  304MOL0     H40998   6.706  11.570   1.275 -1.1955  0.6013 -0.9902
  304MOL0     H40999   6.558  11.528   1.360  1.5761  0.6728  0.4489
  304MOL0     H41000   6.692  11.114   1.180  0.9711  2.4913  0.2033
  304MOL0     H41001   6.664  10.885   1.167  0.1966 -1.9758  0.1956
  304MOL0     H41002   6.638  10.831   1.332 -2.7996  1.3755  3.7824
  304MOL0     H41003   6.509  10.821   1.209  3.6215 -2.2830 -1.1736
  304MOL0     H41004   6.056  10.933   1.517 -1.1802 -2.9418 -2.5504
  304MOL0     H41005   5.893  10.791   1.651 -0.3715 -1.5803  1.4209
  304MOL0     H41006   6.041  10.458   1.899 -4.4785 -2.4388 -2.3731
  304MOL0     H41007   6.038  10.616   1.992 -1.1547  0.1894 -0.3966
  304MOL0     H41008   5.911  10.429   2.095 -0.8131 -3.0187 -0.9084
  304MOL0     H41009   5.832  10.575   2.073  0.8290 -0.0715 -0.2625
  304MOL0     H41010   5.794  10.307   1.923 -2.3069 -0.0153 -0.7929
  304MOL0     H41011   5.764  10.442   1.828  2.4014 -0.0451  0.5122
  304MOL0     H41012   5.631  10.361   2.096  0.2065  0.4258  0.6893
  304MOL0     H41013   5.594  10.520   2.037  1.9263  0.1784  1.1899
  304MOL0     H41014   5.546  10.279   1.877 -0.0445 -1.7515  3.5694
  304MOL0     H41015   5.507  10.447   1.835  2.4015  1.8694  1.5186
  304MOL0     H41016   5.314  10.291   1.926 -1.3102 -1.1057  3.5115
  304MOL0     H41017   5.406  10.287   2.083 -0.1739 -0.5731  0.0912
  304MOL0     H41018   5.291  10.535   1.950  1.5933 -0.3252 -0.8831
  304MOL0     H41019   5.379  10.520   2.109  0.2908 -0.8118  0.0908
  304MOL0     H41020   5.130  10.539   2.142  1.9639  0.3605 -1.6667
  304MOL0     H41021   5.186  10.374   2.187 -0.1386  1.6458  2.5154
  304MOL0     H41022   6.220  10.600   1.837  0.6335 -0.2434 -0.8326
  304MOL0     H41023   6.374  10.728   1.721  0.2360 -0.6663 -0.3672
  304MOL0     H41024   6.346  11.176   1.527  0.9688 -0.7449  0.9764
  304MOL0     H41025   6.445  11.372   1.433 -0.8453 -0.7390  1.6660
  304MOL0     H41026   6.621  11.089   0.871  1.5781 -0.5130  1.0397
  304MOL0     H41027   6.629  10.883   0.752  0.2263  0.2990  0.8101
  304MOL0     H41028   6.593  10.477   0.516 -0.0440 -1.5641  0.1140
  304MOL0     H41029   6.706  10.271   0.457 -1.6446  0.8184 -1.8302
  304MOL0     H41030   6.771  10.145   0.286  1.1604 -0.2600 -2.4847
  304MOL0     H41031   6.906  10.052   0.251  0.8107 -0.6132  1.0681
  304MOL0     H41032   6.819   9.962   0.455  0.6176 -0.2676  0.0625
  304MOL0     H41033   6.804  10.115   0.543  0.0390 -0.7955  0.3484
  304MOL0     H41034   7.052  10.136   0.537  0.4123 -0.6680  2.9535
  304MOL0     H41035   7.058   9.991   0.443 -1.7549  0.3513 -1.4302
  304MOL0     H41036   6.929   9.992   0.725 -1.4422  0.4741 -1.6188
  304MOL0     H41037   7.105   9.988   0.712  2.1641 -2.2575 -1.4271
  304MOL0     H41038   6.968   9.597   0.586  1.4281  0.0094 -3.6654
  304MOL0     H41039   7.054  10.476   0.338 -0.5906 -0.5591 -1.4484
  304MOL0     H41040   6.964  10.691   0.429 -1.3348  1.2470  1.0901
  305MOL0     O41041   7.872   8.014   1.915 -0.2896 -0.3470 -0.1405
  305MOL0     C41042   7.941   8.089   1.994  0.0101 -0.6204  0.1949
  305MOL0     O41043   7.899   8.153   2.105  0.5117  0.1670 -0.2988
  305MOL0     C41044   7.776   8.143   2.161 -0.1094  0.4767 -0.0646
  305MOL0     C41045   7.759   8.234   2.273  0.6646 -0.1647  0.4998
  305MOL0     C41046   7.638   8.259   2.332 -0.2886  0.0830  0.5624
  305MOL0     C41047   7.530   8.190   2.294 -0.9303  0.3399 -0.3270
  305MOL0     O41048   7.420   8.237   2.362  0.2375  0.0295  0.1610
  305MOL0     C41049   7.298   8.199   2.311  0.0810  0.2872 -0.0851
  305MOL0     C41050   7.208   8.316   2.352  0.0973 -0.7498  0.0571
  305MOL0     C41051   7.064   8.313   2.295 -0.4124 -0.4704  0.6889
  305MOL0     C41052   6.963   8.210   2.349 -0.7246 -0.9811  0.9768
  305MOL0     C41053   6.824   8.234   2.297 -0.1860 -0.0669 -0.1965
  305MOL0     C41054   6.724   8.143   2.352 -0.2794 -0.6393 -0.3959
  305MOL0     C41055   6.588   8.184   2.303  0.8093 -0.1062  0.1642
  305MOL0     C41056   6.484   8.090   2.365  0.2017  0.0818  0.6903
  305MOL0     N41057   6.421   8.140   2.484 -0.0542 -0.4393 -0.4591
  305MOL0     C41058   6.292   8.185   2.504 -0.3650  0.3226  0.4630
  305MOL0     C41059   6.273   8.201   2.639  0.3526 -0.3587  0.6058
  305MOL0     C41060   6.157   8.266   2.717 -0.1064 -0.1619 -0.3826
  305MOL0     C41061   6.018   8.212   2.695 -0.5848 -0.1272  0.0725
  305MOL0     C41062   5.912   8.314   2.729  0.3331 -0.5635  0.6551
  305MOL0     C41063   5.816   8.332   2.613  0.1691 -0.4625  0.1980
  305MOL0     O41064   5.728   8.208   2.618 -0.0439 -0.3696 -0.3439
  305MOL0     C41065   5.604   8.203   2.684 -0.7063  0.4833 -0.2589
  305MOL0     C41066   5.533   8.092   2.661  0.4081  0.1787 -0.0055
  305MOL0     C41067   5.409   8.073   2.713  0.8740  0.8873  0.1361
  305MOL0     C41068   5.333   7.951   2.669  0.6315  0.4555 -0.6875
  305MOL0     C41069   5.345   8.183   2.779 -0.6002  0.4021  0.0077
  305MOL0     C41070   5.204   8.191   2.812  0.4706  0.5854  0.0633
  305MOL0     O41071   5.160   8.299   2.882 -0.2490 -0.7042 -0.7788
  305MOL0     C41072   5.030   8.310   2.915 -0.2498 -0.0170  0.2356
  305MOL0     C41073   4.986   8.259   3.033 -1.0027  0.3317  0.4141
  305MOL0     C41074   4.853   8.258   3.064  0.4488 -0.1358  0.7592
  305MOL0     C41075   4.753   8.301   2.975  0.2745  0.0112  0.3640
  305MOL0     O41076   4.618   8.278   3.013 -0.2523 -0.4259  0.2039
  305MOL0     C41077   4.521   8.330   2.920 -0.4861  0.2670 -0.2630
  305MOL0     C41078   4.385   8.345   2.988 -0.5642  1.0749  0.5230
  305MOL0     C41079   4.335   8.221   3.059 -0.4065  0.0741 -0.3769
  305MOL0     C41080   4.185   8.224   3.091  0.5844 -0.3256 -0.7550
  305MOL0     C41081   4.141   8.100   3.170  0.7447  0.2124  0.2617
  305MOL0     C41082   3.991   8.104   3.182  0.1026  0.3858  0.2184
  305MOL0     C41083   3.928   7.970   3.218  0.1213  0.1891 -0.4661
  305MOL0     C41084   3.777   7.990   3.208 -0.6998 -0.1676 -0.1648
  305MOL0    Cl41085   3.707   7.824   3.270 -0.0182  0.4379 -0.2908
  305MOL0     C41086   4.797   8.362   2.856  0.0291  0.3075 -0.5035
  305MOL0     C41087   4.930   8.349   2.824 -0.0908  0.2378  0.9441
  305MOL0     O41088   5.131   8.104   2.768  0.2201  0.3509 -0.1283
  305MOL0     C41089   5.425   8.295   2.811 -0.0899  0.1227  0.5779
  305MOL0     C41090   5.562   8.304   2.765 -0.7952  0.5173  0.3623
  305MOL0     N41091   6.391   8.164   2.704  0.2168  0.3526  1.2441
  305MOL0     N41092   6.474   8.126   2.607  0.5877  0.2894 -0.4318
  305MOL0     C41093   7.547   8.075   2.198  0.1774 -1.2130  0.2892
  305MOL0     C41094   7.663   8.064   2.119  0.1432 -0.1050 -0.3287
  305MOL0     C41095   8.087   8.082   1.989 -0.4494 -0.2413  0.2045
  305MOL0     C41096   8.148   8.000   1.899  0.2178  0.5009 -0.1716
  305MOL0     C41097   8.282   7.979   1.894 -0.2887  0.4088  0.2605
  305MOL0     C41098   8.368   8.054   1.977  0.3440  0.1828  0.5496
  305MOL0     O41099   8.503   8.038   1.979  0.6883 -0.4510  1.4281
  305MOL0     C41100   8.573   7.964   1.872  0.3087 -0.1823 -0.1406
  305MOL0     C41101   8.725   7.980   1.889  0.6903  0.5222 -0.3515
  305MOL0     C41102   8.766   8.119   1.831 -0.7235  0.3439  0.2356
  305MOL0     C41103   8.923   8.141   1.832 -0.2895 -0.3467 -0.3645
  305MOL0     C41104   8.973   8.272   1.799 -0.7169  0.2476 -0.0125
  305MOL0     C41105   9.002   8.384   1.773 -0.4931 -0.0051 -0.5420
  305MOL0     C41106   8.308   8.144   2.069 -0.3170  0.1613 -0.6535
  305MOL0     C41107   8.174   8.158   2.074  0.2253  1.2697 -0.0138
  305MOL0     H41108   7.835   8.307   2.297 -2.5038  3.9314 -0.6848
  305MOL0     H41109   7.643   8.346   2.398  3.7115  0.8266 -0.4529
  305MOL0     H41110   7.304   8.207   2.202  0.1727  1.9594  0.0195
  305MOL0     H41111   7.275   8.100   2.352  0.7360  0.0009 -0.3906
  305MOL0     H41112   7.184   8.317   2.458 -1.9727 -0.4927 -0.3704
  305MOL0     H41113   7.255   8.413   2.333 -2.1370  0.1959 -1.0176
  305MOL0     H41114   7.015   8.410   2.299 -1.4639 -1.0146  1.4028
  305MOL0     H41115   7.080   8.298   2.187  2.9088 -4.2342  1.4506
  305MOL0     H41116   7.013   8.118   2.315 -1.6979 -0.3332 -2.6602
  305MOL0     H41117   6.947   8.209   2.457  0.3844  1.5180  1.2109
  305MOL0     H41118   6.807   8.340   2.322 -3.5383 -0.8894  1.6880
  305MOL0     H41119   6.828   8.225   2.188  1.1459  0.7448 -0.2424
  305MOL0     H41120   6.736   8.043   2.309 -0.3106  0.2322 -2.5797
  305MOL0     H41121   6.721   8.144   2.461  1.4280  1.4923 -0.3152
  305MOL0     H41122   6.558   8.284   2.337  0.7437 -0.2323  0.4881
  305MOL0     H41123   6.577   8.184   2.195  2.3398 -1.1393 -0.0036
  305MOL0     H41124   6.532   7.995   2.389  0.2008  0.0293  0.4848
  305MOL0     H41125   6.411   8.073   2.285 -1.1406 -0.5776  2.0061
  305MOL0     H41126   6.220   8.207   2.427  0.7905  1.4893 -0.3337
  305MOL0     H41127   6.184   8.281   2.821 -2.5660  0.3216  0.2624
  305MOL0     H41128   6.150   8.368   2.679  0.6033 -0.3984 -1.1802
  305MOL0     H41129   6.000   8.131   2.766  2.9840 -0.6074  0.6587
  305MOL0     H41130   6.006   8.173   2.594  0.3977  1.0955 -0.5399
  305MOL0     H41131   5.954   8.414   2.740  0.6344 -0.3092 -2.1632
  305MOL0     H41132   5.852   8.286   2.817 -1.7233  0.7613 -0.2473
  305MOL0     H41133   5.857   8.338   2.512  0.6019  2.9257  0.4639
  305MOL0     H41134   5.755   8.420   2.635  0.4957 -0.6607  2.1272
  305MOL0     H41135   5.580   8.013   2.603  0.7775  1.0862 -0.9721
  305MOL0     H41136   5.262   7.981   2.591  0.0833 -1.4613 -0.9830
  305MOL0     H41137   5.392   7.873   2.621 -0.6643 -1.1798  0.2764
  305MOL0     H41138   5.268   7.903   2.743 -0.1180  5.9558  2.7719
  305MOL0     H41139   5.056   8.215   3.104 -2.3016 -1.2584  0.7560
  305MOL0     H41140   4.820   8.214   3.158 -1.0178 -0.3963  0.1547
  305MOL0     H41141   4.553   8.431   2.891 -0.3869 -0.0384 -1.2492
  305MOL0     H41142   4.516   8.269   2.830  0.8984  1.4414 -1.1796
  305MOL0     H41143   4.401   8.421   3.065  1.2089  0.2217  1.0280
  305MOL0     H41144   4.313   8.372   2.910 -0.9318 -0.0619  0.4475
  305MOL0     H41145   4.387   8.196   3.152 -1.9851 -1.1860  0.2111
  305MOL0     H41146   4.360   8.142   2.987  0.3218  2.5036 -2.9599
  305MOL0     H41147   4.164   8.315   3.147 -0.3614  0.3067 -2.0750
  305MOL0     H41148   4.133   8.236   2.995  0.9916  0.1875 -0.9158
  305MOL0     H41149   4.191   8.089   3.267  1.4513  2.0985  0.1400
  305MOL0     H41150   4.158   8.006   3.116  1.1706 -0.0613  0.8597
  305MOL0     H41151   3.970   8.177   3.261  0.3628 -0.9628  1.5868
  305MOL0     H41152   3.948   8.144   3.090 -0.6750 -0.1266  0.3486
  305MOL0     H41153   3.952   7.946   3.322 -1.0276 -0.9211 -0.4373
  305MOL0     H41154   3.951   7.885   3.152 -3.5874 -1.8385  0.5788
  305MOL0     H41155   3.753   8.019   3.106  1.7703  2.2821 -0.1881
  305MOL0     H41156   3.747   8.069   3.278  1.2569 -0.1020  0.6822
  305MOL0     H41157   4.735   8.386   2.770  0.9703  0.2203 -1.2257
  305MOL0     H41158   4.957   8.362   2.719  2.0748  0.6584  1.5057
  305MOL0     H41159   5.375   8.377   2.862 -1.3896  0.1812 -0.7559
  305MOL0     H41160   5.618   8.393   2.792  1.7746  0.0846 -2.8114
  305MOL0     H41161   7.475   7.994   2.189  1.6807 -2.8589  2.2464
  305MOL0     H41162   7.671   7.992   2.038 -0.9755  1.0515 -1.5004
  305MOL0     H41163   8.091   7.938   1.831 -1.5866 -0.6483  2.2598
  305MOL0     H41164   8.329   7.923   1.815 -1.5327  3.2426 -2.7129
  305MOL0     H41165   8.538   7.862   1.889 -1.9490  0.3726 -1.1415
  305MOL0     H41166   8.547   7.998   1.772  0.8640  0.7505  0.0169
  305MOL0     H41167   8.777   7.899   1.836  1.1677  0.8118 -0.3222
  305MOL0     H41168   8.757   7.983   1.993  0.8613 -0.4666 -0.3658
  305MOL0     H41169   8.714   8.184   1.902 -2.7887 -1.7256  0.7724
  305MOL0     H41170   8.718   8.138   1.735 -1.8006  2.1831  1.0805
  305MOL0     H41171   8.972   8.070   1.765 -2.6964  0.2590 -2.9379
  305MOL0     H41172   8.959   8.124   1.935  0.4843 -0.6579 -0.6787
  305MOL0     H41173   9.035   8.485   1.758  0.8116 -0.2057  0.7620
  305MOL0     H41174   8.360   8.192   2.151  0.5205 -1.8095  0.0107
  305MOL0     H41175   8.134   8.223   2.152 -3.1472  1.1360 -1.4600
  306MOL0     O41176   0.318   0.033   1.150  0.3582  0.2638  0.1690
  306MOL0     C41177   0.325   0.006   1.269 -0.1386  0.6597 -0.7574
  306MOL0     O41178   0.228  -0.054   1.335 -0.8025  0.3493  0.1535
  306MOL0     C41179   0.102  -0.061   1.290  0.1755 -0.0998  0.0408
  306MOL0     C41180   0.013   0.046   1.277  0.1664  0.1989 -0.3741
  306MOL0     C41181  -0.124   0.024   1.251 -0.1394  0.0447 -0.1989
  306MOL0     C41182  -0.176  -0.101   1.210  0.2905 -1.0654  0.7506
  306MOL0     O41183  -0.300  -0.124   1.164 -0.1611 -0.4319 -0.2650
  306MOL0     C41184  -0.404  -0.029   1.208 -0.1098  0.3704 -0.1127
  306MOL0     C41185  -0.532  -0.074   1.133 -0.3740  0.2688  0.7284
  306MOL0     C41186  -0.670  -0.008   1.158 -0.4763 -0.1349 -0.6556
  306MOL0     C41187  -0.741  -0.075   1.278 -0.2457 -0.5527  0.5733
  306MOL0     C41188  -0.894  -0.042   1.273  0.0984  0.8751  0.2004
  306MOL0     C41189  -0.954  -0.064   1.411 -0.2443 -0.8084  1.2349
  306MOL0     C41190  -1.098  -0.011   1.407 -0.1051 -0.1357 -0.0791
  306MOL0     C41191  -1.175  -0.025   1.535  0.3120  0.0335 -0.0314
  306MOL0     N41192  -1.314   0.024   1.506 -0.3922 -0.0276  0.5961
  306MOL0     C41193  -1.406  -0.051   1.435  0.9446  0.3481 -0.3806
  306MOL0     C41194  -1.516   0.038   1.438  0.1422 -0.2452 -0.6149
  306MOL0     C41195  -1.652   0.004   1.382  0.1540  0.0805 -0.1644
  306MOL0     C41196  -1.731  -0.089   1.479  0.2434 -0.2974 -0.4069
  306MOL0     C41197  -1.662  -0.211   1.542  0.7238  0.2775 -0.3593
  306MOL0     C41198  -1.611  -0.176   1.676 -0.3730 -0.3047  0.7734
  306MOL0     O41199  -1.601  -0.294   1.749  0.2585 -0.7857  0.5312
  306MOL0     C41200  -1.471  -0.351   1.770  0.8940 -0.3907 -0.5841
  306MOL0     C41201  -1.456  -0.450   1.864  0.1081  0.6048  0.0857
  306MOL0     C41202  -1.335  -0.516   1.877  0.5974  0.4640 -0.6315
  306MOL0     C41203  -1.349  -0.637   1.966 -0.3531 -0.1761 -0.8867
  306MOL0     C41204  -1.221  -0.477   1.808 -0.4391  1.1150 -0.6509
  306MOL0     C41205  -1.090  -0.536   1.835  0.5774 -0.3805  0.8779
  306MOL0     O41206  -0.992  -0.461   1.775 -0.0639 -0.6166  0.3031
  306MOL0     C41207  -0.868  -0.479   1.822 -0.3523  0.2403 -0.0216
  306MOL0     C41208  -0.784  -0.556   1.742 -0.9249 -0.0316 -0.2987
  306MOL0     C41209  -0.658  -0.587   1.783 -0.4897  0.4004  0.0318
  306MOL0     C41210  -0.596  -0.521   1.885  0.4605  0.4563 -0.5555
  306MOL0     O41211  -0.470  -0.555   1.906 -0.5758 -0.2386  0.4105
  306MOL0     C41212  -0.392  -0.470   1.986  0.2854  0.0394 -0.1128
  306MOL0     C41213  -0.245  -0.518   1.990 -0.1367  0.5576 -0.1980
  306MOL0     C41214  -0.150  -0.447   2.095  0.8490 -0.1210  0.2367
  306MOL0     C41215  -0.015  -0.508   2.111  0.1067  0.3901 -0.5523
  306MOL0     C41216   0.078  -0.411   2.187 -0.2010 -0.5939 -0.2254
  306MOL0     C41217   0.213  -0.476   2.197  0.0997 -0.2958 -0.0851
  306MOL0     C41218   0.326  -0.376   2.234  0.6740 -0.5584  0.5265
  306MOL0     C41219   0.392  -0.392   2.373 -0.5054 -0.3170 -0.0354
  306MOL0    Cl41220   0.270  -0.388   2.503  0.4797  0.0591  0.0391
  306MOL0     C41221  -0.676  -0.432   1.966 -0.1099 -0.1616 -1.1243
  306MOL0     C41222  -0.816  -0.414   1.933 -0.4815  0.5225 -0.5320
  306MOL0     O41223  -1.072  -0.641   1.898 -0.5394  0.3483  0.4980
  306MOL0     C41224  -1.241  -0.378   1.710  0.2664  0.2865  0.1765
  306MOL0     C41225  -1.360  -0.315   1.692  0.0200  0.4732 -0.1031
  306MOL0     N41226  -1.483   0.155   1.515 -0.2107 -0.0695  0.4413
  306MOL0     N41227  -1.365   0.146   1.554 -0.5501  0.8754  0.2295
  306MOL0     C41228  -0.080  -0.202   1.203  0.5879  0.2349  0.2318
  306MOL0     C41229   0.054  -0.179   1.245  0.2814  0.1503  0.4571
  306MOL0     C41230   0.443   0.056   1.347 -1.0325  0.5812 -0.8236
  306MOL0     C41231   0.448   0.033   1.484 -0.3711  0.8255  0.4120
  306MOL0     C41232   0.566   0.065   1.553  0.6699 -1.3266  0.4184
  306MOL0     C41233   0.670   0.124   1.492  0.1332 -0.2095  0.1199
  306MOL0     O41234   0.779   0.143   1.574  0.7125 -0.7755 -0.3858
  306MOL0     C41235   0.885   0.224   1.527 -1.0374 -1.0517 -0.8448
  306MOL0     C41236   0.991   0.260   1.636 -0.5321 -0.6021  0.2968
  306MOL0     C41237   0.937   0.362   1.729  0.0236 -0.1432 -0.2536
  306MOL0     C41238   1.041   0.391   1.839  0.0460  0.0665 -0.5912
  306MOL0     C41239   1.046   0.290   1.946 -0.3984  0.0090 -0.6916
  306MOL0     C41240   1.047   0.201   2.031  0.1060  0.2452 -0.6195
  306MOL0     C41241   0.664   0.150   1.359  0.4321  0.1597  0.4737
  306MOL0     C41242   0.544   0.122   1.284  0.5282  0.7304  0.2201
  306MOL0     H41243   0.052   0.140   1.316 -0.7713  0.2664  0.4494
  306MOL0     H41244  -0.182   0.115   1.261 -1.5129 -0.8050 -0.1858
  306MOL0     H41245  -0.426  -0.048   1.313 -2.2387  0.2609 -0.5265
  306MOL0     H41246  -0.376   0.070   1.173 -0.3819  0.4625 -0.0775
  306MOL0     H41247  -0.516  -0.040   1.030 -2.8684  1.7526  0.7631
  306MOL0     H41248  -0.543  -0.182   1.125 -3.4026  0.6351 -2.7664
  306MOL0     H41249  -0.654   0.096   1.187  0.5311  0.0228 -1.6796
  306MOL0     H41250  -0.735  -0.010   1.069  0.7859 -0.5916 -1.6019
  306MOL0     H41251  -0.707  -0.178   1.270  0.4728 -0.3093  0.3514
  306MOL0     H41252  -0.708  -0.020   1.367 -1.7783  1.6418 -0.1050
  306MOL0     H41253  -0.904   0.062   1.241 -1.1385 -0.0194 -2.6065
  306MOL0     H41254  -0.940  -0.113   1.204 -0.8024  2.2434 -0.6577
  306MOL0     H41255  -0.960  -0.168   1.444 -1.1394 -1.0473  0.3941
  306MOL0     H41256  -0.896   0.004   1.473  1.8886 -0.7217 -0.7032
  306MOL0     H41257  -1.101   0.092   1.373 -1.7271 -0.0564  0.2050
  306MOL0     H41258  -1.150  -0.073   1.333 -1.3679 -0.1950  0.8235
  306MOL0     H41259  -1.131   0.029   1.619 -0.9548 -0.5995  1.0738
  306MOL0     H41260  -1.183  -0.132   1.558  0.0352  0.3572  1.5130
  306MOL0     H41261  -1.407  -0.150   1.389 -2.5975  0.0955  0.0074
  306MOL0     H41262  -1.703   0.099   1.365  3.0226  1.7374 -0.1598
  306MOL0     H41263  -1.633  -0.052   1.290  3.7076  0.7258  0.0343
  306MOL0     H41264  -1.812  -0.123   1.414  0.7680  0.9643 -1.8107
  306MOL0     H41265  -1.755  -0.017   1.557  4.5878  1.3287 -0.2978
  306MOL0     H41266  -1.581  -0.243   1.476  2.8304  3.1332  0.6369
  306MOL0     H41267  -1.735  -0.292   1.542 -0.5802  1.3554 -2.9312
  306MOL0     H41268  -1.681  -0.108   1.725 -1.1487  0.6360 -1.5088
  306MOL0     H41269  -1.514  -0.127   1.669  1.1798 -3.2823 -0.6842
  306MOL0     H41270  -1.532  -0.476   1.937  0.3896  2.2443  1.0056
  306MOL0     H41271  -1.313  -0.725   1.911  0.7254 -1.2408  1.3814
  306MOL0     H41272  -1.284  -0.633   2.054 -1.7454 -0.1322  0.1797
  306MOL0     H41273  -1.451  -0.651   2.005 -0.2108  1.0431 -0.0077
  306MOL0     H41274  -0.826  -0.615   1.662 -0.0758 -1.0474 -0.0079
  306MOL0     H41275  -0.597  -0.655   1.724  0.2501  1.0891 -0.0123
  306MOL0     H41276  -0.378  -0.371   1.942  2.1388  0.3242  1.0540
  306MOL0     H41277  -0.446  -0.470   2.081  0.9713  0.7524  0.2856
  306MOL0     H41278  -0.244  -0.627   2.001 -2.0471  0.4910 -0.2527
  306MOL0     H41279  -0.195  -0.496   1.895  2.7650  0.9379  1.3260
  306MOL0     H41280  -0.212  -0.433   2.184  1.6378  0.7229  0.6707
  306MOL0     H41281  -0.134  -0.345   2.059 -1.5235  0.7084  1.2897
  306MOL0     H41282  -0.026  -0.608   2.153 -2.1123  1.1264  0.8265
  306MOL0     H41283   0.027  -0.533   2.013 -0.3664 -1.7754 -0.2503
  306MOL0     H41284   0.038  -0.381   2.284 -0.2218  0.9934 -0.6938
  306MOL0     H41285   0.084  -0.324   2.121 -0.9234 -0.1142  0.3374
  306MOL0     H41286   0.202  -0.544   2.282  0.4800  1.6187  1.5821
  306MOL0     H41287   0.239  -0.528   2.105 -1.9209 -0.7283 -0.4624
  306MOL0     H41288   0.279  -0.277   2.233 -3.4442 -2.3072 -1.2664
  306MOL0     H41289   0.395  -0.371   2.149 -1.2870 -3.3337 -1.4048
  306MOL0     H41290   0.461  -0.308   2.389 -1.0526  0.1756 -0.2441
  306MOL0     H41291   0.451  -0.483   2.386 -1.4998 -1.0512 -0.5345
  306MOL0     H41292  -0.630  -0.376   2.047 -0.8037 -0.2094 -0.6910
  306MOL0     H41293  -0.880  -0.341   1.980 -1.2072 -1.3145  1.5327
  306MOL0     H41294  -1.160  -0.329   1.658  0.7824  1.4799  2.0191
  306MOL0     H41295  -1.355  -0.237   1.616  0.1434 -0.2498 -0.8514
  306MOL0     H41296  -0.113  -0.302   1.177  2.6691 -0.8531  1.4419
  306MOL0     H41297   0.123  -0.263   1.244 -0.7755 -0.7743  1.6961
  306MOL0     H41298   0.366  -0.025   1.524 -0.5469 -0.4457 -1.6433
  306MOL0     H41299   0.578   0.023   1.652  1.0532 -3.9036 -0.6396
  306MOL0     H41300   0.945   0.183   1.446  1.9061  0.4486  0.4201
  306MOL0     H41301   0.852   0.324   1.496  0.2566 -0.0703  0.7321
  306MOL0     H41302   1.087   0.290   1.593  0.6400  0.0341  3.1424
  306MOL0     H41303   1.023   0.168   1.686  2.5245 -0.8211 -1.7197
  306MOL0     H41304   0.853   0.313   1.779  2.4415 -1.2736  3.0083
  306MOL0     H41305   0.913   0.451   1.670 -0.2614  2.4002  3.3828
  306MOL0     H41306   1.011   0.488   1.878 -0.8686  0.5982 -2.4728
  306MOL0     H41307   1.142   0.386   1.797  1.2411 -1.2974  2.1891
  306MOL0     H41308   1.051   0.138   2.117  4.5001  1.0703 -0.0008
  306MOL0     H41309   0.741   0.206   1.306 -0.0615 -1.1733 -1.7760
  306MOL0     H41310   0.546   0.153   1.180 -0.8955 -2.7127 -0.9569
  307MOL0     O41311   2.495   4.419   4.747 -0.0416  0.1165  0.0267
  307MOL0     C41312   2.504   4.317   4.821 -0.6844 -0.1891 -0.5398
  307MOL0     O41313   2.423   4.284   4.929 -0.6043 -0.8360  0.3405
  307MOL0     C41314   2.329   4.380   4.953  0.7156 -0.2678 -0.6250
  307MOL0     C41315   2.349   4.468   5.060  0.5383  0.6491  0.0654
  307MOL0     C41316   2.236   4.551   5.101  0.7416 -0.6078 -0.1955
  307MOL0     C41317   2.115   4.551   5.035 -0.3117 -0.9596  0.2709
  307MOL0     O41318   2.017   4.637   5.072  0.9370  0.3495  1.1988
  307MOL0     C41319   1.884   4.603   5.035  0.3585 -0.4935 -0.5698
  307MOL0     C41320   1.781   4.692   5.105 -0.0424  0.4043 -0.5881
  307MOL0     C41321   1.637   4.653   5.067 -1.1035 -0.1112 -0.8702
  307MOL0     C41322   1.597   4.509   5.109 -0.2165  0.8446  0.2859
  307MOL0     C41323   1.454   4.485   5.065  0.9024  0.2891 -0.2694
  307MOL0     C41324   1.358   4.592   5.120  0.1521  0.5694 -0.6111
  307MOL0     C41325   1.208   4.554   5.126  0.5225  0.0330  0.0760
  307MOL0     C41326   1.136   4.621   5.245 -1.7341  0.1613  0.0603
  307MOL0     N41327   1.007   4.563   5.247 -0.1826 -0.7569 -0.0824
  307MOL0     C41328   0.913   4.603   5.160  0.2928 -0.3862  0.2675
  307MOL0     C41329   0.799   4.541   5.205 -0.5640  0.9318  0.7755
  307MOL0     C41330   0.672   4.549   5.129  1.0484 -0.3225 -0.0779
  307MOL0     C41331   0.593   4.415   5.118  0.2668  0.3505 -0.1007
  307MOL0     C41332   0.494   4.414   5.012  0.3501 -1.1681  0.0271
  307MOL0     C41333   0.415   4.287   5.022 -0.0790  0.8827  0.5707
  307MOL0     O41334   0.311   4.283   4.927 -0.4237  0.2129 -0.0574
  307MOL0     C41335   0.227   4.177   4.902 -0.6324 -0.8713  0.2152
  307MOL0     C41336   0.208   4.067   4.979  0.4046 -0.6214 -0.4119
  307MOL0     C41337   0.110   3.968   4.952 -0.9869 -0.0665 -0.1027
  307MOL0     C41338   0.094   3.869   5.056 -0.2772  0.5069  0.3182
  307MOL0     C41339   0.024   3.976   4.841 -0.3670 -0.3392 -0.1081
  307MOL0     C41340  -0.083   3.886   4.808  0.2812 -0.2790 -0.5122
  307MOL0     O41341  -0.169   3.922   4.696  0.5494  0.6728 -0.4802
  307MOL0     C41342  -0.267   3.821   4.670 -0.0364 -0.3459 -0.2327
  307MOL0     C41343  -0.377   3.816   4.751 -0.1982 -0.0015  0.7598
  307MOL0     C41344  -0.477   3.733   4.711  0.7057 -0.7003 -0.3666
  307MOL0     C41345  -0.471   3.653   4.591 -0.8182  0.2006 -1.3294
  307MOL0     O41346  -0.582   3.582   4.539 -0.1191 -0.4351 -0.9584
  307MOL0     C41347  -0.681   3.537   4.635 -0.2129  0.0658 -0.1018
  307MOL0     C41348  -0.784   3.435   4.581 -1.0905 -0.0416  0.2058
  307MOL0     C41349  -0.894   3.438   4.681 -0.1798  0.0654  0.3570
  307MOL0     C41350  -0.858   3.349   4.801  0.4344 -0.3998  0.8208
  307MOL0     C41351  -0.982   3.343   4.901 -0.6103 -1.2667  0.8088
  307MOL0     C41352  -1.035   3.196   4.892  0.0137 -0.0736  0.1875
  307MOL0     C41353  -1.156   3.184   4.979  1.1762 -0.3836  0.0509
  307MOL0     C41354  -1.246   3.067   4.935  0.1827  0.0510  0.2890
  307MOL0    Cl41355  -1.354   3.046   5.079  0.0666 -0.2448  0.0438
  307MOL0     C41356  -0.349   3.656   4.521  0.3644  0.7778  0.0317
  307MOL0     C41357  -0.245   3.736   4.560 -0.5979 -1.2891  0.2179
  307MOL0     O41358  -0.092   3.779   4.873 -0.2155  0.2068 -0.1314
  307MOL0     C41359   0.031   4.087   4.770 -0.7568  0.1910  0.6145
  307MOL0     C41360   0.131   4.187   4.803  1.2289  0.1995 -0.3371
  307MOL0     N41361   0.840   4.456   5.309  0.1037  0.0666  0.1592
  307MOL0     N41362   0.965   4.468   5.334  0.5273 -0.5144  0.9405
  307MOL0     C41363   2.095   4.461   4.921  0.0682  0.3945 -0.2599
  307MOL0     C41364   2.200   4.372   4.890  0.2503 -0.7935  0.8240
  307MOL0     C41365   2.604   4.225   4.777 -0.4274  0.6402  0.2122
  307MOL0     C41366   2.617   4.093   4.833 -0.0215  0.6197  0.0265
  307MOL0     C41367   2.737   4.012   4.806  0.2301  0.5305  0.6969
  307MOL0     C41368   2.843   4.065   4.731 -0.3472  0.1395  0.2494
  307MOL0     O41369   2.963   4.008   4.712  0.1599  0.0108  0.5493
  307MOL0     C41370   2.984   3.872   4.767 -0.7317 -0.5175 -0.7247
  307MOL0     C41371   3.114   3.810   4.711 -0.2009 -0.8030 -0.1809
  307MOL0     C41372   3.243   3.898   4.725  0.4612  0.6139 -0.1133
  307MOL0     C41373   3.362   3.801   4.740 -0.4141  0.6039  0.5107
  307MOL0     C41374   3.374   3.709   4.630  0.3205  0.6743  0.0534
  307MOL0     C41375   3.379   3.622   4.549 -0.7968  0.5538  0.3281
  307MOL0     C41376   2.817   4.192   4.671  0.2240  0.7841  0.1032
  307MOL0     C41377   2.705   4.269   4.688  1.1190  0.4333  0.3470
  307MOL0     H41378   2.439   4.466   5.120 -1.2387 -1.3664  2.9748
  307MOL0     H41379   2.251   4.620   5.183 -3.5637  1.9544 -1.2157
  307MOL0     H41380   1.874   4.609   4.926  2.3785 -1.7974 -0.8935
  307MOL0     H41381   1.863   4.500   5.064 -0.0240 -0.5301 -0.9603
  307MOL0     H41382   1.788   4.692   5.214 -1.2216  0.8270 -0.4959
  307MOL0     H41383   1.801   4.798   5.088 -0.5940  0.5948 -0.0893
  307MOL0     H41384   1.574   4.727   5.117  0.6356 -0.6909  2.4810
  307MOL0     H41385   1.615   4.664   4.961  0.0862 -2.9066 -1.4870
  307MOL0     H41386   1.658   4.428   5.067  2.1560  1.3930  2.4360
  307MOL0     H41387   1.592   4.490   5.216  3.5012 -2.4763  0.1167
  307MOL0     H41388   1.436   4.483   4.958 -1.1465  2.6985 -0.0814
  307MOL0     H41389   1.413   4.394   5.110 -0.2244  0.3761 -1.0912
  307MOL0     H41390   1.381   4.601   5.227  1.2929 -2.6927 -0.4865
  307MOL0     H41391   1.360   4.686   5.064  1.2909 -1.3929 -4.1921
  307MOL0     H41392   1.161   4.577   5.030  0.5843  1.1681  0.3082
  307MOL0     H41393   1.200   4.447   5.149 -0.3355 -0.1366 -0.9671
  307MOL0     H41394   1.134   4.730   5.245 -0.9241  0.1850  0.3449
  307MOL0     H41395   1.187   4.578   5.332 -2.1392 -2.1146 -0.7450
  307MOL0     H41396   0.933   4.681   5.087 -0.3023 -0.5066 -0.0194
  307MOL0     H41397   0.606   4.613   5.189  0.5498 -3.5820  3.2243
  307MOL0     H41398   0.689   4.578   5.025  1.5378  0.3749  0.1920
  307MOL0     H41399   0.543   4.381   5.209 -3.7231 -0.4947 -2.3740
  307MOL0     H41400   0.670   4.340   5.098 -0.2559 -0.6966  1.5803
  307MOL0     H41401   0.539   4.423   4.912 -2.6072  2.0546 -1.2136
  307MOL0     H41402   0.432   4.503   5.027  2.3250  0.0127  1.7637
  307MOL0     H41403   0.377   4.276   5.125 -2.7112 -0.7325 -0.4699
  307MOL0     H41404   0.478   4.198   5.009 -0.5662  0.6749 -0.4218
  307MOL0     H41405   0.261   4.055   5.073  0.4389 -1.3810 -0.5209
  307MOL0     H41406   0.159   3.888   5.142 -1.8343  3.2877  0.9986
  307MOL0     H41407  -0.009   3.881   5.092 -0.1630 -1.3265  1.3535
  307MOL0     H41408   0.110   3.770   5.012 -0.8961  0.9766 -0.9968
  307MOL0     H41409  -0.372   3.881   4.838 -1.5227  2.1279 -0.6562
  307MOL0     H41410  -0.566   3.730   4.773  1.2384 -2.9052  0.4129
  307MOL0     H41411  -0.633   3.495   4.724 -0.8978 -1.2243 -0.3100
  307MOL0     H41412  -0.736   3.625   4.668 -0.0838 -0.2109  0.8858
  307MOL0     H41413  -0.825   3.481   4.491  0.4730  1.7716  0.3537
  307MOL0     H41414  -0.744   3.336   4.556 -1.8195 -0.2949  0.0375
  307MOL0     H41415  -0.980   3.396   4.627  0.4577 -1.2441  0.3143
  307MOL0     H41416  -0.920   3.536   4.722  0.0151 -0.1238  0.9441
  307MOL0     H41417  -0.820   3.254   4.762  3.1156  0.0211  2.1525
  307MOL0     H41418  -0.772   3.389   4.855  0.4358  2.2194 -0.9231
  307MOL0     H41419  -1.056   3.417   4.870 -0.8737 -1.6825  0.4484
  307MOL0     H41420  -0.952   3.363   5.005 -1.3150 -0.3211  0.8435
  307MOL0     H41421  -1.048   3.168   4.787 -2.2482 -3.0291  1.1159
  307MOL0     H41422  -0.951   3.140   4.932 -0.1542 -0.9663 -0.6613
  307MOL0     H41423  -1.212   3.278   4.979  0.8263 -0.5793  1.0254
  307MOL0     H41424  -1.124   3.169   5.083 -1.6331  4.3185  1.8779
  307MOL0     H41425  -1.192   2.973   4.924 -2.6138 -1.6725  0.3451
  307MOL0     H41426  -1.292   3.106   4.844 -0.4196  1.6750  1.2459
  307MOL0     H41427  -0.335   3.588   4.438 -1.4759  0.1383  0.2162
  307MOL0     H41428  -0.149   3.746   4.511 -0.2294  0.6760  1.2071
  307MOL0     H41429  -0.036   4.104   4.686  0.3097  0.9605 -0.0985
  307MOL0     H41430   0.132   4.282   4.749 -1.1093 -0.9915 -2.6871
  307MOL0     H41431   2.004   4.462   4.862 -0.2758 -1.9340  0.1580
  307MOL0     H41432   2.173   4.311   4.805  0.1246 -1.4553  1.3321
  307MOL0     H41433   2.537   4.059   4.898  1.2728  0.6679  1.7165
  307MOL0     H41434   2.744   3.915   4.855  1.8713  0.6332  0.7296
  307MOL0     H41435   3.008   3.889   4.872  1.0547  1.9584 -1.4563
  307MOL0     H41436   2.895   3.807   4.762 -0.0715 -1.6821  1.4321
  307MOL0     H41437   3.102   3.785   4.605 -1.7220 -2.4701  0.3271
  307MOL0     H41438   3.129   3.714   4.761 -0.6129 -1.2246 -0.8534
  307MOL0     H41439   3.235   3.972   4.805  3.2620  4.0721 -2.7230
  307MOL0     H41440   3.259   3.959   4.636  3.0557  1.8141  1.0717
  307MOL0     H41441   3.356   3.734   4.826 -0.7920 -0.1940 -0.1271
  307MOL0     H41442   3.454   3.859   4.750  1.0471 -1.4852 -0.2266
  307MOL0     H41443   3.419   3.549   4.482  2.3248  2.8110 -0.5108
  307MOL0     H41444   2.895   4.239   4.613  0.5380 -0.2322 -0.3154
  307MOL0     H41445   2.719   4.371   4.655 -0.2726  0.4303 -0.3187
  308MOL0     O41446   6.309   3.608   7.511  0.7059  0.4578 -0.1063
  308MOL0     C41447   6.316   3.715   7.577 -0.3045  1.1121  0.8109
  308MOL0     O41448   6.220   3.760   7.667 -0.8368 -0.0437 -0.1999
  308MOL0     C41449   6.099   3.698   7.677  0.7282  0.1762 -0.3597
  308MOL0     C41450   6.075   3.556   7.679  0.6623 -0.6799 -0.8707
  308MOL0     C41451   5.957   3.500   7.687  0.9972 -0.1351  0.1146
  308MOL0     C41452   5.847   3.584   7.714  0.5669 -0.3566  0.4614
  308MOL0     O41453   5.716   3.546   7.700 -0.2963  0.1105  0.6628
  308MOL0     C41454   5.669   3.430   7.776  0.6327  0.2304  0.8678
  308MOL0     C41455   5.529   3.464   7.814  0.3290  0.2003 -0.2425
  308MOL0     C41456   5.460   3.341   7.875 -0.8733 -0.4748  0.4008
  308MOL0     C41457   5.320   3.331   7.822 -0.8275 -0.3729 -0.2585
  308MOL0     C41458   5.248   3.208   7.891 -0.0197 -0.3899  0.6738
  308MOL0     C41459   5.114   3.200   7.824  0.5010  0.8839  0.5141
  308MOL0     C41460   5.012   3.091   7.884 -0.0335 -0.7774 -0.5003
  308MOL0     C41461   5.078   2.954   7.896  0.6514 -0.2475  0.5377
  308MOL0     N41462   5.103   2.891   7.767  0.5690 -0.8973 -0.9888
  308MOL0     C41463   5.193   2.922   7.665  0.2894  0.3675 -0.6439
  308MOL0     C41464   5.167   2.827   7.569  0.1870  1.0915 -0.3267
  308MOL0     C41465   5.237   2.811   7.440 -0.0666  0.0206  0.4055
  308MOL0     C41466   5.376   2.778   7.481  0.2297 -0.9042 -0.6464
  308MOL0     C41467   5.449   2.718   7.354 -0.7703 -0.5508  0.3438
  308MOL0     C41468   5.600   2.686   7.367  0.3398  0.5715 -0.7435
  308MOL0     O41469   5.657   2.815   7.360 -0.5039  0.1344  0.3175
  308MOL0     C41470   5.792   2.814   7.400 -0.0003 -0.2937  0.1339
  308MOL0     C41471   5.861   2.935   7.394  0.4359 -0.1930  0.3066
  308MOL0     C41472   5.994   2.947   7.421  0.0038 -0.0158 -0.8549
  308MOL0     C41473   6.059   3.088   7.403 -0.1478  0.0508  0.1906
  308MOL0     C41474   6.068   2.831   7.470 -0.2507  0.0925 -0.7557
  308MOL0     C41475   6.202   2.843   7.516 -0.3254  0.6060  0.3390
  308MOL0     O41476   6.278   2.761   7.442 -0.5370 -0.3677  0.2328
  308MOL0     C41477   6.416   2.750   7.464  0.3356  0.0415  0.0398
  308MOL0     C41478   6.469   2.661   7.552 -0.5512 -0.5822 -0.9813
  308MOL0     C41479   6.602   2.646   7.572  0.4644  0.3849 -0.1239
  308MOL0     C41480   6.694   2.693   7.480  0.2616 -0.3519 -0.4491
  308MOL0     O41481   6.831   2.678   7.473  0.1423  0.3156 -0.6780
  308MOL0     C41482   6.880   2.552   7.523  0.2694  0.1133  0.4123
  308MOL0     C41483   7.009   2.514   7.485  0.0269  0.4049 -0.7166
  308MOL0     C41484   7.058   2.374   7.533 -0.2569  0.0184 -0.2527
  308MOL0     C41485   7.212   2.362   7.534 -0.6206 -0.0548 -0.6524
  308MOL0     C41486   7.260   2.217   7.583  0.1832  0.0536  0.2310
  308MOL0     C41487   7.409   2.183   7.547 -0.1002 -0.5089 -0.2932
  308MOL0     C41488   7.408   2.154   7.398 -0.2791 -1.0096  0.6785
  308MOL0     C41489   7.544   2.166   7.344 -0.8515  0.4920 -1.2771
  308MOL0    Cl41490   7.562   2.099   7.175 -0.2623 -0.0036  0.4074
  308MOL0     C41491   6.636   2.777   7.381 -0.3792  0.2200  0.2514
  308MOL0     C41492   6.502   2.805   7.370  0.1353  0.6107 -0.1525
  308MOL0     O41493   6.236   2.918   7.605 -0.3168 -0.2134 -0.0912
  308MOL0     C41494   5.999   2.708   7.484  0.4805 -0.8626 -0.4702
  308MOL0     C41495   5.863   2.701   7.456 -0.3618 -1.0415  0.2450
  308MOL0     N41496   5.064   2.754   7.604  1.1047 -0.9397  0.0400
  308MOL0     N41497   5.019   2.791   7.722  0.3612 -0.1551 -0.1544
  308MOL0     C41498   5.863   3.722   7.715 -1.0389  0.0741  0.0925
  308MOL0     C41499   5.985   3.776   7.697  0.4945 -0.4573  0.1899
  308MOL0     C41500   6.431   3.801   7.561 -0.0581 -0.0001  0.1022
  308MOL0     C41501   6.530   3.767   7.469  0.2055 -0.5549  0.0458
  308MOL0     C41502   6.644   3.846   7.457  0.6824 -0.5673  0.3349
  308MOL0     C41503   6.662   3.967   7.526 -0.4737  0.3894  0.2014
  308MOL0     O41504   6.773   4.047   7.519  1.0019 -0.1661  0.3512
  308MOL0     C41505   6.857   4.042   7.404 -0.2083  0.2782 -0.6813
  308MOL0     C41506   6.997   4.091   7.438  0.1663  0.4936 -0.8284
  308MOL0     C41507   7.077   4.073   7.312 -0.8569 -0.4727 -0.1553
  308MOL0     C41508   7.227   4.113   7.313  0.3724  0.5543  0.2332
  308MOL0     C41509   7.256   4.215   7.406 -0.2428 -0.7344  0.5706
  308MOL0     C41510   7.270   4.313   7.487 -1.0604  0.0451  0.5371
  308MOL0     C41511   6.564   4.010   7.610 -0.3254 -1.0876 -0.5295
  308MOL0     C41512   6.454   3.922   7.637 -1.1909 -0.0178  0.1550
  308MOL0     H41513   6.153   3.484   7.658  1.0813  0.2076 -2.5030
  308MOL0     H41514   5.954   3.393   7.674  1.3217  0.1014 -2.1996
  308MOL0     H41515   5.672   3.344   7.708 -1.1316 -0.1604  1.2482
  308MOL0     H41516   5.720   3.400   7.868 -0.2340  0.1326  1.3254
  308MOL0     H41517   5.533   3.545   7.887  2.1549  1.1417 -1.2946
  308MOL0     H41518   5.475   3.503   7.727 -1.1280  0.7000  0.8519
  308MOL0     H41519   5.517   3.250   7.853  3.6229  1.3891  2.8666
  308MOL0     H41520   5.467   3.356   7.983  2.2713  1.4117  0.0709
  308MOL0     H41521   5.265   3.426   7.826 -0.3133 -0.0778 -0.0168
  308MOL0     H41522   5.332   3.310   7.715  4.0712  1.2731 -0.2583
  308MOL0     H41523   5.309   3.118   7.877  1.5733  0.6033  0.9996
  308MOL0     H41524   5.239   3.224   7.999  0.6177 -2.8206  1.1508
  308MOL0     H41525   5.067   3.298   7.837 -1.1080  0.0298  1.5159
  308MOL0     H41526   5.117   3.178   7.717  0.0369 -2.2155  1.0448
  308MOL0     H41527   4.986   3.133   7.981  1.7027  0.3403 -0.4766
  308MOL0     H41528   4.922   3.102   7.822  0.7865  1.9227 -1.3484
  308MOL0     H41529   5.003   2.887   7.938  0.3707 -0.3810 -0.1514
  308MOL0     H41530   5.172   2.957   7.950  1.8149 -3.2464 -1.0938
  308MOL0     H41531   5.278   2.989   7.658  0.2134  0.6554  0.9567
  308MOL0     H41532   5.186   2.729   7.388 -0.7188  0.3029  0.5881
  308MOL0     H41533   5.236   2.905   7.383 -2.5092  0.6092  1.3134
  308MOL0     H41534   5.388   2.714   7.568  1.6797  0.2273  0.0371
  308MOL0     H41535   5.421   2.873   7.512  0.2135 -1.4175  1.0470
  308MOL0     H41536   5.450   2.802   7.283  1.0764  1.5264  2.6269
  308MOL0     H41537   5.392   2.635   7.311 -0.9854 -0.4913  0.5097
  308MOL0     H41538   5.642   2.617   7.293 -0.8539  0.8170 -1.6714
  308MOL0     H41539   5.619   2.641   7.465  2.2868 -1.0410 -1.7566
  308MOL0     H41540   5.807   3.026   7.369 -0.2113 -0.5804  0.2932
  308MOL0     H41541   5.983   3.167   7.404 -0.9312 -0.6614 -0.5913
  308MOL0     H41542   6.127   3.109   7.485  0.4610  0.3525 -0.3800
  308MOL0     H41543   6.111   3.095   7.307 -0.8746  0.9791 -0.1520
  308MOL0     H41544   6.395   2.619   7.620 -2.6509 -0.3383 -2.9850
  308MOL0     H41545   6.636   2.590   7.658 -1.1473  1.4493  1.2748
  308MOL0     H41546   6.871   2.552   7.632  0.3204  1.9694  0.4355
  308MOL0     H41547   6.811   2.477   7.483 -0.8275  1.8112 -1.0407
  308MOL0     H41548   7.015   2.530   7.376 -1.4230 -0.8265 -1.0041
  308MOL0     H41549   7.090   2.578   7.523  2.2747 -1.2349 -2.4646
  308MOL0     H41550   7.021   2.305   7.457 -1.3241  2.3180 -1.9637
  308MOL0     H41551   7.024   2.349   7.633  1.9305 -0.0138  0.5382
  308MOL0     H41552   7.259   2.377   7.437  1.4252 -3.3542 -0.3473
  308MOL0     H41553   7.257   2.436   7.601  1.1694 -1.4141 -0.2628
  308MOL0     H41554   7.193   2.138   7.547 -0.8057 -1.0041  3.9644
  308MOL0     H41555   7.250   2.198   7.690  0.9570 -3.5995 -0.2122
  308MOL0     H41556   7.480   2.261   7.575  1.6540 -2.1131 -0.0820
  308MOL0     H41557   7.435   2.091   7.600 -0.8519 -2.0661 -2.5091
  308MOL0     H41558   7.338   2.221   7.348  0.4452  1.1546  2.4003
  308MOL0     H41559   7.370   2.052   7.382 -1.6182 -0.4537  0.1852
  308MOL0     H41560   7.616   2.105   7.400 -2.3493 -0.4637 -0.3250
  308MOL0     H41561   7.571   2.272   7.345 -1.7552  0.7262 -0.9583
  308MOL0     H41562   6.704   2.809   7.302  1.7050 -0.3716  1.7358
  308MOL0     H41563   6.466   2.875   7.295 -0.0355  1.1498  0.4202
  308MOL0     H41564   6.043   2.622   7.533 -1.6676 -0.5605  2.2130
  308MOL0     H41565   5.818   2.605   7.478 -1.6598 -0.8426 -1.3686
  308MOL0     H41566   5.783   3.793   7.733 -1.2527  0.1281 -0.9754
  308MOL0     H41567   5.992   3.883   7.717 -3.2789 -0.0676  0.1231
  308MOL0     H41568   6.517   3.686   7.399 -1.1562 -0.5013  0.1972
  308MOL0     H41569   6.720   3.804   7.393 -0.2783 -0.1903 -1.1041
  308MOL0     H41570   6.872   3.936   7.383 -1.1864  0.3960 -2.0850
  308MOL0     H41571   6.813   4.093   7.317 -0.7178  2.4475  0.7551
  308MOL0     H41572   7.044   4.031   7.517  1.1037  1.7107 -0.4261
  308MOL0     H41573   7.001   4.198   7.461 -0.2462  0.1699  0.9254
  308MOL0     H41574   7.042   4.144   7.236  4.3715 -0.5199 -3.1027
  308MOL0     H41575   7.063   3.973   7.269  0.7501 -0.5899 -0.5048
  308MOL0     H41576   7.263   4.139   7.213  0.4528 -0.1585  0.0676
  308MOL0     H41577   7.292   4.029   7.339 -0.3604  0.2910  1.2905
  308MOL0     H41578   7.301   4.384   7.560  2.4734 -1.0247  0.2774
  308MOL0     H41579   6.573   4.105   7.662 -0.7659 -0.2961 -1.8393
  308MOL0     H41580   6.382   3.956   7.710  0.7682  3.6179  0.6864
  309MOL0     O41581  10.058  10.159   2.252 -0.1823  0.0509 -0.1340
  309MOL0     C41582  10.087  10.269   2.212  0.4849 -0.2311 -0.4041
  309MOL0     O41583   9.998  10.373   2.194  0.1759 -0.3228 -0.3573
  309MOL0     C41584   9.866  10.346   2.213  0.9158  0.3483 -0.6057
  309MOL0     C41585   9.779  10.379   2.111 -0.7573  0.5166  0.1904
  309MOL0     C41586   9.645  10.362   2.132 -0.3998  0.8841  0.5565
  309MOL0     C41587   9.585  10.329   2.248 -0.1029 -0.2406  0.1913
  309MOL0     O41588   9.448  10.343   2.258 -0.2684 -0.0828 -0.0738
  309MOL0     C41589   9.377  10.268   2.356  0.1422 -0.2699 -0.3346
  309MOL0     C41590   9.226  10.280   2.326  0.4077  0.2373 -0.4213
  309MOL0     C41591   9.194  10.267   2.176  1.3880 -0.4303  0.0615
  309MOL0     C41592   9.041  10.242   2.174  0.2410  0.3778  0.4170
  309MOL0     C41593   9.003  10.231   2.028  0.0137 -0.1140  0.3913
  309MOL0     C41594   8.862  10.198   1.988  0.2410  0.4079  0.6696
  309MOL0     C41595   8.758  10.302   2.053  0.3702  0.4106  0.9081
  309MOL0     C41596   8.612  10.277   1.997 -0.5942 -0.6670 -0.4467
  309MOL0     N41597   8.565  10.141   2.026 -0.1437  1.1943 -0.6625
  309MOL0     C41598   8.544  10.039   1.934  0.7374  0.0790  0.1590
  309MOL0     C41599   8.461   9.953   2.004 -0.4388  0.1076  0.3313
  309MOL0     C41600   8.379   9.834   1.953  0.3914  0.2272 -0.6542
  309MOL0     C41601   8.436   9.701   2.007  0.4924 -0.8070  0.3552
  309MOL0     C41602   8.403   9.578   1.931  0.5095 -0.4932 -0.5964
  309MOL0     C41603   8.258   9.532   1.919 -0.8279 -0.0505 -0.2879
  309MOL0     O41604   8.240   9.421   2.016  0.4594  0.8622 -0.6999
  309MOL0     C41605   8.116   9.365   2.006 -0.3040 -0.2986  0.1069
  309MOL0     C41606   8.100   9.231   2.054 -0.5045 -0.6519 -0.5359
  309MOL0     C41607   7.972   9.165   2.063 -0.1093 -0.7877 -0.0686
  309MOL0     C41608   7.969   9.033   2.132  0.4247 -0.7451  0.2454
  309MOL0     C41609   7.851   9.233   2.023 -0.3389 -0.5986  0.1774
  309MOL0     C41610   7.719   9.168   2.024  0.1996  0.3442 -0.2592
  309MOL0     O41611   7.619   9.262   2.005  0.4056  0.1335  0.8259
  309MOL0     C41612   7.494   9.220   1.989  0.2646  0.2637  0.3346
  309MOL0     C41613   7.430   9.163   2.100 -0.4096  0.5854 -0.0695
  309MOL0     C41614   7.297   9.129   2.081 -0.1938  0.0911  0.5741
  309MOL0     C41615   7.231   9.158   1.962 -0.3336 -0.6317 -0.0629
  309MOL0     O41616   7.093   9.125   1.933  0.6100 -1.0787 -0.0560
  309MOL0     C41617   7.032   9.003   1.973 -0.5484 -0.2144  1.1081
  309MOL0     C41618   6.881   9.014   1.925  0.5081  0.0242  0.3541
  309MOL0     C41619   6.876   8.996   1.780  0.0214 -0.0792 -0.1006
  309MOL0     C41620   6.740   9.012   1.711 -0.0746 -0.9260 -0.1354
  309MOL0     C41621   6.668   9.148   1.724 -0.1865 -0.2332 -0.1368
  309MOL0     C41622   6.552   9.180   1.628 -0.4039  0.5850 -0.2841
  309MOL0     C41623   6.420   9.110   1.669  0.5329  0.1485  0.0510
  309MOL0     C41624   6.307   9.215   1.662  0.2107  0.3691 -0.7277
  309MOL0    Cl41625   6.170   9.157   1.776  0.2529  0.2158  0.1249
  309MOL0     C41626   7.295   9.219   1.856  0.2634  0.3794 -0.4198
  309MOL0     C41627   7.432   9.243   1.868  0.4818  0.2309  0.1847
  309MOL0     O41628   7.696   9.052   2.042  0.6674  0.1060 -0.1320
  309MOL0     C41629   7.870   9.371   1.974  0.2386 -0.3861 -0.3803
  309MOL0     C41630   7.997   9.437   1.976 -0.0278 -0.0590 -0.2145
  309MOL0     N41631   8.439   9.995   2.128 -0.5736 -0.5233  0.0734
  309MOL0     N41632   8.492  10.108   2.143  0.6365 -0.3078  0.6963
  309MOL0     C41633   9.673  10.303   2.354 -0.7776 -0.2967  0.0919
  309MOL0     C41634   9.810  10.302   2.338 -1.0305 -0.4382  0.1356
  309MOL0     C41635  10.224  10.289   2.179  0.2573 -0.0729  0.5046
  309MOL0     C41636  10.329  10.198   2.224 -0.2987  0.3873 -0.1876
  309MOL0     C41637  10.463  10.233   2.201 -0.1134 -0.4206  0.1347
  309MOL0     C41638  10.503  10.359   2.149  0.5300  0.3701  1.1507
  309MOL0     O41639  10.629  10.406   2.150 -0.1562  0.6942 -0.5200
  309MOL0     C41640  10.736  10.318   2.188 -0.5210  0.6365  0.5699
  309MOL0     C41641  10.874  10.391   2.167  0.3046  1.2346 -0.2213
  309MOL0     C41642  11.005  10.317   2.158  1.0061  0.5185 -0.3655
  309MOL0     C41643  11.019  10.203   2.262  0.4078 -0.1552 -0.3927
  309MOL0     C41644  11.152  10.158   2.260 -0.2299 -0.5309 -0.3032
  309MOL0     C41645  11.264  10.114   2.240  0.1614 -0.9880 -0.4946
  309MOL0     C41646  10.399  10.439   2.097  0.7874 -0.5309  0.5978
  309MOL0     C41647  10.261  10.402   2.103  0.5822 -0.0526  0.1217
  309MOL0     H41648   9.815  10.415   2.014 -2.7604  1.1349 -0.3629
  309MOL0     H41649   9.583  10.382   2.045  2.0561  4.8092 -0.5694
  309MOL0     H41650   9.408  10.165   2.339  0.6428 -0.3287  0.8159
  309MOL0     H41651   9.403  10.292   2.460  1.4255 -0.5432 -0.5769
  309MOL0     H41652   9.183  10.194   2.378  2.0801 -1.2119 -1.3164
  309MOL0     H41653   9.189  10.378   2.358  1.4414  1.1998 -2.0639
  309MOL0     H41654   9.215  10.359   2.121 -0.8492  0.0902 -0.0168
  309MOL0     H41655   9.252  10.183   2.139  0.1979 -1.5893  0.7399
  309MOL0     H41656   9.018  10.146   2.221  2.5772 -1.3177 -1.6249
  309MOL0     H41657   8.979  10.309   2.234 -1.4720 -0.0531 -0.7867
  309MOL0     H41658   9.026  10.326   1.979  1.5122  0.2382  1.7270
  309MOL0     H41659   9.066  10.158   1.975  0.1854  1.1852 -1.2965
  309MOL0     H41660   8.856  10.206   1.879  2.9158 -0.6945  0.3702
  309MOL0     H41661   8.836  10.098   2.022  0.6166 -0.0676 -0.4127
  309MOL0     H41662   8.769  10.293   2.161  1.0403 -2.8988  0.6517
  309MOL0     H41663   8.785  10.407   2.033 -3.3286  1.0905 -1.5870
  309MOL0     H41664   8.619  10.291   1.889  1.7405  0.3921 -0.2136
  309MOL0     H41665   8.544  10.350   2.043 -0.4827 -0.6695 -0.2778
  309MOL0     H41666   8.550  10.034   1.826 -1.4540 -1.1115  0.0312
  309MOL0     H41667   8.275   9.836   1.986  0.9603  1.4601  1.2701
  309MOL0     H41668   8.381   9.831   1.844 -2.9223 -2.9077 -0.8280
  309MOL0     H41669   8.395   9.695   2.108  0.3727 -1.0330  0.2922
  309MOL0     H41670   8.545   9.711   2.010  0.5328 -1.4238  2.1152
  309MOL0     H41671   8.459   9.492   1.969  2.6763  0.8857 -0.5468
  309MOL0     H41672   8.434   9.594   1.827  1.2023  0.7948 -0.2116
  309MOL0     H41673   8.234   9.488   1.823 -1.7124 -0.6205  0.1859
  309MOL0     H41674   8.184   9.612   1.933 -2.6280 -1.8918  1.3105
  309MOL0     H41675   8.187   9.182   2.096 -0.5913  0.2350  0.7416
  309MOL0     H41676   8.062   9.013   2.185 -1.0150 -1.6303  2.6133
  309MOL0     H41677   7.881   9.029   2.198  0.7994 -6.1326  0.8498
  309MOL0     H41678   7.953   8.954   2.059  0.6530 -0.9979  0.4675
  309MOL0     H41679   7.481   9.167   2.196  1.5043  1.4461 -1.0578
  309MOL0     H41680   7.238   9.101   2.167 -0.9693  1.7354  0.6166
  309MOL0     H41681   7.083   8.918   1.926  0.7867  1.4083 -0.5234
  309MOL0     H41682   7.045   8.995   2.082  3.9128  1.2993  0.8946
  309MOL0     H41683   6.825   8.932   1.971  0.0135  0.7597  1.0911
  309MOL0     H41684   6.836   9.108   1.957 -2.3297 -0.2324 -2.3855
  309MOL0     H41685   6.909   8.899   1.741 -1.4919 -0.4511 -0.5444
  309MOL0     H41686   6.950   9.067   1.742  0.4754 -0.8819 -0.7478
  309MOL0     H41687   6.755   8.984   1.606  0.5990  1.4351 -0.7215
  309MOL0     H41688   6.666   8.941   1.747 -0.4286 -1.0026 -0.9799
  309MOL0     H41689   6.749   9.216   1.697 -0.3093 -0.3672 -0.8747
  309MOL0     H41690   6.642   9.176   1.826 -2.0353  0.8356 -0.8476
  309MOL0     H41691   6.541   9.289   1.632  1.4981  0.7742  0.8053
  309MOL0     H41692   6.577   9.154   1.524  0.4564  1.2187 -0.2486
  309MOL0     H41693   6.435   9.069   1.769  2.6265 -0.4554 -0.4572
  309MOL0     H41694   6.396   9.032   1.595 -0.6782  0.0792  0.4978
  309MOL0     H41695   6.280   9.235   1.558  0.9989  0.2037 -0.9728
  309MOL0     H41696   6.324   9.317   1.698 -1.6236  0.4302  0.0840
  309MOL0     H41697   7.229   9.243   1.773 -0.6321 -1.5785 -0.3450
  309MOL0     H41698   7.475   9.299   1.786  0.6715 -0.8077 -0.4398
  309MOL0     H41699   7.785   9.427   1.938 -0.4945 -1.8454 -1.0315
  309MOL0     H41700   8.004   9.541   1.945  2.6010  0.3184  1.3496
  309MOL0     H41701   9.640  10.291   2.457  3.4764 -1.1472  1.5406
  309MOL0     H41702   9.873  10.285   2.424  2.3137  0.7275 -1.8990
  309MOL0     H41703  10.307  10.101   2.267  2.3440 -1.5024 -2.6768
  309MOL0     H41704  10.527  10.161   2.252 -0.2388 -1.1458 -0.7030
  309MOL0     H41705  10.727  10.294   2.294  1.8088  4.0359  1.7116
  309MOL0     H41706  10.722  10.228   2.127 -0.6415  0.6427  0.5894
  309MOL0     H41707  10.892  10.475   2.235  1.5457  2.2603 -1.7296
  309MOL0     H41708  10.865  10.447   2.073 -1.8570  1.7527  0.2294
  309MOL0     H41709  11.084  10.392   2.168 -0.7460  2.1218  2.5047
  309MOL0     H41710  11.016  10.272   2.058  1.2872 -1.4284  0.4963
  309MOL0     H41711  10.953  10.116   2.262 -2.2253  1.6972  0.9948
  309MOL0     H41712  11.019  10.249   2.361 -0.2113  1.5247 -1.1220
  309MOL0     H41713  11.360  10.082   2.207  0.7004  0.7961 -0.7262
  309MOL0     H41714  10.428  10.532   2.049 -0.2258  0.2908  1.5206
  309MOL0     H41715  10.198  10.466   2.043  0.7981 -1.0469 -1.2013
  310MOL0     O41716   9.354   0.932   7.568 -0.1787  0.2712 -0.0231
  310MOL0     C41717   9.301   0.908   7.459 -0.4847 -0.5449  0.0252
  310MOL0     O41718   9.166   0.898   7.437 -0.5106 -0.0486  0.5566
  310MOL0     C41719   9.072   0.915   7.539  0.2974 -0.2986 -0.3369
  310MOL0     C41720   9.001   1.033   7.532 -0.2764  0.0716  0.2099
  310MOL0     C41721   8.894   1.055   7.619 -0.2314  0.8479 -0.2481
  310MOL0     C41722   8.845   0.952   7.706  0.8221 -1.1606  0.3901
  310MOL0     O41723   8.732   0.955   7.784  0.3616 -0.6597 -0.2807
  310MOL0     C41724   8.637   1.062   7.760  0.7032 -0.1832 -0.1880
  310MOL0     C41725   8.516   1.035   7.857  0.3106  0.7093  0.3713
  310MOL0     C41726   8.398   1.122   7.812 -0.1858  0.5482  0.5039
  310MOL0     C41727   8.304   1.136   7.934 -0.9169 -0.2724  0.1744
  310MOL0     C41728   8.160   1.181   7.900 -0.1501 -0.0094  0.1881
  310MOL0     C41729   8.056   1.177   8.009 -0.4916 -0.0535  0.1203
  310MOL0     C41730   7.920   1.152   7.941  0.3771  0.7020  0.0564
  310MOL0     C41731   7.803   1.191   8.036  0.7224 -0.6355  0.2117
  310MOL0     N41732   7.669   1.171   7.980 -0.3539  0.1730  0.4067
  310MOL0     C41733   7.606   1.048   7.951 -0.8990  0.0690 -0.6121
  310MOL0     C41734   7.483   1.078   7.903 -0.2692  0.2841 -0.2013
  310MOL0     C41735   7.380   0.964   7.855 -0.3136 -0.2061 -0.1827
  310MOL0     C41736   7.368   0.978   7.702 -0.5613  0.1492 -0.1880
  310MOL0     C41737   7.274   0.876   7.651 -0.2678  0.4195 -0.0244
  310MOL0     C41738   7.124   0.910   7.675  0.3573  0.4995  0.1677
  310MOL0     O41739   7.078   1.024   7.610  0.3849 -0.4427  0.1040
  310MOL0     C41740   6.990   1.017   7.502  0.4818  0.2753 -0.1529
  310MOL0     C41741   6.995   1.108   7.401 -1.0907 -0.9539 -0.6629
  310MOL0     C41742   6.908   1.109   7.292  0.2929 -0.0214  0.0752
  310MOL0     C41743   6.916   1.223   7.195  0.1423  0.0373 -0.6952
  310MOL0     C41744   6.800   1.023   7.294 -0.6749  0.9576 -0.0249
  310MOL0     C41745   6.692   1.020   7.192 -0.7397 -0.5021  0.2756
  310MOL0     O41746   6.567   0.979   7.222 -0.4234  0.5486 -1.1977
  310MOL0     C41747   6.469   0.954   7.129  0.3725 -0.4654 -0.8145
  310MOL0     C41748   6.407   0.829   7.114  1.2407 -0.6223 -0.1586
  310MOL0     C41749   6.301   0.814   7.026  0.2097 -0.7452  0.0709
  310MOL0     C41750   6.277   0.910   6.930  0.0047  0.4402  0.7450
  310MOL0     O41751   6.196   0.898   6.819 -0.0295  0.6712  0.7300
  310MOL0     C41752   6.146   0.762   6.782  0.0302  0.4488  0.4432
  310MOL0     C41753   6.075   0.758   6.641  0.1396  0.3059  0.2344
  310MOL0     C41754   5.934   0.807   6.646  1.0920 -0.5493  0.6212
  310MOL0     C41755   5.897   0.877   6.509 -0.0818 -0.5740 -0.1912
  310MOL0     C41756   5.755   0.947   6.506 -0.9005  0.4794  0.5466
  310MOL0     C41757   5.645   0.860   6.567 -0.4112  0.1987  0.3116
  310MOL0     C41758   5.519   0.953   6.598  0.2074  0.3681 -0.8066
  310MOL0     C41759   5.390   0.870   6.592 -0.2406 -0.8638 -0.3524
  310MOL0    Cl41760   5.371   0.759   6.730 -0.0959 -0.0947 -0.3184
  310MOL0     C41761   6.332   1.031   6.937 -0.4284  0.5341 -0.0787
  310MOL0     C41762   6.431   1.051   7.038  0.0899 -0.5861  0.2605
  310MOL0     O41763   6.734   1.037   7.076 -0.6203  0.8645  0.7566
  310MOL0     C41764   6.785   0.945   7.409 -0.0266 -0.3479 -0.7489
  310MOL0     C41765   6.881   0.938   7.507  0.1587 -0.1150 -0.3130
  310MOL0     N41766   7.471   1.216   7.910 -0.2020  0.2976  1.1415
  310MOL0     N41767   7.585   1.269   7.946 -0.0372 -1.0264  0.4723
  310MOL0     C41768   8.910   0.833   7.703  0.1927  0.3157  0.4924
  310MOL0     C41769   9.035   0.820   7.623  1.4367  0.1363  0.3042
  310MOL0     C41770   9.389   0.904   7.341  0.4775  0.0087  0.5220
  310MOL0     C41771   9.526   0.879   7.342 -0.1139  0.2406 -0.4363
  310MOL0     C41772   9.605   0.882   7.229 -0.1462 -0.6479 -0.4536
  310MOL0     C41773   9.559   0.923   7.107 -0.4879  0.1908 -0.5501
  310MOL0     O41774   9.647   0.939   6.997 -0.6925 -0.6218 -0.5337
  310MOL0     C41775   9.781   0.880   6.989  0.5744 -0.8748 -0.5277
  310MOL0     C41776   9.859   0.922   6.869  0.6524  0.2638  0.0929
  310MOL0     C41777   9.788   0.871   6.740  0.2434  0.4025  0.4514
  310MOL0     C41778   9.876   0.905   6.625 -0.2711  1.0402  0.0681
  310MOL0     C41779   9.895   1.050   6.596 -0.3091  0.0646 -0.6030
  310MOL0     C41780   9.895   1.170   6.561  0.1979 -0.2440  0.4555
  310MOL0     C41781   9.423   0.955   7.100 -0.3874 -0.1384  0.0807
  310MOL0     C41782   9.345   0.957   7.215 -0.1375  0.3984 -0.8105
  310MOL0     H41783   9.041   1.106   7.461  1.2828  0.0388  1.0104
  310MOL0     H41784   8.844   1.152   7.615 -1.7554  0.0667 -3.7623
  310MOL0     H41785   8.676   1.162   7.777  0.5042 -0.1275 -0.0562
  310MOL0     H41786   8.605   1.050   7.656 -0.9621 -1.0423  0.3834
  310MOL0     H41787   8.498   0.928   7.852  3.2224  0.1618 -0.5000
  310MOL0     H41788   8.554   1.048   7.959 -0.9510 -3.9787  1.6428
  310MOL0     H41789   8.429   1.222   7.779 -0.0537  0.0119 -1.0711
  310MOL0     H41790   8.338   1.072   7.736  0.2693 -1.5777  1.4779
  310MOL0     H41791   8.303   1.044   7.993 -1.6112  1.0730  2.4014
  310MOL0     H41792   8.355   1.209   7.997 -3.0687  1.0598  0.4633
  310MOL0     H41793   8.166   1.276   7.846  3.3036  1.6491  3.1069
  310MOL0     H41794   8.123   1.110   7.824 -4.2512  1.5077  0.4869
  310MOL0     H41795   8.081   1.098   8.080 -3.3574  0.2192  1.5681
  310MOL0     H41796   8.066   1.269   8.068 -1.3234  0.0831  0.0550
  310MOL0     H41797   7.904   1.216   7.854 -0.0161 -1.2282 -1.3463
  310MOL0     H41798   7.904   1.051   7.902 -0.1024  1.4318 -1.7397
  310MOL0     H41799   7.810   1.298   8.061 -1.6911 -0.1517 -0.9445
  310MOL0     H41800   7.810   1.141   8.133 -0.5555 -1.1059  0.0670
  310MOL0     H41801   7.649   0.949   7.963  0.8138  1.0563  2.2764
  310MOL0     H41802   7.422   0.865   7.878  0.6213  0.4093  0.8685
  310MOL0     H41803   7.280   0.967   7.899 -0.5114  4.9461 -0.4760
  310MOL0     H41804   7.469   0.970   7.660 -0.4043  2.8701 -0.5339
  310MOL0     H41805   7.331   1.076   7.669 -1.1401  1.2826  3.3795
  310MOL0     H41806   7.287   0.781   7.704 -1.3178  0.2055 -0.1285
  310MOL0     H41807   7.297   0.866   7.545 -0.4018 -0.3505  0.0086
  310MOL0     H41808   7.114   0.928   7.782 -4.5159  3.5753 -0.4765
  310MOL0     H41809   7.067   0.822   7.643  0.7694  0.0013  0.7901
  310MOL0     H41810   7.072   1.185   7.394 -0.7265 -1.4079 -2.0666
  310MOL0     H41811   6.985   1.304   7.221  1.1397 -1.4834  1.6619
  310MOL0     H41812   6.942   1.184   7.096 -0.8487  0.7090 -1.2328
  310MOL0     H41813   6.816   1.264   7.177 -0.1432  0.3945  1.4479
  310MOL0     H41814   6.424   0.751   7.187 -0.4226 -0.7062  0.1755
  310MOL0     H41815   6.254   0.716   7.032 -1.2171 -0.0767  0.1678
  310MOL0     H41816   6.226   0.688   6.793 -2.3580 -1.9624  3.1079
  310MOL0     H41817   6.080   0.718   6.858  1.2558 -3.8796 -0.7240
  310MOL0     H41818   6.137   0.813   6.571  0.5760 -0.1929  0.2233
  310MOL0     H41819   6.070   0.655   6.603  0.0876  0.4736 -0.2173
  310MOL0     H41820   5.907   0.876   6.727 -1.3645 -2.4254  1.5261
  310MOL0     H41821   5.873   0.721   6.675 -1.0002  0.5476 -0.3221
  310MOL0     H41822   5.973   0.954   6.488 -0.2739 -0.1701  0.5599
  310MOL0     H41823   5.895   0.800   6.431  1.5530 -0.4526 -0.3824
  310MOL0     H41824   5.723   0.981   6.407  0.4605  0.4387  0.0634
  310MOL0     H41825   5.760   1.041   6.560  2.4286  0.5205  0.3889
  310MOL0     H41826   5.618   0.777   6.502  0.5265  0.8545 -0.9513
  310MOL0     H41827   5.671   0.809   6.660 -2.9744  1.6512  1.9521
  310MOL0     H41828   5.514   1.032   6.523 -2.6228  1.2616  0.1945
  310MOL0     H41829   5.523   1.002   6.695  3.0316  0.2499 -0.7736
  310MOL0     H41830   5.383   0.822   6.494 -1.3745  1.4899 -1.5194
  310MOL0     H41831   5.307   0.941   6.599 -0.3928 -1.2174  2.2442
  310MOL0     H41832   6.309   1.113   6.870  0.6115  2.4207  1.7615
  310MOL0     H41833   6.476   1.150   7.036 -0.3370 -0.3925 -0.5679
  310MOL0     H41834   6.699   0.886   7.437  0.5923 -0.7531  0.3463
  310MOL0     H41835   6.870   0.887   7.602  1.7853 -0.2067 -0.1404
  310MOL0     H41836   8.887   0.756   7.776  1.8220  0.1814  0.9052
  310MOL0     H41837   9.091   0.728   7.612  1.1598  0.0726 -0.6321
  310MOL0     H41838   9.572   0.848   7.435  3.6188  1.1242 -1.8186
  310MOL0     H41839   9.709   0.852   7.236  0.1624  0.6688  1.6851
  310MOL0     H41840   9.847   0.905   7.072  3.2458 -1.2852 -2.4215
  310MOL0     H41841   9.766   0.771   6.996 -1.3433 -0.5431  2.6787
  310MOL0     H41842   9.965   0.896   6.866  0.1519 -2.0310  0.1964
  310MOL0     H41843   9.870   1.029   6.887 -1.9849  0.2334  2.7215
  310MOL0     H41844   9.691   0.920   6.724 -1.0156 -1.3568  2.1905
  310MOL0     H41845   9.768   0.764   6.750 -0.5382  0.5656  0.6822
  310MOL0     H41846   9.833   0.865   6.532  1.8326  0.3445 -0.6493
  310MOL0     H41847   9.966   0.845   6.637  0.7582  2.4713 -0.2696
  310MOL0     H41848   9.909   1.264   6.512  1.7529 -1.4595 -1.5912
  310MOL0     H41849   9.376   0.978   7.005 -3.3354  0.9068  1.6686
  310MOL0     H41850   9.244   0.998   7.218  0.7793  2.7529  0.5214
  311MOL0     O41851  10.304   0.249   0.278 -0.6574  0.6654  0.1319
  311MOL0     C41852  10.289   0.225   0.158  0.7085 -0.4193 -0.4345
  311MOL0     O41853  10.190   0.281   0.076 -0.7756  0.9380  0.9617
  311MOL0     C41854  10.078   0.339   0.128 -0.4465  0.0982 -0.0209
  311MOL0     C41855   9.988   0.275   0.210 -0.3898  0.7144 -0.3557
  311MOL0     C41856   9.873   0.333   0.261  0.2937 -0.3881 -0.3103
  311MOL0     C41857   9.853   0.469   0.242 -0.8170  0.4596  0.1519
  311MOL0     O41858   9.746   0.541   0.294 -0.0136  0.2404  0.0292
  311MOL0     C41859   9.688   0.485   0.406  0.2117  0.8366  0.5598
  311MOL0     C41860   9.604   0.592   0.478  0.3690  0.4351 -0.3930
  311MOL0     C41861   9.454   0.587   0.450  0.1811 -0.0779 -1.0600
  311MOL0     C41862   9.421   0.621   0.313  0.4535 -0.1186  0.9118
  311MOL0     C41863   9.278   0.679   0.301 -0.5321  0.6829 -0.2285
  311MOL0     C41864   9.248   0.704   0.147  0.0361  0.4585  0.1610
  311MOL0     C41865   9.093   0.712   0.140 -0.0173 -0.0425  0.0550
  311MOL0     C41866   9.035   0.733   0.003 -0.8166 -1.0319  0.1813
  311MOL0     N41867   8.892   0.747   0.010 -0.3740  0.0820  1.3121
  311MOL0     C41868   8.807   0.761  -0.099 -0.7398 -0.6210 -0.2153
  311MOL0     C41869   8.683   0.737  -0.054 -0.4621  0.1237 -0.1160
  311MOL0     C41870   8.559   0.735  -0.130  0.2565  0.0370  0.1820
  311MOL0     C41871   8.487   0.862  -0.164  0.4418  0.1925  0.1589
  311MOL0     C41872   8.439   0.935  -0.039 -0.0831  0.2117 -0.7299
  311MOL0     C41873   8.361   1.070  -0.059  0.6255  0.5266 -0.2884
  311MOL0     O41874   8.272   1.044  -0.171 -0.4727  0.1436 -0.9000
  311MOL0     C41875   8.188   1.146  -0.204  0.7157  1.2120 -0.0805
  311MOL0     C41876   8.232   1.271  -0.252 -0.6283  0.4329 -0.1161
  311MOL0     C41877   8.137   1.379  -0.276 -0.0188  0.4496 -0.2221
  311MOL0     C41878   8.176   1.520  -0.311 -0.9232  0.5825  0.4009
  311MOL0     C41879   8.000   1.350  -0.268 -0.7277 -0.1677 -0.6197
  311MOL0     C41880   7.890   1.437  -0.298  0.3718 -0.3932  0.2762
  311MOL0     O41881   7.790   1.369  -0.358  0.4184  0.0865  0.5162
  311MOL0     C41882   7.662   1.406  -0.362  0.0714  0.1724  0.5159
  311MOL0     C41883   7.583   1.347  -0.458 -0.0284  0.2168  0.2053
  311MOL0     C41884   7.458   1.404  -0.483 -0.9197  0.9151  0.0164
  311MOL0     C41885   7.396   1.496  -0.393  0.3590 -0.0489  0.7099
  311MOL0     O41886   7.262   1.532  -0.400  0.1342  0.7013  0.0344
  311MOL0     C41887   7.177   1.487  -0.507 -0.8012  0.3891 -0.2296
  311MOL0     C41888   7.040   1.542  -0.510 -0.7588  0.0670 -0.3132
  311MOL0     C41889   6.981   1.532  -0.652 -0.0929 -0.7047 -0.0009
  311MOL0     C41890   6.838   1.601  -0.649  0.3089 -0.1337 -0.1434
  311MOL0     C41891   6.748   1.576  -0.778  0.0598 -0.0998 -0.0718
  311MOL0     C41892   6.616   1.651  -0.764  0.2304  0.5220 -0.0868
  311MOL0     C41893   6.516   1.607  -0.879  0.1324 -0.4451  0.5789
  311MOL0     C41894   6.375   1.637  -0.834 -1.6430  0.5202 -0.4517
  311MOL0    Cl41895   6.256   1.568  -0.949  0.1717 -0.2620 -0.2228
  311MOL0     C41896   7.470   1.532  -0.283 -0.5833 -0.3646  0.2987
  311MOL0     C41897   7.605   1.498  -0.274  0.3400  0.3230 -0.6959
  311MOL0     O41898   7.888   1.559  -0.279 -0.5657  0.2571 -0.7432
  311MOL0     C41899   7.964   1.222  -0.226 -0.7289  0.8771 -0.1382
  311MOL0     C41900   8.054   1.120  -0.197  0.0932  0.7944  0.7459
  311MOL0     N41901   8.699   0.717   0.090  0.2974 -0.1674  0.3417
  311MOL0     N41902   8.818   0.732   0.132 -0.0644  0.5395 -0.3780
  311MOL0     C41903   9.945   0.540   0.165  0.2237 -0.1832 -0.1978
  311MOL0     C41904  10.048   0.475   0.103  0.2255 -0.5168  0.5658
  311MOL0     C41905  10.399   0.161   0.081  0.2422 -0.3087  0.9136
  311MOL0     C41906  10.530   0.160   0.133  0.1086  0.0157  0.3494
  311MOL0     C41907  10.631   0.083   0.072 -0.1133 -0.6838  0.5027
  311MOL0     C41908  10.608   0.024  -0.052 -0.3453 -0.1846  0.5109
  311MOL0     O41909  10.704  -0.034  -0.133 -0.5879 -0.5919 -0.0852
  311MOL0     C41910  10.836  -0.071  -0.085  0.5121 -0.5896  0.0388
  311MOL0     C41911  10.930   0.048  -0.072  0.0709 -0.3229 -0.2366
  311MOL0     C41912  11.080   0.023  -0.047  0.5398 -0.3372  0.5954
  311MOL0     C41913  11.099  -0.002   0.099 -0.0770 -0.8650 -0.8244
  311MOL0     C41914  11.242  -0.023   0.137 -0.6933 -0.8150  0.3932
  311MOL0     C41915  11.364  -0.028   0.161  0.6054 -0.0786  0.0801
  311MOL0     C41916  10.476   0.022  -0.104  0.5758 -0.4710 -0.7148
  311MOL0     C41917  10.372   0.084  -0.038 -0.5546 -1.1831 -0.4473
  311MOL0     H41918  10.010   0.171   0.229 -1.6117  0.2591 -1.3674
  311MOL0     H41919   9.798   0.276   0.315  0.7140 -0.8910 -0.2458
  311MOL0     H41920   9.617   0.405   0.382 -1.0071  0.8762  3.6087
  311MOL0     H41921   9.765   0.450   0.476  0.1872 -3.7527 -1.3516
  311MOL0     H41922   9.616   0.582   0.587 -0.6537  1.0478 -0.2031
  311MOL0     H41923   9.639   0.692   0.449 -2.7661  1.6891 -0.2638
  311MOL0     H41924   9.400   0.495   0.477 -1.8102  1.1971 -0.4999
  311MOL0     H41925   9.413   0.669   0.510  0.4064  0.9395 -2.2650
  311MOL0     H41926   9.493   0.698   0.285 -1.3056  0.8279 -1.2740
  311MOL0     H41927   9.441   0.539   0.243  0.7830 -0.5928  1.5503
  311MOL0     H41928   9.205   0.611   0.346  0.0541 -0.3906 -0.8613
  311MOL0     H41929   9.284   0.779   0.346 -1.5469  0.0357  1.4262
  311MOL0     H41930   9.289   0.799   0.113 -0.6100  1.2077  1.3932
  311MOL0     H41931   9.290   0.626   0.083 -1.0983  1.7793 -2.3467
  311MOL0     H41932   9.057   0.621   0.190  1.3476 -1.2415 -1.0411
  311MOL0     H41933   9.064   0.798   0.201  0.1922 -0.3080  0.5319
  311MOL0     H41934   9.062   0.651  -0.063  0.5888  0.8437 -1.6929
  311MOL0     H41935   9.077   0.827  -0.034  1.3140 -1.2853  1.7487
  311MOL0     H41936   8.830   0.797  -0.199 -3.3521 -0.9967 -1.0269
  311MOL0     H41937   8.568   0.676  -0.222 -1.0994  1.0837 -0.6542
  311MOL0     H41938   8.488   0.683  -0.065  2.4125  2.4848  5.0023
  311MOL0     H41939   8.408   0.837  -0.234  0.2798  1.1385 -0.0043
  311MOL0     H41940   8.546   0.937  -0.217  1.3936  1.3828  2.7472
  311MOL0     H41941   8.522   0.962   0.027  2.5440 -3.2337 -2.2943
  311MOL0     H41942   8.378   0.876   0.031  1.2825  0.7346  0.9661
  311MOL0     H41943   8.437   1.144  -0.085  2.7363 -1.9725 -1.8881
  311MOL0     H41944   8.297   1.091   0.026  0.1684 -1.8568  0.0262
  311MOL0     H41945   8.340   1.283  -0.264 -0.1694 -1.9855  1.0671
  311MOL0     H41946   8.126   1.551  -0.403  1.7381  0.4605 -1.1912
  311MOL0     H41947   8.162   1.591  -0.229 -0.6537  2.4950 -1.1428
  311MOL0     H41948   8.284   1.518  -0.329 -0.7450  0.4086  1.3945
  311MOL0     H41949   7.625   1.262  -0.510 -1.5194  0.0628 -0.8465
  311MOL0     H41950   7.404   1.372  -0.571 -1.9986  3.9740 -0.5730
  311MOL0     H41951   7.235   1.507  -0.598  0.8070  0.3648  0.7487
  311MOL0     H41952   7.165   1.379  -0.499  2.0067 -0.1524 -1.9761
  311MOL0     H41953   6.992   1.486  -0.430  0.8574  0.8366  1.2644
  311MOL0     H41954   7.041   1.648  -0.484 -0.8008  0.2057 -0.8692
  311MOL0     H41955   6.972   1.430  -0.688  3.3526 -0.9791 -0.4555
  311MOL0     H41956   7.044   1.589  -0.721 -1.8172  0.2600 -0.8274
  311MOL0     H41957   6.781   1.573  -0.560  0.0395  0.7525 -0.0311
  311MOL0     H41958   6.853   1.707  -0.624 -1.8878  0.0379  0.6681
  311MOL0     H41959   6.726   1.470  -0.763 -0.5229  0.0648  0.2854
  311MOL0     H41960   6.796   1.601  -0.873  1.1422  0.7686  0.6812
  311MOL0     H41961   6.572   1.631  -0.666 -0.9374 -0.4262 -0.7707
  311MOL0     H41962   6.642   1.755  -0.785 -0.7114  0.4041 -2.1514
  311MOL0     H41963   6.519   1.500  -0.900  0.4282 -0.5694  1.2418
  311MOL0     H41964   6.526   1.680  -0.959 -2.7598 -0.7624 -0.1870
  311MOL0     H41965   6.359   1.744  -0.824 -2.1840  0.3574  0.5103
  311MOL0     H41966   6.364   1.590  -0.736 -0.2618 -0.2445 -0.6257
  311MOL0     H41967   7.426   1.609  -0.220 -1.9587 -0.5269 -0.4298
  311MOL0     H41968   7.664   1.529  -0.188 -0.9237  0.8754  0.0044
  311MOL0     H41969   7.860   1.194  -0.213 -1.3170  1.5879 -2.8003
  311MOL0     H41970   8.015   1.022  -0.172  1.7610  0.2998  1.5702
  311MOL0     H41971   9.915   0.640   0.135 -2.0189 -1.0068 -0.8978
  311MOL0     H41972  10.102   0.532   0.029  1.5819 -1.7577  0.5475
  311MOL0     H41973  10.542   0.206   0.230 -0.0527  1.7035 -0.3935
  311MOL0     H41974  10.729   0.078   0.118  1.8199  2.9612 -2.5761
  311MOL0     H41975  10.829  -0.132   0.005 -1.4402 -1.6672 -0.7832
  311MOL0     H41976  10.874  -0.132  -0.168  2.9820  3.1638 -1.8569
  311MOL0     H41977  10.891   0.123  -0.003  0.1458  0.1634 -0.7165
  311MOL0     H41978  10.926   0.102  -0.167  3.4704  3.2384  1.3766
  311MOL0     H41979  11.138   0.109  -0.082  0.7377 -0.4855  0.5560
  311MOL0     H41980  11.110  -0.064  -0.106  0.7093  0.0920  0.0469
  311MOL0     H41981  11.043  -0.089   0.133 -0.3817 -0.4034 -0.1372
  311MOL0     H41982  11.059   0.087   0.148  2.1214  0.5301 -1.3931
  311MOL0     H41983  11.467  -0.033   0.191 -0.0905 -1.7664  2.5515
  311MOL0     H41984  10.453  -0.019  -0.203 -0.6350  0.8137 -1.0001
  311MOL0     H41985  10.276   0.108  -0.083 -2.2784  0.7522  3.6402
  312MOL0     O41986   6.253   1.677   7.826 -0.4870  0.1854  0.5237
  312MOL0     C41987   6.252   1.633   7.944  0.1725  0.2661  0.3104
  312MOL0     O41988   6.145   1.586   8.008  0.2840  0.3615 -0.6058
  312MOL0     C41989   6.019   1.574   7.961  0.2972 -0.4710  0.3482
  312MOL0     C41990   5.953   1.671   7.877  0.3616  0.3019 -0.3111
  312MOL0     C41991   5.816   1.656   7.850 -0.8603 -1.1505  0.7198
  312MOL0     C41992   5.750   1.536   7.884  0.3567 -0.9238 -0.6504
  312MOL0     O41993   5.615   1.521   7.864  0.2507 -0.6838 -1.3440
  312MOL0     C41994   5.557   1.580   7.747  0.1073 -0.8519  0.4869
  312MOL0     C41995   5.405   1.562   7.762  0.1855  0.8485 -0.1635
  312MOL0     C41996   5.351   1.423   7.727 -0.0728 -0.4166  0.0239
  312MOL0     C41997   5.199   1.429   7.729 -0.5820  0.7497 -0.4020
  312MOL0     C41998   5.131   1.290   7.707  0.7593  0.1377  0.4503
  312MOL0     C41999   4.982   1.312   7.728  0.2627  0.9260  0.1221
  312MOL0     C42000   4.904   1.179   7.708 -0.9029 -0.3235 -0.1465
  312MOL0     C42001   4.754   1.183   7.742  0.1030 -0.6506 -0.0780
  312MOL0     N42002   4.736   1.206   7.889 -0.7155  0.4434  0.0478
  312MOL0     C42003   4.738   1.329   7.955 -0.8356  0.6027  0.5655
  312MOL0     C42004   4.745   1.298   8.084 -0.7084 -0.9742 -0.4142
  312MOL0     C42005   4.765   1.408   8.182  0.0370  0.4744 -0.2379
  312MOL0     C42006   4.651   1.518   8.168 -0.0154 -0.3393  0.2441
  312MOL0     C42007   4.500   1.483   8.202  0.0893  0.9024 -0.1832
  312MOL0     C42008   4.452   1.356   8.140  0.2809 -0.4690  0.4002
  312MOL0     O42009   4.308   1.348   8.135  0.0080  0.1852 -0.0388
  312MOL0     C42010   4.256   1.237   8.066 -0.3230  0.5135 -0.3986
  312MOL0     C42011   4.326   1.122   8.015 -0.4294 -0.0120  0.2265
  312MOL0     C42012   4.253   1.015   7.953 -0.7130 -0.0804 -0.4913
  312MOL0     C42013   4.337   0.907   7.894  0.4236 -0.0499 -0.1926
  312MOL0     C42014   4.119   1.028   7.943  1.1779 -0.0283  0.1505
  312MOL0     C42015   4.031   0.918   7.898 -0.6811  0.3099  0.6344
  312MOL0     O42016   4.047   0.793   7.961 -0.0002 -0.0786  0.3393
  312MOL0     C42017   3.966   0.699   7.912 -0.3106 -0.2049 -0.7158
  312MOL0     C42018   3.832   0.717   7.940  0.2017  0.1668  0.1879
  312MOL0     C42019   3.744   0.607   7.917  0.7360 -1.0874 -0.5221
  312MOL0     C42020   3.782   0.500   7.842  0.0124  0.2996 -0.1060
  312MOL0     O42021   3.685   0.404   7.811  0.4079 -0.5142 -0.4906
  312MOL0     C42022   3.721   0.267   7.776 -0.1196  0.2886 -0.6583
  312MOL0     C42023   3.599   0.183   7.784  0.6707  0.2874  0.6655
  312MOL0     C42024   3.532   0.184   7.920 -0.5918  0.3247 -0.0626
  312MOL0     C42025   3.407   0.102   7.935 -1.2192 -0.3924  0.4424
  312MOL0     C42026   3.350   0.123   8.071 -0.5708 -0.0117 -0.0873
  312MOL0     C42027   3.213   0.051   8.085  0.2009  0.0626 -0.8753
  312MOL0     C42028   3.109   0.155   8.051 -0.5518  0.1552  0.1138
  312MOL0     C42029   2.979   0.090   8.020  0.4029 -0.3879 -0.3842
  312MOL0    Cl42030   2.989  -0.010   7.877  0.2373 -0.0546  0.1536
  312MOL0     C42031   3.917   0.491   7.799 -0.4557  0.0657  0.0188
  312MOL0     C42032   4.008   0.593   7.840  0.1089 -0.2928  0.4299
  312MOL0     O42033   3.953   0.942   7.810  0.2554  0.2876  0.4401
  312MOL0     C42034   4.053   1.140   7.991 -1.1336 -1.5756  0.2024
  312MOL0     C42035   4.122   1.247   8.053  0.6081  0.8622 -0.6256
  312MOL0     N42036   4.722   1.164   8.106  0.6667 -0.0609 -0.4977
  312MOL0     N42037   4.727   1.109   7.989  0.1582 -0.3632  0.4920
  312MOL0     C42038   5.817   1.431   7.949 -0.7254  0.1264 -0.6978
  312MOL0     C42039   5.950   1.454   7.993 -0.2822  0.6320  0.5638
  312MOL0     C42040   6.379   1.616   8.004 -0.8280  0.7537 -0.3457
  312MOL0     C42041   6.403   1.620   8.144  0.7025  0.1284 -0.6290
  312MOL0     C42042   6.528   1.602   8.200 -0.6290  0.1806 -0.1311
  312MOL0     C42043   6.638   1.564   8.119  0.7538  0.7068  0.4174
  312MOL0     O42044   6.753   1.536   8.185  0.3529 -0.2900 -0.9700
  312MOL0     C42045   6.866   1.490   8.105 -0.7215  0.0360 -0.7689
  312MOL0     C42046   6.994   1.479   8.192  0.2704 -0.8103  0.2760
  312MOL0     C42047   7.053   1.617   8.226 -0.4868  1.0151  1.1546
  312MOL0     C42048   7.189   1.596   8.288 -0.6040 -0.1775  0.5979
  312MOL0     C42049   7.250   1.724   8.314  0.3254 -0.2843 -0.2427
  312MOL0     C42050   7.294   1.837   8.339  0.3676  1.0777 -0.5904
  312MOL0     C42051   6.618   1.573   7.978  0.5825  0.0320 -0.7254
  312MOL0     C42052   6.494   1.592   7.926  0.0810 -0.1935  1.0351
  312MOL0     H42053   6.014   1.760   7.873  2.4218 -1.0410 -0.3845
  312MOL0     H42054   5.767   1.744   7.811  0.4029 -1.3492 -1.5026
  312MOL0     H42055   5.575   1.687   7.742  0.5723 -0.8990  1.0228
  312MOL0     H42056   5.607   1.544   7.656  1.7266  0.3451  0.8676
  312MOL0     H42057   5.382   1.584   7.867  1.1715  0.7108  0.0861
  312MOL0     H42058   5.358   1.633   7.693  0.4837 -0.0756 -1.3531
  312MOL0     H42059   5.379   1.394   7.625  1.0337  0.0755  0.1819
  312MOL0     H42060   5.385   1.341   7.791 -2.0214 -1.4144 -0.1276
  312MOL0     H42061   5.173   1.476   7.824 -1.7510 -0.7050  0.0367
  312MOL0     H42062   5.154   1.496   7.655  0.3319  1.1616 -0.5989
  312MOL0     H42063   5.141   1.252   7.605 -2.5798  1.9361 -0.7005
  312MOL0     H42064   5.173   1.212   7.771 -1.8384 -1.6887  0.1066
  312MOL0     H42065   4.979   1.357   7.828  0.7487 -2.1850  1.6564
  312MOL0     H42066   4.933   1.383   7.661 -0.5817  0.8027  0.5887
  312MOL0     H42067   4.914   1.152   7.602 -1.0019 -0.7597 -0.0459
  312MOL0     H42068   4.948   1.090   7.753  1.6839  1.4688  1.0557
  312MOL0     H42069   4.716   1.082   7.724  1.4736 -0.8272 -2.3085
  312MOL0     H42070   4.702   1.258   7.682 -0.7851  1.1395  2.7416
  312MOL0     H42071   4.765   1.426   7.915 -0.6917  0.7384  0.9940
  312MOL0     H42072   4.756   1.371   8.285  1.1144  1.1343  0.1059
  312MOL0     H42073   4.860   1.457   8.164 -0.5338  1.2062 -1.3777
  312MOL0     H42074   4.642   1.560   8.068 -1.8838  0.3267  0.6565
  312MOL0     H42075   4.670   1.603   8.234 -3.5637  0.7356  0.0560
  312MOL0     H42076   4.425   1.554   8.166 -1.2171 -0.7819 -0.9340
  312MOL0     H42077   4.487   1.488   8.311  0.3894  2.5221 -0.2052
  312MOL0     H42078   4.486   1.265   8.191 -0.1637 -1.4736 -1.0326
  312MOL0     H42079   4.488   1.355   8.037 -3.4679  0.6905 -1.0712
  312MOL0     H42080   4.433   1.119   8.031 -0.5903 -1.9355  1.2306
  312MOL0     H42081   4.351   0.817   7.954 -0.0132 -0.2667 -0.4091
  312MOL0     H42082   4.294   0.887   7.795  0.0926 -0.1268 -0.0353
  312MOL0     H42083   4.439   0.943   7.877  0.8908 -1.1361  0.2144
  312MOL0     H42084   3.787   0.802   7.990 -0.9252  0.8772 -1.9604
  312MOL0     H42085   3.639   0.613   7.944  0.5618 -1.6000 -1.0559
  312MOL0     H42086   3.757   0.276   7.673  0.2988 -0.9392 -0.6441
  312MOL0     H42087   3.801   0.220   7.834 -0.1201  1.7192  0.5438
  312MOL0     H42088   3.535   0.218   7.703 -0.3868 -5.1635 -1.2540
  312MOL0     H42089   3.617   0.084   7.743  0.0634  1.5221 -2.8942
  312MOL0     H42090   3.504   0.286   7.949 -4.1374 -0.9862  1.7659
  312MOL0     H42091   3.623   0.150   7.971 -0.0330 -0.0176 -1.2486
  312MOL0     H42092   3.339   0.144   7.860  0.5276  0.2299 -0.8731
  312MOL0     H42093   3.426  -0.004   7.912  0.3110 -0.2907  1.0835
  312MOL0     H42094   3.350   0.225   8.112  4.0095  1.0372 -2.1042
  312MOL0     H42095   3.411   0.067   8.142 -2.8573 -1.0692  1.1642
  312MOL0     H42096   3.212  -0.029   8.010  0.8568  1.1314 -2.0543
  312MOL0     H42097   3.195   0.017   8.188  1.4317 -0.1361 -0.7068
  312MOL0     H42098   3.149   0.205   7.962  2.8809 -0.6446  1.0393
  312MOL0     H42099   3.101   0.233   8.127 -3.3996  3.8144 -3.4688
  312MOL0     H42100   2.896   0.162   8.019 -1.3202 -2.2662 -2.1710
  312MOL0     H42101   2.952   0.028   8.105 -1.9146 -1.1029 -1.5525
  312MOL0     H42102   3.971   0.415   7.744  2.7850  0.9446  1.7444
  312MOL0     H42103   4.113   0.589   7.812  0.4239 -4.4841  1.5358
  312MOL0     H42104   3.949   1.169   7.977 -0.3448  1.7392  0.4932
  312MOL0     H42105   4.061   1.327   8.093 -4.1145 -2.4883 -0.4104
  312MOL0     H42106   5.770   1.340   7.985 -1.8924  0.0976 -2.2207
  312MOL0     H42107   6.009   1.384   8.051 -0.1107 -1.0364 -1.5464
  312MOL0     H42108   6.320   1.630   8.213 -1.6692  1.1815 -3.4346
  312MOL0     H42109   6.541   1.602   8.307 -0.0116  0.7871 -0.1973
  312MOL0     H42110   6.856   1.386   8.073 -0.9656  0.1750 -1.1496
  312MOL0     H42111   6.885   1.552   8.017  1.6141  0.2451 -0.1977
  312MOL0     H42112   7.056   1.420   8.124 -1.9053 -2.1758 -0.6430
  312MOL0     H42113   6.988   1.418   8.282 -2.0104 -1.0222  0.0282
  312MOL0     H42114   6.990   1.656   8.307 -0.8833  1.0228  0.8433
  312MOL0     H42115   7.064   1.679   8.137  1.6815 -0.6262  0.1661
  312MOL0     H42116   7.250   1.534   8.222 -0.0194  1.4187 -0.4044
  312MOL0     H42117   7.179   1.551   8.387 -2.8672  0.8321  0.8820
  312MOL0     H42118   7.329   1.935   8.360 -0.6587  0.9372  2.2330
  312MOL0     H42119   6.704   1.578   7.912  1.3696  1.7470  0.3468
  312MOL0     H42120   6.480   1.585   7.818  3.8710  0.1214  0.3957
  313MOL0     O42121   6.531   4.999   7.505  0.0350  0.1946 -0.4904
  313MOL0     C42122   6.545   5.116   7.542 -0.1593  0.3617 -0.3164
  313MOL0     O42123   6.454   5.182   7.620  0.4546 -0.7080  0.8578
  313MOL0     C42124   6.333   5.114   7.650 -0.1109  0.3469  0.9343
  313MOL0     C42125   6.226   5.098   7.559 -0.2744 -0.7946  0.5412
  313MOL0     C42126   6.110   5.039   7.600  0.2358  0.6756 -0.6788
  313MOL0     C42127   6.090   4.991   7.730 -0.1747 -0.6255  0.9377
  313MOL0     O42128   5.977   4.919   7.756  0.6564  0.1970  0.0794
  313MOL0     C42129   5.891   4.984   7.853 -0.0492 -0.6520 -0.1886
  313MOL0     C42130   5.819   5.107   7.783 -0.6546 -1.1459 -0.2915
  313MOL0     C42131   5.680   5.134   7.839 -0.0013 -0.1700  0.2786
  313MOL0     C42132   5.678   5.142   7.993 -0.0701  0.3852  0.3354
  313MOL0     C42133   5.534   5.158   8.052  0.3832  0.3236  0.0574
  313MOL0     C42134   5.452   5.030   8.040  0.0828  0.2889  0.1499
  313MOL0     C42135   5.299   5.049   8.065  0.2532 -0.1625 -0.1568
  313MOL0     C42136   5.279   5.088   8.211 -0.2575  0.7489 -0.0714
  313MOL0     N42137   5.136   5.074   8.258 -0.0827 -0.7844  0.5584
  313MOL0     C42138   5.023   5.151   8.226  0.3861 -0.3448 -0.2896
  313MOL0     C42139   4.924   5.099   8.300  0.0344  0.4611 -0.7974
  313MOL0     C42140   4.778   5.138   8.275  0.3923  0.2376 -0.6365
  313MOL0     C42141   4.707   5.127   8.407 -0.7264 -0.0751 -0.0337
  313MOL0     C42142   4.559   5.180   8.418  0.2344 -0.3502  0.7023
  313MOL0     C42143   4.461   5.119   8.314  0.7057  0.2931  0.4633
  313MOL0     O42144   4.448   4.981   8.345  0.4520 -0.0467  0.7341
  313MOL0     C42145   4.330   4.926   8.297 -0.6338  0.9719 -0.3625
  313MOL0     C42146   4.238   4.904   8.398 -0.2357  0.1424  0.2841
  313MOL0     C42147   4.113   4.844   8.375 -0.1402  0.3862  0.4517
  313MOL0     C42148   4.013   4.841   8.483 -0.8304  0.7709 -0.4585
  313MOL0     C42149   4.086   4.801   8.242  0.6340 -0.3601  0.8134
  313MOL0     C42150   3.945   4.744   8.206 -0.4017  0.0582 -0.4444
  313MOL0     O42151   3.927   4.709   8.077  0.3820 -0.0029  0.1137
  313MOL0     C42152   3.805   4.649   8.037 -0.7075  0.0102 -0.1128
  313MOL0     C42153   3.737   4.713   7.928 -0.5984 -0.0625 -0.4704
  313MOL0     C42154   3.617   4.655   7.878  0.3533  0.0560 -0.3996
  313MOL0     C42155   3.568   4.537   7.930  0.2989  1.1610  0.4279
  313MOL0     O42156   3.460   4.465   7.883 -0.3613  0.2093  0.5172
  313MOL0     C42157   3.342   4.534   7.849  0.3542  0.5106  0.1711
  313MOL0     C42158   3.272   4.632   7.953  0.5203  0.4715 -0.2897
  313MOL0     C42159   3.204   4.546   8.066 -0.0239 -0.0645 -0.2821
  313MOL0     C42160   3.285   4.543   8.188  0.1987  0.8761 -0.1428
  313MOL0     C42161   3.207   4.471   8.307  0.4013  0.4423  0.6087
  313MOL0     C42162   3.198   4.310   8.291  0.3587 -0.2218 -0.5481
  313MOL0     C42163   3.335   4.244   8.288 -0.2989 -0.7690  0.3766
  313MOL0     C42164   3.346   4.098   8.290  0.3324 -0.4476  0.8085
  313MOL0    Cl42165   3.278   4.028   8.136  0.0569  0.1235  0.1357
  313MOL0     C42166   3.636   4.482   8.033 -0.1498  0.2305 -0.3010
  313MOL0     C42167   3.749   4.539   8.092 -0.2465  0.6096 -0.2202
  313MOL0     O42168   3.871   4.705   8.296  0.6394 -0.3945 -0.0677
  313MOL0     C42169   4.182   4.828   8.137 -0.4480  0.4627 -0.0711
  313MOL0     C42170   4.305   4.889   8.161 -0.2123 -0.4419  0.2957
  313MOL0     N42171   4.968   4.988   8.360 -0.1012 -0.3636 -0.1568
  313MOL0     N42172   5.091   4.975   8.338  0.1597 -0.1944  0.3293
  313MOL0     C42173   6.201   5.001   7.817 -0.4397 -0.6500 -0.2416
  313MOL0     C42174   6.318   5.053   7.775  0.2920 -0.8745 -0.4390
  313MOL0     C42175   6.648   5.198   7.478 -1.2534  0.4625 -0.2194
  313MOL0     C42176   6.697   5.166   7.349  0.2535  0.1478 -0.5363
  313MOL0     C42177   6.797   5.243   7.286  0.4111  0.0866 -0.4324
  313MOL0     C42178   6.852   5.353   7.349 -0.4885  0.8629 -1.0403
  313MOL0     O42179   6.950   5.438   7.305 -0.0633  1.0586  0.1634
  313MOL0     C42180   7.028   5.392   7.189 -0.1766  0.0758  0.5010
  313MOL0     C42181   7.166   5.453   7.153  0.2537  0.1468 -0.1694
  313MOL0     C42182   7.164   5.597   7.098 -0.4041 -0.4383  0.2607
  313MOL0     C42183   7.305   5.658   7.065  0.0951 -0.4924  0.1686
  313MOL0     C42184   7.361   5.604   6.935  0.2680  0.6236  0.2847
  313MOL0     C42185   7.415   5.573   6.830 -0.2634  0.2186  0.1385
  313MOL0     C42186   6.805   5.382   7.479 -0.2679  0.7881 -0.0645
  313MOL0     C42187   6.700   5.304   7.537 -0.6188 -0.4775 -0.3784
  313MOL0     H42188   6.227   5.130   7.455  0.7390 -0.3569  0.6739
  313MOL0     H42189   6.030   5.026   7.529 -0.1155 -2.2677  0.1443
  313MOL0     H42190   5.814   4.910   7.877 -1.6679  0.1888 -2.4075
  313MOL0     H42191   5.943   5.015   7.944  0.4047  2.2907 -1.3365
  313MOL0     H42192   5.875   5.201   7.779  0.5133 -1.8571 -1.3188
  313MOL0     H42193   5.806   5.099   7.675  0.2230  0.2704 -0.5399
  313MOL0     H42194   5.639   5.227   7.798 -0.4124 -0.0072  1.0342
  313MOL0     H42195   5.623   5.048   7.803  1.1250 -0.6138 -0.4753
  313MOL0     H42196   5.727   5.058   8.044 -0.3163 -2.1647 -3.2654
  313MOL0     H42197   5.742   5.228   8.015  0.8924  0.1667 -1.4282
  313MOL0     H42198   5.544   5.174   8.159 -1.6756 -0.8626  0.4867
  313MOL0     H42199   5.483   5.247   8.013 -3.1391 -1.6697 -0.3555
  313MOL0     H42200   5.480   4.993   7.941  0.9465  1.8177 -0.2039
  313MOL0     H42201   5.490   4.949   8.103 -0.9283  0.6211  1.2368
  313MOL0     H42202   5.244   5.119   8.002  0.2012  2.1708  2.2971
  313MOL0     H42203   5.248   4.956   8.038  0.7967  0.2065 -2.6891
  313MOL0     H42204   5.309   5.193   8.220 -0.2641  0.9579 -1.9962
  313MOL0     H42205   5.349   5.028   8.270 -2.7268  0.1517  2.4357
  313MOL0     H42206   5.005   5.231   8.154 -2.7732 -0.2345  0.4910
  313MOL0     H42207   4.767   5.240   8.238  2.2077  0.5132 -0.4864
  313MOL0     H42208   4.738   5.068   8.201  0.6929  1.1382 -1.6683
  313MOL0     H42209   4.759   5.191   8.478 -4.0564  3.4685 -0.4473
  313MOL0     H42210   4.716   5.021   8.433 -2.5741 -0.7299 -1.7381
  313MOL0     H42211   4.568   5.286   8.393 -0.8291 -0.5364 -0.6168
  313MOL0     H42212   4.533   5.160   8.522  0.7212 -0.1588  0.8603
  313MOL0     H42213   4.506   5.138   8.216  2.9207  2.1912  1.7421
  313MOL0     H42214   4.366   5.173   8.322  1.2173  1.3643 -0.3544
  313MOL0     H42215   4.271   4.928   8.499  0.2152 -0.2864  0.2418
  313MOL0     H42216   3.920   4.885   8.448 -3.1023 -2.0762  1.5433
  313MOL0     H42217   4.003   4.738   8.517 -0.7304  1.3521  1.4550
  313MOL0     H42218   4.053   4.893   8.571  1.5231 -1.7844  0.1399
  313MOL0     H42219   3.769   4.805   7.881 -1.6116 -1.2074 -3.7142
  313MOL0     H42220   3.569   4.702   7.793 -4.7307 -0.0618  2.0826
  313MOL0     H42221   3.352   4.583   7.752 -0.5166 -1.0571 -0.7479
  313MOL0     H42222   3.270   4.456   7.825 -2.1473  2.8754 -0.5642
  313MOL0     H42223   3.340   4.709   7.992  1.2675 -0.8190  1.0922
  313MOL0     H42224   3.190   4.683   7.902 -1.6557 -1.4919  0.9769
  313MOL0     H42225   3.214   4.444   8.029  3.2420  0.1595 -0.3816
  313MOL0     H42226   3.101   4.577   8.085  0.4784  1.6807 -0.1989
  313MOL0     H42227   3.381   4.493   8.172  1.2941  1.7233  3.0498
  313MOL0     H42228   3.305   4.647   8.218 -0.2473  1.1290 -0.7012
  313MOL0     H42229   3.101   4.499   8.313  0.2736 -0.4235  3.8806
  313MOL0     H42230   3.250   4.497   8.404 -0.2743 -0.7288  1.2430
  313MOL0     H42231   3.144   4.280   8.381  1.0617  1.8834  0.6484
  313MOL0     H42232   3.147   4.298   8.195 -1.1825  2.3245 -0.1528
  313MOL0     H42233   3.394   4.281   8.373  0.2695 -1.0673  0.1217
  313MOL0     H42234   3.390   4.273   8.197  1.7240  0.7273  1.9742
  313MOL0     H42235   3.288   4.057   8.374 -0.1691  0.7836  1.0802
  313MOL0     H42236   3.448   4.059   8.294  1.1000  1.2318 -0.9981
  313MOL0     H42237   3.610   4.390   8.084  3.0281 -0.1114  0.9280
  313MOL0     H42238   3.795   4.486   8.175  0.3351 -2.1251 -2.1653
  313MOL0     H42239   4.169   4.804   8.032  1.7792 -2.3550  0.1421
  313MOL0     H42240   4.378   4.909   8.083 -0.2559  1.2425  0.6533
  313MOL0     H42241   6.197   4.951   7.914 -2.1487  0.8430  0.5147
  313MOL0     H42242   6.403   5.064   7.841 -0.6098 -2.3583  1.0087
  313MOL0     H42243   6.661   5.080   7.295  0.5968 -2.3507  2.8705
  313MOL0     H42244   6.820   5.210   7.185 -3.5700 -1.0316 -1.1389
  313MOL0     H42245   7.039   5.283   7.180 -0.1168  0.2365 -3.8604
  313MOL0     H42246   6.960   5.412   7.105 -1.0372 -1.0023  0.9093
  313MOL0     H42247   7.228   5.393   7.085  1.0854 -0.1720  0.8385
  313MOL0     H42248   7.225   5.447   7.244  0.7003 -0.0985 -0.4694
  313MOL0     H42249   7.135   5.664   7.180 -0.4545  1.0526 -0.9372
  313MOL0     H42250   7.087   5.594   7.021 -0.1864 -2.2922  0.0812
  313MOL0     H42251   7.375   5.644   7.148 -0.6749 -1.9795  0.6091
  313MOL0     H42252   7.283   5.764   7.051  0.8154 -0.0546  2.1037
  313MOL0     H42253   7.468   5.561   6.738  1.3890 -1.5815  1.2651
  313MOL0     H42254   6.841   5.467   7.535  1.2243 -0.1622  0.4662
  313MOL0     H42255   6.667   5.326   7.638 -0.4467 -0.8061 -0.2475
  314MOL0     O42256   3.188   8.002   4.356  0.3709 -0.0833 -0.0996
  314MOL0     C42257   3.220   8.006   4.472 -0.0740  0.1090 -0.9881
  314MOL0     O42258   3.135   7.998   4.575 -0.0090  0.1024 -0.2224
  314MOL0     C42259   2.998   7.974   4.544 -0.3707  0.2679  0.7279
  314MOL0     C42260   2.946   7.848   4.563 -0.3126  0.2868 -0.1436
  314MOL0     C42261   2.808   7.824   4.533  0.2381  0.3721 -0.0711
  314MOL0     C42262   2.724   7.932   4.496  0.0214 -0.9050 -0.4416
  314MOL0     O42263   2.589   7.909   4.495  0.3280 -0.1435  0.5755
  314MOL0     C42264   2.482   8.003   4.454  0.1147 -0.2027 -0.2921
  314MOL0     C42265   2.446   7.979   4.316 -0.1365 -0.1522  0.3520
  314MOL0     C42266   2.302   8.013   4.295 -0.5140 -0.0412  0.7630
  314MOL0     C42267   2.218   7.885   4.323 -0.1042  0.2760 -0.5554
  314MOL0     C42268   2.069   7.903   4.277  0.8565 -0.6030 -0.7468
  314MOL0     C42269   1.990   8.001   4.374 -0.8579  0.0747  0.9166
  314MOL0     C42270   1.861   8.064   4.315  0.6523  0.5620  0.2201
  314MOL0     C42271   1.755   7.963   4.281  0.7826 -0.6459 -0.1784
  314MOL0     N42272   1.628   8.035   4.270  0.3393 -0.4080  0.4400
  314MOL0     C42273   1.609   8.150   4.189  0.0396 -0.1008  0.0694
  314MOL0     C42274   1.481   8.179   4.206  0.1488  0.2718 -0.3688
  314MOL0     C42275   1.418   8.295   4.163 -0.2020 -0.3033 -0.4120
  314MOL0     C42276   1.367   8.292   4.009  0.0371  0.3171 -0.5130
  314MOL0     C42277   1.451   8.229   3.903 -0.2570  0.3832 -0.1624
  314MOL0     C42278   1.581   8.292   3.887 -0.2347 -0.4100  0.2445
  314MOL0     O42279   1.690   8.197   3.888  0.5821  0.0008  0.2156
  314MOL0     C42280   1.808   8.222   3.823 -0.8078  0.5067 -0.2270
  314MOL0     C42281   1.922   8.167   3.878 -0.0924  0.9632 -0.0154
  314MOL0     C42282   2.047   8.186   3.821  0.5590  0.4039  0.0981
  314MOL0     C42283   2.157   8.101   3.885 -0.1393 -0.1187  0.1572
  314MOL0     C42284   2.067   8.280   3.717  0.6986 -0.1819  0.6372
  314MOL0     C42285   2.198   8.293   3.635 -0.4529 -0.7223 -0.4682
  314MOL0     O42286   2.186   8.354   3.521  0.4816  0.1240 -0.2633
  314MOL0     C42287   2.286   8.389   3.439 -0.5656 -0.4188 -0.0323
  314MOL0     C42288   2.383   8.302   3.398 -0.0358  0.5198  0.6164
  314MOL0     C42289   2.490   8.347   3.317 -0.3715  0.0402 -0.0951
  314MOL0     C42290   2.491   8.479   3.260 -0.1474  0.5967 -0.1969
  314MOL0     O42291   2.588   8.510   3.172 -0.1850  0.4558  0.5292
  314MOL0     C42292   2.666   8.627   3.204 -0.6383  0.0330  0.1723
  314MOL0     C42293   2.808   8.626   3.146  0.0957  0.3873  0.1647
  314MOL0     C42294   2.884   8.496   3.166 -0.3722  0.5908  0.6207
  314MOL0     C42295   2.915   8.457   3.319 -0.5145  0.8632  0.1066
  314MOL0     C42296   2.949   8.315   3.329  0.2664  0.4249 -0.0119
  314MOL0     C42297   3.002   8.268   3.468  0.8529  0.7389  0.0484
  314MOL0     C42298   2.954   8.120   3.494  0.1164 -0.6609  0.4249
  314MOL0     C42299   2.983   8.067   3.633  0.0442  0.0604  0.1323
  314MOL0    Cl42300   3.159   8.083   3.669  0.2069 -0.0808 -0.1184
  314MOL0     C42301   2.388   8.565   3.309  0.0546 -0.3478  0.4860
  314MOL0     C42302   2.287   8.522   3.399  0.5266 -0.8772 -0.3484
  314MOL0     O42303   2.296   8.245   3.694 -0.8792 -0.0715  0.0537
  314MOL0     C42304   1.953   8.337   3.658  0.0865  0.0997 -0.2625
  314MOL0     C42305   1.827   8.315   3.720 -0.0107 -0.2976  0.5709
  314MOL0     N42306   1.416   8.093   4.292 -0.9264  0.4684 -0.1367
  314MOL0     N42307   1.511   8.021   4.344  0.4233  0.3463  0.0629
  314MOL0     C42308   2.778   8.059   4.478 -0.1140  0.4903 -0.2596
  314MOL0     C42309   2.917   8.079   4.503  0.1403  0.2502  0.3152
  314MOL0     C42310   3.367   8.015   4.509  0.4951 -0.5610  0.4315
  314MOL0     C42311   3.408   8.083   4.626 -0.4834  0.1940 -0.3731
  314MOL0     C42312   3.544   8.117   4.640 -0.4337  0.1045  0.4607
  314MOL0     C42313   3.641   8.085   4.549 -0.2795  0.5532 -0.4144
  314MOL0     O42314   3.773   8.128   4.555  0.6716  0.1552  0.6646
  314MOL0     C42315   3.815   8.189   4.672 -0.1995 -0.2950 -0.4816
  314MOL0     C42316   3.946   8.249   4.657 -0.8101  0.3851 -0.3878
  314MOL0     C42317   4.068   8.156   4.684  0.0394 -1.1841 -0.4137
  314MOL0     C42318   4.212   8.219   4.649 -0.0824  0.8565  0.3649
  314MOL0     C42319   4.251   8.346   4.719  0.6894 -0.3168 -0.4421
  314MOL0     C42320   4.283   8.434   4.799  0.2517 -0.4027 -0.0552
  314MOL0     C42321   3.601   8.021   4.431 -0.2592 -0.0092 -0.1655
  314MOL0     C42322   3.466   7.979   4.413 -1.0155  1.4377 -0.1293
  314MOL0     H42323   3.014   7.782   4.617 -0.4479  0.3593  0.1152
  314MOL0     H42324   2.765   7.726   4.546  2.4808 -0.9614 -1.8401
  314MOL0     H42325   2.396   7.982   4.519 -2.1562  2.6964 -2.0699
  314MOL0     H42326   2.508   8.109   4.466 -0.1717 -0.2688  1.0434
  314MOL0     H42327   2.505   8.043   4.249 -3.6032  1.2906 -1.5892
  314MOL0     H42328   2.476   7.880   4.280 -3.1431 -0.9297 -0.3006
  314MOL0     H42329   2.278   8.096   4.363  0.3710  2.6969 -2.0424
  314MOL0     H42330   2.293   8.049   4.193  1.3554 -0.7421  0.3187
  314MOL0     H42331   2.266   7.801   4.271 -3.6250 -1.9861 -0.5265
  314MOL0     H42332   2.225   7.869   4.431  5.1417  1.2852 -0.4814
  314MOL0     H42333   2.074   7.948   4.178 -1.1412 -2.3809 -1.7438
  314MOL0     H42334   2.016   7.808   4.269  1.4047 -0.8640 -1.4141
  314MOL0     H42335   1.971   7.939   4.462 -0.0567 -0.5142  0.6850
  314MOL0     H42336   2.056   8.085   4.396  1.7786 -1.7994  0.7448
  314MOL0     H42337   1.824   8.129   4.394  3.6227  1.6770  0.8455
  314MOL0     H42338   1.893   8.124   4.229 -1.3928 -2.3718 -2.8407
  314MOL0     H42339   1.756   7.894   4.366  1.9507  1.1707  1.3439
  314MOL0     H42340   1.777   7.913   4.186  0.6841  0.2918 -0.7072
  314MOL0     H42341   1.671   8.230   4.151 -0.9357  1.1612  1.0417
  314MOL0     H42342   1.326   8.304   4.222  1.1614  1.6836  1.5337
  314MOL0     H42343   1.478   8.380   4.196  0.1455 -1.3928  1.9584
  314MOL0     H42344   1.328   8.391   3.985 -3.4832 -0.6121  0.6735
  314MOL0     H42345   1.279   8.227   4.011  2.5662 -3.4736  1.4929
  314MOL0     H42346   1.395   8.226   3.809  0.8597  1.9563 -0.9160
  314MOL0     H42347   1.457   8.123   3.929  0.6680  0.1413 -1.2933
  314MOL0     H42348   1.598   8.362   3.969 -1.1503 -1.5144  1.4180
  314MOL0     H42349   1.578   8.350   3.794 -0.5536  1.1014  1.1668
  314MOL0     H42350   1.915   8.097   3.961  0.8472  0.6413 -0.1992
  314MOL0     H42351   2.197   8.037   3.805  1.0203 -2.1493  2.2327
  314MOL0     H42352   2.240   8.159   3.927 -0.1437  0.9506 -1.2530
  314MOL0     H42353   2.116   8.035   3.962  0.8485 -3.4912 -2.0006
  314MOL0     H42354   2.391   8.200   3.433  4.2344 -0.3525 -2.0535
  314MOL0     H42355   2.568   8.278   3.287 -1.5564 -0.4884 -2.0858
  314MOL0     H42356   2.619   8.722   3.178  0.0892  1.7020  4.2105
  314MOL0     H42357   2.661   8.639   3.313 -0.6341 -0.0378  0.1810
  314MOL0     H42358   2.807   8.646   3.038  0.4263 -2.8693 -0.5390
  314MOL0     H42359   2.861   8.702   3.205  1.1579 -0.6963  0.6422
  314MOL0     H42360   2.978   8.491   3.109 -0.0825 -2.4931  1.1488
  314MOL0     H42361   2.828   8.412   3.123  1.1882  0.4025 -1.1893
  314MOL0     H42362   3.006   8.512   3.346  0.1348 -0.1065 -0.0939
  314MOL0     H42363   2.825   8.474   3.379 -1.7917  2.1196 -2.0269
  314MOL0     H42364   3.025   8.302   3.252 -0.8024  1.3716 -1.2728
  314MOL0     H42365   2.858   8.261   3.302  1.0894  0.2415 -2.7173
  314MOL0     H42366   3.112   8.266   3.466  0.8310 -0.5477 -1.6249
  314MOL0     H42367   2.976   8.332   3.553  0.0448 -2.2101  2.1938
  314MOL0     H42368   3.002   8.065   3.413 -1.2514  1.5698 -2.0701
  314MOL0     H42369   2.849   8.113   3.463  0.6683  2.5066 -2.8608
  314MOL0     H42370   2.956   7.961   3.634 -0.7535  0.2602  1.3985
  314MOL0     H42371   2.915   8.120   3.699 -1.7571 -0.9924 -0.7817
  314MOL0     H42372   2.376   8.668   3.274  0.7345 -0.9314 -1.6122
  314MOL0     H42373   2.217   8.600   3.429  0.6954  0.0447 -2.1808
  314MOL0     H42374   1.949   8.404   3.573 -0.1564  1.2374  0.6079
  314MOL0     H42375   1.744   8.357   3.664 -0.1602  1.0697  1.7547
  314MOL0     H42376   2.714   8.137   4.439  1.7178 -0.0628 -5.0009
  314MOL0     H42377   2.950   8.181   4.491  1.3027 -0.1108  0.3749
  314MOL0     H42378   3.326   8.094   4.697 -2.1176 -0.3980 -2.0723
  314MOL0     H42379   3.569   8.174   4.729 -0.3477 -1.4306  1.4579
  314MOL0     H42380   3.752   8.272   4.707 -0.3381 -1.4886  2.3692
  314MOL0     H42381   3.813   8.122   4.758 -2.4715  0.7483  0.3646
  314MOL0     H42382   3.954   8.325   4.736 -2.1783 -0.5908  0.7336
  314MOL0     H42383   3.956   8.288   4.555 -1.0511  0.5331 -0.3544
  314MOL0     H42384   4.044   8.065   4.628 -1.0965 -0.3924 -1.2446
  314MOL0     H42385   4.070   8.117   4.786  0.3457  0.0180  0.0530
  314MOL0     H42386   4.199   8.241   4.542 -0.6008  2.3804  0.7093
  314MOL0     H42387   4.293   8.149   4.673 -1.3805 -0.3604  1.3647
  314MOL0     H42388   4.307   8.511   4.868 -0.9224  0.0048 -0.0717
  314MOL0     H42389   3.673   8.000   4.352  0.0923  0.9692 -0.1209
  314MOL0     H42390   3.442   7.937   4.316 -1.7104  0.9192  0.2606
  315MOL0     O42391   3.246  10.118   2.966  0.7036 -0.2185  0.2542
  315MOL0     C42392   3.233  10.047   2.866 -0.2085  0.5528 -0.1634
  315MOL0     O42393   3.123   9.983   2.845 -0.5458  0.5838  0.6595
  315MOL0     C42394   3.013  10.047   2.896  0.8827  0.1060  0.0065
  315MOL0     C42395   2.946   9.978   2.998  0.1028 -0.0868 -0.7811
  315MOL0     C42396   2.849  10.045   3.083  0.2403 -0.1361  0.1950
  315MOL0     C42397   2.809  10.167   3.044  0.5842 -0.3490  0.2093
  315MOL0     O42398   2.729  10.242   3.128 -0.2218 -0.2028  0.2069
  315MOL0     C42399   2.633  10.183   3.219  0.3152  0.1755 -0.3360
  315MOL0     C42400   2.538  10.297   3.268 -0.2126 -0.3128 -0.2320
  315MOL0     C42401   2.412  10.337   3.189 -0.6583 -0.0924  0.6776
  315MOL0     C42402   2.297  10.353   3.286  0.2979  0.2874  0.2603
  315MOL0     C42403   2.171  10.381   3.212  0.4544 -0.8615 -0.6959
  315MOL0     C42404   2.064  10.448   3.302 -1.0029  0.0168  0.0959
  315MOL0     C42405   1.928  10.450   3.234 -0.4531 -0.7475  0.0376
  315MOL0     C42406   1.913  10.543   3.109 -0.1006  0.2903  0.2636
  315MOL0     N42407   1.764  10.535   3.071 -0.4900  0.1115 -0.7003
  315MOL0     C42408   1.694  10.413   3.054 -1.0465  0.2414  0.6181
  315MOL0     C42409   1.567  10.456   3.032 -0.5360  0.0293  0.6302
  315MOL0     C42410   1.440  10.376   3.004 -0.0339 -0.5747  0.0699
  315MOL0     C42411   1.380  10.324   3.128 -0.0758 -0.1816 -0.0482
  315MOL0     C42412   1.299  10.435   3.210 -0.3545 -0.3592 -0.7891
  315MOL0     C42413   1.195  10.368   3.293  0.4444  0.0617  0.3989
  315MOL0     O42414   1.166  10.444   3.411 -0.4284 -0.3473 -0.1539
  315MOL0     C42415   1.047  10.412   3.484  0.1537 -0.6337  0.2586
  315MOL0     C42416   1.028  10.481   3.603  0.4205 -0.7753 -0.7774
  315MOL0     C42417   0.908  10.476   3.680 -0.2368  0.4550 -0.5580
  315MOL0     C42418   0.897  10.577   3.794 -1.3028 -0.6297  0.0708
  315MOL0     C42419   0.803  10.391   3.640  0.3178  0.2256 -0.3807
  315MOL0     C42420   0.668  10.380   3.709  0.1179 -0.6329 -0.0273
  315MOL0     O42421   0.661  10.379   3.848 -0.1060  0.1279 -0.1994
  315MOL0     C42422   0.543  10.358   3.907  0.2481 -0.0629 -0.3682
  315MOL0     C42423   0.479  10.237   3.894 -0.0278 -0.3680  0.4377
  315MOL0     C42424   0.353  10.220   3.938  0.2625  0.2954 -0.3874
  315MOL0     C42425   0.295  10.328   4.008  0.1674 -0.0104  0.5380
  315MOL0     O42426   0.173  10.303   4.064  0.2839 -0.1581 -0.3523
  315MOL0     C42427   0.093  10.409   4.116  0.0051 -0.2119 -1.1442
  315MOL0     C42428  -0.044  10.368   4.119 -0.1513 -0.8689  0.1924
  315MOL0     C42429  -0.144  10.489   4.152  0.0896  0.1219  0.1964
  315MOL0     C42430  -0.284  10.449   4.211 -1.3006 -0.4628 -0.4435
  315MOL0     C42431  -0.388  10.375   4.126 -0.4881  0.0563 -1.0134
  315MOL0     C42432  -0.453  10.467   4.037 -0.0884 -0.3050 -0.3597
  315MOL0     C42433  -0.544  10.403   3.938  0.2458 -0.9504  0.0038
  315MOL0     C42434  -0.566  10.513   3.829 -0.0820 -0.5399  0.4910
  315MOL0    Cl42435  -0.423  10.617   3.764 -0.2378  0.2322  0.1088
  315MOL0     C42436   0.366  10.446   4.031  0.5183 -0.3603  0.3618
  315MOL0     C42437   0.491  10.467   3.981 -0.1850  0.3782 -0.0070
  315MOL0     O42438   0.570  10.365   3.641 -0.3067  0.1544  0.5346
  315MOL0     C42439   0.822  10.325   3.518 -0.5966  0.2588 -1.1889
  315MOL0     C42440   0.946  10.328   3.448  1.3541  0.3518 -0.1266
  315MOL0     N42441   1.564  10.588   3.030 -0.3433 -0.4915  0.3487
  315MOL0     N42442   1.674  10.640   3.056  0.0447  0.5743  0.2519
  315MOL0     C42443   2.849  10.228   2.928 -0.6648 -0.5938 -0.3470
  315MOL0     C42444   2.958  10.168   2.857 -1.0797 -0.1300 -0.1101
  315MOL0     C42445   3.352  10.024   2.776 -0.0328 -0.2170  0.0621
  315MOL0     C42446   3.478  10.074   2.798 -0.5413  0.4922  0.3673
  315MOL0     C42447   3.589  10.030   2.721  0.5865 -0.6772  0.2456
  315MOL0     C42448   3.575   9.945   2.609 -0.1341  0.5509  0.3689
  315MOL0     O42449   3.673   9.901   2.528 -0.2246  0.2878 -1.2244
  315MOL0     C42450   3.811   9.911   2.571 -0.6846 -0.6269  0.3063
  315MOL0     C42451   3.860  10.043   2.510  0.3120  0.3446  0.3497
  315MOL0     C42452   3.854  10.020   2.358 -0.2558 -0.7373 -1.2829
  315MOL0     C42453   3.912  10.139   2.292 -0.6071  0.2547 -0.2470
  315MOL0     C42454   3.915  10.116   2.143  0.3809 -0.6236 -0.0641
  315MOL0     C42455   3.896  10.100   2.022 -0.2476  0.0539  0.0561
  315MOL0     C42456   3.445   9.901   2.592  0.1739  0.1755  0.7822
  315MOL0     C42457   3.338   9.934   2.675 -1.0519 -0.1279 -0.3219
  315MOL0     H42458   2.983   9.879   3.022  1.0457  0.5401  0.4749
  315MOL0     H42459   2.823   9.991   3.173 -0.2569  0.7217  0.5752
  315MOL0     H42460   2.571  10.109   3.167 -1.3005 -0.6214  2.5073
  315MOL0     H42461   2.684  10.152   3.311 -1.0631  2.2196  1.2201
  315MOL0     H42462   2.516  10.268   3.372  0.3677 -0.3984 -0.1288
  315MOL0     H42463   2.610  10.380   3.261  2.5157 -2.6320 -1.5605
  315MOL0     H42464   2.439  10.423   3.128 -1.0763 -1.3006 -1.2913
  315MOL0     H42465   2.382  10.254   3.124 -2.2679  1.9585 -1.3487
  315MOL0     H42466   2.283  10.264   3.347  0.1915  1.2867  1.7646
  315MOL0     H42467   2.330  10.434   3.352  0.7469  2.8905 -2.8845
  315MOL0     H42468   2.188  10.455   3.133  0.1812  0.4673  0.4581
  315MOL0     H42469   2.121  10.298   3.161 -1.2714  2.2995 -4.7124
  315MOL0     H42470   2.045  10.383   3.388 -0.4769 -3.3367 -2.0954
  315MOL0     H42471   2.106  10.539   3.345  0.8655 -1.6595  2.1139
  315MOL0     H42472   1.903  10.349   3.202  2.4680 -1.2672 -0.9478
  315MOL0     H42473   1.860  10.489   3.310 -0.5963  1.6727 -1.1971
  315MOL0     H42474   1.974  10.517   3.022 -0.3518  1.9200 -0.4410
  315MOL0     H42475   1.945  10.644   3.138  0.3241 -0.2921  1.8998
  315MOL0     H42476   1.737  10.314   3.039 -1.0140  0.4206 -0.6023
  315MOL0     H42477   1.376  10.441   2.945  1.9814  0.7281 -0.7643
  315MOL0     H42478   1.449  10.286   2.943 -0.2930 -2.9374  3.2472
  315MOL0     H42479   1.461  10.286   3.190  0.4639 -1.7749 -1.6510
  315MOL0     H42480   1.314  10.239   3.107  1.0390 -0.8944 -0.7360
  315MOL0     H42481   1.267  10.501   3.129 -0.5640 -1.0801 -1.2993
  315MOL0     H42482   1.371  10.494   3.268 -1.4337 -0.5120  0.7788
  315MOL0     H42483   1.224  10.267   3.323 -2.0137 -2.1072 -3.6655
  315MOL0     H42484   1.111  10.348   3.226  2.5225 -2.1035 -1.8190
  315MOL0     H42485   1.109  10.547   3.633  0.9644 -2.4285  1.6673
  315MOL0     H42486   0.813  10.646   3.781 -2.2559 -1.7749 -0.0248
  315MOL0     H42487   0.887  10.520   3.887  2.7796  0.4327  1.3891
  315MOL0     H42488   0.989  10.631   3.816  0.2319 -1.1552 -4.1168
  315MOL0     H42489   0.523  10.156   3.836 -3.3009 -1.0506 -1.3566
  315MOL0     H42490   0.296  10.131   3.915 -0.4702  1.0765 -1.6521
  315MOL0     H42491   0.128  10.445   4.213  1.1465  0.8325 -1.9158
  315MOL0     H42492   0.112  10.491   4.047  0.2894 -0.2708 -1.1366
  315MOL0     H42493  -0.065  10.337   4.016  0.5422 -3.2661  0.7269
  315MOL0     H42494  -0.059  10.291   4.195 -2.0100 -0.0047  0.7574
  315MOL0     H42495  -0.152  10.537   4.054  2.3889  1.0708  0.4176
  315MOL0     H42496  -0.100  10.562   4.219 -2.3357  1.6229  0.2903
  315MOL0     H42497  -0.262  10.386   4.299  2.0736  2.3625  0.9964
  315MOL0     H42498  -0.323  10.540   4.257 -0.7896 -0.6350  0.3642
  315MOL0     H42499  -0.456  10.348   4.207  0.8440  2.0215  0.8654
  315MOL0     H42500  -0.325  10.302   4.075  0.9518  0.3538  0.2754
  315MOL0     H42501  -0.498  10.547   4.097 -1.5769 -2.1585  1.1616
  315MOL0     H42502  -0.370  10.503   3.977 -1.9873  2.0045 -1.7894
  315MOL0     H42503  -0.644  10.373   3.969 -2.2550  4.0807 -2.1099
  315MOL0     H42504  -0.485  10.320   3.896  1.9622  1.0720 -1.8171
  315MOL0     H42505  -0.644  10.577   3.869  0.2583 -0.5006  1.1002
  315MOL0     H42506  -0.619  10.464   3.746  0.8170 -2.9910  1.2885
  315MOL0     H42507   0.323  10.526   4.090  2.2221  0.1592  0.9800
  315MOL0     H42508   0.534  10.566   3.969  1.5590 -0.0201  2.3335
  315MOL0     H42509   0.735  10.272   3.481 -0.5274 -2.6198  2.2330
  315MOL0     H42510   0.943  10.274   3.354 -2.8495  0.2769 -0.1047
  315MOL0     H42511   2.813  10.326   2.898 -0.2192 -0.3621 -0.1433
  315MOL0     H42512   2.996  10.215   2.766 -3.0564 -3.1006 -2.6766
  315MOL0     H42513   3.488  10.141   2.883 -0.9145  0.0223  0.7891
  315MOL0     H42514   3.689  10.061   2.751  0.5196 -0.2240  0.0089
  315MOL0     H42515   3.830   9.916   2.679  1.1111 -0.6821  0.0273
  315MOL0     H42516   3.863   9.824   2.530 -0.8396 -0.8991  0.6723
  315MOL0     H42517   3.962  10.063   2.541  1.7836 -2.5601 -2.0941
  315MOL0     H42518   3.791  10.124   2.535  1.3992  1.2783  0.3587
  315MOL0     H42519   3.752  10.003   2.323 -0.7118 -0.9491  0.0893
  315MOL0     H42520   3.925   9.938   2.343 -0.9696 -1.6162 -0.0283
  315MOL0     H42521   4.016  10.146   2.323 -0.3232  0.8239 -1.3167
  315MOL0     H42522   3.855  10.231   2.307  2.9239  2.5767 -0.0084
  315MOL0     H42523   3.863  10.082   1.922  1.9606 -2.3168 -0.3479
  315MOL0     H42524   3.422   9.829   2.514  0.0269  1.2448 -0.1827
  315MOL0     H42525   3.244   9.883   2.655 -1.6832  0.0420  1.9856
  316MOL0     O42526   8.519   9.577   3.752 -1.0427  0.3859 -0.2704
  316MOL0     C42527   8.511   9.676   3.822 -0.8870  0.3775 -0.1880
  316MOL0     O42528   8.397   9.744   3.850  0.3959  0.4202 -0.2770
  316MOL0     C42529   8.274   9.692   3.803 -1.1718 -0.4244  0.8062
  316MOL0     C42530   8.241   9.552   3.800 -0.0792 -1.1231 -0.0814
  316MOL0     C42531   8.118   9.516   3.738  0.0586 -0.1272  0.7031
  316MOL0     C42532   8.030   9.607   3.683 -0.2478 -1.3465 -0.3276
  316MOL0     O42533   7.904   9.578   3.631 -1.1004 -0.3290  0.1293
  316MOL0     C42534   7.899   9.484   3.518 -0.0407 -0.9352 -0.5082
  316MOL0     C42535   7.772   9.503   3.428 -0.1975 -0.3725 -1.1543
  316MOL0     C42536   7.785   9.635   3.347 -0.4409  0.1100 -0.6339
  316MOL0     C42537   7.702   9.647   3.220  0.2503 -0.3006  0.4803
  316MOL0     C42538   7.560   9.659   3.247 -0.5566  0.0622 -0.2795
  316MOL0     C42539   7.486   9.665   3.120  0.1500 -0.3995 -0.2692
  316MOL0     C42540   7.345   9.714   3.141 -0.6346 -0.1436  0.0275
  316MOL0     C42541   7.256   9.674   3.019 -0.3247 -0.4482 -0.6798
  316MOL0     N42542   7.302   9.707   2.884 -0.3059 -0.4779 -0.2852
  316MOL0     C42543   7.267   9.819   2.816 -0.9437 -0.5737  0.0173
  316MOL0     C42544   7.332   9.810   2.697  1.4560  1.0804 -0.4112
  316MOL0     C42545   7.336   9.912   2.586  0.0995 -0.1233  0.4909
  316MOL0     C42546   7.404  10.044   2.625  0.8380  0.6040 -0.4843
  316MOL0     C42547   7.548  10.017   2.677  0.6335 -0.3045  0.5040
  316MOL0     C42548   7.648   9.947   2.585  0.0549 -0.7196  0.5162
  316MOL0     O42549   7.778   9.953   2.644 -0.0830  0.1252 -0.0876
  316MOL0     C42550   7.818   9.865   2.741  0.6276  1.1092  0.8967
  316MOL0     C42551   7.751   9.742   2.766 -0.8228 -0.1218  0.1556
  316MOL0     C42552   7.804   9.637   2.845 -0.4543 -0.1554 -0.0560
  316MOL0     C42553   7.714   9.513   2.845 -0.3483  0.3173  0.1505
  316MOL0     C42554   7.927   9.661   2.906 -0.0116  0.0964  0.4075
  316MOL0     C42555   7.993   9.565   3.004 -0.6743  0.0779  0.3567
  316MOL0     O42556   8.116   9.618   3.038  0.1727  0.1478  0.4300
  316MOL0     C42557   8.191   9.556   3.132  1.4723 -0.2742 -0.2044
  316MOL0     C42558   8.195   9.601   3.257 -0.5503  0.3340  0.3555
  316MOL0     C42559   8.271   9.536   3.359  0.4843  0.6855  0.5895
  316MOL0     C42560   8.338   9.414   3.329 -0.4233 -0.1716  0.2924
  316MOL0     O42561   8.405   9.342   3.419 -1.1512 -0.0441 -0.2319
  316MOL0     C42562   8.344   9.341   3.548 -0.7219  0.0621  0.1489
  316MOL0     C42563   8.378   9.200   3.609  0.3918 -0.0257 -0.0697
  316MOL0     C42564   8.312   9.090   3.528  0.9916  1.0792 -1.0790
  316MOL0     C42565   8.323   8.958   3.612  0.6068  0.1196 -0.1956
  316MOL0     C42566   8.280   8.828   3.547  0.8058  0.2109  0.9127
  316MOL0     C42567   8.133   8.803   3.513 -0.2234 -1.0484  0.3981
  316MOL0     C42568   8.106   8.662   3.472 -0.6167 -0.8735 -0.1050
  316MOL0     C42569   7.951   8.630   3.462  0.0970  0.3392 -0.0010
  316MOL0    Cl42570   7.865   8.637   3.624 -0.1661  0.2702 -0.4466
  316MOL0     C42571   8.333   9.364   3.198 -0.2740  0.4095 -0.2721
  316MOL0     C42572   8.254   9.427   3.100  0.1242 -0.1801  0.2315
  316MOL0     O42573   7.953   9.454   3.031 -0.6640 -0.5129 -0.4710
  316MOL0     C42574   7.980   9.792   2.892 -0.6634 -0.6942 -0.6195
  316MOL0     C42575   7.931   9.892   2.809 -0.2638  0.2587 -0.1371
  316MOL0     N42576   7.414   9.701   2.687 -0.0337 -0.5300 -0.2028
  316MOL0     N42577   7.393   9.641   2.799 -0.0069 -0.6991 -0.2754
  316MOL0     C42578   8.066   9.744   3.676 -0.2162 -0.1187  0.0323
  316MOL0     C42579   8.184   9.783   3.742  0.1652 -0.5186  0.0665
  316MOL0     C42580   8.635   9.732   3.880  0.2550  0.1233  0.0527
  316MOL0     C42581   8.753   9.658   3.877 -0.0714 -0.3084 -0.0535
  316MOL0     C42582   8.873   9.710   3.929 -0.1900  0.5767  0.1994
  316MOL0     C42583   8.880   9.842   3.965 -0.6596  0.3672  0.3185
  316MOL0     O42584   9.000   9.904   3.995 -0.0057  0.6758 -0.7194
  316MOL0     C42585   9.132   9.837   3.982 -0.6545  0.3820 -0.2633
  316MOL0     C42586   9.243   9.930   4.024 -0.5104  0.8537 -1.0546
  316MOL0     C42587   9.232   9.975   4.167 -0.4729  0.2058 -0.3182
  316MOL0     C42588   9.351  10.071   4.195 -0.2194  0.5622  0.2152
  316MOL0     C42589   9.473   9.991   4.232  0.4454 -0.2437 -0.7690
  316MOL0     C42590   9.576   9.939   4.267 -0.4895 -0.0496 -0.7178
  316MOL0     C42591   8.762   9.915   3.969  0.1386  0.3289  0.1003
  316MOL0     C42592   8.638   9.861   3.941  0.0367  0.0424 -0.2861
  316MOL0     H42593   8.311   9.474   3.827 -1.0163 -2.2809 -0.8986
  316MOL0     H42594   8.095   9.410   3.733  3.3986 -0.9450 -0.9024
  316MOL0     H42595   7.992   9.499   3.462  0.2578  0.8145  0.4141
  316MOL0     H42596   7.898   9.380   3.552 -3.8132 -1.5794 -2.1230
  316MOL0     H42597   7.761   9.425   3.352  1.1484 -1.4437 -0.2879
  316MOL0     H42598   7.691   9.513   3.500  2.2392  1.7273  1.5556
  316MOL0     H42599   7.754   9.720   3.408 -1.7645 -0.3363 -0.6540
  316MOL0     H42600   7.887   9.635   3.308 -1.8126 -1.4587 -4.7657
  316MOL0     H42601   7.730   9.732   3.157 -2.8485 -0.7977 -1.7491
  316MOL0     H42602   7.715   9.558   3.159  2.0228  0.7923 -0.8496
  316MOL0     H42603   7.512   9.580   3.306 -1.4733  0.4202 -0.5389
  316MOL0     H42604   7.540   9.754   3.297 -0.4185 -0.2641  0.4162
  316MOL0     H42605   7.533   9.734   3.048 -1.3400 -0.0763 -0.9669
  316MOL0     H42606   7.481   9.570   3.066  0.0095 -0.5147 -0.0542
  316MOL0     H42607   7.296   9.680   3.233  0.6585  0.5755  1.0025
  316MOL0     H42608   7.333   9.822   3.136 -2.5422 -0.3211 -0.0841
  316MOL0     H42609   7.158   9.720   3.034 -0.4798 -0.3263 -1.9321
  316MOL0     H42610   7.239   9.566   3.020 -1.4411 -0.3168  1.7280
  316MOL0     H42611   7.208   9.898   2.860  0.7197  0.6564  0.1743
  316MOL0     H42612   7.379   9.868   2.496  2.5612  2.9376 -0.0075
  316MOL0     H42613   7.234   9.940   2.558  0.1213 -0.9406 -0.4453
  316MOL0     H42614   7.340  10.095   2.697 -1.7764 -0.7301 -1.7167
  316MOL0     H42615   7.415  10.112   2.540  0.2149 -0.3997 -1.4043
  316MOL0     H42616   7.538   9.973   2.777 -1.6685  0.3022  0.5836
  316MOL0     H42617   7.597  10.110   2.706  0.7783 -0.5276  0.9917
  316MOL0     H42618   7.658  10.002   2.491  2.5224 -0.9008  0.6084
  316MOL0     H42619   7.616   9.846   2.557 -1.5906  0.7250 -3.6953
  316MOL0     H42620   7.660   9.719   2.712  0.2348 -0.9351 -1.3544
  316MOL0     H42621   7.692   9.475   2.945  2.6630  1.1488  1.2669
  316MOL0     H42622   7.620   9.524   2.790  0.5584 -0.0426 -1.5368
  316MOL0     H42623   7.770   9.437   2.790  1.7253  0.3962  1.9784
  316MOL0     H42624   8.142   9.690   3.290  0.0416  0.1937  1.7440
  316MOL0     H42625   8.283   9.575   3.459 -0.0827  1.8401  0.2239
  316MOL0     H42626   8.394   9.425   3.597 -0.2694  2.2604 -3.7356
  316MOL0     H42627   8.236   9.356   3.549 -1.0955 -2.1131  2.0020
  316MOL0     H42628   8.484   9.178   3.617  0.5617 -0.5738 -2.8461
  316MOL0     H42629   8.334   9.194   3.709  1.1762  0.7732  0.3364
  316MOL0     H42630   8.358   9.081   3.430  3.8322 -0.4832  0.2803
  316MOL0     H42631   8.205   9.109   3.515 -0.2135 -3.1145  0.9531
  316MOL0     H42632   8.429   8.955   3.639  0.6793 -0.0326 -0.5010
  316MOL0     H42633   8.268   8.967   3.706 -1.4436 -0.3453 -1.2845
  316MOL0     H42634   8.307   8.750   3.619 -0.4701  2.2757  3.8390
  316MOL0     H42635   8.333   8.812   3.453 -0.5416 -1.2418  0.3686
  316MOL0     H42636   8.072   8.844   3.594 -4.3238  0.2098 -2.9823
  316MOL0     H42637   8.102   8.872   3.434  0.7872 -0.1199  0.7739
  316MOL0     H42638   8.153   8.590   3.540 -2.0769 -0.5974  1.2461
  316MOL0     H42639   8.159   8.640   3.379  0.7491 -0.3280  0.5245
  316MOL0     H42640   7.943   8.533   3.412 -0.4793  1.1454 -1.5660
  316MOL0     H42641   7.909   8.705   3.393  0.2900 -0.5067 -1.0661
  316MOL0     H42642   8.380   9.268   3.178 -1.2624 -0.2516  0.4779
  316MOL0     H42643   8.253   9.380   3.002  2.2442  2.5676 -1.2910
  316MOL0     H42644   8.062   9.823   2.956 -0.3044 -1.6765 -0.5862
  316MOL0     H42645   7.974   9.992   2.808  0.0289  0.1972  2.1558
  316MOL0     H42646   8.004   9.809   3.615 -0.8591 -0.9791 -0.2585
  316MOL0     H42647   8.220   9.885   3.734  1.5083 -0.8012  1.9888
  316MOL0     H42648   8.762   9.557   3.840 -0.6146 -0.2753 -0.2839
  316MOL0     H42649   8.958   9.642   3.923 -0.9120 -0.4171  0.9232
  316MOL0     H42650   9.124   9.752   4.049 -0.2900  2.7137  2.9844
  316MOL0     H42651   9.151   9.794   3.883  0.2038 -1.1215  0.5320
  316MOL0     H42652   9.252  10.012   3.953  0.2502 -0.2424 -2.2798
  316MOL0     H42653   9.339   9.882   4.004 -0.4943  0.7562 -0.7598
  316MOL0     H42654   9.236   9.889   4.234  1.9171  0.1730 -0.4210
  316MOL0     H42655   9.134  10.021   4.187  0.4770  2.8067 -1.1649
  316MOL0     H42656   9.319  10.139   4.274  0.8767  1.7435 -0.3252
  316MOL0     H42657   9.389  10.128   4.110  0.7462  0.1214  0.3410
  316MOL0     H42658   9.660   9.889   4.312 -1.1417  1.4143  2.4152
  316MOL0     H42659   8.773  10.010   4.020  1.6070 -0.1408  0.7151
  316MOL0     H42660   8.550   9.923   3.955 -0.1586  0.5298 -2.9718
  317MOL0     O42661   7.313   0.239   7.721  0.6481  0.6433 -0.4035
  317MOL0     C42662   7.396   0.204   7.636 -0.4130  0.3369  0.5661
  317MOL0     O42663   7.373   0.138   7.514  0.3403 -0.1225  0.1882
  317MOL0     C42664   7.240   0.128   7.492 -0.2881 -0.1121  0.5327
  317MOL0     C42665   7.168   0.241   7.432 -0.6585  0.1412 -0.3448
  317MOL0     C42666   7.025   0.227   7.410  0.0876  0.9417 -0.1616
  317MOL0     C42667   6.957   0.109   7.445 -0.2012  0.0645  0.7664
  317MOL0     O42668   6.827   0.104   7.419 -0.3473 -0.0997  1.0065
  317MOL0     C42669   6.754  -0.004   7.489 -0.2628  0.0936  0.0263
  317MOL0     C42670   6.615   0.035   7.513 -0.1957 -0.1230  0.7799
  317MOL0     C42671   6.529   0.046   7.383  1.1306  0.6429 -0.1394
  317MOL0     C42672   6.382   0.096   7.422 -0.2553  0.4686  0.2219
  317MOL0     C42673   6.281   0.103   7.303 -0.7346  0.1293  1.1975
  317MOL0     C42674   6.195  -0.023   7.298 -0.0781  1.0802 -0.6212
  317MOL0     C42675   6.082  -0.023   7.195 -0.5139  0.9724 -0.0229
  317MOL0     C42676   5.972   0.063   7.250  0.6300  0.1698  0.6693
  317MOL0     N42677   5.865   0.069   7.150  0.3803  1.0242 -0.5525
  317MOL0     C42678   5.729   0.055   7.184 -0.2755  0.4743  0.2368
  317MOL0     C42679   5.667   0.094   7.066  0.2831 -0.4516  1.0048
  317MOL0     C42680   5.514   0.093   7.048  0.1716 -0.5110  0.2355
  317MOL0     C42681   5.490   0.074   6.896  0.1817 -0.6863 -0.2408
  317MOL0     C42682   5.334   0.104   6.871 -0.6646 -0.2200  0.9376
  317MOL0     C42683   5.253  -0.023   6.899 -0.1446  0.2609  0.0281
  317MOL0     O42684   5.117   0.025   6.933  0.1469 -0.0846  0.5346
  317MOL0     C42685   5.018  -0.067   6.912 -0.1561 -0.6467  0.7589
  317MOL0     C42686   5.020  -0.203   6.905 -0.2803 -0.2713  0.4584
  317MOL0     C42687   4.905  -0.287   6.899  0.4448  0.6374 -0.4885
  317MOL0     C42688   4.945  -0.437   6.894  0.7489  0.9030 -0.7548
  317MOL0     C42689   4.773  -0.223   6.906 -0.6173 -0.7232  0.0783
  317MOL0     C42690   4.647  -0.305   6.896 -0.0432 -0.1671 -0.9663
  317MOL0     O42691   4.658  -0.427   6.828 -0.0822  0.4024  0.3676
  317MOL0     C42692   4.541  -0.505   6.826 -0.5952  0.3212  0.3677
  317MOL0     C42693   4.477  -0.532   6.701  0.2134 -0.0306  0.7296
  317MOL0     C42694   4.370  -0.616   6.696  0.9619  0.3419  0.1360
  317MOL0     C42695   4.317  -0.674   6.813 -0.1822  0.1827  0.2928
  317MOL0     O42696   4.206  -0.758   6.789  0.2179 -0.2140  0.8818
  317MOL0     C42697   4.128  -0.780   6.910  0.9717  1.0109 -0.3523
  317MOL0     C42698   3.999  -0.849   6.888  0.6259  0.1119 -0.1117
  317MOL0     C42699   3.902  -0.784   6.777 -1.0053 -0.2382 -0.4698
  317MOL0     C42700   3.747  -0.821   6.808  0.2032 -0.0838  0.3555
  317MOL0     C42701   3.653  -0.742   6.711  0.3470 -0.3988  0.3027
  317MOL0     C42702   3.507  -0.784   6.728  0.4449 -0.9881 -1.0559
  317MOL0     C42703   3.402  -0.699   6.646 -0.5168 -1.1462  0.0878
  317MOL0     C42704   3.425  -0.549   6.660  1.3125 -0.4443 -0.7694
  317MOL0    Cl42705   3.266  -0.463   6.616  0.0103 -0.3001  0.0952
  317MOL0     C42706   4.385  -0.654   6.928 -0.7662 -0.0893 -0.9366
  317MOL0     C42707   4.502  -0.577   6.936 -0.8417  0.3290 -0.8213
  317MOL0     O42708   4.547  -0.256   6.948  0.9281 -0.7186 -0.1254
  317MOL0     C42709   4.768  -0.084   6.918 -1.1426  0.7231  0.4765
  317MOL0     C42710   4.891  -0.008   6.921 -0.0775 -0.7311  0.3560
  317MOL0     N42711   5.766   0.120   6.971  0.0470  0.5105  0.5064
  317MOL0     N42712   5.885   0.101   7.022 -0.2543 -0.2902  0.0309
  317MOL0     C42713   7.029  -0.004   7.484 -0.7488  0.4990  0.4120
  317MOL0     C42714   7.168   0.012   7.506 -0.3414 -0.7590  0.8989
  317MOL0     C42715   7.543   0.234   7.668  0.7178 -0.1394 -0.0365
  317MOL0     C42716   7.591   0.240   7.801 -0.1382  0.2942  0.3356
  317MOL0     C42717   7.723   0.277   7.815 -0.9820 -0.6824 -0.2677
  317MOL0     C42718   7.816   0.292   7.713  0.3727 -0.2898  1.0699
  317MOL0     O42719   7.951   0.299   7.743  0.3849 -0.1289 -1.3175
  317MOL0     C42720   8.039   0.344   7.643 -1.0647  0.0956  0.5800
  317MOL0     C42721   8.163   0.396   7.720 -0.4119 -0.1967  0.4549
  317MOL0     C42722   8.261   0.307   7.779 -0.2739  0.4708 -0.0739
  317MOL0     C42723   8.385   0.373   7.827 -0.3788  0.2182 -0.1150
  317MOL0     C42724   8.486   0.275   7.853 -0.7541 -0.0171 -0.3490
  317MOL0     C42725   8.573   0.188   7.856  0.0000  0.6857 -0.8837
  317MOL0     C42726   7.765   0.289   7.579 -0.1941  0.1426 -0.0913
  317MOL0     C42727   7.626   0.265   7.560  0.4253 -0.2122 -0.4197
  317MOL0     H42728   7.220   0.337   7.431 -0.4946  0.0584  0.0118
  317MOL0     H42729   6.973   0.316   7.374 -0.1997  1.5630  1.7013
  317MOL0     H42730   6.756  -0.095   7.428 -1.1963 -0.1146  0.2828
  317MOL0     H42731   6.803  -0.029   7.583  1.5665  0.8950 -0.6822
  317MOL0     H42732   6.559  -0.034   7.577 -0.0941  1.0806  2.2148
  317MOL0     H42733   6.628   0.133   7.560 -0.3045  0.6469 -0.7022
  317MOL0     H42734   6.572   0.126   7.322 -1.6486  1.9608 -0.5092
  317MOL0     H42735   6.524  -0.046   7.324  0.8794  0.9237 -0.5549
  317MOL0     H42736   6.337   0.037   7.503 -2.3443  2.6282  0.7284
  317MOL0     H42737   6.389   0.199   7.458 -1.5561  0.4187  0.6634
  317MOL0     H42738   6.213   0.188   7.318 -0.5851  0.3930  0.4107
  317MOL0     H42739   6.333   0.125   7.209  0.7532  1.8396  2.3534
  317MOL0     H42740   6.239  -0.120   7.271 -0.7059  1.2578 -2.4765
  317MOL0     H42741   6.150  -0.046   7.395 -1.6008  0.2291 -1.4735
  317MOL0     H42742   6.115   0.010   7.096 -2.0025 -0.5623 -1.0884
  317MOL0     H42743   6.060  -0.130   7.181  2.7482  0.0693  1.0591
  317MOL0     H42744   6.013   0.162   7.273  3.4757 -1.0549  1.3969
  317MOL0     H42745   5.943   0.030   7.350  1.7682 -1.8032  0.3975
  317MOL0     H42746   5.684   0.047   7.283  4.3448 -3.0221  2.4395
  317MOL0     H42747   5.465   0.008   7.097 -4.3114  0.4951 -1.9238
  317MOL0     H42748   5.473   0.190   7.078  2.5384  1.1135 -1.4208
  317MOL0     H42749   5.516  -0.025   6.857  0.5107  0.2382 -2.5229
  317MOL0     H42750   5.551   0.154   6.852 -0.7029 -0.0843 -0.4044
  317MOL0     H42751   5.323   0.128   6.765 -1.1049  1.9366  1.4252
  317MOL0     H42752   5.292   0.188   6.927  0.6173  0.6474  0.6595
  317MOL0     H42753   5.296  -0.081   6.982 -1.7887  1.3103  1.6917
  317MOL0     H42754   5.253  -0.085   6.810 -1.2789  1.7416 -1.0594
  317MOL0     H42755   5.117  -0.252   6.909  0.2400  0.8330  2.6902
  317MOL0     H42756   4.877  -0.495   6.956  1.7412  0.4997 -0.0095
  317MOL0     H42757   4.925  -0.479   6.795 -1.1787 -1.5359  0.5609
  317MOL0     H42758   5.048  -0.462   6.923  0.3530 -2.3197 -1.7415
  317MOL0     H42759   4.513  -0.486   6.609 -1.7512 -0.8385 -0.5153
  317MOL0     H42760   4.308  -0.635   6.609 -0.6211 -1.9190  1.6685
  317MOL0     H42761   4.179  -0.851   6.976 -1.2107 -0.2443  0.0655
  317MOL0     H42762   4.120  -0.683   6.958  1.1272  1.7061 -1.6795
  317MOL0     H42763   4.006  -0.951   6.848 -2.2208  0.1336 -0.8901
  317MOL0     H42764   3.945  -0.849   6.983  0.1833 -0.0618 -0.3623
  317MOL0     H42765   3.925  -0.824   6.678  0.5465  0.3910 -0.3885
  317MOL0     H42766   3.915  -0.675   6.774  0.2402 -0.3763 -0.6473
  317MOL0     H42767   3.736  -0.929   6.792  0.3449 -0.3584  1.9876
  317MOL0     H42768   3.717  -0.815   6.912 -2.0062 -4.7459  0.2542
  317MOL0     H42769   3.679  -0.754   6.605  2.6507 -0.3617  0.8253
  317MOL0     H42770   3.676  -0.638   6.733  1.7503  0.0230 -2.6210
  317MOL0     H42771   3.484  -0.888   6.705 -0.5078 -0.7513 -1.2579
  317MOL0     H42772   3.487  -0.769   6.835 -0.4299  2.0126 -1.5472
  317MOL0     H42773   3.300  -0.722   6.678 -1.0247 -0.4301 -0.9893
  317MOL0     H42774   3.405  -0.735   6.543  3.2632  1.0552 -0.7688
  317MOL0     H42775   3.506  -0.522   6.592  0.6419 -1.9096 -2.2064
  317MOL0     H42776   3.452  -0.517   6.761  0.2118  1.3123 -0.9728
  317MOL0     H42777   4.360  -0.711   7.017  1.9753  2.4651  1.7007
  317MOL0     H42778   4.546  -0.574   7.036 -1.6940 -1.5398 -0.3505
  317MOL0     H42779   4.668  -0.048   6.938 -0.8049  2.7682 -1.2420
  317MOL0     H42780   4.896   0.099   6.934  4.5843 -0.4912 -1.6814
  317MOL0     H42781   6.989  -0.104   7.490  0.5755 -0.0185  1.0159
  317MOL0     H42782   7.229  -0.068   7.546  0.1657  0.3415  2.4219
  317MOL0     H42783   7.532   0.217   7.889  0.1740  0.4226  0.5838
  317MOL0     H42784   7.772   0.283   7.912 -1.3203 -0.7341 -0.0917
  317MOL0     H42785   8.054   0.265   7.569  0.6749  2.4698 -1.7481
  317MOL0     H42786   7.998   0.435   7.599 -2.4676 -0.3615  0.8677
  317MOL0     H42787   8.138   0.483   7.782  0.4226  0.4258 -0.0380
  317MOL0     H42788   8.225   0.442   7.642  1.6086 -2.0860  0.8490
  317MOL0     H42789   8.281   0.236   7.698  0.9655 -0.1045  0.7109
  317MOL0     H42790   8.220   0.251   7.863  0.4097 -0.8913 -0.6230
  317MOL0     H42791   8.368   0.435   7.915 -0.2226 -0.9487  0.7596
  317MOL0     H42792   8.424   0.436   7.746 -1.7039  0.7161 -0.3794
  317MOL0     H42793   8.654   0.118   7.857 -0.9621 -0.4706  0.3035
  317MOL0     H42794   7.827   0.308   7.492  0.9604 -1.7512  0.2658
  317MOL0     H42795   7.576   0.256   7.463  1.1924 -1.5407 -0.7262
  318MOL0     O42796   9.672   6.576   4.836 -0.5935  0.1190  0.1499
  318MOL0     C42797   9.592   6.496   4.879  0.4626 -1.0218 -0.2031
  318MOL0     O42798   9.614   6.417   4.991 -0.5701  0.4549  0.3545
  318MOL0     C42799   9.732   6.409   5.058  0.3606 -0.4356  0.1975
  318MOL0     C42800   9.840   6.496   5.063  0.5744 -0.9677  0.4391
  318MOL0     C42801   9.962   6.458   5.126 -0.5770 -0.8223 -0.8672
  318MOL0     C42802   9.989   6.334   5.183  0.3440 -0.5871  0.1787
  318MOL0     O42803  10.112   6.310   5.231 -0.6367  0.2562 -0.9560
  318MOL0     C42804  10.123   6.202   5.328  0.1131  0.2493  0.3197
  318MOL0     C42805  10.255   6.164   5.382 -0.3769  0.8880  0.0706
  318MOL0     C42806  10.339   6.276   5.429 -0.3651 -0.8294  0.3733
  318MOL0     C42807  10.474   6.221   5.485 -0.4790  0.7017  0.2042
  318MOL0     C42808  10.548   6.322   5.563 -0.8035 -0.4606 -0.8166
  318MOL0     C42809  10.685   6.277   5.625 -0.4531 -0.7667 -0.2952
  318MOL0     C42810  10.807   6.255   5.540 -0.1065 -0.3876 -0.6732
  318MOL0     C42811  10.923   6.208   5.636  0.5313  0.0454  1.2851
  318MOL0     N42812  11.036   6.161   5.560 -0.0302  0.4545 -0.3480
  318MOL0     C42813  11.101   6.228   5.459 -0.6941  0.6289  0.7537
  318MOL0     C42814  11.203   6.149   5.425 -0.0362  0.2660 -0.1622
  318MOL0     C42815  11.302   6.175   5.309  1.1002  0.7210  0.2890
  318MOL0     C42816  11.304   6.072   5.189 -0.1605  0.5998 -0.5398
  318MOL0     C42817  11.168   6.082   5.113 -0.8188  0.0835  0.0922
  318MOL0     C42818  11.051   6.020   5.187  0.4390 -0.2617  0.1778
  318MOL0     O42819  10.954   5.994   5.092  0.1529 -0.2095  0.5078
  318MOL0     C42820  10.827   5.973   5.128  0.0980 -0.3618 -0.6986
  318MOL0     C42821  10.788   5.931   5.254 -1.0033 -0.3936 -0.3021
  318MOL0     C42822  10.654   5.899   5.283 -0.2546  1.1045 -0.1734
  318MOL0     C42823  10.626   5.854   5.429 -0.4722  0.4823  0.2194
  318MOL0     C42824  10.550   5.904   5.189 -0.6963  0.2763 -0.1026
  318MOL0     C42825  10.405   5.870   5.213 -0.6778 -0.0435  0.2496
  318MOL0     O42826  10.326   5.879   5.098  0.2063  0.1707  0.1033
  318MOL0     C42827  10.191   5.871   5.114  0.4399 -0.7050 -0.3069
  318MOL0     C42828  10.121   5.779   5.191  0.8665  0.1630  0.0247
  318MOL0     C42829   9.982   5.773   5.179 -0.0307 -0.2236 -1.1348
  318MOL0     C42830   9.912   5.870   5.109 -0.4109 -0.5140 -0.8088
  318MOL0     O42831   9.774   5.857   5.104  0.4502 -0.4867 -0.2006
  318MOL0     C42832   9.713   5.727   5.100 -0.3591  0.3987  0.2328
  318MOL0     C42833   9.602   5.725   5.000 -0.0886 -0.0676 -1.2361
  318MOL0     C42834   9.505   5.845   5.008  0.6579  0.3886 -0.3292
  318MOL0     C42835   9.442   5.870   5.141  0.2365  0.0111  0.5986
  318MOL0     C42836   9.361   6.012   5.132 -0.4544 -0.4838 -0.0246
  318MOL0     C42837   9.248   6.028   5.029 -0.1193  0.3921 -0.2232
  318MOL0     C42838   9.130   5.932   5.050 -0.0539 -0.1739  0.5898
  318MOL0     C42839   9.048   5.959   5.180  0.2410  0.4270  0.2712
  318MOL0    Cl42840   8.949   6.109   5.179 -0.4512  0.0940 -0.4497
  318MOL0     C42841   9.983   5.964   5.031 -0.7541  0.8981  0.0410
  318MOL0     C42842  10.121   5.961   5.037 -0.2694 -0.0842  0.2950
  318MOL0     O42843  10.369   5.829   5.323 -0.0436  0.4375  0.4868
  318MOL0     C42844  10.591   5.948   5.064  0.2298 -0.4104  0.3946
  318MOL0     C42845  10.724   5.985   5.033  0.2453 -0.2312 -0.2079
  318MOL0     N42846  11.195   6.039   5.495  0.9723  0.5179 -0.2438
  318MOL0     N42847  11.105   6.045   5.589 -0.3453  0.2054  0.1078
  318MOL0     C42848   9.873   6.259   5.196 -0.9759 -0.1676  0.0914
  318MOL0     C42849   9.749   6.295   5.133 -0.5181  0.7011  0.1469
  318MOL0     C42850   9.466   6.471   4.808 -0.5795  0.2433  0.6746
  318MOL0     C42851   9.386   6.358   4.844  0.0894  0.0244 -0.8673
  318MOL0     C42852   9.264   6.338   4.779  0.5580 -0.3199  1.1872
  318MOL0     C42853   9.219   6.426   4.674  0.3380 -0.3979 -0.5224
  318MOL0     O42854   9.106   6.416   4.593  0.4562 -0.1681 -0.4815
  318MOL0     C42855   9.015   6.308   4.621  0.1041 -1.2064  0.2029
  318MOL0     C42856   8.881   6.330   4.552 -0.2775  0.3816  0.6033
  318MOL0     C42857   8.767   6.328   4.655  0.1212  0.1809  0.7880
  318MOL0     C42858   8.742   6.469   4.706 -0.7143  0.2047 -0.2162
  318MOL0     C42859   8.672   6.464   4.831 -0.4916  0.0139  0.3013
  318MOL0     C42860   8.613   6.477   4.934  0.2786  0.3545  0.2046
  318MOL0     C42861   9.301   6.536   4.649 -0.1832 -0.0981 -0.1643
  318MOL0     C42862   9.425   6.554   4.706  0.1049 -0.7720 -0.4281
  318MOL0     H42863   9.838   6.587   5.005 -0.4713  0.3996  2.5180
  318MOL0     H42864  10.037   6.537   5.121 -2.8702  1.5732  0.1176
  318MOL0     H42865  10.064   6.235   5.414 -0.9805  2.7377 -1.2705
  318MOL0     H42866  10.072   6.115   5.286 -0.5918  0.0132  1.6209
  318MOL0     H42867  10.231   6.089   5.458 -0.4220  0.5643 -0.2579
  318MOL0     H42868  10.310   6.120   5.298 -2.0262 -1.6502  0.1886
  318MOL0     H42869  10.360   6.341   5.343 -2.2162  0.4333  0.8155
  318MOL0     H42870  10.304   6.336   5.514 -0.4924 -0.6086  0.1664
  318MOL0     H42871  10.446   6.144   5.558  2.6218  0.4446  1.2443
  318MOL0     H42872  10.536   6.181   5.404 -0.3894  0.3273  0.4541
  318MOL0     H42873  10.567   6.411   5.503  3.4291 -1.2177 -0.9032
  318MOL0     H42874  10.478   6.350   5.642 -0.7609  2.6339 -1.7346
  318MOL0     H42875  10.718   6.354   5.695 -0.4919 -2.0891  1.2222
  318MOL0     H42876  10.658   6.189   5.684 -2.4401 -1.1322 -1.6240
  318MOL0     H42877  10.792   6.178   5.463  1.9898 -0.0483 -1.4806
  318MOL0     H42878  10.830   6.351   5.493 -0.7103 -0.6218 -1.4797
  318MOL0     H42879  10.888   6.129   5.703 -0.1540  0.8188  1.8583
  318MOL0     H42880  10.952   6.296   5.694  0.3313 -0.5275  2.2769
  318MOL0     H42881  11.070   6.311   5.397 -0.9729 -0.9913 -1.3944
  318MOL0     H42882  11.266   6.266   5.261 -2.0781 -0.2338  0.6170
  318MOL0     H42883  11.404   6.178   5.350  1.9158 -3.0173 -1.0694
  318MOL0     H42884  11.320   5.973   5.233  0.9057  2.5977  4.0660
  318MOL0     H42885  11.390   6.096   5.126 -1.4646 -1.3157 -3.2591
  318MOL0     H42886  11.169   6.030   5.016 -1.3936 -0.3907  0.3382
  318MOL0     H42887  11.137   6.185   5.092 -0.7241  0.6599  2.5605
  318MOL0     H42888  11.016   6.095   5.258 -2.8644 -3.9274  2.8319
  318MOL0     H42889  11.076   5.929   5.242 -1.7180 -0.3816  1.0584
  318MOL0     H42890  10.855   5.923   5.339 -1.0017  2.7003  0.1188
  318MOL0     H42891  10.558   5.926   5.474  0.0639  1.1957 -0.0867
  318MOL0     H42892  10.597   5.749   5.429  1.9847 -0.2966 -1.8875
  318MOL0     H42893  10.717   5.857   5.491  0.2476  0.3763 -0.8076
  318MOL0     H42894  10.178   5.711   5.254 -1.9638 -1.8642  0.6214
  318MOL0     H42895   9.926   5.704   5.242  1.5996 -0.0490  0.5807
  318MOL0     H42896   9.780   5.643   5.079  0.9485  1.4374  0.0862
  318MOL0     H42897   9.676   5.705   5.200  0.8196 -1.9591  0.2233
  318MOL0     H42898   9.643   5.721   4.899  2.4720 -0.8720 -0.2249
  318MOL0     H42899   9.538   5.637   5.015  0.9837 -0.8652 -1.2581
  318MOL0     H42900   9.424   5.830   4.935  1.0675 -0.5989 -0.5922
  318MOL0     H42901   9.561   5.932   4.971  2.5014 -0.5871  0.0503
  318MOL0     H42902   9.377   5.785   5.165 -0.5892  1.4353  4.0459
  318MOL0     H42903   9.507   5.877   5.228 -0.0703 -0.7163  0.8976
  318MOL0     H42904   9.434   6.088   5.103 -2.8792  2.4383  1.0373
  318MOL0     H42905   9.317   6.034   5.230 -1.4975  0.5552 -0.7056
  318MOL0     H42906   9.209   6.130   5.025  0.8337  0.7295 -1.8464
  318MOL0     H42907   9.288   6.016   4.928  2.6619  2.8487  0.4437
  318MOL0     H42908   9.161   5.827   5.045 -0.9445 -0.3824 -1.5395
  318MOL0     H42909   9.070   5.954   4.961  0.3871  0.7416  0.5097
  318MOL0     H42910   9.116   5.964   5.265  1.3693  0.4440 -0.5947
  318MOL0     H42911   8.979   5.875   5.184  1.8329 -1.0945 -1.7592
  318MOL0     H42912   9.921   6.030   4.971 -2.3607  1.7192  2.4545
  318MOL0     H42913  10.170   6.040   4.982  0.6637 -0.4582  0.5755
  318MOL0     H42914  10.514   5.960   4.988  0.1956  1.9208  0.7481
  318MOL0     H42915  10.762   6.014   4.936  0.5816  1.5138  0.4149
  318MOL0     H42916   9.885   6.167   5.253  1.3866  0.2192  0.3175
  318MOL0     H42917   9.666   6.225   5.137  0.5122 -0.5982 -0.4792
  318MOL0     H42918   9.420   6.289   4.921 -0.0677 -0.2849 -1.0751
  318MOL0     H42919   9.205   6.250   4.807 -5.5145  2.7595 -0.2007
  318MOL0     H42920   9.064   6.214   4.592 -0.9187 -1.8865  0.5971
  318MOL0     H42921   9.004   6.299   4.729 -0.5466 -0.7305  0.1775
  318MOL0     H42922   8.862   6.248   4.482  1.0115 -0.3096  1.0279
  318MOL0     H42923   8.890   6.432   4.513  3.2148 -0.3329 -0.8092
  318MOL0     H42924   8.780   6.257   4.737  0.5251 -0.6031  0.0587
  318MOL0     H42925   8.673   6.324   4.600  1.5933  2.4681 -2.1825
  318MOL0     H42926   8.691   6.531   4.632 -0.2169  0.9320  0.0410
  318MOL0     H42927   8.841   6.513   4.722 -0.0755 -1.1295 -0.3712
  318MOL0     H42928   8.560   6.474   5.026 -3.1437 -2.6212 -1.6095
  318MOL0     H42929   9.263   6.598   4.568 -0.7456 -1.3693 -0.8882
  318MOL0     H42930   9.494   6.635   4.684 -0.5626 -0.2345 -0.5699
  319MOL0     O42931   9.979   7.087   3.512  0.5710 -0.4526  0.4487
  319MOL0     C42932   9.973   6.971   3.466 -0.0417  0.2323 -0.3939
  319MOL0     O42933   9.859   6.909   3.417 -0.7380 -0.8243  0.3569
  319MOL0     C42934   9.738   6.960   3.404 -0.5604  0.2099  0.5317
  319MOL0     C42935   9.699   7.090   3.433 -0.8337  0.3509 -0.5944
  319MOL0     C42936   9.564   7.126   3.433  0.1366 -0.0777  0.5713
  319MOL0     C42937   9.461   7.046   3.405 -0.2181  0.0071 -0.3048
  319MOL0     O42938   9.339   7.103   3.398  0.0134 -0.0547 -0.0502
  319MOL0     C42939   9.228   7.026   3.341 -0.0165  0.3826 -0.2852
  319MOL0     C42940   9.226   7.036   3.180 -0.0334  0.1623 -0.3852
  319MOL0     C42941   9.260   7.182   3.141 -0.4430  0.0200  0.0539
  319MOL0     C42942   9.162   7.233   3.038  0.1777  0.3241 -0.1020
  319MOL0     C42943   9.183   7.373   2.990 -0.4458  0.7311 -0.1814
  319MOL0     C42944   9.081   7.414   2.883  0.0556 -1.0630  0.8445
  319MOL0     C42945   9.072   7.567   2.890 -0.5430  0.0266  0.1291
  319MOL0     C42946   8.982   7.618   3.002 -0.6270  0.1158 -0.5082
  319MOL0     N42947   8.842   7.602   2.955  0.6430  0.1964 -0.0319
  319MOL0     C42948   8.763   7.485   2.977 -0.2843 -0.6922  0.2037
  319MOL0     C42949   8.653   7.496   2.898 -0.0623 -0.0335  0.0008
  319MOL0     C42950   8.545   7.394   2.888 -0.3016 -0.7512  0.4617
  319MOL0     C42951   8.412   7.464   2.930 -0.7339 -0.1119 -0.1204
  319MOL0     C42952   8.299   7.365   2.908 -0.9623 -0.3823  0.5061
  319MOL0     C42953   8.199   7.369   3.025 -0.3960 -0.0638  0.6800
  319MOL0     O42954   8.138   7.240   3.030 -0.1491 -0.3235 -0.6998
  319MOL0     C42955   7.998   7.235   3.057  0.0051 -0.2170 -0.4230
  319MOL0     C42956   7.920   7.329   3.130  0.1637 -0.0177 -0.4902
  319MOL0     C42957   7.779   7.311   3.135  0.3658 -0.5418 -0.0217
  319MOL0     C42958   7.713   7.417   3.218  0.7183 -0.7221  0.5621
  319MOL0     C42959   7.708   7.211   3.070 -0.0220  0.5109 -1.0094
  319MOL0     C42960   7.560   7.205   3.070 -0.7643 -0.7598  0.3703
  319MOL0     O42961   7.500   7.083   3.025  0.2391 -0.3353 -0.6211
  319MOL0     C42962   7.367   7.064   3.019 -0.4067  0.2040  0.0277
  319MOL0     C42963   7.273   7.080   3.124  0.5470 -0.4362 -0.4287
  319MOL0     C42964   7.132   7.066   3.114 -0.8589  0.0670 -1.2243
  319MOL0     C42965   7.082   7.019   2.991 -0.6681 -0.9502 -0.4139
  319MOL0     O42966   6.943   7.011   2.973 -0.3843  0.5241  0.7365
  319MOL0     C42967   6.853   7.039   3.082 -0.7440  0.5873  0.9201
  319MOL0     C42968   6.718   6.981   3.058 -0.1571 -0.1700 -0.1358
  319MOL0     C42969   6.716   6.830   3.071  0.3652  0.7528 -0.1380
  319MOL0     C42970   6.826   6.754   3.157  0.0038 -0.0409 -0.3363
  319MOL0     C42971   6.797   6.602   3.160  0.3801  0.6212  0.9839
  319MOL0     C42972   6.865   6.528   3.276 -0.2484 -0.5445  0.1439
  319MOL0     C42973   6.913   6.392   3.230  0.1618  0.1742 -0.0563
  319MOL0     C42974   7.007   6.327   3.332 -0.5976  0.1817 -0.3441
  319MOL0    Cl42975   6.933   6.314   3.499  0.4763 -0.0193 -0.1196
  319MOL0     C42976   7.167   7.001   2.883 -0.3059  0.8152  0.0481
  319MOL0     C42977   7.308   7.027   2.896  0.1654 -0.3862  0.2781
  319MOL0     O42978   7.495   7.303   3.100 -0.3839 -0.4666 -0.6536
  319MOL0     C42979   7.783   7.119   3.001 -0.6380 -0.2175 -0.0731
  319MOL0     C42980   7.923   7.130   3.005  0.4491  0.5704  0.3149
  319MOL0     N42981   8.667   7.613   2.823  0.4987 -1.0672 -0.1861
  319MOL0     N42982   8.775   7.679   2.864  0.4179 -0.2798  0.6353
  319MOL0     C42983   9.499   6.919   3.371 -0.1329 -0.2657  0.1007
  319MOL0     C42984   9.632   6.870   3.366  0.0875  0.3335 -0.7904
  319MOL0     C42985  10.097   6.881   3.459 -0.9218 -0.1623 -0.4368
  319MOL0     C42986  10.221   6.942   3.500  0.4796 -0.1344 -0.2739
  319MOL0     C42987  10.337   6.869   3.505  0.0538 -0.4283 -0.4682
  319MOL0     C42988  10.344   6.736   3.464 -0.3248  0.3802  0.0564
  319MOL0     O42989  10.471   6.686   3.457 -0.4367  0.1854 -0.0738
  319MOL0     C42990  10.492   6.587   3.350  0.0654  0.5823  0.3479
  319MOL0     C42991  10.624   6.507   3.383 -0.2123 -0.0763  0.1847
  319MOL0     C42992  10.629   6.379   3.299 -0.6236  0.7329 -0.4299
  319MOL0     C42993  10.627   6.408   3.143  0.3173  0.4939 -0.9491
  319MOL0     C42994  10.660   6.294   3.056 -0.3895 -0.4394 -0.1254
  319MOL0     C42995  10.684   6.207   2.973 -0.2021  0.8060 -0.0245
  319MOL0     C42996  10.229   6.667   3.444  0.4271 -0.3339  0.3081
  319MOL0     C42997  10.108   6.743   3.441  0.9197  0.1917  0.8643
  319MOL0     H42998   9.770   7.169   3.452  0.8238 -0.3247 -3.3864
  319MOL0     H42999   9.544   7.228   3.462 -1.0693 -0.6360  1.7941
  319MOL0     H43000   9.227   6.923   3.378 -1.2520  0.5783  0.2817
  319MOL0     H43001   9.129   7.056   3.377 -1.2516 -2.8868 -0.5971
  319MOL0     H43002   9.302   6.976   3.128 -0.7665  1.2900 -2.8839
  319MOL0     H43003   9.125   7.009   3.148  0.5743 -1.2889 -1.1726
  319MOL0     H43004   9.246   7.251   3.225 -0.9722 -1.3311  1.1009
  319MOL0     H43005   9.361   7.190   3.099 -1.5610 -0.5862 -2.9269
  319MOL0     H43006   9.186   7.164   2.957  0.1510 -0.4498  0.5314
  319MOL0     H43007   9.060   7.211   3.072  1.0833 -0.5248  2.3296
  319MOL0     H43008   9.175   7.440   3.076  1.3577 -0.6236  1.1064
  319MOL0     H43009   9.288   7.388   2.963 -0.0348 -1.0188  0.3504
  319MOL0     H43010   9.124   7.391   2.785  1.5610  1.4904  0.8225
  319MOL0     H43011   8.981   7.372   2.895 -0.4258  0.2338  1.4656
  319MOL0     H43012   9.176   7.600   2.903  0.0702 -0.7050 -2.2995
  319MOL0     H43013   9.040   7.604   2.792  2.5508 -0.9868 -1.4079
  319MOL0     H43014   9.021   7.711   3.045 -0.9012  0.4912 -1.0583
  319MOL0     H43015   8.984   7.540   3.078 -1.0813 -0.2689 -0.8885
  319MOL0     H43016   8.789   7.392   3.026 -0.0490  0.6492  2.7804
  319MOL0     H43017   8.543   7.366   2.782  3.3658  2.1030 -0.5602
  319MOL0     H43018   8.578   7.308   2.946 -0.3150 -0.7917  0.4092
  319MOL0     H43019   8.390   7.554   2.870  2.7096  0.0470 -1.3749
  319MOL0     H43020   8.434   7.487   3.034  2.3446  1.6162 -1.0243
  319MOL0     H43021   8.339   7.264   2.905 -2.1036 -0.9203  1.9879
  319MOL0     H43022   8.256   7.385   2.810 -0.1752  0.3808  0.3048
  319MOL0     H43023   8.128   7.451   3.007  0.8234  0.9361  0.2442
  319MOL0     H43024   8.255   7.396   3.115  0.9242 -1.9703  0.4784
  319MOL0     H43025   7.986   7.405   3.170  0.0621 -0.6587  0.9941
  319MOL0     H43026   7.775   7.450   3.302  1.4118 -1.6818  0.4399
  319MOL0     H43027   7.680   7.504   3.160 -1.1622 -1.8912 -0.2164
  319MOL0     H43028   7.637   7.360   3.273  0.8174 -2.7811 -1.3216
  319MOL0     H43029   7.306   7.127   3.216 -3.7081  0.0280  1.0791
  319MOL0     H43030   7.070   7.107   3.193  0.0558  3.4424 -2.1040
  319MOL0     H43031   6.887   7.000   3.178  0.4509 -0.6143  0.0341
  319MOL0     H43032   6.850   7.148   3.089  2.9846  0.8967 -0.2725
  319MOL0     H43033   6.647   7.033   3.123  0.9941  0.4368  0.6785
  319MOL0     H43034   6.693   7.015   2.957  1.0103  2.1401  0.2871
  319MOL0     H43035   6.720   6.784   2.972  1.5926 -1.8645  1.0285
  319MOL0     H43036   6.621   6.804   3.118  0.3740 -2.6765 -1.6761
  319MOL0     H43037   6.925   6.769   3.113  1.1460  1.2529  2.4458
  319MOL0     H43038   6.835   6.793   3.259  2.0287  2.7178 -1.4359
  319MOL0     H43039   6.829   6.566   3.062 -1.0288  1.1485  0.2959
  319MOL0     H43040   6.691   6.574   3.149  0.6493 -0.3167  0.7546
  319MOL0     H43041   6.953   6.589   3.298 -0.2043 -0.6226  0.1840
  319MOL0     H43042   6.806   6.521   3.368  0.1208 -0.1230  0.4192
  319MOL0     H43043   6.965   6.399   3.133  1.2939  4.8563  0.6743
  319MOL0     H43044   6.828   6.323   3.229 -0.8482  1.2980  2.2431
  319MOL0     H43045   7.105   6.375   3.333  0.5281 -1.8753 -2.5225
  319MOL0     H43046   7.035   6.230   3.292 -0.7400  0.6992 -1.7741
  319MOL0     H43047   7.123   6.986   2.785  1.9324  0.2447 -0.9233
  319MOL0     H43048   7.375   7.017   2.811  0.0510 -0.2367  0.1682
  319MOL0     H43049   7.747   7.027   2.954 -2.4414  1.0659 -1.3703
  319MOL0     H43050   7.980   7.056   2.949  0.7609  0.3670  0.8877
  319MOL0     H43051   9.421   6.853   3.334 -1.9829  1.0871  1.4154
  319MOL0     H43052   9.661   6.772   3.329 -0.0647  0.2127 -0.5898
  319MOL0     H43053  10.210   7.049   3.515 -2.7516 -0.6788  2.5160
  319MOL0     H43054  10.427   6.928   3.513  0.6939 -1.4801  0.2344
  319MOL0     H43055  10.407   6.518   3.346 -0.6586  1.3454  1.7446
  319MOL0     H43056  10.500   6.638   3.254  2.3185  0.0848  0.2151
  319MOL0     H43057  10.609   6.487   3.489 -1.7164  1.5648  0.3147
  319MOL0     H43058  10.712   6.570   3.368 -0.7056  0.0295 -3.0116
  319MOL0     H43059  10.549   6.310   3.327  1.1550 -0.8880  0.8985
  319MOL0     H43060  10.720   6.321   3.317  0.1050  2.2303  0.9883
  319MOL0     H43061  10.685   6.499   3.126  1.8250  0.2575  2.3169
  319MOL0     H43062  10.524   6.435   3.115 -0.7360 -2.6221 -0.4649
  319MOL0     H43063  10.694   6.128   2.900  2.2419 -0.0871  1.1600
  319MOL0     H43064  10.230   6.560   3.429  0.7176 -0.4381  1.0604
  319MOL0     H43065  10.018   6.687   3.418  1.6016  0.4985 -3.2795
  320MOL0     O43066   8.557  10.555   5.739  0.0995 -0.1454  0.0564
  320MOL0     C43067   8.567  10.654   5.671  0.0545 -0.6991  0.4486
  320MOL0     O43068   8.484  10.762   5.686  0.1797  0.2467 -0.1503
  320MOL0     C43069   8.407  10.782   5.799  0.9696  0.4091 -0.5777
  320MOL0     C43070   8.308  10.688   5.843  0.4525  0.1914 -0.0613
  320MOL0     C43071   8.244  10.702   5.966  1.0040 -0.0475 -0.0614
  320MOL0     C43072   8.246  10.822   6.037  0.2806 -0.6658  0.8756
  320MOL0     O43073   8.178  10.827   6.154  0.0028 -0.2837 -0.5486
  320MOL0     C43074   8.130  10.956   6.203 -0.5534 -1.2463  0.3515
  320MOL0     C43075   8.094  10.932   6.347  0.0027  0.2203 -0.1075
  320MOL0     C43076   8.091  11.063   6.431  0.1404  0.3724 -0.0559
  320MOL0     C43077   8.231  11.123   6.462 -0.5028  0.1258 -0.0978
  320MOL0     C43078   8.222  11.236   6.576 -0.1104 -0.7720 -0.4395
  320MOL0     C43079   8.353  11.312   6.611  0.0174  0.0608 -0.2655
  320MOL0     C43080   8.421  11.386   6.494 -0.7323 -0.5625 -0.3484
  320MOL0     C43081   8.543  11.463   6.554  0.1063  0.9682 -0.0978
  320MOL0     N43082   8.591  11.573   6.466 -0.0245  0.0871 -0.1514
  320MOL0     C43083   8.714  11.588   6.417 -0.3122 -0.2527  0.3018
  320MOL0     C43084   8.717  11.699   6.338 -0.1397  0.3490  0.0368
  320MOL0     C43085   8.837  11.779   6.297 -0.9084 -0.1155  1.2987
  320MOL0     C43086   8.887  11.753   6.147  0.8332  0.5948  0.3226
  320MOL0     C43087   9.019  11.822   6.114  0.6175 -0.0646 -0.5128
  320MOL0     C43088   9.146  11.754   6.159 -0.7464  0.0555  0.5133
  320MOL0     O43089   9.187  11.792   6.294  0.0651  0.0097 -0.1742
  320MOL0     C43090   9.327  11.790   6.307 -1.1575 -0.4195 -0.1543
  320MOL0     C43091   9.394  11.895   6.366  0.0500 -1.0598  0.4310
  320MOL0     C43092   9.538  11.896   6.390  0.3043 -0.1061  0.4034
  320MOL0     C43093   9.602  12.023   6.448  0.2736  0.7834  0.1345
  320MOL0     C43094   9.619  11.790   6.345 -0.0281 -0.0585  0.2304
  320MOL0     C43095   9.758  11.776   6.368 -0.4186  0.5861 -0.5500
  320MOL0     O43096   9.803  11.790   6.499 -0.2608  0.6040  0.2217
  320MOL0     C43097   9.939  11.794   6.516 -0.7539  0.4787 -0.2946
  320MOL0     C43098  10.011  11.915   6.504  0.5032  0.4813 -0.1931
  320MOL0     C43099  10.147  11.911   6.535 -0.2004  0.4535  0.1771
  320MOL0     C43100  10.218  11.797   6.574  0.3470 -0.9293 -0.5360
  320MOL0     O43101  10.345  11.831   6.617 -0.3794 -0.9120  0.7453
  320MOL0     C43102  10.417  11.724   6.684  0.5630  0.1351  0.0222
  320MOL0     C43103  10.378  11.717   6.836  0.1398  0.6630  0.0144
  320MOL0     C43104  10.494  11.760   6.931  0.0616  0.3753 -0.1413
  320MOL0     C43105  10.447  11.815   7.062 -0.5107  0.4031 -0.3530
  320MOL0     C43106  10.557  11.843   7.167 -0.1743  0.4632 -0.0382
  320MOL0     C43107  10.514  11.897   7.304 -0.2142 -0.1938  0.2326
  320MOL0     C43108  10.633  11.887   7.394 -0.5132 -0.2494  0.0846
  320MOL0     C43109  10.613  11.980   7.513  0.5820  0.1057 -0.1633
  320MOL0    Cl43110  10.613  12.147   7.461 -0.0452 -0.2876  0.0050
  320MOL0     C43111  10.153  11.672   6.570  0.4878 -0.4735  0.5841
  320MOL0     C43112  10.011  11.676   6.543  0.0429 -0.2598 -0.2732
  320MOL0     O43113   9.830  11.754   6.274  0.1390  0.1990 -0.6987
  320MOL0     C43114   9.551  11.687   6.281  0.2101 -0.2223 -0.3887
  320MOL0     C43115   9.412  11.681   6.272  0.3964  0.1821 -0.9439
  320MOL0     N43116   8.587  11.748   6.340  0.6684  0.1568 -0.9955
  320MOL0     N43117   8.512  11.668   6.413 -0.2537 -0.6376  0.3310
  320MOL0     C43118   8.337  10.922   5.992 -1.5905 -0.1430 -0.8821
  320MOL0     C43119   8.412  10.902   5.879 -0.4162  0.0668  0.2800
  320MOL0     C43120   8.678  10.659   5.582 -0.1885 -0.4375 -1.4149
  320MOL0     C43121   8.693  10.763   5.485 -0.0902  0.5891  0.7071
  320MOL0     C43122   8.794  10.749   5.392 -0.9474 -0.0220  0.0311
  320MOL0     C43123   8.889  10.649   5.388 -0.3914 -0.3149  0.0532
  320MOL0     O43124   8.979  10.642   5.288  0.3850 -0.6779 -0.2389
  320MOL0     C43125   9.109  10.593   5.322  0.7073 -0.4543  0.4127
  320MOL0     C43126   9.219  10.679   5.264  0.6835  0.1290  0.3210
  320MOL0     C43127   9.357  10.614   5.276 -0.3093  0.4850  0.4847
  320MOL0     C43128   9.468  10.697   5.222  0.3748 -0.3899 -0.0059
  320MOL0     C43129   9.596  10.646   5.258  0.0502 -0.4392  0.4309
  320MOL0     C43130   9.707  10.589   5.265  1.1088  0.7260 -0.9066
  320MOL0     C43131   8.873  10.552   5.492  0.4001  0.0450 -0.3265
  320MOL0     C43132   8.767  10.555   5.581 -0.9940 -0.0543  0.0018
  320MOL0     H43133   8.287  10.600   5.783  1.7532  0.7623 -1.3963
  320MOL0     H43134   8.185  10.622   6.009  1.0458 -0.3709 -0.6047
  320MOL0     H43135   8.202  11.038   6.191 -0.7885 -1.4493 -5.9912
  320MOL0     H43136   8.041  10.990   6.149 -0.8666 -1.3685  0.7890
  320MOL0     H43137   7.991  10.897   6.354  0.1560 -0.1131  0.6460
  320MOL0     H43138   8.160  10.856   6.392  0.8162  0.1080 -1.4208
  320MOL0     H43139   8.030  11.136   6.377  0.1659 -0.2167 -0.8971
  320MOL0     H43140   8.047  11.032   6.526 -1.5043  1.5397 -0.3779
  320MOL0     H43141   8.285  11.040   6.510 -1.0769 -0.4482 -0.4259
  320MOL0     H43142   8.284  11.161   6.375  1.0902  0.4807  0.9850
  320MOL0     H43143   8.146  11.309   6.547 -0.1228  0.6811  2.8121
  320MOL0     H43144   8.195  11.198   6.675  0.0126 -0.9496 -0.4738
  320MOL0     H43145   8.335  11.389   6.686  0.3906  0.1880 -0.3049
  320MOL0     H43146   8.420  11.238   6.657 -1.5333 -1.6153 -0.5716
  320MOL0     H43147   8.461  11.320   6.417 -1.7639 -1.0335 -0.5013
  320MOL0     H43148   8.355  11.468   6.463  1.1972  2.8287  3.5428
  320MOL0     H43149   8.619  11.387   6.572  0.1048  1.1036  0.4800
  320MOL0     H43150   8.516  11.516   6.646 -1.9965 -0.6764  0.3260
  320MOL0     H43151   8.794  11.522   6.448 -0.5658  0.2480  2.1413
  320MOL0     H43152   8.814  11.886   6.301  1.2553  0.3897  1.2612
  320MOL0     H43153   8.909  11.751   6.374 -1.1037 -0.8590  1.2199
  320MOL0     H43154   8.808  11.788   6.079 -0.1806 -3.5721 -0.9368
  320MOL0     H43155   8.886  11.644   6.135  0.0949  0.6169  0.1342
  320MOL0     H43156   9.016  11.924   6.153  1.0811 -0.3097  0.1913
  320MOL0     H43157   9.026  11.832   6.005 -1.8774 -0.5091 -0.7836
  320MOL0     H43158   9.220  11.785   6.084 -1.2824  2.9588  1.0650
  320MOL0     H43159   9.125  11.646   6.161  0.0025 -0.1015  2.8388
  320MOL0     H43160   9.336  11.984   6.387  1.1479  0.2027 -1.5726
  320MOL0     H43161   9.617  12.006   6.555  0.3228 -1.9081 -0.2383
  320MOL0     H43162   9.704  12.034   6.408  0.5818  3.3788  1.4267
  320MOL0     H43163   9.540  12.110   6.426 -2.2573 -1.0840 -0.5617
  320MOL0     H43164   9.965  12.011   6.484 -0.0262  0.6819  1.8104
  320MOL0     H43165  10.197  12.007   6.532 -0.3601  0.5056 -1.4181
  320MOL0     H43166  10.396  11.626   6.641  0.5203  0.6843 -1.2603
  320MOL0     H43167  10.522  11.752   6.677  0.2430  1.0406 -1.8342
  320MOL0     H43168  10.295  11.787   6.851  0.3892  1.1653 -0.9001
  320MOL0     H43169  10.347  11.614   6.855  0.4098  0.5323 -0.2663
  320MOL0     H43170  10.566  11.830   6.890  0.6473 -0.1761 -0.0723
  320MOL0     H43171  10.548  11.665   6.942 -0.7517  0.1090  2.2998
  320MOL0     H43172  10.391  11.902   7.028 -1.7593 -0.8102 -1.5668
  320MOL0     H43173  10.372  11.748   7.105 -0.6092 -0.2901 -1.5559
  320MOL0     H43174  10.632  11.911   7.124  0.4180  0.1992  0.5663
  320MOL0     H43175  10.610  11.751   7.193 -4.0417 -1.5182  1.6761
  320MOL0     H43176  10.486  12.002   7.291 -0.0037  0.0231  1.4288
  320MOL0     H43177  10.424  11.844   7.339  0.6143 -1.5363  0.4171
  320MOL0     H43178  10.728  11.906   7.343 -0.3723 -0.5920  0.2156
  320MOL0     H43179  10.652  11.785   7.430  0.1554 -1.8108 -4.0740
  320MOL0     H43180  10.698  11.961   7.578  1.8858  0.1956 -1.7651
  320MOL0     H43181  10.524  11.946   7.566 -0.5748  2.8958 -0.1484
  320MOL0     H43182  10.193  11.574   6.593 -0.5119 -1.6171 -2.1384
  320MOL0     H43183   9.946  11.589   6.540 -3.0068  1.7022  2.4852
  320MOL0     H43184   9.616  11.600   6.268 -3.2186 -2.7973 -1.7046
  320MOL0     H43185   9.377  11.582   6.242 -3.6957  0.3053  2.3946
  320MOL0     H43186   8.344  11.013   6.051 -0.4563 -0.7424 -0.0707
  320MOL0     H43187   8.485  10.977   5.849 -0.2968 -1.0490 -2.6037
  320MOL0     H43188   8.620  10.842   5.468 -2.6415 -1.0049  3.2583
  320MOL0     H43189   8.796  10.829   5.318 -2.6532 -0.0490 -0.0783
  320MOL0     H43190   9.113  10.595   5.431  1.9617  1.5479  0.3944
  320MOL0     H43191   9.117  10.490   5.286  0.3969 -0.0600 -0.8277
  320MOL0     H43192   9.224  10.772   5.321  0.7073 -1.1644  2.5539
  320MOL0     H43193   9.189  10.692   5.159 -0.5242 -0.2671  0.6081
  320MOL0     H43194   9.355  10.521   5.218  2.2460  0.3598  0.4949
  320MOL0     H43195   9.382  10.585   5.378 -0.1435  0.2626  0.3824
  320MOL0     H43196   9.476  10.796   5.270 -0.4933 -0.0724 -0.5045
  320MOL0     H43197   9.474  10.710   5.114 -1.9501  2.7321  0.0998
  320MOL0     H43198   9.800  10.537   5.278  0.5133 -0.0478  0.4248
  320MOL0     H43199   8.935  10.463   5.485  0.8727  0.4789 -2.4631
  320MOL0     H43200   8.757  10.467   5.643 -0.2029  0.5425  1.0052
  321MOL0     O43201   2.677   0.399   8.853 -0.6525 -0.1073  0.8757
  321MOL0     C43202   2.732   0.436   8.960 -0.0839  0.3778 -0.0213
  321MOL0     O43203   2.668   0.495   9.068  0.2480  0.4640  0.0045
  321MOL0     C43204   2.532   0.476   9.089 -0.7333 -0.1097 -0.4511
  321MOL0     C43205   2.465   0.589   9.126  0.1675 -0.3332  0.0451
  321MOL0     C43206   2.328   0.579   9.152 -0.6562  0.3455  0.2833
  321MOL0     C43207   2.258   0.464   9.128 -0.0419  0.1916 -0.2564
  321MOL0     O43208   2.119   0.476   9.125 -0.4138  0.5207  0.0386
  321MOL0     C43209   2.034   0.365   9.129  0.4343  1.2358 -0.2812
  321MOL0     C43210   1.896   0.420   9.171 -0.1845  1.0522 -0.4299
  321MOL0     C43211   1.779   0.327   9.126  0.1721 -0.2411  0.2489
  321MOL0     C43212   1.664   0.337   9.217 -0.3136 -0.1357 -0.5609
  321MOL0     C43213   1.546   0.264   9.164 -0.3889 -0.7498  0.2222
  321MOL0     C43214   1.505   0.314   9.025  0.2670 -0.6533  0.4422
  321MOL0     C43215   1.376   0.254   8.977 -0.0278 -0.1728 -0.3496
  321MOL0     C43216   1.335   0.303   8.844  0.8285 -0.0069  1.2395
  321MOL0     N43217   1.201   0.253   8.801 -0.4067 -0.0061 -0.0173
  321MOL0     C43218   1.170   0.124   8.798 -0.9073  1.3468  0.1819
  321MOL0     C43219   1.040   0.116   8.740  0.0444  0.3157 -1.3843
  321MOL0     C43220   0.953  -0.003   8.717 -0.3514 -0.5883  0.4561
  321MOL0     C43221   0.821  -0.002   8.800 -0.1151 -0.2298 -0.8695
  321MOL0     C43222   0.711  -0.104   8.761 -0.0281 -0.2812  0.2140
  321MOL0     C43223   0.648  -0.099   8.613  0.5223 -0.1151 -0.2303
  321MOL0     O43224   0.548   0.010   8.598  0.2150 -0.3981 -0.2419
  321MOL0     C43225   0.430  -0.005   8.675 -0.4319  0.2297  0.4492
  321MOL0     C43226   0.392  -0.112   8.753  0.1409 -0.0929 -0.2182
  321MOL0     C43227   0.270  -0.110   8.810 -0.2288  0.0662  0.4912
  321MOL0     C43228   0.235  -0.238   8.886  0.0003  0.4807  0.3911
  321MOL0     C43229   0.179  -0.006   8.796 -0.0606 -0.5619 -0.6794
  321MOL0     C43230   0.046  -0.010   8.860  0.2549 -0.0004  0.1300
  321MOL0     O43231  -0.048   0.057   8.792 -0.4266 -0.7722  0.8735
  321MOL0     C43232  -0.182   0.062   8.829  0.5105  0.6597  1.2789
  321MOL0     C43233  -0.231   0.070   8.958  0.3763 -0.0930  0.0918
  321MOL0     C43234  -0.370   0.085   8.976 -0.5768  0.5956  0.4343
  321MOL0     C43235  -0.455   0.110   8.867 -0.1169  0.5984  0.4347
  321MOL0     O43236  -0.591   0.096   8.881  0.1479 -0.3645 -0.1805
  321MOL0     C43237  -0.632  -0.035   8.922 -0.3929 -0.0393 -0.4403
  321MOL0     C43238  -0.635  -0.128   8.800  0.1878  0.2256  0.0978
  321MOL0     C43239  -0.753  -0.083   8.711 -0.0253  1.0022 -0.2498
  321MOL0     C43240  -0.796  -0.212   8.628  0.3665  0.4516 -0.5263
  321MOL0     C43241  -0.906  -0.183   8.520  0.5980  0.1791  0.5828
  321MOL0     C43242  -0.880  -0.042   8.442 -0.3560  0.3510 -0.4218
  321MOL0     C43243  -0.999  -0.027   8.343 -0.7273  0.2054 -0.3680
  321MOL0     C43244  -0.988   0.088   8.252 -0.8729 -0.7664 -0.3732
  321MOL0    Cl43245  -1.016   0.242   8.334  0.1597 -0.5422  0.5476
  321MOL0     C43246  -0.404   0.117   8.745  1.1100 -0.2419  0.0298
  321MOL0     C43247  -0.270   0.084   8.719  1.2553  0.7231  0.3334
  321MOL0     O43248   0.024  -0.070   8.966  0.0063 -0.3334 -0.3162
  321MOL0     C43249   0.218   0.096   8.714  0.0226 -0.7023  0.6632
  321MOL0     C43250   0.338   0.093   8.653 -0.0006  0.2134  0.6268
  321MOL0     N43251   1.003   0.249   8.722  0.0565  0.7653  0.1580
  321MOL0     N43252   1.101   0.324   8.757  0.4080 -0.5692  0.0425
  321MOL0     C43253   2.329   0.344   9.106  0.0593  0.0966 -0.5750
  321MOL0     C43254   2.470   0.344   9.088  0.1096 -0.7949 -0.0970
  321MOL0     C43255   2.883   0.416   8.954 -0.5344  0.6842 -0.5583
  321MOL0     C43256   2.941   0.337   8.847  0.0464 -0.8007  0.7177
  321MOL0     C43257   3.081   0.315   8.841  0.1007 -0.5299  0.1714
  321MOL0     C43258   3.163   0.375   8.931 -0.2995  0.2681 -0.0385
  321MOL0     O43259   3.306   0.357   8.920  0.6592  0.0615  1.3577
  321MOL0     C43260   3.360   0.256   8.834 -0.6907 -0.0479  0.0337
  321MOL0     C43261   3.479   0.214   8.909 -0.4469  0.1895  0.0549
  321MOL0     C43262   3.610   0.288   8.861  0.2127 -0.3109  0.8151
  321MOL0     C43263   3.737   0.231   8.927 -0.1933 -0.6200 -0.2522
  321MOL0     C43264   3.858   0.275   8.867 -0.9755 -0.3090 -0.7440
  321MOL0     C43265   3.957   0.306   8.803 -0.2011  0.4267  0.8327
  321MOL0     C43266   3.105   0.456   9.029  0.3455 -0.0634  0.0967
  321MOL0     C43267   2.971   0.476   9.045 -0.8550  0.1033  0.4344
  321MOL0     H43268   2.494   0.690   9.152 -0.0983 -0.6753  1.7851
  321MOL0     H43269   2.274   0.670   9.177 -2.2577 -0.2946 -0.6648
  321MOL0     H43270   2.022   0.323   9.029  0.3582  3.5858 -1.3111
  321MOL0     H43271   2.070   0.288   9.199  1.1289 -1.2223 -3.1300
  321MOL0     H43272   1.889   0.411   9.280 -3.1848  1.7237 -0.4639
  321MOL0     H43273   1.876   0.523   9.140  2.0285  2.0659  1.2664
  321MOL0     H43274   1.760   0.358   9.023 -0.4010  2.4931  1.0782
  321MOL0     H43275   1.806   0.222   9.115  1.2239  0.2773 -3.3120
  321MOL0     H43276   1.691   0.299   9.316  0.0793 -0.0543 -0.6353
  321MOL0     H43277   1.644   0.444   9.230  3.3864  0.4632  2.0437
  321MOL0     H43278   1.564   0.157   9.151  2.0965 -0.2134 -1.5210
  321MOL0     H43279   1.466   0.286   9.235 -0.4390 -0.2042  0.0053
  321MOL0     H43280   1.491   0.422   9.024  1.9383 -0.4064 -0.1233
  321MOL0     H43281   1.584   0.300   8.950  1.6304  1.0842  1.4809
  321MOL0     H43282   1.393   0.146   8.976 -1.0736 -0.3586  0.2591
  321MOL0     H43283   1.293   0.253   9.049  0.2499  0.1166 -0.0174
  321MOL0     H43284   1.402   0.275   8.762  1.7203  0.5551  1.7606
  321MOL0     H43285   1.324   0.412   8.842 -1.2228 -0.1279  2.8744
  321MOL0     H43286   1.239   0.047   8.829 -0.7442  1.2074 -0.5249
  321MOL0     H43287   0.925  -0.000   8.611 -0.0923 -0.8161  0.3823
  321MOL0     H43288   1.010  -0.094   8.738  0.4421 -0.0820  0.5348
  321MOL0     H43289   0.783   0.101   8.801 -0.5809 -0.3136  2.9300
  321MOL0     H43290   0.847  -0.026   8.903  0.7983  0.1217 -1.0038
  321MOL0     H43291   0.638  -0.081   8.840 -0.2982  1.2895 -0.4606
  321MOL0     H43292   0.740  -0.208   8.777  1.8621  0.3725  1.2635
  321MOL0     H43293   0.606  -0.198   8.589  3.4913 -1.1239 -1.7709
  321MOL0     H43294   0.725  -0.078   8.539 -0.4480  0.9634 -0.9790
  321MOL0     H43295   0.463  -0.194   8.761  0.9339  0.5062 -0.8444
  321MOL0     H43296   0.141  -0.278   8.846 -0.5357  0.4148  1.6376
  321MOL0     H43297   0.321  -0.304   8.892  0.9496  1.7869  2.0364
  321MOL0     H43298   0.224  -0.211   8.992 -1.3240  1.9694 -0.0863
  321MOL0     H43299  -0.171   0.059   9.048 -0.7925 -0.5790  0.8265
  321MOL0     H43300  -0.422   0.074   9.070 -0.0319  0.5700  0.7314
  321MOL0     H43301  -0.564  -0.082   8.993  1.7218 -2.1299 -3.5892
  321MOL0     H43302  -0.728  -0.034   8.973 -0.5958 -0.8074 -0.7947
  321MOL0     H43303  -0.536  -0.131   8.753  0.5092  0.8349  0.7014
  321MOL0     H43304  -0.649  -0.233   8.830  4.1154  0.1822  2.5673
  321MOL0     H43305  -0.715   0.001   8.652  0.3216 -0.3478 -2.0613
  321MOL0     H43306  -0.833  -0.040   8.770  0.5133  0.1678  1.1421
  321MOL0     H43307  -0.714  -0.261   8.574  1.5658 -1.1607  2.5637
  321MOL0     H43308  -0.830  -0.282   8.704  0.0497 -0.3312 -1.3741
  321MOL0     H43309  -1.001  -0.185   8.573 -0.4034  1.1054 -1.1073
  321MOL0     H43310  -0.909  -0.262   8.444  1.9395  0.7684 -0.1171
  321MOL0     H43311  -0.886   0.033   8.522 -1.5394  0.1824 -0.3359
  321MOL0     H43312  -0.786  -0.025   8.388 -0.5438  2.9769 -0.0649
  321MOL0     H43313  -1.097  -0.021   8.390 -1.7146 -0.7142 -2.2194
  321MOL0     H43314  -1.004  -0.113   8.275 -0.9798  0.1073 -0.2269
  321MOL0     H43315  -1.056   0.075   8.167  1.0000 -2.9770 -1.6382
  321MOL0     H43316  -0.888   0.089   8.208  0.6941 -2.9010  2.7679
  321MOL0     H43317  -0.462   0.135   8.655  0.2967  1.7708  0.8883
  321MOL0     H43318  -0.242   0.081   8.614  0.1286  2.2699 -0.0424
  321MOL0     H43319   0.160   0.184   8.689  0.1964 -0.4689  1.0725
  321MOL0     H43320   0.378   0.173   8.592  1.1113 -1.8367 -1.4746
  321MOL0     H43321   2.281   0.248   9.086  2.0863 -0.6479 -2.1409
  321MOL0     H43322   2.529   0.258   9.059  0.6013 -0.0948 -1.2300
  321MOL0     H43323   2.881   0.277   8.780 -1.3685  0.6578  0.6259
  321MOL0     H43324   3.115   0.245   8.764  1.4200 -1.8537  1.8668
  321MOL0     H43325   3.290   0.174   8.811 -0.9145  0.5991 -1.7820
  321MOL0     H43326   3.385   0.297   8.736  2.4618  1.5605  1.3743
  321MOL0     H43327   3.499   0.108   8.896 -2.6255  0.0285 -2.8907
  321MOL0     H43328   3.455   0.231   9.015 -5.1725 -4.3495  0.0952
  321MOL0     H43329   3.618   0.392   8.893  0.1432  0.7876 -2.3379
  321MOL0     H43330   3.615   0.289   8.751 -1.8702  0.4909  0.6684
  321MOL0     H43331   3.734   0.121   8.931  0.6937 -0.6965 -1.2847
  321MOL0     H43332   3.738   0.264   9.032 -0.7517 -0.9443 -0.1385
  321MOL0     H43333   4.041   0.357   8.758 -0.4409  2.0195  2.0921
  321MOL0     H43334   3.166   0.504   9.105  1.7975 -2.7199  0.7235
  321MOL0     H43335   2.922   0.536   9.121 -1.0777 -1.1113  1.2866
  322MOL0     O43336   1.575   0.648   6.011  0.4083  0.3058  0.0367
  322MOL0     C43337   1.535   0.547   6.071 -0.8578 -0.0593 -0.1457
  322MOL0     O43338   1.408   0.515   6.096  0.2306 -0.0760  0.3387
  322MOL0     C43339   1.315   0.606   6.107  0.7245 -0.2127 -0.2809
  322MOL0     C43340   1.336   0.740   6.130 -0.4996 -0.5188  0.0888
  322MOL0     C43341   1.234   0.831   6.144  0.2897 -0.2788 -0.4176
  322MOL0     C43342   1.103   0.791   6.130 -0.7081  0.6329  0.1504
  322MOL0     O43343   1.008   0.881   6.135 -0.3338  0.3594 -0.7744
  322MOL0     C43344   0.958   0.894   6.269  0.1205 -0.2564  0.1306
  322MOL0     C43345   0.835   0.807   6.287  0.8256  0.9277  0.8722
  322MOL0     C43346   0.718   0.850   6.192  0.2885  0.3446 -0.3117
  322MOL0     C43347   0.581   0.787   6.228  0.1078  0.0330 -0.4934
  322MOL0     C43348   0.474   0.851   6.139  1.0412  0.0757 -0.4574
  322MOL0     C43349   0.330   0.809   6.189 -0.3329 -0.6946  0.6006
  322MOL0     C43350   0.304   0.878   6.325  0.3800 -0.0848  1.1103
  322MOL0     C43351   0.238   1.015   6.291  0.6587  0.2800 -0.9866
  322MOL0     N43352   0.198   1.103   6.405 -0.4526 -0.0683  0.3344
  322MOL0     C43353   0.100   1.062   6.486 -0.5546 -0.7075  0.3555
  322MOL0     C43354   0.063   1.168   6.559  0.1978 -0.6928 -0.8097
  322MOL0     C43355  -0.055   1.187   6.643  0.3641 -0.1892 -0.4924
  322MOL0     C43356  -0.180   1.182   6.548 -0.3006 -0.2421  0.3481
  322MOL0     C43357  -0.303   1.123   6.612 -0.1422  1.0380  0.1766
  322MOL0     C43358  -0.436   1.129   6.537  0.3886  0.4045  0.1337
  322MOL0     O43359  -0.458   1.024   6.440  0.1126 -0.1128 -0.4892
  322MOL0     C43360  -0.590   1.013   6.399  0.1661  0.6939  0.8807
  322MOL0     C43361  -0.629   0.882   6.367  0.2887 -0.1208  0.0047
  322MOL0     C43362  -0.762   0.858   6.330 -0.9333  0.2085 -0.3368
  322MOL0     C43363  -0.804   0.714   6.310  0.2857  0.0340 -0.3531
  322MOL0     C43364  -0.858   0.967   6.320  0.8558 -0.3296 -0.3769
  322MOL0     C43365  -1.009   0.963   6.289 -0.1316 -0.4109  0.1916
  322MOL0     O43366  -1.060   0.839   6.270 -0.2848  0.5072 -0.4638
  322MOL0     C43367  -1.191   0.809   6.239  0.2044 -0.2758  0.3465
  322MOL0     C43368  -1.304   0.889   6.284 -0.9115  0.9688 -0.2411
  322MOL0     C43369  -1.436   0.860   6.240 -0.1681  0.8403  0.3696
  322MOL0     C43370  -1.458   0.756   6.148  0.0707 -0.4011 -0.1657
  322MOL0     O43371  -1.583   0.760   6.100  0.2889  0.4015  0.2577
  322MOL0     C43372  -1.626   0.652   6.021  0.0306  0.4027 -0.3547
  322MOL0     C43373  -1.773   0.627   6.029 -0.0760 -0.6586 -0.4319
  322MOL0     C43374  -1.847   0.757   5.978 -0.6557  0.6363  0.3372
  322MOL0     C43375  -1.986   0.744   6.027  0.1322 -0.0924 -0.6479
  322MOL0     C43376  -2.076   0.840   5.943  0.2605 -0.0181  0.4104
  322MOL0     C43377  -2.222   0.805   5.955  0.6625  0.8310  0.2345
  322MOL0     C43378  -2.309   0.923   5.905  0.5689  0.2167  1.1319
  322MOL0     C43379  -2.456   0.883   5.869  0.7738 -0.4544 -0.8788
  322MOL0    Cl43380  -2.460   0.770   5.731 -0.5614 -0.2576 -0.0280
  322MOL0     C43381  -1.352   0.677   6.107 -1.3960 -0.5875 -0.2755
  322MOL0     C43382  -1.217   0.702   6.153 -0.5427  0.5584  0.1459
  322MOL0     O43383  -1.070   1.073   6.276 -0.1985  0.7399 -1.0274
  322MOL0     C43384  -0.802   1.099   6.326  0.0477 -1.0039  1.1867
  322MOL0     C43385  -0.665   1.120   6.360  0.7863 -0.1198 -0.2268
  322MOL0     N43386   0.150   1.270   6.523  0.5373 -0.0735  0.0941
  322MOL0     N43387   0.229   1.231   6.431 -0.7008  0.0769 -0.2610
  322MOL0     C43388   1.079   0.656   6.122  0.6079  0.1116  0.2369
  322MOL0     C43389   1.182   0.568   6.103  0.5876 -0.1578 -0.4033
  322MOL0     C43390   1.638   0.442   6.104  0.0362  0.7350 -0.6346
  322MOL0     C43391   1.768   0.485   6.141 -0.2854 -0.2308 -0.2961
  322MOL0     C43392   1.867   0.397   6.186  0.1189  0.0708  0.9673
  322MOL0     C43393   1.838   0.256   6.194  1.1169 -0.1869 -0.4674
  322MOL0     O43394   1.928   0.154   6.212 -0.5449  0.1094 -0.8452
  322MOL0     C43395   2.064   0.188   6.242 -0.0099 -0.6014  0.0618
  322MOL0     C43396   2.130   0.223   6.114 -0.3219 -0.8560  0.6068
  322MOL0     C43397   2.238   0.334   6.141  0.5808  0.1504 -0.0497
  322MOL0     C43398   2.367   0.286   6.204  0.3532 -0.3214  0.5950
  322MOL0     C43399   2.449   0.236   6.099  0.2711  0.0835 -0.5374
  322MOL0     C43400   2.517   0.193   6.006  0.9368  0.6507  0.3073
  322MOL0     C43401   1.705   0.218   6.164 -0.9130  0.9539  0.0670
  322MOL0     C43402   1.605   0.303   6.126  0.3154  0.2361 -0.5971
  322MOL0     H43403   1.435   0.773   6.161 -0.0342 -1.3728 -0.4600
  322MOL0     H43404   1.252   0.936   6.162  1.6619 -0.1932 -1.9990
  322MOL0     H43405   1.028   0.852   6.342 -0.7986 -2.3969 -0.1590
  322MOL0     H43406   0.936   1.000   6.287 -0.6602 -0.1677 -1.2166
  322MOL0     H43407   0.852   0.699   6.282 -1.2083  0.3874  3.4497
  322MOL0     H43408   0.806   0.825   6.391 -1.0572  1.7889  0.2372
  322MOL0     H43409   0.705   0.959   6.187 -1.0937  0.1751 -0.9695
  322MOL0     H43410   0.750   0.819   6.093 -1.7699  0.3548 -1.0250
  322MOL0     H43411   0.581   0.679   6.212  2.3282 -0.1376  0.3866
  322MOL0     H43412   0.560   0.809   6.334  0.0473  1.2356 -0.7421
  322MOL0     H43413   0.482   0.960   6.134  1.3350  0.0097 -1.7513
  322MOL0     H43414   0.482   0.806   6.039  0.6308 -0.1020 -0.4133
  322MOL0     H43415   0.263   0.849   6.112  1.7465  1.9062 -0.0097
  322MOL0     H43416   0.322   0.702   6.209 -1.6550 -0.8712 -0.7354
  322MOL0     H43417   0.228   0.817   6.373 -1.9757  0.6683 -1.3730
  322MOL0     H43418   0.383   0.894   6.399 -0.4958  0.0913  2.0193
  322MOL0     H43419   0.143   1.000   6.238  0.3353 -0.4144 -0.2366
  322MOL0     H43420   0.292   1.088   6.229 -0.2723  3.8176  1.9837
  322MOL0     H43421   0.064   0.959   6.492 -1.1981 -0.3897  3.2143
  322MOL0     H43422  -0.070   1.106   6.714 -0.0284 -3.4979 -4.0117
  322MOL0     H43423  -0.046   1.285   6.691  1.3153 -0.5039 -0.0153
  322MOL0     H43424  -0.158   1.133   6.453 -1.7933  2.5079 -1.5541
  322MOL0     H43425  -0.200   1.284   6.515  0.3567 -0.5524 -1.0763
  322MOL0     H43426  -0.317   1.175   6.708  1.5747 -0.7768  1.5102
  322MOL0     H43427  -0.287   1.016   6.628  1.3403  0.9256 -1.7441
  322MOL0     H43428  -0.445   1.223   6.482 -2.5306  2.7108  4.0704
  322MOL0     H43429  -0.520   1.130   6.608  0.1158  0.0541 -0.1783
  322MOL0     H43430  -0.566   0.794   6.376  0.2221 -0.2643 -0.7874
  322MOL0     H43431  -0.721   0.646   6.329  1.7624  1.1693 -2.4462
  322MOL0     H43432  -0.888   0.689   6.376  0.7956  0.7278  0.5853
  322MOL0     H43433  -0.840   0.699   6.208 -0.8975  0.5582 -0.0319
  322MOL0     H43434  -1.291   0.970   6.355 -2.1762  0.5847  0.4702
  322MOL0     H43435  -1.524   0.915   6.274  0.6091  3.0557 -1.0284
  322MOL0     H43436  -1.599   0.656   5.915  0.9476 -1.9289 -0.2771
  322MOL0     H43437  -1.583   0.559   6.059 -1.3138  0.1149  0.5386
  322MOL0     H43438  -1.806   0.549   5.960 -3.3663  0.0351  0.1983
  322MOL0     H43439  -1.810   0.592   6.127 -0.5529 -0.8840 -0.6857
  322MOL0     H43440  -1.849   0.745   5.869  2.8272 -2.6447  0.4326
  322MOL0     H43441  -1.793   0.850   5.996 -1.6471  1.4288 -0.6673
  322MOL0     H43442  -2.017   0.641   6.011  0.3020 -0.3534  0.5700
  322MOL0     H43443  -1.987   0.757   6.136 -1.6087  1.0561 -0.7585
  322MOL0     H43444  -2.047   0.837   5.837  3.8994  1.0906  1.2296
  322MOL0     H43445  -2.057   0.937   5.989  1.7506 -1.1998  2.4447
  322MOL0     H43446  -2.243   0.712   5.902  1.8451  0.3363  0.5912
  322MOL0     H43447  -2.249   0.786   6.059  1.5301 -2.7148 -0.0736
  322MOL0     H43448  -2.262   0.974   5.821 -1.9815 -1.4541 -1.5203
  322MOL0     H43449  -2.305   0.996   5.986  0.6109  0.6567  0.7391
  322MOL0     H43450  -2.528   0.965   5.864  0.2133 -0.8895 -0.1882
  322MOL0     H43451  -2.485   0.821   5.955  0.9284 -0.8647 -1.1157
  322MOL0     H43452  -1.356   0.597   6.034  2.3796  0.9950 -2.4920
  322MOL0     H43453  -1.141   0.634   6.116  1.1087  1.7602  1.1909
  322MOL0     H43454  -0.862   1.182   6.289 -0.3304 -2.4609 -1.7856
  322MOL0     H43455  -0.638   1.225   6.357 -1.2561  0.4343 -0.5057
  322MOL0     H43456   0.975   0.624   6.115  1.3229 -2.1064 -2.2466
  322MOL0     H43457   1.152   0.466   6.087  5.7376 -1.9287 -0.7907
  322MOL0     H43458   1.804   0.586   6.121 -0.1263  0.2609  2.1203
  322MOL0     H43459   1.966   0.439   6.190  2.0859 -4.0290  0.2363
  322MOL0     H43460   2.068   0.270   6.314 -1.5988  0.2013 -0.7084
  322MOL0     H43461   2.110   0.102   6.292 -0.1830 -0.0512  1.1758
  322MOL0     H43462   2.067   0.270   6.037  0.8212  0.8775  0.6822
  322MOL0     H43463   2.164   0.132   6.063  3.4000 -0.6177  2.3820
  322MOL0     H43464   2.182   0.412   6.194 -1.8320  0.2980 -2.5882
  322MOL0     H43465   2.270   0.383   6.049  5.7311 -3.7852 -0.8258
  322MOL0     H43466   2.336   0.198   6.262 -1.3299  0.9967  1.8098
  322MOL0     H43467   2.411   0.360   6.272 -0.2585 -0.8444  1.5955
  322MOL0     H43468   2.566   0.148   5.922 -4.8919 -3.2963 -1.5661
  322MOL0     H43469   1.684   0.112   6.160  0.6675  0.6487 -1.6169
  322MOL0     H43470   1.507   0.257   6.117  0.2844  0.4132 -1.1731
  323MOL0     O43471   3.243   0.493   4.193  0.3706 -0.2348  0.2560
  323MOL0     C43472   3.212   0.373   4.209 -0.3429 -0.0992 -0.0965
  323MOL0     O43473   3.082   0.330   4.224 -0.5572 -0.3094  0.0625
  323MOL0     C43474   2.966   0.393   4.182  0.0915 -0.1250  0.0008
  323MOL0     C43475   2.961   0.510   4.105  0.3817 -0.0577 -0.2380
  323MOL0     C43476   2.844   0.551   4.047 -0.2436  0.3051 -0.8075
  323MOL0     C43477   2.726   0.490   4.069 -0.4087  0.2432  0.1588
  323MOL0     O43478   2.612   0.523   3.991 -0.1811  0.1064 -0.0912
  323MOL0     C43479   2.503   0.426   3.959 -0.7490 -0.0621 -0.2499
  323MOL0     C43480   2.412   0.482   3.854 -0.7942 -0.0142  0.7662
  323MOL0     C43481   2.305   0.582   3.910 -0.4987  0.2368 -0.1398
  323MOL0     C43482   2.213   0.638   3.803 -0.1037  0.4805 -0.2021
  323MOL0     C43483   2.286   0.708   3.692  0.6892 -0.7188  0.3267
  323MOL0     C43484   2.380   0.819   3.749  0.2819  0.5019  1.1237
  323MOL0     C43485   2.416   0.912   3.624  0.0365 -0.3583 -0.0085
  323MOL0     C43486   2.519   1.013   3.662  0.6706  0.6326 -0.4475
  323MOL0     N43487   2.463   1.135   3.724 -0.3553  0.4306  0.2794
  323MOL0     C43488   2.433   1.244   3.657 -0.1989  0.4703 -1.3174
  323MOL0     C43489   2.387   1.324   3.753  0.1787  0.2723 -0.5259
  323MOL0     C43490   2.339   1.467   3.731 -0.6777  0.3974  1.0421
  323MOL0     C43491   2.207   1.466   3.804  1.1178  0.5354 -1.5870
  323MOL0     C43492   2.123   1.585   3.754  0.0075 -0.7034  0.3775
  323MOL0     C43493   1.980   1.557   3.784 -0.2498  0.1071 -0.2200
  323MOL0     O43494   1.906   1.646   3.709 -0.1737  0.0267  0.2775
  323MOL0     C43495   1.788   1.695   3.762  0.8419  1.0423 -0.0708
  323MOL0     C43496   1.718   1.787   3.686 -0.4197 -0.3326  0.4694
  323MOL0     C43497   1.598   1.849   3.724  0.4225  0.1890 -0.1782
  323MOL0     C43498   1.527   1.945   3.627 -0.1517 -0.2273 -0.1006
  323MOL0     C43499   1.535   1.809   3.847  0.1046 -0.4648  0.8429
  323MOL0     C43500   1.396   1.836   3.885  0.1198 -0.1640 -0.2736
  323MOL0     O43501   1.313   1.868   3.779  0.4276 -0.5603 -0.2715
  323MOL0     C43502   1.201   1.932   3.806  0.1589 -0.4669  0.1351
  323MOL0     C43503   1.081   1.892   3.748 -1.1681  0.6867 -0.2160
  323MOL0     C43504   0.952   1.948   3.778 -1.5632 -1.0182  0.6364
  323MOL0     C43505   0.951   2.057   3.862  0.0967 -0.7596 -0.4426
  323MOL0     O43506   0.826   2.119   3.877  0.4121 -0.0933 -0.5108
  323MOL0     C43507   0.798   2.134   4.020 -0.0386  0.4200 -0.1012
  323MOL0     C43508   0.655   2.170   4.049  0.3241 -0.9905 -0.1505
  323MOL0     C43509   0.638   2.310   4.011  0.2096 -0.7208 -0.2519
  323MOL0     C43510   0.495   2.355   4.046 -0.5291 -0.5389  0.8419
  323MOL0     C43511   0.451   2.483   3.964 -0.1744  0.3626 -0.5551
  323MOL0     C43512   0.299   2.523   3.992  0.8874 -0.4488 -0.7657
  323MOL0     C43513   0.222   2.539   3.857  0.5511 -0.1773 -0.8463
  323MOL0     C43514   0.238   2.687   3.813  0.1818 -0.2691 -0.3499
  323MOL0    Cl43515   0.180   2.808   3.930  0.5011  0.3176 -0.1189
  323MOL0     C43516   1.070   2.105   3.926  0.0729 -0.0151 -0.3092
  323MOL0     C43517   1.191   2.041   3.892 -0.8687  0.2651  0.0563
  323MOL0     O43518   1.369   1.818   4.007 -0.2736  0.8604  0.3263
  323MOL0     C43519   1.604   1.720   3.923  1.0832  0.0772 -0.2538
  323MOL0     C43520   1.725   1.658   3.881 -0.2764  0.2702  0.7550
  323MOL0     N43521   2.397   1.269   3.871  0.9293  0.5367  0.9526
  323MOL0     N43522   2.442   1.152   3.856 -0.7536 -0.4136 -0.4440
  323MOL0     C43523   2.722   0.375   4.151 -0.0069  0.0067 -0.0680
  323MOL0     C43524   2.843   0.328   4.209  0.4182 -0.4169  0.2607
  323MOL0     C43525   3.319   0.262   4.205  0.6394  0.4563  0.0530
  323MOL0     C43526   3.289   0.132   4.238  0.0526  0.1217  0.4503
  323MOL0     C43527   3.385   0.026   4.231  1.2521 -0.0198 -0.0877
  323MOL0     C43528   3.522   0.058   4.209  1.4441 -0.4280  0.5048
  323MOL0     O43529   3.618  -0.045   4.215 -0.2174  0.8001  0.2388
  323MOL0     C43530   3.582  -0.179   4.193 -0.4437 -0.2390  1.1885
  323MOL0     C43531   3.720  -0.266   4.193  1.0344 -0.2097 -0.3356
  323MOL0     C43532   3.813  -0.227   4.299  0.5815  0.1925  0.6879
  323MOL0     C43533   3.907  -0.344   4.327 -0.4383  0.1915  0.6441
  323MOL0     C43534   3.975  -0.301   4.451 -0.3209 -0.4275  0.8695
  323MOL0     C43535   4.025  -0.278   4.562 -0.0916 -0.3763  0.5987
  323MOL0     C43536   3.558   0.187   4.192  0.4578 -0.4900 -0.2820
  323MOL0     C43537   3.460   0.295   4.186 -0.6010 -0.0777  0.0285
  323MOL0     H43538   3.047   0.567   4.073 -1.4103  0.6069 -4.6470
  323MOL0     H43539   2.845   0.628   3.971 -1.0682  0.6099 -0.5270
  323MOL0     H43540   2.552   0.340   3.912 -1.5586 -0.6641 -0.0156
  323MOL0     H43541   2.451   0.376   4.042 -2.0291  0.3470 -0.7836
  323MOL0     H43542   2.455   0.528   3.764 -3.8499 -0.6043 -1.1593
  323MOL0     H43543   2.361   0.399   3.805  2.2558 -1.4666 -0.1801
  323MOL0     H43544   2.236   0.542   3.984  1.7381 -1.4183  1.1511
  323MOL0     H43545   2.354   0.664   3.963 -2.9207  1.1083  0.8802
  323MOL0     H43546   2.162   0.551   3.760  0.2269 -0.7947  1.8034
  323MOL0     H43547   2.138   0.702   3.850 -0.4273  0.5653 -0.8335
  323MOL0     H43548   2.333   0.627   3.635 -0.7413 -0.9006 -0.6432
  323MOL0     H43549   2.213   0.747   3.620  0.8965 -4.4541 -2.1891
  323MOL0     H43550   2.317   0.883   3.812  2.8478  3.0830  1.2620
  323MOL0     H43551   2.462   0.771   3.803 -0.0484 -1.8061 -0.3145
  323MOL0     H43552   2.449   0.851   3.539  0.0091  0.6152 -0.7345
  323MOL0     H43553   2.325   0.968   3.599  0.1558 -0.5031 -0.7913
  323MOL0     H43554   2.567   1.053   3.573  0.3882 -1.0587 -1.4221
  323MOL0     H43555   2.591   0.965   3.728 -0.2769 -0.6859 -0.3196
  323MOL0     H43556   2.468   1.260   3.555  4.3729 -2.4535 -0.5390
  323MOL0     H43557   2.412   1.541   3.761  1.7497 -0.5978 -1.8931
  323MOL0     H43558   2.315   1.479   3.625  1.4277 -3.9431 -0.1725
  323MOL0     H43559   2.217   1.479   3.912 -1.2875  0.9903 -1.3729
  323MOL0     H43560   2.158   1.369   3.790  0.6752  0.4724  0.1552
  323MOL0     H43561   2.121   1.606   3.647 -3.5154  0.0733  0.4883
  323MOL0     H43562   2.162   1.675   3.802 -0.5016 -0.3913  0.2013
  323MOL0     H43563   1.986   1.571   3.892  4.3914  1.4110 -0.4219
  323MOL0     H43564   1.954   1.454   3.760  1.6684 -0.5531  0.3834
  323MOL0     H43565   1.768   1.822   3.597 -1.2810 -1.2308 -0.3948
  323MOL0     H43566   1.487   2.035   3.675  0.5910  1.3303 -2.2185
  323MOL0     H43567   1.594   1.976   3.546  0.0945  0.3857  0.3289
  323MOL0     H43568   1.449   1.891   3.573 -2.2743  1.2185  1.3355
  323MOL0     H43569   1.096   1.816   3.671 -0.8650 -1.1800  1.5996
  323MOL0     H43570   0.862   1.918   3.726 -1.9794 -2.1281  1.9202
  323MOL0     H43571   0.832   2.045   4.074 -3.7638 -1.2934 -0.3253
  323MOL0     H43572   0.865   2.216   4.051  1.2986  0.4095 -2.6889
  323MOL0     H43573   0.594   2.111   3.979  2.5332  0.5961 -3.7215
  323MOL0     H43574   0.629   2.152   4.154 -2.0010 -0.1669 -0.5341
  323MOL0     H43575   0.640   2.320   3.902 -1.5510 -0.9672 -0.3391
  323MOL0     H43576   0.718   2.361   4.065 -1.1651  1.7936 -0.4231
  323MOL0     H43577   0.423   2.276   4.026  0.4667 -1.8424  2.1967
  323MOL0     H43578   0.493   2.353   4.155 -0.2292 -0.5327  0.8487
  323MOL0     H43579   0.468   2.459   3.858  0.9680 -1.2050 -0.0477
  323MOL0     H43580   0.535   2.541   4.004  2.9209 -4.4292  0.7770
  323MOL0     H43581   0.242   2.459   4.060  1.0824  1.3731  1.2445
  323MOL0     H43582   0.309   2.616   4.049  0.7763 -1.5577  1.1528
  323MOL0     H43583   0.117   2.524   3.882  1.5051 -0.6108  3.7633
  323MOL0     H43584   0.259   2.468   3.783 -0.2221  0.0544 -1.4616
  323MOL0     H43585   0.184   2.697   3.718  2.2762 -0.5328 -1.6196
  323MOL0     H43586   0.344   2.712   3.811  0.3554 -0.7462  1.2264
  323MOL0     H43587   1.059   2.193   3.989  2.1183 -0.6000  0.9557
  323MOL0     H43588   1.284   2.088   3.920  0.4723 -1.0802 -1.8768
  323MOL0     H43589   1.566   1.681   4.017 -0.7763 -0.1973 -1.0806
  323MOL0     H43590   1.767   1.572   3.931 -0.7428  0.7163  1.9428
  323MOL0     H43591   2.633   0.316   4.165 -0.5323  0.6794 -0.4955
  323MOL0     H43592   2.831   0.229   4.252 -2.9888 -0.7560 -1.1987
  323MOL0     H43593   3.188   0.101   4.263 -0.0358  1.4959  1.9109
  323MOL0     H43594   3.348  -0.075   4.249 -0.5712  0.4477 -1.0309
  323MOL0     H43595   3.511  -0.215   4.268 -1.5530  2.0243  1.3158
  323MOL0     H43596   3.542  -0.195   4.093  1.7065 -0.9202  0.3847
  323MOL0     H43597   3.760  -0.261   4.091  2.8469 -1.1887  0.2775
  323MOL0     H43598   3.689  -0.369   4.210  4.0071 -1.4091 -1.4060
  323MOL0     H43599   3.756  -0.205   4.390  1.6137  0.1430  1.3598
  323MOL0     H43600   3.869  -0.139   4.265  1.2871 -1.3253 -2.3971
  323MOL0     H43601   3.974  -0.345   4.241  0.1895 -0.5035  1.1358
  323MOL0     H43602   3.859  -0.439   4.351 -0.3809  0.0915  0.3608
  323MOL0     H43603   4.086  -0.256   4.647  2.0536 -0.3859 -0.8580
  323MOL0     H43604   3.663   0.209   4.210 -0.3318  2.7031  1.1355
  323MOL0     H43605   3.490   0.398   4.176  1.9142 -0.4198  2.5696
  324MOL0     O43606   2.916   6.321   8.584 -1.1904  0.1741 -0.6225
  324MOL0     C43607   2.947   6.354   8.696 -0.0084  0.1770 -0.4342
  324MOL0     O43608   2.876   6.449   8.775 -0.0266 -0.1005  0.0652
  324MOL0     C43609   2.770   6.530   8.728  0.0253  0.0436  0.5501
  324MOL0     C43610   2.764   6.666   8.773 -0.0216  1.0354  0.1050
  324MOL0     C43611   2.661   6.749   8.724 -0.6951  1.1606  0.3795
  324MOL0     C43612   2.563   6.694   8.650  0.1728 -0.9218  0.4843
  324MOL0     O43613   2.474   6.784   8.600 -0.0558 -0.2297 -0.1871
  324MOL0     C43614   2.363   6.730   8.519  0.4080 -0.5588  0.6233
  324MOL0     C43615   2.259   6.849   8.498  0.1727 -0.7673 -0.1066
  324MOL0     C43616   2.151   6.849   8.605 -0.1486  0.0442 -0.2127
  324MOL0     C43617   2.198   6.902   8.743  0.5078 -0.1874 -0.6081
  324MOL0     C43618   2.239   7.053   8.747  0.3964 -0.3286 -0.5772
  324MOL0     C43619   2.257   7.105   8.892  0.0967 -0.0656  0.2505
  324MOL0     C43620   2.319   7.244   8.889 -0.0946 -0.2868 -0.1679
  324MOL0     C43621   2.471   7.260   8.867  0.4935  0.6360  0.0353
  324MOL0     N43622   2.541   7.233   8.994 -0.7760  0.1767 -0.0853
  324MOL0     C43623   2.577   7.106   9.030  0.2409  0.3585  0.2122
  324MOL0     C43624   2.628   7.119   9.155  0.5253  0.1883  0.2074
  324MOL0     C43625   2.669   7.000   9.240  0.5390 -0.0040  0.0619
  324MOL0     C43626   2.790   6.922   9.191 -0.4185 -0.1712  0.2168
  324MOL0     C43627   2.818   6.795   9.281 -0.3136  1.0586 -0.0610
  324MOL0     C43628   2.959   6.740   9.251  0.5847  0.0163  0.3988
  324MOL0     O43629   2.987   6.600   9.286  0.1835 -0.5610 -0.5860
  324MOL0     C43630   2.932   6.495   9.219 -0.3939 -0.2096  0.2391
  324MOL0     C43631   2.976   6.370   9.250 -0.6619 -0.5373  0.0641
  324MOL0     C43632   2.922   6.260   9.181  0.0802 -0.1991 -0.9947
  324MOL0     C43633   2.964   6.123   9.231 -0.1933  0.2702  0.0666
  324MOL0     C43634   2.818   6.272   9.090 -0.5636  0.6000 -0.3429
  324MOL0     C43635   2.744   6.158   9.035  0.3985  0.3251  0.3719
  324MOL0     O43636   2.714   6.173   8.900  0.0476 -0.1470  0.4749
  324MOL0     C43637   2.613   6.102   8.841 -0.8803  1.0620 -0.1670
  324MOL0     C43638   2.627   6.062   8.713  0.1190 -0.1724 -0.0243
  324MOL0     C43639   2.533   5.993   8.640  0.5225  0.2933  0.1640
  324MOL0     C43640   2.416   5.956   8.703 -0.7881 -0.2364 -0.5662
  324MOL0     O43641   2.324   5.874   8.643  0.3863  0.2619 -0.8521
  324MOL0     C43642   2.270   5.916   8.519 -1.2122 -0.5089 -0.4135
  324MOL0     C43643   2.117   5.930   8.537  0.0500 -1.0098  0.4928
  324MOL0     C43644   2.075   6.042   8.630 -0.0930  0.8243  1.2468
  324MOL0     C43645   1.929   6.040   8.662 -0.0040  0.0766 -1.1771
  324MOL0     C43646   1.885   6.168   8.730 -0.3072 -0.6104 -0.0365
  324MOL0     C43647   1.735   6.170   8.756  0.4342  0.0495  0.0883
  324MOL0     C43648   1.682   6.271   8.854 -0.2148  0.0930 -0.0345
  324MOL0     C43649   1.544   6.224   8.901 -0.0546 -0.0683 -0.4079
  324MOL0    Cl43650   1.496   6.335   9.033  0.1857 -0.0697 -0.5189
  324MOL0     C43651   2.400   5.996   8.839 -0.3882  0.7401 -0.7601
  324MOL0     C43652   2.491   6.070   8.902 -0.1539 -0.8789  0.0225
  324MOL0     O43653   2.704   6.072   9.112 -0.7285 -0.0879 -0.0518
  324MOL0     C43654   2.781   6.400   9.052 -0.7913  0.1790  0.7184
  324MOL0     C43655   2.835   6.512   9.118 -0.7487 -1.1038  0.5789
  324MOL0     N43656   2.609   7.252   9.192  0.5009  0.6157 -0.5366
  324MOL0     N43657   2.570   7.318   9.098 -0.4003  1.2684  0.8272
  324MOL0     C43658   2.560   6.558   8.615  0.4224  0.6482  0.2653
  324MOL0     C43659   2.664   6.477   8.651 -0.3597  0.1899 -0.4655
  324MOL0     C43660   3.055   6.278   8.759 -0.4096 -0.4990  0.2073
  324MOL0     C43661   3.128   6.331   8.875 -0.0003 -0.5659 -0.2353
  324MOL0     C43662   3.221   6.246   8.934 -0.4651  0.5887  0.2514
  324MOL0     C43663   3.246   6.111   8.889  0.0424  0.1258  0.1876
  324MOL0     O43664   3.341   6.028   8.943  0.0437  0.1447 -0.2507
  324MOL0     C43665   3.440   6.076   9.043  1.4944 -0.1491  0.3079
  324MOL0     C43666   3.550   6.155   8.973 -0.8457 -0.0107 -0.0426
  324MOL0     C43667   3.649   6.062   8.906  0.1377 -0.6272 -0.8161
  324MOL0     C43668   3.602   5.993   8.783  1.1487  0.6502  0.0195
  324MOL0     C43669   3.716   5.922   8.727  0.5037  0.1395  0.1978
  324MOL0     C43670   3.807   5.863   8.663 -0.2317 -0.0175 -0.6957
  324MOL0     C43671   3.173   6.065   8.778  0.4907  0.0942  0.2610
  324MOL0     C43672   3.080   6.142   8.715  0.9573 -0.3339  0.5629
  324MOL0     H43673   2.843   6.708   8.834 -0.0584  1.7566 -0.3332
  324MOL0     H43674   2.683   6.852   8.750 -1.0442  0.5779  3.4422
  324MOL0     H43675   2.404   6.705   8.421 -1.9218  1.2568 -0.9111
  324MOL0     H43676   2.320   6.644   8.571  2.2706 -2.3645 -0.6623
  324MOL0     H43677   2.307   6.948   8.496  0.9856 -1.1480  0.5009
  324MOL0     H43678   2.208   6.837   8.401 -0.6474  0.6350  0.1058
  324MOL0     H43679   2.073   6.914   8.564 -0.6876 -0.0700  0.5942
  324MOL0     H43680   2.119   6.745   8.622  0.2989  0.2718  2.3841
  324MOL0     H43681   2.121   6.878   8.818  1.6961 -2.7293 -0.0969
  324MOL0     H43682   2.291   6.859   8.782 -0.1520  0.5642  2.0449
  324MOL0     H43683   2.329   7.065   8.687  1.2087 -0.4226  0.5813
  324MOL0     H43684   2.159   7.110   8.698  1.0579 -0.3709 -1.7360
  324MOL0     H43685   2.156   7.102   8.932  0.2484 -2.2649  0.6028
  324MOL0     H43686   2.320   7.041   8.954 -0.7576 -0.2967  0.8991
  324MOL0     H43687   2.265   7.305   8.816  0.5904  2.7306  1.6688
  324MOL0     H43688   2.295   7.287   8.987 -1.5782  0.5022 -0.8323
  324MOL0     H43689   2.478   7.365   8.836  1.4907  0.9780  1.3241
  324MOL0     H43690   2.497   7.189   8.789 -0.9368 -1.2336  1.1795
  324MOL0     H43691   2.557   7.013   8.979 -1.0645  0.8074 -0.1349
  324MOL0     H43692   2.698   7.043   9.337 -0.0199  0.9124 -0.1615
  324MOL0     H43693   2.585   6.930   9.243  1.3744 -1.4283 -4.0777
  324MOL0     H43694   2.869   6.997   9.203  1.1980 -1.4991 -1.5083
  324MOL0     H43695   2.785   6.887   9.088 -2.5852  1.6388 -0.3828
  324MOL0     H43696   2.741   6.721   9.256  1.5568 -0.9126 -0.2297
  324MOL0     H43697   2.820   6.818   9.388 -0.1853  0.9771 -0.0455
  324MOL0     H43698   3.038   6.804   9.293 -0.4586  0.7280  1.3428
  324MOL0     H43699   2.983   6.758   9.146 -2.9623  1.8396 -0.2833
  324MOL0     H43700   3.038   6.363   9.339 -0.7276 -2.4201 -0.0012
  324MOL0     H43701   3.072   6.132   9.240 -0.2310  0.8857 -0.0638
  324MOL0     H43702   2.921   6.102   9.329  0.7765  1.1387  0.6926
  324MOL0     H43703   2.950   6.042   9.158  0.0441  0.5138 -0.2518
  324MOL0     H43704   2.727   6.085   8.677  0.0636  3.3950  1.7061
  324MOL0     H43705   2.552   5.976   8.535  1.6741  1.9946  0.0575
  324MOL0     H43706   2.313   6.013   8.492 -2.3051  0.6906  1.8379
  324MOL0     H43707   2.302   5.839   8.449  1.9059 -0.9085  1.2720
  324MOL0     H43708   2.080   5.952   8.437  0.3717 -2.7619 -0.0349
  324MOL0     H43709   2.067   5.841   8.577 -2.7376 -0.8248 -2.2091
  324MOL0     H43710   2.110   6.139   8.592  1.0003 -0.4096 -1.1289
  324MOL0     H43711   2.132   6.025   8.722 -0.3015  1.7887  1.5722
  324MOL0     H43712   1.879   6.031   8.565  2.3507 -2.1859 -2.3063
  324MOL0     H43713   1.904   5.953   8.724 -1.7689  0.4486 -1.3082
  324MOL0     H43714   1.905   6.261   8.675  0.5913 -0.5742  0.3321
  324MOL0     H43715   1.934   6.175   8.828 -1.3032 -2.0179  0.5796
  324MOL0     H43716   1.672   6.176   8.667  1.1751  3.2762 -0.3551
  324MOL0     H43717   1.696   6.071   8.781  0.3181  0.3544  1.1922
  324MOL0     H43718   1.677   6.369   8.805 -0.5759  0.5953  0.9764
  324MOL0     H43719   1.757   6.277   8.933  1.7839  3.3349 -1.9340
  324MOL0     H43720   1.537   6.118   8.928  0.1316  0.9303  4.4693
  324MOL0     H43721   1.476   6.250   8.819  0.6950  1.3532 -0.6097
  324MOL0     H43722   2.315   5.966   8.899  2.1706 -2.6595  1.5429
  324MOL0     H43723   2.467   6.097   9.004 -1.2831 -2.5224  0.2285
  324MOL0     H43724   2.697   6.412   8.983 -0.6626 -2.3062  0.0465
  324MOL0     H43725   2.799   6.605   9.075 -0.1877 -0.7371  0.8992
  324MOL0     H43726   2.484   6.512   8.554 -3.3334  2.5601  3.0597
  324MOL0     H43727   2.656   6.372   8.625  0.2740 -0.3507  1.3469
  324MOL0     H43728   3.105   6.432   8.908 -0.3449 -0.4491 -0.8251
  324MOL0     H43729   3.274   6.282   9.022 -0.1016  0.8999 -0.0916
  324MOL0     H43730   3.398   6.138   9.124  0.1394  0.8461 -1.0862
  324MOL0     H43731   3.474   5.982   9.087 -0.5745 -1.6990 -1.2046
  324MOL0     H43732   3.612   6.214   9.041  0.2719  1.2250 -2.0365
  324MOL0     H43733   3.512   6.224   8.897  4.0340 -0.0189 -2.9268
  324MOL0     H43734   3.679   5.983   8.975 -1.2171 -1.2212 -0.8734
  324MOL0     H43735   3.735   6.128   8.895 -0.1213 -0.4403 -1.8411
  324MOL0     H43736   3.557   6.064   8.712 -1.1267 -3.9872 -3.8159
  324MOL0     H43737   3.520   5.925   8.809  0.1821  2.0574  0.8051
  324MOL0     H43738   3.887   5.818   8.608  0.8001  0.0778  0.6540
  324MOL0     H43739   3.208   5.964   8.759 -0.1096  0.0566 -0.6791
  324MOL0     H43740   3.035   6.100   8.626  1.4073  0.1931  0.0756
  325MOL0     O43741   9.069   3.437   8.399 -0.4101  0.3627  0.4516
  325MOL0     C43742   9.145   3.510   8.460 -0.8143 -0.3403  0.4215
  325MOL0     O43743   9.150   3.644   8.454 -1.0464 -0.8067  0.0385
  325MOL0     C43744   9.050   3.716   8.389  0.0064  0.3991  0.7117
  325MOL0     C43745   8.972   3.810   8.453 -0.0432 -0.3629  0.0373
  325MOL0     C43746   8.855   3.862   8.392 -1.1547  0.1360 -0.7382
  325MOL0     C43747   8.827   3.810   8.255 -0.1505 -0.3787 -0.8964
  325MOL0     O43748   8.722   3.848   8.175  0.1667 -0.0114 -0.0367
  325MOL0     C43749   8.600   3.824   8.248  0.1274  0.6948 -0.3797
  325MOL0     C43750   8.529   3.937   8.308  0.4016  0.3381 -0.7919
  325MOL0     C43751   8.382   3.911   8.366  0.6448 -0.8313  0.0769
  325MOL0     C43752   8.322   4.032   8.434  0.1665  0.0696 -0.2917
  325MOL0     C43753   8.168   4.047   8.436 -0.7971  0.4794 -0.1928
  325MOL0     C43754   8.113   4.190   8.422 -1.0889 -0.1910 -0.1740
  325MOL0     C43755   7.976   4.193   8.362 -0.7999  0.5046  1.7071
  325MOL0     C43756   7.882   4.119   8.460 -0.9709  0.0693  1.0760
  325MOL0     N43757   7.741   4.147   8.435  0.2021 -0.6004  0.0910
  325MOL0     C43758   7.688   4.161   8.309  0.2983 -0.1158  0.3457
  325MOL0     C43759   7.561   4.205   8.342 -0.1132  0.3428  0.3489
  325MOL0     C43760   7.445   4.248   8.247 -1.2109 -0.0695 -0.1307
  325MOL0     C43761   7.471   4.383   8.209  0.0945  0.2765 -0.6594
  325MOL0     C43762   7.382   4.426   8.086  0.8139 -0.1349 -0.4651
  325MOL0     C43763   7.234   4.451   8.136 -0.6982  0.6257  0.1710
  325MOL0     O43764   7.159   4.551   8.063 -0.5284 -0.2499 -1.0708
  325MOL0     C43765   7.024   4.566   8.094 -0.1872 -0.2588  0.2378
  325MOL0     C43766   6.952   4.667   8.020 -0.5658 -0.1063  0.0841
  325MOL0     C43767   6.820   4.689   8.041 -1.0438  0.1433  0.2350
  325MOL0     C43768   6.749   4.793   7.956 -0.4320 -0.0983  0.6497
  325MOL0     C43769   6.751   4.612   8.139 -0.2219 -0.1615  0.0714
  325MOL0     C43770   6.602   4.627   8.175 -1.1636 -0.2498  1.1641
  325MOL0     O43771   6.563   4.536   8.269 -0.8063 -0.3768 -0.4679
  325MOL0     C43772   6.434   4.524   8.302 -0.1439 -0.1923  0.5852
  325MOL0     C43773   6.402   4.543   8.438  0.1222 -0.0729  0.0007
  325MOL0     C43774   6.268   4.518   8.479 -0.5144 -0.1815 -0.3163
  325MOL0     C43775   6.181   4.461   8.392  0.7551  0.3983  0.4441
  325MOL0     O43776   6.054   4.436   8.440  0.0453 -0.3049 -0.2384
  325MOL0     C43777   5.952   4.399   8.362 -0.1307 -0.3129  0.5855
  325MOL0     C43778   5.819   4.425   8.434 -0.1983  0.4232  0.1186
  325MOL0     C43779   5.708   4.338   8.382  0.1934  0.0433  0.7412
  325MOL0     C43780   5.568   4.354   8.452 -0.5723  0.0198 -0.0667
  325MOL0     C43781   5.444   4.299   8.383 -0.2902  1.0829 -0.8259
  325MOL0     C43782   5.318   4.367   8.442 -0.1729 -0.4795  0.0108
  325MOL0     C43783   5.176   4.311   8.409  0.1730  0.1448 -0.0738
  325MOL0     C43784   5.067   4.393   8.455 -0.2448 -0.1948 -0.4066
  325MOL0    Cl43785   4.914   4.297   8.437 -0.6050 -0.1299 -0.0385
  325MOL0     C43786   6.221   4.429   8.262 -0.0732  0.1027  0.7552
  325MOL0     C43787   6.354   4.450   8.222  0.7634 -0.3812  0.5613
  325MOL0     O43788   6.529   4.700   8.109  0.0296 -0.0379 -0.4140
  325MOL0     C43789   6.822   4.508   8.210 -0.3020  0.6971  0.3463
  325MOL0     C43790   6.962   4.491   8.186  0.0696  0.6293  0.4537
  325MOL0     N43791   7.545   4.207   8.474  0.6511 -0.0993  0.1810
  325MOL0     N43792   7.648   4.161   8.531  0.7954  0.1378 -0.0194
  325MOL0     C43793   8.911   3.719   8.193  0.2785 -0.5420 -0.4621
  325MOL0     C43794   9.025   3.680   8.256 -0.6855 -0.3006  0.4492
  325MOL0     C43795   9.230   3.446   8.557 -0.7176  0.2461  0.3413
  325MOL0     C43796   9.357   3.495   8.581 -0.2083  0.4551  0.9686
  325MOL0     C43797   9.433   3.430   8.678 -0.1512  0.3648  0.3983
  325MOL0     C43798   9.378   3.331   8.767 -0.1621 -0.3438  0.1295
  325MOL0     O43799   9.442   3.267   8.867 -0.2081 -0.3008 -0.4217
  325MOL0     C43800   9.592   3.255   8.862  0.1955 -0.4464  0.2424
  325MOL0     C43801   9.630   3.143   8.960  0.0641  0.2506  0.4838
  325MOL0     C43802   9.770   3.089   8.937 -0.3270  0.0279 -0.3333
  325MOL0     C43803   9.874   3.183   8.998  0.2411 -1.0590  0.0712
  325MOL0     C43804  10.014   3.129   9.006 -0.1462  0.0885  0.2711
  325MOL0     C43805  10.127   3.080   9.000 -0.2200  0.6264  0.7448
  325MOL0     C43806   9.245   3.303   8.749 -0.6620  0.0398  0.2084
  325MOL0     C43807   9.170   3.358   8.641  0.3250  0.6557 -0.4940
  325MOL0     H43808   8.993   3.824   8.559  0.3264 -0.4521 -0.0239
  325MOL0     H43809   8.794   3.937   8.441 -0.2907 -0.4110  1.2817
  325MOL0     H43810   8.530   3.778   8.177  1.8911  1.5062 -2.7860
  325MOL0     H43811   8.608   3.748   8.326 -0.2228  0.0884 -0.9257
  325MOL0     H43812   8.589   3.973   8.391 -2.0378 -0.3507  1.4183
  325MOL0     H43813   8.517   4.014   8.231  0.1040  1.2944  0.1959
  325MOL0     H43814   8.310   3.887   8.286 -0.3475 -0.0628  0.7152
  325MOL0     H43815   8.385   3.833   8.442 -2.8807 -1.8295 -0.5967
  325MOL0     H43816   8.358   4.031   8.538  1.3432 -4.2132 -0.5494
  325MOL0     H43817   8.362   4.123   8.388 -1.3648  0.3649 -1.0988
  325MOL0     H43818   8.109   3.982   8.370 -2.2755 -1.7230  3.0008
  325MOL0     H43819   8.131   4.012   8.533 -1.7594 -0.1131 -0.7546
  325MOL0     H43820   8.119   4.250   8.513 -1.0632 -0.0819 -0.2463
  325MOL0     H43821   8.172   4.240   8.345 -0.0520 -0.9016  0.1453
  325MOL0     H43822   7.947   4.299   8.362 -1.4915  0.3779 -0.8010
  325MOL0     H43823   7.973   4.159   8.258  0.9817 -0.0127  1.7925
  325MOL0     H43824   7.918   4.160   8.555  0.5922  2.4899 -0.4602
  325MOL0     H43825   7.913   4.016   8.443  1.2472  0.9007 -0.2063
  325MOL0     H43826   7.729   4.145   8.210  3.2885  0.3608  1.4010
  325MOL0     H43827   7.457   4.178   8.164  5.9612  0.7581 -0.3969
  325MOL0     H43828   7.353   4.245   8.306  0.1379  1.0363  2.1298
  325MOL0     H43829   7.575   4.392   8.176  0.1032 -4.4837 -2.7910
  325MOL0     H43830   7.460   4.440   8.301  3.2591  1.1556 -0.7313
  325MOL0     H43831   7.384   4.356   8.002  2.3032  1.1245 -1.5539
  325MOL0     H43832   7.431   4.516   8.048  5.2605 -1.7910  0.6741
  325MOL0     H43833   7.240   4.488   8.239 -0.4025 -0.8238  0.6896
  325MOL0     H43834   7.180   4.357   8.151 -0.6932  0.7006  0.6866
  325MOL0     H43835   7.011   4.729   7.953 -2.6019  1.0826 -0.6847
  325MOL0     H43836   6.820   4.863   7.912 -0.4464  0.6914  1.8394
  325MOL0     H43837   6.694   4.742   7.877 -0.6694 -1.9766  1.9521
  325MOL0     H43838   6.688   4.858   8.020  2.3385  1.8429  1.5013
  325MOL0     H43839   6.486   4.572   8.500 -0.8215 -0.3679  1.4438
  325MOL0     H43840   6.231   4.552   8.575 -1.4528  2.0961 -1.4133
  325MOL0     H43841   5.939   4.459   8.272  0.0771  0.4269  1.0476
  325MOL0     H43842   5.964   4.293   8.335 -0.5137 -0.0807 -0.5608
  325MOL0     H43843   5.833   4.392   8.537 -1.4030 -1.0925 -0.1686
  325MOL0     H43844   5.803   4.533   8.443  1.2699  0.4915  3.0123
  325MOL0     H43845   5.737   4.233   8.376 -3.6745 -1.1507 -2.8457
  325MOL0     H43846   5.690   4.368   8.278  1.7369  0.3844  0.5542
  325MOL0     H43847   5.569   4.316   8.554  0.0241 -1.5944 -0.6559
  325MOL0     H43848   5.559   4.463   8.455  1.3788  0.3376 -2.4165
  325MOL0     H43849   5.437   4.190   8.392 -3.3447  1.1131 -1.6192
  325MOL0     H43850   5.450   4.317   8.275  3.9030  2.5499 -0.5626
  325MOL0     H43851   5.329   4.374   8.551 -2.8790  1.2418  0.2474
  325MOL0     H43852   5.322   4.469   8.405 -2.3033 -0.0462  0.8251
  325MOL0     H43853   5.174   4.208   8.447  0.0260 -0.5506 -1.8830
  325MOL0     H43854   5.172   4.309   8.300 -1.2226  0.1924 -0.0358
  325MOL0     H43855   5.068   4.485   8.397 -3.4770  1.2782  1.6318
  325MOL0     H43856   5.085   4.413   8.560  1.2217  1.6965 -0.9657
  325MOL0     H43857   6.144   4.379   8.204  2.1703  0.4860 -2.8790
  325MOL0     H43858   6.390   4.423   8.123  4.0695  1.7702  1.0013
  325MOL0     H43859   6.781   4.445   8.288  0.0393 -2.7334 -2.0549
  325MOL0     H43860   7.018   4.411   8.234  1.0832 -0.3730 -2.2153
  325MOL0     H43861   8.903   3.671   8.096  1.6410 -3.0049  0.5363
  325MOL0     H43862   9.085   3.603   8.210 -0.1510  0.4835 -0.2087
  325MOL0     H43863   9.404   3.576   8.527 -0.3030  0.3885  0.7831
  325MOL0     H43864   9.535   3.464   8.691 -0.3372  0.1132  3.1024
  325MOL0     H43865   9.628   3.232   8.761 -0.5378 -3.0533  0.5121
  325MOL0     H43866   9.640   3.350   8.886  3.5969 -2.0667  0.3826
  325MOL0     H43867   9.546   3.074   8.967 -0.7162  1.3561  3.0328
  325MOL0     H43868   9.632   3.179   9.063  2.5164 -2.2770  1.4283
  325MOL0     H43869   9.776   3.081   8.828  0.7277 -0.8242 -0.2262
  325MOL0     H43870   9.791   2.994   8.986  1.8036  2.9524  5.3619
  325MOL0     H43871   9.843   3.215   9.098  3.8237  1.0116  0.6826
  325MOL0     H43872   9.878   3.279   8.947 -0.8541 -0.6425  0.7330
  325MOL0     H43873  10.219   3.026   9.008  0.6423  2.0625  0.8305
  325MOL0     H43874   9.194   3.226   8.805 -2.6818 -0.4591 -2.1376
  325MOL0     H43875   9.064   3.336   8.632  0.6646 -2.0579  1.0821
  326MOL0     O43876  11.003   0.302   1.746 -0.3278  0.1311 -0.0666
  326MOL0     C43877  11.071   0.253   1.653 -0.6958  0.2053 -0.1707
  326MOL0     O43878  11.033   0.261   1.519 -0.3649  0.1723  0.1169
  326MOL0     C43879  10.908   0.277   1.475 -0.3650 -0.0038  0.2924
  326MOL0     C43880  10.892   0.344   1.349  0.0520 -0.0719  0.0387
  326MOL0     C43881  10.762   0.368   1.300  0.6002 -0.7885 -1.1851
  326MOL0     C43882  10.653   0.322   1.367  0.6641  0.3208  0.0809
  326MOL0     O43883  10.525   0.323   1.316 -0.0526 -0.3508  0.3325
  326MOL0     C43884  10.491   0.434   1.225 -0.2441  0.0307 -0.3865
  326MOL0     C43885  10.379   0.398   1.126  0.7672  0.9945 -0.5055
  326MOL0     C43886  10.232   0.416   1.184 -0.0640  0.4003 -0.3335
  326MOL0     C43887  10.119   0.338   1.114  0.0634  0.1787  0.2908
  326MOL0     C43888   9.981   0.409   1.133  0.1924  0.4021 -0.2040
  326MOL0     C43889   9.874   0.353   1.045 -0.6464  0.3086  0.6086
  326MOL0     C43890   9.810   0.219   1.099  0.2131  0.5361  0.5990
  326MOL0     C43891   9.689   0.180   1.012 -0.6390  0.7607  0.5486
  326MOL0     N43892   9.721   0.177   0.870 -0.4868  0.1305 -0.0508
  326MOL0     C43893   9.821   0.097   0.821 -0.2530  0.1116 -0.1290
  326MOL0     C43894   9.858   0.150   0.701 -0.6680 -0.8766  0.2310
  326MOL0     C43895   9.981   0.103   0.623  0.0583  0.4104 -0.3117
  326MOL0     C43896  10.100   0.189   0.674 -0.8708 -0.1579  0.2334
  326MOL0     C43897  10.239   0.137   0.625 -0.2086  0.0673 -0.4929
  326MOL0     C43898  10.355   0.232   0.641 -0.0048  0.2007  0.7124
  326MOL0     O43899  10.379   0.253   0.776  0.1490  0.0907 -0.0374
  326MOL0     C43900  10.505   0.312   0.799 -0.1760 -0.3753 -0.5981
  326MOL0     C43901  10.541   0.438   0.748  0.7174 -0.2102 -0.8404
  326MOL0     C43902  10.680   0.478   0.742 -0.5525  0.9274  0.6275
  326MOL0     C43903  10.707   0.604   0.672 -0.3313 -0.6270  0.2500
  326MOL0     C43904  10.775   0.407   0.816 -0.8830  1.1266 -0.6922
  326MOL0     C43905  10.920   0.441   0.837 -0.0173 -0.0776 -0.5271
  326MOL0     O43906  10.977   0.375   0.939  0.6309 -0.1620  0.1254
  326MOL0     C43907  11.110   0.397   0.962 -0.7153 -0.2383  0.1669
  326MOL0     C43908  11.184   0.517   0.975 -0.9591 -0.6130 -0.7878
  326MOL0     C43909  11.318   0.526   1.021 -0.9354  0.2585 -0.5257
  326MOL0     C43910  11.383   0.400   1.046  0.4663  0.6143 -0.7750
  326MOL0     O43911  11.510   0.391   1.095  0.4403 -0.3079  0.4023
  326MOL0     C43912  11.548   0.489   1.202  0.9524  0.2461  1.2747
  326MOL0     C43913  11.663   0.423   1.268 -0.9405  0.5956 -0.7797
  326MOL0     C43914  11.718   0.504   1.381  0.1661 -0.2214  0.2703
  326MOL0     C43915  11.805   0.431   1.475 -0.6605  0.1943 -0.3383
  326MOL0     C43916  11.840   0.506   1.607  0.5977  0.3649 -0.1334
  326MOL0     C43917  11.873   0.650   1.586 -0.4596 -0.0612  0.1722
  326MOL0     C43918  11.931   0.702   1.715 -0.7524 -0.1307  1.0386
  326MOL0     C43919  12.066   0.648   1.755 -0.3761 -0.0522  0.0714
  326MOL0    Cl43920  12.122   0.760   1.877 -0.1627  0.1465  0.1919
  326MOL0     C43921  11.319   0.278   1.032  1.0328  0.4169 -0.0829
  326MOL0     C43922  11.186   0.278   0.997 -0.3383 -0.1540  0.6638
  326MOL0     O43923  10.978   0.521   0.765 -0.5377 -0.5143  0.2882
  326MOL0     C43924  10.731   0.285   0.871 -0.0289  0.5688  0.9549
  326MOL0     C43925  10.599   0.243   0.869 -0.1125 -0.1071 -0.0403
  326MOL0     N43926   9.780   0.263   0.676  0.8083  0.5515 -0.0492
  326MOL0     N43927   9.694   0.271   0.778  0.4562  0.7154  0.4986
  326MOL0     C43928  10.678   0.255   1.493  0.0835  0.3720  0.0881
  326MOL0     C43929  10.802   0.236   1.545  0.0690 -0.3708 -0.2797
  326MOL0     C43930  11.194   0.191   1.691 -0.2578  0.3890 -0.0024
  326MOL0     C43931  11.306   0.203   1.613  0.7263 -0.0421 -0.0008
  326MOL0     C43932  11.430   0.164   1.662 -0.1844  0.0487  0.3513
  326MOL0     C43933  11.449   0.122   1.788  0.1072  1.3890 -0.5706
  326MOL0     O43934  11.572   0.102   1.836 -0.5586 -0.2334 -0.1871
  326MOL0     C43935  11.595   0.040   1.965  0.4290 -0.1694  0.0143
  326MOL0     C43936  11.742   0.015   1.973  0.2101 -0.2690 -0.4514
  326MOL0     C43937  11.777  -0.125   1.940  0.3665 -0.0377  0.7757
  326MOL0     C43938  11.934  -0.137   1.943  0.4502  0.2205 -0.6176
  326MOL0     C43939  11.966  -0.266   1.883 -0.2515 -0.0100 -0.7331
  326MOL0     C43940  11.987  -0.370   1.827  0.4865 -0.0807  0.4400
  326MOL0     C43941  11.337   0.089   1.859 -0.4147  0.4905 -0.5856
  326MOL0     C43942  11.210   0.124   1.814  0.0211 -0.3185  0.8861
  326MOL0     H43943  10.978   0.387   1.298  0.3350  2.7962  2.6630
  326MOL0     H43944  10.749   0.414   1.202 -0.5873  0.7847 -0.3370
  326MOL0     H43945  10.472   0.529   1.275  1.5964  0.4269 -0.3656
  326MOL0     H43946  10.569   0.449   1.150  0.1112  0.0548 -0.0150
  326MOL0     H43947  10.397   0.451   1.032 -0.3092 -1.5612 -2.2475
  326MOL0     H43948  10.387   0.292   1.102 -0.5548  1.2316 -2.1828
  326MOL0     H43949  10.235   0.376   1.286 -1.1783 -0.2702 -0.5430
  326MOL0     H43950  10.205   0.522   1.188 -1.1752  0.0891  1.5020
  326MOL0     H43951  10.131   0.338   1.005 -1.3455 -1.2105  0.1044
  326MOL0     H43952  10.121   0.233   1.144  0.5482  0.3010  0.7007
  326MOL0     H43953   9.945   0.407   1.236  0.2556  2.4407 -0.1020
  326MOL0     H43954   9.996   0.516   1.115  0.5404  0.2270 -1.0322
  326MOL0     H43955   9.797   0.430   1.048  0.1160  1.0728  0.7282
  326MOL0     H43956   9.921   0.341   0.947  2.6754  2.1231  1.8322
  326MOL0     H43957   9.893   0.148   1.110 -0.3076 -0.4491 -1.3668
  326MOL0     H43958   9.780   0.240   1.202 -1.0632  2.0551 -0.0514
  326MOL0     H43959   9.609   0.250   1.037 -2.6653 -1.0442 -0.4926
  326MOL0     H43960   9.655   0.078   1.035 -0.6775  0.3664 -1.0995
  326MOL0     H43961   9.871   0.021   0.879  0.5257 -0.0041 -0.9367
  326MOL0     H43962  10.000  -0.004   0.636 -2.0737  0.3193  3.3381
  326MOL0     H43963   9.957   0.128   0.519 -0.8969  1.1575  0.0750
  326MOL0     H43964  10.100   0.201   0.783  0.9090 -1.7160  0.4664
  326MOL0     H43965  10.083   0.288   0.630  0.6691 -0.7216 -1.8081
  326MOL0     H43966  10.220   0.111   0.521 -1.5902  0.0333 -0.2519
  326MOL0     H43967  10.261   0.039   0.669 -0.8818 -0.3169 -0.9931
  326MOL0     H43968  10.324   0.331   0.605  0.2293  1.0462  2.7053
  326MOL0     H43969  10.441   0.203   0.580 -1.2146  1.5832 -1.8460
  326MOL0     H43970  10.459   0.497   0.707 -0.4959 -0.8823  0.5229
  326MOL0     H43971  10.784   0.590   0.595  0.4107  0.5189  0.7654
  326MOL0     H43972  10.621   0.653   0.625  0.5777  1.1441  0.3510
  326MOL0     H43973  10.750   0.675   0.743  0.8183 -2.1904  1.1764
  326MOL0     H43974  11.134   0.612   0.957 -1.4966 -1.1361 -2.1220
  326MOL0     H43975  11.368   0.618   1.048 -0.0716 -0.1863 -0.5753
  326MOL0     H43976  11.567   0.590   1.164  2.2978 -0.8715 -1.2736
  326MOL0     H43977  11.467   0.501   1.274 -2.0477 -1.8739 -1.4500
  326MOL0     H43978  11.627   0.326   1.306 -3.7870  1.9468  0.2402
  326MOL0     H43979  11.751   0.419   1.204  1.0627  2.2661  1.7168
  326MOL0     H43980  11.629   0.542   1.432  0.2188 -0.2207  0.3627
  326MOL0     H43981  11.782   0.588   1.351 -0.4929  0.1722 -0.0482
  326MOL0     H43982  11.755   0.339   1.507 -0.5839 -0.1755 -1.2388
  326MOL0     H43983  11.889   0.399   1.413 -2.3676 -2.4320 -1.4625
  326MOL0     H43984  11.921   0.450   1.656  0.6666  1.7538  1.4507
  326MOL0     H43985  11.749   0.517   1.667 -1.3149 -3.1372 -2.1294
  326MOL0     H43986  11.939   0.675   1.503 -2.3789  2.7304 -0.6546
  326MOL0     H43987  11.781   0.702   1.555  0.4570  1.0651 -0.7336
  326MOL0     H43988  11.862   0.677   1.796 -1.9797  1.6313  0.5810
  326MOL0     H43989  11.945   0.811   1.714  0.0211 -0.2127  1.4545
  326MOL0     H43990  12.129   0.641   1.666  0.9376  0.0835  0.9697
  326MOL0     H43991  12.059   0.544   1.786 -2.5521 -0.4001 -1.3126
  326MOL0     H43992  11.367   0.184   1.056 -1.8630 -1.0394  0.4479
  326MOL0     H43993  11.121   0.191   1.001  0.0183 -0.3898  4.7504
  326MOL0     H43994  10.795   0.220   0.928  3.5013  1.4855 -1.6183
  326MOL0     H43995  10.575   0.142   0.901  0.9705 -0.3430  0.0589
  326MOL0     H43996  10.589   0.214   1.539 -0.8628  1.5012 -0.7092
  326MOL0     H43997  10.802   0.180   1.638 -0.2779  0.9093  0.5194
  326MOL0     H43998  11.295   0.248   1.515 -3.0975 -0.6628 -0.0101
  326MOL0     H43999  11.514   0.187   1.597 -0.4035 -2.8926 -1.1498
  326MOL0     H44000  11.561   0.111   2.042  2.6205  1.9890 -0.8745
  326MOL0     H44001  11.539  -0.054   1.968 -1.2532  0.7696 -0.7681
  326MOL0     H44002  11.770   0.053   2.072 -2.8987  0.6930  0.1553
  326MOL0     H44003  11.792   0.085   1.906  1.2850  1.3980  1.9399
  326MOL0     H44004  11.742  -0.151   1.840  1.0772  2.6164 -0.2433
  326MOL0     H44005  11.729  -0.198   2.006  1.3874 -3.5568 -2.0400
  326MOL0     H44006  11.962  -0.137   2.048  0.5529 -1.0201 -0.6308
  326MOL0     H44007  11.985  -0.061   1.883  2.4718 -0.6932 -0.1096
  326MOL0     H44008  11.990  -0.464   1.774 -4.2419  0.2300 -0.8727
  326MOL0     H44009  11.329   0.053   1.961 -0.7585  0.6978 -0.5391
  326MOL0     H44010  11.132   0.111   1.888  1.0190 -0.0616  2.0220
  327MOL0     O44011   4.539   3.041   1.127 -0.1012  0.1291 -0.4502
  327MOL0     C44012   4.591   2.946   1.071  0.3649 -0.0780 -0.7139
  327MOL0     O44013   4.553   2.818   1.093  0.9301 -0.0057  0.6028
  327MOL0     C44014   4.447   2.775   1.175  0.5418 -0.4748 -0.0191
  327MOL0     C44015   4.354   2.858   1.247 -0.5626  0.6595  0.2732
  327MOL0     C44016   4.252   2.793   1.315  0.0592 -0.6040 -0.4228
  327MOL0     C44017   4.249   2.659   1.340  0.7235 -0.1601 -0.1014
  327MOL0     O44018   4.165   2.624   1.443  0.7599  0.3151 -0.0805
  327MOL0     C44019   4.154   2.486   1.469  0.3298 -0.5002  0.4246
  327MOL0     C44020   4.050   2.461   1.583 -0.8828 -0.2955 -0.0477
  327MOL0     C44021   4.054   2.541   1.706 -0.0901 -1.0692  0.3249
  327MOL0     C44022   3.974   2.485   1.813 -0.0012  0.0524  0.2080
  327MOL0     C44023   3.977   2.579   1.936 -0.0889  0.0620 -0.0228
  327MOL0     C44024   3.881   2.537   2.044 -0.1237  0.5148 -0.2919
  327MOL0     C44025   3.884   2.647   2.155  0.0802  0.8873 -0.0069
  327MOL0     C44026   3.858   2.583   2.297 -0.2229  0.2372  0.3851
  327MOL0     N44027   3.852   2.678   2.403 -0.7250 -0.5044 -0.6242
  327MOL0     C44028   3.741   2.727   2.474  0.7349 -0.4325 -0.2507
  327MOL0     C44029   3.803   2.812   2.558  0.2569  0.0634  0.0833
  327MOL0     C44030   3.749   2.908   2.664 -0.2774 -0.1248 -0.0478
  327MOL0     C44031   3.601   2.959   2.636 -0.0010  0.2841 -0.6997
  327MOL0     C44032   3.592   3.100   2.574  0.5046  0.4565 -0.1922
  327MOL0     C44033   3.586   3.095   2.418 -1.2295  1.2796  0.2361
  327MOL0     O44034   3.468   3.041   2.360  0.0056  0.4518 -0.0039
  327MOL0     C44035   3.339   3.084   2.400 -0.3191  0.3288 -0.7445
  327MOL0     C44036   3.324   3.217   2.440 -0.8627  1.0985  0.1203
  327MOL0     C44037   3.201   3.277   2.463  0.3179 -0.8901  0.0453
  327MOL0     C44038   3.211   3.417   2.504  0.4772  0.6500 -1.0448
  327MOL0     C44039   3.082   3.202   2.447 -0.3816  0.2691  0.5348
  327MOL0     C44040   2.945   3.251   2.485  0.7592  0.5794  0.1131
  327MOL0     O44041   2.839   3.169   2.448 -0.2672 -0.0385  0.2549
  327MOL0     C44042   2.711   3.180   2.496 -0.8204 -0.4888 -0.5393
  327MOL0     C44043   2.653   3.126   2.612 -0.5174  0.0406 -0.5679
  327MOL0     C44044   2.515   3.130   2.633 -0.1111 -0.6825 -1.3008
  327MOL0     C44045   2.430   3.204   2.546 -0.0665  0.2126 -0.6747
  327MOL0     O44046   2.295   3.216   2.575 -0.4548  0.1892  0.0628
  327MOL0     C44047   2.204   3.291   2.491 -0.3943  0.7001  0.4778
  327MOL0     C44048   2.065   3.278   2.548  0.2066  0.1464 -0.3489
  327MOL0     C44049   2.028   3.342   2.683 -0.6578  0.1359  0.4371
  327MOL0     C44050   1.876   3.323   2.705 -0.4067  0.2736  0.1899
  327MOL0     C44051   1.821   3.368   2.840 -0.9076  0.2553 -0.5400
  327MOL0     C44052   1.868   3.508   2.886 -0.3345  0.5489  0.1166
  327MOL0     C44053   1.821   3.533   3.028  0.8869  0.8297  0.2188
  327MOL0     C44054   1.872   3.664   3.081  0.1771 -0.5889 -0.0659
  327MOL0    Cl44055   1.764   3.793   3.010  0.2607 -0.4125 -0.2428
  327MOL0     C44056   2.495   3.275   2.446 -0.5794  0.3384  0.5414
  327MOL0     C44057   2.633   3.264   2.422 -0.4026 -0.8078 -0.0236
  327MOL0     O44058   2.924   3.356   2.549  0.1652 -0.0540  0.1910
  327MOL0     C44059   3.093   3.070   2.392  0.2277 -1.1142  0.9538
  327MOL0     C44060   3.221   3.015   2.374  0.6604  0.3429  1.1661
  327MOL0     N44061   3.941   2.808   2.542 -0.0697 -0.9513 -1.2187
  327MOL0     N44062   3.965   2.724   2.449  0.1377  0.0392  0.4457
  327MOL0     C44063   4.343   2.581   1.266  0.8703 -0.3467  0.2139
  327MOL0     C44064   4.437   2.636   1.188 -0.6046 -0.3948 -0.3216
  327MOL0     C44065   4.697   2.961   0.972 -0.5821  0.5436  0.4289
  327MOL0     C44066   4.775   2.850   0.929  0.3973 -0.9714 -0.3695
  327MOL0     C44067   4.883   2.862   0.839  0.2992 -2.0331  0.0795
  327MOL0     C44068   4.905   2.995   0.783  0.5128 -0.2262 -0.6611
  327MOL0     O44069   4.998   3.019   0.687  0.0381 -0.0454  0.2531
  327MOL0     C44070   5.129   2.963   0.699 -0.0130 -0.2566  0.3137
  327MOL0     C44071   5.213   3.027   0.817  0.9947 -0.5109  0.1530
  327MOL0     C44072   5.368   3.019   0.818 -0.3213 -0.8940  0.8953
  327MOL0     C44073   5.421   3.107   0.699  0.3742  0.3238 -1.0047
  327MOL0     C44074   5.430   3.244   0.738  0.9783 -0.6229 -0.4903
  327MOL0     C44075   5.436   3.361   0.759 -0.2607  0.9222 -0.0042
  327MOL0     C44076   4.827   3.102   0.829 -0.4712  0.2503  0.1377
  327MOL0     C44077   4.726   3.091   0.921  0.2457  0.4316 -0.2411
  327MOL0     H44078   4.349   2.964   1.224 -0.2549 -0.0591 -4.0575
  327MOL0     H44079   4.181   2.857   1.367  0.6947 -0.7524  0.6615
  327MOL0     H44080   4.113   2.437   1.380 -3.0039 -1.4883  2.3425
  327MOL0     H44081   4.249   2.442   1.501  0.5126 -2.4435 -2.3539
  327MOL0     H44082   3.947   2.476   1.548 -2.1176 -1.9635  2.5462
  327MOL0     H44083   4.053   2.354   1.609 -1.3294 -0.0089  1.2175
  327MOL0     H44084   4.157   2.566   1.735  0.3293 -0.4444 -1.5653
  327MOL0     H44085   4.010   2.633   1.668  3.6311 -0.4208 -3.2107
  327MOL0     H44086   3.872   2.460   1.786 -0.9072 -1.5415  4.3741
  327MOL0     H44087   4.006   2.390   1.856 -2.3570 -0.5692  0.7111
  327MOL0     H44088   4.080   2.579   1.974 -1.0438 -0.8760  2.8231
  327MOL0     H44089   3.954   2.681   1.904 -1.1427 -0.2819 -0.4189
  327MOL0     H44090   3.780   2.528   2.003 -1.5050 -2.4540  3.1899
  327MOL0     H44091   3.903   2.441   2.092  0.5818  1.2185  0.8224
  327MOL0     H44092   3.984   2.691   2.161 -0.3162  1.7248  0.5595
  327MOL0     H44093   3.814   2.727   2.132 -1.1021 -0.3428 -0.8058
  327MOL0     H44094   3.931   2.507   2.326 -3.1145 -2.3584  1.4382
  327MOL0     H44095   3.762   2.531   2.292 -0.4993  0.8382 -2.4650
  327MOL0     H44096   3.640   2.692   2.457 -0.4438  0.0145  4.3479
  327MOL0     H44097   3.749   2.849   2.756 -2.2232 -0.1780 -0.0330
  327MOL0     H44098   3.807   3.000   2.675  0.0983  0.1797 -3.4620
  327MOL0     H44099   3.539   2.957   2.726  1.0754  3.4226  0.2178
  327MOL0     H44100   3.550   2.891   2.566 -3.8423  0.6899  1.4316
  327MOL0     H44101   3.673   3.160   2.617  2.3308 -1.2289 -1.0834
  327MOL0     H44102   3.501   3.150   2.607  1.4253  2.8264 -1.0086
  327MOL0     H44103   3.677   3.045   2.386 -1.0253  0.5886  1.8107
  327MOL0     H44104   3.600   3.196   2.379  1.5669  1.2345  0.9089
  327MOL0     H44105   3.413   3.279   2.431  0.6541 -0.9713  0.0168
  327MOL0     H44106   3.174   3.417   2.607 -0.6588  0.0299 -1.4319
  327MOL0     H44107   3.313   3.455   2.500 -0.1002  2.6885  1.2943
  327MOL0     H44108   3.144   3.480   2.445 -0.6427  1.3141  0.8380
  327MOL0     H44109   2.704   3.073   2.692 -0.2148  1.2677  0.0762
  327MOL0     H44110   2.468   3.061   2.702  0.6497 -2.7114 -2.6934
  327MOL0     H44111   2.218   3.399   2.499 -4.4279  1.3936  0.4044
  327MOL0     H44112   2.209   3.248   2.391  0.6488 -2.0695  1.6357
  327MOL0     H44113   1.992   3.311   2.474  1.1940  1.9800 -0.5631
  327MOL0     H44114   2.056   3.170   2.560 -2.6911  0.3890  0.3966
  327MOL0     H44115   2.041   3.450   2.686 -2.7186  0.4395  0.2086
  327MOL0     H44116   2.097   3.298   2.755 -0.6402  0.1137  0.4071
  327MOL0     H44117   1.822   3.386   2.634 -3.9428 -2.2327  0.4097
  327MOL0     H44118   1.839   3.224   2.677 -1.1573  1.2171 -2.3582
  327MOL0     H44119   1.842   3.293   2.917  1.3857 -1.9811 -3.1178
  327MOL0     H44120   1.712   3.367   2.834 -0.9020 -0.6303 -0.7449
  327MOL0     H44121   1.977   3.513   2.891 -0.2848 -1.2128  2.5490
  327MOL0     H44122   1.822   3.580   2.818 -5.5282 -2.4403 -0.0523
  327MOL0     H44123   1.858   3.449   3.087  3.3390  1.5623 -0.1700
  327MOL0     H44124   1.711   3.525   3.031  0.9739 -0.0674  2.0553
  327MOL0     H44125   1.978   3.680   3.055 -0.0028 -1.2377 -1.2875
  327MOL0     H44126   1.860   3.662   3.189 -2.0517  1.9749 -0.1699
  327MOL0     H44127   2.445   3.342   2.376 -1.1948 -1.5619 -0.9269
  327MOL0     H44128   2.683   3.325   2.347 -0.9042 -1.8343 -1.2063
  327MOL0     H44129   2.999   3.023   2.365 -0.7038  1.8956 -1.5328
  327MOL0     H44130   3.238   2.915   2.336  0.6163  1.3023 -1.5401
  327MOL0     H44131   4.342   2.474   1.284  0.0196 -0.6539 -1.5184
  327MOL0     H44132   4.504   2.568   1.138 -1.9738 -2.5215  0.5928
  327MOL0     H44133   4.747   2.757   0.978  1.5358 -1.4917 -0.6725
  327MOL0     H44134   4.948   2.780   0.813  1.9589 -0.6054 -0.4213
  327MOL0     H44135   5.124   2.854   0.709  0.0256 -0.3643 -0.7143
  327MOL0     H44136   5.189   2.975   0.608  1.2105 -1.5927  0.8916
  327MOL0     H44137   5.167   2.972   0.899 -5.6431  1.1062 -1.8726
  327MOL0     H44138   5.182   3.130   0.838 -0.6782 -0.9872  0.1703
  327MOL0     H44139   5.407   2.918   0.802  0.5815 -0.4679  0.3391
  327MOL0     H44140   5.406   3.075   0.904 -1.4567  3.2859 -1.0591
  327MOL0     H44141   5.354   3.114   0.613 -2.3926  2.0177  1.1057
  327MOL0     H44142   5.518   3.065   0.672  0.6991  0.3698  0.0433
  327MOL0     H44143   5.437   3.468   0.762 -1.4590  1.1160 -3.2051
  327MOL0     H44144   4.859   3.199   0.790 -3.6315  0.8660 -1.1941
  327MOL0     H44145   4.673   3.180   0.954 -1.4580 -0.1761 -1.2191
  328MOL0     O44146   6.479   1.817   4.349  0.3979  0.2037 -0.1183
  328MOL0     C44147   6.531   1.920   4.399 -0.0720 -1.0993  0.0332
  328MOL0     O44148   6.468   2.042   4.397 -0.1473  0.4251 -0.0116
  328MOL0     C44149   6.331   2.042   4.375  0.9510 -0.0461  0.6322
  328MOL0     C44150   6.250   1.972   4.458  0.0968  0.1185  0.2564
  328MOL0     C44151   6.114   1.966   4.434 -0.9170 -0.1705 -0.3243
  328MOL0     C44152   6.042   2.050   4.353 -0.3910  0.1591  0.2105
  328MOL0     O44153   5.903   2.051   4.341 -0.2387 -0.1459  0.4597
  328MOL0     C44154   5.834   1.943   4.403  1.0064  0.4955  0.6195
  328MOL0     C44155   5.680   1.955   4.383 -0.3467 -0.5381  0.1971
  328MOL0     C44156   5.642   1.917   4.236 -0.3957  1.2548  0.9542
  328MOL0     C44157   5.626   1.761   4.235  0.9997 -0.0316  1.3373
  328MOL0     C44158   5.589   1.707   4.100 -0.4107  1.0258  0.3131
  328MOL0     C44159   5.437   1.696   4.087  0.6231  0.5195  0.0011
  328MOL0     C44160   5.412   1.643   3.941  0.8261 -0.4074  0.1463
  328MOL0     C44161   5.259   1.638   3.895 -0.1606 -0.6696  0.5429
  328MOL0     N44162   5.200   1.515   3.947  0.1354  0.1217 -0.2049
  328MOL0     C44163   5.152   1.509   4.075 -0.6915 -0.3768  0.0249
  328MOL0     C44164   5.099   1.391   4.094  0.2837  0.1357 -0.3992
  328MOL0     C44165   5.035   1.328   4.221 -0.1294  0.0792 -0.1759
  328MOL0     C44166   4.909   1.402   4.266  0.0008  0.5991 -0.2035
  328MOL0     C44167   4.787   1.328   4.200  0.0818  0.4681  0.3370
  328MOL0     C44168   4.651   1.387   4.254  0.8416 -0.0997 -0.2512
  328MOL0     O44169   4.556   1.284   4.280 -0.4147 -0.3138 -0.0403
  328MOL0     C44170   4.439   1.311   4.344  0.2328  0.3771 -0.2884
  328MOL0     C44171   4.378   1.437   4.348  0.2466  0.6964 -0.1312
  328MOL0     C44172   4.253   1.457   4.398 -0.2916 -0.0381 -0.4212
  328MOL0     C44173   4.197   1.605   4.386 -0.1475  0.3169  0.0254
  328MOL0     C44174   4.174   1.338   4.441 -0.3442 -0.8147  1.1130
  328MOL0     C44175   4.044   1.368   4.499 -0.2377  0.2280  0.4843
  328MOL0     O44176   4.015   1.480   4.571  0.1856  0.1427 -0.0326
  328MOL0     C44177   3.896   1.495   4.642  0.0760 -0.2412 -1.0328
  328MOL0     C44178   3.780   1.539   4.576  0.1050  0.3962 -0.4024
  328MOL0     C44179   3.659   1.549   4.653 -0.1996 -0.1173  0.0355
  328MOL0     C44180   3.658   1.518   4.790 -0.0629 -0.1835 -0.3540
  328MOL0     O44181   3.538   1.532   4.854 -0.2476 -0.0346  0.0516
  328MOL0     C44182   3.539   1.520   4.999  0.2997  0.4997 -0.1702
  328MOL0     C44183   3.401   1.564   5.069 -0.7043  0.8363 -0.3033
  328MOL0     C44184   3.277   1.482   5.023  0.4701 -0.5456  0.9823
  328MOL0     C44185   3.262   1.353   5.092  0.0132 -0.4776  0.1259
  328MOL0     C44186   3.119   1.319   5.076  0.3819 -0.6672  0.0878
  328MOL0     C44187   3.094   1.177   5.137 -0.6223  0.5270 -0.2177
  328MOL0     C44188   3.122   1.160   5.284  0.5722 -0.0684  0.8162
  328MOL0     C44189   3.033   1.041   5.333 -0.0451  0.0151  0.2743
  328MOL0    Cl44190   2.858   1.068   5.315 -0.0479  0.2799 -0.1430
  328MOL0     C44191   3.773   1.472   4.848  0.2776 -0.3726  0.1386
  328MOL0     C44192   3.896   1.464   4.777  0.5965  1.0627  0.0374
  328MOL0     O44193   3.966   1.281   4.480 -0.1949 -0.4155 -0.3576
  328MOL0     C44194   4.237   1.213   4.437  0.6452  0.4079  0.3842
  328MOL0     C44195   4.367   1.202   4.393  0.0417 -0.5319  0.5999
  328MOL0     N44196   5.098   1.330   3.973 -0.2027 -0.2746  0.8114
  328MOL0     N44197   5.157   1.410   3.884  0.0325 -0.6186 -0.1227
  328MOL0     C44198   6.127   2.139   4.278  1.5987 -0.2673  0.0563
  328MOL0     C44199   6.264   2.125   4.287  0.7719 -0.5596 -0.0865
  328MOL0     C44200   6.665   1.923   4.464  0.5212 -0.3418  0.2819
  328MOL0     C44201   6.739   1.802   4.478  0.6155  0.0594 -0.2114
  328MOL0     C44202   6.865   1.794   4.549  0.1921 -0.1165  0.3972
  328MOL0     C44203   6.920   1.904   4.607 -0.3901 -0.6843  0.0413
  328MOL0     O44204   7.050   1.909   4.648  0.2088  0.2801  0.1079
  328MOL0     C44205   7.132   1.793   4.688 -0.2750  0.0371 -0.0707
  328MOL0     C44206   7.274   1.846   4.710 -0.2906 -0.1545  0.1106
  328MOL0     C44207   7.302   1.942   4.826  0.1662  1.0204 -0.3165
  328MOL0     C44208   7.450   1.982   4.837 -0.3895 -0.0519 -0.3979
  328MOL0     C44209   7.499   2.069   4.946  0.8582 -0.5434  0.0027
  328MOL0     C44210   7.530   2.153   5.033 -0.1397  0.5853 -0.8813
  328MOL0     C44211   6.844   2.025   4.594 -0.3034  0.4655 -0.8757
  328MOL0     C44212   6.727   2.032   4.519 -0.5390 -0.3743  1.1752
  328MOL0     H44213   6.293   1.895   4.520 -0.0310 -0.6187 -0.5366
  328MOL0     H44214   6.068   1.886   4.490 -1.2188 -1.7807 -2.7168
  328MOL0     H44215   5.874   1.849   4.363  2.5368 -0.0141  3.1411
  328MOL0     H44216   5.839   1.951   4.512 -0.3046 -0.6388  0.7806
  328MOL0     H44217   5.617   1.904   4.457 -0.8666  0.8432  0.7478
  328MOL0     H44218   5.662   2.062   4.399 -2.4107 -0.6836 -0.7462
  328MOL0     H44219   5.550   1.963   4.201 -0.1774 -1.3461 -3.9806
  328MOL0     H44220   5.722   1.946   4.166  0.1700 -2.4191 -0.1512
  328MOL0     H44221   5.719   1.713   4.268  1.2256  0.1000  0.8991
  328MOL0     H44222   5.552   1.725   4.307  0.6952 -3.6199 -0.5523
  328MOL0     H44223   5.637   1.766   4.022 -0.7890  0.2588 -0.5185
  328MOL0     H44224   5.625   1.603   4.095  0.2226  1.3028 -3.3283
  328MOL0     H44225   5.391   1.627   4.158  0.3618 -1.2233 -1.7727
  328MOL0     H44226   5.387   1.791   4.109  1.0479  0.0079  3.7266
  328MOL0     H44227   5.454   1.715   3.870  2.5389  0.2215  1.7174
  328MOL0     H44228   5.444   1.539   3.931 -2.6604 -1.9550  2.8828
  328MOL0     H44229   5.258   1.637   3.786  1.4085  2.4721  0.3980
  328MOL0     H44230   5.197   1.724   3.919 -0.9144 -0.3446 -2.2161
  328MOL0     H44231   5.147   1.590   4.148  1.1404 -1.4974  1.5104
  328MOL0     H44232   5.007   1.226   4.190 -2.9846  0.4159  0.9719
  328MOL0     H44233   5.099   1.335   4.310 -1.1526 -1.5376  0.7550
  328MOL0     H44234   4.904   1.509   4.243 -2.2951  0.5633 -0.1527
  328MOL0     H44235   4.895   1.390   4.374 -0.9144 -2.3028 -0.5583
  328MOL0     H44236   4.802   1.220   4.208  1.3134  0.3581 -2.1991
  328MOL0     H44237   4.787   1.352   4.093  0.0180  1.0085  0.4579
  328MOL0     H44238   4.603   1.464   4.192 -3.0517 -0.4709  1.9831
  328MOL0     H44239   4.681   1.442   4.344  2.5185  0.1982 -0.9500
  328MOL0     H44240   4.428   1.519   4.296  1.4655 -0.5196 -0.9632
  328MOL0     H44241   4.089   1.595   4.369 -0.2423 -2.0924  1.5808
  328MOL0     H44242   4.215   1.657   4.480  0.6953 -2.3196  1.4538
  328MOL0     H44243   4.245   1.660   4.304  0.3575 -1.7172 -1.1240
  328MOL0     H44244   3.784   1.570   4.472  1.3949  0.6435 -0.2860
  328MOL0     H44245   3.570   1.585   4.602  0.4733  2.8341  0.7151
  328MOL0     H44246   3.573   1.419   5.027  3.5533  0.6186 -3.0970
  328MOL0     H44247   3.610   1.588   5.047 -1.1539 -0.3400  3.5411
  328MOL0     H44248   3.417   1.561   5.177 -1.4911  0.8100 -0.1779
  328MOL0     H44249   3.393   1.671   5.047  3.5944  1.3387 -0.2167
  328MOL0     H44250   3.296   1.476   4.915 -1.4397  2.9565  0.3025
  328MOL0     H44251   3.193   1.551   5.036  0.5975  0.0314 -0.9159
  328MOL0     H44252   3.337   1.285   5.050 -0.3893 -0.0771 -1.3107
  328MOL0     H44253   3.281   1.361   5.199 -1.0348 -0.5289  0.3200
  328MOL0     H44254   3.095   1.309   4.970  1.7890 -1.0744 -0.2167
  328MOL0     H44255   3.054   1.391   5.125  1.3035  0.2731 -0.0374
  328MOL0     H44256   2.999   1.138   5.099 -0.1334 -0.1896 -0.7353
  328MOL0     H44257   3.157   1.102   5.089  1.2394 -1.2185  4.4104
  328MOL0     H44258   3.086   1.253   5.329 -0.9006  0.0697 -0.5499
  328MOL0     H44259   3.228   1.147   5.308  0.3587 -3.0377  0.4970
  328MOL0     H44260   3.055   1.016   5.437 -2.2041 -0.5908  0.6277
  328MOL0     H44261   3.050   0.950   5.274  1.0618 -2.2976  3.8592
  328MOL0     H44262   3.767   1.441   4.952 -1.8131 -1.0101 -0.1156
  328MOL0     H44263   3.982   1.444   4.840  0.3687 -1.7530 -0.4375
  328MOL0     H44264   4.177   1.122   4.444 -0.8586  1.4800  3.2418
  328MOL0     H44265   4.408   1.101   4.385  2.8407  0.5054  0.5760
  328MOL0     H44266   6.075   2.207   4.211 -1.2931 -1.3774  0.9946
  328MOL0     H44267   6.322   2.200   4.234 -0.2516  1.9662  2.1267
  328MOL0     H44268   6.699   1.709   4.438  1.6618 -0.4084 -0.2097
  328MOL0     H44269   6.920   1.702   4.556  2.3773  0.9996 -0.9322
  328MOL0     H44270   7.086   1.733   4.767 -2.2483  0.2177 -1.0325
  328MOL0     H44271   7.124   1.728   4.601 -0.4441  1.9139 -1.5095
  328MOL0     H44272   7.319   1.899   4.626  2.1707  0.2453  1.5657
  328MOL0     H44273   7.334   1.757   4.731  1.2017  0.7081 -0.3771
  328MOL0     H44274   7.265   1.880   4.907 -0.3351 -1.4904 -2.3350
  328MOL0     H44275   7.253   2.040   4.819  1.9249  2.0316  0.6601
  328MOL0     H44276   7.487   2.043   4.753  0.8090  0.1681  0.2654
  328MOL0     H44277   7.513   1.893   4.843 -0.0755  0.2204  0.5801
  328MOL0     H44278   7.552   2.220   5.114  2.4415  1.9884 -2.5787
  328MOL0     H44279   6.887   2.116   4.635  0.9291 -0.6439  0.3786
  328MOL0     H44280   6.678   2.128   4.503 -3.1460 -2.0689 -2.5530
  329MOL0     O44281   3.727   2.445   5.947 -0.0287 -0.1438  0.1961
  329MOL0     C44282   3.712   2.487   5.834 -1.0346 -0.6488  0.4698
  329MOL0     O44283   3.604   2.461   5.748  0.2195  0.3804  0.4754
  329MOL0     C44284   3.482   2.406   5.803 -0.3491 -0.9808 -0.1560
  329MOL0     C44285   3.414   2.306   5.727 -0.8291 -0.6732 -1.0117
  329MOL0     C44286   3.300   2.241   5.777 -0.7505  0.7953  0.6427
  329MOL0     C44287   3.245   2.276   5.903 -0.6871 -0.4813  0.7559
  329MOL0     O44288   3.135   2.223   5.954  0.1339 -0.0317 -0.3606
  329MOL0     C44289   3.146   2.088   6.005 -0.1202 -0.6200  0.6836
  329MOL0     C44290   3.016   2.010   5.975 -0.8088 -0.3070  0.3272
  329MOL0     C44291   2.900   2.070   6.062 -0.9368  0.1023  1.2740
  329MOL0     C44292   2.898   2.050   6.212 -0.9716 -0.2067 -0.0274
  329MOL0     C44293   2.787   2.122   6.288  0.0549 -0.7097  0.3097
  329MOL0     C44294   2.641   2.089   6.249 -0.4447  0.5289  0.0534
  329MOL0     C44295   2.601   1.947   6.303 -1.3343 -0.1059 -0.4522
  329MOL0     C44296   2.458   1.910   6.260  0.0126  0.9497  0.2716
  329MOL0     N44297   2.342   1.934   6.346  0.0892 -0.4104  0.4748
  329MOL0     C44298   2.242   2.017   6.304  0.0164  0.3645  0.2340
  329MOL0     C44299   2.154   2.028   6.406 -0.3069  0.4004  0.0851
  329MOL0     C44300   2.020   2.102   6.398  0.5669 -0.4464  0.3907
  329MOL0     C44301   1.909   1.997   6.428  0.2994  0.9294  0.9879
  329MOL0     C44302   1.875   2.008   6.576  0.1176  0.7700  0.6592
  329MOL0     C44303   1.754   1.925   6.615 -0.0890  0.1966  0.6357
  329MOL0     O44304   1.640   1.978   6.547  0.0557  0.2024  0.1176
  329MOL0     C44305   1.513   1.968   6.595 -0.3300 -0.3251 -0.0085
  329MOL0     C44306   1.422   2.051   6.532  0.3890 -0.2786 -0.0763
  329MOL0     C44307   1.293   2.050   6.572 -1.1087  0.2668 -0.1523
  329MOL0     C44308   1.202   2.134   6.492 -0.3432 -0.6486  0.8378
  329MOL0     C44309   1.253   1.976   6.686  0.2736  0.1599 -0.0685
  329MOL0     C44310   1.108   1.965   6.720 -0.0461  0.1254  0.1818
  329MOL0     O44311   1.080   1.859   6.797  0.0951 -0.1521 -0.3568
  329MOL0     C44312   0.952   1.829   6.815 -0.6079  0.6834 -0.0937
  329MOL0     C44313   0.914   1.691   6.823  0.2889 -0.0402 -0.4481
  329MOL0     C44314   0.773   1.655   6.850 -0.1585  0.1649  0.2947
  329MOL0     C44315   0.675   1.761   6.874 -0.3794  0.2006 -0.4528
  329MOL0     O44316   0.544   1.734   6.895 -0.1024 -0.4107 -0.2291
  329MOL0     C44317   0.491   1.614   6.848  0.2299  0.4458  0.3348
  329MOL0     C44318   0.505   1.607   6.699 -0.7634  0.1638 -0.2874
  329MOL0     C44319   0.428   1.712   6.624 -0.3373  0.9498 -0.8058
  329MOL0     C44320   0.364   1.658   6.501 -0.2908 -0.9628 -0.0806
  329MOL0     C44321   0.299   1.769   6.406 -0.3493  0.2396  0.1695
  329MOL0     C44322   0.229   1.693   6.291  0.0230  0.1418  1.1951
  329MOL0     C44323   0.183   1.778   6.170 -0.9879 -0.3301  1.2732
  329MOL0     C44324   0.081   1.873   6.200  0.2680  0.2695  0.5551
  329MOL0    Cl44325   0.059   2.002   6.073 -0.3434 -0.1384  0.1497
  329MOL0     C44326   0.724   1.890   6.874  0.0484 -0.1179 -0.0720
  329MOL0     C44327   0.858   1.921   6.865 -0.5968 -0.9018 -0.0463
  329MOL0     O44328   1.022   2.035   6.662 -0.2257  0.2714  0.1096
  329MOL0     C44329   1.348   1.891   6.745 -0.0008  0.2645 -0.7291
  329MOL0     C44330   1.481   1.885   6.700  0.0146 -0.4990  0.6756
  329MOL0     N44331   2.203   1.948   6.509 -0.5024  0.1118  0.3265
  329MOL0     N44332   2.309   1.879   6.464 -0.4539  0.3432 -0.3202
  329MOL0     C44333   3.316   2.370   5.984  0.0801 -0.2533  0.3250
  329MOL0     C44334   3.430   2.437   5.932  0.6215 -0.7821  1.0597
  329MOL0     C44335   3.823   2.570   5.781  0.5119 -0.7428  0.0933
  329MOL0     C44336   3.941   2.594   5.846 -0.1613  0.8471 -0.2080
  329MOL0     C44337   4.032   2.685   5.797  0.1233 -0.2425 -0.2201
  329MOL0     C44338   4.016   2.742   5.670 -0.7666 -0.3564  0.3594
  329MOL0     O44339   4.092   2.848   5.620 -0.7522 -0.0038  0.2731
  329MOL0     C44340   4.179   2.935   5.701  0.0779  0.1860 -0.8236
  329MOL0     C44341   4.314   2.883   5.710  0.4465 -0.2195  0.4235
  329MOL0     C44342   4.372   2.870   5.567 -0.7060  0.0968  0.1499
  329MOL0     C44343   4.521   2.841   5.598  0.7962 -0.0984  0.0889
  329MOL0     C44344   4.604   2.966   5.632  0.6229  1.0351  0.5322
  329MOL0     C44345   4.666   3.062   5.668  0.2372  0.0398 -0.0870
  329MOL0     C44346   3.906   2.707   5.594 -0.5735  0.2939  0.5189
  329MOL0     C44347   3.809   2.628   5.653  0.1810  0.1997  0.9950
  329MOL0     H44348   3.467   2.272   5.639  1.7149  0.7684 -0.1442
  329MOL0     H44349   3.256   2.155   5.727 -0.6549  0.7640  0.6141
  329MOL0     H44350   3.232   2.036   5.961  0.6455  1.5570 -0.5085
  329MOL0     H44351   3.152   2.085   6.114 -1.5257 -0.6963  0.7741
  329MOL0     H44352   3.000   2.025   5.868 -1.1156 -1.5694  0.1769
  329MOL0     H44353   3.038   1.903   5.986 -0.5445 -0.2499  0.3629
  329MOL0     H44354   2.903   2.179   6.057 -2.1007  0.1013 -1.8954
  329MOL0     H44355   2.806   2.035   6.019 -0.4992 -0.8218  1.0398
  329MOL0     H44356   2.901   1.942   6.231 -0.5402 -0.0929  0.5927
  329MOL0     H44357   2.994   2.086   6.250 -1.4766  2.3323 -1.0032
  329MOL0     H44358   2.814   2.096   6.391 -1.4740 -1.7065  0.4908
  329MOL0     H44359   2.803   2.230   6.276 -1.4582 -0.5522 -0.4303
  329MOL0     H44360   2.589   2.169   6.302  0.0136 -1.1344  3.2755
  329MOL0     H44361   2.619   2.094   6.142  1.9945  0.4237 -0.4921
  329MOL0     H44362   2.671   1.867   6.280  0.2780  1.1534 -0.1124
  329MOL0     H44363   2.603   1.951   6.412  0.3376 -2.9497 -0.2773
  329MOL0     H44364   2.457   1.800   6.254  0.6799  0.9814 -0.7636
  329MOL0     H44365   2.446   1.944   6.157  0.8571  1.3615  0.2977
  329MOL0     H44366   2.233   2.064   6.207 -0.2486 -0.3743 -0.1020
  329MOL0     H44367   2.026   2.181   6.474 -0.8992 -1.3396  1.4988
  329MOL0     H44368   1.996   2.153   6.305 -1.0953  1.4750  1.7705
  329MOL0     H44369   1.946   1.899   6.398  0.7776  0.4922  2.8710
  329MOL0     H44370   1.824   2.021   6.363  1.5929 -0.5092 -1.3807
  329MOL0     H44371   1.854   2.111   6.605 -5.6171  0.2416 -0.3864
  329MOL0     H44372   1.961   1.968   6.630  1.2492  2.4157  0.1325
  329MOL0     H44373   1.736   1.913   6.722 -2.7119  1.0697  0.3676
  329MOL0     H44374   1.779   1.829   6.569  1.1301 -0.9523  3.5183
  329MOL0     H44375   1.464   2.111   6.452 -2.1278 -0.4321 -1.6239
  329MOL0     H44376   1.111   2.082   6.462 -1.0238  0.9394  0.0788
  329MOL0     H44377   1.180   2.228   6.544  0.5762 -0.0676  0.2241
  329MOL0     H44378   1.245   2.158   6.394  1.8138  0.4826  1.9831
  329MOL0     H44379   0.976   1.603   6.819 -3.7299 -3.3259  1.6987
  329MOL0     H44380   0.739   1.551   6.847 -0.0182  0.1522 -1.3811
  329MOL0     H44381   0.537   1.524   6.889 -0.7766  0.4074  1.4250
  329MOL0     H44382   0.385   1.612   6.876  0.4933 -0.2292  1.3279
  329MOL0     H44383   0.610   1.610   6.666 -0.5138  2.5098  0.5244
  329MOL0     H44384   0.471   1.507   6.673  0.6438 -0.3945 -0.1061
  329MOL0     H44385   0.494   1.790   6.586  2.5020 -0.9706 -0.1432
  329MOL0     H44386   0.362   1.769   6.689  2.0144  1.7407  1.0511
  329MOL0     H44387   0.431   1.595   6.441  1.0083  1.8108 -1.7504
  329MOL0     H44388   0.273   1.607   6.533 -0.4020  0.4028  2.0193
  329MOL0     H44389   0.382   1.830   6.371  1.6215 -1.8738  0.9302
  329MOL0     H44390   0.242   1.842   6.464 -1.0390  0.0939 -0.3021
  329MOL0     H44391   0.285   1.607   6.254 -1.6706 -0.5145 -0.0079
  329MOL0     H44392   0.137   1.649   6.330 -0.2011  0.4221  0.9891
  329MOL0     H44393   0.145   1.713   6.090  1.7598 -0.8399  0.2843
  329MOL0     H44394   0.278   1.818   6.133  0.3936 -3.7431  0.7290
  329MOL0     H44395   0.111   1.924   6.292 -1.4121  1.0522  0.7198
  329MOL0     H44396  -0.017   1.827   6.218  0.4827  0.3182  1.9864
  329MOL0     H44397   0.643   1.960   6.893 -0.1730 -0.5571  0.6245
  329MOL0     H44398   0.877   2.024   6.894 -2.0440 -0.6083 -0.0516
  329MOL0     H44399   1.323   1.814   6.818  2.6821  0.1535  0.1829
  329MOL0     H44400   1.558   1.834   6.757  0.3260 -2.1152 -1.1124
  329MOL0     H44401   3.279   2.395   6.082  0.8085 -0.4752  0.6671
  329MOL0     H44402   3.479   2.516   5.988  0.0324  1.9838 -2.0671
  329MOL0     H44403   3.954   2.561   5.948 -0.6020  0.7089 -0.1949
  329MOL0     H44404   4.125   2.706   5.848  0.4427  2.6631 -1.7817
  329MOL0     H44405   4.182   3.029   5.645  0.8248 -0.3782 -1.7649
  329MOL0     H44406   4.132   2.955   5.798 -1.4094 -1.8940 -1.0410
  329MOL0     H44407   4.309   2.787   5.762 -3.4164 -0.5708 -0.2724
  329MOL0     H44408   4.376   2.954   5.767 -1.0814  1.7909 -0.2929
  329MOL0     H44409   4.356   2.961   5.509 -2.0556  0.0602  0.4349
  329MOL0     H44410   4.329   2.792   5.503 -4.0025  0.4278  1.7472
  329MOL0     H44411   4.565   2.793   5.511 -4.5494 -2.5541 -1.7418
  329MOL0     H44412   4.533   2.768   5.678 -0.6471  2.3277  2.7241
  329MOL0     H44413   4.700   3.161   5.691  2.6588 -0.8968  0.5966
  329MOL0     H44414   3.895   2.745   5.493 -1.6320  2.4561  1.3854
  329MOL0     H44415   3.719   2.614   5.594  1.3721  0.8888 -1.1328
  330MOL0     O44416   7.976   9.823   1.902 -0.6495  0.4493  0.4102
  330MOL0     C44417   7.971   9.930   1.958 -0.0233  0.0612  0.6976
  330MOL0     O44418   7.879   9.974   2.044 -0.1666  0.3516 -0.7989
  330MOL0     C44419   7.772   9.894   2.076  0.3850 -0.4854  0.7121
  330MOL0     C44420   7.737   9.768   2.039 -0.5925  0.3959  0.0149
  330MOL0     C44421   7.608   9.709   2.069 -0.0578 -0.8944 -0.0870
  330MOL0     C44422   7.518   9.789   2.148 -0.6595  0.7589 -0.3965
  330MOL0     O44423   7.404   9.739   2.199  0.9165 -0.4211  0.0287
  330MOL0     C44424   7.361   9.605   2.158  0.7317 -0.3672  0.8057
  330MOL0     C44425   7.222   9.563   2.218  0.1586  0.3353  0.0390
  330MOL0     C44426   7.220   9.570   2.370 -0.1334  0.0540  0.6781
  330MOL0     C44427   7.106   9.478   2.422  0.1984  0.3791 -0.6908
  330MOL0     C44428   7.130   9.453   2.569  0.2310  0.8884 -0.4888
  330MOL0     C44429   7.010   9.396   2.640 -0.3208  0.3180  0.3885
  330MOL0     C44430   6.883   9.474   2.636 -0.4163  0.3816 -0.5792
  330MOL0     C44431   6.903   9.620   2.669 -1.0304  0.6715  0.3591
  330MOL0     N44432   6.785   9.702   2.681 -0.4587  0.3100 -0.2035
  330MOL0     C44433   6.701   9.757   2.594  0.3316 -0.0458  0.1178
  330MOL0     C44434   6.619   9.835   2.662  0.4724 -0.0373  0.5253
  330MOL0     C44435   6.503   9.917   2.604  0.3481  0.2017 -0.9017
  330MOL0     C44436   6.487  10.060   2.669 -0.3832 -0.4730  0.1727
  330MOL0     C44437   6.596  10.166   2.626  0.2226 -0.5077  0.3130
  330MOL0     C44438   6.538  10.310   2.602 -0.7476  0.5046  0.3404
  330MOL0     O44439   6.647  10.405   2.581 -0.1913  0.3216 -0.2046
  330MOL0     C44440   6.629  10.537   2.603 -0.9252 -0.3999  0.0329
  330MOL0     C44441   6.743  10.619   2.633  0.2544 -0.0264 -0.3801
  330MOL0     C44442   6.734  10.747   2.685 -0.4173 -0.1873  0.0811
  330MOL0     C44443   6.859  10.829   2.724 -0.2407  0.4085 -0.4786
  330MOL0     C44444   6.602  10.805   2.700  0.7403 -0.1087  0.2889
  330MOL0     C44445   6.573  10.944   2.752  1.1156 -0.4367 -0.0444
  330MOL0     O44446   6.440  10.983   2.754 -0.4008 -0.2340 -0.7167
  330MOL0     C44447   6.396  11.103   2.812 -0.8021 -1.3645 -0.3819
  330MOL0     C44448   6.258  11.114   2.813 -0.3976  0.5410  0.4769
  330MOL0     C44449   6.202  11.224   2.873  0.0435  0.8401  0.6035
  330MOL0     C44450   6.283  11.339   2.912  0.7500  0.2788  0.0806
  330MOL0     O44451   6.215  11.439   2.981 -0.3285  0.1304 -0.1332
  330MOL0     C44452   6.290  11.531   3.064  1.4260  0.5286  0.4550
  330MOL0     C44453   6.228  11.534   3.201 -0.5135 -0.2408  0.0782
  330MOL0     C44454   6.078  11.563   3.198 -0.1616 -0.6155  0.5436
  330MOL0     C44455   5.999  11.579   3.328  0.4614 -0.6378  0.0946
  330MOL0     C44456   5.844  11.586   3.297  0.3687  0.1037 -0.3859
  330MOL0     C44457   5.769  11.642   3.419 -0.2365 -0.2501 -0.8967
  330MOL0     C44458   5.613  11.630   3.408 -0.3400  0.3416 -0.8688
  330MOL0     C44459   5.551  11.486   3.415  0.4592 -0.3357 -0.4372
  330MOL0    Cl44460   5.568  11.412   3.259  0.1099  0.1280 -0.0824
  330MOL0     C44461   6.421  11.332   2.879  0.3506 -0.9938 -0.8372
  330MOL0     C44462   6.480  11.211   2.838 -0.8540 -1.3778  1.0092
  330MOL0     O44463   6.665  11.009   2.789 -0.2602  0.5535  0.7059
  330MOL0     C44464   6.488  10.730   2.658 -0.2354  0.5482  0.3403
  330MOL0     C44465   6.504  10.606   2.603 -0.4793  0.1006 -1.1816
  330MOL0     N44466   6.642   9.828   2.796 -0.2883 -0.2323 -0.6228
  330MOL0     N44467   6.737   9.750   2.804 -0.9757  0.6630 -0.0405
  330MOL0     C44468   7.556   9.911   2.186 -0.3916  0.2060  0.0157
  330MOL0     C44469   7.676   9.964   2.154  0.1188 -0.7949 -0.6607
  330MOL0     C44470   8.071  10.036   1.911 -0.2352  0.8546 -0.0923
  330MOL0     C44471   8.135  10.033   1.787  0.4088  0.7569 -0.4892
  330MOL0     C44472   8.213  10.132   1.738 -0.6351  0.6401  0.0163
  330MOL0     C44473   8.228  10.252   1.815 -0.0295  0.5470  0.6908
  330MOL0     O44474   8.293  10.368   1.780  0.0139  0.4359  0.1026
  330MOL0     C44475   8.399  10.353   1.677  0.1386 -0.4629 -0.1647
  330MOL0     C44476   8.465  10.489   1.638  0.7003 -0.4148  0.2604
  330MOL0     C44477   8.544  10.533   1.763 -0.4739 -0.0880  0.1628
  330MOL0     C44478   8.600  10.669   1.740  0.8600 -0.3095  0.7027
  330MOL0     C44479   8.724  10.686   1.812 -0.5697 -0.4844 -0.0113
  330MOL0     C44480   8.822  10.723   1.879 -0.9534 -0.4156  0.4689
  330MOL0     C44481   8.165  10.250   1.937  0.0522  0.1709 -0.3255
  330MOL0     C44482   8.086  10.153   1.984 -0.3929 -0.0100 -0.1535
  330MOL0     H44483   7.800   9.697   1.984 -1.6060 -0.5148 -0.0009
  330MOL0     H44484   7.584   9.608   2.037 -1.6723 -0.6234  0.1792
  330MOL0     H44485   7.355   9.616   2.049  0.7393 -0.2332  0.8181
  330MOL0     H44486   7.429   9.525   2.187 -0.9849 -2.9358 -1.6275
  330MOL0     H44487   7.144   9.622   2.169 -0.3844 -1.1565 -1.0008
  330MOL0     H44488   7.199   9.461   2.185 -0.2492  0.8209 -1.2497
  330MOL0     H44489   7.311   9.530   2.418  0.7847 -0.0601 -1.0804
  330MOL0     H44490   7.201   9.672   2.402  1.0321  0.5316 -0.0874
  330MOL0     H44491   7.008   9.519   2.396  0.5258 -0.6567 -4.0479
  330MOL0     H44492   7.124   9.387   2.363  1.8278 -0.1542  0.5361
  330MOL0     H44493   7.212   9.383   2.585 -0.8501 -0.1375  0.8960
  330MOL0     H44494   7.142   9.549   2.619 -3.1903  0.3530  1.7024
  330MOL0     H44495   6.978   9.301   2.596 -1.2811  1.7491 -2.2403
  330MOL0     H44496   7.046   9.386   2.743  2.8511  4.1571 -0.1258
  330MOL0     H44497   6.833   9.468   2.539 -1.5824 -0.8520  0.0668
  330MOL0     H44498   6.804   9.438   2.703 -1.2944  2.0983 -0.6429
  330MOL0     H44499   6.963   9.662   2.588 -0.3689  1.6593  1.3314
  330MOL0     H44500   6.961   9.625   2.762 -1.0881  0.0627  0.4314
  330MOL0     H44501   6.684   9.739   2.488  1.5410  1.7485 -0.4209
  330MOL0     H44502   6.517   9.925   2.496 -0.9178 -3.1749 -1.4314
  330MOL0     H44503   6.416   9.854   2.624  0.1641  0.5025 -0.7428
  330MOL0     H44504   6.481  10.054   2.778 -0.1055 -1.3194  0.1462
  330MOL0     H44505   6.386  10.090   2.641 -0.2256  1.0467  1.0609
  330MOL0     H44506   6.617  10.126   2.527  1.6822  0.1045  0.3542
  330MOL0     H44507   6.681  10.161   2.694  0.2027 -4.1272  0.2823
  330MOL0     H44508   6.477  10.342   2.687 -1.2031  0.6371 -0.0242
  330MOL0     H44509   6.477  10.301   2.511  2.4326 -2.3612 -1.7821
  330MOL0     H44510   6.846  10.590   2.613 -0.4241 -0.0690 -4.7467
  330MOL0     H44511   6.861  10.858   2.829 -1.7130 -0.7834 -0.0927
  330MOL0     H44512   6.955  10.778   2.719  0.4901  1.6754  0.0619
  330MOL0     H44513   6.881  10.922   2.671 -2.2122  0.9648 -0.4117
  330MOL0     H44514   6.197  11.025   2.797  1.1269 -0.5034  0.2857
  330MOL0     H44515   6.095  11.227   2.892  0.2126  3.5044  1.6020
  330MOL0     H44516   6.392  11.493   3.069  1.0395 -0.9783 -1.8926
  330MOL0     H44517   6.283  11.629   3.015 -1.7838 -0.8920 -2.3525
  330MOL0     H44518   6.227  11.437   3.252 -3.7369 -0.3417  0.0349
  330MOL0     H44519   6.276  11.617   3.253 -1.2214  0.8394 -0.9297
  330MOL0     H44520   6.028  11.485   3.139  0.8010 -0.2361 -0.8277
  330MOL0     H44521   6.074  11.655   3.139  4.8693 -0.3502  0.1320
  330MOL0     H44522   6.011  11.495   3.398 -4.3364 -0.2591  1.7017
  330MOL0     H44523   6.030  11.667   3.385 -1.1936  0.8280 -1.1696
  330MOL0     H44524   5.810  11.485   3.272 -0.2865  0.0789  0.5587
  330MOL0     H44525   5.834  11.657   3.214  2.2159 -0.7525 -1.4043
  330MOL0     H44526   5.818  11.598   3.507  0.6197  2.6831  0.2244
  330MOL0     H44527   5.803  11.746   3.429  1.1682 -0.6356 -1.3506
  330MOL0     H44528   5.565  11.681   3.324 -2.3513 -1.9836 -1.2591
  330MOL0     H44529   5.586  11.681   3.501  0.1426 -1.6233  0.4142
  330MOL0     H44530   5.444  11.492   3.438  0.9467  1.5203  1.7163
  330MOL0     H44531   5.602  11.427   3.492  1.0863  0.6797 -0.0658
  330MOL0     H44532   6.488  11.416   2.899  1.2157 -1.9214  0.3214
  330MOL0     H44533   6.588  11.207   2.828 -1.0146 -3.3560 -0.2915
  330MOL0     H44534   6.388  10.771   2.671 -0.7167 -0.7393  0.7747
  330MOL0     H44535   6.413  10.551   2.580 -2.4818  0.9979  3.5328
  330MOL0     H44536   7.492   9.959   2.260 -0.1458 -0.0288  0.3890
  330MOL0     H44537   7.697  10.067   2.178 -3.1872 -0.0050 -0.8037
  330MOL0     H44538   8.128   9.943   1.727 -3.0812 -0.2668  1.1403
  330MOL0     H44539   8.249  10.104   1.640  1.1071  1.8091  0.2861
  330MOL0     H44540   8.478  10.282   1.703  0.7599 -0.8981 -2.8448
  330MOL0     H44541   8.357  10.318   1.582  0.6618 -0.6795 -0.3198
  330MOL0     H44542   8.389  10.565   1.620 -0.5020 -1.4669  0.7019
  330MOL0     H44543   8.525  10.480   1.546  0.7041  2.4132 -0.0949
  330MOL0     H44544   8.621  10.463   1.797 -1.1778  0.0140  2.0769
  330MOL0     H44545   8.469  10.552   1.840  0.4684 -0.2989  1.1521
  330MOL0     H44546   8.536  10.753   1.771  0.9891  0.4265 -0.9313
  330MOL0     H44547   8.620  10.687   1.634  1.0048 -1.9490  0.4239
  330MOL0     H44548   8.905  10.741   1.944  1.0843  0.1283 -2.1114
  330MOL0     H44549   8.173  10.343   1.993 -0.7596  0.0215  0.0494
  330MOL0     H44550   8.046  10.157   2.085  2.0035 -2.3495  1.0059
  331MOL0     O44551   2.684   4.018   2.960 -0.3591 -0.3567 -0.0729
  331MOL0     C44552   2.658   4.143   2.945  0.3447 -0.1347  1.1622
  331MOL0     O44553   2.741   4.232   2.884  0.4649 -0.1917 -0.1526
  331MOL0     C44554   2.866   4.195   2.862  0.4623 -0.0732 -0.1119
  331MOL0     C44555   2.896   4.127   2.746 -0.2099  0.3151  0.0840
  331MOL0     C44556   3.026   4.110   2.715  0.3470  0.5710  0.1538
  331MOL0     C44557   3.130   4.156   2.806  0.5902  0.7206  0.1230
  331MOL0     O44558   3.256   4.141   2.745 -0.2853 -0.3622 -0.1656
  331MOL0     C44559   3.370   4.129   2.827  0.0302 -0.1113  0.8787
  331MOL0     C44560   3.492   4.085   2.760  0.2910 -0.2332 -0.6720
  331MOL0     C44561   3.574   4.201   2.711  0.4895  0.8531  0.1293
  331MOL0     C44562   3.673   4.176   2.597 -0.1784  0.6565  0.4271
  331MOL0     C44563   3.767   4.064   2.632 -0.7824 -0.4605  0.3927
  331MOL0     C44564   3.900   4.055   2.550 -0.5641  0.5602 -0.5378
  331MOL0     C44565   3.992   3.926   2.573  1.1725 -0.5371 -0.1161
  331MOL0     C44566   4.108   3.922   2.476  0.2199 -0.3520 -0.5272
  331MOL0     N44567   4.192   3.809   2.513 -0.1488  0.0637 -0.7420
  331MOL0     C44568   4.205   3.757   2.642  0.2816  0.6050  0.0370
  331MOL0     C44569   4.291   3.654   2.622 -0.2456 -0.2793 -0.1402
  331MOL0     C44570   4.347   3.559   2.725  0.1420 -0.4389  0.8772
  331MOL0     C44571   4.285   3.565   2.867 -0.3697 -0.5348  0.2807
  331MOL0     C44572   4.158   3.494   2.881 -0.0274  0.0204 -0.6482
  331MOL0     C44573   4.058   3.545   2.992 -0.1281  0.0575 -0.0204
  331MOL0     O44574   4.029   3.691   2.979 -0.5414  0.5178  0.2020
  331MOL0     C44575   3.913   3.733   3.043 -0.2362 -0.3159  1.0757
  331MOL0     C44576   3.865   3.678   3.165  1.2401  0.6897 -0.2759
  331MOL0     C44577   3.743   3.732   3.220 -0.9971  0.2513 -0.5447
  331MOL0     C44578   3.710   3.683   3.358  0.0083 -0.3338  0.1626
  331MOL0     C44579   3.678   3.832   3.146  0.7726 -0.5328 -0.3770
  331MOL0     C44580   3.546   3.893   3.186  0.7658 -0.1268  0.4388
  331MOL0     O44581   3.450   3.828   3.271 -1.5164 -0.2725  0.4874
  331MOL0     C44582   3.336   3.893   3.299  0.0197 -0.2891 -0.3485
  331MOL0     C44583   3.241   3.905   3.195 -0.2805  0.5820 -0.4082
  331MOL0     C44584   3.117   3.959   3.235  0.4271  1.2230 -0.9267
  331MOL0     C44585   3.094   4.001   3.366 -0.2374  0.3039  0.0648
  331MOL0     O44586   2.976   4.064   3.411  0.2626  0.1895  0.3120
  331MOL0     C44587   2.865   4.060   3.322 -0.3392  0.0810  1.1288
  331MOL0     C44588   2.739   4.071   3.408  0.1836  0.2060 -0.1200
  331MOL0     C44589   2.620   4.072   3.316  0.3274  0.2865 -0.3910
  331MOL0     C44590   2.488   4.067   3.405  1.0373 -0.1254  0.2704
  331MOL0     C44591   2.370   4.039   3.319 -1.0176 -0.3251 -0.0027
  331MOL0     C44592   2.243   4.000   3.384  0.2215 -0.4107 -0.2701
  331MOL0     C44593   2.134   3.967   3.277 -0.4189  0.1538  0.3621
  331MOL0     C44594   2.006   3.893   3.321  0.9565  0.1744  0.7238
  331MOL0    Cl44595   1.924   3.976   3.449 -0.3427 -0.1509  0.3804
  331MOL0     C44596   3.194   4.005   3.464  0.7293  0.1096  0.4335
  331MOL0     C44597   3.314   3.950   3.427 -0.1274 -0.1724  0.1095
  331MOL0     O44598   3.520   3.997   3.126 -0.0380  0.1038 -1.0270
  331MOL0     C44599   3.725   3.875   3.024  0.0143  0.0112 -0.5056
  331MOL0     C44600   3.843   3.827   2.979 -0.0052 -1.4260  0.2151
  331MOL0     N44601   4.349   3.659   2.500  0.1711  0.0189  0.1335
  331MOL0     N44602   4.281   3.746   2.434  0.0272 -0.8144  0.1104
  331MOL0     C44603   3.095   4.222   2.926  0.0113 -0.1066 -0.2967
  331MOL0     C44604   2.957   4.228   2.955 -0.6597 -0.7340  0.1584
  331MOL0     C44605   2.514   4.183   2.960 -0.7367 -0.2638  0.3118
  331MOL0     C44606   2.404   4.089   2.978 -0.1343 -0.1544  0.2268
  331MOL0     C44607   2.275   4.125   2.985  1.1408 -0.2224 -0.5508
  331MOL0     C44608   2.241   4.255   2.986 -0.4707 -0.2964 -0.1026
  331MOL0     O44609   2.114   4.309   2.995  0.1876 -0.1834  0.3669
  331MOL0     C44610   2.004   4.227   2.981 -0.5159  1.1196  0.2882
  331MOL0     C44611   1.878   4.310   2.953 -0.3410  0.3379 -0.2551
  331MOL0     C44612   1.757   4.235   2.901  0.2621 -0.1327 -0.3592
  331MOL0     C44613   1.681   4.179   3.029  0.5471 -0.6140  0.6430
  331MOL0     C44614   1.546   4.145   2.982 -0.2792 -0.9031 -0.3667
  331MOL0     C44615   1.436   4.135   2.933  1.1292 -0.2561  0.2024
  331MOL0     C44616   2.343   4.353   2.975 -0.5025 -0.3888  0.3196
  331MOL0     C44617   2.477   4.317   2.961  0.1890 -1.2553 -0.0290
  331MOL0     H44618   2.818   4.097   2.677  0.0979  1.9538 -1.0110
  331MOL0     H44619   3.049   4.046   2.630 -0.7270  1.6683 -1.0141
  331MOL0     H44620   3.381   4.232   2.860 -2.3769  1.1223 -1.7840
  331MOL0     H44621   3.347   4.059   2.908  0.7732  1.3274  2.3931
  331MOL0     H44622   3.554   4.021   2.824 -0.0144 -0.3478 -0.4857
  331MOL0     H44623   3.459   4.025   2.674 -4.7914 -1.9966  2.0676
  331MOL0     H44624   3.505   4.275   2.668 -0.6189  0.2650  0.8537
  331MOL0     H44625   3.621   4.247   2.799  0.2615 -0.1891  0.8203
  331MOL0     H44626   3.622   4.151   2.503 -1.9336 -2.6994  2.1126
  331MOL0     H44627   3.724   4.270   2.574 -0.4755  1.2758  2.2054
  331MOL0     H44628   3.804   4.088   2.732 -0.2802  2.6226 -0.4016
  331MOL0     H44629   3.715   3.968   2.632 -0.6650 -0.6292  3.5780
  331MOL0     H44630   3.873   4.046   2.444 -1.6278 -0.6800 -0.1984
  331MOL0     H44631   3.953   4.143   2.588 -1.1506 -0.7957  3.9785
  331MOL0     H44632   4.022   3.941   2.677 -2.4733  1.9420  0.7812
  331MOL0     H44633   3.944   3.828   2.581  1.4302 -0.5987  0.8694
  331MOL0     H44634   4.170   4.013   2.477 -1.8142  1.0981 -0.1252
  331MOL0     H44635   4.064   3.916   2.377  0.0417 -3.3111 -0.3454
  331MOL0     H44636   4.148   3.771   2.733  0.5945 -0.5400  0.4277
  331MOL0     H44637   4.354   3.459   2.680  1.0808  0.8452 -2.0635
  331MOL0     H44638   4.451   3.589   2.741  0.1442  0.8831 -1.1725
  331MOL0     H44639   4.273   3.672   2.887 -0.5436  0.0595 -2.5549
  331MOL0     H44640   4.358   3.525   2.938  0.4781 -1.0559 -0.8511
  331MOL0     H44641   4.185   3.391   2.906 -2.2413  0.1027  2.8665
  331MOL0     H44642   4.102   3.504   2.788 -0.5691  4.2566 -0.0429
  331MOL0     H44643   4.103   3.534   3.091 -1.6995 -3.1115  0.4817
  331MOL0     H44644   3.972   3.477   2.998 -0.4812  0.5858  1.4241
  331MOL0     H44645   3.908   3.585   3.198  1.3482 -0.6959 -3.8756
  331MOL0     H44646   3.800   3.661   3.416  0.6294  1.6227  0.0109
  331MOL0     H44647   3.657   3.760   3.415 -1.2718 -2.2103  1.6403
  331MOL0     H44648   3.643   3.598   3.343 -2.3721  1.4566 -0.1034
  331MOL0     H44649   3.241   3.856   3.098 -0.7913  0.2612 -0.2507
  331MOL0     H44650   3.037   3.949   3.162 -0.2452  1.0798 -0.1798
  331MOL0     H44651   2.863   4.145   3.253  0.0189  1.2634  2.5275
  331MOL0     H44652   2.857   3.965   3.269  0.8272  1.1943 -1.2323
  331MOL0     H44653   2.725   3.981   3.469 -4.4328 -0.6256 -2.0265
  331MOL0     H44654   2.739   4.164   3.465  0.9467  1.5177 -2.1565
  331MOL0     H44655   2.635   3.981   3.257  2.0314 -0.2988  0.8515
  331MOL0     H44656   2.628   4.152   3.242 -0.0528 -0.6477 -1.4738
  331MOL0     H44657   2.504   3.992   3.483  3.6836 -0.2256 -0.2552
  331MOL0     H44658   2.479   4.162   3.459 -0.5168 -1.1832  1.9960
  331MOL0     H44659   2.398   3.958   3.251  0.2444  0.4648 -0.4581
  331MOL0     H44660   2.350   4.124   3.254  0.8263 -0.1555 -0.4019
  331MOL0     H44661   2.262   3.907   3.440  4.1376 -0.0621 -0.7916
  331MOL0     H44662   2.204   4.080   3.448  1.4172 -1.7548  2.2853
  331MOL0     H44663   2.181   3.900   3.204  4.0186  2.2445  0.9778
  331MOL0     H44664   2.111   4.060   3.225  1.7273  1.0205  0.8836
  331MOL0     H44665   2.035   3.800   3.371  2.0970  0.7750  1.2292
  331MOL0     H44666   1.937   3.873   3.239  2.0317  0.8373 -0.3922
  331MOL0     H44667   3.177   4.045   3.563  1.2416  0.3756  0.4146
  331MOL0     H44668   3.377   3.947   3.515 -2.1949  0.7909  1.7020
  331MOL0     H44669   3.677   3.959   2.974 -0.5959 -0.6507 -1.0489
  331MOL0     H44670   3.881   3.866   2.885  1.0832  0.9178  1.5314
  331MOL0     H44671   3.170   4.262   2.993  0.1621  1.1349 -1.1688
  331MOL0     H44672   2.930   4.264   3.055 -1.2388  1.6730 -0.7789
  331MOL0     H44673   2.432   3.984   2.978  4.1567  0.7639 -1.7338
  331MOL0     H44674   2.194   4.052   2.989 -0.1529  1.1825 -0.1987
  331MOL0     H44675   2.018   4.161   2.895 -3.1658  1.6786 -0.6693
  331MOL0     H44676   1.988   4.182   3.080 -0.5567 -0.7557 -0.5412
  331MOL0     H44677   1.906   4.385   2.878 -0.0085  0.8789  0.4041
  331MOL0     H44678   1.852   4.365   3.044  0.3729  1.9216 -0.9634
  331MOL0     H44679   1.787   4.153   2.835  3.5448  2.2217 -2.1272
  331MOL0     H44680   1.699   4.297   2.833 -0.1967 -1.3015 -1.0712
  331MOL0     H44681   1.672   4.259   3.103 -2.9869 -0.7043  0.4815
  331MOL0     H44682   1.728   4.084   3.059  0.7137 -1.5620 -2.2916
  331MOL0     H44683   1.346   4.112   2.879  1.7855 -4.9642  0.6251
  331MOL0     H44684   2.306   4.455   2.975 -2.7220 -1.0900 -1.6062
  331MOL0     H44685   2.564   4.382   2.960  1.0672 -2.4067  0.0749
  332MOL0     O44686   8.595  10.894   0.196  0.0446  0.0925  0.7199
  332MOL0     C44687   8.679  10.806   0.167  0.1528 -0.0013  0.3454
  332MOL0     O44688   8.648  10.681   0.111  0.0667  0.2671  0.4558
  332MOL0     C44689   8.519  10.659   0.075 -0.5259  0.3566 -0.2424
  332MOL0     C44690   8.487  10.621  -0.060 -0.1106  0.2566  0.1104
  332MOL0     C44691   8.353  10.613  -0.102 -0.1310  0.0920  0.1880
  332MOL0     C44692   8.248  10.619  -0.011  0.6303 -0.2240 -0.7772
  332MOL0     O44693   8.117  10.600  -0.048  0.2600  0.2916  0.2596
  332MOL0     C44694   8.014  10.582   0.048  0.1716 -0.9863 -0.3269
  332MOL0     C44695   7.898  10.533  -0.032  0.8479  0.6292  0.5398
  332MOL0     C44696   7.778  10.512   0.058  0.5312  0.2326 -0.7256
  332MOL0     C44697   7.669  10.415   0.002  0.1357  0.1985  0.4166
  332MOL0     C44698   7.542  10.449   0.067 -0.2574 -0.2395  0.3312
  332MOL0     C44699   7.453  10.330   0.076 -0.0538 -0.6508  0.0331
  332MOL0     C44700   7.321  10.376   0.147  0.4594  0.5668  0.0749
  332MOL0     C44701   7.223  10.258   0.159  0.8672 -0.2634 -0.0121
  332MOL0     N44702   7.120  10.245   0.050 -0.1437  0.3618  0.3781
  332MOL0     C44703   6.994  10.294   0.042 -0.1643 -0.6457 -0.4373
  332MOL0     C44704   6.939  10.254  -0.073  1.0041  0.3377 -0.5826
  332MOL0     C44705   6.809  10.298  -0.138 -0.6744 -0.4193 -0.8377
  332MOL0     C44706   6.692  10.277  -0.034  0.4555  0.1128 -0.4419
  332MOL0     C44707   6.551  10.304  -0.093 -0.6298 -0.3432  0.1251
  332MOL0     C44708   6.437  10.255  -0.004 -0.2877  1.0022  0.6100
  332MOL0     O44709   6.427  10.108  -0.005 -0.6268  1.1224 -0.0869
  332MOL0     C44710   6.331  10.045   0.069 -0.8139 -0.3404 -0.4159
  332MOL0     C44711   6.305   9.911   0.056 -0.4972  0.2494  0.0805
  332MOL0     C44712   6.210   9.843   0.141  0.1498  0.0433 -0.1276
  332MOL0     C44713   6.178   9.702   0.098  0.2083 -0.4578  0.4241
  332MOL0     C44714   6.127   9.920   0.230  0.5302 -0.3475  0.3576
  332MOL0     C44715   6.012   9.861   0.298 -0.6106  0.6434 -0.4102
  332MOL0     O44716   5.914   9.953   0.336 -0.1643 -0.6454 -0.4681
  332MOL0     C44717   5.804   9.901   0.391 -0.0553 -0.1840  1.0251
  332MOL0     C44718   5.731   9.975   0.484 -0.0067  0.0141  0.7705
  332MOL0     C44719   5.600   9.947   0.526 -0.5756 -0.1380 -0.3491
  332MOL0     C44720   5.531   9.835   0.480 -0.6461  0.5437 -0.5271
  332MOL0     O44721   5.411   9.792   0.533  0.0604  0.0366 -0.2459
  332MOL0     C44722   5.314   9.743   0.437  0.9261  0.0347 -0.0607
  332MOL0     C44723   5.176   9.733   0.490 -0.4921 -0.2507  0.5587
  332MOL0     C44724   5.151   9.645   0.614  0.8290 -0.3937  0.2457
  332MOL0     C44725   5.003   9.593   0.614  0.1853  1.1002  0.4999
  332MOL0     C44726   4.976   9.503   0.741 -0.7174  0.0215 -0.4078
  332MOL0     C44727   4.839   9.441   0.757  0.4203 -0.6257  0.1215
  332MOL0     C44728   4.824   9.318   0.660  0.0545 -0.4797  0.4205
  332MOL0     C44729   4.701   9.231   0.668  0.0897 -0.0940 -0.0142
  332MOL0    Cl44730   4.705   9.105   0.563  0.4524 -0.0219  0.1559
  332MOL0     C44731   5.601   9.761   0.379 -0.2731  0.9092 -0.3518
  332MOL0     C44732   5.738   9.791   0.342 -0.0026  0.1982 -0.0598
  332MOL0     O44733   6.024   9.745   0.339  0.4826 -0.5003 -0.4761
  332MOL0     C44734   6.158  10.052   0.249  0.4173 -0.1353  0.1294
  332MOL0     C44735   6.258  10.113   0.172  0.2121 -0.2829  0.7734
  332MOL0     N44736   7.045  10.198  -0.148  0.2297  0.2714 -0.2781
  332MOL0     N44737   7.149  10.193  -0.073  0.5661  0.0733 -0.6143
  332MOL0     C44738   8.281  10.643   0.124 -0.5062  0.2692  0.3706
  332MOL0     C44739   8.407  10.667   0.163 -0.5314 -0.5784 -0.4478
  332MOL0     C44740   8.820  10.830   0.175 -0.8256 -0.0331  0.8142
  332MOL0     C44741   8.868  10.895   0.284 -0.3292  0.4323 -0.5908
  332MOL0     C44742   9.003  10.924   0.295 -0.7290  0.0804  0.1789
  332MOL0     C44743   9.098  10.895   0.194 -0.1897 -0.3912 -0.3455
  332MOL0     O44744   9.233  10.892   0.204 -0.1249 -0.5234 -0.0078
  332MOL0     C44745   9.299  10.914   0.330 -0.8892 -0.2472  0.9684
  332MOL0     C44746   9.442  10.972   0.301  1.0030  0.9544  0.3911
  332MOL0     C44747   9.531  10.860   0.247  0.2942  0.1199 -0.2528
  332MOL0     C44748   9.650  10.917   0.172  0.4005  0.0749 -0.5957
  332MOL0     C44749   9.623  10.941   0.032  0.1429  0.3553 -0.1231
  332MOL0     C44750   9.607  10.959  -0.088 -0.2122  0.7991  0.0135
  332MOL0     C44751   9.046  10.842   0.078  0.3943  0.0238  0.9614
  332MOL0     C44752   8.909  10.814   0.063  0.8409  0.1493 -1.0196
  332MOL0     H44753   8.573  10.600  -0.123 -0.4538  2.7215 -1.2937
  332MOL0     H44754   8.327  10.583  -0.203  0.7310 -0.5366  0.1476
  332MOL0     H44755   8.044  10.511   0.126  0.7463  2.3989  2.7689
  332MOL0     H44756   7.987  10.673   0.102  0.0143 -0.2167 -1.6646
  332MOL0     H44757   7.883  10.597  -0.120 -0.9895  0.6761  0.8574
  332MOL0     H44758   7.937  10.445  -0.084 -1.7772  0.1147 -0.7408
  332MOL0     H44759   7.793  10.481   0.162 -1.6143  0.7382 -0.2129
  332MOL0     H44760   7.726  10.608   0.062 -0.7054 -0.4013 -1.1250
  332MOL0     H44761   7.661  10.424  -0.107  0.0849 -2.4884  0.1297
  332MOL0     H44762   7.706  10.316   0.028  0.9853  0.7415  1.3327
  332MOL0     H44763   7.551  10.491   0.167 -1.3451  1.2069 -0.1553
  332MOL0     H44764   7.491  10.527   0.010  0.6111  0.4263  0.4402
  332MOL0     H44765   7.434  10.290  -0.024  1.2017  0.7471 -0.8074
  332MOL0     H44766   7.504  10.251   0.132  0.8043 -0.3551 -0.3185
  332MOL0     H44767   7.334  10.426   0.244 -3.1538 -0.0324  1.0153
  332MOL0     H44768   7.268  10.450   0.086  1.3650  1.0182 -0.1856
  332MOL0     H44769   7.179  10.259   0.259 -0.1185  2.5336 -0.3792
  332MOL0     H44770   7.278  10.163   0.159 -0.3914 -1.0461 -1.8669
  332MOL0     H44771   6.938  10.342   0.122 -0.7645 -2.2243  0.1418
  332MOL0     H44772   6.813  10.403  -0.170 -1.1686  0.4522  1.7757
  332MOL0     H44773   6.795  10.238  -0.229  0.3971 -1.1601 -0.5279
  332MOL0     H44774   6.708  10.325   0.063 -0.5547  1.3893 -0.8809
  332MOL0     H44775   6.686  10.169  -0.018 -1.3932  0.0900 -1.0123
  332MOL0     H44776   6.544  10.261  -0.194  2.3217  0.1717 -0.4132
  332MOL0     H44777   6.550  10.412  -0.110  2.0168 -0.2018  0.4907
  332MOL0     H44778   6.345  10.302  -0.040  0.4985 -0.1251 -3.4988
  332MOL0     H44779   6.460  10.294   0.095 -1.8366  2.5808  0.4044
  332MOL0     H44780   6.374   9.851  -0.003  1.8626  0.5166  2.4232
  332MOL0     H44781   6.073   9.679   0.080  0.5587 -1.4089 -0.5069
  332MOL0     H44782   6.219   9.676  -0.000 -1.0990 -0.3940 -0.1527
  332MOL0     H44783   6.206   9.621   0.165 -0.9005 -1.0210  0.2296
  332MOL0     H44784   5.790  10.060   0.516 -1.3128  2.2475 -2.2466
  332MOL0     H44785   5.564  10.010   0.607  0.8591  2.1697 -1.3940
  332MOL0     H44786   5.304   9.820   0.360 -0.1650  3.4065  3.1712
  332MOL0     H44787   5.352   9.648   0.397  0.8658 -0.0739  0.1402
  332MOL0     H44788   5.152   9.836   0.516  2.3224  1.2345 -2.0999
  332MOL0     H44789   5.113   9.701   0.406  1.7030 -0.8723 -0.9489
  332MOL0     H44790   5.180   9.704   0.701  1.3992  1.2282 -1.0000
  332MOL0     H44791   5.215   9.557   0.609  0.0528 -1.0244  1.0715
  332MOL0     H44792   4.928   9.672   0.606 -0.3641  0.9519  3.1996
  332MOL0     H44793   4.997   9.536   0.521  1.7822  1.0272  0.4007
  332MOL0     H44794   4.988   9.560   0.833 -1.1457 -1.8570  0.8721
  332MOL0     H44795   5.054   9.427   0.731  2.2712  2.8180 -0.1354
  332MOL0     H44796   4.820   9.413   0.862 -0.3036  0.3314  0.2611
  332MOL0     H44797   4.768   9.520   0.731  1.6186 -0.1839 -1.9426
  332MOL0     H44798   4.901   9.244   0.685 -0.8746 -1.6296 -0.0249
  332MOL0     H44799   4.837   9.353   0.557 -1.5943  1.1270  0.7120
  332MOL0     H44800   4.607   9.284   0.648  0.3419  0.6497  0.7285
  332MOL0     H44801   4.688   9.187   0.767  0.1763 -1.8799 -0.7600
  332MOL0     H44802   5.551   9.679   0.326  0.6010 -1.1740  1.8692
  332MOL0     H44803   5.792   9.736   0.266  3.4005 -1.8310  3.4563
  332MOL0     H44804   6.097  10.111   0.317 -2.1938  2.3148 -3.8561
  332MOL0     H44805   6.278  10.215   0.202 -3.3081  1.0940 -1.0083
  332MOL0     H44806   8.201  10.651   0.197 -2.5773  1.6139 -1.9213
  332MOL0     H44807   8.424  10.705   0.263  1.9166 -1.3858 -0.4908
  332MOL0     H44808   8.799  10.917   0.365  0.5637 -1.3126  0.7068
  332MOL0     H44809   9.031  10.952   0.396  0.2492 -0.5156  0.0835
  332MOL0     H44810   9.252  10.988   0.396 -0.3197 -0.0735  1.1924
  332MOL0     H44811   9.308  10.817   0.381 -0.2839 -2.3290 -2.7404
  332MOL0     H44812   9.490  11.009   0.393  1.1380 -1.3219  1.3079
  332MOL0     H44813   9.429  11.052   0.228  2.4160 -1.4453 -2.7189
  332MOL0     H44814   9.469  10.786   0.196  0.3130  0.7611 -1.2176
  332MOL0     H44815   9.572  10.804   0.332 -0.3990 -1.2352 -0.7883
  332MOL0     H44816   9.722  10.834   0.175  0.4464 -0.0036 -2.7429
  332MOL0     H44817   9.692  11.005   0.222 -0.2937  2.1075 -3.3893
  332MOL0     H44818   9.603  10.974  -0.194  1.7033  1.5942  0.0126
  332MOL0     H44819   9.124  10.818   0.006  0.8199 -2.8796  2.2512
  332MOL0     H44820   8.875  10.777  -0.033  3.9341 -0.8944 -1.8548
  333MOL0     O44821   8.249  10.069   8.126  0.5451  0.4185 -0.4890
  333MOL0     C44822   8.325  10.156   8.090 -0.4164 -0.0511  0.4412
  333MOL0     O44823   8.283  10.257   8.005  0.7448 -0.2795  0.1241
  333MOL0     C44824   8.152  10.284   7.989  0.3802  0.8558  0.4134
  333MOL0     C44825   8.113  10.419   8.004 -0.5243  0.6097  0.1320
  333MOL0     C44826   7.982  10.459   7.986  0.4516  0.1932  0.2908
  333MOL0     C44827   7.880  10.372   7.947 -0.0740 -0.0911 -0.5293
  333MOL0     O44828   7.752  10.427   7.937 -0.3747  0.7912 -0.1533
  333MOL0     C44829   7.639  10.335   7.942  0.3706  0.3501 -0.0788
  333MOL0     C44830   7.612  10.309   8.090 -0.0393  0.0258 -0.3745
  333MOL0     C44831   7.505  10.205   8.110 -0.0649  0.0404 -0.2932
  333MOL0     C44832   7.502  10.169   8.256 -0.0600  0.7134 -0.0196
  333MOL0     C44833   7.378  10.076   8.291  0.1959 -0.2614  0.7122
  333MOL0     C44834   7.367  10.043   8.440 -0.1780  0.0921 -0.3948
  333MOL0     C44835   7.251   9.949   8.448  0.2517 -0.2576  0.1644
  333MOL0     C44836   7.232   9.913   8.591  0.0436  0.7106  0.1044
  333MOL0     N44837   7.156  10.010   8.669 -0.3290 -0.5571  0.8759
  333MOL0     C44838   7.028  10.038   8.642 -0.8079  0.3665  0.2798
  333MOL0     C44839   6.992  10.112   8.744  0.2524  1.1409  0.1837
  333MOL0     C44840   6.848  10.164   8.771 -0.3719  0.6469 -0.1328
  333MOL0     C44841   6.770  10.078   8.875  0.4808 -0.1139 -0.2366
  333MOL0     C44842   6.791   9.920   8.840 -0.2199  0.1114 -0.1982
  333MOL0     C44843   6.696   9.820   8.908  0.8310  0.0664 -0.2317
  333MOL0     O44844   6.558   9.864   8.879 -0.6088 -1.1713  0.0877
  333MOL0     C44845   6.449   9.829   8.957 -0.2521  0.2336 -0.3173
  333MOL0     C44846   6.324   9.883   8.913  0.2815  0.2180 -0.5729
  333MOL0     C44847   6.201   9.845   8.974  0.6573  0.3612  0.7850
  333MOL0     C44848   6.072   9.899   8.920 -0.0451  0.2499 -0.0868
  333MOL0     C44849   6.209   9.766   9.089  0.6960  0.2193  0.5721
  333MOL0     C44850   6.091   9.717   9.160  0.4020 -0.3383  0.2050
  333MOL0     O44851   6.085   9.741   9.289  0.4026 -0.1549  0.2927
  333MOL0     C44852   5.982   9.699   9.365  0.1864  0.9656  0.0958
  333MOL0     C44853   5.932   9.571   9.357  0.3938  0.0870 -0.2890
  333MOL0     C44854   5.837   9.519   9.440  0.6005 -0.2215  0.5444
  333MOL0     C44855   5.802   9.601   9.548  0.5413  0.4912 -0.1489
  333MOL0     O44856   5.707   9.561   9.646  0.8327  0.1731  0.0943
  333MOL0     C44857   5.606   9.463   9.609  0.6407  0.3422  0.1794
  333MOL0     C44858   5.497   9.453   9.716  0.2979 -0.3494  0.7081
  333MOL0     C44859   5.400   9.570   9.683  0.3520  0.2150  0.2245
  333MOL0     C44860   5.286   9.584   9.781 -0.1089  0.0501  0.5477
  333MOL0     C44861   5.189   9.684   9.710  0.4426  0.3187  0.0237
  333MOL0     C44862   5.075   9.715   9.806 -0.3926  0.0866 -0.3105
  333MOL0     C44863   4.967   9.802   9.738  0.6048 -0.3203  0.4782
  333MOL0     C44864   5.016   9.936   9.718  0.1011 -0.0682  0.2502
  333MOL0    Cl44865   4.886  10.052   9.651 -0.6128 -0.1102 -0.0449
  333MOL0     C44866   5.834   9.734   9.556  0.0660 -0.4238  0.3716
  333MOL0     C44867   5.934   9.781   9.467  0.1231 -0.1719 -0.0353
  333MOL0     O44868   5.997   9.674   9.094  0.3001  0.7300 -0.6038
  333MOL0     C44869   6.333   9.722   9.140 -0.1400 -0.2036 -0.7141
  333MOL0     C44870   6.455   9.752   9.072 -0.0649  0.1196 -0.7017
  333MOL0     N44871   7.099  10.133   8.833  0.7280  0.1790 -0.2426
  333MOL0     N44872   7.194  10.077   8.776 -0.4011  0.5624 -0.6282
  333MOL0     C44873   7.925  10.232   7.940  0.0033 -0.7413  0.5393
  333MOL0     C44874   8.055  10.183   7.957  0.6942 -0.0714  0.3654
  333MOL0     C44875   8.464  10.137   8.128 -0.5836 -0.2773 -0.4447
  333MOL0     C44876   8.520  10.015   8.174 -0.2534 -0.2928 -1.2272
  333MOL0     C44877   8.654  10.003   8.204  0.5641  0.2379 -0.4239
  333MOL0     C44878   8.734  10.118   8.203 -0.4252 -0.9891 -0.0785
  333MOL0     O44879   8.867  10.092   8.245  0.2618  0.3934 -0.0423
  333MOL0     C44880   8.965  10.200   8.247 -0.6781  0.0731  0.1212
  333MOL0     C44881   9.101  10.138   8.301  0.0044 -1.4147 -0.1748
  333MOL0     C44882   9.155  10.021   8.214 -0.2574 -0.7114 -0.6102
  333MOL0     C44883   9.177  10.052   8.070  0.3328 -0.1906 -0.8911
  333MOL0     C44884   9.243   9.935   8.015 -0.2405  0.2684 -0.2793
  333MOL0     C44885   9.308   9.832   7.986  0.0921 -0.1582  1.2309
  333MOL0     C44886   8.686  10.240   8.155  0.0067  0.1386 -0.0872
  333MOL0     C44887   8.551  10.247   8.113  0.6183 -0.0578  0.6155
  333MOL0     H44888   8.187  10.485   8.049  0.0105  0.4816 -0.5398
  333MOL0     H44889   7.950  10.560   8.007  0.4925  0.7588 -2.1335
  333MOL0     H44890   7.559  10.385   7.887 -0.0857 -2.5328 -2.2631
  333MOL0     H44891   7.660  10.241   7.891 -2.1607 -0.7357  0.7610
  333MOL0     H44892   7.708  10.278   8.130 -0.5742 -0.9218  0.2019
  333MOL0     H44893   7.582  10.402   8.140  1.1779  0.1176  0.2239
  333MOL0     H44894   7.411  10.251   8.076  0.1685  1.3902  0.8063
  333MOL0     H44895   7.522  10.112   8.055 -1.6396 -2.6503  3.3234
  333MOL0     H44896   7.585  10.101   8.280 -1.8907 -2.9226 -3.0384
  333MOL0     H44897   7.492  10.259   8.317 -0.9494  1.7705 -1.6866
  333MOL0     H44898   7.294  10.138   8.259  1.1664  0.6159 -0.2553
  333MOL0     H44899   7.381   9.983   8.232 -4.1614 -0.6527  0.7706
  333MOL0     H44900   7.451   9.986   8.479 -0.7679  0.0830  0.9027
  333MOL0     H44901   7.341  10.136   8.492 -2.2274 -1.9296  2.4726
  333MOL0     H44902   7.167  10.001   8.401  1.4512  0.2371 -1.5249
  333MOL0     H44903   7.266   9.855   8.394 -0.1841 -1.6555  2.3174
  333MOL0     H44904   7.331   9.896   8.633 -0.3917 -2.3647  0.0856
  333MOL0     H44905   7.181   9.816   8.598  3.0679 -1.2958 -2.8561
  333MOL0     H44906   6.964  10.006   8.561 -2.1436  2.2554  0.5096
  333MOL0     H44907   6.848  10.268   8.806  2.0962  0.5062  0.4487
  333MOL0     H44908   6.804  10.161   8.671  3.4543  0.3908 -2.0082
  333MOL0     H44909   6.664  10.105   8.877  0.7207  0.9401  2.2375
  333MOL0     H44910   6.818  10.107   8.969 -0.6167 -1.2258  0.7076
  333MOL0     H44911   6.893   9.893   8.868 -0.6092  0.3070  1.5367
  333MOL0     H44912   6.771   9.906   8.733 -0.3563 -1.0332 -0.0329
  333MOL0     H44913   6.714   9.808   9.015 -1.2128  1.3998  0.3200
  333MOL0     H44914   6.705   9.719   8.866  0.5850 -1.0848  2.3239
  333MOL0     H44915   6.332   9.950   8.827  2.6788 -0.7464 -1.1870
  333MOL0     H44916   6.095   9.970   8.840  1.8738  0.0563  0.2609
  333MOL0     H44917   6.017   9.815   8.874  0.9143  0.5779 -1.9154
  333MOL0     H44918   6.013   9.946   8.999  1.5857  1.6404  0.3603
  333MOL0     H44919   5.975   9.505   9.282  0.1531 -0.7822  0.3132
  333MOL0     H44920   5.803   9.417   9.423 -1.5954  0.4018  0.8138
  333MOL0     H44921   5.567   9.476   9.508  0.2706 -1.7943 -0.0034
  333MOL0     H44922   5.658   9.367   9.618  2.2317  1.2925  1.6042
  333MOL0     H44923   5.441   9.359   9.710 -2.0447  1.0515 -1.0094
  333MOL0     H44924   5.534   9.472   9.818  2.3950  0.4801 -0.1347
  333MOL0     H44925   5.362   9.553   9.582  0.4856 -1.6453  0.4511
  333MOL0     H44926   5.451   9.667   9.682 -3.6510  2.5909  2.3902
  333MOL0     H44927   5.240   9.485   9.784  1.5397 -0.9123 -2.0001
  333MOL0     H44928   5.336   9.616   9.873  0.4723 -1.8374  0.9385
  333MOL0     H44929   5.156   9.648   9.613 -0.5043  1.0871  0.0459
  333MOL0     H44930   5.253   9.769   9.684 -1.5879  1.2445 -2.2317
  333MOL0     H44931   5.029   9.625   9.848  0.1075  1.6125  4.0873
  333MOL0     H44932   5.117   9.775   9.887  1.2891  1.1337 -1.8828
  333MOL0     H44933   4.883   9.796   9.809 -0.0108 -0.3759 -0.2388
  333MOL0     H44934   4.937   9.756   9.643  2.4794  1.4490 -1.0710
  333MOL0     H44935   5.086   9.932   9.634  0.1427  0.3528  0.2614
  333MOL0     H44936   5.065   9.987   9.802 -3.2927  3.0406  0.5931
  333MOL0     H44937   5.789   9.804   9.625  0.9025 -0.7545  1.2756
  333MOL0     H44938   5.974   9.882   9.471 -2.2561  0.8323  0.2012
  333MOL0     H44939   6.325   9.657   9.227 -3.9932  2.8216  1.5210
  333MOL0     H44940   6.549   9.705   9.096  0.4104  1.4952  0.2529
  333MOL0     H44941   7.851  10.160   7.909 -1.8090  1.1549  0.2325
  333MOL0     H44942   8.072  10.077   7.938  0.8031  0.2686 -1.6892
  333MOL0     H44943   8.460   9.925   8.175 -0.9215  0.1532 -0.3899
  333MOL0     H44944   8.699   9.908   8.230  3.1373  1.0487 -1.6567
  333MOL0     H44945   8.977  10.241   8.147  2.0216 -0.6581  0.0657
  333MOL0     H44946   8.942  10.285   8.312 -1.8484  2.5389 -3.2325
  333MOL0     H44947   9.085  10.107   8.404  0.1768 -1.3351 -0.1242
  333MOL0     H44948   9.169  10.224   8.296 -0.8935 -0.6533  0.4284
  333MOL0     H44949   9.085   9.937   8.214 -1.1641  0.0174 -1.7175
  333MOL0     H44950   9.247   9.985   8.262  0.8673  0.4682 -1.7856
  333MOL0     H44951   9.245  10.137   8.064  0.5717 -0.0298  2.3256
  333MOL0     H44952   9.082  10.067   8.018  1.3385  0.2607 -2.6775
  333MOL0     H44953   9.345   9.736   7.958 -2.2381 -0.9810  0.7516
  333MOL0     H44954   8.755  10.323   8.148 -1.9989  1.7501 -2.8983
  333MOL0     H44955   8.512  10.337   8.065  3.1194  0.0358 -1.4810
  334MOL0     O44956   2.645   3.864   7.021 -0.2417 -0.0088 -0.1980
  334MOL0     C44957   2.679   3.768   7.092 -0.2466 -0.5600 -0.2764
  334MOL0     O44958   2.598   3.690   7.167  0.2862  0.6187 -0.6709
  334MOL0     C44959   2.462   3.721   7.172 -1.0969  0.3447 -0.4275
  334MOL0     C44960   2.423   3.825   7.250 -0.1730 -0.4198  0.1660
  334MOL0     C44961   2.291   3.846   7.273  0.0296 -0.3247 -0.0941
  334MOL0     C44962   2.186   3.763   7.227  1.0184  0.0513 -0.6128
  334MOL0     O44963   2.057   3.776   7.269  0.0871  0.5424 -0.4638
  334MOL0     C44964   2.031   3.852   7.389 -0.6549  0.2738 -0.0867
  334MOL0     C44965   1.893   3.823   7.457 -0.5050 -0.1628  0.7614
  334MOL0     C44966   1.779   3.854   7.357 -0.6656  0.0888  0.2514
  334MOL0     C44967   1.645   3.847   7.431 -0.2356  0.6563 -0.2741
  334MOL0     C44968   1.532   3.921   7.369 -0.1007 -0.7811 -0.1599
  334MOL0     C44969   1.412   3.928   7.459  0.3310 -0.2468 -0.7665
  334MOL0     C44970   1.278   3.964   7.391 -0.7706 -0.3089  0.1694
  334MOL0     C44971   1.157   3.943   7.474  0.1057 -0.0926 -0.8662
  334MOL0     N44972   1.036   4.014   7.421 -0.4252  0.2921  0.3458
  334MOL0     C44973   0.998   4.025   7.291 -0.5757  1.1983  0.6223
  334MOL0     C44974   0.891   4.106   7.291  0.1556  0.7414  0.0427
  334MOL0     C44975   0.802   4.129   7.173 -0.4766  0.0757  0.5550
  334MOL0     C44976   0.667   4.067   7.199 -0.5980  0.2303 -0.2150
  334MOL0     C44977   0.588   4.040   7.071  0.2890  0.0980  0.7016
  334MOL0     C44978   0.459   3.972   7.099  0.6128 -0.3341  1.0877
  334MOL0     O44979   0.368   3.972   6.986 -1.0096 -1.0191 -0.3249
  334MOL0     C44980   0.242   3.940   7.007  0.6180 -0.1777 -0.5589
  334MOL0     C44981   0.166   3.912   6.889  0.2598  0.8372  0.2521
  334MOL0     C44982   0.028   3.873   6.896  0.8839  0.1801  0.3871
  334MOL0     C44983  -0.035   3.836   6.760  0.4335 -0.3084 -0.3443
  334MOL0     C44984  -0.045   3.874   7.018 -0.1136 -0.1994  0.4030
  334MOL0     C44985  -0.184   3.829   7.040 -0.5378  0.0748  1.1444
  334MOL0     O44986  -0.255   3.782   6.938 -0.6070  0.0052  0.4933
  334MOL0     C44987  -0.390   3.746   6.954 -0.7939 -0.4069 -0.2558
  334MOL0     C44988  -0.477   3.845   7.004 -0.3446  0.1421  0.4013
  334MOL0     C44989  -0.614   3.811   7.014 -0.1047 -0.9061  0.7611
  334MOL0     C44990  -0.667   3.684   6.993 -0.2514  0.2050 -0.0859
  334MOL0     O44991  -0.802   3.662   7.017  0.6829 -0.0431  0.3454
  334MOL0     C44992  -0.854   3.535   6.986  0.2023  0.1512  0.1959
  334MOL0     C44993  -0.971   3.498   7.084 -0.0060  0.3848  0.4831
  334MOL0     C44994  -0.999   3.348   7.093 -0.5385 -0.0648 -0.5168
  334MOL0     C44995  -1.015   3.278   6.952  0.2525  0.7262 -0.9981
  334MOL0     C44996  -1.041   3.125   6.982  0.5666  0.2497 -0.7318
  334MOL0     C44997  -1.028   3.033   6.858  0.7750 -0.5047 -0.1761
  334MOL0     C44998  -1.132   3.079   6.755  0.1716  0.9439  0.4736
  334MOL0     C44999  -1.151   2.970   6.652 -0.1542 -0.0693 -0.1785
  334MOL0    Cl45000  -1.276   3.029   6.548  0.2279 -0.0539  0.4932
  334MOL0     C45001  -0.570   3.587   6.942 -0.3008 -0.8718  0.7287
  334MOL0     C45002  -0.442   3.622   6.914  0.3357 -1.0773  0.0874
  334MOL0     O45003  -0.231   3.848   7.154 -1.0066 -0.2520 -1.3157
  334MOL0     C45004   0.034   3.923   7.129  0.1185  0.8021  0.1309
  334MOL0     C45005   0.174   3.943   7.123  0.1672 -0.6023 -0.0819
  334MOL0     N45006   0.870   4.146   7.419 -0.1443 -0.2760  0.6514
  334MOL0     N45007   0.953   4.095   7.491 -0.3737 -0.3409  0.3800
  334MOL0     C45008   2.223   3.649   7.165 -0.5418 -0.3960  0.2189
  334MOL0     C45009   2.359   3.633   7.129 -0.2268 -0.4913  0.0177
  334MOL0     C45010   2.820   3.726   7.088 -0.0991 -0.5692 -0.8105
  334MOL0     C45011   2.911   3.775   6.994  0.2122 -0.3315  0.1205
  334MOL0     C45012   3.053   3.745   7.009 -0.1870  0.2863 -0.3040
  334MOL0     C45013   3.085   3.651   7.113  0.7485 -0.0014 -0.4364
  334MOL0     O45014   3.213   3.605   7.145 -0.1828  0.8211  0.1420
  334MOL0     C45015   3.318   3.648   7.068 -0.4453 -0.1496 -0.1685
  334MOL0     C45016   3.444   3.587   7.133 -0.8051 -1.0436 -1.3943
  334MOL0     C45017   3.578   3.638   7.072  0.5586  0.1832 -0.2221
  334MOL0     C45018   3.617   3.550   6.957  0.2643 -0.2830 -0.5090
  334MOL0     C45019   3.757   3.593   6.908  0.1700  0.9017 -0.1112
  334MOL0     C45020   3.861   3.637   6.857 -0.0018 -0.0198 -0.3654
  334MOL0     C45021   2.990   3.601   7.197 -0.2947  0.4459  0.1635
  334MOL0     C45022   2.863   3.633   7.178  0.4115 -0.0854  0.5913
  334MOL0     H45023   2.490   3.898   7.293 -3.1170  2.2746  0.5485
  334MOL0     H45024   2.269   3.932   7.335  4.1501 -0.5289  1.9969
  334MOL0     H45025   2.106   3.839   7.468 -1.8165 -0.2605  0.9482
  334MOL0     H45026   2.038   3.961   7.373  1.6282  0.4911  1.7970
  334MOL0     H45027   1.880   3.721   7.496  0.2403 -0.0807  1.2464
  334MOL0     H45028   1.880   3.887   7.545 -0.2977  0.8459  0.0666
  334MOL0     H45029   1.784   3.956   7.317 -0.9823 -0.7173 -1.9567
  334MOL0     H45030   1.778   3.790   7.269 -0.7038  2.1282 -1.3142
  334MOL0     H45031   1.615   3.742   7.434 -0.6649  0.7732 -0.4803
  334MOL0     H45032   1.662   3.877   7.535  0.5392  1.9526 -0.7605
  334MOL0     H45033   1.569   4.023   7.353 -1.8516  0.4888  2.9639
  334MOL0     H45034   1.495   3.882   7.273 -4.0897  0.3137  0.7129
  334MOL0     H45035   1.397   3.835   7.515 -0.1124  0.9783  1.2422
  334MOL0     H45036   1.431   4.016   7.521  0.1773 -0.0352 -1.0215
  334MOL0     H45037   1.278   4.072   7.373  0.3685 -0.5555 -1.6872
  334MOL0     H45038   1.268   3.904   7.300  0.0780  0.5850 -0.5460
  334MOL0     H45039   1.173   3.990   7.572 -2.5606  0.9702 -0.8574
  334MOL0     H45040   1.141   3.835   7.479  1.9912 -0.3616  1.5456
  334MOL0     H45041   1.045   3.978   7.205 -4.1490 -2.6754  0.4878
  334MOL0     H45042   0.780   4.236   7.164 -0.1261  0.1419  0.4659
  334MOL0     H45043   0.859   4.092   7.088 -1.6629  4.7254 -2.6619
  334MOL0     H45044   0.611   4.129   7.270  0.1226 -0.4273  0.9721
  334MOL0     H45045   0.688   3.970   7.245  1.6314  0.4150 -0.7249
  334MOL0     H45046   0.645   3.976   7.003 -0.8017  0.5289 -0.6754
  334MOL0     H45047   0.560   4.127   7.011 -2.7614 -0.1257  1.6260
  334MOL0     H45048   0.408   4.021   7.182 -1.9322 -2.1640  0.7358
  334MOL0     H45049   0.463   3.865   7.122 -3.1912 -0.5216  1.3769
  334MOL0     H45050   0.214   3.909   6.791 -1.2076  1.1537 -0.5047
  334MOL0     H45051   0.034   3.825   6.676 -0.1901  0.9962 -1.0468
  334MOL0     H45052  -0.100   3.748   6.758  1.1608 -0.8340 -1.6097
  334MOL0     H45053  -0.101   3.916   6.727  0.5343  0.3303  0.9397
  334MOL0     H45054  -0.442   3.945   7.024  0.4870  0.0241 -0.4279
  334MOL0     H45055  -0.678   3.890   7.050 -0.4140 -1.6930  2.0183
  334MOL0     H45056  -0.889   3.524   6.883 -2.6825 -1.5190  1.2401
  334MOL0     H45057  -0.778   3.460   7.009  2.4147  2.0073 -0.6918
  334MOL0     H45058  -0.951   3.540   7.183 -2.4037  1.8455  0.4341
  334MOL0     H45059  -1.060   3.548   7.044  0.4103  0.4757 -0.3386
  334MOL0     H45060  -1.083   3.331   7.160  1.7471 -1.0120  2.3292
  334MOL0     H45061  -0.920   3.308   7.158 -2.3862 -1.2060  1.1441
  334MOL0     H45062  -1.099   3.335   6.912 -0.4763  1.8915  1.9464
  334MOL0     H45063  -0.924   3.301   6.894  1.1703  2.3091  0.9458
  334MOL0     H45064  -1.142   3.120   7.023  0.8223  0.2790 -0.0761
  334MOL0     H45065  -0.973   3.094   7.063 -0.6930 -0.4040  0.0935
  334MOL0     H45066  -0.925   3.043   6.822  0.1371 -0.8955 -2.2413
  334MOL0     H45067  -1.059   2.932   6.885 -0.6151 -0.5745 -1.8415
  334MOL0     H45068  -1.086   3.170   6.716  1.0703  1.1234  1.8842
  334MOL0     H45069  -1.230   3.085   6.803 -1.1122 -1.5526 -1.5674
  334MOL0     H45070  -1.189   2.882   6.705 -1.1995  0.8456  0.6297
  334MOL0     H45071  -1.056   2.939   6.607  0.0373 -0.3488  0.4088
  334MOL0     H45072  -0.612   3.490   6.919  0.1020 -1.1652  1.2084
  334MOL0     H45073  -0.377   3.557   6.856 -0.1310 -0.4694 -1.1629
  334MOL0     H45074  -0.015   3.929   7.225 -0.1346  1.3829 -0.0292
  334MOL0     H45075   0.228   3.961   7.216  0.6019 -3.6257  0.3435
  334MOL0     H45076   2.157   3.564   7.151  2.1026 -2.1566 -3.3426
  334MOL0     H45077   2.389   3.539   7.084  0.3340 -1.4114  2.1447
  334MOL0     H45078   2.871   3.831   6.910  0.5343 -1.3246 -0.7197
  334MOL0     H45079   3.125   3.798   6.948  0.0877  1.3995  0.9296
  334MOL0     H45080   3.301   3.633   6.961  3.1595 -0.2772 -0.8487
  334MOL0     H45081   3.320   3.757   7.079 -1.7067 -0.2916  2.0779
  334MOL0     H45082   3.438   3.478   7.147 -0.2363 -0.8519  0.6996
  334MOL0     H45083   3.450   3.624   7.236  2.2997 -0.8351 -1.5477
  334MOL0     H45084   3.660   3.632   7.145  0.4699  0.5906 -0.0861
  334MOL0     H45085   3.563   3.743   7.047 -0.0039 -0.0707 -0.9719
  334MOL0     H45086   3.546   3.578   6.878 -1.3679  1.3425  1.4281
  334MOL0     H45087   3.615   3.443   6.982  0.4766 -0.6686 -2.0123
  334MOL0     H45088   3.938   3.688   6.802  0.1267  1.5688  1.2178
  334MOL0     H45089   3.007   3.542   7.287 -1.5809  1.4010  1.0720
  334MOL0     H45090   2.785   3.600   7.245  1.3971 -3.4801  0.2625
  335MOL0     O45091   6.937   7.426  10.335 -1.0305  0.3600  0.6250
  335MOL0     C45092   6.985   7.342  10.413 -0.3564 -0.5413 -0.2060
  335MOL0     O45093   6.935   7.212  10.440  0.7330  0.5295 -0.0872
  335MOL0     C45094   6.800   7.186  10.429  0.7523  0.1499  0.2370
  335MOL0     C45095   6.768   7.055  10.445  0.6093 -0.0536  0.2516
  335MOL0     C45096   6.631   7.015  10.441  0.8937 -0.4952  0.3455
  335MOL0     C45097   6.534   7.109  10.433 -0.5592  0.5934 -0.1225
  335MOL0     O45098   6.405   7.061  10.456 -0.1622 -0.5536 -0.5619
  335MOL0     C45099   6.315   7.155  10.521  0.4424 -0.4474 -0.1550
  335MOL0     C45100   6.193   7.095  10.578  0.3393 -0.2549  0.9839
  335MOL0     C45101   6.214   6.990  10.698  0.8803  0.8658 -0.6970
  335MOL0     C45102   6.088   6.953  10.777 -0.3343 -1.3665 -0.0593
  335MOL0     C45103   6.103   6.829  10.855  0.2076  0.1929 -0.1525
  335MOL0     C45104   5.967   6.765  10.898 -0.3606  0.5949 -1.2351
  335MOL0     C45105   5.892   6.861  10.987  1.8499 -0.3259  0.7357
  335MOL0     C45106   5.771   6.794  11.049 -0.2909 -0.2268  0.2088
  335MOL0     N45107   5.797   6.748  11.186  0.6544  0.2980 -0.3481
  335MOL0     C45108   5.835   6.627  11.218 -0.3075  0.2292  0.2416
  335MOL0     C45109   5.830   6.615  11.348  0.2541 -0.6992 -0.9272
  335MOL0     C45110   5.860   6.494  11.428 -0.3297 -0.9615 -0.3434
  335MOL0     C45111   5.743   6.411  11.466  0.3185 -0.7989 -0.1075
  335MOL0     C45112   5.656   6.484  11.570 -0.4585 -0.0309  0.2742
  335MOL0     C45113   5.537   6.392  11.607 -0.3549 -0.8331  0.3828
  335MOL0     O45114   5.445   6.399  11.496  0.2540  0.0478 -0.4111
  335MOL0     C45115   5.335   6.308  11.509 -0.5595  0.1735  0.6733
  335MOL0     C45116   5.229   6.301  11.413 -0.3442 -0.0438  0.4866
  335MOL0     C45117   5.118   6.224  11.409 -0.1535  0.2722 -0.1138
  335MOL0     C45118   5.026   6.236  11.291  0.0004 -0.0157  0.0372
  335MOL0     C45119   5.102   6.131  11.521 -0.0295  0.5363 -0.5539
  335MOL0     C45120   4.994   6.024  11.540  0.1016 -0.6377 -0.4324
  335MOL0     O45121   4.949   5.994  11.662  0.1664  0.8809 -0.4140
  335MOL0     C45122   4.855   5.891  11.670  0.5854  0.1777 -0.2002
  335MOL0     C45123   4.899   5.774  11.736  0.6971 -0.4269 -0.1093
  335MOL0     C45124   4.803   5.670  11.764  0.2384 -1.1978 -1.0204
  335MOL0     C45125   4.673   5.693  11.724 -0.0319 -0.8494  0.3681
  335MOL0     O45126   4.573   5.591  11.733 -0.8792  0.2569 -0.5523
  335MOL0     C45127   4.605   5.454  11.725  0.5859  0.0822 -0.9379
  335MOL0     C45128   4.490   5.357  11.726  0.5116  0.0001  0.1469
  335MOL0     C45129   4.525   5.206  11.765 -0.8133 -0.1527 -0.5323
  335MOL0     C45130   4.431   5.102  11.705  0.5525  0.5190 -0.5386
  335MOL0     C45131   4.291   5.113  11.775 -0.5280 -0.9784  0.1183
  335MOL0     C45132   4.171   5.105  11.681  0.0391 -0.0623  0.6997
  335MOL0     C45133   4.150   5.232  11.589  0.1669 -0.2840  0.1529
  335MOL0     C45134   4.010   5.241  11.538  0.1282  0.4687 -0.1288
  335MOL0    Cl45135   3.996   5.358  11.409 -0.1944 -0.2622 -0.1588
  335MOL0     C45136   4.635   5.812  11.665  0.4080 -1.0906  0.7159
  335MOL0     C45137   4.724   5.918  11.642 -0.1872  0.2255  0.1477
  335MOL0     O45138   4.962   5.960  11.443 -0.1622  0.2999  0.8758
  335MOL0     C45139   5.199   6.142  11.630  0.0488  0.5245 -0.2850
  335MOL0     C45140   5.311   6.225  11.622 -0.0092 -0.3973 -0.2231
  335MOL0     N45141   5.794   6.747  11.400 -0.0789  0.3387 -0.1640
  335MOL0     N45142   5.782   6.823  11.297 -0.4448 -0.0683 -0.5201
  335MOL0     C45143   6.563   7.246  10.419 -0.5139 -0.6142  0.6307
  335MOL0     C45144   6.696   7.281  10.414  0.3502  0.3120 -0.7279
  335MOL0     C45145   7.119   7.383  10.473 -0.3655 -0.2299 -0.0007
  335MOL0     C45146   7.159   7.516  10.477  0.6541  1.1171 -0.1370
  335MOL0     C45147   7.278   7.552  10.533 -0.2561  0.3412  0.5639
  335MOL0     C45148   7.372   7.459  10.581  0.4126  0.0105  0.9369
  335MOL0     O45149   7.502   7.479  10.604  0.1616 -0.3085  0.6518
  335MOL0     C45150   7.564   7.599  10.555 -0.9433 -0.4748 -0.3200
  335MOL0     C45151   7.710   7.596  10.610 -0.9209  0.7543 -0.6699
  335MOL0     C45152   7.801   7.705  10.563  0.2595 -0.6586  1.5567
  335MOL0     C45153   7.953   7.684  10.599 -0.7165 -0.0385  0.7588
  335MOL0     C45154   7.958   7.692  10.747 -0.1563  0.1401 -0.5302
  335MOL0     C45155   7.984   7.708  10.861 -0.6856 -0.4246 -0.2865
  335MOL0     C45156   7.337   7.326  10.579  0.5191 -0.9092 -0.1942
  335MOL0     C45157   7.211   7.286  10.523  0.3645  0.3594 -0.6192
  335MOL0     H45158   6.842   6.976  10.442 -0.7564 -1.3514 -0.4681
  335MOL0     H45159   6.617   6.907  10.443  2.5903 -0.7472  1.0799
  335MOL0     H45160   6.375   7.204  10.597  0.3414 -0.6074  0.0289
  335MOL0     H45161   6.282   7.234  10.453  2.1105 -2.0105 -2.9935
  335MOL0     H45162   6.106   7.159  10.598 -0.9710 -0.3271 -3.3697
  335MOL0     H45163   6.150   7.044  10.492 -0.4048  0.5070  0.8901
  335MOL0     H45164   6.265   6.899  10.663 -1.3678 -1.8000  2.2518
  335MOL0     H45165   6.281   7.030  10.776  0.2587 -0.2196  0.4387
  335MOL0     H45166   6.061   7.028  10.852  3.2919 -0.1644  0.2224
  335MOL0     H45167   6.013   6.930  10.700 -0.0717 -1.2700 -0.3437
  335MOL0     H45168   6.165   6.760  10.798  1.4078 -3.8547  5.2787
  335MOL0     H45169   6.164   6.854  10.943 -1.1727 -2.4341  1.6769
  335MOL0     H45170   5.910   6.741  10.808  1.4715  2.3334 -2.9581
  335MOL0     H45171   5.985   6.677  10.960  3.1003  3.2000  1.9389
  335MOL0     H45172   5.957   6.905  11.063  1.6203  2.8087 -0.7269
  335MOL0     H45173   5.856   6.946  10.928 -1.3553 -0.1369  2.7730
  335MOL0     H45174   5.735   6.713  10.985 -1.2522  0.2567  0.1163
  335MOL0     H45175   5.688   6.865  11.053  0.0299  0.3633 -2.0638
  335MOL0     H45176   5.856   6.548  11.147 -1.5981  0.8503 -0.8666
  335MOL0     H45177   5.933   6.430  11.378  2.5305 -0.0499  2.3302
  335MOL0     H45178   5.914   6.530  11.516 -0.0579  0.1051 -0.9351
  335MOL0     H45179   5.774   6.314  11.507 -1.0761 -0.7615  1.1181
  335MOL0     H45180   5.683   6.389  11.378 -2.0800  0.6876  1.0632
  335MOL0     H45181   5.622   6.582  11.533  2.3773  1.1253  0.4607
  335MOL0     H45182   5.696   6.503  11.671 -1.7488  1.2940  0.5743
  335MOL0     H45183   5.489   6.429  11.698  1.0198 -0.2189  0.8870
  335MOL0     H45184   5.560   6.285  11.612  1.8459 -0.4314 -0.1667
  335MOL0     H45185   5.245   6.379  11.338 -0.6787 -0.8217 -0.4221
  335MOL0     H45186   4.930   6.185  11.297  0.2703 -0.7087 -1.2683
  335MOL0     H45187   5.008   6.342  11.273 -1.1172 -0.7119 -3.9747
  335MOL0     H45188   5.078   6.205  11.200 -2.5178  0.7120 -1.7522
  335MOL0     H45189   5.004   5.762  11.761 -0.2245 -4.3250  2.8060
  335MOL0     H45190   4.835   5.581  11.817  1.3956  1.1275  2.5781
  335MOL0     H45191   4.645   5.427  11.627 -1.1358 -0.5495 -1.5069
  335MOL0     H45192   4.685   5.436  11.797  1.6533  2.1610 -1.4968
  335MOL0     H45193   4.418   5.389  11.802 -0.6110  0.1175 -0.9407
  335MOL0     H45194   4.435   5.348  11.632 -3.5406 -0.3804  2.3217
  335MOL0     H45195   4.519   5.198  11.874  4.2355  2.3220  0.2048
  335MOL0     H45196   4.626   5.171  11.741 -0.5217  0.7345 -0.6410
  335MOL0     H45197   4.423   5.118  11.597 -3.4332  2.7027 -0.0942
  335MOL0     H45198   4.471   5.005  11.737 -0.6028  0.9022  2.3933
  335MOL0     H45199   4.286   5.209  11.829 -1.9344 -0.4451 -0.8912
  335MOL0     H45200   4.281   5.044  11.859 -2.0473 -0.0933  0.7192
  335MOL0     H45201   4.187   5.018  11.617  2.5497  1.8196 -1.4481
  335MOL0     H45202   4.076   5.096  11.736 -0.6888  1.0465 -0.3306
  335MOL0     H45203   4.216   5.235  11.502  3.0566  0.3350  2.2319
  335MOL0     H45204   4.176   5.319  11.650  2.0153  1.0311 -2.3159
  335MOL0     H45205   3.941   5.258  11.621  0.8311 -2.7837  1.2292
  335MOL0     H45206   3.996   5.137  11.506  2.0723 -0.8050  2.7720
  335MOL0     H45207   4.529   5.826  11.647  0.9101  0.7173 -1.3495
  335MOL0     H45208   4.690   6.011  11.599  0.1803  1.0636  1.6308
  335MOL0     H45209   5.200   6.068  11.709 -3.3983 -0.0344 -0.6185
  335MOL0     H45210   5.380   6.228  11.705 -1.2358  1.9456  0.8070
  335MOL0     H45211   6.481   7.309  10.388  0.3355  0.2424  0.0673
  335MOL0     H45212   6.708   7.388  10.403  2.1494  0.5362  2.2249
  335MOL0     H45213   7.095   7.594  10.437 -0.2022  0.9690  0.8897
  335MOL0     H45214   7.304   7.656  10.516 -1.2472  0.5869  0.4684
  335MOL0     H45215   7.554   7.606  10.446  1.5794 -3.6652 -0.8982
  335MOL0     H45216   7.504   7.679  10.599 -1.5839 -0.8736 -0.4573
  335MOL0     H45217   7.766   7.507  10.582 -1.6719  0.0338  0.0563
  335MOL0     H45218   7.703   7.592  10.719  0.7017 -0.7937 -0.5793
  335MOL0     H45219   7.775   7.794  10.622  2.2917 -0.3760  2.1105
  335MOL0     H45220   7.793   7.716  10.455 -1.7440 -3.0008  1.3716
  335MOL0     H45221   8.018   7.762  10.559  0.0423 -1.6236 -1.2823
  335MOL0     H45222   7.988   7.585  10.569 -2.9980 -0.9857  0.9556
  335MOL0     H45223   7.996   7.724  10.966 -0.0959  1.6325 -0.6172
  335MOL0     H45224   7.401   7.241  10.601  1.2588 -1.0260 -2.5023
  335MOL0     H45225   7.179   7.184  10.540  3.7757 -0.3437  3.0201
  336MOL0     O45226   5.235  10.603   0.931 -0.2095  0.4964 -0.2473
  336MOL0     C45227   5.301  10.549   1.015 -0.3398 -0.2460  0.7122
  336MOL0     O45228   5.263  10.447   1.101 -0.0799 -0.2943 -0.1673
  336MOL0     C45229   5.135  10.437   1.127  0.6100  0.4816  0.0926
  336MOL0     C45230   5.056  10.331   1.081 -0.3334 -0.0406 -0.0110
  336MOL0     C45231   4.923  10.313   1.123  0.1810  0.4294  0.3321
  336MOL0     C45232   4.860  10.399   1.208 -0.7764  0.0447 -0.8102
  336MOL0     O45233   4.725  10.406   1.245 -0.0554 -0.4800 -0.1859
  336MOL0     C45234   4.627  10.332   1.166 -0.4109 -0.2431 -0.0600
  336MOL0     C45235   4.564  10.212   1.248 -0.1312 -0.5180  0.2566
  336MOL0     C45236   4.489  10.129   1.134 -0.3386 -0.6918  0.0263
  336MOL0     C45237   4.367  10.187   1.067  0.2287 -0.2370 -0.3634
  336MOL0     C45238   4.306  10.129   0.940 -0.2150  1.0664 -0.3429
  336MOL0     C45239   4.233   9.993   0.965  0.0755  0.0969  0.4039
  336MOL0     C45240   4.163   9.926   0.848 -0.4110 -0.1130 -0.0479
  336MOL0     C45241   4.035  10.005   0.795  0.2179  0.4082 -0.3012
  336MOL0     N45242   3.952   9.913   0.707  0.4484  0.0206  0.4550
  336MOL0     C45243   3.832   9.957   0.657  0.1539 -0.4601 -0.9610
  336MOL0     C45244   3.790   9.853   0.587  0.9150  0.2976 -0.5244
  336MOL0     C45245   3.660   9.841   0.511  0.2573  0.0894 -0.3020
  336MOL0     C45246   3.525   9.881   0.593 -0.5004 -0.6066  0.3510
  336MOL0     C45247   3.512   9.779   0.704  0.0770 -0.7482  0.7967
  336MOL0     C45248   3.380   9.781   0.788  0.6088  0.0170  0.9581
  336MOL0     O45249   3.281   9.709   0.702 -0.0087 -0.3455 -0.2157
  336MOL0     C45250   3.150   9.697   0.720 -0.5662  0.3221  0.5584
  336MOL0     C45251   3.083   9.746   0.830 -0.3624 -0.3261  0.8455
  336MOL0     C45252   2.943   9.729   0.843 -0.9878  0.0028  0.4228
  336MOL0     C45253   2.872   9.793   0.958 -0.5999 -1.2593  0.0236
  336MOL0     C45254   2.882   9.634   0.759  0.3290  0.0552 -1.1507
  336MOL0     C45255   2.744   9.586   0.786  0.1170  0.9545 -0.3974
  336MOL0     O45256   2.709   9.492   0.696 -0.1258  0.4269 -0.2290
  336MOL0     C45257   2.587   9.427   0.712 -0.3795 -0.3786 -0.5756
  336MOL0     C45258   2.580   9.294   0.752  1.1405  0.9913 -0.0036
  336MOL0     C45259   2.464   9.223   0.748  0.9798  0.5525 -0.0857
  336MOL0     C45260   2.345   9.279   0.692  0.4559  0.4450  0.7193
  336MOL0     O45261   2.224   9.211   0.688 -0.6708 -0.0358 -0.0955
  336MOL0     C45262   2.225   9.071   0.648  0.5206 -0.3415 -0.1514
  336MOL0     C45263   2.079   9.014   0.666 -0.8679  0.3888 -0.2143
  336MOL0     C45264   2.070   8.868   0.616  0.6733 -0.0002 -0.3117
  336MOL0     C45265   1.926   8.829   0.624 -0.1106  0.6073  0.0099
  336MOL0     C45266   1.898   8.680   0.607  0.8882  0.2487 -0.0571
  336MOL0     C45267   1.743   8.654   0.624 -0.1756 -1.2484 -0.3098
  336MOL0     C45268   1.701   8.501   0.602 -1.4715 -0.9415 -0.8173
  336MOL0     C45269   1.567   8.478   0.670 -0.7296 -0.2188  0.2946
  336MOL0    Cl45270   1.431   8.485   0.555  0.4133  0.0262 -0.3300
  336MOL0     C45271   2.350   9.410   0.645 -0.3947 -0.2000  0.4066
  336MOL0     C45272   2.472   9.481   0.648 -0.0994  0.3156  0.4088
  336MOL0     O45273   2.668   9.622   0.872  0.2809  0.3716 -0.7622
  336MOL0     C45274   2.956   9.585   0.648 -1.1815  0.7330  0.4500
  336MOL0     C45275   3.092   9.618   0.628  0.3765 -0.3589 -0.1933
  336MOL0     N45276   3.871   9.741   0.605 -0.1391 -0.2187  0.2485
  336MOL0     N45277   3.968   9.780   0.683  0.6025  0.7643  0.5380
  336MOL0     C45278   4.934  10.516   1.254 -0.2983  0.6207 -0.1945
  336MOL0     C45279   5.069  10.529   1.218 -0.2002  0.0987  0.1284
  336MOL0     C45280   5.454  10.561   1.012 -0.2138 -0.2204  0.2176
  336MOL0     C45281   5.517  10.662   0.929  1.2530 -0.9715  0.0483
  336MOL0     C45282   5.650  10.659   0.915 -0.3795 -0.5490  1.3313
  336MOL0     C45283   5.734  10.586   0.994  0.7884 -1.3147 -0.5557
  336MOL0     O45284   5.868  10.600   0.968  0.0984  0.6954  0.0851
  336MOL0     C45285   5.967  10.546   1.058 -0.0863 -1.3322 -0.8848
  336MOL0     C45286   6.110  10.590   1.027  0.3096 -0.0848 -0.4756
  336MOL0     C45287   6.197  10.575   1.154  0.3008 -0.6052  0.2963
  336MOL0     C45288   6.351  10.579   1.137  0.6063 -0.7463  0.3725
  336MOL0     C45289   6.389  10.480   1.035  0.3903  0.0857 -0.3868
  336MOL0     C45290   6.391  10.397   0.942  0.0101  1.3300 -0.9448
  336MOL0     C45291   5.681  10.493   1.077  0.0435  0.8091  0.5226
  336MOL0     C45292   5.540  10.476   1.090  0.5154 -0.6729  0.5851
  336MOL0     H45293   5.094  10.253   1.016  1.0058 -0.1709  0.8789
  336MOL0     H45294   4.873  10.225   1.084  0.1520 -0.1714  1.6628
  336MOL0     H45295   4.554  10.411   1.147  1.8764  1.2254 -3.9951
  336MOL0     H45296   4.662  10.300   1.067  0.1749  0.3690 -0.0597
  336MOL0     H45297   4.641  10.143   1.282  0.5511 -1.0615 -2.1980
  336MOL0     H45298   4.492  10.249   1.322 -0.1918 -0.9347  0.4065
  336MOL0     H45299   4.561  10.111   1.053 -0.4031  1.7367 -0.6395
  336MOL0     H45300   4.456  10.035   1.180 -2.6563  0.5323  1.0587
  336MOL0     H45301   4.290  10.199   1.144 -0.7648  2.1051 -1.6172
  336MOL0     H45302   4.398  10.289   1.042 -0.6639 -0.1142 -1.0358
  336MOL0     H45303   4.230  10.200   0.905 -0.2793  0.6058 -1.1671
  336MOL0     H45304   4.390  10.121   0.870 -0.2904  2.0486 -0.5586
  336MOL0     H45305   4.295   9.908   0.996 -0.4416 -1.5921 -2.7581
  336MOL0     H45306   4.153  10.010   1.037  1.1585 -1.3224  2.0399
  336MOL0     H45307   4.231   9.908   0.764 -0.6442 -1.2506 -0.0066
  336MOL0     H45308   4.130   9.827   0.880 -2.0749 -0.0067 -1.2772
  336MOL0     H45309   4.074  10.085   0.732 -0.6359 -0.9952 -2.7422
  336MOL0     H45310   3.972  10.048   0.874  2.5813  0.9941  1.3668
  336MOL0     H45311   3.800  10.059   0.673  1.4563  0.0325 -1.3974
  336MOL0     H45312   3.671   9.896   0.417 -2.5713  0.7605 -0.3412
  336MOL0     H45313   3.650   9.735   0.486 -1.4250 -0.1886  1.3157
  336MOL0     H45314   3.441   9.871   0.523  0.2199  0.4931 -0.7054
  336MOL0     H45315   3.524   9.986   0.624  0.1124 -0.9208  1.5086
  336MOL0     H45316   3.588   9.792   0.783  1.0063 -1.9878  0.1458
  336MOL0     H45317   3.519   9.676   0.670 -0.4468 -0.1791 -1.1334
  336MOL0     H45318   3.347   9.881   0.817 -0.5757  0.3844 -1.4154
  336MOL0     H45319   3.405   9.730   0.882  2.4926  0.7456  0.8914
  336MOL0     H45320   3.126   9.802   0.913 -0.9494 -1.7955  2.1912
  336MOL0     H45321   2.782   9.848   0.928 -1.1719 -1.4397  1.3471
  336MOL0     H45322   2.834   9.716   1.026  0.0857 -1.4247  0.2254
  336MOL0     H45323   2.945   9.859   1.006  0.5521 -1.0903 -1.8752
  336MOL0     H45324   2.668   9.248   0.795  0.2530  0.1434  0.9629
  336MOL0     H45325   2.466   9.119   0.776 -3.4473  1.0497  3.0581
  336MOL0     H45326   2.249   9.085   0.542  2.2078  3.7501  0.6191
  336MOL0     H45327   2.296   9.002   0.694 -1.0371 -1.0546  1.3050
  336MOL0     H45328   2.063   9.017   0.774  4.6143 -0.8825  0.9485
  336MOL0     H45329   2.004   9.073   0.612 -1.8287 -2.2927 -1.9853
  336MOL0     H45330   2.132   8.804   0.679 -1.2270 -1.9257 -0.2684
  336MOL0     H45331   2.103   8.862   0.512 -0.2445  1.0651 -0.6890
  336MOL0     H45332   1.894   8.862   0.723 -0.0871  3.2917 -0.8051
  336MOL0     H45333   1.869   8.883   0.548  1.2577  1.7004 -0.2810
  336MOL0     H45334   1.957   8.617   0.675  2.1412 -0.7597 -1.9845
  336MOL0     H45335   1.930   8.660   0.504  1.8940  1.0940  0.0759
  336MOL0     H45336   1.725   8.698   0.722  0.1725  1.0069 -1.1948
  336MOL0     H45337   1.693   8.712   0.546  1.7461 -0.6736 -1.2038
  336MOL0     H45338   1.780   8.437   0.643 -0.6400 -0.0364 -0.9431
  336MOL0     H45339   1.680   8.471   0.499  2.2971 -2.3146 -1.3647
  336MOL0     H45340   1.556   8.545   0.756  3.1542  1.8115 -0.5767
  336MOL0     H45341   1.577   8.376   0.708  2.6923 -1.4278 -3.2528
  336MOL0     H45342   2.270   9.459   0.591 -0.2666 -1.0601 -0.6042
  336MOL0     H45343   2.483   9.580   0.607  1.0329  1.7965  3.8921
  336MOL0     H45344   2.912   9.517   0.575 -0.4377 -3.6408  3.6783
  336MOL0     H45345   3.150   9.581   0.543  0.6964  0.1816 -0.2107
  336MOL0     H45346   4.886  10.586   1.321 -0.3066 -1.2725  1.8553
  336MOL0     H45347   5.128  10.610   1.259  0.1070 -0.0382 -0.0413
  336MOL0     H45348   5.454  10.734   0.877  0.4658  0.4924  2.8663
  336MOL0     H45349   5.695  10.738   0.855  0.0895 -0.8672  1.2567
  336MOL0     H45350   5.946  10.587   1.157 -1.2370 -2.9110 -0.4443
  336MOL0     H45351   5.965  10.437   1.066 -0.9264 -1.4603 -2.5045
  336MOL0     H45352   6.112  10.692   0.988  5.1823 -1.2132 -4.0399
  336MOL0     H45353   6.149  10.533   0.942  0.5311 -0.4674 -0.1225
  336MOL0     H45354   6.177  10.475   1.195  1.3544 -1.2293 -0.6306
  336MOL0     H45355   6.166  10.632   1.242 -0.8918 -3.8425  2.1719
  336MOL0     H45356   6.387  10.544   1.234  1.0870 -3.1026 -0.5764
  336MOL0     H45357   6.385  10.674   1.097 -1.0525 -0.3967 -0.2746
  336MOL0     H45358   6.393  10.315   0.874  1.2441 -1.7609  2.4624
  336MOL0     H45359   5.751  10.428   1.128  0.1866 -1.1199 -1.9252
  336MOL0     H45360   5.506  10.411   1.170 -1.1157 -0.1376  0.3573
  337MOL0     O45361   6.111  10.931  11.243 -0.3626 -0.5467 -0.5181
  337MOL0     C45362   5.998  10.914  11.200 -0.9981  1.1035 -0.2945
  337MOL0     O45363   5.949  10.945  11.078  0.0180 -0.0207  0.6534
  337MOL0     C45364   6.044  10.979  10.985  1.1549 -0.2398  0.3214
  337MOL0     C45365   6.040  11.110  10.940  0.5985  0.1476  0.0568
  337MOL0     C45366   6.125  11.148  10.835  0.0545 -0.2548  0.2956
  337MOL0     C45367   6.211  11.051  10.776  0.3090 -0.7360 -0.3757
  337MOL0     O45368   6.284  11.100  10.671 -0.2492  0.0080 -0.2859
  337MOL0     C45369   6.426  11.086  10.687 -0.3144  0.5874  1.4559
  337MOL0     C45370   6.504  11.127  10.557 -0.6416  0.2619 -0.4669
  337MOL0     C45371   6.499  11.018  10.456  0.3792 -0.1468 -0.0297
  337MOL0     C45372   6.605  11.020  10.343 -0.2489  0.9475  0.0938
  337MOL0     C45373   6.640  10.890  10.267  0.5500  0.6956 -0.0668
  337MOL0     C45374   6.747  10.819  10.346 -0.2704 -0.5437  0.1331
  337MOL0     C45375   6.776  10.676  10.303 -0.6098 -0.3077 -1.0682
  337MOL0     C45376   6.865  10.658  10.182  0.5569 -0.2849 -0.4291
  337MOL0     N45377   6.838  10.535  10.117  0.0600 -0.4121  0.3525
  337MOL0     C45378   6.914  10.428  10.125 -0.7219  0.6134  0.1617
  337MOL0     C45379   6.839  10.341  10.055 -0.1071  1.1826  1.5797
  337MOL0     C45380   6.878  10.194  10.033  0.2146 -0.6080  0.3697
  337MOL0     C45381   6.993  10.173   9.922 -0.3471  0.5122 -0.3024
  337MOL0     C45382   7.129  10.230   9.963 -0.6551 -0.5707 -0.6019
  337MOL0     C45383   7.239  10.183   9.870 -0.4748 -0.1557 -0.2856
  337MOL0     O45384   7.362  10.188   9.950 -0.1411 -0.0379 -0.0559
  337MOL0     C45385   7.480  10.208   9.889  0.1192 -0.4280 -0.0916
  337MOL0     C45386   7.507  10.199   9.752  0.1844  0.8999 -0.0023
  337MOL0     C45387   7.640  10.216   9.702  0.2948  0.1467  0.1146
  337MOL0     C45388   7.669  10.162   9.568 -0.7543  0.3783  0.5448
  337MOL0     C45389   7.741  10.264   9.785  0.4032 -0.2548  0.2048
  337MOL0     C45390   7.880  10.309   9.734  0.4166  0.1512 -0.4690
  337MOL0     O45391   7.967  10.351   9.839  0.6092  0.1533 -0.1100
  337MOL0     C45392   8.096  10.392   9.794 -0.4315 -0.3347 -0.4546
  337MOL0     C45393   8.191  10.306   9.739  0.5328 -0.0863 -0.2711
  337MOL0     C45394   8.311  10.351   9.688 -0.8115  0.9472  0.0519
  337MOL0     C45395   8.345  10.484   9.695  0.8415  0.2459 -0.0387
  337MOL0     O45396   8.466  10.526   9.645  0.2062 -0.0227  0.5182
  337MOL0     C45397   8.522  10.640   9.705 -0.6336  0.3788 -0.5742
  337MOL0     C45398   8.681  10.643   9.711  1.1063 -0.0742 -0.9073
  337MOL0     C45399   8.726  10.777   9.779 -0.8796 -0.5456  0.7050
  337MOL0     C45400   8.870  10.809   9.736 -0.2851 -0.4401  1.2194
  337MOL0     C45401   8.924  10.944   9.807  0.4485 -0.2536  0.1326
  337MOL0     C45402   8.985  10.901   9.949 -0.0469  0.2100  0.2348
  337MOL0     C45403   9.011  11.020  10.039 -0.9901  0.0839  0.5169
  337MOL0     C45404   9.056  10.974  10.180 -0.4836  0.5090 -0.9054
  337MOL0    Cl45405   8.942  10.862  10.274 -0.2252 -0.0352 -0.6346
  337MOL0     C45406   8.253  10.575   9.757  0.0332  0.4345  1.0096
  337MOL0     C45407   8.123  10.528   9.793  0.2124  0.3811 -0.1086
  337MOL0     O45408   7.903  10.308   9.615  0.0954  0.2592  0.0028
  337MOL0     C45409   7.704  10.293   9.914 -0.5620  1.0866 -0.2987
  337MOL0     C45410   7.583  10.258   9.964 -0.2718 -0.4414  0.1005
  337MOL0     N45411   6.734  10.402   9.992  0.4393 -0.1646  0.3763
  337MOL0     N45412   6.721  10.515  10.046  0.2094  0.5594 -0.5924
  337MOL0     C45413   6.220  10.922  10.831 -1.0643  0.0941 -0.1467
  337MOL0     C45414   6.132  10.885  10.929 -0.2246 -1.0070  0.3981
  337MOL0     C45415   5.897  10.861  11.297 -0.3899 -0.2781 -0.2762
  337MOL0     C45416   5.768  10.830  11.240 -0.1226  0.5329 -0.0855
  337MOL0     C45417   5.659  10.805  11.331 -0.1656  0.1230 -0.0832
  337MOL0     C45418   5.691  10.819  11.467  0.3419  0.5624 -0.0444
  337MOL0     O45419   5.576  10.792  11.539 -0.5288  0.0739 -0.6257
  337MOL0     C45420   5.592  10.684  11.644 -0.2715 -0.1037  0.6287
  337MOL0     C45421   5.577  10.751  11.774 -0.7092 -0.9414  0.3391
  337MOL0     C45422   5.589  10.668  11.906 -0.3579 -0.5436 -0.1340
  337MOL0     C45423   5.484  10.553  11.909  0.3996  1.0257 -0.5223
  337MOL0     C45424   5.346  10.598  11.895  0.8087  0.1649  0.0234
  337MOL0     C45425   5.230  10.632  11.884 -0.1736 -0.4457 -0.6119
  337MOL0     C45426   5.816  10.832  11.516 -0.1627  0.4095 -0.6549
  337MOL0     C45427   5.920  10.854  11.431 -0.0980  0.5867  0.0295
  337MOL0     H45428   5.961  11.174  10.978  2.4051  0.8256  2.9694
  337MOL0     H45429   6.126  11.246  10.788 -1.7709  1.2419  3.0961
  337MOL0     H45430   6.461  11.152  10.767  1.9093  1.0806  0.1461
  337MOL0     H45431   6.458  10.988  10.724  0.9631  1.1836  1.9796
  337MOL0     H45432   6.463  11.222  10.523 -1.8345  0.0177  0.2532
  337MOL0     H45433   6.608  11.142  10.588 -1.4046  0.7078  2.1600
  337MOL0     H45434   6.501  10.920  10.507  1.6085 -0.1753 -0.1041
  337MOL0     H45435   6.401  11.033  10.410  0.5852 -0.0763 -0.4449
  337MOL0     H45436   6.562  11.083  10.265  1.8858 -0.1971 -2.1600
  337MOL0     H45437   6.691  11.081  10.371  0.7446  0.1460 -1.1054
  337MOL0     H45438   6.549  10.830  10.258  1.0182 -0.1694  0.7471
  337MOL0     H45439   6.665  10.913  10.163  3.6042 -1.7130  0.0044
  337MOL0     H45440   6.841  10.876  10.341 -1.8482  2.1541 -2.4264
  337MOL0     H45441   6.710  10.818  10.449  0.8823  1.0999  0.6017
  337MOL0     H45442   6.813  10.624  10.392 -2.5846 -0.0213 -0.0081
  337MOL0     H45443   6.681  10.628  10.278 -2.4629  2.2128  0.5896
  337MOL0     H45444   6.973  10.674  10.198  0.0587  0.8751  2.3181
  337MOL0     H45445   6.830  10.729  10.107 -0.1734 -0.2949 -0.1001
  337MOL0     H45446   7.012  10.406  10.166 -0.9623 -2.1511 -0.5718
  337MOL0     H45447   6.905  10.141  10.125  0.9250  0.3101  0.7035
  337MOL0     H45448   6.790  10.143   9.994 -1.6532  0.7226  2.6086
  337MOL0     H45449   6.964  10.205   9.821 -2.3950 -2.3596 -0.7588
  337MOL0     H45450   7.014  10.067   9.912  0.4713  0.7308 -1.0708
  337MOL0     H45451   7.144  10.184  10.061 -1.8297  0.4165  0.0765
  337MOL0     H45452   7.135  10.338   9.980 -0.9595 -0.4844 -1.0091
  337MOL0     H45453   7.241  10.243   9.779 -1.0056  1.1048  0.4897
  337MOL0     H45454   7.229  10.079   9.840  2.0027 -0.9320  1.2552
  337MOL0     H45455   7.436  10.142   9.693  1.7325 -4.3315  2.5585
  337MOL0     H45456   7.767  10.114   9.565 -0.2791  1.2476  1.6085
  337MOL0     H45457   7.597  10.079   9.566 -0.4242  0.0474  1.5756
  337MOL0     H45458   7.646  10.239   9.494 -0.7226 -0.7943 -0.7271
  337MOL0     H45459   8.169  10.199   9.740 -0.3240  0.0898  0.0697
  337MOL0     H45460   8.385  10.293   9.633 -0.4362  2.2027 -0.8334
  337MOL0     H45461   8.486  10.731   9.657 -0.6780  0.1832 -0.9130
  337MOL0     H45462   8.494  10.650   9.810  1.1833 -0.2741  0.0220
  337MOL0     H45463   8.711  10.554   9.766  0.9465  0.5809  0.2884
  337MOL0     H45464   8.712  10.634   9.606 -2.6457 -0.6883 -2.1253
  337MOL0     H45465   8.723  10.773   9.889  1.3872  1.3189  0.9061
  337MOL0     H45466   8.663  10.854   9.734  2.4995  0.8880 -2.0517
  337MOL0     H45467   8.931  10.721   9.756  1.0122  0.1379 -0.0187
  337MOL0     H45468   8.871  10.829   9.628  2.9763  1.3637  1.4597
  337MOL0     H45469   8.847  11.022   9.804  1.0629  0.6120  3.2810
  337MOL0     H45470   9.010  10.984   9.753 -1.9862  2.3570 -2.1276
  337MOL0     H45471   8.903  10.839   9.986 -0.4382  1.0011  0.7164
  337MOL0     H45472   9.077  10.842   9.942 -0.7635 -0.8198 -1.1523
  337MOL0     H45473   8.924  11.085  10.047 -0.9592  0.3937 -1.3688
  337MOL0     H45474   9.090  11.081   9.993 -0.1402 -0.8355  0.7146
  337MOL0     H45475   9.063  11.060  10.246 -1.9172 -1.4059  1.9554
  337MOL0     H45476   9.156  10.930  10.172 -1.1559 -0.7625 -3.8636
  337MOL0     H45477   8.267  10.682   9.748  0.4101  0.2315 -2.6711
  337MOL0     H45478   8.044  10.597   9.818  0.4790  2.3469 -3.9409
  337MOL0     H45479   7.772  10.337   9.988 -0.8326 -2.7253  2.5524
  337MOL0     H45480   7.568  10.287  10.068 -3.9341 -3.5916  0.6779
  337MOL0     H45481   6.288  10.849  10.789 -1.8305 -0.3936 -0.5726
  337MOL0     H45482   6.128  10.788  10.978  0.1854 -1.6670 -0.8211
  337MOL0     H45483   5.741  10.818  11.136  0.7917  0.8669 -0.3673
  337MOL0     H45484   5.558  10.784  11.297 -0.2765  2.0571 -1.0560
  337MOL0     H45485   5.516  10.606  11.634  1.4129 -1.6028 -1.1879
  337MOL0     H45486   5.682  10.626  11.625 -1.3099 -1.4825 -0.3024
  337MOL0     H45487   5.481  10.802  11.758 -0.2048 -0.8942 -3.3404
  337MOL0     H45488   5.640  10.839  11.768 -1.5914 -0.3562 -0.8183
  337MOL0     H45489   5.598  10.737  11.990  0.9419 -0.5166 -0.2781
  337MOL0     H45490   5.682  10.612  11.896  0.4890  0.8047  0.0587
  337MOL0     H45491   5.487  10.500  12.004 -1.2810  0.0283 -0.9804
  337MOL0     H45492   5.510  10.477  11.835 -1.4207 -0.0535 -0.1024
  337MOL0     H45493   5.128  10.661  11.867 -0.5082 -1.8393 -1.1438
  337MOL0     H45494   5.823  10.812  11.622  0.6350 -1.9225 -1.0990
  337MOL0     H45495   6.022  10.858  11.470  0.2749  1.9706 -1.0164
  338MOL0     O45496   8.371   4.015   9.741  0.3087 -0.4459 -0.4633
  338MOL0     C45497   8.438   3.919   9.721 -0.2137  0.6983 -0.3096
  338MOL0     O45498   8.394   3.784   9.729  0.3819 -0.2058  0.0252
  338MOL0     C45499   8.256   3.771   9.762  0.1664  0.0549 -0.7360
  338MOL0     C45500   8.153   3.762   9.661  0.1941 -0.5366  0.4306
  338MOL0     C45501   8.023   3.758   9.692 -0.1992  0.6914 -0.0653
  338MOL0     C45502   7.979   3.778   9.823  0.7186  0.3337 -0.3154
  338MOL0     O45503   7.845   3.765   9.839 -0.0706 -0.8952  0.1581
  338MOL0     C45504   7.803   3.709   9.961  1.0761 -0.0419 -0.1171
  338MOL0     C45505   7.657   3.753   9.983  0.5942  0.9279 -0.2109
  338MOL0     C45506   7.558   3.681   9.878 -0.3610 -0.4643  0.1035
  338MOL0     C45507   7.419   3.733   9.903  0.3979 -0.0514  0.5907
  338MOL0     C45508   7.319   3.625   9.856  0.6060 -0.2468 -1.0026
  338MOL0     C45509   7.173   3.667   9.897  0.3904  0.0860  0.2756
  338MOL0     C45510   7.069   3.560   9.866 -0.2266 -0.0228  0.2400
  338MOL0     C45511   7.069   3.532   9.714 -0.3334  0.1605 -0.6157
  338MOL0     N45512   6.961   3.435   9.677  0.5103  0.4110 -0.0941
  338MOL0     C45513   6.985   3.310   9.632 -0.8527 -0.2560  0.2394
  338MOL0     C45514   6.869   3.241   9.620 -0.1659  0.2323 -0.4842
  338MOL0     C45515   6.864   3.100   9.574 -0.7047  0.3063 -0.4066
  338MOL0     C45516   6.714   3.056   9.559  0.2521  0.2348 -0.6862
  338MOL0     C45517   6.710   2.937   9.475 -0.4431 -0.4454  0.1150
  338MOL0     C45518   6.569   2.877   9.452  0.7456  0.5176  0.9163
  338MOL0     O45519   6.485   2.877   9.564  0.2067 -0.0988 -0.4069
  338MOL0     C45520   6.349   2.861   9.548 -0.3427  0.2119 -0.8251
  338MOL0     C45521   6.281   2.871   9.428 -0.0102 -0.5802  0.2343
  338MOL0     C45522   6.143   2.837   9.421 -0.3746 -0.1167 -0.2582
  338MOL0     C45523   6.098   2.828   9.273 -0.4793  0.4105  0.4189
  338MOL0     C45524   6.071   2.831   9.540 -0.1000 -0.2205  0.1027
  338MOL0     C45525   5.931   2.805   9.544  0.1056 -0.2952  0.0933
  338MOL0     O45526   5.865   2.789   9.426 -0.0538  1.0957 -0.8854
  338MOL0     C45527   5.727   2.771   9.416 -0.1556  1.0375 -0.2822
  338MOL0     C45528   5.657   2.692   9.508  0.1574  0.9217  0.0841
  338MOL0     C45529   5.520   2.680   9.494  0.7582  0.2490  0.4793
  338MOL0     C45530   5.447   2.736   9.385  0.2437  0.3700  0.3449
  338MOL0     O45531   5.313   2.716   9.388 -0.1352  0.4520 -0.0364
  338MOL0     C45532   5.229   2.778   9.286  0.0997 -0.9179 -0.0875
  338MOL0     C45533   5.085   2.743   9.298  0.2813  0.4771 -0.1745
  338MOL0     C45534   4.996   2.807   9.184  0.6102  0.2841 -1.9580
  338MOL0     C45535   4.844   2.810   9.221  0.4692 -0.9202 -0.0050
  338MOL0     C45536   4.761   2.920   9.150 -0.3366  0.3278  0.1886
  338MOL0     C45537   4.792   3.056   9.202 -0.0772 -0.5656 -0.0525
  338MOL0     C45538   4.755   3.166   9.100  0.6219  0.1797 -0.4511
  338MOL0     C45539   4.602   3.169   9.077  0.3006  0.2169  0.2404
  338MOL0    Cl45540   4.558   3.248   8.934  0.2411 -0.2252 -0.2809
  338MOL0     C45541   5.525   2.814   9.293 -0.3178  0.3381  0.2187
  338MOL0     C45542   5.665   2.821   9.309  0.6734 -1.2115  0.5548
  338MOL0     O45543   5.878   2.818   9.654  0.2300 -0.0789  0.3324
  338MOL0     C45544   6.139   2.838   9.664 -0.1374 -0.0121 -1.1279
  338MOL0     C45545   6.277   2.839   9.661  1.0040  0.9108 -0.5253
  338MOL0     N45546   6.770   3.335   9.643 -0.1595 -0.0267 -0.3856
  338MOL0     N45547   6.822   3.451   9.671 -0.5892 -0.0942 -0.1935
  338MOL0     C45548   8.076   3.792   9.923 -0.6913 -0.0160  0.3673
  338MOL0     C45549   8.209   3.775   9.893 -0.9075  0.2106  0.3962
  338MOL0     C45550   8.586   3.936   9.706 -0.0199 -0.5754 -0.0247
  338MOL0     C45551   8.644   4.064   9.722 -0.2053 -0.1397  0.0532
  338MOL0     C45552   8.779   4.081   9.715 -0.5368 -0.0560  0.3997
  338MOL0     C45553   8.867   3.973   9.683 -0.4837  0.0888  0.1473
  338MOL0     O45554   9.006   3.979   9.693  0.1730  0.4186 -0.6689
  338MOL0     C45555   9.059   4.102   9.721  0.4825  0.5927  0.6541
  338MOL0     C45556   9.212   4.076   9.701 -0.4725  0.4134 -0.2003
  338MOL0     C45557   9.240   4.031   9.567  0.3036 -0.1332 -0.1889
  338MOL0     C45558   9.395   3.989   9.554 -0.6661 -0.3912  1.0299
  338MOL0     C45559   9.493   4.095   9.596 -0.5641 -0.0766  0.2489
  338MOL0     C45560   9.581   4.161   9.641 -0.0318 -0.1833 -0.3569
  338MOL0     C45561   8.809   3.848   9.675 -0.8066 -0.1244  0.5369
  338MOL0     C45562   8.671   3.825   9.682  0.1022  0.7121 -0.3130
  338MOL0     H45563   8.192   3.752   9.560 -1.0765  0.1873 -0.1562
  338MOL0     H45564   7.950   3.753   9.612  2.8036 -0.5884 -2.9261
  338MOL0     H45565   7.806   3.600   9.951 -0.3243  0.1252 -4.1773
  338MOL0     H45566   7.853   3.738  10.054  0.9327  1.2305 -0.4175
  338MOL0     H45567   7.628   3.723  10.084  1.2103  0.5707 -0.1366
  338MOL0     H45568   7.649   3.862   9.981 -2.5394  0.8195  0.9104
  338MOL0     H45569   7.587   3.686   9.772  1.9996  1.3222  0.7665
  338MOL0     H45570   7.565   3.575   9.904  0.3567 -0.3421  0.4303
  338MOL0     H45571   7.419   3.757  10.010 -1.6863  0.2920  0.5391
  338MOL0     H45572   7.407   3.825   9.845 -1.2747  0.3466  1.5063
  338MOL0     H45573   7.316   3.597   9.750  0.8449  2.1076 -1.6783
  338MOL0     H45574   7.343   3.539   9.920 -2.8232 -0.9728 -0.4982
  338MOL0     H45575   7.175   3.695  10.002  0.6617  1.2381 -0.0260
  338MOL0     H45576   7.143   3.759   9.845 -0.8344 -0.8155 -0.6740
  338MOL0     H45577   7.097   3.462   9.906  0.6596  0.0371 -0.2094
  338MOL0     H45578   6.977   3.598   9.910 -2.4633  0.9472 -4.6143
  338MOL0     H45579   7.162   3.483   9.686 -0.6089 -0.7900  0.0603
  338MOL0     H45580   7.052   3.620   9.652  0.0673 -0.3641 -1.4802
  338MOL0     H45581   7.084   3.275   9.604 -1.7363 -1.7161 -1.1914
  338MOL0     H45582   6.923   3.092   9.482 -1.1932  1.5426 -0.8489
  338MOL0     H45583   6.913   3.030   9.642  1.1194  1.4668 -0.4531
  338MOL0     H45584   6.653   3.136   9.516 -1.4263 -1.6095 -1.8936
  338MOL0     H45585   6.669   3.036   9.657 -2.3828  2.6573 -1.2757
  338MOL0     H45586   6.771   2.868   9.536  2.3745  2.8604  1.3748
  338MOL0     H45587   6.770   2.946   9.385 -1.0057  0.2524 -0.1957
  338MOL0     H45588   6.581   2.777   9.410  0.8781  0.9991 -0.2380
  338MOL0     H45589   6.519   2.935   9.374 -2.9633 -2.5919  0.6987
  338MOL0     H45590   6.339   2.879   9.337  0.7744  0.4798  0.8070
  338MOL0     H45591   6.187   2.828   9.210 -0.7746 -1.0991 -0.0589
  338MOL0     H45592   6.046   2.733   9.255  0.1401  0.5353 -2.4444
  338MOL0     H45593   6.028   2.902   9.233 -3.4950 -1.5801  1.5965
  338MOL0     H45594   5.723   2.652   9.585  0.4825  1.1177 -0.0910
  338MOL0     H45595   5.480   2.618   9.574  0.7741  0.5151  0.6914
  338MOL0     H45596   5.237   2.887   9.292  1.7193 -0.9084 -1.6499
  338MOL0     H45597   5.257   2.752   9.184 -0.9757 -3.5795  0.2289
  338MOL0     H45598   5.078   2.634   9.294 -0.2575  0.5319 -0.9129
  338MOL0     H45599   5.049   2.765   9.399 -1.3329  0.4939 -0.7277
  338MOL0     H45600   5.011   2.748   9.092  0.5480  2.1153 -3.1921
  338MOL0     H45601   5.024   2.910   9.161 -1.0008  1.3489  0.5020
  338MOL0     H45602   4.796   2.712   9.215 -0.7529 -0.5429  2.3870
  338MOL0     H45603   4.835   2.839   9.326 -3.6966 -0.4583 -0.3492
  338MOL0     H45604   4.655   2.897   9.152 -0.5187  0.7672 -2.1049
  338MOL0     H45605   4.782   2.915   9.043 -2.1297  1.1840 -0.2242
  338MOL0     H45606   4.739   3.078   9.295 -2.9707 -0.6106 -1.5676
  338MOL0     H45607   4.897   3.076   9.224 -0.5529  0.0225  1.8847
  338MOL0     H45608   4.811   3.155   9.007 -2.5612 -0.4316 -2.4164
  338MOL0     H45609   4.765   3.272   9.124 -1.3603  1.3384 -4.1375
  338MOL0     H45610   4.563   3.228   9.160  3.3620  0.5555  1.5604
  338MOL0     H45611   4.547   3.075   9.089  2.9048 -1.2793  1.3824
  338MOL0     H45612   5.484   2.861   9.204 -0.4988  2.6409  1.4294
  338MOL0     H45613   5.726   2.882   9.242  2.3022 -4.0443 -0.7030
  338MOL0     H45614   6.100   2.826   9.764 -0.2040  2.2029 -0.8361
  338MOL0     H45615   6.334   2.829   9.753  2.2030  0.4858 -1.2854
  338MOL0     H45616   8.059   3.785  10.030  1.4584  0.6883  0.8056
  338MOL0     H45617   8.272   3.775   9.981 -1.9212  2.4397  1.1914
  338MOL0     H45618   8.591   4.159   9.728  3.0517  1.8465 -0.2073
  338MOL0     H45619   8.825   4.177   9.740 -1.2276  0.7476 -1.3057
  338MOL0     H45620   9.035   4.176   9.644 -1.2147 -0.6479 -0.0650
  338MOL0     H45621   9.039   4.142   9.821 -0.0096 -0.7990  1.1347
  338MOL0     H45622   9.237   3.997   9.772 -3.3516 -1.4659 -1.1257
  338MOL0     H45623   9.263   4.169   9.730  2.1448 -0.4577 -1.6688
  338MOL0     H45624   9.222   4.108   9.492 -0.8478  0.7820  0.9906
  338MOL0     H45625   9.173   3.946   9.544 -1.8417  1.4516 -0.1168
  338MOL0     H45626   9.412   3.949   9.454 -1.4315  0.8737  0.3711
  338MOL0     H45627   9.407   3.905   9.623  0.8832 -2.4935 -1.5957
  338MOL0     H45628   9.662   4.223   9.673 -1.3726 -0.2541  3.6362
  338MOL0     H45629   8.872   3.762   9.659 -2.7127 -1.6963  1.0206
  338MOL0     H45630   8.626   3.726   9.675 -0.3490  0.8480  0.5221
  339MOL0     O45631   4.895   9.285   5.589  0.0511  0.2750 -0.4459
  339MOL0     C45632   4.787   9.252   5.639 -0.0046  0.7611 -0.1765
  339MOL0     O45633   4.750   9.251   5.771 -0.3144 -0.3783 -0.5881
  339MOL0     C45634   4.842   9.280   5.859  0.7583  0.3048 -0.1201
  339MOL0     C45635   4.889   9.186   5.943  0.9127 -1.0080 -1.5314
  339MOL0     C45636   4.942   9.215   6.074  0.8037 -1.1760 -0.3206
  339MOL0     C45637   4.958   9.351   6.114  0.4692 -0.4169 -0.2819
  339MOL0     O45638   4.992   9.381   6.243  0.2918  0.2314 -0.3795
  339MOL0     C45639   5.131   9.368   6.264 -0.1872  0.2524  0.0176
  339MOL0     C45640   5.185   9.401   6.400 -0.0457  0.0927  0.5419
  339MOL0     C45641   5.137   9.324   6.524 -0.1530 -0.3505 -0.4412
  339MOL0     C45642   5.205   9.189   6.543  0.2723  0.4502  1.2644
  339MOL0     C45643   5.144   9.105   6.657 -0.7085  0.1033  0.1733
  339MOL0     C45644   5.195   8.963   6.649  0.8043 -0.8532 -0.2835
  339MOL0     C45645   5.161   8.869   6.771 -0.1030  0.0827  0.2062
  339MOL0     C45646   5.242   8.731   6.783  0.4872 -1.0681 -1.0056
  339MOL0     N45647   5.387   8.754   6.810  0.3881  0.5632  0.4308
  339MOL0     C45648   5.447   8.828   6.912  0.5358  0.6943  0.7620
  339MOL0     C45649   5.584   8.821   6.893  0.2073 -0.0966 -0.2761
  339MOL0     C45650   5.694   8.888   6.980 -0.2159  0.0562 -0.5476
  339MOL0     C45651   5.708   9.030   6.948  0.1830  0.1904 -0.3704
  339MOL0     C45652   5.792   9.107   7.050 -0.3242  0.5481 -0.2839
  339MOL0     C45653   5.700   9.180   7.152  0.9305  0.4069  0.0262
  339MOL0     O45654   5.782   9.254   7.245 -0.1838 -0.2209  0.3066
  339MOL0     C45655   5.724   9.324   7.356  0.8652  0.4688 -0.2354
  339MOL0     C45656   5.807   9.402   7.433 -0.1635 -0.2033 -1.1070
  339MOL0     C45657   5.771   9.478   7.542  0.3768 -0.7957  1.3993
  339MOL0     C45658   5.875   9.560   7.617 -0.0679  0.1486  0.0596
  339MOL0     C45659   5.638   9.463   7.590  0.6653  0.7814  0.2192
  339MOL0     C45660   5.573   9.516   7.716  0.3307  1.0352  0.2705
  339MOL0     O45661   5.431   9.487   7.734 -0.0602 -0.5473  0.5793
  339MOL0     C45662   5.348   9.553   7.825 -0.7367 -0.1695  0.0942
  339MOL0     C45663   5.242   9.485   7.882 -0.0622 -0.8074 -1.3208
  339MOL0     C45664   5.163   9.553   7.984 -0.4639 -0.6639  0.4556
  339MOL0     C45665   5.192   9.688   8.016 -0.4638  0.4323  0.0819
  339MOL0     O45666   5.106   9.750   8.103 -0.3341 -0.4313 -0.6304
  339MOL0     C45667   5.123   9.892   8.139 -0.0930 -0.3857  0.4878
  339MOL0     C45668   5.024   9.942   8.241 -0.3407  0.1906 -0.6182
  339MOL0     C45669   4.875   9.890   8.224 -0.2603  0.7394  0.1310
  339MOL0     C45670   4.793   9.947   8.337 -0.0655  0.2939 -0.2517
  339MOL0     C45671   4.634   9.914   8.343 -0.2043  0.1669  0.7211
  339MOL0     C45672   4.562   9.934   8.210 -0.0516  0.4950 -0.5331
  339MOL0     C45673   4.545  10.084   8.186  0.7880  0.8819 -0.1105
  339MOL0     C45674   4.450  10.113   8.069  0.7887 -0.3090 -0.3139
  339MOL0    Cl45675   4.518  10.053   7.905 -0.1139  0.3502  0.8809
  339MOL0     C45676   5.288   9.753   7.952  0.0375 -0.7027  0.7765
  339MOL0     C45677   5.366   9.688   7.861 -0.0672 -0.4564  0.3060
  339MOL0     O45678   5.647   9.572   7.792 -0.0978  0.0754  0.4642
  339MOL0     C45679   5.553   9.384   7.513  0.9862  0.3846 -0.6233
  339MOL0     C45680   5.590   9.321   7.397  0.6058 -0.4896 -0.0929
  339MOL0     N45681   5.605   8.753   6.781 -0.3380  0.7341  0.4749
  339MOL0     N45682   5.492   8.710   6.737  0.2738  0.4877  0.9163
  339MOL0     C45683   4.923   9.449   6.023 -0.0729  0.4443  0.0287
  339MOL0     C45684   4.862   9.417   5.896  0.0621 -0.8479  0.3313
  339MOL0     C45685   4.684   9.215   5.540  0.2943 -0.2148 -0.7250
  339MOL0     C45686   4.551   9.172   5.569 -0.1062  0.5679  0.0436
  339MOL0     C45687   4.452   9.137   5.471 -0.6864 -0.5974 -0.7287
  339MOL0     C45688   4.490   9.149   5.336  0.1438 -0.9636  0.2835
  339MOL0     O45689   4.378   9.130   5.251 -0.3370 -1.0789 -0.2186
  339MOL0     C45690   4.351   9.207   5.135 -0.0764 -0.2171  0.0757
  339MOL0     C45691   4.321   9.360   5.153  0.0097 -0.2388  1.1569
  339MOL0     C45692   4.214   9.375   5.261 -0.5560  0.8315  0.3741
  339MOL0     C45693   4.082   9.295   5.234  0.1573 -0.0062 -1.1542
  339MOL0     C45694   3.979   9.358   5.318  0.3886 -0.7710  0.6648
  339MOL0     C45695   3.889   9.398   5.389 -0.8720  0.3097  0.3129
  339MOL0     C45696   4.618   9.183   5.298  0.0929 -0.3926  0.5153
  339MOL0     C45697   4.711   9.222   5.397 -0.7287  0.0411 -0.1746
  339MOL0     H45698   4.883   9.083   5.909 -2.8533 -1.2202 -0.6838
  339MOL0     H45699   4.952   9.129   6.138 -1.5365  0.2802  2.2390
  339MOL0     H45700   5.159   9.268   6.230 -2.5028  0.3959 -2.5537
  339MOL0     H45701   5.186   9.431   6.193  0.0006 -0.0350 -0.0947
  339MOL0     H45702   5.293   9.383   6.408 -0.2886 -0.8894  1.9170
  339MOL0     H45703   5.173   9.507   6.426  0.3749 -0.1211  1.6852
  339MOL0     H45704   5.175   9.392   6.601  0.3517 -0.9416 -0.1608
  339MOL0     H45705   5.029   9.336   6.518  0.1269  1.9836 -2.0674
  339MOL0     H45706   5.190   9.135   6.449 -1.1623  0.6545  1.3590
  339MOL0     H45707   5.313   9.203   6.555  0.4632  0.2149 -0.0267
  339MOL0     H45708   5.174   9.155   6.750  0.6984 -0.6796  0.1601
  339MOL0     H45709   5.035   9.108   6.649 -0.6006 -0.3068 -2.1938
  339MOL0     H45710   5.156   8.916   6.558  0.8907 -1.6994  0.1084
  339MOL0     H45711   5.304   8.959   6.645  0.7903 -2.1546  0.1048
  339MOL0     H45712   5.163   8.918   6.870 -1.1059 -0.9706  0.7691
  339MOL0     H45713   5.053   8.852   6.764  0.2731 -1.6412 -3.0684
  339MOL0     H45714   5.234   8.680   6.686 -0.6361 -0.7482 -1.1029
  339MOL0     H45715   5.192   8.671   6.859 -1.5308  2.5353  0.7946
  339MOL0     H45716   5.391   8.880   6.988  0.1859  0.4272  0.6908
  339MOL0     H45717   5.663   8.889   7.085  2.5335  1.0935  0.3214
  339MOL0     H45718   5.785   8.829   6.968  1.8946  3.4006 -2.2710
  339MOL0     H45719   5.612   9.080   6.932  1.1057  1.3064 -2.8465
  339MOL0     H45720   5.755   9.039   6.850 -0.0230 -1.4360 -0.6427
  339MOL0     H45721   5.846   9.191   7.005  1.7096  0.0906  1.1485
  339MOL0     H45722   5.879   9.054   7.090 -0.1855 -0.2240 -1.5786
  339MOL0     H45723   5.646   9.101   7.205 -0.5981 -0.4231 -2.6278
  339MOL0     H45724   5.643   9.252   7.094  2.0755 -0.2710 -2.0558
  339MOL0     H45725   5.911   9.407   7.400  0.8605 -2.1868  1.3924
  339MOL0     H45726   5.843   9.659   7.651  0.2095  0.0532  0.6159
  339MOL0     H45727   5.921   9.501   7.698  1.4610  0.9999 -0.1503
  339MOL0     H45728   5.954   9.588   7.547 -0.2283  0.4138 -0.0155
  339MOL0     H45729   5.224   9.381   7.854  0.0189 -0.9054 -1.0235
  339MOL0     H45730   5.076   9.512   8.033 -0.5784  0.5020  1.2660
  339MOL0     H45731   5.224   9.909   8.178 -1.3349  1.6552  3.1103
  339MOL0     H45732   5.106   9.956   8.051 -0.2102  0.8149  1.3551
  339MOL0     H45733   5.054   9.917   8.343 -1.4879 -1.5836 -0.6712
  339MOL0     H45734   5.026  10.052   8.238  0.0345  0.2474  0.9497
  339MOL0     H45735   4.876   9.781   8.235 -1.8749  0.6739 -0.0190
  339MOL0     H45736   4.832   9.912   8.126 -1.2987  1.4145  0.7085
  339MOL0     H45737   4.840   9.919   8.431 -0.4045  1.2212  0.2052
  339MOL0     H45738   4.799  10.056   8.326 -2.2098  0.6175  1.0819
  339MOL0     H45739   4.581   9.970   8.421  0.2549  0.4151  0.8635
  339MOL0     H45740   4.626   9.808   8.367  0.2200 -0.5377 -1.9467
  339MOL0     H45741   4.616   9.889   8.126 -0.2405 -2.2194  0.7048
  339MOL0     H45742   4.469   9.878   8.206  1.3001 -1.8119 -2.9693
  339MOL0     H45743   4.642  10.125   8.154  0.6094  0.3220 -1.4091
  339MOL0     H45744   4.508  10.135   8.276  0.9095 -1.4127  1.3235
  339MOL0     H45745   4.446  10.221   8.056 -0.6556 -0.0452  1.9037
  339MOL0     H45746   4.351  10.067   8.078  0.4430  0.4287 -0.3104
  339MOL0     H45747   5.306   9.859   7.970  3.8448 -0.8221 -1.2217
  339MOL0     H45748   5.455   9.738   7.823 -0.8998  0.3719 -0.6380
  339MOL0     H45749   5.450   9.360   7.539  0.0656  1.5841 -2.8636
  339MOL0     H45750   5.512   9.273   7.340 -0.5695  0.6272  0.5215
  339MOL0     H45751   4.928   9.550   6.062  0.6334  0.1563  0.7090
  339MOL0     H45752   4.811   9.496   5.842 -0.2764 -2.1426 -1.3176
  339MOL0     H45753   4.525   9.164   5.674  0.7022 -1.5443  0.1226
  339MOL0     H45754   4.357   9.098   5.505 -0.2316 -0.5475  0.6440
  339MOL0     H45755   4.444   9.186   5.080  0.1733  1.1523 -0.0746
  339MOL0     H45756   4.275   9.155   5.076  0.7886 -2.1431  0.5741
  339MOL0     H45757   4.283   9.402   5.060 -1.3350  0.3578  1.9499
  339MOL0     H45758   4.413   9.413   5.180  0.3788  1.5558 -2.9017
  339MOL0     H45759   4.190   9.480   5.277  1.2921  1.1012  1.7131
  339MOL0     H45760   4.263   9.359   5.357 -0.6357 -0.7388  0.1949
  339MOL0     H45761   4.108   9.194   5.267 -3.2014 -1.9487 -3.8087
  339MOL0     H45762   4.051   9.288   5.129  2.5277 -0.8864 -1.8689
  339MOL0     H45763   3.807   9.449   5.436 -1.5070 -0.3827 -0.0349
  339MOL0     H45764   4.642   9.191   5.192  0.6221  0.7188  0.7052
  339MOL0     H45765   4.809   9.261   5.371  0.5635 -1.4538  2.1126
  340MOL0     O45766   5.004  11.239   4.758  0.4356  0.1988 -0.0063
  340MOL0     C45767   4.996  11.121   4.718 -0.3437 -0.3830 -0.1316
  340MOL0     O45768   5.096  11.027   4.720  0.4663 -0.0851 -0.1393
  340MOL0     C45769   5.216  11.060   4.762 -1.0000  0.8239 -0.0191
  340MOL0     C45770   5.253  11.029   4.892 -0.8080  0.1344  0.0707
  340MOL0     C45771   5.385  11.052   4.936 -0.0248  0.5219  0.6413
  340MOL0     C45772   5.484  11.119   4.850 -0.3476 -0.5054 -0.1982
  340MOL0     O45773   5.612  11.150   4.898 -0.4607  0.0797 -0.5925
  340MOL0     C45774   5.669  11.269   4.840 -0.0779 -0.4250 -0.1632
  340MOL0     C45775   5.805  11.285   4.919 -0.0485  0.9471 -0.4111
  340MOL0     C45776   5.885  11.415   4.896 -0.2857 -1.2566 -0.5313
  340MOL0     C45777   5.948  11.415   4.758 -0.3322 -0.4431 -0.4280
  340MOL0     C45778   6.047  11.535   4.747  0.5905  0.2007  0.1496
  340MOL0     C45779   6.086  11.562   4.600 -0.2715 -0.7119  0.5934
  340MOL0     C45780   6.183  11.681   4.597 -0.2352  0.5358  0.4081
  340MOL0     C45781   6.246  11.705   4.453  0.0451  0.1433  0.8446
  340MOL0     N45782   6.139  11.733   4.356  0.7537  0.0999 -0.3621
  340MOL0     C45783   6.076  11.844   4.338  0.1166 -0.1143 -0.0186
  340MOL0     C45784   5.977  11.824   4.242 -0.1757 -0.2173  0.6549
  340MOL0     C45785   5.859  11.911   4.205  0.0136 -0.5987 -0.0994
  340MOL0     C45786   5.753  11.941   4.320 -0.0526  0.1199 -0.0239
  340MOL0     C45787   5.650  11.823   4.328  0.9916 -0.2064  0.6638
  340MOL0     C45788   5.523  11.871   4.411  0.4931  0.3243  0.7585
  340MOL0     O45789   5.557  11.935   4.532  0.8064 -0.0294  0.3404
  340MOL0     C45790   5.451  11.944   4.622 -0.4124  0.0157  0.9271
  340MOL0     C45791   5.489  11.953   4.753 -0.4116 -1.1683 -0.2878
  340MOL0     C45792   5.403  11.969   4.863  0.3066  0.4670 -0.8972
  340MOL0     C45793   5.477  11.979   5.002  0.5898  0.1068  0.4000
  340MOL0     C45794   5.258  11.968   4.837 -0.2235 -0.0980 -0.7512
  340MOL0     C45795   5.159  11.987   4.934 -0.2264  0.3838  0.8455
  340MOL0     O45796   5.185  12.079   5.029 -0.9472 -0.4228 -0.1320
  340MOL0     C45797   5.087  12.093   5.127 -0.3370  0.1266 -0.0616
  340MOL0     C45798   5.111  12.074   5.258 -0.2671  0.5183 -0.8087
  340MOL0     C45799   5.022  12.111   5.352  0.7989  0.0242 -0.2416
  340MOL0     C45800   4.897  12.168   5.314 -0.3329  0.0887  0.0679
  340MOL0     O45801   4.794  12.208   5.399 -1.4609 -0.2890 -0.3500
  340MOL0     C45802   4.817  12.194   5.543 -0.2000 -0.9156 -0.3364
  340MOL0     C45803   4.701  12.262   5.619 -0.0762  0.3062 -0.0792
  340MOL0     C45804   4.565  12.192   5.605 -0.6212 -0.5701  0.9310
  340MOL0     C45805   4.464  12.239   5.710  0.0370 -0.5573 -0.7141
  340MOL0     C45806   4.433  12.389   5.690  0.5557 -1.0808 -0.1679
  340MOL0     C45807   4.320  12.410   5.591  0.0565 -0.5949  0.2164
  340MOL0     C45808   4.179  12.375   5.654 -0.1877  0.2604  0.0860
  340MOL0     C45809   4.067  12.452   5.584 -0.9050 -0.0374 -0.1221
  340MOL0    Cl45810   3.911  12.374   5.632 -0.4227  0.1113 -0.2978
  340MOL0     C45811   4.865  12.180   5.180  0.1478 -0.3841 -0.2094
  340MOL0     C45812   4.966  12.155   5.088 -0.3428  0.4884 -0.1360
  340MOL0     O45813   5.060  11.922   4.910 -0.1031  0.0167 -0.1207
  340MOL0     C45814   5.219  11.943   4.700  0.3712 -0.4796 -0.3211
  340MOL0     C45815   5.315  11.933   4.597 -0.6875 -0.3225 -0.5376
  340MOL0     N45816   5.993  11.694   4.201  0.3508 -0.2906 -0.5094
  340MOL0     N45817   6.077  11.636   4.273  0.1862 -0.2938 -0.1247
  340MOL0     C45818   5.441  11.151   4.724 -0.2882 -0.5124  0.6324
  340MOL0     C45819   5.311  11.120   4.676 -0.1385  0.5313  0.4966
  340MOL0     C45820   4.851  11.080   4.685 -0.3238  0.2405  0.3816
  340MOL0     C45821   4.748  11.177   4.700 -0.2699  0.3345  0.3612
  340MOL0     C45822   4.618  11.130   4.675 -0.0056 -0.5123  0.0011
  340MOL0     C45823   4.582  11.015   4.607 -0.1964 -0.4034 -1.1286
  340MOL0     O45824   4.448  11.000   4.567  0.0006  0.1072  0.2861
  340MOL0     C45825   4.418  10.887   4.484  0.3860 -0.2553  0.2285
  340MOL0     C45826   4.272  10.906   4.442 -0.3654  0.8010  0.3711
  340MOL0     C45827   4.217  10.793   4.359  0.4369 -0.3613 -0.1253
  340MOL0     C45828   4.186  10.668   4.439  0.2075  0.4293 -0.0818
  340MOL0     C45829   4.042  10.660   4.476  0.3662  0.6875 -0.1279
  340MOL0     C45830   3.926  10.651   4.515  0.2202 -0.0422 -0.7960
  340MOL0     C45831   4.691  10.939   4.562 -0.4301 -0.1212 -0.1532
  340MOL0     C45832   4.819  10.965   4.613 -0.0890 -0.2980 -0.0405
  340MOL0     H45833   5.186  10.971   4.956 -0.1328 -1.3868 -0.5563
  340MOL0     H45834   5.406  11.032   5.041  1.5993 -0.5628  0.1561
  340MOL0     H45835   5.687  11.260   4.733  0.9039  1.4121 -0.2031
  340MOL0     H45836   5.610  11.359   4.860  0.4100 -0.1829  0.2196
  340MOL0     H45837   5.785  11.282   5.026  1.1077  2.3769 -0.1292
  340MOL0     H45838   5.868  11.200   4.892  0.0680  1.0177 -0.3583
  340MOL0     H45839   5.828  11.505   4.920  0.5294 -1.2135  1.4196
  340MOL0     H45840   5.962  11.416   4.974  0.5635 -0.3826 -1.3556
  340MOL0     H45841   6.005  11.323   4.738 -0.0556  0.1216 -2.4454
  340MOL0     H45842   5.860  11.427   4.695 -0.0950  2.0949 -0.3733
  340MOL0     H45843   6.002  11.628   4.783  3.1653  1.4537  0.4042
  340MOL0     H45844   6.129  11.517   4.817 -1.4080  2.3487  3.2900
  340MOL0     H45845   6.115  11.470   4.550 -3.8761 -2.7512  1.8650
  340MOL0     H45846   5.996  11.600   4.549 -2.6425 -2.8994  2.8574
  340MOL0     H45847   6.128  11.770   4.626 -1.5267 -1.0808  3.3394
  340MOL0     H45848   6.265  11.660   4.666  0.8774 -0.6348 -1.1740
  340MOL0     H45849   6.292  11.610   4.424  1.8868  1.0879  0.4833
  340MOL0     H45850   6.319  11.786   4.458  1.3950 -0.8434 -1.3439
  340MOL0     H45851   6.099  11.940   4.385  0.5994  0.0233 -0.5186
  340MOL0     H45852   5.904  12.006   4.175  2.5250 -2.0062 -1.1629
  340MOL0     H45853   5.808  11.875   4.116 -1.2909  1.7584 -0.3991
  340MOL0     H45854   5.697  12.034   4.310 -0.8727 -0.2092  1.2909
  340MOL0     H45855   5.803  11.948   4.418 -4.9392  0.1513  2.7923
  340MOL0     H45856   5.695  11.733   4.371 -0.1858 -0.6110  1.0925
  340MOL0     H45857   5.614  11.798   4.228 -0.3214 -3.0312  1.7197
  340MOL0     H45858   5.459  11.785   4.436  0.5527 -0.6093 -1.9573
  340MOL0     H45859   5.465  11.937   4.346 -0.1720 -1.9068 -1.0831
  340MOL0     H45860   5.595  11.950   4.780 -0.5024 -0.8668  0.1189
  340MOL0     H45861   5.495  12.086   5.015 -2.9275  0.8309  0.2935
  340MOL0     H45862   5.413  11.942   5.082  0.7029 -1.5995 -0.2525
  340MOL0     H45863   5.562  11.910   4.997 -0.8022 -1.7812  1.3483
  340MOL0     H45864   5.205  12.025   5.280  0.1469 -0.5811 -4.3984
  340MOL0     H45865   5.046  12.092   5.456  2.6924 -1.7125 -0.9434
  340MOL0     H45866   4.830  12.092   5.579  1.9737  0.0342  1.8548
  340MOL0     H45867   4.913  12.245   5.552 -1.1158  1.1844 -1.7730
  340MOL0     H45868   4.736  12.269   5.722  0.8683 -0.6893 -0.3118
  340MOL0     H45869   4.688  12.364   5.582  0.1662 -0.1069 -1.3585
  340MOL0     H45870   4.589  12.085   5.608  0.0426 -0.4686 -0.1371
  340MOL0     H45871   4.524  12.205   5.504 -0.4463 -0.1033  0.9176
  340MOL0     H45872   4.371  12.181   5.717  0.9635 -1.9807  0.2571
  340MOL0     H45873   4.519  12.223   5.803  0.0744  0.0050 -0.6362
  340MOL0     H45874   4.520  12.446   5.656 -1.2060  2.6155  1.0235
  340MOL0     H45875   4.391  12.431   5.782  1.5020 -1.5567  0.4935
  340MOL0     H45876   4.327  12.514   5.557  2.1463 -0.5628  0.6229
  340MOL0     H45877   4.345  12.340   5.512 -0.5821 -1.8248  1.0736
  340MOL0     H45878   4.172  12.406   5.759  1.8266 -0.5021  0.4817
  340MOL0     H45879   4.171  12.266   5.656  1.7496  0.0848  2.1605
  340MOL0     H45880   4.084  12.438   5.477  0.0909 -1.0231  0.1320
  340MOL0     H45881   4.078  12.559   5.604  1.4710 -0.1071 -0.7284
  340MOL0     H45882   4.768  12.214   5.145 -0.0420 -0.9100 -0.2045
  340MOL0     H45883   4.960  12.184   4.984  1.9159 -2.1474 -1.1238
  340MOL0     H45884   5.113  11.937   4.678  0.3504 -2.2258  0.0916
  340MOL0     H45885   5.291  11.922   4.491  1.2482  2.5445 -1.3795
  340MOL0     H45886   5.502  11.194   4.645 -0.9846 -0.1917  0.2533
  340MOL0     H45887   5.285  11.127   4.570 -0.5282 -0.8229  0.4812
  340MOL0     H45888   4.753  11.270   4.755 -1.8210  0.8164 -0.2367
  340MOL0     H45889   4.537  11.199   4.696  0.5040 -0.4462  1.8704
  340MOL0     H45890   4.481  10.895   4.395 -1.6234  0.7149 -1.1730
  340MOL0     H45891   4.437  10.790   4.531 -3.0260 -3.5149 -4.2546
  340MOL0     H45892   4.269  11.004   4.393  0.6094  1.7969  2.2227
  340MOL0     H45893   4.223  10.909   4.539 -1.4705  1.1830 -0.1747
  340MOL0     H45894   4.295  10.766   4.287  1.5662  2.7907 -0.2626
  340MOL0     H45895   4.135  10.831   4.298  0.0645  1.7649  1.5515
  340MOL0     H45896   4.248  10.668   4.528  0.7348 -2.2332 -0.3542
  340MOL0     H45897   4.215  10.580   4.379 -1.3147 -0.0095 -0.2296
  340MOL0     H45898   3.830  10.654   4.561  0.0762 -0.3285 -1.0743
  340MOL0     H45899   4.676  10.851   4.500  1.6982 -1.2349  0.8238
  340MOL0     H45900   4.906  10.902   4.595 -1.5337 -2.4336 -0.0134
  341MOL0     O45901   9.686   5.855   1.271  0.2578 -0.4748 -0.0853
  341MOL0     C45902   9.797   5.794   1.270  0.5368  0.0939  0.8855
  341MOL0     O45903   9.812   5.660   1.291  0.3272  0.2406 -0.7604
  341MOL0     C45904   9.708   5.566   1.313 -0.2609 -0.5024  0.6474
  341MOL0     C45905   9.573   5.599   1.347  0.4305  0.2841  0.2214
  341MOL0     C45906   9.480   5.498   1.376 -0.0213  0.5889 -0.8016
  341MOL0     C45907   9.519   5.361   1.354  0.4945  0.0346 -0.0175
  341MOL0     O45908   9.429   5.258   1.382  0.4766 -0.2759  0.5213
  341MOL0     C45909   9.437   5.145   1.302  0.5515  0.2046 -1.1634
  341MOL0     C45910   9.307   5.068   1.314 -0.9938 -0.4677 -0.1463
  341MOL0     C45911   9.194   5.137   1.245  0.8039  0.4422 -0.9146
  341MOL0     C45912   9.075   5.041   1.247 -0.0025 -0.2432  0.9392
  341MOL0     C45913   8.964   5.088   1.167 -0.1533 -0.5348 -0.0862
  341MOL0     C45914   8.845   4.998   1.182  0.5099  0.5656  0.5914
  341MOL0     C45915   8.711   5.082   1.174  0.8692 -0.8973 -0.6522
  341MOL0     C45916   8.583   4.992   1.193 -0.0453 -0.1371 -0.0798
  341MOL0     N45917   8.456   5.060   1.211  0.6162 -0.4247 -0.4870
  341MOL0     C45918   8.371   5.121   1.118  0.1704  0.5860  0.1063
  341MOL0     C45919   8.270   5.174   1.188  0.1009  0.0772  0.4907
  341MOL0     C45920   8.176   5.285   1.143 -0.3199  0.3727  0.2990
  341MOL0     C45921   8.246   5.390   1.058 -0.2044 -0.4368  0.1409
  341MOL0     C45922   8.353   5.482   1.121 -0.5463 -0.2034  0.0282
  341MOL0     C45923   8.501   5.420   1.128  0.5645  0.1454 -0.4476
  341MOL0     O45924   8.607   5.513   1.098  0.4525 -0.7070  0.3281
  341MOL0     C45925   8.729   5.465   1.059 -1.1795  0.0747 -1.1113
  341MOL0     C45926   8.760   5.423   0.930  0.0406 -1.1694  0.7048
  341MOL0     C45927   8.892   5.386   0.881  0.1580 -0.2404 -0.4767
  341MOL0     C45928   8.922   5.380   0.735 -0.7722 -0.8694  0.3245
  341MOL0     C45929   8.998   5.380   0.979 -0.7700 -0.4471  0.8410
  341MOL0     C45930   9.133   5.336   0.937  0.2690  0.0839 -0.3619
  341MOL0     O45931   9.240   5.404   0.981  0.1487  0.4778 -0.1390
  341MOL0     C45932   9.363   5.381   0.918  0.2258  0.3101 -0.0707
  341MOL0     C45933   9.485   5.394   0.986 -0.2638  0.2675 -0.2019
  341MOL0     C45934   9.607   5.367   0.925 -0.6790  0.0507 -0.6748
  341MOL0     C45935   9.614   5.332   0.793 -0.2949 -0.9630  0.4612
  341MOL0     O45936   9.723   5.264   0.756 -0.3948  0.2100  0.4633
  341MOL0     C45937   9.732   5.234   0.615  0.1339  0.3766  0.1209
  341MOL0     C45938   9.856   5.139   0.599 -0.7008 -0.2504  0.5117
  341MOL0     C45939   9.988   5.189   0.639 -1.1577 -0.4523 -1.2587
  341MOL0     C45940  10.081   5.064   0.630  0.4853 -0.1854  0.0507
  341MOL0     C45941  10.223   5.099   0.680  0.2532  0.2110 -0.3770
  341MOL0     C45942  10.223   5.116   0.831  0.1420 -0.9538 -0.3463
  341MOL0     C45943  10.358   5.174   0.887  0.5460  0.4263  0.4398
  341MOL0     C45944  10.370   5.171   1.032  0.6837  0.1332  0.1731
  341MOL0    Cl45945  10.546   5.220   1.088  0.2227  0.7504 -0.0908
  341MOL0     C45946   9.500   5.346   0.718  0.4765  0.5296 -0.0829
  341MOL0     C45947   9.377   5.374   0.774 -0.4472 -0.4056 -0.9920
  341MOL0     O45948   9.137   5.225   0.873  0.7192 -0.1546 -0.1949
  341MOL0     C45949   8.970   5.419   1.106  0.5564  0.5113 -0.4398
  341MOL0     C45950   8.836   5.458   1.157  0.0252  0.7865  0.5705
  341MOL0     N45951   8.293   5.143   1.322 -0.0775 -0.0871 -0.0993
  341MOL0     N45952   8.403   5.083   1.330 -0.2509 -0.9837  0.2606
  341MOL0     C45953   9.647   5.336   1.320  0.0917  0.7868  0.2249
  341MOL0     C45954   9.740   5.434   1.302  0.7850  0.5180  0.8176
  341MOL0     C45955   9.924   5.872   1.252 -0.0225  0.2610 -0.8374
  341MOL0     C45956   9.935   6.008   1.260  0.7391  0.4922  0.2592
  341MOL0     C45957  10.056   6.078   1.245  0.3672  0.5303 -0.2278
  341MOL0     C45958  10.175   6.005   1.212 -0.3582 -0.2697  0.5390
  341MOL0     O45959  10.296   6.073   1.192  0.2114  0.2173  0.3514
  341MOL0     C45960  10.412   6.002   1.151  0.1422 -0.4392 -0.0575
  341MOL0     C45961  10.495   6.109   1.068 -0.0926  0.8536  0.3435
  341MOL0     C45962  10.521   6.233   1.149  0.4249 -0.0724 -0.8170
  341MOL0     C45963  10.629   6.326   1.100  0.0934 -0.4638 -0.3840
  341MOL0     C45964  10.584   6.394   0.973  0.4044 -0.4317  0.2075
  341MOL0     C45965  10.565   6.438   0.864 -0.1151 -0.3978  0.4454
  341MOL0     C45966  10.166   5.864   1.216 -0.0628 -0.2265  0.8767
  341MOL0     C45967  10.043   5.797   1.235 -0.6726 -0.6890 -0.5587
  341MOL0     H45968   9.556   5.704   1.368 -0.1070  0.2869 -0.1961
  341MOL0     H45969   9.385   5.525   1.423 -0.3494 -2.5886  0.6001
  341MOL0     H45970   9.455   5.176   1.199  2.2515  3.1469 -0.1172
  341MOL0     H45971   9.527   5.095   1.340 -1.7253 -1.9342  1.8826
  341MOL0     H45972   9.310   4.970   1.266 -0.8819 -1.3465  1.5773
  341MOL0     H45973   9.281   5.065   1.420 -1.8002  0.8173 -0.2855
  341MOL0     H45974   9.181   5.237   1.288 -1.8910  0.1286 -0.8275
  341MOL0     H45975   9.221   5.149   1.140  0.6025  0.1098 -1.0045
  341MOL0     H45976   9.111   4.945   1.210 -0.8837 -0.4507  0.5796
  341MOL0     H45977   9.050   5.023   1.352  2.3186  2.6101  2.1346
  341MOL0     H45978   8.944   5.188   1.207 -1.8005 -0.4924 -0.9532
  341MOL0     H45979   8.996   5.091   1.063  1.2558  0.7335  0.3442
  341MOL0     H45980   8.855   4.924   1.102 -2.1014  0.5041  0.2442
  341MOL0     H45981   8.851   4.955   1.282  0.4730 -0.7275  0.0582
  341MOL0     H45982   8.707   5.164   1.247 -0.2627  1.8981 -3.6237
  341MOL0     H45983   8.701   5.133   1.078 -0.5732 -0.6652 -0.4118
  341MOL0     H45984   8.604   4.922   1.275  1.4576 -1.5485 -1.5958
  341MOL0     H45985   8.580   4.930   1.103 -0.0261 -2.7488  1.6017
  341MOL0     H45986   8.399   5.130   1.014  4.0452  0.3875  0.9568
  341MOL0     H45987   8.090   5.242   1.090 -0.9534  2.1621 -0.1763
  341MOL0     H45988   8.127   5.336   1.226  1.9480  1.7615  0.8852
  341MOL0     H45989   8.162   5.456   1.033  0.2911 -0.1298 -0.7499
  341MOL0     H45990   8.292   5.344   0.971  0.6648  1.7027 -0.5937
  341MOL0     H45991   8.323   5.513   1.221 -2.1463  0.4359 -0.6203
  341MOL0     H45992   8.357   5.578   1.070  0.1974 -0.9842 -1.4648
  341MOL0     H45993   8.511   5.336   1.058  0.8456 -0.3641  0.1879
  341MOL0     H45994   8.508   5.371   1.226  0.0301 -1.2088 -1.0586
  341MOL0     H45995   8.683   5.442   0.856  0.7004  1.7573  0.6668
  341MOL0     H45996   8.849   5.433   0.673  2.0503  1.2167 -1.4717
  341MOL0     H45997   9.018   5.426   0.711  0.4533 -3.3902  0.1697
  341MOL0     H45998   8.930   5.276   0.702  6.1525 -1.1161  1.3747
  341MOL0     H45999   9.490   5.421   1.091 -0.3828  1.2977 -0.4481
  341MOL0     H46000   9.690   5.351   0.993 -2.6240  1.3755  2.2020
  341MOL0     H46001   9.637   5.199   0.575  0.8133 -2.6178  0.8550
  341MOL0     H46002   9.748   5.325   0.556 -0.6110  0.3864 -0.0742
  341MOL0     H46003   9.833   5.043   0.646  0.8086 -1.5085 -1.1865
  341MOL0     H46004   9.871   5.122   0.492  1.0452  0.4613  0.6104
  341MOL0     H46005   9.989   5.227   0.741 -0.6566  1.0332 -1.8016
  341MOL0     H46006  10.020   5.264   0.566 -1.5392  0.3146 -0.6473
  341MOL0     H46007  10.038   4.983   0.691 -0.0458 -0.6000 -0.8540
  341MOL0     H46008  10.080   5.034   0.525  3.0373  3.5348 -1.2106
  341MOL0     H46009  10.258   5.193   0.636  0.9429 -0.4302 -1.2319
  341MOL0     H46010  10.300   5.026   0.651  1.1624  0.9842  0.0239
  341MOL0     H46011  10.149   5.192   0.858  2.2821  1.8895 -1.8842
  341MOL0     H46012  10.198   5.019   0.875  1.3768 -0.9451  0.4557
  341MOL0     H46013  10.364   5.277   0.849 -1.8766  0.6775  0.6319
  341MOL0     H46014  10.446   5.119   0.850  2.0228  0.9771  2.8651
  341MOL0     H46015  10.359   5.066   1.058  0.2799  0.6052  2.0940
  341MOL0     H46016  10.289   5.227   1.081  0.7888  3.9851 -3.4958
  341MOL0     H46017   9.497   5.322   0.612 -1.8202 -1.1874  0.2708
  341MOL0     H46018   9.291   5.389   0.709 -1.6415  0.5068  0.7377
  341MOL0     H46019   9.049   5.407   1.180 -0.2652 -2.5928  0.0406
  341MOL0     H46020   8.824   5.507   1.253 -0.7028  1.3660  0.2005
  341MOL0     H46021   9.675   5.232   1.305 -3.0046  0.0215 -1.2503
  341MOL0     H46022   9.839   5.402   1.269 -0.5548 -1.1509 -1.9898
  341MOL0     H46023   9.841   6.061   1.271  1.4645  1.6768  0.9672
  341MOL0     H46024  10.064   6.185   1.236  0.9207  0.5482  0.3767
  341MOL0     H46025  10.480   5.967   1.229  1.3831  0.4480 -0.7089
  341MOL0     H46026  10.390   5.912   1.093  2.4883 -0.6155 -0.7884
  341MOL0     H46027  10.448   6.149   0.977 -2.8844  0.0036  1.3101
  341MOL0     H46028  10.587   6.053   1.050 -0.3839 -0.0157  1.4935
  341MOL0     H46029  10.546   6.199   1.250 -0.5520  2.3153  0.2990
  341MOL0     H46030  10.425   6.284   1.155  0.3606 -0.3259  3.0164
  341MOL0     H46031  10.717   6.264   1.080 -1.7304 -3.3872 -0.0111
  341MOL0     H46032  10.648   6.398   1.180  3.4434  0.4277 -1.8116
  341MOL0     H46033  10.544   6.483   0.769 -3.9191 -0.0952  1.2823
  341MOL0     H46034  10.258   5.806   1.214  1.6588  2.2992 -1.5006
  341MOL0     H46035  10.037   5.688   1.240 -1.0836 -0.6253  0.5057
  342MOL0     O46036   3.881   6.270   0.572  0.2482  0.2361 -0.8742
  342MOL0     C46037   3.909   6.320   0.684 -0.3811 -0.1816 -0.1593
  342MOL0     O46038   3.823   6.348   0.789 -0.4117 -0.4965 -0.4878
  342MOL0     C46039   3.687   6.326   0.777  0.2475 -0.0726 -0.1788
  342MOL0     C46040   3.613   6.336   0.651 -0.6089  0.9006 -1.1531
  342MOL0     C46041   3.471   6.332   0.649 -0.0215  0.4628  0.2509
  342MOL0     C46042   3.392   6.315   0.763 -0.9346 -1.1395 -0.3152
  342MOL0     O46043   3.260   6.291   0.753 -0.0036 -0.3194  0.0365
  342MOL0     C46044   3.173   6.337   0.857 -1.4294  0.5300 -0.0249
  342MOL0     C46045   3.036   6.318   0.804  0.7306  0.0788  0.2465
  342MOL0     C46046   2.920   6.359   0.894 -0.1654  0.6003 -0.0204
  342MOL0     C46047   2.784   6.360   0.823  0.1481  0.5331  0.7447
  342MOL0     C46048   2.717   6.227   0.801 -0.1484  0.7287  0.4236
  342MOL0     C46049   2.603   6.230   0.701 -0.1627  0.5269 -0.3230
  342MOL0     C46050   2.512   6.103   0.685  0.0076 -0.4345  0.3487
  342MOL0     C46051   2.576   5.974   0.646  0.7937 -0.4337  0.9054
  342MOL0     N46052   2.484   5.863   0.639 -0.4355  0.0656 -0.3336
  342MOL0     C46053   2.449   5.785   0.748  0.1940  0.3300 -0.1069
  342MOL0     C46054   2.344   5.717   0.696 -0.4578  0.0624  0.1777
  342MOL0     C46055   2.270   5.616   0.774 -0.1716 -0.3608  0.0093
  342MOL0     C46056   2.159   5.540   0.704 -1.1886 -0.4826  0.2569
  342MOL0     C46057   2.032   5.617   0.699 -0.4669 -0.5530 -1.0894
  342MOL0     C46058   1.942   5.551   0.605  1.7538 -0.2558  0.8282
  342MOL0     O46059   1.895   5.437   0.676  0.6534  0.8634  0.4780
  342MOL0     C46060   1.757   5.416   0.679 -0.6012  0.3179  0.6398
  342MOL0     C46061   1.679   5.422   0.567  0.0836  0.2342  0.7616
  342MOL0     C46062   1.541   5.403   0.574 -0.2297  0.9789 -0.0664
  342MOL0     C46063   1.466   5.388   0.442 -0.1706 -0.6316  0.7339
  342MOL0     C46064   1.470   5.384   0.697  0.0082 -0.0519 -0.7367
  342MOL0     C46065   1.327   5.356   0.714  0.2288 -0.0503  0.1271
  342MOL0     O46066   1.249   5.320   0.601  0.5104 -0.4515  0.0636
  342MOL0     C46067   1.114   5.339   0.604 -0.5588 -0.1798  0.1253
  342MOL0     C46068   1.045   5.447   0.550  0.2378 -1.1552 -0.0220
  342MOL0     C46069   0.906   5.458   0.566 -0.3816 -0.2928 -0.6657
  342MOL0     C46070   0.837   5.359   0.638  0.3363 -1.4975 -0.5721
  342MOL0     O46071   0.702   5.365   0.667  0.1837 -0.1109  0.6427
  342MOL0     C46072   0.608   5.440   0.577 -0.5821  0.3543 -0.2385
  342MOL0     C46073   0.579   5.573   0.636 -0.9743 -0.4685 -0.4456
  342MOL0     C46074   0.503   5.663   0.549 -0.4951  0.1748  1.0539
  342MOL0     C46075   0.365   5.605   0.524  1.0643 -0.4063 -0.6504
  342MOL0     C46076   0.277   5.703   0.439  0.5774  0.1992 -0.3987
  342MOL0     C46077   0.135   5.650   0.404 -1.1467 -0.3328 -0.0697
  342MOL0     C46078   0.042   5.667   0.520  0.9599  0.6296 -0.4787
  342MOL0     C46079  -0.061   5.774   0.516 -0.6175  0.2804  0.1370
  342MOL0    Cl46080  -0.133   5.785   0.352  0.0855  0.5634 -0.2352
  342MOL0     C46081   0.907   5.255   0.692  0.0489 -0.0229  0.2323
  342MOL0     C46082   1.043   5.244   0.673 -0.2674  0.0467  0.7736
  342MOL0     O46083   1.282   5.358   0.830  0.4505  0.2082  0.2320
  342MOL0     C46084   1.556   5.375   0.813  0.4214 -1.1639  0.5535
  342MOL0     C46085   1.697   5.379   0.797 -0.0997  0.3973 -0.1624
  342MOL0     N46086   2.319   5.745   0.566  0.5959  0.7210  0.2476
  342MOL0     N46087   2.410   5.829   0.531 -0.0920 -0.4539  0.0904
  342MOL0     C46088   3.468   6.310   0.881  0.1557  1.0892  0.2028
  342MOL0     C46089   3.608   6.325   0.888 -0.0236  0.5779 -0.0602
  342MOL0     C46090   4.048   6.369   0.700  0.3585  0.1193  0.8925
  342MOL0     C46091   4.151   6.306   0.628  0.0129  0.3420  0.0748
  342MOL0     C46092   4.279   6.356   0.635 -0.7374 -0.1088 -0.4962
  342MOL0     C46093   4.312   6.448   0.740 -0.0538 -0.5451  0.3643
  342MOL0     O46094   4.439   6.493   0.781 -0.4064 -0.6361  0.2335
  342MOL0     C46095   4.544   6.485   0.683 -0.2655 -0.2939 -0.5421
  342MOL0     C46096   4.637   6.606   0.704  0.3929 -0.0865 -0.0587
  342MOL0     C46097   4.680   6.633   0.854  0.0999 -0.6247  0.2060
  342MOL0     C46098   4.766   6.766   0.875 -0.0190 -0.2377 -0.2068
  342MOL0     C46099   4.881   6.748   0.963  0.3575  0.5170  0.8239
  342MOL0     C46100   4.986   6.731   1.014  0.5784  0.1869 -0.7961
  342MOL0     C46101   4.205   6.504   0.811 -0.1242  0.3987 -0.6060
  342MOL0     C46102   4.074   6.459   0.803 -0.0439 -0.7780  0.3809
  342MOL0     H46103   3.661   6.355   0.555  0.0351  1.9837 -0.6416
  342MOL0     H46104   3.426   6.333   0.550  1.6835 -1.4611 -0.6292
  342MOL0     H46105   3.193   6.279   0.948 -1.2110 -0.7030 -0.8215
  342MOL0     H46106   3.200   6.442   0.872  4.1647 -0.5752 -0.1779
  342MOL0     H46107   3.021   6.389   0.722 -0.6568  0.5303  0.8638
  342MOL0     H46108   3.026   6.220   0.756 -1.7607  0.4826 -0.1788
  342MOL0     H46109   2.907   6.290   0.979 -2.5520  3.7904  2.4689
  342MOL0     H46110   2.940   6.458   0.935  0.1822  0.8390 -0.7497
  342MOL0     H46111   2.719   6.423   0.884  0.9060  1.2675  0.8192
  342MOL0     H46112   2.798   6.412   0.728  1.2929 -0.5800  0.2749
  342MOL0     H46113   2.786   6.150   0.766 -3.6047 -3.3924  1.6985
  342MOL0     H46114   2.688   6.181   0.896 -1.4028  2.3840  0.8908
  342MOL0     H46115   2.536   6.314   0.725 -3.2403 -1.5532 -0.9750
  342MOL0     H46116   2.639   6.246   0.599  0.7362  0.0799 -0.0810
  342MOL0     H46117   2.453   6.087   0.776 -0.8102  1.8555  0.2857
  342MOL0     H46118   2.435   6.131   0.611 -2.9124 -1.1056  2.9243
  342MOL0     H46119   2.658   5.951   0.714  1.5761 -1.9799 -0.4803
  342MOL0     H46120   2.621   5.993   0.548  0.6903  2.2259  1.2923
  342MOL0     H46121   2.485   5.784   0.850  0.1793 -0.9417 -0.0865
  342MOL0     H46122   2.344   5.544   0.809 -0.2118  0.8362  2.8319
  342MOL0     H46123   2.231   5.656   0.868  3.7021  0.6245  1.3787
  342MOL0     H46124   2.150   5.448   0.761 -0.8611 -0.8212 -0.2294
  342MOL0     H46125   2.194   5.516   0.603 -2.4852 -1.6710  0.0667
  342MOL0     H46126   2.054   5.718   0.664  0.2700 -0.7954 -1.3582
  342MOL0     H46127   1.972   5.630   0.789  0.0952 -0.1458 -0.7618
  342MOL0     H46128   2.008   5.521   0.523  1.4268  0.0533  0.4462
  342MOL0     H46129   1.873   5.628   0.569  3.8035  1.4842  0.4419
  342MOL0     H46130   1.732   5.430   0.473  0.7465  0.9718  1.1920
  342MOL0     H46131   1.416   5.293   0.427  0.2739 -0.5058 -1.9836
  342MOL0     H46132   1.391   5.468   0.441  0.7891  0.3103 -0.9640
  342MOL0     H46133   1.533   5.408   0.358 -0.7770  0.4291  0.4859
  342MOL0     H46134   1.102   5.534   0.519  0.2245 -0.7626  1.0168
  342MOL0     H46135   0.856   5.548   0.531 -3.1221 -1.8378 -0.9546
  342MOL0     H46136   0.647   5.440   0.475  2.7743 -1.7663  0.8811
  342MOL0     H46137   0.516   5.384   0.558 -0.4861  0.0726  0.1137
  342MOL0     H46138   0.528   5.559   0.732  4.3209  0.4017  2.9089
  342MOL0     H46139   0.666   5.633   0.664 -1.5152 -1.4483  4.0712
  342MOL0     H46140   0.562   5.681   0.459  0.3268  0.8734  1.7092
  342MOL0     H46141   0.490   5.764   0.590  3.1687  0.8883  0.8249
  342MOL0     H46142   0.373   5.515   0.462 -0.8579 -1.7072  0.8486
  342MOL0     H46143   0.312   5.572   0.614  0.6160 -1.7188 -1.3613
  342MOL0     H46144   0.340   5.722   0.352  3.0385  0.4718  1.3623
  342MOL0     H46145   0.272   5.802   0.484  2.6571  0.4010 -0.5313
  342MOL0     H46146   0.102   5.712   0.320 -0.8986  1.7256  1.2747
  342MOL0     H46147   0.144   5.544   0.379 -3.3897 -0.8655  1.0688
  342MOL0     H46148   0.094   5.669   0.617 -0.1131  0.9765  0.1098
  342MOL0     H46149  -0.009   5.570   0.518 -0.5603  1.4031 -0.6253
  342MOL0     H46150  -0.023   5.872   0.548 -2.2786  1.5343 -1.5456
  342MOL0     H46151  -0.138   5.739   0.585  0.6114 -0.9162  0.9642
  342MOL0     H46152   0.853   5.185   0.755  0.1934  0.0027  0.3863
  342MOL0     H46153   1.097   5.161   0.717  2.9193  0.8706 -1.1757
  342MOL0     H46154   1.513   5.359   0.911 -0.6969  2.5673  0.8210
  342MOL0     H46155   1.760   5.368   0.884 -1.0501 -1.2979  0.3672
  342MOL0     H46156   3.418   6.292   0.976  0.3704  0.2711  0.1632
  342MOL0     H46157   3.630   6.352   0.991 -2.7230 -0.4548  0.8936
  342MOL0     H46158   4.140   6.224   0.558 -3.2470 -0.0344  0.8651
  342MOL0     H46159   4.354   6.302   0.578  0.7641 -0.6243  1.8415
  342MOL0     H46160   4.599   6.393   0.703 -0.9297 -0.6434 -0.3156
  342MOL0     H46161   4.518   6.480   0.576  2.9997 -0.7515 -1.4296
  342MOL0     H46162   4.582   6.689   0.657 -1.7434  0.4838  3.0908
  342MOL0     H46163   4.727   6.594   0.643 -0.9222 -0.1943 -2.0758
  342MOL0     H46164   4.743   6.552   0.892 -0.1646 -1.1268 -0.4016
  342MOL0     H46165   4.592   6.643   0.919 -0.4795 -2.5375 -0.1969
  342MOL0     H46166   4.702   6.847   0.913  2.0548  2.1305 -1.4755
  342MOL0     H46167   4.815   6.794   0.782  2.2937  1.4746  1.3969
  342MOL0     H46168   5.079   6.719   1.065  0.5146 -0.6940 -0.8817
  342MOL0     H46169   4.215   6.576   0.892 -1.9694 -1.4413  1.3936
  342MOL0     H46170   3.994   6.508   0.858  1.5845 -0.3362  2.5198
  343MOL0     O46171   4.099   2.576   0.076 -0.1408  0.2148  0.1267
  343MOL0     C46172   4.170   2.670   0.103  0.1261 -0.6387  0.7397
  343MOL0     O46173   4.139   2.802   0.130 -0.0565  0.2914  0.2616
  343MOL0     C46174   4.011   2.821   0.160 -0.4927 -0.3072  0.2835
  343MOL0     C46175   3.962   2.948   0.134 -0.8374 -0.5739 -0.1398
  343MOL0     C46176   3.837   2.993   0.157  0.7284  0.2730 -0.2724
  343MOL0     C46177   3.746   2.908   0.222  0.7174  0.5468 -0.6693
  343MOL0     O46178   3.618   2.956   0.248  0.1724  0.4359 -0.7752
  343MOL0     C46179   3.535   2.907   0.354 -0.4375 -0.1224  0.2885
  343MOL0     C46180   3.406   2.979   0.391 -0.7515  0.3870  0.1764
  343MOL0     C46181   3.337   2.937   0.519  0.2496 -0.0931  0.1533
  343MOL0     C46182   3.185   2.975   0.508 -0.4266 -0.0070 -0.0422
  343MOL0     C46183   3.105   2.957   0.644 -0.2436 -0.8721 -0.3788
  343MOL0     C46184   3.146   3.057   0.760 -0.0117  0.3491 -0.2805
  343MOL0     C46185   3.053   3.060   0.880  0.1744  0.2345 -0.6415
  343MOL0     C46186   3.043   2.919   0.937  0.3399  0.8465 -0.1876
  343MOL0     N46187   2.969   2.912   1.067 -0.3701 -0.0101 -0.4571
  343MOL0     C46188   2.837   2.940   1.088  0.7491  0.1073  0.2350
  343MOL0     C46189   2.811   2.913   1.217  0.3897 -0.5797  0.0734
  343MOL0     C46190   2.675   2.915   1.273 -0.3203 -0.3162 -0.6588
  343MOL0     C46191   2.648   3.034   1.363  0.5696 -0.8201  0.5903
  343MOL0     C46192   2.561   3.007   1.481 -0.6197 -0.0216  0.5325
  343MOL0     C46193   2.529   3.137   1.543  0.1008 -0.2364  0.3757
  343MOL0     O46194   2.422   3.203   1.491 -0.8667 -0.5020 -0.4796
  343MOL0     C46195   2.300   3.156   1.541  0.1153 -0.4405 -0.7650
  343MOL0     C46196   2.210   3.254   1.570 -0.4092  0.1742  0.6798
  343MOL0     C46197   2.077   3.231   1.623  0.6257 -0.9914 -0.0075
  343MOL0     C46198   2.000   3.348   1.651  0.7865  0.1174 -0.6718
  343MOL0     C46199   2.034   3.102   1.653  0.5757  0.0936  0.5027
  343MOL0     C46200   1.897   3.056   1.705  0.0783  0.7443 -0.8425
  343MOL0     O46201   1.888   2.922   1.732 -0.0051  0.3302 -0.8292
  343MOL0     C46202   1.763   2.874   1.768  0.6667 -0.0282 -0.3534
  343MOL0     C46203   1.759   2.829   1.902  0.1404  0.1780 -0.2211
  343MOL0     C46204   1.643   2.785   1.960  0.7022  0.6404 -0.4597
  343MOL0     C46205   1.530   2.762   1.880  0.3972  0.0242  0.1933
  343MOL0     O46206   1.424   2.690   1.919 -0.0239 -0.3455  0.0870
  343MOL0     C46207   1.428   2.611   2.037 -0.6824 -0.5388 -0.6085
  343MOL0     C46208   1.306   2.532   2.057  0.5123 -0.2197 -0.0920
  343MOL0     C46209   1.282   2.487   2.203  0.2429 -0.1217 -0.5315
  343MOL0     C46210   1.168   2.386   2.225  0.4630  0.4757  0.1181
  343MOL0     C46211   1.027   2.434   2.202 -0.8706  0.1553 -0.6304
  343MOL0     C46212   0.927   2.327   2.189  0.5420  0.2794 -0.6174
  343MOL0     C46213   0.906   2.254   2.315 -0.2454  0.7972 -0.0641
  343MOL0     C46214   0.768   2.198   2.323 -0.4572 -0.5439 -1.2509
  343MOL0    Cl46215   0.735   2.151   2.484  0.2639 -0.0927 -0.1119
  343MOL0     C46216   1.534   2.806   1.745 -0.3503  0.1073 -0.6750
  343MOL0     C46217   1.649   2.865   1.695 -0.9750  0.4943 -0.2755
  343MOL0     O46218   1.805   3.136   1.727  0.0640  0.1209 -0.5532
  343MOL0     C46219   2.132   3.003   1.631 -0.0775 -0.1311  0.6157
  343MOL0     C46220   2.260   3.034   1.581  0.1216  0.6748  0.2982
  343MOL0     N46221   2.926   2.879   1.278  0.1976  0.6270 -0.2497
  343MOL0     N46222   3.020   2.875   1.193  0.5497  0.3850  0.7564
  343MOL0     C46223   3.785   2.784   0.261 -0.0250 -0.1188  0.5048
  343MOL0     C46224   3.915   2.741   0.226 -0.0715 -0.1222  0.0959
  343MOL0     C46225   4.316   2.646   0.113  0.4554  0.1111 -0.6683
  343MOL0     C46226   4.364   2.520   0.111 -0.4528 -0.2699  0.8562
  343MOL0     C46227   4.507   2.503   0.109  0.6011  0.7400 -1.3767
  343MOL0     C46228   4.600   2.605   0.098  0.4169  0.1923 -0.0860
  343MOL0     O46229   4.734   2.571   0.086  0.2505 -0.0626  0.1947
  343MOL0     C46230   4.809   2.652  -0.012 -0.4810  0.2539  0.0793
  343MOL0     C46231   4.929   2.590  -0.080 -0.1502  0.8115  0.2353
  343MOL0     C46232   5.038   2.571   0.036  0.4129  0.3372  0.3977
  343MOL0     C46233   5.175   2.557  -0.029 -0.3833  0.0980  0.9170
  343MOL0     C46234   5.269   2.525   0.072  0.2305  0.4105  0.0192
  343MOL0     C46235   5.348   2.497   0.158 -0.3206 -0.1424  0.2017
  343MOL0     C46236   4.546   2.735   0.102 -0.4417 -0.0329  0.0242
  343MOL0     C46237   4.405   2.757   0.095  0.2631  0.4134 -0.0196
  343MOL0     H46238   4.027   3.017   0.082 -2.7180  0.6776 -0.9562
  343MOL0     H46239   3.793   3.091   0.139  1.7212  0.7185 -0.3484
  343MOL0     H46240   3.522   2.800   0.335  1.2049 -0.1413 -0.9614
  343MOL0     H46241   3.587   2.911   0.451 -3.1193 -0.1582  1.8327
  343MOL0     H46242   3.430   3.085   0.403 -1.1114  0.4802  0.0766
  343MOL0     H46243   3.333   2.979   0.310  0.7097  1.3394 -1.2152
  343MOL0     H46244   3.360   2.835   0.552 -0.5674 -0.1884  0.4409
  343MOL0     H46245   3.384   3.007   0.589  0.9995  1.8129 -2.1201
  343MOL0     H46246   3.174   3.078   0.472 -2.7530  0.6058  2.1367
  343MOL0     H46247   3.135   2.915   0.432  1.4412  0.2944 -1.5862
  343MOL0     H46248   2.999   2.969   0.620 -1.5600 -0.3688  4.6772
  343MOL0     H46249   3.125   2.854   0.675 -0.3225 -0.4202  1.2595
  343MOL0     H46250   3.247   3.028   0.791  0.0347 -0.6120 -1.2736
  343MOL0     H46251   3.154   3.163   0.734 -1.4936  0.5486  0.0216
  343MOL0     H46252   3.092   3.127   0.957  2.1088 -2.3794  0.8149
  343MOL0     H46253   2.956   3.099   0.846  0.7640 -0.0694 -2.8621
  343MOL0     H46254   3.140   2.875   0.963  0.1279  0.3474 -0.2261
  343MOL0     H46255   2.990   2.852   0.869  1.0888 -1.3004  1.2160
  343MOL0     H46256   2.765   2.971   1.014  1.8857 -0.0889 -1.0020
  343MOL0     H46257   2.609   2.921   1.186  2.7778 -1.5519 -3.3067
  343MOL0     H46258   2.650   2.830   1.337 -2.2743  0.2952 -0.5514
  343MOL0     H46259   2.595   3.115   1.312 -1.5310 -0.8742  2.5520
  343MOL0     H46260   2.747   3.069   1.395  1.6106 -1.2138 -1.9664
  343MOL0     H46261   2.609   2.931   1.543  0.6361  0.1571 -0.1834
  343MOL0     H46262   2.474   2.954   1.442  0.6208 -0.7502 -1.3956
  343MOL0     H46263   2.615   3.206   1.543  0.7805 -1.0117 -1.8464
  343MOL0     H46264   2.512   3.100   1.644  0.3956 -0.0112  0.5095
  343MOL0     H46265   2.231   3.357   1.545  0.2823 -0.1854 -0.2577
  343MOL0     H46266   1.917   3.374   1.585 -2.7979  1.1100  3.7004
  343MOL0     H46267   1.953   3.334   1.749  1.3471  2.2506 -0.0502
  343MOL0     H46268   2.068   3.433   1.659  1.4142 -0.5004  1.0443
  343MOL0     H46269   1.851   2.835   1.960  0.1369 -1.8083  0.0373
  343MOL0     H46270   1.635   2.756   2.064  3.1693 -2.0207 -0.8862
  343MOL0     H46271   1.514   2.542   2.038 -0.1818  0.0755 -0.4968
  343MOL0     H46272   1.431   2.672   2.128  0.5179 -1.2193 -0.1594
  343MOL0     H46273   1.213   2.578   2.023 -1.5014 -3.7774  0.1293
  343MOL0     H46274   1.320   2.439   2.000  2.9270 -0.2090  0.3585
  343MOL0     H46275   1.251   2.573   2.263  0.1554 -1.0895  0.8591
  343MOL0     H46276   1.373   2.450   2.252  1.5555  2.7152 -0.6667
  343MOL0     H46277   1.186   2.299   2.161 -0.9703  0.6308 -0.5320
  343MOL0     H46278   1.177   2.363   2.331 -1.7825  1.6525  0.6282
  343MOL0     H46279   1.039   2.486   2.106 -1.0217 -0.1542 -0.8184
  343MOL0     H46280   1.000   2.518   2.267 -4.6419  1.2231 -3.2020
  343MOL0     H46281   0.840   2.381   2.153 -0.0183  0.6433  1.1588
  343MOL0     H46282   0.964   2.255   2.115  3.4746  1.5144 -0.4815
  343MOL0     H46283   0.920   2.325   2.397 -3.6875  0.0875  1.3089
  343MOL0     H46284   0.968   2.164   2.326 -0.7993  0.1347 -1.9832
  343MOL0     H46285   0.758   2.113   2.255 -1.9692  0.1200 -1.9184
  343MOL0     H46286   0.694   2.274   2.297 -2.3901 -1.7066  0.5340
  343MOL0     H46287   1.445   2.793   1.684 -1.3834 -0.6889  0.9050
  343MOL0     H46288   1.650   2.920   1.601 -1.4693  2.4230  0.7867
  343MOL0     H46289   2.111   2.898   1.646  1.4078 -0.4190  0.8239
  343MOL0     H46290   2.318   2.942   1.578  0.4899  0.9087  0.2049
  343MOL0     H46291   3.732   2.705   0.313  1.1051 -1.9943 -1.0254
  343MOL0     H46292   3.948   2.645   0.267 -0.1368  0.5808  1.8983
  343MOL0     H46293   4.306   2.430   0.126 -1.3608  0.2662  0.6081
  343MOL0     H46294   4.547   2.402   0.110 -0.9659 -0.0977  3.6906
  343MOL0     H46295   4.745   2.692  -0.092  1.1491  2.7137 -0.1249
  343MOL0     H46296   4.851   2.736   0.045 -2.4237  1.7660 -0.5614
  343MOL0     H46297   4.969   2.645  -0.166  1.1184 -1.1156 -0.4978
  343MOL0     H46298   4.896   2.496  -0.125 -0.0893  1.5548 -1.4432
  343MOL0     H46299   5.010   2.485   0.098 -1.2208  2.7301  3.2417
  343MOL0     H46300   5.043   2.654   0.107 -1.6232  1.5175 -0.7368
  343MOL0     H46301   5.195   2.657  -0.068 -1.0844  0.5766  1.7443
  343MOL0     H46302   5.169   2.482  -0.109 -0.0362  1.7447 -0.7311
  343MOL0     H46303   5.423   2.486   0.234  0.4775 -0.3384 -0.5996
  343MOL0     H46304   4.621   2.813   0.097 -2.1914  1.7684  0.5829
  343MOL0     H46305   4.371   2.860   0.083 -0.2109  0.6756  2.8462
  344MOL0     O46306   2.765   8.341   7.419 -0.1259 -0.0802  0.1350
  344MOL0     C46307   2.792   8.309   7.533 -0.3908 -0.1516  0.0766
  344MOL0     O46308   2.778   8.385   7.642  0.0282 -0.2489 -0.6972
  344MOL0     C46309   2.705   8.502   7.641 -0.1235  0.0627 -0.3660
  344MOL0     C46310   2.713   8.610   7.548  0.2042  0.5289 -0.4250
  344MOL0     C46311   2.643   8.730   7.585  0.5303  0.6982 -0.1419
  344MOL0     C46312   2.581   8.738   7.719 -0.0263  0.6787 -0.8515
  344MOL0     O46313   2.538   8.856   7.765 -0.1812 -0.7244 -0.3706
  344MOL0     C46314   2.486   8.881   7.897  0.1174 -0.3534  0.4056
  344MOL0     C46315   2.426   9.023   7.899  0.3417  0.1796  0.0070
  344MOL0     C46316   2.533   9.127   7.941  0.6308  0.0943 -0.5683
  344MOL0     C46317   2.638   9.154   7.840  0.5197 -0.1672 -0.3562
  344MOL0     C46318   2.578   9.206   7.710 -0.7725  0.2771  0.1249
  344MOL0     C46319   2.675   9.290   7.636 -0.0713  0.3332 -0.3932
  344MOL0     C46320   2.772   9.197   7.550 -0.2545  0.8338 -0.8792
  344MOL0     C46321   2.873   9.282   7.486  0.4813  0.4046  0.2744
  344MOL0     N46322   2.984   9.215   7.407  1.1862 -0.9855 -0.5284
  344MOL0     C46323   2.990   9.209   7.268 -0.5247  1.2950  0.0694
  344MOL0     C46324   3.113   9.153   7.249  0.3106 -0.0972 -0.1660
  344MOL0     C46325   3.161   9.120   7.117  0.8553  0.3366  0.3367
  344MOL0     C46326   3.305   9.075   7.117 -0.0208 -0.9443 -0.4838
  344MOL0     C46327   3.354   9.069   6.972  0.1757  0.0119  0.5633
  344MOL0     C46328   3.487   8.996   6.961  0.3047 -0.8593  0.3304
  344MOL0     O46329   3.572   9.029   7.075  0.5854  0.5508  0.3022
  344MOL0     C46330   3.675   8.940   7.107 -0.1012  0.3747  0.6269
  344MOL0     C46331   3.720   8.825   7.036  0.3756 -0.3442 -0.0966
  344MOL0     C46332   3.820   8.731   7.077 -0.4382  0.1467 -0.3898
  344MOL0     C46333   3.852   8.609   6.994  0.3261  0.4580  0.6181
  344MOL0     C46334   3.893   8.771   7.198  0.6711 -0.3968  0.2103
  344MOL0     C46335   4.004   8.695   7.260 -0.3005 -0.0978 -0.4216
  344MOL0     O46336   4.096   8.765   7.335  0.2746 -0.0559 -0.7387
  344MOL0     C46337   4.189   8.708   7.414 -1.0132  0.8620 -0.7024
  344MOL0     C46338   4.271   8.597   7.378  0.6579  0.6355 -0.4300
  344MOL0     C46339   4.368   8.555   7.476  0.0827  0.4561  0.7340
  344MOL0     C46340   4.385   8.618   7.603 -0.6643  0.5265  0.1931
  344MOL0     O46341   4.483   8.571   7.689 -0.1454 -0.7148 -1.3160
  344MOL0     C46342   4.594   8.651   7.715  0.1773 -0.6025  0.2572
  344MOL0     C46343   4.688   8.639   7.595  0.1001  0.7199 -0.4501
  344MOL0     C46344   4.828   8.700   7.635  0.0025  0.1269 -0.3805
  344MOL0     C46345   4.934   8.665   7.531  0.0396  0.0826 -0.6696
  344MOL0     C46346   5.076   8.670   7.592  0.3257  0.1332  0.1922
  344MOL0     C46347   5.172   8.644   7.476 -0.3639 -0.5632 -0.7346
  344MOL0     C46348   5.297   8.701   7.534  0.7493 -0.5926 -0.1873
  344MOL0     C46349   5.417   8.697   7.432  0.9033 -0.4931 -0.1713
  344MOL0    Cl46350   5.410   8.825   7.298  0.0678  0.3056  0.2386
  344MOL0     C46351   4.303   8.723   7.630 -0.5396 -0.2950  0.0726
  344MOL0     C46352   4.209   8.767   7.538  0.4288 -0.6437 -0.1955
  344MOL0     O46353   3.998   8.569   7.256 -0.4095 -0.2668  0.3199
  344MOL0     C46354   3.867   8.899   7.258  0.4820  0.4712  0.0894
  344MOL0     C46355   3.746   8.971   7.221 -0.1133  0.9053 -0.1556
  344MOL0     N46356   3.184   9.149   7.369 -0.6355 -0.7253  0.3577
  344MOL0     N46357   3.102   9.178   7.463 -0.3983 -0.1710  0.4706
  344MOL0     C46358   2.575   8.631   7.805  0.9459  0.4136  1.0828
  344MOL0     C46359   2.634   8.513   7.761  0.5460  0.4079  0.2428
  344MOL0     C46360   2.848   8.173   7.564  0.5571  0.2592  0.4181
  344MOL0     C46361   2.849   8.123   7.689 -0.1014  0.5184 -0.2987
  344MOL0     C46362   2.887   7.994   7.724  0.2758 -1.3130 -0.2201
  344MOL0     C46363   2.930   7.911   7.621 -0.4281 -0.1083  0.5046
  344MOL0     O46364   2.973   7.774   7.628  0.4574  0.0329  0.1063
  344MOL0     C46365   2.942   7.710   7.760  0.0220  1.1034 -0.3808
  344MOL0     C46366   3.021   7.580   7.771  0.0768  0.6466  0.7351
  344MOL0     C46367   2.968   7.491   7.889 -0.3542 -0.0541 -0.6394
  344MOL0     C46368   2.858   7.389   7.849  0.2108 -0.5926 -0.2455
  344MOL0     C46369   2.809   7.299   7.953 -0.4490 -0.1300  0.6221
  344MOL0     C46370   2.761   7.224   8.038  0.8896 -0.2149  0.0260
  344MOL0     C46371   2.936   7.964   7.495 -0.2035  0.5801  0.5442
  344MOL0     C46372   2.896   8.091   7.460 -0.3275  0.0016  0.4159
  344MOL0     H46373   2.782   8.607   7.464 -0.0836 -1.2099 -0.6520
  344MOL0     H46374   2.652   8.816   7.520  0.8438 -0.0025 -1.0625
  344MOL0     H46375   2.400   8.819   7.924 -0.3838 -1.0693 -2.5472
  344MOL0     H46376   2.571   8.878   7.966  0.8632 -0.6397 -0.5023
  344MOL0     H46377   2.368   9.056   7.813 -2.1621  0.1262  1.5858
  344MOL0     H46378   2.354   9.026   7.981 -1.0986 -3.1662 -0.9503
  344MOL0     H46379   2.476   9.219   7.961 -0.7661 -0.1777 -2.8593
  344MOL0     H46380   2.591   9.090   8.025 -1.5581 -0.9446  0.5704
  344MOL0     H46381   2.705   9.230   7.881 -0.3782 -1.7479  4.7348
  344MOL0     H46382   2.702   9.068   7.814  0.1818 -0.6234  0.2861
  344MOL0     H46383   2.537   9.122   7.653  1.5612 -1.4123  0.7856
  344MOL0     H46384   2.497   9.276   7.735  1.3842  1.2427  6.2012
  344MOL0     H46385   2.616   9.340   7.558  0.6537 -1.3430 -2.1223
  344MOL0     H46386   2.720   9.362   7.704  0.7212 -0.1913 -0.3408
  344MOL0     H46387   2.820   9.122   7.614  0.4037  0.9362 -1.2492
  344MOL0     H46388   2.717   9.144   7.471  2.3609 -0.4145 -1.9658
  344MOL0     H46389   2.915   9.336   7.571  3.5551  0.9239 -1.4141
  344MOL0     H46390   2.818   9.351   7.422 -2.4141 -0.4109  1.7171
  344MOL0     H46391   2.906   9.221   7.201 -0.0158  0.8074 -0.6849
  344MOL0     H46392   3.095   9.039   7.086  0.5195 -0.6429  3.2780
  344MOL0     H46393   3.134   9.201   7.049 -0.1376  0.6193  1.0430
  344MOL0     H46394   3.318   8.987   7.180 -0.3449  1.0701  2.6344
  344MOL0     H46395   3.358   9.157   7.166 -3.2629  1.6438 -0.9729
  344MOL0     H46396   3.365   9.172   6.936 -0.0575 -0.4117 -0.7383
  344MOL0     H46397   3.286   9.010   6.911 -0.7301  1.6818 -0.0834
  344MOL0     H46398   3.534   9.029   6.868 -1.9151  0.5061 -0.3775
  344MOL0     H46399   3.471   8.889   6.945 -2.0462 -0.2396 -2.1961
  344MOL0     H46400   3.674   8.809   6.939 -1.6839  1.0313  0.5847
  344MOL0     H46401   3.797   8.610   6.899  2.3377 -1.5106 -0.6805
  344MOL0     H46402   3.958   8.604   6.965 -0.3936 -1.7273 -2.1650
  344MOL0     H46403   3.817   8.520   7.047  0.9311 -0.9034 -1.1671
  344MOL0     H46404   4.245   8.546   7.286 -4.1865  1.0305  0.4501
  344MOL0     H46405   4.443   8.480   7.450 -1.1020  0.1434 -2.1472
  344MOL0     H46406   4.576   8.758   7.728  2.1938 -0.0447 -1.1103
  344MOL0     H46407   4.639   8.617   7.809 -1.1302 -0.0522  1.1182
  344MOL0     H46408   4.712   8.536   7.566 -0.0435  0.8141 -0.9206
  344MOL0     H46409   4.649   8.696   7.509 -1.3697  0.6589  0.1451
  344MOL0     H46410   4.849   8.663   7.736 -1.1563  1.4608  0.3931
  344MOL0     H46411   4.825   8.809   7.650  0.4629  0.2599 -1.2260
  344MOL0     H46412   4.922   8.567   7.484 -3.2682  1.2793 -2.6587
  344MOL0     H46413   4.919   8.742   7.455 -1.3719  1.9668  1.3834
  344MOL0     H46414   5.087   8.587   7.662 -1.2080 -0.7473 -0.5459
  344MOL0     H46415   5.084   8.766   7.643 -1.5134 -1.0948  3.0654
  344MOL0     H46416   5.201   8.543   7.448  2.3388 -0.4883  1.3422
  344MOL0     H46417   5.157   8.699   7.383  2.6844 -0.6825 -1.3866
  344MOL0     H46418   5.330   8.627   7.607  1.9674  1.8691  1.9447
  344MOL0     H46419   5.287   8.794   7.591 -0.5124 -1.7819  1.6536
  344MOL0     H46420   5.403   8.601   7.382 -0.8751 -0.4685  0.2324
  344MOL0     H46421   5.512   8.714   7.484  1.2858  3.8289 -1.8999
  344MOL0     H46422   4.320   8.777   7.722 -0.1728  0.2954 -0.3326
  344MOL0     H46423   4.146   8.849   7.570  0.0657 -1.3729  1.0468
  344MOL0     H46424   3.933   8.939   7.334  0.3353  1.1023 -0.1134
  344MOL0     H46425   3.731   9.062   7.277  0.1002  0.3093  0.9029
  344MOL0     H46426   2.537   8.646   7.906  2.7043  0.1115  1.8234
  344MOL0     H46427   2.626   8.428   7.827  0.4320  1.9735  2.3357
  344MOL0     H46428   2.806   8.188   7.765 -0.5019  0.3939 -0.4146
  344MOL0     H46429   2.877   7.970   7.829 -1.1528  0.9105  0.2177
  344MOL0     H46430   2.971   7.771   7.847  2.8642 -0.7711  0.1333
  344MOL0     H46431   2.834   7.692   7.757  0.0591  1.0071 -1.6281
  344MOL0     H46432   3.128   7.599   7.775  0.2265 -0.0961  0.4265
  344MOL0     H46433   3.012   7.527   7.675 -0.7452  0.0365  1.1296
  344MOL0     H46434   2.930   7.543   7.978  1.8367 -0.8336  0.8247
  344MOL0     H46435   3.054   7.430   7.917 -1.2865 -0.5997  1.2289
  344MOL0     H46436   2.914   7.332   7.775 -1.3140 -0.9585 -1.1552
  344MOL0     H46437   2.772   7.436   7.800 -1.0899 -2.7282 -0.1257
  344MOL0     H46438   2.718   7.153   8.106 -2.5425 -1.4187 -3.0650
  344MOL0     H46439   2.977   7.909   7.411 -3.8600 -3.1292  0.8741
  344MOL0     H46440   2.897   8.121   7.356 -0.6028  0.1344  0.4510
  345MOL0     O46441   8.091   4.810  10.315 -0.8103 -0.4108  0.4484
  345MOL0     C46442   8.075   4.904  10.237  0.1258 -0.3286 -0.5419
  345MOL0     O46443   8.158   4.928  10.137 -0.3562 -0.6180  0.2489
  345MOL0     C46444   8.273   4.859  10.118 -0.4408 -0.4999 -0.0063
  345MOL0     C46445   8.269   4.735  10.059 -1.0366 -0.0739 -0.2801
  345MOL0     C46446   8.393   4.676  10.025 -0.2315 -0.2399 -0.4026
  345MOL0     C46447   8.516   4.732  10.056  0.4161 -0.0278  1.1525
  345MOL0     O46448   8.638   4.682  10.003 -0.0313  0.0863 -0.2685
  345MOL0     C46449   8.637   4.547   9.956 -0.2318 -0.3697 -0.2529
  345MOL0     C46450   8.769   4.478   9.896  0.3327  0.1419 -0.4200
  345MOL0     C46451   8.872   4.567   9.836 -0.2005 -0.6914  0.5667
  345MOL0     C46452   8.969   4.477   9.760 -0.2823 -0.6075  0.7845
  345MOL0     C46453   9.074   4.560   9.701 -0.3786  0.5672  0.2734
  345MOL0     C46454   9.178   4.474   9.632 -0.8805 -0.4931 -0.1798
  345MOL0     C46455   9.261   4.536   9.524 -0.7654  0.7200  0.0681
  345MOL0     C46456   9.402   4.488   9.519  0.2632  0.0895  0.3920
  345MOL0     N46457   9.483   4.547   9.629 -0.8570  0.0841  0.2644
  345MOL0     C46458   9.589   4.636   9.602  0.6197 -0.3490  0.1499
  345MOL0     C46459   9.677   4.618   9.704 -0.0509  0.0350  0.5182
  345MOL0     C46460   9.808   4.680   9.723  0.4434 -1.0292  0.0460
  345MOL0     C46461   9.917   4.586   9.654  0.2379  0.1812 -0.5359
  345MOL0     C46462  10.031   4.668   9.595 -0.5693 -0.0906 -1.6113
  345MOL0     C46463  10.129   4.728   9.690  0.2409 -0.3081  0.2089
  345MOL0     O46464  10.247   4.766   9.615  0.2324  0.1030  0.7421
  345MOL0     C46465  10.359   4.792   9.689 -0.5418  0.3275  0.1362
  345MOL0     C46466  10.482   4.778   9.622  0.3058 -0.1040 -0.0571
  345MOL0     C46467  10.602   4.809   9.690  0.4957  0.5002  0.0622
  345MOL0     C46468  10.722   4.808   9.607  0.0578  0.4156  0.2948
  345MOL0     C46469  10.607   4.854   9.822  0.8863 -0.0398 -0.1136
  345MOL0     C46470  10.732   4.892   9.896 -0.7470  0.6755  0.3657
  345MOL0     O46471  10.716   4.921  10.028  0.4590  0.4951 -0.0272
  345MOL0     C46472  10.815   4.940  10.111  0.3127  0.4154 -0.3383
  345MOL0     C46473  10.925   5.023  10.091 -0.3631  0.5999 -0.7501
  345MOL0     C46474  11.013   5.048  10.195  0.0119 -0.1216 -0.6258
  345MOL0     C46475  11.011   4.985  10.318  0.1066 -0.9637  0.1757
  345MOL0     O46476  11.101   5.018  10.422 -0.7047 -0.0405  0.1599
  345MOL0     C46477  11.064   4.999  10.561 -0.5129 -0.3986 -0.4419
  345MOL0     C46478  11.175   5.030  10.658  0.3033 -0.0997  0.0774
  345MOL0     C46479  11.155   4.992  10.804 -0.0767 -0.2236  0.7540
  345MOL0     C46480  11.281   5.047  10.878 -0.6533 -0.0908  0.1674
  345MOL0     C46481  11.274   5.026  11.027 -0.1768  0.2583  0.0511
  345MOL0     C46482  11.415   5.036  11.090 -0.5391  0.3663 -0.2063
  345MOL0     C46483  11.404   5.080  11.240  0.0994 -0.1930  1.1710
  345MOL0     C46484  11.351   4.971  11.334  0.0548 -1.0774  0.0002
  345MOL0    Cl46485  11.461   4.837  11.322  0.0188  0.0144  0.0079
  345MOL0     C46486  10.906   4.891  10.334 -0.2551 -0.4630  0.0020
  345MOL0     C46487  10.805   4.870  10.239  0.5528 -0.0998  0.7355
  345MOL0     O46488  10.840   4.908   9.837  0.4515 -0.3568  0.3561
  345MOL0     C46489  10.484   4.857   9.888 -0.8763  0.5469  0.1326
  345MOL0     C46490  10.364   4.833   9.823 -0.1594  0.0409  0.5191
  345MOL0     N46491   9.632   4.520   9.790 -0.0173  0.2076 -0.2871
  345MOL0     N46492   9.520   4.478   9.739 -0.7253  0.0631  0.1206
  345MOL0     C46493   8.511   4.856  10.124 -0.2495  0.0360  0.0603
  345MOL0     C46494   8.394   4.918  10.148 -0.4883  0.0885 -1.1295
  345MOL0     C46495   7.959   4.995  10.253 -0.0244 -0.9245 -0.1120
  345MOL0     C46496   7.851   4.964  10.330 -0.0843  0.5466  0.3856
  345MOL0     C46497   7.727   5.027  10.326 -0.5288 -0.4653 -0.6378
  345MOL0     C46498   7.714   5.148  10.246  0.2693 -0.4347 -0.8576
  345MOL0     O46499   7.602   5.231  10.238 -0.3961  0.8858  0.0484
  345MOL0     C46500   7.476   5.181  10.300  0.0580 -0.2064  0.5631
  345MOL0     C46501   7.370   5.290  10.293  0.6316 -0.3700  0.2872
  345MOL0     C46502   7.319   5.290  10.148  0.5725  0.1673 -0.2078
  345MOL0     C46503   7.207   5.388  10.112 -0.4799 -0.3128  0.0275
  345MOL0     C46504   7.138   5.355   9.981 -0.3634 -0.2562  0.3276
  345MOL0     C46505   7.096   5.345   9.871 -0.1758 -0.4545  0.1104
  345MOL0     C46506   7.837   5.193  10.185 -0.3419  0.1859 -1.0880
  345MOL0     C46507   7.950   5.117  10.188 -0.5476  1.1059  0.7265
  345MOL0     H46508   8.169   4.701  10.034 -0.8301 -0.4044 -0.6658
  345MOL0     H46509   8.392   4.580   9.975  0.7477 -0.6013  0.2391
  345MOL0     H46510   8.600   4.485  10.039 -0.9498 -1.0316 -1.0479
  345MOL0     H46511   8.564   4.538   9.875 -1.3432  4.1545 -0.0109
  345MOL0     H46512   8.818   4.418   9.973  1.7047  0.7442 -0.7873
  345MOL0     H46513   8.732   4.403   9.824  0.9489 -0.2301 -0.3577
  345MOL0     H46514   8.832   4.633   9.759 -0.2769 -0.6805  0.6160
  345MOL0     H46515   8.918   4.629   9.913  0.8570 -1.0179  0.2188
  345MOL0     H46516   9.010   4.403   9.829 -0.4919  0.7675  2.4423
  345MOL0     H46517   8.920   4.433   9.673  2.2749  1.9819 -2.2181
  345MOL0     H46518   9.036   4.629   9.625 -0.5292 -0.1422 -0.3012
  345MOL0     H46519   9.121   4.619   9.780 -0.1961 -1.2719  1.5930
  345MOL0     H46520   9.245   4.432   9.708  0.3793  0.3005 -0.8190
  345MOL0     H46521   9.125   4.387   9.592 -1.1366 -1.1726  1.5660
  345MOL0     H46522   9.218   4.485   9.437  3.2515  1.5742 -2.7169
  345MOL0     H46523   9.249   4.645   9.521 -1.0177  0.6813 -0.7824
  345MOL0     H46524   9.450   4.532   9.432 -0.6905  1.5410  0.5614
  345MOL0     H46525   9.414   4.379   9.521  3.1615  0.3556  1.8253
  345MOL0     H46526   9.597   4.711   9.524  0.0833 -0.8235 -0.3661
  345MOL0     H46527   9.800   4.779   9.678 -1.9418 -1.7559 -1.2854
  345MOL0     H46528   9.836   4.698   9.827  3.2563 -0.7817 -0.6679
  345MOL0     H46529   9.860   4.547   9.569  1.0476  3.4111 -2.7579
  345MOL0     H46530   9.946   4.513   9.729 -1.1078 -0.1250 -0.2812
  345MOL0     H46531   9.991   4.742   9.525 -0.6319 -1.0002 -2.5668
  345MOL0     H46532  10.090   4.598   9.535  4.1091  0.6701  1.5401
  345MOL0     H46533  10.153   4.653   9.766  0.5639  0.4307  0.8541
  345MOL0     H46534  10.079   4.813   9.737 -1.6948 -0.6738 -1.0650
  345MOL0     H46535  10.473   4.734   9.523  0.6114 -2.0982  0.7436
  345MOL0     H46536  10.793   4.744   9.660  0.3417 -0.7474 -1.4122
  345MOL0     H46537  10.706   4.765   9.507  1.0077 -0.8196  0.6466
  345MOL0     H46538  10.764   4.907   9.591  1.1748 -0.1151 -0.1505
  345MOL0     H46539  10.942   5.065   9.992 -1.1521  0.2544 -1.0403
  345MOL0     H46540  11.098   5.114  10.181  0.6852 -0.1841  2.4259
  345MOL0     H46541  10.984   5.068  10.589 -0.0723 -1.2068  3.3176
  345MOL0     H46542  11.021   4.898  10.566 -2.7317  0.4474 -1.2134
  345MOL0     H46543  11.267   4.981  10.624 -1.1421 -1.2341 -2.4843
  345MOL0     H46544  11.192   5.138  10.652 -0.7927  0.2838  2.5740
  345MOL0     H46545  11.153   4.883  10.816  1.9153 -1.2336 -4.9174
  345MOL0     H46546  11.065   5.039  10.844  0.4019 -0.9981  2.8506
  345MOL0     H46547  11.375   5.008  10.838 -0.2649  0.3515  0.6323
  345MOL0     H46548  11.283   5.154  10.853  2.9374 -0.4041 -1.5462
  345MOL0     H46549  11.239   4.924  11.042 -1.0777  0.9728  3.7751
  345MOL0     H46550  11.201   5.098  11.065  0.0242  1.2231 -1.2808
  345MOL0     H46551  11.467   4.940  11.083 -0.3017  0.5116 -0.4510
  345MOL0     H46552  11.473   5.110  11.034  0.6701 -0.2825  0.1651
  345MOL0     H46553  11.345   5.170  11.262 -1.4515 -0.5153 -1.2869
  345MOL0     H46554  11.506   5.108  11.266  0.1544 -1.0276  1.9184
  345MOL0     H46555  11.249   4.940  11.313 -0.4540  0.1334  0.5770
  345MOL0     H46556  11.342   5.023  11.430 -1.7846 -0.0238 -0.7056
  345MOL0     H46557  10.906   4.827  10.421 -0.8879 -0.4704  0.0050
  345MOL0     H46558  10.718   4.807  10.247 -0.5703  1.3667  0.5174
  345MOL0     H46559  10.494   4.892   9.990 -1.1278  1.1388 -0.0407
  345MOL0     H46560  10.270   4.838   9.877 -0.4558  1.3821 -0.0686
  345MOL0     H46561   8.601   4.907  10.157 -1.2774  1.7211  0.3753
  345MOL0     H46562   8.380   5.014  10.197 -0.3779  0.9462 -2.7095
  345MOL0     H46563   7.844   4.867  10.378  2.8579 -0.2664 -0.5437
  345MOL0     H46564   7.645   4.982  10.381 -2.6806 -0.5381 -3.6660
  345MOL0     H46565   7.446   5.090  10.248  0.2507 -0.0709  0.2089
  345MOL0     H46566   7.500   5.151  10.402  2.5836 -0.4182 -0.0331
  345MOL0     H46567   7.402   5.393  10.314 -1.1323  1.1416 -3.4724
  345MOL0     H46568   7.296   5.261  10.368  1.4957  0.5554  1.5517
  345MOL0     H46569   7.280   5.190  10.126  2.7921 -0.8106 -0.0182
  345MOL0     H46570   7.396   5.311  10.072 -0.5524 -0.6609 -1.6387
  345MOL0     H46571   7.238   5.492  10.103  0.7048 -0.6263  0.2261
  345MOL0     H46572   7.130   5.388  10.190 -0.5365  1.3193  0.0056
  345MOL0     H46573   7.047   5.341   9.776  0.9861  0.3800 -0.5402
  345MOL0     H46574   7.849   5.282  10.124  0.7752  0.6324 -0.2417
  345MOL0     H46575   8.034   5.166  10.139  0.3307  1.9640  2.9376
  346MOL0     O46576   9.161   7.539   6.514 -0.3546 -0.2643  0.3568
  346MOL0     C46577   9.238   7.508   6.417  0.1457 -0.1702 -0.5085
  346MOL0     O46578   9.199   7.435   6.304  0.3627  0.4525  0.8304
  346MOL0     C46579   9.061   7.411   6.294  0.0052  0.1008  0.1064
  346MOL0     C46580   8.973   7.520   6.276 -0.7120 -0.0664  0.1033
  346MOL0     C46581   8.834   7.499   6.247 -0.3615 -0.0137  0.2002
  346MOL0     C46582   8.785   7.366   6.232  0.3800 -0.1731 -0.3210
  346MOL0     O46583   8.651   7.341   6.208  0.4016  0.1565  0.0120
  346MOL0     C46584   8.548   7.441   6.208  1.0794 -0.4987 -0.6933
  346MOL0     C46585   8.427   7.391   6.298 -0.0002 -0.3578 -0.3424
  346MOL0     C46586   8.308   7.474   6.263 -0.0847 -1.0112  0.0271
  346MOL0     C46587   8.179   7.425   6.330 -0.4798  0.0116 -1.0546
  346MOL0     C46588   8.068   7.528   6.315  0.2563  0.5112  1.0042
  346MOL0     C46589   7.934   7.479   6.360 -0.5943 -0.2392  0.5428
  346MOL0     C46590   7.812   7.567   6.326 -0.7845  0.4360 -0.3472
  346MOL0     C46591   7.793   7.623   6.177 -0.0808 -0.3708  0.4717
  346MOL0     N46592   7.656   7.686   6.171  0.3819 -1.1517 -1.1351
  346MOL0     C46593   7.636   7.817   6.172  0.2241  0.6198  0.3432
  346MOL0     C46594   7.499   7.832   6.197 -0.9284  0.2756 -0.0900
  346MOL0     C46595   7.425   7.960   6.206  0.0460 -0.0789  0.8520
  346MOL0     C46596   7.318   7.963   6.311  0.1879  0.0610 -0.9062
  346MOL0     C46597   7.222   8.078   6.295  0.7568 -0.5841  0.3128
  346MOL0     C46598   7.107   8.080   6.391  0.3818  0.9602 -0.3603
  346MOL0     O46599   7.033   7.955   6.384  0.2009 -0.1194 -0.1768
  346MOL0     C46600   6.922   7.954   6.301 -0.8306 -0.1192 -0.4968
  346MOL0     C46601   6.849   7.835   6.294  0.1825 -0.2957 -0.5676
  346MOL0     C46602   6.745   7.812   6.214 -0.0812  0.1311  0.2555
  346MOL0     C46603   6.688   7.668   6.220 -0.3531  0.5039  0.5035
  346MOL0     C46604   6.705   7.911   6.127  0.4166 -0.3180  0.1348
  346MOL0     C46605   6.583   7.898   6.035 -0.8042  0.4518 -0.6676
  346MOL0     O46606   6.461   7.953   6.065 -0.5297  1.4444 -0.3473
  346MOL0     C46607   6.450   8.033   6.179 -0.1767 -0.2607  0.2899
  346MOL0     C46608   6.466   8.175   6.175 -0.6952 -0.1767  0.1750
  346MOL0     C46609   6.423   8.247   6.290 -0.2769 -0.5369  0.0808
  346MOL0     C46610   6.353   8.191   6.398 -0.3288 -0.5200  0.0997
  346MOL0     O46611   6.293   8.268   6.496  0.0619  0.5164 -0.0088
  346MOL0     C46612   6.156   8.283   6.478 -0.5484  0.0167 -0.1725
  346MOL0     C46613   6.091   8.368   6.589 -0.5317  0.3846 -0.0842
  346MOL0     C46614   6.097   8.297   6.724 -0.3613  0.6617 -0.3903
  346MOL0     C46615   6.222   8.331   6.808  0.1421  0.3674 -0.5476
  346MOL0     C46616   6.202   8.283   6.958  0.4955 -0.7145 -0.3563
  346MOL0     C46617   6.306   8.345   7.047  0.1530  0.0698  0.3188
  346MOL0     C46618   6.433   8.260   7.047 -0.1849  0.4906 -0.4259
  346MOL0     C46619   6.533   8.310   7.150  0.1722  0.7843 -0.9041
  346MOL0    Cl46620   6.442   8.287   7.311  0.3777  0.3485 -0.4405
  346MOL0     C46621   6.352   8.052   6.400 -0.4470  0.1828  0.0027
  346MOL0     C46622   6.394   7.975   6.295 -0.0289  0.6143  0.5467
  346MOL0     O46623   6.615   7.845   5.932 -0.0942 -0.5114 -0.1556
  346MOL0     C46624   6.778   8.028   6.117  0.3519 -0.6408  0.1738
  346MOL0     C46625   6.882   8.056   6.208 -0.9639  0.2537 -0.1576
  346MOL0     N46626   7.440   7.713   6.181 -0.0645  0.1850 -0.6677
  346MOL0     N46627   7.536   7.627   6.171 -0.1484 -0.7954 -0.2667
  346MOL0     C46628   8.867   7.260   6.259  0.5960 -0.7026 -1.2590
  346MOL0     C46629   9.007   7.283   6.278 -0.6617 -0.1367  0.2734
  346MOL0     C46630   9.375   7.563   6.423  0.3266  0.0078  0.3194
  346MOL0     C46631   9.426   7.606   6.546 -0.0858 -0.0063 -0.4501
  346MOL0     C46632   9.559   7.661   6.550 -0.8477  1.3892  0.2569
  346MOL0     C46633   9.639   7.657   6.434 -0.8328  0.9522  0.1842
  346MOL0     O46634   9.774   7.693   6.449 -0.1621 -0.1073 -0.0541
  346MOL0     C46635   9.873   7.599   6.413 -0.4206  0.5304  0.6616
  346MOL0     C46636   9.950   7.650   6.295  0.1979  0.2272  0.7786
  346MOL0     C46637  10.042   7.765   6.317 -1.1229 -0.3399 -0.8776
  346MOL0     C46638  10.133   7.813   6.202 -0.0642 -0.4493  0.5813
  346MOL0     C46639  10.235   7.905   6.248  0.4230  0.2989  0.6045
  346MOL0     C46640  10.322   7.983   6.269 -0.1052  0.8357 -0.0136
  346MOL0     C46641   9.591   7.608   6.312  0.7464 -1.0245  0.1833
  346MOL0     C46642   9.453   7.561   6.303 -0.2246  0.7581 -0.3659
  346MOL0     H46643   9.008   7.623   6.283 -0.4369 -0.0878 -0.8023
  346MOL0     H46644   8.780   7.587   6.214  1.2225  0.5800 -0.9312
  346MOL0     H46645   8.575   7.539   6.247 -1.1461  0.0151 -0.3356
  346MOL0     H46646   8.512   7.442   6.105  2.4320 -1.8528 -1.2272
  346MOL0     H46647   8.409   7.287   6.268  0.6986 -0.5772 -0.0248
  346MOL0     H46648   8.445   7.406   6.405  0.7576 -1.0769 -0.3571
  346MOL0     H46649   8.327   7.581   6.277 -1.6006 -0.7268  0.1272
  346MOL0     H46650   8.292   7.460   6.156 -0.4058  1.3777 -0.2968
  346MOL0     H46651   8.157   7.324   6.295  0.8788  0.0683 -2.1449
  346MOL0     H46652   8.214   7.429   6.433 -1.3316  4.7866 -0.7442
  346MOL0     H46653   8.087   7.609   6.386  1.3454 -1.1496  2.7138
  346MOL0     H46654   8.065   7.568   6.213 -0.5766  0.7549  1.1232
  346MOL0     H46655   7.927   7.377   6.321 -2.5995  0.8993 -2.4469
  346MOL0     H46656   7.942   7.475   6.469  2.5436  0.9740  0.4326
  346MOL0     H46657   7.732   7.500   6.360 -2.9752  1.9085 -2.2731
  346MOL0     H46658   7.824   7.651   6.394 -1.3595 -0.1059  0.4436
  346MOL0     H46659   7.811   7.551   6.097 -0.1066 -0.1029  0.2206
  346MOL0     H46660   7.866   7.699   6.149 -1.5577  0.1657 -2.1882
  346MOL0     H46661   7.700   7.904   6.158 -0.2755  0.8009 -0.9765
  346MOL0     H46662   7.489   8.046   6.227 -2.4518  2.4346 -0.9954
  346MOL0     H46663   7.385   7.983   6.107  3.3433  2.5698 -0.0566
  346MOL0     H46664   7.365   7.964   6.410  0.0489 -1.1700 -0.8164
  346MOL0     H46665   7.255   7.875   6.294 -0.1778  0.5474 -2.1950
  346MOL0     H46666   7.166   8.064   6.203 -0.4520 -0.8252  1.0683
  346MOL0     H46667   7.273   8.175   6.293 -0.2507 -0.0531  0.0337
  346MOL0     H46668   7.038   8.165   6.387 -1.1766 -0.2388 -0.0614
  346MOL0     H46669   7.153   8.083   6.490 -2.6338  3.4085  1.1511
  346MOL0     H46670   6.892   7.751   6.347 -0.3277 -0.8116 -0.9609
  346MOL0     H46671   6.646   7.649   6.319 -1.1449  1.0613  0.2876
  346MOL0     H46672   6.604   7.657   6.151  0.1654  1.1588 -0.2567
  346MOL0     H46673   6.765   7.596   6.192 -0.7652 -0.3812  1.6010
  346MOL0     H46674   6.498   8.220   6.081  0.3667  0.7048  0.9362
  346MOL0     H46675   6.424   8.356   6.290 -0.9320 -0.3011  4.9625
  346MOL0     H46676   6.146   8.332   6.380  1.1752  0.9066  0.0689
  346MOL0     H46677   6.112   8.183   6.477 -0.5945  0.0059 -2.4135
  346MOL0     H46678   6.126   8.472   6.594  2.0790 -0.4232  0.1616
  346MOL0     H46679   5.986   8.375   6.560 -0.6374  1.0372  0.4155
  346MOL0     H46680   6.090   8.189   6.708  2.1700  0.5894 -1.4289
  346MOL0     H46681   6.004   8.323   6.775 -0.3803  1.7658 -0.9606
  346MOL0     H46682   6.309   8.283   6.763  1.7351  0.7805  1.9078
  346MOL0     H46683   6.228   8.440   6.802  0.2708  0.4765  1.1263
  346MOL0     H46684   6.209   8.174   6.970  4.1433 -0.8084 -1.9131
  346MOL0     H46685   6.110   8.325   7.000  1.3342  1.6365 -0.7583
  346MOL0     H46686   6.329   8.441   6.999 -2.2308  0.2727 -0.5493
  346MOL0     H46687   6.269   8.372   7.146  4.5482  1.5978  1.7921
  346MOL0     H46688   6.480   8.261   6.948 -0.1002 -1.4452 -0.4377
  346MOL0     H46689   6.411   8.155   7.067 -0.2467  0.5489 -0.1883
  346MOL0     H46690   6.569   8.411   7.125  1.2422  0.4007 -0.9582
  346MOL0     H46691   6.616   8.239   7.152 -1.3948 -1.1698 -2.0328
  346MOL0     H46692   6.311   8.007   6.489  1.0838  0.3468  0.8237
  346MOL0     H46693   6.393   7.866   6.299  1.6642  0.2892 -3.2539
  346MOL0     H46694   6.743   8.109   6.054 -3.1705  0.6047  3.3972
  346MOL0     H46695   6.926   8.155   6.200  1.9314 -0.6566  2.5606
  346MOL0     H46696   8.831   7.159   6.241  5.0661 -2.7223 -0.3387
  346MOL0     H46697   9.077   7.200   6.289  0.6137  1.0757  1.8448
  346MOL0     H46698   9.366   7.596   6.635  3.4865 -1.1689  2.0649
  346MOL0     H46699   9.596   7.686   6.649 -2.1390  0.5707  0.9773
  346MOL0     H46700   9.949   7.593   6.492 -0.3431  0.4458  0.5801
  346MOL0     H46701   9.838   7.496   6.401  1.0087  0.2376 -1.6035
  346MOL0     H46702   9.874   7.676   6.220 -1.3046 -1.2092  1.7160
  346MOL0     H46703  10.021   7.575   6.259  0.7382 -0.0543  2.3794
  346MOL0     H46704  10.115   7.729   6.391  0.2768 -1.5999 -2.7938
  346MOL0     H46705   9.986   7.848   6.362 -0.1731 -0.4895  0.6811
  346MOL0     H46706  10.070   7.864   6.128 -0.4190  1.0616  1.8828
  346MOL0     H46707  10.173   7.724   6.152  0.1142  0.1336 -0.3346
  346MOL0     H46708  10.405   8.046   6.293  2.4347 -2.7818  1.6409
  346MOL0     H46709   9.658   7.603   6.227 -1.7153  1.0680 -2.0501
  346MOL0     H46710   9.409   7.525   6.210 -0.2597  0.3198 -0.1822
  347MOL0     O46711   2.270   0.262  10.966 -0.2893 -0.0245  0.1675
  347MOL0     C46712   2.191   0.210  10.886  0.9038 -0.9468  0.9735
  347MOL0     O46713   2.226   0.169  10.762  0.2476  0.2350  0.5834
  347MOL0     C46714   2.361   0.164  10.733 -0.3053  0.3245  1.0960
  347MOL0     C46715   2.454   0.092  10.809 -0.2263 -0.1527  1.3130
  347MOL0     C46716   2.589   0.097  10.783  0.9683  0.1286  0.1344
  347MOL0     C46717   2.632   0.153  10.666  0.1415  0.0922 -0.5758
  347MOL0     O46718   2.769   0.133  10.640 -0.1765 -0.3542  0.0383
  347MOL0     C46719   2.821   0.228  10.537  0.0087 -0.6531  0.1002
  347MOL0     C46720   2.972   0.211  10.561 -0.1121 -0.3607  0.0223
  347MOL0     C46721   3.037   0.349  10.517 -0.4129 -0.2554  0.8720
  347MOL0     C46722   3.042   0.362  10.365 -0.5591  0.0601  0.0104
  347MOL0     C46723   3.079   0.510  10.330 -0.7816  0.6073 -0.9029
  347MOL0     C46724   3.221   0.547  10.380  0.4965 -0.2226 -0.1638
  347MOL0     C46725   3.252   0.681  10.321  0.4350  0.0866 -0.3545
  347MOL0     C46726   3.287   0.667  10.177  0.0112  0.1286  0.6666
  347MOL0     N46727   3.373   0.548  10.140  0.2059  0.3968 -0.0604
  347MOL0     C46728   3.508   0.535  10.151  0.1585 -0.0418  0.0068
  347MOL0     C46729   3.531   0.413  10.092 -0.3973  0.0411  0.0087
  347MOL0     C46730   3.666   0.353  10.083 -0.0519  0.3197  0.9474
  347MOL0     C46731   3.686   0.231  10.174 -0.4476  0.0009  1.0688
  347MOL0     C46732   3.670   0.269  10.319  0.6459  0.4788 -1.0918
  347MOL0     C46733   3.764   0.369  10.384  0.4757  0.3194  0.6935
  347MOL0     O46734   3.896   0.333  10.353  0.0275  0.7810 -0.0686
  347MOL0     C46735   3.965   0.243  10.432  0.2499  0.2052 -0.6613
  347MOL0     C46736   4.098   0.238  10.400 -0.3469  0.1933 -0.7555
  347MOL0     C46737   4.189   0.154  10.470  0.7882 -0.2577  0.2112
  347MOL0     C46738   4.326   0.161  10.426 -0.6495  0.3734  0.5339
  347MOL0     C46739   4.138   0.067  10.576  0.0725 -0.6264  0.0182
  347MOL0     C46740   4.224  -0.022  10.659 -0.1802 -0.2665 -0.5864
  347MOL0     O46741   4.157  -0.131  10.716  0.2117 -0.2452 -0.2933
  347MOL0     C46742   4.216  -0.217  10.810  0.2678  0.4653  0.8669
  347MOL0     C46743   4.133  -0.317  10.852 -0.0929 -0.8121  0.3777
  347MOL0     C46744   4.175  -0.425  10.919  0.4173  0.0232 -0.2037
  347MOL0     C46745   4.310  -0.424  10.968 -0.0456  0.2444  0.7812
  347MOL0     O46746   4.356  -0.501  11.068  0.0388  0.1344 -0.2015
  347MOL0     C46747   4.266  -0.602  11.118 -0.5089  0.0076  0.7580
  347MOL0     C46748   4.303  -0.632  11.266  0.4324 -0.2187 -0.2036
  347MOL0     C46749   4.194  -0.710  11.331 -0.1251  0.7184 -0.8653
  347MOL0     C46750   4.210  -0.862  11.295  0.0203  0.7874  0.0449
  347MOL0     C46751   4.110  -0.942  11.385  0.0790  0.2433 -0.1411
  347MOL0     C46752   4.118  -1.090  11.379  1.1097 -0.9557 -0.0074
  347MOL0     C46753   4.032  -1.161  11.484  0.1427 -0.2210 -0.2011
  347MOL0     C46754   3.892  -1.180  11.435  0.1223 -0.4465  0.8316
  347MOL0    Cl46755   3.799  -1.042  11.373 -0.1301  0.0591 -0.4577
  347MOL0     C46756   4.390  -0.323  10.922 -1.2931 -0.7724 -0.4271
  347MOL0     C46757   4.353  -0.212  10.849 -0.0940  1.2396  0.6367
  347MOL0     O46758   4.327   0.027  10.698 -1.1330 -0.3460  0.1371
  347MOL0     C46759   4.000   0.077  10.605 -0.7264  0.1242 -0.6896
  347MOL0     C46760   3.919   0.164  10.538  0.3930  0.5167 -0.4951
  347MOL0     N46761   3.417   0.361  10.041  0.5685  0.1013 -0.7790
  347MOL0     N46762   3.324   0.441  10.077 -0.5116 -0.6903  0.0372
  347MOL0     C46763   2.543   0.210  10.576  0.3015 -0.7777 -0.1305
  347MOL0     C46764   2.409   0.215  10.612  0.9326  0.0502  0.4573
  347MOL0     C46765   2.046   0.204  10.920 -0.5482 -0.0443 -0.3571
  347MOL0     C46766   2.009   0.191  11.057 -0.1155  0.4373 -0.3525
  347MOL0     C46767   1.878   0.174  11.090  0.4187 -0.3607 -0.4071
  347MOL0     C46768   1.775   0.173  10.994 -1.1916 -0.3067 -0.2782
  347MOL0     O46769   1.642   0.167  11.021  0.2693 -0.4337  0.4250
  347MOL0     C46770   1.591   0.203  11.144  0.2586  0.2649 -0.9893
  347MOL0     C46771   1.497   0.085  11.194  0.3948  0.3048 -0.1570
  347MOL0     C46772   1.572  -0.039  11.242  0.9476  0.1960  0.4746
  347MOL0     C46773   1.482  -0.134  11.318 -0.5882  0.0463  0.2418
  347MOL0     C46774   1.370  -0.190  11.234  0.5003  0.2560  0.2323
  347MOL0     C46775   1.289  -0.231  11.145 -0.3597 -0.9018  0.1886
  347MOL0     C46776   1.806   0.168  10.864  0.2551 -1.0132  0.5898
  347MOL0     C46777   1.938   0.195  10.827  0.1620  0.2183  0.5701
  347MOL0     H46778   2.426   0.037  10.898  0.4739 -1.8580  0.5140
  347MOL0     H46779   2.665   0.049  10.844  2.0382  2.3261  0.6487
  347MOL0     H46780   2.796   0.215  10.431  0.2038  0.4523 -0.0977
  347MOL0     H46781   2.797   0.330  10.570 -0.2924  0.4924 -3.2176
  347MOL0     H46782   3.000   0.200  10.666 -0.7735  1.5445  0.4465
  347MOL0     H46783   3.019   0.130  10.504  0.8134 -0.3476  0.7512
  347MOL0     H46784   2.998   0.440  10.564  3.1687  2.6145 -1.1364
  347MOL0     H46785   3.144   0.346  10.538 -0.2098  3.1390  0.8143
  347MOL0     H46786   3.118   0.294  10.324 -0.7654 -0.5222  0.5886
  347MOL0     H46787   2.952   0.332  10.312  0.1255  1.5777 -2.1605
  347MOL0     H46788   3.077   0.522  10.221  0.6209  3.8556 -0.6844
  347MOL0     H46789   2.995   0.565  10.373  0.9020  1.3068  1.6869
  347MOL0     H46790   3.227   0.561  10.489  3.9946  4.0832 -0.6176
  347MOL0     H46791   3.292   0.470  10.350  1.5076  1.6782 -3.0938
  347MOL0     H46792   3.176   0.759  10.337  1.4394  0.6807  1.8970
  347MOL0     H46793   3.346   0.719  10.361 -0.4049  1.7303  0.1533
  347MOL0     H46794   3.339   0.757  10.143  1.3030 -0.9890 -0.4345
  347MOL0     H46795   3.195   0.672  10.117  0.7675  0.0457 -0.5406
  347MOL0     H46796   3.579   0.600  10.202  1.4617 -3.2807  2.7243
  347MOL0     H46797   3.673   0.322   9.979  4.5734  2.5219  0.3592
  347MOL0     H46798   3.743   0.430  10.096  0.2585  0.4850 -1.4366
  347MOL0     H46799   3.789   0.194  10.174 -1.1877 -2.2159  2.3851
  347MOL0     H46800   3.615   0.157  10.139  0.7374 -1.0812  0.8870
  347MOL0     H46801   3.695   0.174  10.369 -0.2776  1.6447  1.8207
  347MOL0     H46802   3.566   0.287  10.347  0.6607 -2.5807  1.6123
  347MOL0     H46803   3.743   0.392  10.489 -1.5398 -1.0556  0.6607
  347MOL0     H46804   3.747   0.463  10.331 -3.4388  1.6990  3.8998
  347MOL0     H46805   4.136   0.298  10.318  2.0428  2.0835  1.5777
  347MOL0     H46806   4.393   0.189  10.508  1.0815  0.0542 -0.7168
  347MOL0     H46807   4.353   0.071  10.370  1.6140  1.5696 -0.4081
  347MOL0     H46808   4.348   0.236  10.350  2.0005 -1.9628 -1.1710
  347MOL0     H46809   4.033  -0.323  10.809  0.2416 -1.2968 -0.3594
  347MOL0     H46810   4.110  -0.507  10.949  1.9694 -0.4350  2.2570
  347MOL0     H46811   4.160  -0.573  11.123 -0.2133  1.7369 -1.4538
  347MOL0     H46812   4.266  -0.685  11.047  0.1775 -0.2677  1.0658
  347MOL0     H46813   4.395  -0.692  11.255 -0.2083 -1.2787  0.0311
  347MOL0     H46814   4.326  -0.543  11.325  1.2000  0.5749 -1.6481
  347MOL0     H46815   4.093  -0.667  11.326  0.1590  1.6849  0.9463
  347MOL0     H46816   4.220  -0.701  11.437 -4.2631 -1.0264  0.4995
  347MOL0     H46817   4.182  -0.872  11.190 -2.0311  3.5023  0.2401
  347MOL0     H46818   4.314  -0.894  11.287  1.2294  4.6481 -4.3049
  347MOL0     H46819   4.012  -0.903  11.357  0.0234  0.3780  0.2264
  347MOL0     H46820   4.126  -0.903  11.486 -1.7526  3.3930 -0.9207
  347MOL0     H46821   4.099  -1.127  11.278  2.0163  3.4569 -2.0213
  347MOL0     H46822   4.223  -1.116  11.393  1.5380  0.5907 -0.1654
  347MOL0     H46823   4.038  -1.099  11.574  3.0577 -2.2442  1.1798
  347MOL0     H46824   4.073  -1.259  11.512 -0.3861  0.0373  1.5984
  347MOL0     H46825   3.836  -1.227  11.516 -4.5029  0.2337 -1.6300
  347MOL0     H46826   3.889  -1.255  11.355  0.6068  0.6915 -0.2951
  347MOL0     H46827   4.489  -0.314  10.966 -1.0652 -2.9312 -0.3871
  347MOL0     H46828   4.420  -0.132  10.820 -0.4857  0.8781 -1.4062
  347MOL0     H46829   3.962   0.016  10.686 -0.9436 -0.6022 -1.3237
  347MOL0     H46830   3.814   0.154  10.560  0.5622 -0.6589 -0.1433
  347MOL0     H46831   2.563   0.247  10.476 -0.8818 -1.8970 -0.8239
  347MOL0     H46832   2.331   0.258  10.550  0.5221 -1.2094  0.0602
  347MOL0     H46833   2.083   0.196  11.136  1.0275  1.0309 -1.4266
  347MOL0     H46834   1.861   0.164  11.197  2.4697 -0.2754 -0.0436
  347MOL0     H46835   1.663   0.228  11.222  0.1436 -3.1525  0.3961
  347MOL0     H46836   1.543   0.300  11.125 -4.1685 -1.2409  1.1009
  347MOL0     H46837   1.432   0.047  11.114  0.4116 -2.8160  1.1888
  347MOL0     H46838   1.426   0.121  11.269  0.2106  0.7198 -0.5262
  347MOL0     H46839   1.649   0.003  11.308  0.5816  3.1345 -0.8333
  347MOL0     H46840   1.612  -0.094  11.155 -2.1485 -0.1621 -0.8442
  347MOL0     H46841   1.425  -0.072  11.389 -0.7831  0.4476 -0.2613
  347MOL0     H46842   1.539  -0.214  11.367  1.5841  0.4676 -1.4484
  347MOL0     H46843   1.213  -0.250  11.072 -2.1473  1.3471  1.3338
  347MOL0     H46844   1.727   0.166  10.789  0.1661 -0.8343  0.6762
  347MOL0     H46845   1.950   0.207  10.720 -1.5563  1.4396  0.4874
  348MOL0     O46846   6.382   1.821   4.958  0.4961  0.5212  0.3574
  348MOL0     C46847   6.417   1.856   5.068  0.0675 -0.3609  0.1101
  348MOL0     O46848   6.331   1.860   5.180 -0.3586 -0.3558  0.4297
  348MOL0     C46849   6.194   1.826   5.163  0.1671 -0.3834 -0.5042
  348MOL0     C46850   6.123   1.760   5.053 -1.5219  0.3307 -0.1019
  348MOL0     C46851   5.998   1.733   5.062  0.0682 -0.1893  0.0811
  348MOL0     C46852   5.924   1.772   5.175 -0.2638 -0.0495 -0.5765
  348MOL0     O46853   5.792   1.749   5.172  0.3677 -0.0052  0.1141
  348MOL0     C46854   5.697   1.807   5.260 -0.8308  0.2286 -0.1473
  348MOL0     C46855   5.639   1.933   5.207 -0.4692  0.9763 -0.2621
  348MOL0     C46856   5.539   1.980   5.305 -0.6895  0.2264  0.0260
  348MOL0     C46857   5.502   2.132   5.287 -0.9671  0.7247  0.7183
  348MOL0     C46858   5.405   2.177   5.392  0.2830 -0.1886 -0.0986
  348MOL0     C46859   5.331   2.312   5.373  0.0141  0.6293 -0.1305
  348MOL0     C46860   5.428   2.431   5.380  0.2129  0.9334  0.5630
  348MOL0     C46861   5.363   2.560   5.410  0.5717  0.8329 -0.7327
  348MOL0     N46862   5.457   2.663   5.380  0.2171  0.3401  0.8161
  348MOL0     C46863   5.564   2.711   5.453 -0.1434  0.3466 -0.0361
  348MOL0     C46864   5.602   2.827   5.386  0.1049  0.2566  0.5063
  348MOL0     C46865   5.717   2.906   5.444 -0.8559 -0.1042 -0.2663
  348MOL0     C46866   5.846   2.886   5.355  0.6698 -0.9925 -0.2008
  348MOL0     C46867   5.925   2.759   5.404 -0.5809 -0.4890  0.5294
  348MOL0     C46868   6.013   2.780   5.531 -0.1846  0.4921  0.3333
  348MOL0     O46869   6.100   2.659   5.550 -0.5694  0.1301 -0.5565
  348MOL0     C46870   6.234   2.680   5.527  0.3604  1.6272  1.0548
  348MOL0     C46871   6.298   2.727   5.637  0.2600 -0.1797 -0.2899
  348MOL0     C46872   6.442   2.740   5.642  0.0500  0.4935  0.6399
  348MOL0     C46873   6.510   2.780   5.777  0.2798  0.2430  0.0571
  348MOL0     C46874   6.513   2.704   5.518  0.2479 -1.1008 -0.1046
  348MOL0     C46875   6.661   2.712   5.506  0.4146  0.2022  0.0770
  348MOL0     O46876   6.719   2.722   5.385 -0.2802 -0.4247 -0.1150
  348MOL0     C46877   6.846   2.775   5.372 -0.5363  0.2161  0.2326
  348MOL0     C46878   6.905   2.866   5.457  0.2031 -0.4767  0.6005
  348MOL0     C46879   7.039   2.906   5.447  0.3948  0.3526 -1.6913
  348MOL0     C46880   7.118   2.855   5.338 -0.0776  0.0171  0.2711
  348MOL0     O46881   7.254   2.878   5.313  0.0558  0.0857 -0.4138
  348MOL0     C46882   7.318   2.987   5.382  0.0563  0.0033 -0.3038
  348MOL0     C46883   7.376   2.942   5.519 -0.2611 -0.0190  0.8212
  348MOL0     C46884   7.433   3.057   5.605 -1.2292 -0.2441  0.0513
  348MOL0     C46885   7.423   3.020   5.751  0.4301  0.6134 -0.0086
  348MOL0     C46886   7.508   3.106   5.851  0.2022  0.0016 -0.1901
  348MOL0     C46887   7.487   3.259   5.846 -0.5424 -0.1222 -0.1433
  348MOL0     C46888   7.346   3.313   5.892  0.0317 -0.6668 -0.8009
  348MOL0     C46889   7.361   3.465   5.930 -0.1158 -0.5695 -0.1375
  348MOL0    Cl46890   7.426   3.562   5.803 -0.0364  0.1078  0.1469
  348MOL0     C46891   7.055   2.770   5.244 -0.0610  0.2825 -0.4051
  348MOL0     C46892   6.927   2.722   5.267  1.2997  0.2158  0.8177
  348MOL0     O46893   6.726   2.687   5.608  0.3953 -0.0059 -0.0944
  348MOL0     C46894   6.436   2.675   5.406 -0.7738 -0.3710  0.2215
  348MOL0     C46895   6.294   2.659   5.403 -0.4118 -0.4553  0.5259
  348MOL0     N46896   5.517   2.853   5.281  0.2034  0.1177  0.5590
  348MOL0     N46897   5.433   2.751   5.279 -0.2147  0.9048  0.2204
  348MOL0     C46898   5.982   1.843   5.278 -0.1519 -0.1810 -0.5393
  348MOL0     C46899   6.119   1.863   5.277  0.6133 -0.5347 -0.2615
  348MOL0     C46900   6.563   1.881   5.090 -0.1781  0.1277 -0.1706
  348MOL0     C46901   6.627   1.862   5.214 -0.4764  0.2483 -0.5062
  348MOL0     C46902   6.762   1.890   5.223  0.6808 -0.2143 -0.1652
  348MOL0     C46903   6.832   1.933   5.101  0.5314  0.4485  0.0165
  348MOL0     O46904   6.972   1.952   5.093 -0.5219  0.3025  0.4931
  348MOL0     C46905   7.047   1.966   5.209 -0.3937  0.2948 -0.2720
  348MOL0     C46906   7.194   1.944   5.186  0.9064 -0.2962  0.4627
  348MOL0     C46907   7.288   1.991   5.292 -0.0024 -0.2639  0.1052
  348MOL0     C46908   7.407   1.900   5.318  0.3678 -0.5708  0.5571
  348MOL0     C46909   7.363   1.775   5.377 -0.4113 -0.8497 -0.1977
  348MOL0     C46910   7.310   1.691   5.443 -0.7362 -0.5864 -0.0426
  348MOL0     C46911   6.761   1.942   4.977  0.0509  0.0324  0.0477
  348MOL0     C46912   6.627   1.918   4.972 -0.1048  0.6043 -0.2434
  348MOL0     H46913   6.171   1.727   4.962 -1.5011  0.7072 -0.2271
  348MOL0     H46914   5.945   1.673   4.989  0.0244  0.5743 -0.5212
  348MOL0     H46915   5.611   1.741   5.248 -1.5721  0.8791  1.3596
  348MOL0     H46916   5.724   1.807   5.366 -3.9266  2.6999  0.8037
  348MOL0     H46917   5.711   2.015   5.190  2.4575 -1.4187 -0.3285
  348MOL0     H46918   5.594   1.917   5.109 -2.7422 -3.1988  1.2269
  348MOL0     H46919   5.454   1.912   5.294  0.2502 -1.3002  1.6944
  348MOL0     H46920   5.574   1.958   5.406 -0.4807  2.1160  0.4086
  348MOL0     H46921   5.591   2.195   5.277  0.3729 -0.4141  4.0223
  348MOL0     H46922   5.445   2.135   5.194  0.4830 -0.5135 -0.2580
  348MOL0     H46923   5.314   2.119   5.376 -1.1745  1.6285  1.2712
  348MOL0     H46924   5.436   2.162   5.495 -2.4704 -0.8524  0.7148
  348MOL0     H46925   5.286   2.318   5.274  0.3418 -2.7962 -0.6248
  348MOL0     H46926   5.243   2.319   5.438 -2.0120 -1.3100 -2.4892
  348MOL0     H46927   5.509   2.416   5.452  0.4159 -0.9494  0.0047
  348MOL0     H46928   5.476   2.426   5.282 -0.3522 -3.8868  0.2871
  348MOL0     H46929   5.327   2.572   5.512  0.2361 -1.9850 -0.4573
  348MOL0     H46930   5.273   2.578   5.352 -0.2469 -0.6189  0.0448
  348MOL0     H46931   5.613   2.671   5.541  1.0283 -0.2611 -0.9403
  348MOL0     H46932   5.680   3.009   5.430  1.6971  0.7139 -1.5180
  348MOL0     H46933   5.734   2.888   5.551 -0.6988 -2.0968 -0.5958
  348MOL0     H46934   5.900   2.981   5.361 -1.1453  0.3591 -3.1005
  348MOL0     H46935   5.830   2.866   5.249  2.2838 -1.6839 -0.3524
  348MOL0     H46936   6.001   2.736   5.329  2.5370  1.5900  2.7769
  348MOL0     H46937   5.860   2.672   5.414  1.9668 -3.0723 -2.7604
  348MOL0     H46938   5.953   2.779   5.622 -1.0091  0.7182 -0.1991
  348MOL0     H46939   6.080   2.867   5.528  0.1338  0.2304 -0.2802
  348MOL0     H46940   6.260   2.750   5.736  2.3408  0.0678  0.5035
  348MOL0     H46941   6.461   2.872   5.809 -1.7168 -0.0800 -1.8378
  348MOL0     H46942   6.499   2.705   5.856 -1.4770 -0.9173 -1.2242
  348MOL0     H46943   6.615   2.808   5.766  0.1678  1.1424  1.1122
  348MOL0     H46944   6.856   2.917   5.539  1.5606 -0.0053  1.1452
  348MOL0     H46945   7.071   2.991   5.507 -0.9586  1.0362 -1.8897
  348MOL0     H46946   7.393   3.019   5.310 -1.0866  1.0890 -1.0458
  348MOL0     H46947   7.236   3.057   5.399 -0.9726 -0.9321 -1.2314
  348MOL0     H46948   7.290   2.899   5.571 -0.1503 -1.1760  0.0967
  348MOL0     H46949   7.455   2.868   5.505  2.5729  2.7414  1.1969
  348MOL0     H46950   7.380   3.149   5.576  1.9670  0.7996 -3.2241
  348MOL0     H46951   7.535   3.084   5.579 -1.5581 -0.6563 -1.8113
  348MOL0     H46952   7.315   3.013   5.766  0.7532 -1.4445  1.6997
  348MOL0     H46953   7.464   2.920   5.766 -0.1020  0.4328  0.2718
  348MOL0     H46954   7.614   3.080   5.844 -0.4262 -3.1631  0.3744
  348MOL0     H46955   7.475   3.068   5.949  1.2160  1.5584  0.8056
  348MOL0     H46956   7.558   3.305   5.916 -1.6409  1.4483 -0.0029
  348MOL0     H46957   7.516   3.289   5.745  2.6077 -2.8131 -0.2135
  348MOL0     H46958   7.314   3.259   5.982 -0.8011  2.1321  0.6815
  348MOL0     H46959   7.275   3.294   5.811  1.3480  0.3953 -2.2614
  348MOL0     H46960   7.432   3.477   6.012 -0.3097 -0.6549  0.0444
  348MOL0     H46961   7.261   3.497   5.962  0.7333  1.0800  0.9422
  348MOL0     H46962   7.109   2.728   5.160  1.0495 -0.3053  0.5605
  348MOL0     H46963   6.882   2.651   5.197  1.5276  1.0652 -0.2130
  348MOL0     H46964   6.487   2.653   5.313  1.7962  0.5670  1.3348
  348MOL0     H46965   6.242   2.654   5.308  0.8924 -2.9560 -0.1400
  348MOL0     H46966   5.932   1.859   5.373 -2.8101  1.5902 -2.0950
  348MOL0     H46967   6.172   1.907   5.360  1.3827 -2.0790  0.1179
  348MOL0     H46968   6.575   1.829   5.303 -1.4936 -1.7397 -1.7648
  348MOL0     H46969   6.798   1.870   5.323 -1.4608  0.3326  0.7721
  348MOL0     H46970   7.043   2.066   5.254 -0.7501  0.8298 -1.4682
  348MOL0     H46971   7.012   1.892   5.281 -0.6260  1.1962  0.5628
  348MOL0     H46972   7.223   1.998   5.096 -0.7209  0.1470  0.1584
  348MOL0     H46973   7.210   1.837   5.170  2.6571  0.1910 -1.4191
  348MOL0     H46974   7.236   1.980   5.387  1.4053  1.6800  1.1482
  348MOL0     H46975   7.325   2.091   5.267  1.0196 -0.1931  1.7701
  348MOL0     H46976   7.479   1.960   5.374 -0.2302  3.9740 -2.9481
  348MOL0     H46977   7.461   1.878   5.226 -0.4479 -0.6187  0.0821
  348MOL0     H46978   7.263   1.612   5.497 -0.8458 -2.6645 -2.9129
  348MOL0     H46979   6.812   1.972   4.886 -0.4436  0.2929 -0.1448
  348MOL0     H46980   6.578   1.933   4.877 -3.9417 -0.4096  1.3877
  349MOL0     O46981   1.687   3.372   8.073 -0.3821 -0.4116  0.0041
  349MOL0     C46982   1.679   3.275   7.995  0.3065 -0.1919  0.0631
  349MOL0     O46983   1.584   3.266   7.900  0.0127  0.2479  0.0321
  349MOL0     C46984   1.516   3.385   7.869 -0.2778  0.4616 -0.0555
  349MOL0     C46985   1.385   3.388   7.894  0.0348  0.5757  0.3605
  349MOL0     C46986   1.296   3.501   7.879 -0.5932  0.9302  0.8024
  349MOL0     C46987   1.360   3.610   7.827  0.2918 -0.4398  0.1588
  349MOL0     O46988   1.289   3.719   7.808 -0.0845  0.0880  0.3914
  349MOL0     C46989   1.260   3.791   7.927  0.3613  0.1469 -0.4219
  349MOL0     C46990   1.183   3.919   7.896  0.1506 -0.5080 -0.3078
  349MOL0     C46991   1.033   3.904   7.881  1.1157  0.7740  0.6383
  349MOL0     C46992   0.948   4.032   7.918  0.4172 -0.0077  0.3376
  349MOL0     C46993   0.796   4.012   7.893 -0.1049  0.1962  0.7077
  349MOL0     C46994   0.750   4.048   7.748 -0.0237  0.0867  0.6007
  349MOL0     C46995   0.601   4.055   7.731  0.0346 -0.0634 -0.1946
  349MOL0     C46996   0.561   4.116   7.595 -0.2755 -0.4229 -0.4025
  349MOL0     N46997   0.419   4.094   7.558 -0.0598 -0.2140  0.7439
  349MOL0     C46998   0.315   4.099   7.647  0.6980  1.0309 -0.2899
  349MOL0     C46999   0.218   4.023   7.586 -0.8124  0.4802  0.2975
  349MOL0     C47000   0.076   4.018   7.633 -0.1103  0.7863  0.1471
  349MOL0     C47001  -0.022   3.964   7.541  0.6142  0.7412 -0.9518
  349MOL0     C47002  -0.162   4.015   7.579  0.7647 -0.5340 -0.1509
  349MOL0     C47003  -0.288   3.948   7.518 -0.0698 -0.1170 -0.0240
  349MOL0     O47004  -0.316   3.834   7.593 -0.0987  0.3784  0.4017
  349MOL0     C47005  -0.444   3.799   7.592  0.1592 -0.3654 -0.1726
  349MOL0     C47006  -0.495   3.726   7.492 -0.0477 -0.2035  0.5832
  349MOL0     C47007  -0.628   3.670   7.488  0.1022 -0.9164  0.1792
  349MOL0     C47008  -0.681   3.593   7.373  0.0482 -0.4492 -0.3633
  349MOL0     C47009  -0.710   3.694   7.599  0.7363 -0.3325 -1.3254
  349MOL0     C47010  -0.853   3.647   7.616  0.3554 -0.0726 -0.5668
  349MOL0     O47011  -0.896   3.604   7.747  0.0957  0.3208 -0.4627
  349MOL0     C47012  -1.023   3.552   7.770 -0.9682 -0.1598  0.1082
  349MOL0     C47013  -1.042   3.440   7.853  0.2136 -0.5285  0.4570
  349MOL0     C47014  -1.167   3.374   7.868  0.8536 -0.3603  0.1450
  349MOL0     C47015  -1.277   3.438   7.810 -0.2067  0.2657  0.5067
  349MOL0     O47016  -1.389   3.375   7.821  0.2395  0.3252 -0.9493
  349MOL0     C47017  -1.441   3.353   7.693 -0.4321 -0.0837  0.1742
  349MOL0     C47018  -1.510   3.216   7.675  0.2445 -0.4837 -0.3990
  349MOL0     C47019  -1.642   3.193   7.757 -0.1930  0.8360  0.3312
  349MOL0     C47020  -1.773   3.176   7.671 -0.1275  0.4770 -0.4701
  349MOL0     C47021  -1.887   3.143   7.773 -0.2979 -1.1781  0.0402
  349MOL0     C47022  -1.882   3.000   7.824  0.3913 -0.2465  0.4366
  349MOL0     C47023  -1.990   2.968   7.927  0.2475  0.1705 -0.7055
  349MOL0     C47024  -2.011   2.814   7.943  0.3231 -0.2104  0.1515
  349MOL0    Cl47025  -1.869   2.730   8.029  0.3477  0.2350 -0.3892
  349MOL0     C47026  -1.260   3.559   7.741 -0.1537 -1.0034  2.3261
  349MOL0     C47027  -1.136   3.614   7.719  0.4828  0.7881 -0.5471
  349MOL0     O47028  -0.926   3.651   7.516 -0.5881  0.5762  0.1851
  349MOL0     C47029  -0.652   3.775   7.706  0.6736  0.3784 -0.3510
  349MOL0     C47030  -0.526   3.830   7.697  0.2490 -0.1707 -0.0383
  349MOL0     N47031   0.263   3.958   7.471 -0.3396 -0.0171  0.0097
  349MOL0     N47032   0.384   3.999   7.466 -0.5749 -0.1992  0.1009
  349MOL0     C47033   1.499   3.606   7.786 -0.2825  0.5614 -0.9375
  349MOL0     C47034   1.579   3.493   7.808  0.1614 -0.8490 -0.4975
  349MOL0     C47035   1.781   3.164   8.000  0.4703  0.5467 -0.2347
  349MOL0     C47036   1.893   3.171   8.086 -0.2924 -0.5624 -0.0101
  349MOL0     C47037   1.987   3.073   8.100 -0.5043 -0.9344  0.0362
  349MOL0     C47038   1.978   2.956   8.034  0.0994  1.2350  1.2614
  349MOL0     O47039   2.075   2.850   8.055  0.2121 -0.2953 -0.2348
  349MOL0     C47040   2.098   2.752   7.957 -0.7081 -0.3297 -0.0915
  349MOL0     C47041   2.237   2.688   7.983  0.4294 -0.2107  0.3282
  349MOL0     C47042   2.233   2.548   8.054 -0.0629 -0.0684  0.3689
  349MOL0     C47043   2.357   2.464   8.053 -0.3950  0.6872 -0.5660
  349MOL0     C47044   2.461   2.501   8.146  0.1488  0.1369 -0.7350
  349MOL0     C47045   2.559   2.515   8.218  0.3462  0.2258 -0.3773
  349MOL0     C47046   1.865   2.938   7.944  0.1584 -0.2528 -0.3172
  349MOL0     C47047   1.769   3.044   7.924 -0.0437 -0.1795 -0.7354
  349MOL0     H47048   1.335   3.303   7.939  0.2613  0.5806  0.6189
  349MOL0     H47049   1.194   3.496   7.914 -0.8443  0.9370  0.0707
  349MOL0     H47050   1.204   3.727   7.996 -0.7124  0.4680 -0.9876
  349MOL0     H47051   1.356   3.818   7.972  0.2420  2.0410 -1.2181
  349MOL0     H47052   1.198   3.990   7.978  2.6412  1.7941 -2.5866
  349MOL0     H47053   1.218   3.975   7.809 -2.4562  0.1555 -1.0409
  349MOL0     H47054   1.013   3.878   7.777  0.8554  1.0407  0.6190
  349MOL0     H47055   0.996   3.821   7.940  3.2807  0.9265  2.3346
  349MOL0     H47056   0.971   4.056   8.022 -1.0928  0.8662  0.5021
  349MOL0     H47057   0.974   4.107   7.842 -4.0870 -1.6503 -3.2551
  349MOL0     H47058   0.774   3.907   7.915  0.3095 -0.6506 -2.3740
  349MOL0     H47059   0.737   4.072   7.963 -0.6058 -0.6141  0.9935
  349MOL0     H47060   0.780   4.149   7.718  0.9553  0.3550  2.3571
  349MOL0     H47061   0.785   3.979   7.672 -1.1920  1.6332 -1.4291
  349MOL0     H47062   0.558   3.955   7.743 -1.3612  0.2560 -2.0550
  349MOL0     H47063   0.553   4.121   7.803 -0.3407  1.2696 -1.6055
  349MOL0     H47064   0.624   4.073   7.517  1.7100 -0.4545  1.1106
  349MOL0     H47065   0.571   4.224   7.606 -4.2551  0.0157  0.2666
  349MOL0     H47066   0.313   4.159   7.737  1.2516 -1.2443  1.3320
  349MOL0     H47067   0.075   3.956   7.724  1.7660 -1.1687 -1.0581
  349MOL0     H47068   0.036   4.117   7.656 -4.3128 -0.7297  0.2781
  349MOL0     H47069  -0.028   3.855   7.539 -1.4613  0.7437  1.1868
  349MOL0     H47070   0.004   3.990   7.438  2.2862 -0.6405 -0.9223
  349MOL0     H47071  -0.163   4.115   7.533  1.4129  0.0306  1.0179
  349MOL0     H47072  -0.168   4.018   7.688  2.1184 -0.7775 -0.0476
  349MOL0     H47073  -0.266   3.924   7.413  0.8748  0.1491  0.1069
  349MOL0     H47074  -0.369   4.021   7.506 -0.0553  0.1700  1.4546
  349MOL0     H47075  -0.427   3.707   7.409 -0.4664 -2.4747  0.6793
  349MOL0     H47076  -0.602   3.573   7.300  0.7537  1.1745 -0.1046
  349MOL0     H47077  -0.711   3.496   7.414  1.0984 -0.3792  0.6295
  349MOL0     H47078  -0.769   3.637   7.325  0.1062 -0.4322 -0.4531
  349MOL0     H47079  -0.952   3.395   7.892  0.6050  0.5375  0.8157
  349MOL0     H47080  -1.184   3.279   7.917  1.4326 -0.5985 -0.0990
  349MOL0     H47081  -1.520   3.425   7.670  1.5404  1.2400 -3.3561
  349MOL0     H47082  -1.370   3.366   7.611  0.9171  4.1694  1.7336
  349MOL0     H47083  -1.537   3.199   7.570 -1.7633 -1.2486  0.1854
  349MOL0     H47084  -1.441   3.139   7.709  0.2143  0.9578  3.2939
  349MOL0     H47085  -1.658   3.257   7.845 -2.8261  0.0755  0.5115
  349MOL0     H47086  -1.628   3.092   7.799  1.3772  0.1279 -1.7349
  349MOL0     H47087  -1.796   3.267   7.613 -1.5953  0.5019  0.1078
  349MOL0     H47088  -1.762   3.093   7.602 -1.3525  0.8469 -1.1392
  349MOL0     H47089  -1.988   3.150   7.732  0.6463 -1.4297 -2.5001
  349MOL0     H47090  -1.864   3.210   7.857  1.1783 -0.7358 -0.6743
  349MOL0     H47091  -1.907   2.940   7.736 -1.0292 -0.5511  1.0255
  349MOL0     H47092  -1.782   2.967   7.854  0.9519 -1.1990 -2.1926
  349MOL0     H47093  -2.086   3.013   7.898 -1.7228 -0.5171  3.8315
  349MOL0     H47094  -1.962   3.008   8.025  0.0489  0.9736 -0.9655
  349MOL0     H47095  -2.029   2.765   7.847 -2.3352 -1.4476  1.1908
  349MOL0     H47096  -2.101   2.796   8.003 -0.3042  0.5970 -0.5156
  349MOL0     H47097  -1.349   3.603   7.696  0.6503 -1.2409  0.4280
  349MOL0     H47098  -1.118   3.704   7.661 -0.1722  0.3457 -1.4655
  349MOL0     H47099  -0.708   3.775   7.799 -0.3691  3.4807 -0.8544
  349MOL0     H47100  -0.497   3.885   7.785 -2.1188 -1.3770  1.6024
  349MOL0     H47101   1.537   3.704   7.759  0.6189  0.6114  0.4017
  349MOL0     H47102   1.686   3.493   7.785  0.5222 -2.9322  0.8724
  349MOL0     H47103   1.904   3.264   8.141 -2.4290 -0.0400 -0.3678
  349MOL0     H47104   2.066   3.100   8.169  0.4666  0.6593 -1.6084
  349MOL0     H47105   2.017   2.678   7.955 -1.1335  0.1216  0.1904
  349MOL0     H47106   2.106   2.807   7.863  0.2424  2.9953  1.7596
  349MOL0     H47107   2.288   2.761   8.047  1.3799  0.3584 -1.0259
  349MOL0     H47108   2.285   2.693   7.885 -1.0543  2.9932 -0.3583
  349MOL0     H47109   2.157   2.500   7.992 -1.0140  0.3130  1.2142
  349MOL0     H47110   2.196   2.554   8.157 -3.3278  0.3411 -0.6892
  349MOL0     H47111   2.390   2.456   7.949 -0.4666 -2.3586 -0.4439
  349MOL0     H47112   2.318   2.364   8.074  1.2594 -0.5007 -2.7744
  349MOL0     H47113   2.629   2.533   8.297  0.3846 -1.4741  0.0179
  349MOL0     H47114   1.860   2.863   7.866  0.0996  2.0431 -2.6725
  349MOL0     H47115   1.700   3.047   7.840  0.1282 -1.4900 -0.9311
  350MOL0     O47116   1.649   6.277   6.090  0.1662  0.0572  0.0378
  350MOL0     C47117   1.636   6.197   5.997  0.7475 -0.0243  0.3420
  350MOL0     O47118   1.519   6.140   5.954  0.4811  0.0717  0.2996
  350MOL0     C47119   1.401   6.172   6.017  0.0280 -0.3746  0.3606
  350MOL0     C47120   1.298   6.200   5.925 -0.4018 -0.5064 -0.2584
  350MOL0     C47121   1.177   6.242   5.973 -0.7885  0.2420 -0.8535
  350MOL0     C47122   1.145   6.240   6.107 -0.0448  0.4064  1.0044
  350MOL0     O47123   1.027   6.284   6.166 -0.3541  0.1415 -0.2844
  350MOL0     C47124   0.921   6.339   6.088 -0.6202 -0.3895  0.2713
  350MOL0     C47125   0.796   6.270   6.141  1.0521 -0.5105  0.3052
  350MOL0     C47126   0.679   6.366   6.105  0.5290 -0.5417 -0.7740
  350MOL0     C47127   0.551   6.290   6.154  0.5476 -0.0282  0.1348
  350MOL0     C47128   0.422   6.362   6.138  0.3008 -0.3634  0.4685
  350MOL0     C47129   0.305   6.292   6.220 -0.2153  0.3136 -0.1778
  350MOL0     C47130   0.190   6.380   6.251  0.0679 -0.3593 -0.6063
  350MOL0     C47131   0.112   6.321   6.377 -0.6318  0.6082  0.6823
  350MOL0     N47132   0.015   6.414   6.420  0.9907 -0.3610 -0.0508
  350MOL0     C47133  -0.057   6.407   6.540 -0.2082 -0.2950 -0.3549
  350MOL0     C47134  -0.131   6.517   6.544  0.5219  0.4324  0.7518
  350MOL0     C47135  -0.210   6.560   6.661 -0.2730  0.3845 -0.0197
  350MOL0     C47136  -0.360   6.532   6.635  0.3564 -0.1589 -0.1567
  350MOL0     C47137  -0.403   6.592   6.502  0.1232  0.1411  0.1702
  350MOL0     C47138  -0.556   6.592   6.504  0.1605 -0.6260  0.2705
  350MOL0     O47139  -0.604   6.463   6.467 -0.1131  0.2302 -0.1771
  350MOL0     C47140  -0.735   6.443   6.444 -0.6175 -0.4805 -0.3502
  350MOL0     C47141  -0.837   6.526   6.487  0.3098  0.7209  0.8064
  350MOL0     C47142  -0.972   6.501   6.469  1.1840 -0.3924  0.0446
  350MOL0     C47143  -1.063   6.609   6.528  0.3455 -0.1251  0.0252
  350MOL0     C47144  -1.008   6.388   6.398  0.1572 -0.8446 -0.0381
  350MOL0     C47145  -1.149   6.349   6.379  0.9304 -0.2157 -0.6551
  350MOL0     O47146  -1.174   6.217   6.366  0.3661  0.3089  0.0004
  350MOL0     C47147  -1.306   6.176   6.377 -0.0399  0.4953  0.5301
  350MOL0     C47148  -1.374   6.155   6.492  0.0232  0.3233 -0.2983
  350MOL0     C47149  -1.496   6.095   6.509  0.0493 -0.2926 -0.6081
  350MOL0     C47150  -1.560   6.046   6.389  0.5398 -0.4911  0.6126
  350MOL0     O47151  -1.690   5.997   6.383 -0.0174 -0.3176  0.7364
  350MOL0     C47152  -1.698   5.852   6.372  0.4688 -0.3494  0.1206
  350MOL0     C47153  -1.792   5.819   6.253  0.3454  0.6933  0.1973
  350MOL0     C47154  -1.923   5.897   6.255 -0.0265 -0.1418  0.5198
  350MOL0     C47155  -2.024   5.839   6.143 -0.7592 -0.2848 -0.7033
  350MOL0     C47156  -2.164   5.892   6.162 -0.5186 -0.7601 -0.2212
  350MOL0     C47157  -2.270   5.816   6.075  0.0660 -0.6163 -0.1108
  350MOL0     C47158  -2.259   5.873   5.930  0.5127  0.4217  0.2806
  350MOL0     C47159  -2.344   5.798   5.820  0.0075  0.1497 -0.3651
  350MOL0    Cl47160  -2.300   5.627   5.782  0.1349 -0.0879  0.3789
  350MOL0     C47161  -1.500   6.065   6.260 -0.0442 -0.8840  0.3162
  350MOL0     C47162  -1.374   6.132   6.256 -0.3612  0.2891 -0.7067
  350MOL0     O47163  -1.234   6.437   6.363 -0.4088  0.2465 -0.3625
  350MOL0     C47164  -0.906   6.304   6.351 -0.8171  0.8498  0.5979
  350MOL0     C47165  -0.770   6.334   6.370  0.8127  0.3055  0.8923
  350MOL0     N47166  -0.118   6.589   6.427 -0.7777  0.3362  0.0724
  350MOL0     N47167  -0.032   6.529   6.353  0.2575  0.0418  0.6629
  350MOL0     C47168   1.244   6.211   6.200 -0.0251 -0.2672 -0.2796
  350MOL0     C47169   1.374   6.176   6.159  0.3398  0.1240  0.0500
  350MOL0     C47170   1.773   6.159   5.932  0.2868  0.5952 -0.7195
  350MOL0     C47171   1.769   6.060   5.834  0.3285  0.7374 -0.3738
  350MOL0     C47172   1.884   6.027   5.760 -0.2595  0.0311  0.8741
  350MOL0     C47173   2.000   6.098   5.771  0.0869  0.3751  0.1373
  350MOL0     O47174   2.100   6.053   5.686  0.0926  0.6698  0.2170
  350MOL0     C47175   2.222   6.134   5.668  0.3510 -0.1728 -1.2407
  350MOL0     C47176   2.327   6.065   5.581 -0.1554 -0.4460 -0.1051
  350MOL0     C47177   2.441   6.157   5.532  0.4923  0.1178 -0.4060
  350MOL0     C47178   2.572   6.074   5.504 -0.0124  0.1488 -0.7748
  350MOL0     C47179   2.670   6.164   5.429  0.5384  1.0434 -0.6231
  350MOL0     C47180   2.734   6.223   5.342  0.1513 -0.3996  0.2827
  350MOL0     C47181   2.007   6.195   5.875 -0.7843 -0.8471  0.4246
  350MOL0     C47182   1.896   6.221   5.963 -0.7835 -0.3232  0.6010
  350MOL0     H47183   1.302   6.200   5.816  3.5544 -3.3966 -0.3279
  350MOL0     H47184   1.118   6.284   5.892 -0.8860  1.9424  0.0736
  350MOL0     H47185   0.913   6.444   6.119  1.0085 -0.7339  2.0510
  350MOL0     H47186   0.927   6.332   5.979  1.1323 -0.9618  0.3659
  350MOL0     H47187   0.776   6.178   6.087 -0.6580  1.8710 -3.5084
  350MOL0     H47188   0.792   6.262   6.250  2.4140  0.4203  0.4499
  350MOL0     H47189   0.685   6.460   6.160  1.7639 -0.5371 -0.8910
  350MOL0     H47190   0.693   6.388   5.999  1.7014  0.4139 -0.4302
  350MOL0     H47191   0.539   6.192   6.106 -0.8470 -0.4558  1.2568
  350MOL0     H47192   0.571   6.278   6.261 -0.3593 -0.9929  0.2159
  350MOL0     H47193   0.421   6.465   6.173  0.8705  0.2116 -1.1369
  350MOL0     H47194   0.401   6.355   6.031  2.4595  0.2925 -0.0312
  350MOL0     H47195   0.271   6.204   6.165  1.4288 -1.1018  0.9621
  350MOL0     H47196   0.341   6.252   6.316  1.0123 -1.1814 -1.2139
  350MOL0     H47197   0.222   6.479   6.283 -2.8719 -0.2107  2.3566
  350MOL0     H47198   0.121   6.402   6.169 -1.8381  0.5969  1.1595
  350MOL0     H47199   0.174   6.284   6.459 -1.5445 -1.8799  0.3260
  350MOL0     H47200   0.058   6.232   6.346  0.3795  1.5716 -4.8029
  350MOL0     H47201  -0.037   6.352   6.631  0.9963  2.2459  1.0360
  350MOL0     H47202  -0.187   6.513   6.758 -1.8778 -1.4428 -0.4707
  350MOL0     H47203  -0.198   6.668   6.679 -0.8389 -0.0326  3.7429
  350MOL0     H47204  -0.405   6.583   6.721  1.0744  0.9447 -0.4160
  350MOL0     H47205  -0.389   6.427   6.635 -3.1852  0.6791 -0.8916
  350MOL0     H47206  -0.358   6.547   6.414 -0.2161 -0.2275  0.1823
  350MOL0     H47207  -0.369   6.696   6.507  1.9901 -0.4726  0.7474
  350MOL0     H47208  -0.585   6.658   6.422 -0.0391 -2.3411 -1.1158
  350MOL0     H47209  -0.606   6.622   6.596  1.4448  0.2304  0.7204
  350MOL0     H47210  -0.806   6.618   6.536  1.3574 -0.2190  1.9717
  350MOL0     H47211  -1.013   6.639   6.620  0.4573  0.5674 -0.2566
  350MOL0     H47212  -1.068   6.695   6.461  0.9287  0.0003  0.1451
  350MOL0     H47213  -1.154   6.563   6.569 -0.3705  1.3300  0.1396
  350MOL0     H47214  -1.332   6.207   6.578 -5.5311  1.7859  1.9918
  350MOL0     H47215  -1.537   6.091   6.609  0.8151 -0.3530 -0.2977
  350MOL0     H47216  -1.598   5.819   6.345  0.7579  1.9391 -1.9961
  350MOL0     H47217  -1.741   5.808   6.463  0.7206  2.4703  1.7303
  350MOL0     H47218  -1.738   5.843   6.161  2.7287 -1.1347  1.0224
  350MOL0     H47219  -1.821   5.714   6.263  0.8643  0.5488  0.2012
  350MOL0     H47220  -1.895   6.001   6.235  5.8666 -1.5865 -0.6790
  350MOL0     H47221  -1.976   5.912   6.349 -1.7225  3.4399 -0.8213
  350MOL0     H47222  -1.979   5.858   6.045 -2.4051  0.8311 -1.2746
  350MOL0     H47223  -2.023   5.730   6.154  2.7545 -0.4213 -1.0189
  350MOL0     H47224  -2.170   6.000   6.145  5.4190 -0.4741 -2.8011
  350MOL0     H47225  -2.196   5.880   6.266  1.0142 -3.4646  0.0239
  350MOL0     H47226  -2.254   5.708   6.081 -2.1383 -0.9143  1.5612
  350MOL0     H47227  -2.372   5.828   6.111 -0.1778  0.4438 -1.0971
  350MOL0     H47228  -2.152   5.877   5.907  0.4526  1.7567  0.1270
  350MOL0     H47229  -2.296   5.976   5.929  0.1235  0.2813 -0.0951
  350MOL0     H47230  -2.336   5.852   5.725  3.4402  2.9275  1.2930
  350MOL0     H47231  -2.448   5.803   5.853 -0.1835  1.5774 -1.1324
  350MOL0     H47232  -1.550   6.030   6.170  1.5588 -1.0733 -0.5281
  350MOL0     H47233  -1.333   6.152   6.158  0.8815  2.7193  0.2189
  350MOL0     H47234  -0.940   6.218   6.295  1.1751 -1.0320  2.0641
  350MOL0     H47235  -0.696   6.269   6.326 -0.9540 -0.4491 -1.1508
  350MOL0     H47236   1.217   6.225   6.304 -4.8490 -1.4447 -1.0883
  350MOL0     H47237   1.452   6.144   6.227  0.8366 -0.7958 -0.9146
  350MOL0     H47238   1.678   6.006   5.808  1.8199 -1.3300 -1.5433
  350MOL0     H47239   1.870   5.936   5.703 -1.1341 -1.7602  3.7201
  350MOL0     H47240   2.194   6.230   5.623  1.1159  1.0623  0.7707
  350MOL0     H47241   2.269   6.166   5.761 -3.6505  1.5483  0.4350
  350MOL0     H47242   2.274   6.030   5.492 -1.2581  0.6512  0.0802
  350MOL0     H47243   2.361   5.988   5.651 -0.6346  1.2135  2.0751
  350MOL0     H47244   2.473   6.232   5.605  5.4190 -1.3593 -0.6979
  350MOL0     H47245   2.411   6.204   5.437  2.5899  0.6622 -0.8443
  350MOL0     H47246   2.546   5.992   5.437 -0.8063  0.1733 -0.4983
  350MOL0     H47247   2.611   6.024   5.593 -0.4768 -0.6154 -0.9998
  350MOL0     H47248   2.798   6.283   5.281 -0.5462  0.3363  0.2456
  350MOL0     H47249   2.100   6.245   5.902  0.2499 -2.9563  0.9756
  350MOL0     H47250   1.896   6.282   6.053 -1.2789  0.2548  0.2193
  351MOL0     O47251   1.763   1.703   0.186 -0.0224 -0.2189 -0.7088
  351MOL0     C47252   1.810   1.785   0.114  0.6062  0.3098 -0.0256
  351MOL0     O47253   1.753   1.906   0.081 -0.2670  0.4075  1.1767
  351MOL0     C47254   1.630   1.951   0.119  0.4143 -0.5859 -1.0236
  351MOL0     C47255   1.516   1.870   0.113  0.2208  0.3699  1.2921
  351MOL0     C47256   1.392   1.930   0.141  0.2963  1.2098 -0.0774
  351MOL0     C47257   1.379   2.069   0.172 -0.4376  0.2649 -0.0385
  351MOL0     O47258   1.260   2.137   0.197 -0.6038  0.4430  0.7386
  351MOL0     C47259   1.130   2.064   0.193  0.1369  0.3669 -0.0231
  351MOL0     C47260   1.020   2.161   0.260  0.0376  0.4382  0.6434
  351MOL0     C47261   0.887   2.093   0.246 -0.0117  0.3882 -0.0905
  351MOL0     C47262   0.766   2.182   0.280  0.1758  0.1698 -0.4466
  351MOL0     C47263   0.631   2.133   0.244 -0.2793 -0.2610  0.0336
  351MOL0     C47264   0.601   2.161   0.098  0.3495 -0.4192  0.5539
  351MOL0     C47265   0.482   2.074   0.041  0.8582  1.0784 -0.3697
  351MOL0     C47266   0.341   2.107   0.097 -0.5960 -0.9530 -0.4611
  351MOL0     N47267   0.244   2.194   0.018  0.1830  0.4424  1.4183
  351MOL0     C47268   0.257   2.309  -0.064 -0.5576 -0.2913  0.1686
  351MOL0     C47269   0.129   2.338  -0.110  0.4159 -0.4067 -0.6099
  351MOL0     C47270   0.084   2.443  -0.212 -0.5884  0.0481 -0.4946
  351MOL0     C47271   0.105   2.402  -0.352 -0.0849 -0.1815  0.4038
  351MOL0     C47272   0.247   2.408  -0.404  0.4378 -0.5137 -0.8309
  351MOL0     C47273   0.290   2.553  -0.428  0.0190 -0.0708 -0.0989
  351MOL0     O47274   0.336   2.611  -0.308  0.2376 -1.0574 -0.4525
  351MOL0     C47275   0.466   2.587  -0.260  0.8032  0.1813 -0.7970
  351MOL0     C47276   0.488   2.613  -0.122 -0.0923  0.7489  0.4858
  351MOL0     C47277   0.609   2.565  -0.059 -0.6236  0.8588  0.3339
  351MOL0     C47278   0.616   2.578   0.092  0.0543 -0.4202  0.3664
  351MOL0     C47279   0.709   2.507  -0.134 -0.2969  0.5100  0.8496
  351MOL0     C47280   0.847   2.480  -0.088 -0.3241 -0.2089 -0.7301
  351MOL0     O47281   0.951   2.538  -0.150  0.0486  0.3176  0.3497
  351MOL0     C47282   1.085   2.514  -0.109  0.3619 -0.5940  0.6286
  351MOL0     C47283   1.174   2.625  -0.100  0.3253  0.5867  0.6759
  351MOL0     C47284   1.305   2.604  -0.062  0.2008 -1.2424 -0.3172
  351MOL0     C47285   1.362   2.477  -0.032  0.2018  0.1910 -0.0658
  351MOL0     O47286   1.493   2.451  -0.013 -0.0783  0.0518  0.4133
  351MOL0     C47287   1.574   2.557   0.029  0.2041  0.0708 -0.3279
  351MOL0     C47288   1.699   2.510   0.102  0.2823 -0.6769  0.1897
  351MOL0     C47289   1.810   2.618   0.111  0.5933  0.6065  0.4915
  351MOL0     C47290   1.937   2.552   0.159 -0.6189  0.3473  0.2852
  351MOL0     C47291   2.058   2.645   0.150  0.3994  0.3381  0.0380
  351MOL0     C47292   2.173   2.603   0.056 -0.7908 -0.1367  0.3281
  351MOL0     C47293   2.228   2.461   0.083  0.6320 -0.8021  0.1808
  351MOL0     C47294   2.376   2.465   0.047 -0.0842  0.5965  0.0076
  351MOL0    Cl47295   2.406   2.484  -0.135  0.1284 -0.1073 -0.2116
  351MOL0     C47296   1.273   2.368  -0.051 -0.8227 -0.1297 -0.5288
  351MOL0     C47297   1.134   2.388  -0.079 -0.1477 -0.1978  0.2903
  351MOL0     O47298   0.857   2.409   0.013 -0.1159  0.4786 -0.1185
  351MOL0     C47299   0.695   2.502  -0.272 -0.1694  0.5160  0.6670
  351MOL0     C47300   0.572   2.527  -0.329 -0.7888 -0.7613  0.1984
  351MOL0     N47301   0.041   2.252  -0.046  0.2235 -0.0494 -0.0452
  351MOL0     N47302   0.114   2.170   0.029 -0.3493  0.0978  0.2607
  351MOL0     C47303   1.496   2.139   0.193  0.2671  0.8809  0.3341
  351MOL0     C47304   1.618   2.087   0.151 -0.4411  0.6273 -0.7559
  351MOL0     C47305   1.942   1.760   0.056  0.4747  0.1489 -0.0090
  351MOL0     C47306   1.982   1.832  -0.061 -0.2003 -0.1950 -0.3760
  351MOL0     C47307   2.102   1.820  -0.127  0.5930  0.6773 -0.1088
  351MOL0     C47308   2.197   1.723  -0.070  0.3849  0.3762 -0.0813
  351MOL0     O47309   2.316   1.679  -0.125  0.7115 -1.0446  0.6793
  351MOL0     C47310   2.382   1.766  -0.223  0.0175 -0.7798 -0.2882
  351MOL0     C47311   2.533   1.748  -0.260 -0.9445 -1.2545 -0.1509
  351MOL0     C47312   2.564   1.601  -0.305  0.0558  0.0332 -0.6377
  351MOL0     C47313   2.506   1.558  -0.438  0.1288 -0.5110  0.4795
  351MOL0     C47314   2.591   1.476  -0.527  0.4527 -0.9180  0.2405
  351MOL0     C47315   2.655   1.411  -0.607  0.4042  0.4961 -0.2019
  351MOL0     C47316   2.153   1.648   0.044  0.6947  0.2226  0.1945
  351MOL0     C47317   2.031   1.664   0.107  0.1932  0.0342  0.2812
  351MOL0     H47318   1.526   1.765   0.087 -2.8440  0.0259  1.1386
  351MOL0     H47319   1.308   1.864   0.124  2.7309 -2.4517  0.9099
  351MOL0     H47320   1.094   2.052   0.090 -0.2160  2.8581 -0.2594
  351MOL0     H47321   1.150   1.974   0.251  3.5293  0.0589 -1.4586
  351MOL0     H47322   1.036   2.182   0.366 -0.2739 -3.7097  1.7129
  351MOL0     H47323   1.020   2.256   0.205  1.4557  0.9852  1.5253
  351MOL0     H47324   0.886   2.062   0.141  0.6314  0.1846 -0.0465
  351MOL0     H47325   0.879   2.002   0.306 -2.6769  0.7056  0.1505
  351MOL0     H47326   0.751   2.196   0.388 -1.5377  0.2056 -0.6556
  351MOL0     H47327   0.787   2.279   0.234 -1.1675  0.0660 -1.3323
  351MOL0     H47328   0.622   2.025   0.258 -0.1892 -0.2876 -0.1078
  351MOL0     H47329   0.560   2.183   0.310  0.4665  0.1521  0.5372
  351MOL0     H47330   0.582   2.268   0.082  1.0969 -0.1722  1.2682
  351MOL0     H47331   0.695   2.128   0.054  0.1602 -2.4256  1.5808
  351MOL0     H47332   0.481   2.090  -0.067  0.9813  1.6452 -0.2906
  351MOL0     H47333   0.510   1.969   0.051  1.7169  1.2192 -1.1381
  351MOL0     H47334   0.365   2.164   0.187  0.0513  0.4370 -1.4783
  351MOL0     H47335   0.292   2.014   0.128  0.0094 -0.6193  1.6682
  351MOL0     H47336   0.343   2.369  -0.094 -0.4534 -1.3873 -1.9799
  351MOL0     H47337  -0.020   2.468  -0.191 -1.1130 -1.1777 -1.5079
  351MOL0     H47338   0.132   2.539  -0.188 -3.1804  1.1235  0.7359
  351MOL0     H47339   0.045   2.464  -0.419 -1.4192 -1.2600  0.5432
  351MOL0     H47340   0.083   2.295  -0.366  0.7789 -0.1635 -1.4877
  351MOL0     H47341   0.258   2.345  -0.493 -2.8684  0.7760 -2.3001
  351MOL0     H47342   0.316   2.370  -0.328 -0.0694  1.0267  0.4501
  351MOL0     H47343   0.211   2.621  -0.461  0.3528 -0.3728 -1.6257
  351MOL0     H47344   0.368   2.552  -0.504  0.2260 -0.4655  0.1114
  351MOL0     H47345   0.403   2.646  -0.063 -0.1780 -2.5880  2.5529
  351MOL0     H47346   0.522   2.547   0.139 -0.2464  3.6944  3.0494
  351MOL0     H47347   0.691   2.516   0.141 -0.2454  0.3394  1.8535
  351MOL0     H47348   0.630   2.684   0.116 -3.5140  0.0603  0.9379
  351MOL0     H47349   1.127   2.720  -0.123  0.2605  0.9085  2.0526
  351MOL0     H47350   1.363   2.695  -0.050 -1.9274  0.4931 -2.3135
  351MOL0     H47351   1.592   2.641  -0.039  0.3540 -0.1388 -0.5462
  351MOL0     H47352   1.509   2.604   0.104  1.8386 -0.2987  1.4030
  351MOL0     H47353   1.682   2.473   0.203 -2.2401 -2.1438 -0.6847
  351MOL0     H47354   1.738   2.420   0.053  0.3104  0.2929 -1.6842
  351MOL0     H47355   1.777   2.692   0.184  2.4630  2.0044  0.0033
  351MOL0     H47356   1.819   2.654   0.008 -2.2093 -1.3197 -0.5657
  351MOL0     H47357   1.913   2.528   0.263 -4.6102 -0.7917 -0.7439
  351MOL0     H47358   1.964   2.456   0.114  0.5341  0.9874 -0.4413
  351MOL0     H47359   2.094   2.655   0.252 -0.1329  2.4636  0.0621
  351MOL0     H47360   2.021   2.740   0.110 -1.3499 -0.5487 -0.5599
  351MOL0     H47361   2.139   2.605  -0.048  2.4669 -1.3799 -0.8862
  351MOL0     H47362   2.252   2.678   0.053 -0.6045 -0.3541 -0.6552
  351MOL0     H47363   2.172   2.393   0.018  0.1018  0.7461 -1.0728
  351MOL0     H47364   2.201   2.435   0.186 -2.5836  0.3877 -0.2316
  351MOL0     H47365   2.411   2.365   0.075  1.3185  1.7546  2.8859
  351MOL0     H47366   2.430   2.541   0.105  2.0412 -1.6215  1.1526
  351MOL0     H47367   1.317   2.271  -0.036  0.6708  0.7176  0.8515
  351MOL0     H47368   1.058   2.310  -0.079 -0.1445 -0.2110  1.1718
  351MOL0     H47369   0.780   2.460  -0.326  0.8057  0.8894  1.8582
  351MOL0     H47370   0.574   2.504  -0.435  1.9200 -2.6585  0.5667
  351MOL0     H47371   1.503   2.239   0.233  4.6035  0.6853  0.5356
  351MOL0     H47372   1.701   2.157   0.158  1.3028 -1.5205  3.0933
  351MOL0     H47373   1.915   1.907  -0.103  0.3587  1.6662  1.8227
  351MOL0     H47374   2.107   1.863  -0.227  0.4664 -3.1902 -1.9650
  351MOL0     H47375   2.329   1.743  -0.316  0.6597 -2.4434 -0.2759
  351MOL0     H47376   2.373   1.873  -0.200  2.0347 -0.9241  1.5420
  351MOL0     H47377   2.592   1.775  -0.172 -1.2335  0.7223 -0.5317
  351MOL0     H47378   2.573   1.813  -0.338  2.0334 -2.9794 -0.2061
  351MOL0     H47379   2.535   1.533  -0.224  1.1671  0.9703  0.6113
  351MOL0     H47380   2.671   1.581  -0.307 -0.2280 -1.6395 -0.2268
  351MOL0     H47381   2.471   1.646  -0.493 -0.2910 -0.8271  0.2329
  351MOL0     H47382   2.415   1.504  -0.410  0.6632 -2.8067 -1.9225
  351MOL0     H47383   2.702   1.351  -0.683  0.0598  0.9271 -0.7607
  351MOL0     H47384   2.226   1.572   0.071  0.9895  0.6773  0.7023
  351MOL0     H47385   1.990   1.603   0.186 -0.8201  0.6675  0.2555
  352MOL0     O47386   5.084   7.631   6.613 -0.6481 -0.1838  1.1900
  352MOL0     C47387   4.982   7.653   6.547 -0.4531  0.0162 -0.0858
  352MOL0     O47388   4.867   7.580   6.557 -0.0599  0.3923  0.4242
  352MOL0     C47389   4.869   7.461   6.613 -0.5237  0.2880 -0.4478
  352MOL0     C47390   4.774   7.435   6.708 -1.0452 -0.1906  0.7214
  352MOL0     C47391   4.754   7.299   6.755 -0.0354  0.4104  0.2561
  352MOL0     C47392   4.840   7.197   6.708  0.2853 -0.6337  0.1311
  352MOL0     O47393   4.836   7.073   6.763  0.1069  0.1277 -0.0184
  352MOL0     C47394   4.944   6.979   6.749 -0.8303 -0.1892  0.4138
  352MOL0     C47395   4.935   6.864   6.851  0.0820  0.1806 -0.5830
  352MOL0     C47396   4.797   6.797   6.850 -0.6061 -0.1676  0.1626
  352MOL0     C47397   4.786   6.682   6.949 -0.2931 -0.0728  0.6214
  352MOL0     C47398   4.895   6.573   6.943  0.4239  0.7741  0.4625
  352MOL0     C47399   4.866   6.494   6.811 -0.8044  0.2619 -0.1857
  352MOL0     C47400   4.976   6.391   6.769 -0.2101 -0.3738 -0.3133
  352MOL0     C47401   4.993   6.266   6.842 -0.5791 -0.3700 -0.9675
  352MOL0     N47402   4.860   6.185   6.859  0.0775  0.6191  0.4486
  352MOL0     C47403   4.752   6.210   6.940  0.5021 -0.3917 -0.3208
  352MOL0     C47404   4.669   6.104   6.925  0.3330  0.2224  0.0431
  352MOL0     C47405   4.541   6.076   6.979  0.3863  0.0753 -0.5046
  352MOL0     C47406   4.555   6.017   7.127 -0.5986 -0.9801  0.6730
  352MOL0     C47407   4.414   5.987   7.177  0.3233 -0.2917 -0.3291
  352MOL0     C47408   4.411   5.891   7.295 -0.2191  0.6821  0.3314
  352MOL0     O47409   4.266   5.881   7.310 -0.0602  0.7841  1.4429
  352MOL0     C47410   4.216   5.814   7.414  0.0006  0.0274 -0.3920
  352MOL0     C47411   4.293   5.744   7.502  0.3536  0.1809  0.4136
  352MOL0     C47412   4.250   5.686   7.617  0.3077 -0.4935 -0.0824
  352MOL0     C47413   4.351   5.605   7.705  0.5472  0.8320  0.5802
  352MOL0     C47414   4.104   5.675   7.629 -1.0628 -0.6457  0.3511
  352MOL0     C47415   4.032   5.586   7.724 -0.4717 -0.9580  0.1005
  352MOL0     O47416   3.911   5.626   7.753  0.2653  0.3859 -0.0200
  352MOL0     C47417   3.802   5.540   7.781 -0.1040 -0.5191  0.0178
  352MOL0     C47418   3.804   5.400   7.820 -0.3224 -0.2448 -0.3047
  352MOL0     C47419   3.688   5.337   7.857 -0.8197  0.9100 -0.5635
  352MOL0     C47420   3.560   5.393   7.854  0.1301 -0.0915  0.5648
  352MOL0     O47421   3.443   5.339   7.881 -0.1233  0.1388 -0.1494
  352MOL0     C47422   3.431   5.205   7.916  0.6322 -0.8739 -0.1655
  352MOL0     C47423   3.279   5.184   7.906 -0.6476 -0.4448  0.2028
  352MOL0     C47424   3.250   5.045   7.947 -0.3242  0.8336 -0.7371
  352MOL0     C47425   3.250   5.023   8.105  0.1065  0.5586 -0.3301
  352MOL0     C47426   3.112   5.042   8.174 -0.5683 -0.1976 -0.5042
  352MOL0     C47427   3.014   4.937   8.135  0.2141  0.3323  0.6618
  352MOL0     C47428   2.888   4.939   8.225  0.8367 -0.7186  0.1474
  352MOL0     C47429   2.821   4.806   8.238 -0.6478 -0.0339  0.2409
  352MOL0    Cl47430   2.901   4.701   8.369  0.2372  0.1153  0.4259
  352MOL0     C47431   3.561   5.529   7.817  1.2717  0.2461  1.2290
  352MOL0     C47432   3.678   5.598   7.785  0.4592 -0.0732  0.3523
  352MOL0     O47433   4.080   5.475   7.755  0.1184 -0.2375  0.4536
  352MOL0     C47434   4.016   5.752   7.541 -0.0890 -0.0374 -0.9238
  352MOL0     C47435   4.077   5.821   7.439  0.2087 -0.7728  0.2336
  352MOL0     N47436   4.731   6.015   6.839  0.1273  0.0702 -1.0069
  352MOL0     N47437   4.842   6.065   6.810 -0.2659  0.2923  0.2651
  352MOL0     C47438   4.922   7.230   6.599 -0.5050 -0.2715 -0.1143
  352MOL0     C47439   4.942   7.355   6.558 -0.3995 -0.5584  0.5160
  352MOL0     C47440   4.978   7.771   6.461 -0.6368 -0.6095 -0.6885
  352MOL0     C47441   5.084   7.868   6.461 -0.0080  0.2382 -0.7742
  352MOL0     C47442   5.079   7.971   6.377  0.9380 -0.8413  0.7295
  352MOL0     C47443   4.968   8.004   6.295 -0.1098  0.6503 -0.9266
  352MOL0     O47444   4.941   8.112   6.211  0.3973  0.1542  0.2444
  352MOL0     C47445   5.024   8.229   6.222 -0.4383  0.0145 -0.3390
  352MOL0     C47446   4.931   8.357   6.227  0.6181  0.3601  0.0766
  352MOL0     C47447   4.817   8.357   6.130  0.2324 -0.5537 -0.5971
  352MOL0     C47448   4.857   8.368   5.984 -0.5018 -0.2575 -0.0331
  352MOL0     C47449   4.764   8.441   5.898  0.2789  0.5594  0.2611
  352MOL0     C47450   4.681   8.485   5.817  0.2586 -0.0401  0.5882
  352MOL0     C47451   4.865   7.913   6.298 -1.0090 -0.3268 -0.1036
  352MOL0     C47452   4.872   7.789   6.375  0.3227  0.5261 -0.0754
  352MOL0     H47453   4.723   7.518   6.756 -2.0944  0.0518 -0.7572
  352MOL0     H47454   4.678   7.279   6.829 -3.5199 -1.8273 -3.5170
  352MOL0     H47455   4.939   6.948   6.645 -1.6457  0.0267  0.3827
  352MOL0     H47456   5.037   7.036   6.758  0.6186 -2.5873  1.7444
  352MOL0     H47457   5.005   6.787   6.817 -0.2157  0.3907 -1.7006
  352MOL0     H47458   4.957   6.906   6.950  0.5995 -2.4545  0.5021
  352MOL0     H47459   4.728   6.876   6.879 -0.4125  0.2207 -0.4278
  352MOL0     H47460   4.774   6.767   6.747  2.3839  1.4490 -1.1204
  352MOL0     H47461   4.776   6.709   7.055 -2.3480 -0.1769  0.4987
  352MOL0     H47462   4.688   6.637   6.933 -1.4240  1.7400  1.9833
  352MOL0     H47463   4.995   6.617   6.952  0.0381  1.2477  3.5402
  352MOL0     H47464   4.875   6.508   7.029 -2.3215  3.2653  1.8920
  352MOL0     H47465   4.772   6.441   6.832  0.3428 -1.5953  0.5606
  352MOL0     H47466   4.857   6.559   6.724  0.3767 -0.8226 -1.1464
  352MOL0     H47467   4.955   6.354   6.668  1.3434 -0.8276 -0.4972
  352MOL0     H47468   5.076   6.436   6.764 -0.0607 -0.7877 -1.2438
  352MOL0     H47469   5.028   6.281   6.944 -0.9496  0.3485 -0.9305
  352MOL0     H47470   5.068   6.208   6.789 -1.6858 -1.3483 -1.5182
  352MOL0     H47471   4.730   6.304   6.990 -2.3451 -0.5629 -1.0700
  352MOL0     H47472   4.474   6.161   6.973  0.5511  0.1327 -5.7489
  352MOL0     H47473   4.489   6.003   6.916 -0.8646  0.8019 -0.3421
  352MOL0     H47474   4.604   6.083   7.199  2.3648 -1.4786 -0.7442
  352MOL0     H47475   4.611   5.925   7.111 -0.6822 -1.0399  0.7269
  352MOL0     H47476   4.348   5.944   7.101 -0.1756 -4.5400  2.2204
  352MOL0     H47477   4.369   6.081   7.210 -3.5854 -1.1472 -2.6212
  352MOL0     H47478   4.468   5.938   7.376  0.0658 -1.0751  1.2114
  352MOL0     H47479   4.459   5.796   7.267 -0.8715  1.3122 -3.4798
  352MOL0     H47480   4.402   5.743   7.496  0.3409  2.3265 -1.1135
  352MOL0     H47481   4.431   5.669   7.744  1.5364 -0.3680  0.5566
  352MOL0     H47482   4.311   5.569   7.800  0.6070  3.3970  1.6739
  352MOL0     H47483   4.397   5.524   7.648  2.0766  1.5831  0.6820
  352MOL0     H47484   3.898   5.347   7.811  0.4780  0.9839  0.4550
  352MOL0     H47485   3.696   5.235   7.893  1.7778  1.1916 -0.1518
  352MOL0     H47486   3.488   5.142   7.847  0.6577 -1.1171  0.0793
  352MOL0     H47487   3.469   5.187   8.017  1.7723  1.8703 -0.0383
  352MOL0     H47488   3.231   5.252   7.977  2.1732  0.3021  1.5025
  352MOL0     H47489   3.251   5.203   7.802  0.3913 -0.6891 -0.1332
  352MOL0     H47490   3.317   4.977   7.894 -0.4269  1.5309 -1.7911
  352MOL0     H47491   3.150   5.023   7.909 -0.8017  0.7665  0.5023
  352MOL0     H47492   3.276   4.919   8.128  1.1028  0.9821  0.5268
  352MOL0     H47493   3.323   5.090   8.153 -1.7302  1.9350  0.6459
  352MOL0     H47494   3.083   5.146   8.153  3.7050  1.4847  0.9313
  352MOL0     H47495   3.116   5.043   8.283  0.3234  3.6011 -0.4181
  352MOL0     H47496   2.985   4.930   8.030  1.1276  1.0653  0.3500
  352MOL0     H47497   3.063   4.839   8.143  1.2272  0.7240 -0.4543
  352MOL0     H47498   2.816   5.015   8.193  2.4091 -0.5329 -3.4442
  352MOL0     H47499   2.923   4.965   8.325 -0.8100 -1.3531  0.9225
  352MOL0     H47500   2.821   4.750   8.144 -0.4353 -0.6629  0.6064
  352MOL0     H47501   2.722   4.829   8.278 -1.4002 -0.6506 -1.1822
  352MOL0     H47502   3.465   5.577   7.801  0.9951 -0.5346  0.4825
  352MOL0     H47503   3.685   5.706   7.781  0.7127 -0.0699  0.8308
  352MOL0     H47504   3.908   5.743   7.543 -0.0043 -1.8342  2.5088
  352MOL0     H47505   4.022   5.877   7.364 -0.5991 -1.6773  0.1389
  352MOL0     H47506   4.969   7.144   6.550  0.3094  0.4562 -0.6390
  352MOL0     H47507   5.006   7.381   6.475 -0.2224 -2.3735  0.0627
  352MOL0     H47508   5.158   7.859   6.540 -0.4942  3.6900  0.2566
  352MOL0     H47509   5.156   8.045   6.358  0.5026 -0.4757  0.3676
  352MOL0     H47510   5.083   8.232   6.314 -2.2700  0.9588  0.8599
  352MOL0     H47511   5.091   8.233   6.135  0.2505  0.5331  0.2024
  352MOL0     H47512   4.998   8.442   6.211  2.6736 -1.0475  0.6890
  352MOL0     H47513   4.894   8.361   6.330  0.4920  0.8860  0.0151
  352MOL0     H47514   4.744   8.432   6.160 -1.4810 -2.4049  0.1095
  352MOL0     H47515   4.766   8.262   6.148  0.1797 -0.2292  1.0685
  352MOL0     H47516   4.869   8.271   5.936 -1.0743  0.0493 -0.8181
  352MOL0     H47517   4.951   8.424   5.983 -1.5976  1.8220  2.1236
  352MOL0     H47518   4.624   8.538   5.743  0.3655  0.3605  0.7855
  352MOL0     H47519   4.777   7.935   6.239  0.3660 -0.5306 -2.3467
  352MOL0     H47520   4.794   7.716   6.356 -0.5257  1.2551  0.4927
  353MOL0     O47521   2.738   6.361  10.872 -0.1144  0.6165  0.0367
  353MOL0     C47522   2.738   6.388  10.994 -0.3303 -0.0765 -0.2228
  353MOL0     O47523   2.846   6.387  11.086  0.5060 -0.1240  0.5346
  353MOL0     C47524   2.956   6.345  11.032  0.4735 -0.2126 -0.0778
  353MOL0     C47525   2.970   6.211  10.989 -0.6184 -0.5942 -1.2325
  353MOL0     C47526   3.097   6.166  10.952 -0.2111 -0.0386  0.1144
  353MOL0     C47527   3.208   6.250  10.941 -0.6703 -0.0725 -0.2259
  353MOL0     O47528   3.326   6.199  10.888 -0.1399  0.7776  0.3091
  353MOL0     C47529   3.348   6.228  10.747 -0.1062 -0.2306  0.7379
  353MOL0     C47530   3.467   6.172  10.666 -0.6904 -0.0412  0.1583
  353MOL0     C47531   3.607   6.211  10.720  0.7463  0.1647 -0.4552
  353MOL0     C47532   3.656   6.126  10.845 -0.5345 -0.5067  0.6241
  353MOL0     C47533   3.793   6.165  10.900 -0.9483  0.9261  0.3881
  353MOL0     C47534   3.787   6.286  10.990 -0.2900 -0.3026  0.0339
  353MOL0     C47535   3.932   6.337  11.027 -0.2695  0.7847  0.8829
  353MOL0     C47536   4.016   6.218  11.085 -0.3848 -0.1109 -0.2557
  353MOL0     N47537   3.962   6.155  11.208  0.2375  0.2336  0.9659
  353MOL0     C47538   3.947   6.217  11.328  0.2491 -0.1786  0.3009
  353MOL0     C47539   3.887   6.131  11.399 -1.3538  0.9408 -1.3456
  353MOL0     C47540   3.848   6.143  11.541  1.1483 -0.4866  0.5216
  353MOL0     C47541   3.709   6.068  11.560  0.1049 -1.0968 -0.6412
  353MOL0     C47542   3.651   6.120  11.697 -0.2145 -0.5378  0.1274
  353MOL0     C47543   3.535   6.034  11.748 -0.0900  0.3221  0.5286
  353MOL0     O47544   3.413   6.049  11.667  0.5960 -0.1903  0.2488
  353MOL0     C47545   3.311   5.960  11.701  0.1960 -0.8415  0.6644
  353MOL0     C47546   3.198   6.014  11.751  0.3085 -0.3662 -1.0695
  353MOL0     C47547   3.088   5.934  11.796 -0.9516  0.3181  0.0202
  353MOL0     C47548   2.966   5.997  11.846 -0.3145  0.0830 -0.1099
  353MOL0     C47549   3.095   5.792  11.779 -1.2213  1.0942 -0.1694
  353MOL0     C47550   3.002   5.699  11.838  0.2190  0.6898 -0.4098
  353MOL0     O47551   2.985   5.574  11.786  0.0846  0.7756  0.2796
  353MOL0     C47552   2.874   5.513  11.833 -0.7962  0.0328 -0.5606
  353MOL0     C47553   2.745   5.556  11.821 -0.0739  0.8227  0.3343
  353MOL0     C47554   2.639   5.472  11.856  0.1494 -0.4372  0.0612
  353MOL0     C47555   2.660   5.346  11.925  0.4927  0.0639  0.3170
  353MOL0     O47556   2.550   5.259  11.960  0.0916 -0.0319  0.6533
  353MOL0     C47557   2.577   5.131  12.018  0.3730 -1.5436 -0.6007
  353MOL0     C47558   2.432   5.071  12.041 -0.3946  0.4680  0.0553
  353MOL0     C47559   2.348   5.144  12.145  0.2717  0.3977 -0.0508
  353MOL0     C47560   2.393   5.108  12.292 -0.5034  0.2233  0.3769
  353MOL0     C47561   2.283   5.125  12.405 -0.1944  0.0633  0.5198
  353MOL0     C47562   2.268   5.273  12.418  0.2898  0.9416  0.2626
  353MOL0     C47563   2.166   5.307  12.521  0.0255  0.3044 -0.2163
  353MOL0     C47564   2.026   5.291  12.471  0.4200  0.6445  0.5229
  353MOL0    Cl47565   1.986   5.385  12.324  0.0878 -0.0007 -0.2754
  353MOL0     C47566   2.787   5.314  11.944 -1.1991 -0.7680  0.2382
  353MOL0     C47567   2.894   5.395  11.901  0.1388  0.4895  0.4550
  353MOL0     O47568   2.943   5.741  11.938 -0.5068  0.4645 -0.2135
  353MOL0     C47569   3.218   5.740  11.712 -0.0048 -0.3494 -0.1001
  353MOL0     C47570   3.317   5.827  11.670  0.3366  0.1170 -0.0477
  353MOL0     N47571   3.876   6.007  11.332  0.1792 -0.9494 -0.4151
  353MOL0     N47572   3.913   6.025  11.213  0.0019 -0.4075  0.6627
  353MOL0     C47573   3.197   6.381  10.990 -0.9530  0.7456  0.0359
  353MOL0     C47574   3.071   6.425  11.032  0.0920  0.4740  0.5352
  353MOL0     C47575   2.600   6.427  11.047 -0.7084 -0.7546  0.0205
  353MOL0     C47576   2.488   6.454  10.965  0.4548 -0.4427  0.5172
  353MOL0     C47577   2.361   6.462  11.018  1.0093 -0.7114 -0.0574
  353MOL0     C47578   2.342   6.466  11.157  0.8769 -0.1172 -0.1177
  353MOL0     O47579   2.220   6.490  11.213 -1.0704  0.9644  0.3258
  353MOL0     C47580   2.115   6.404  11.183  0.1239  0.5341  0.3107
  353MOL0     C47581   2.079   6.317  11.297 -0.7232  0.2879  0.1365
  353MOL0     C47582   2.022   6.396  11.419 -0.4274  0.5840  1.1971
  353MOL0     C47583   1.872   6.423  11.415  0.5680  0.2928  0.8992
  353MOL0     C47584   1.785   6.294  11.422 -0.2029  0.1922 -0.5977
  353MOL0     C47585   1.720   6.193  11.412 -0.1399  0.3601 -0.4612
  353MOL0     C47586   2.449   6.435  11.237  0.0203 -0.6790  0.2822
  353MOL0     C47587   2.579   6.421  11.189  0.4821 -0.2123  0.3483
  353MOL0     H47588   2.895   6.134  10.978 -1.1990 -0.2289 -0.0186
  353MOL0     H47589   3.119   6.062  10.932  3.4468  0.2704  1.8094
  353MOL0     H47590   3.255   6.215  10.691  0.9191  1.2019 -1.4432
  353MOL0     H47591   3.369   6.335  10.746  3.0873 -0.7398 -0.8180
  353MOL0     H47592   3.458   6.063  10.659  2.2103 -0.5355  2.3958
  353MOL0     H47593   3.455   6.211  10.564 -3.2004 -1.5366 -0.2082
  353MOL0     H47594   3.676   6.184  10.640 -1.3265 -1.1307 -1.9114
  353MOL0     H47595   3.613   6.318  10.740 -0.2163  0.3928 -1.3087
  353MOL0     H47596   3.578   6.121  10.921 -1.3105 -0.5956 -0.1626
  353MOL0     H47597   3.665   6.021  10.817  0.2516 -1.0479  2.6999
  353MOL0     H47598   3.838   6.083  10.958 -0.3348  0.3410 -0.8652
  353MOL0     H47599   3.854   6.188  10.812 -3.0917 -0.7260 -1.6704
  353MOL0     H47600   3.737   6.366  10.934 -2.4679 -2.1008 -0.7264
  353MOL0     H47601   3.738   6.270  11.087 -0.2436  1.7231  0.4333
  353MOL0     H47602   3.970   6.389  10.939  1.1164  2.8583  2.6008
  353MOL0     H47603   3.944   6.421  11.096  0.6099  1.8496 -0.5050
  353MOL0     H47604   4.117   6.259  11.101 -0.7047  0.2682  0.9201
  353MOL0     H47605   4.025   6.151  11.000 -1.0542  0.9521 -1.1865
  353MOL0     H47606   3.966   6.319  11.361  0.6819 -0.4193  0.8052
  353MOL0     H47607   3.929   6.090  11.593  1.3202 -0.2385  0.5068
  353MOL0     H47608   3.833   6.249  11.565  2.2432 -0.1537 -0.2070
  353MOL0     H47609   3.706   5.960  11.546 -1.9947 -0.9583 -1.6978
  353MOL0     H47610   3.639   6.105  11.485  0.9782 -2.3778 -2.1389
  353MOL0     H47611   3.621   6.224  11.690 -3.8761 -1.4595  0.1501
  353MOL0     H47612   3.728   6.106  11.774  1.9623  1.6344 -1.4877
  353MOL0     H47613   3.515   6.078  11.846  3.0541  3.2973  0.0186
  353MOL0     H47614   3.559   5.928  11.758 -0.5535 -0.1046 -2.1079
  353MOL0     H47615   3.199   6.122  11.761  1.7700 -0.3516 -1.1296
  353MOL0     H47616   2.979   6.004  11.954 -1.5035 -0.4397  0.0902
  353MOL0     H47617   2.965   6.101  11.812 -1.8947  0.3480  0.6458
  353MOL0     H47618   2.869   5.949  11.827 -1.3532  1.4142  1.5255
  353MOL0     H47619   2.719   5.651  11.774 -1.5325 -0.1709 -0.9821
  353MOL0     H47620   2.534   5.492  11.838 -1.1928 -5.3190  0.8756
  353MOL0     H47621   2.626   5.070  11.941 -0.1094  0.3388 -2.4928
  353MOL0     H47622   2.640   5.128  12.108 -0.0577  0.1107 -0.2047
  353MOL0     H47623   2.387   5.066  11.941  0.7308  0.3534 -0.4562
  353MOL0     H47624   2.447   4.964  12.058 -1.6513  0.1631 -0.6566
  353MOL0     H47625   2.255   5.088  12.126  1.0926 -2.6732  3.7907
  353MOL0     H47626   2.336   5.250  12.122 -1.8214 -0.2581 -2.4767
  353MOL0     H47627   2.407   4.999  12.294  2.0821  0.4636 -1.2222
  353MOL0     H47628   2.491   5.147  12.319  0.8241 -1.8470 -1.1418
  353MOL0     H47629   2.317   5.076  12.496 -0.7887 -1.7343 -0.1822
  353MOL0     H47630   2.191   5.082  12.365  1.4007 -1.2534 -2.0900
  353MOL0     H47631   2.363   5.320  12.447  0.7312  0.4197 -0.3186
  353MOL0     H47632   2.240   5.327  12.327 -1.7221  0.6048  0.6346
  353MOL0     H47633   2.175   5.413  12.548  1.6913 -0.7860  4.3734
  353MOL0     H47634   2.176   5.250  12.613 -0.5722  1.4850  0.6010
  353MOL0     H47635   1.961   5.318  12.555  0.0455 -0.1349  0.4972
  353MOL0     H47636   1.997   5.186  12.460 -1.4771  1.0430  1.3132
  353MOL0     H47637   2.809   5.225  12.003 -0.8651 -1.0628 -0.3204
  353MOL0     H47638   2.994   5.357  11.918 -0.5231  0.1615  4.5744
  353MOL0     H47639   3.228   5.633  11.698 -1.2788 -0.9603  2.9016
  353MOL0     H47640   3.401   5.780  11.621  1.1238 -3.5954  4.2156
  353MOL0     H47641   3.282   6.447  10.987  0.9937 -1.6350 -0.4496
  353MOL0     H47642   3.065   6.523  11.078  2.1969  0.9257 -0.0685
  353MOL0     H47643   2.498   6.481  10.861 -0.4983  0.1884  0.5763
  353MOL0     H47644   2.280   6.473  10.947  2.2590 -1.1447 -1.6005
  353MOL0     H47645   2.022   6.459  11.166 -0.7593 -0.7904  0.6212
  353MOL0     H47646   2.143   6.333  11.104  1.2917 -0.4550  1.5554
  353MOL0     H47647   2.172   6.262  11.320 -0.6372  0.6592  0.6828
  353MOL0     H47648   2.008   6.237  11.274 -2.5285  2.3273 -1.8019
  353MOL0     H47649   2.075   6.492  11.423  1.5149 -0.4719  2.6824
  353MOL0     H47650   2.049   6.347  11.513  2.4460 -0.2754  0.0618
  353MOL0     H47651   1.854   6.474  11.320  1.2503 -0.8490  0.1354
  353MOL0     H47652   1.846   6.490  11.498  2.1105  1.3331  0.5929
  353MOL0     H47653   1.664   6.103  11.419  0.4557 -0.1730 -2.0834
  353MOL0     H47654   2.409   6.443  11.338 -3.1047  0.5385 -0.9115
  353MOL0     H47655   2.648   6.408  11.271 -0.6872 -0.6931  1.2792
  354MOL0     O47656   5.619   0.738   7.668 -0.2013  0.3796  0.4035
  354MOL0     C47657   5.684   0.811   7.748  0.3874  0.4424  0.1740
  354MOL0     O47658   5.714   0.945   7.725  1.0631 -0.2502 -0.1223
  354MOL0     C47659   5.652   0.997   7.618 -0.3977  0.0300  0.8644
  354MOL0     C47660   5.720   0.998   7.497  0.6452 -0.2835  0.4335
  354MOL0     C47661   5.660   1.062   7.392 -0.6359 -0.1985  0.0616
  354MOL0     C47662   5.538   1.130   7.407  0.1737  0.0908 -0.1220
  354MOL0     O47663   5.470   1.203   7.319  0.0869 -0.5881 -0.1757
  354MOL0     C47664   5.540   1.309   7.257  0.4633 -0.3417  0.8365
  354MOL0     C47665   5.505   1.449   7.314 -0.1219 -0.2023 -0.3020
  354MOL0     C47666   5.372   1.495   7.256 -0.0819  0.0357 -0.8705
  354MOL0     C47667   5.381   1.539   7.111  0.6768  0.5186 -0.3434
  354MOL0     C47668   5.244   1.587   7.060 -0.2525  0.5849  0.6491
  354MOL0     C47669   5.260   1.668   6.931 -0.1099  0.4239 -0.2157
  354MOL0     C47670   5.141   1.681   6.841 -0.1348 -0.8742 -0.7576
  354MOL0     C47671   5.023   1.769   6.880  0.4838  0.2765 -0.2434
  354MOL0     N47672   4.917   1.699   6.957  0.3011  0.4310  0.2447
  354MOL0     C47673   4.863   1.578   6.924 -0.2199 -0.8153  0.0494
  354MOL0     C47674   4.747   1.562   6.999  0.0034  0.0855  0.0267
  354MOL0     C47675   4.642   1.452   7.010  0.8529  0.1928 -0.0570
  354MOL0     C47676   4.599   1.380   6.881  0.0504 -1.0371 -0.1139
  354MOL0     C47677   4.517   1.254   6.901  0.0898 -0.6409  0.7339
  354MOL0     C47678   4.467   1.201   6.765 -0.3922 -0.4957 -0.4227
  354MOL0     O47679   4.394   1.301   6.692 -0.3177  0.0106 -0.1433
  354MOL0     C47680   4.296   1.247   6.610 -0.1127 -0.4341  0.4537
  354MOL0     C47681   4.211   1.338   6.543 -0.1282 -0.1416  0.5360
  354MOL0     C47682   4.094   1.299   6.480 -0.1148  1.6528 -0.6114
  354MOL0     C47683   4.011   1.412   6.423 -0.0046 -0.8777 -0.0361
  354MOL0     C47684   4.070   1.158   6.459  0.5354  0.7590 -0.4326
  354MOL0     C47685   3.955   1.109   6.373  0.4076 -0.7506 -0.4724
  354MOL0     O47686   3.941   0.976   6.365 -0.4107  0.0384  0.3076
  354MOL0     C47687   3.817   0.923   6.338 -0.3384  0.6674  0.7035
  354MOL0     C47688   3.704   0.951   6.415 -0.2648 -0.1740 -0.8235
  354MOL0     C47689   3.578   0.894   6.396  0.1734 -0.5509  0.1787
  354MOL0     C47690   3.565   0.799   6.299 -0.2324 -0.0206  1.2001
  354MOL0     O47691   3.455   0.721   6.274  0.3829  0.1818  0.3786
  354MOL0     C47692   3.332   0.757   6.329 -0.1733  0.9641 -0.7799
  354MOL0     C47693   3.206   0.691   6.256  0.1438 -0.8088  0.2546
  354MOL0     C47694   3.083   0.772   6.280 -0.5498  0.2291 -0.2772
  354MOL0     C47695   3.062   0.800   6.434  0.2923 -0.2748 -0.0789
  354MOL0     C47696   2.921   0.853   6.451 -0.0772 -0.4438 -0.2468
  354MOL0     C47697   2.819   0.747   6.432  0.2645 -0.2081 -0.2288
  354MOL0     C47698   2.681   0.806   6.488 -0.2260  0.5149  0.0686
  354MOL0     C47699   2.586   0.694   6.527  0.1482 -0.2740  0.4770
  354MOL0    Cl47700   2.646   0.588   6.664 -0.6354  0.1915  0.3944
  354MOL0     C47701   3.669   0.784   6.208 -0.4591  0.9463 -0.9189
  354MOL0     C47702   3.792   0.832   6.228  0.6576 -0.7544  0.2559
  354MOL0     O47703   3.872   1.184   6.327 -0.7614 -0.6929 -0.2159
  354MOL0     C47704   4.164   1.064   6.520  0.5743  0.3491 -0.1480
  354MOL0     C47705   4.280   1.110   6.588 -0.0666 -0.4315 -0.3722
  354MOL0     N47706   4.742   1.667   7.087  0.0377 -0.3017 -0.1560
  354MOL0     N47707   4.837   1.748   7.058  0.0167 -0.1518  0.5798
  354MOL0     C47708   5.465   1.110   7.531 -1.0510  0.9018  0.1395
  354MOL0     C47709   5.526   1.043   7.637  0.7158 -0.0189 -0.2109
  354MOL0     C47710   5.710   0.761   7.881 -0.5123  1.0098  1.0946
  354MOL0     C47711   5.825   0.798   7.941 -0.0788 -0.2275 -0.5565
  354MOL0     C47712   5.867   0.744   8.058 -0.2511  0.5261  0.0336
  354MOL0     C47713   5.799   0.641   8.123 -0.0924 -0.2803 -1.0104
  354MOL0     O47714   5.844   0.581   8.239  0.1351  0.5119 -0.5995
  354MOL0     C47715   5.952   0.648   8.310  0.8593  0.0677 -0.2685
  354MOL0     C47716   5.908   0.760   8.410  0.8130 -0.3594  0.3917
  354MOL0     C47717   5.864   0.706   8.545 -0.4107 -0.0809 -0.6726
  354MOL0     C47718   5.775   0.795   8.635 -0.2364  0.6947 -0.6233
  354MOL0     C47719   5.846   0.915   8.682  0.0525  0.5610 -0.2270
  354MOL0     C47720   5.892   1.018   8.737  0.1890  0.2097  0.3751
  354MOL0     C47721   5.685   0.590   8.061 -0.8022  0.1692  0.1044
  354MOL0     C47722   5.638   0.648   7.934 -0.1788 -0.5651 -0.4820
  354MOL0     H47723   5.808   0.938   7.481 -1.0683 -2.5564 -1.1870
  354MOL0     H47724   5.724   1.070   7.304  3.8268  1.0251  3.0354
  354MOL0     H47725   5.648   1.292   7.266  0.5683  0.1906  0.6287
  354MOL0     H47726   5.522   1.320   7.149  1.3653  0.1642  0.7290
  354MOL0     H47727   5.502   1.444   7.423  2.4506  0.2652 -0.1385
  354MOL0     H47728   5.588   1.513   7.282 -1.1951  0.8771 -0.9713
  354MOL0     H47729   5.299   1.414   7.261  1.4704 -1.3700  0.0281
  354MOL0     H47730   5.331   1.578   7.313 -0.8871 -0.1150 -1.2271
  354MOL0     H47731   5.446   1.627   7.116 -0.2809  1.3054 -1.1646
  354MOL0     H47732   5.424   1.465   7.043 -0.5184  0.5739 -1.2000
  354MOL0     H47733   5.174   1.503   7.061  2.4400 -1.8455 -0.4668
  354MOL0     H47734   5.202   1.659   7.130  0.2469 -0.1618  1.7463
  354MOL0     H47735   5.307   1.765   6.953  0.1511  0.5303 -1.2064
  354MOL0     H47736   5.334   1.614   6.871 -0.1271  1.6666 -1.4055
  354MOL0     H47737   5.183   1.738   6.758 -1.0933 -0.2868 -0.8502
  354MOL0     H47738   5.117   1.579   6.809  1.3361 -2.4296  2.6247
  354MOL0     H47739   4.981   1.823   6.795  1.0149  2.7056  0.9698
  354MOL0     H47740   5.056   1.846   6.949  1.0919  1.7309 -2.0605
  354MOL0     H47741   4.902   1.510   6.849  2.0470 -1.5133  1.7449
  354MOL0     H47742   4.674   1.381   7.087 -1.0808  0.5070  1.1232
  354MOL0     H47743   4.561   1.509   7.057  0.7446 -0.1311  0.1511
  354MOL0     H47744   4.689   1.359   6.823  1.3023 -0.1460  1.4455
  354MOL0     H47745   4.539   1.445   6.816  2.4027  0.6697 -0.6860
  354MOL0     H47746   4.428   1.286   6.957  1.2716 -0.7824  2.8212
  354MOL0     H47747   4.558   1.172   6.960 -2.9787 -0.1881  3.8441
  354MOL0     H47748   4.406   1.114   6.789  1.4548 -1.7667 -0.1175
  354MOL0     H47749   4.547   1.160   6.702  0.2472  1.4478 -0.9758
  354MOL0     H47750   4.235   1.442   6.565 -0.3466  0.0241  0.0111
  354MOL0     H47751   4.059   1.507   6.451 -0.4334 -1.6264  3.7150
  354MOL0     H47752   4.012   1.411   6.313  0.1670  2.7256 -0.2072
  354MOL0     H47753   3.911   1.408   6.467  0.2491 -2.0188  0.4665
  354MOL0     H47754   3.703   1.026   6.493  1.3430  0.1456 -1.0563
  354MOL0     H47755   3.502   0.909   6.472  1.4977  1.4977  1.1857
  354MOL0     H47756   3.337   0.726   6.434  3.2043  4.3928  0.2797
  354MOL0     H47757   3.314   0.864   6.336  2.5934  1.5573 -1.4201
  354MOL0     H47758   3.220   0.689   6.147  0.7786 -3.3798  0.3275
  354MOL0     H47759   3.195   0.589   6.294  3.6963 -0.8613  1.4633
  354MOL0     H47760   3.000   0.713   6.240 -0.8970 -0.6235  1.6198
  354MOL0     H47761   3.086   0.867   6.225 -0.1682 -0.6382 -1.8034
  354MOL0     H47762   3.096   0.720   6.499  0.4107  0.0617  0.2724
  354MOL0     H47763   3.121   0.890   6.453  0.7418 -0.4580 -0.5976
  354MOL0     H47764   2.896   0.931   6.379 -2.1709  0.6854  1.5580
  354MOL0     H47765   2.910   0.907   6.546  0.9806  0.0247 -0.3761
  354MOL0     H47766   2.811   0.737   6.324  1.2384  2.6167 -0.6446
  354MOL0     H47767   2.840   0.648   6.474 -0.5675 -0.2895  0.0290
  354MOL0     H47768   2.640   0.865   6.405 -1.1853  1.0296  0.8904
  354MOL0     H47769   2.692   0.872   6.574 -0.5181  0.4822  0.1335
  354MOL0     H47770   2.580   0.639   6.433  0.6917 -0.4072  0.5194
  354MOL0     H47771   2.489   0.739   6.551  0.6642  1.5560 -0.6426
  354MOL0     H47772   3.657   0.716   6.124 -1.3433 -0.1322  0.0630
  354MOL0     H47773   3.873   0.820   6.156  1.2941  0.7611  0.6664
  354MOL0     H47774   4.135   0.959   6.512 -1.8836  1.0250 -1.1042
  354MOL0     H47775   4.349   1.039   6.632  2.1561  0.6456 -1.9414
  354MOL0     H47776   5.365   1.150   7.540 -1.4031  0.7570 -2.3523
  354MOL0     H47777   5.472   1.045   7.732 -0.0268  2.6401 -0.5962
  354MOL0     H47778   5.870   0.880   7.887 -5.1156  1.6194 -2.4756
  354MOL0     H47779   5.950   0.804   8.095 -1.9150  3.5484 -0.7792
  354MOL0     H47780   5.995   0.568   8.370  1.1807 -0.5219 -1.2611
  354MOL0     H47781   6.031   0.677   8.240  0.8119  0.8213 -0.0187
  354MOL0     H47782   5.831   0.817   8.357 -0.3001 -2.7676 -0.7736
  354MOL0     H47783   5.989   0.830   8.427 -1.1077  1.8587  0.8922
  354MOL0     H47784   5.957   0.686   8.600 -0.7843 -2.3964 -0.7824
  354MOL0     H47785   5.815   0.612   8.517 -1.9901  1.1837 -2.4071
  354MOL0     H47786   5.742   0.739   8.724 -0.0073 -0.6957 -1.3819
  354MOL0     H47787   5.686   0.832   8.583 -0.6831  0.1641 -0.2649
  354MOL0     H47788   5.927   1.091   8.806  2.2502  0.6054 -0.9986
  354MOL0     H47789   5.643   0.500   8.104 -0.0934 -0.5158 -0.5834
  354MOL0     H47790   5.547   0.608   7.892  0.2537 -1.5599 -0.4842
  355MOL0     O47791   7.091   0.539   8.594 -0.3994 -0.1469 -0.5088
  355MOL0     C47792   7.109   0.468   8.695 -0.2206  0.9421  0.0837
  355MOL0     O47793   7.024   0.381   8.759  0.1397 -0.0940  0.4488
  355MOL0     C47794   6.915   0.343   8.684  1.2242 -0.1003  0.2123
  355MOL0     C47795   6.786   0.391   8.727 -0.4540 -0.2290 -0.5191
  355MOL0     C47796   6.675   0.363   8.655  0.2965  0.1692  0.8669
  355MOL0     C47797   6.681   0.269   8.546 -0.5020  1.1037 -0.4368
  355MOL0     O47798   6.577   0.219   8.476  0.2755  0.0594 -0.0779
  355MOL0     C47799   6.448   0.234   8.543  0.4873  0.5711 -0.0180
  355MOL0     C47800   6.317   0.158   8.489  0.1571 -0.2736  0.5914
  355MOL0     C47801   6.278   0.204   8.346  0.6261  0.1167 -0.1408
  355MOL0     C47802   6.162   0.121   8.299  0.0992 -1.0970  0.7160
  355MOL0     C47803   6.139   0.167   8.149 -0.1002 -0.4206 -0.0840
  355MOL0     C47804   6.039   0.273   8.127 -0.0309 -1.3251 -0.5483
  355MOL0     C47805   5.991   0.309   7.994 -0.1688  0.2389 -0.1490
  355MOL0     C47806   6.067   0.417   7.914  0.9812 -0.7433  0.1368
  355MOL0     N47807   6.046   0.411   7.765  0.5691 -0.6826 -0.6521
  355MOL0     C47808   5.943   0.471   7.695 -0.2927  0.0902 -0.1273
  355MOL0     C47809   5.986   0.463   7.567 -0.2484 -0.1029 -0.3764
  355MOL0     C47810   5.907   0.515   7.451 -0.3356  0.4147  0.4661
  355MOL0     C47811   5.845   0.400   7.363 -0.3026 -0.7761  0.8427
  355MOL0     C47812   5.749   0.448   7.247 -0.3168 -0.0768  0.0317
  355MOL0     C47813   5.626   0.515   7.309  0.0238  0.5977  0.0629
  355MOL0     O47814   5.515   0.517   7.219 -0.2511  0.3017  1.2506
  355MOL0     C47815   5.392   0.551   7.276  0.1264  0.5904 -0.7620
  355MOL0     C47816   5.381   0.613   7.400 -0.5461  0.6268 -0.0603
  355MOL0     C47817   5.255   0.651   7.447  0.6402  0.7150 -0.2931
  355MOL0     C47818   5.261   0.732   7.571  0.2920  1.0944 -0.6085
  355MOL0     C47819   5.138   0.625   7.375  0.6092 -0.1925 -0.8808
  355MOL0     C47820   5.001   0.657   7.415 -0.2983 -0.3794  0.8378
  355MOL0     O47821   4.898   0.609   7.339  0.0627  0.0691  0.2581
  355MOL0     C47822   4.768   0.619   7.380  0.5232 -0.6604  0.4564
  355MOL0     C47823   4.734   0.579   7.514  0.3159 -1.2537  0.4550
  355MOL0     C47824   4.605   0.589   7.565 -0.3014  0.8150 -0.3221
  355MOL0     C47825   4.502   0.633   7.494 -0.2073  0.7322 -0.2125
  355MOL0     O47826   4.387   0.663   7.569  0.5849  1.0464 -0.0341
  355MOL0     C47827   4.257   0.688   7.505  0.6280  0.5364  0.5041
  355MOL0     C47828   4.202   0.544   7.473  0.0028 -0.5973 -0.3699
  355MOL0     C47829   4.061   0.562   7.410 -0.0043  0.2555  0.5531
  355MOL0     C47830   4.009   0.420   7.400  0.3980  0.1109  0.2787
  355MOL0     C47831   3.861   0.420   7.361  0.8358 -0.2581  0.2253
  355MOL0     C47832   3.818   0.273   7.354 -0.0725 -0.5981  0.1871
  355MOL0     C47833   3.672   0.264   7.348 -0.0262  0.4574  0.0711
  355MOL0     C47834   3.612   0.116   7.352 -0.1149  0.0712 -0.4132
  355MOL0    Cl47835   3.678   0.029   7.499  0.3211  0.1031 -0.0997
  355MOL0     C47836   4.522   0.668   7.358 -0.8249 -1.0454  0.4385
  355MOL0     C47837   4.659   0.663   7.298 -0.4217 -0.0985 -0.5598
  355MOL0     O47838   4.985   0.717   7.519 -0.2623 -0.3413  0.5702
  355MOL0     C47839   5.151   0.562   7.249 -0.9878  0.4621  0.5191
  355MOL0     C47840   5.278   0.522   7.204 -0.8319  0.4526 -0.1244
  355MOL0     N47841   6.104   0.393   7.561 -0.2614 -0.7935  0.4407
  355MOL0     N47842   6.144   0.362   7.683  0.1079 -0.3184  0.2494
  355MOL0     C47843   6.806   0.217   8.508 -0.0901  0.8010  0.2731
  355MOL0     C47844   6.925   0.263   8.574 -0.2063  0.2373 -0.1048
  355MOL0     C47845   7.235   0.486   8.764  0.0531 -0.9816 -0.3307
  355MOL0     C47846   7.257   0.466   8.904  0.1712 -0.1529  0.0748
  355MOL0     C47847   7.368   0.516   8.969 -0.0676  0.6246  0.5066
  355MOL0     C47848   7.468   0.574   8.900  0.2168 -0.2501  1.1208
  355MOL0     O47849   7.575   0.617   8.974  0.6289 -0.4991  0.7704
  355MOL0     C47850   7.708   0.638   8.920 -0.3161  0.5763  0.2098
  355MOL0     C47851   7.749   0.785   8.888 -0.0687 -0.7674 -0.0569
  355MOL0     C47852   7.695   0.896   8.975  0.0737  0.2156 -0.0300
  355MOL0     C47853   7.746   0.891   9.116  0.1881  0.0336 -0.6903
  355MOL0     C47854   7.893   0.859   9.129  0.6248 -0.4974  0.1014
  355MOL0     C47855   8.011   0.846   9.161  0.2947 -0.7933 -0.6543
  355MOL0     C47856   7.457   0.582   8.759 -0.0114 -0.2833 -0.0965
  355MOL0     C47857   7.340   0.536   8.693 -0.0455 -0.6288 -1.3217
  355MOL0     H47858   6.783   0.447   8.820 -2.6895 -0.8751 -0.1459
  355MOL0     H47859   6.584   0.412   8.687  0.8055  2.0145 -0.3881
  355MOL0     H47860   6.447   0.215   8.650 -4.1405 -2.7414 -0.3937
  355MOL0     H47861   6.425   0.340   8.528  1.4785  0.3869 -4.4666
  355MOL0     H47862   6.337   0.050   8.494  1.6565 -0.1126 -1.1512
  355MOL0     H47863   6.227   0.180   8.548  0.9497  0.5629  1.5154
  355MOL0     H47864   6.236   0.305   8.353 -0.4859 -0.3555  0.3078
  355MOL0     H47865   6.366   0.217   8.282  0.3513 -0.0966 -0.5716
  355MOL0     H47866   6.187   0.015   8.306 -0.3475 -1.0824  3.4018
  355MOL0     H47867   6.070   0.143   8.354  0.5759  0.7657  0.8439
  355MOL0     H47868   6.234   0.191   8.100  0.8334 -0.7197  1.4876
  355MOL0     H47869   6.090   0.081   8.102  1.3558 -0.5871 -1.3790
  355MOL0     H47870   5.949   0.262   8.188 -0.5191  4.2235  0.2790
  355MOL0     H47871   6.093   0.358   8.170  1.0002 -1.0377 -2.2672
  355MOL0     H47872   5.989   0.219   7.932  0.9939 -0.9212  1.4246
  355MOL0     H47873   5.887   0.343   8.001 -0.4050 -0.3210 -0.7951
  355MOL0     H47874   6.173   0.404   7.939  0.8884 -2.2225 -0.1449
  355MOL0     H47875   6.044   0.518   7.951 -0.7260 -0.5681 -1.2943
  355MOL0     H47876   5.850   0.516   7.729 -1.2095 -0.5270 -1.7340
  355MOL0     H47877   5.816   0.569   7.476 -1.3801  0.3684 -2.7633
  355MOL0     H47878   5.960   0.581   7.382 -1.8631  0.5120 -0.6653
  355MOL0     H47879   5.798   0.328   7.431 -1.4773 -0.7112  0.1326
  355MOL0     H47880   5.927   0.343   7.318 -0.2830  0.6093 -0.9981
  355MOL0     H47881   5.711   0.358   7.198 -3.2433  0.1988  1.5695
  355MOL0     H47882   5.795   0.504   7.165 -1.3055  1.2261  0.3265
  355MOL0     H47883   5.635   0.616   7.351 -0.1862  0.8127 -0.3977
  355MOL0     H47884   5.599   0.445   7.389 -0.8885  0.9043  0.0435
  355MOL0     H47885   5.458   0.644   7.469 -0.4487  4.5282 -1.6391
  355MOL0     H47886   5.199   0.679   7.644  1.2651  0.6002 -0.1155
  355MOL0     H47887   5.362   0.739   7.612  0.7992  4.3268 -2.1490
  355MOL0     H47888   5.229   0.836   7.562 -0.2408  0.9046 -1.0091
  355MOL0     H47889   4.818   0.552   7.577  0.9442 -0.8153 -0.1811
  355MOL0     H47890   4.590   0.577   7.672 -0.7349 -0.4952 -0.5149
  355MOL0     H47891   4.188   0.734   7.576 -0.1410  0.8482 -0.4267
  355MOL0     H47892   4.260   0.762   7.425 -1.9709  0.4027  0.2014
  355MOL0     H47893   4.269   0.496   7.400  0.2065  2.7083 -2.5682
  355MOL0     H47894   4.209   0.492   7.569  0.6263  1.1158  0.5527
  355MOL0     H47895   4.074   0.618   7.316  0.6279  0.3942  0.7125
  355MOL0     H47896   3.995   0.614   7.480 -0.6603 -0.7215  0.6587
  355MOL0     H47897   4.070   0.355   7.336  0.4373  0.3461  0.0735
  355MOL0     H47898   4.026   0.381   7.501  1.1922 -2.0455 -0.6287
  355MOL0     H47899   3.837   0.472   7.268  0.0194 -1.4720 -0.2688
  355MOL0     H47900   3.817   0.463   7.451  0.5865 -0.3657  0.1571
  355MOL0     H47901   3.874   0.224   7.274  2.3285 -3.0949  3.0867
  355MOL0     H47902   3.848   0.217   7.444  4.1912 -0.3716 -0.9078
  355MOL0     H47903   3.641   0.305   7.252 -0.1660 -2.1948 -1.1069
  355MOL0     H47904   3.616   0.326   7.419 -1.8051 -0.3186 -0.5665
  355MOL0     H47905   3.638   0.063   7.260 -1.0164  0.5199 -0.9427
  355MOL0     H47906   3.503   0.120   7.363  0.0592  0.9740  1.3080
  355MOL0     H47907   4.442   0.706   7.294  0.8519  1.9892 -0.0404
  355MOL0     H47908   4.683   0.681   7.194 -1.2339  2.2605 -0.3936
  355MOL0     H47909   5.073   0.524   7.184  0.2059 -2.3958  0.5583
  355MOL0     H47910   5.301   0.465   7.115  1.4616  0.3215  0.4796
  355MOL0     H47911   6.821   0.149   8.425  1.6327  0.3291  0.9334
  355MOL0     H47912   7.021   0.233   8.532 -0.1677 -0.7826  0.6843
  355MOL0     H47913   7.175   0.429   8.965  0.9758 -0.8370  0.7738
  355MOL0     H47914   7.376   0.511   9.078  0.0318 -1.5674  0.4392
  355MOL0     H47915   7.778   0.599   8.995  0.8014  1.9533 -0.0820
  355MOL0     H47916   7.722   0.581   8.827 -0.3255  3.2003 -1.4943
  355MOL0     H47917   7.705   0.805   8.790 -0.9019  0.8755  0.6004
  355MOL0     H47918   7.856   0.794   8.868  0.3824 -2.7182  1.2588
  355MOL0     H47919   7.586   0.893   8.970  0.0408  1.1375  0.0070
  355MOL0     H47920   7.718   0.993   8.931  1.1888  0.6696  1.4847
  355MOL0     H47921   7.694   0.815   9.176 -0.1858  0.7757 -0.0543
  355MOL0     H47922   7.726   0.987   9.165 -0.3314 -0.1827 -0.4715
  355MOL0     H47923   8.116   0.850   9.183  0.1172 -0.0929  0.1001
  355MOL0     H47924   7.533   0.637   8.705  0.1891 -0.1584  0.3062
  355MOL0     H47925   7.323   0.532   8.586  1.3206 -0.3827 -1.5644
  356MOL0     O47926   4.278   5.404   6.553 -0.0789 -0.6893 -0.0348
  356MOL0     C47927   4.191   5.486   6.573 -0.1442 -0.2099  0.6269
  356MOL0     O47928   4.071   5.462   6.627  0.5871  0.0641  0.4675
  356MOL0     C47929   4.049   5.343   6.682 -0.0517 -0.3819 -0.5450
  356MOL0     C47930   3.926   5.285   6.656 -0.5794  1.5040  0.2379
  356MOL0     C47931   3.885   5.172   6.731 -0.1278  0.7498  0.1499
  356MOL0     C47932   3.951   5.128   6.846  0.4215 -0.2155 -0.7046
  356MOL0     O47933   3.899   5.025   6.919  0.2144  0.0162  0.1725
  356MOL0     C47934   3.815   5.080   7.022  0.5112 -0.1605 -0.4873
  356MOL0     C47935   3.683   4.992   7.016 -0.5075  0.5098  0.4824
  356MOL0     C47936   3.687   4.837   6.998 -0.7377  0.0152 -0.2506
  356MOL0     C47937   3.572   4.770   7.068  0.3207 -0.0115 -0.2138
  356MOL0     C47938   3.443   4.806   6.990 -0.4101 -0.3967 -0.0314
  356MOL0     C47939   3.309   4.740   7.054 -0.2443  0.5765  0.2836
  356MOL0     C47940   3.302   4.591   7.079  0.6824 -0.3181 -0.4814
  356MOL0     C47941   3.385   4.545   7.202  0.1448 -0.6972  0.5912
  356MOL0     N47942   3.294   4.470   7.295  0.8039  0.7447  0.1399
  356MOL0     C47943   3.262   4.337   7.295 -0.4048 -0.0063  0.3857
  356MOL0     C47944   3.176   4.321   7.403 -0.2463  0.3275  0.1250
  356MOL0     C47945   3.113   4.205   7.468 -0.4695  0.5007  0.1793
  356MOL0     C47946   2.964   4.195   7.410 -0.3020  0.4215  0.0019
  356MOL0     C47947   2.952   4.149   7.259 -0.0760 -0.1359  1.6678
  356MOL0     C47948   2.810   4.118   7.211  0.8460  0.3775 -0.5066
  356MOL0     O47949   2.735   4.228   7.234  0.1807 -0.4447  0.4602
  356MOL0     C47950   2.608   4.225   7.284  0.5911  0.2581 -0.1272
  356MOL0     C47951   2.568   4.131   7.392 -0.6326 -0.8224 -0.4679
  356MOL0     C47952   2.440   4.137   7.448 -0.5918  0.0427  0.0505
  356MOL0     C47953   2.418   4.048   7.573 -0.5708 -0.4905  0.1444
  356MOL0     C47954   2.347   4.235   7.401  0.7624 -0.7251  0.3701
  356MOL0     C47955   2.213   4.260   7.465  0.6767 -0.3088  0.5049
  356MOL0     O47956   2.150   4.370   7.434 -0.0845 -0.2647  0.3582
  356MOL0     C47957   2.043   4.415   7.505  0.8289 -0.4528 -0.4785
  356MOL0     C47958   1.933   4.463   7.430 -0.5331  0.4811 -0.3397
  356MOL0     C47959   1.816   4.506   7.492 -0.0768 -0.5568 -0.0472
  356MOL0     C47960   1.811   4.511   7.632  0.0477 -0.0889  0.8649
  356MOL0     O47961   1.690   4.540   7.684 -0.6149 -0.8333  0.1859
  356MOL0     C47962   1.672   4.576   7.822 -0.2033 -0.1167  0.0856
  356MOL0     C47963   1.556   4.678   7.826  0.1376 -0.7235 -0.4519
  356MOL0     C47964   1.566   4.798   7.735 -0.0532 -0.7165  0.3803
  356MOL0     C47965   1.426   4.877   7.731  0.8780 -0.6906  0.4817
  356MOL0     C47966   1.444   5.017   7.659  0.3245 -0.7793 -1.0388
  356MOL0     C47967   1.322   5.103   7.655 -0.3871  0.3227  0.5438
  356MOL0     C47968   1.352   5.241   7.595  0.4708  0.3060  0.9370
  356MOL0     C47969   1.240   5.340   7.606 -0.5831  0.4092 -0.3983
  356MOL0    Cl47970   1.269   5.505   7.533 -0.1656  0.7919 -0.2976
  356MOL0     C47971   1.918   4.456   7.707  0.8835  0.5278 -0.0989
  356MOL0     C47972   2.033   4.411   7.643  0.5153 -0.3943 -0.1625
  356MOL0     O47973   2.167   4.172   7.537 -0.2253 -0.0819 -0.4308
  356MOL0     C47974   2.389   4.328   7.307 -0.5658 -1.3542  0.7681
  356MOL0     C47975   2.520   4.326   7.246  0.1248 -0.1330  0.0016
  356MOL0     N47976   3.168   4.447   7.465 -0.1726 -0.5577  0.2611
  356MOL0     N47977   3.240   4.535   7.405 -0.6734 -0.4421 -0.2960
  356MOL0     C47978   4.076   5.185   6.870 -0.0673 -0.0926 -0.2013
  356MOL0     C47979   4.126   5.289   6.799 -0.6604 -0.4710  0.6637
  356MOL0     C47980   4.228   5.629   6.551 -0.6386  0.6464 -0.0146
  356MOL0     C47981   4.137   5.729   6.546 -0.2531  0.1367  0.2009
  356MOL0     C47982   4.177   5.863   6.528 -0.2005 -0.6359 -0.3838
  356MOL0     C47983   4.308   5.900   6.527  0.1893 -0.0642  0.5694
  356MOL0     O47984   4.345   6.031   6.526  0.6482 -0.1176 -0.2470
  356MOL0     C47985   4.475   6.078   6.561 -0.1200  0.0917  1.0115
  356MOL0     C47986   4.496   6.225   6.537  0.3355  0.1047 -0.3508
  356MOL0     C47987   4.637   6.277   6.531 -0.0411  0.9521 -0.9191
  356MOL0     C47988   4.657   6.421   6.482  0.8356 -0.9388 -0.7595
  356MOL0     C47989   4.601   6.526   6.560 -0.2357 -0.3897 -0.7107
  356MOL0     C47990   4.549   6.616   6.623 -0.4895 -0.5268  0.0168
  356MOL0     C47991   4.405   5.800   6.542 -0.0813  1.0495 -0.1579
  356MOL0     C47992   4.367   5.671   6.554  0.4713  0.6042  1.1079
  356MOL0     H47993   3.867   5.329   6.576  0.0424  5.2943  1.6447
  356MOL0     H47994   3.788   5.127   6.713 -1.2068  1.3410  3.7144
  356MOL0     H47995   3.869   5.079   7.118 -0.1180  0.4009 -0.1225
  356MOL0     H47996   3.785   5.182   6.997  2.3021  0.9148  1.3969
  356MOL0     H47997   3.625   5.012   7.107  0.4691  3.6963  0.5248
  356MOL0     H47998   3.643   5.036   6.925  0.6552  2.4338  0.8434
  356MOL0     H47999   3.686   4.811   6.892 -3.2597  0.1753 -0.3211
  356MOL0     H48000   3.774   4.797   7.051 -0.6607  1.8401  1.0819
  356MOL0     H48001   3.588   4.663   7.058  2.7748  0.2383  0.3623
  356MOL0     H48002   3.570   4.788   7.176 -0.1529  1.0789 -0.3828
  356MOL0     H48003   3.434   4.915   6.989  3.4943  0.0880  0.9778
  356MOL0     H48004   3.451   4.769   6.887 -1.5582 -0.9496  0.0562
  356MOL0     H48005   3.280   4.789   7.147  0.9207  1.8515  0.0070
  356MOL0     H48006   3.232   4.754   6.978 -1.1026 -2.4445  0.4809
  356MOL0     H48007   3.198   4.558   7.087  1.7888 -3.8283  1.9686
  356MOL0     H48008   3.333   4.535   6.991  0.9977  2.2089 -2.0810
  356MOL0     H48009   3.420   4.633   7.256 -0.4685 -0.5610  0.7648
  356MOL0     H48010   3.474   4.485   7.180 -0.7523 -1.6081 -0.6901
  356MOL0     H48011   3.300   4.255   7.235 -1.3353 -2.3851  2.8540
  356MOL0     H48012   3.172   4.115   7.447  0.3922  1.3230 -1.0486
  356MOL0     H48013   3.112   4.222   7.576  2.4908 -0.0897  0.3876
  356MOL0     H48014   2.925   4.297   7.417  1.2502  1.1585 -1.2502
  356MOL0     H48015   2.902   4.123   7.464 -1.2938 -0.6997 -2.4736
  356MOL0     H48016   3.020   4.067   7.235  1.5916  1.6641 -0.1546
  356MOL0     H48017   2.991   4.234   7.201  2.7847 -0.4527  2.9697
  356MOL0     H48018   2.785   4.030   7.270  2.6691 -0.1113 -0.4003
  356MOL0     H48019   2.803   4.095   7.104 -2.5856 -0.1701 -0.2593
  356MOL0     H48020   2.641   4.063   7.433  1.5519  2.4334  1.4719
  356MOL0     H48021   2.382   4.114   7.653  0.9073 -0.0892  0.5174
  356MOL0     H48022   2.354   3.963   7.551  1.0189 -1.2922 -1.6557
  356MOL0     H48023   2.514   4.008   7.608 -0.5533 -1.2808 -0.7751
  356MOL0     H48024   1.935   4.460   7.322  0.1092  1.2342 -0.3557
  356MOL0     H48025   1.738   4.523   7.417  0.5929 -1.2592 -0.9253
  356MOL0     H48026   1.645   4.494   7.888 -1.3218  2.8710  3.7050
  356MOL0     H48027   1.753   4.624   7.877 -0.8935 -0.6531  1.6311
  356MOL0     H48028   1.460   4.630   7.809 -0.3207  0.2662 -0.7366
  356MOL0     H48029   1.535   4.717   7.926 -1.0977  0.5773 -1.1856
  356MOL0     H48030   1.587   4.766   7.633  3.0788  0.3352  0.5622
  356MOL0     H48031   1.648   4.867   7.761  1.3471 -2.0131 -0.4207
  356MOL0     H48032   1.350   4.814   7.685 -0.8603  0.9124  1.0144
  356MOL0     H48033   1.388   4.904   7.830  2.2654  0.0576  0.8309
  356MOL0     H48034   1.489   4.986   7.564  0.4802 -2.4341 -0.4637
  356MOL0     H48035   1.517   5.070   7.721 -1.1509 -0.3390  0.3944
  356MOL0     H48036   1.261   5.039   7.591  2.2339 -0.9516 -0.8131
  356MOL0     H48037   1.272   5.105   7.752  0.2263  1.1053  0.8584
  356MOL0     H48038   1.365   5.240   7.486  2.1990 -0.4061  1.1145
  356MOL0     H48039   1.440   5.287   7.639  0.1743  1.3282  0.4822
  356MOL0     H48040   1.236   5.359   7.714  1.8543 -2.6538  0.3567
  356MOL0     H48041   1.144   5.301   7.572 -0.2797  0.4628 -1.3405
  356MOL0     H48042   1.926   4.456   7.815  2.0464  0.8498 -0.1693
  356MOL0     H48043   2.116   4.369   7.699  1.8561  0.0316 -1.7583
  356MOL0     H48044   2.327   4.411   7.273 -0.6396 -0.9421  1.8754
  356MOL0     H48045   2.552   4.391   7.166  1.4703  1.1073  1.4943
  356MOL0     H48046   4.134   5.156   6.956  0.7492  2.5464  0.2478
  356MOL0     H48047   4.216   5.340   6.833  0.5714 -2.1662  0.1014
  356MOL0     H48048   4.030   5.713   6.543 -0.2873  0.2931  0.5268
  356MOL0     H48049   4.101   5.940   6.524 -0.8711 -1.0430  2.1939
  356MOL0     H48050   4.502   6.058   6.665  0.8441  1.1048  0.9789
  356MOL0     H48051   4.551   6.026   6.501 -1.1825  0.1601 -0.4357
  356MOL0     H48052   4.445   6.275   6.619  0.0768  0.7578 -0.9026
  356MOL0     H48053   4.449   6.259   6.445 -0.1861  0.4277  0.0330
  356MOL0     H48054   4.704   6.203   6.488  0.9760 -1.0030  3.4847
  356MOL0     H48055   4.665   6.271   6.637  1.3273 -1.8125 -1.3517
  356MOL0     H48056   4.607   6.442   6.386  0.3318  2.0183  0.0432
  356MOL0     H48057   4.765   6.437   6.470  1.3886 -2.5916  1.4245
  356MOL0     H48058   4.506   6.695   6.681 -0.0726  0.4000 -0.9092
  356MOL0     H48059   4.513   5.805   6.552 -0.0048  1.6330 -1.1955
  356MOL0     H48060   4.443   5.594   6.548 -0.1578  0.0950 -0.8682
  357MOL0     O48061  10.876   0.282   4.021  0.4700  0.7412  0.1326
  357MOL0     C48062  10.904   0.374   4.097 -0.2061 -0.0112  0.4488
  357MOL0     O48063  10.817   0.462   4.143  0.2916 -0.2402 -0.4100
  357MOL0     C48064  10.680   0.439   4.153 -0.0779 -0.5108  0.1160
  357MOL0     C48065  10.607   0.310   4.147 -0.4967 -0.3939 -0.5769
  357MOL0     C48066  10.469   0.311   4.160 -0.6451 -0.1158 -0.5098
  357MOL0     C48067  10.407   0.424   4.198  0.7745 -0.2930 -0.0326
  357MOL0     O48068  10.280   0.403   4.231  0.0776  0.0675 -0.6514
  357MOL0     C48069  10.202   0.511   4.254 -0.2001 -0.4573 -0.0566
  357MOL0     C48070  10.060   0.471   4.280  0.0209 -0.5514 -0.0963
  357MOL0     C48071   9.960   0.580   4.310  0.3464 -0.2367 -0.5766
  357MOL0     C48072   9.885   0.627   4.184  0.0927  0.0220  0.1120
  357MOL0     C48073   9.790   0.738   4.218 -0.9387 -0.0301 -0.3431
  357MOL0     C48074   9.686   0.779   4.116  0.3558  0.3129  0.1272
  357MOL0     C48075   9.572   0.866   4.183  0.1227  1.0204  0.8067
  357MOL0     C48076   9.431   0.851   4.127 -1.0061 -0.7515  0.5319
  357MOL0     N48077   9.431   0.885   3.983  0.1545  0.1167 -0.3719
  357MOL0     C48078   9.349   0.832   3.889 -0.7319 -0.2802  1.0048
  357MOL0     C48079   9.379   0.907   3.786 -0.3174  0.4078  0.8262
  357MOL0     C48080   9.297   0.906   3.658  0.2793  0.4404 -0.2752
  357MOL0     C48081   9.167   0.985   3.675 -0.5771 -0.0296  0.1749
  357MOL0     C48082   9.150   1.071   3.548  0.1848 -0.0008 -0.7299
  357MOL0     C48083   9.018   1.153   3.546 -0.4557  0.3902  0.2181
  357MOL0     O48084   8.908   1.056   3.530  0.2776  0.1529 -0.3178
  357MOL0     C48085   8.812   1.091   3.438  0.5416 -0.0271 -0.9525
  357MOL0     C48086   8.764   1.224   3.427  0.4101  0.3359  0.3909
  357MOL0     C48087   8.650   1.260   3.345 -0.7851  0.3129  0.2828
  357MOL0     C48088   8.619   1.413   3.355  0.7732 -0.0065 -0.0440
  357MOL0     C48089   8.582   1.166   3.276  0.5545  0.8220 -0.3390
  357MOL0     C48090   8.454   1.196   3.206 -0.1606 -0.2286  0.2285
  357MOL0     O48091   8.399   1.100   3.135  0.2296 -0.0059 -0.2824
  357MOL0     C48092   8.271   1.126   3.082  0.7806 -0.1355 -0.0706
  357MOL0     C48093   8.243   1.190   2.959  0.1616  0.2233  0.1794
  357MOL0     C48094   8.106   1.206   2.909 -0.4246  0.1641  0.0401
  357MOL0     C48095   8.000   1.148   2.982  0.3698  0.1818  0.1289
  357MOL0     O48096   7.876   1.166   2.929 -0.4619 -0.1220  0.5212
  357MOL0     C48097   7.842   1.070   2.822  0.0087 -0.6940 -0.8388
  357MOL0     C48098   7.697   1.051   2.779 -0.3524 -0.3681  0.9971
  357MOL0     C48099   7.637   1.173   2.725 -0.5770  0.0103  0.3621
  357MOL0     C48100   7.524   1.136   2.621  0.6022 -0.1972  0.2218
  357MOL0     C48101   7.441   1.255   2.579  0.1260  0.0867 -0.9044
  357MOL0     C48102   7.323   1.200   2.498  0.5291  0.0408 -0.1321
  357MOL0     C48103   7.260   1.293   2.390  0.5245  0.2738 -0.2818
  357MOL0     C48104   7.105   1.308   2.413  0.0085 -0.2792  0.0952
  357MOL0    Cl48105   7.029   1.139   2.398  0.4860 -0.1268  0.1394
  357MOL0     C48106   8.026   1.083   3.096  1.1269 -0.1834 -0.4668
  357MOL0     C48107   8.158   1.075   3.145  0.5116 -0.4200 -0.0854
  357MOL0     O48108   8.403   1.309   3.216 -0.1735 -0.3754 -0.2010
  357MOL0     C48109   8.624   1.031   3.298  0.0340  0.6369  0.0084
  357MOL0     C48110   8.739   0.997   3.371  0.5830  0.0636 -0.1284
  357MOL0     N48111   9.480   0.992   3.812  0.0362  0.2093 -0.2008
  357MOL0     N48112   9.509   0.988   3.929 -0.0881  0.9745  0.4515
  357MOL0     C48113  10.475   0.547   4.203 -0.1158 -0.5377  1.1730
  357MOL0     C48114  10.608   0.557   4.179 -0.3976 -0.3051  0.2144
  357MOL0     C48115  11.048   0.396   4.125 -0.1361  0.0670  0.2657
  357MOL0     C48116  11.141   0.298   4.116  0.2532  1.3752  0.2515
  357MOL0     C48117  11.271   0.321   4.154 -1.1629  0.0640  0.4769
  357MOL0     C48118  11.317   0.448   4.193 -0.5483 -0.5913  0.0064
  357MOL0     O48119  11.447   0.476   4.224  0.7749  0.4598 -0.0128
  357MOL0     C48120  11.535   0.472   4.113  0.4761 -0.0083 -0.0013
  357MOL0     C48121  11.677   0.504   4.161  0.1131  0.4259 -0.1858
  357MOL0     C48122  11.702   0.633   4.234  0.4634 -0.6407  0.2098
  357MOL0     C48123  11.744   0.619   4.384  0.1602 -0.4452  0.3566
  357MOL0     C48124  11.889   0.582   4.394  0.2208  0.2967 -0.3860
  357MOL0     C48125  12.008   0.549   4.403  0.5617 -0.1093  0.2936
  357MOL0     C48126  11.226   0.553   4.198  0.3305  0.2582  0.2181
  357MOL0     C48127  11.087   0.529   4.166 -1.0204 -0.7569 -0.2153
  357MOL0     H48128  10.668   0.221   4.134 -0.7390 -0.3092 -2.6358
  357MOL0     H48129  10.408   0.222   4.146  1.2673 -0.9827 -4.9160
  357MOL0     H48130  10.244   0.567   4.339 -0.4743 -0.8530  0.3479
  357MOL0     H48131  10.211   0.573   4.165  4.0963  0.1017  0.5647
  357MOL0     H48132  10.016   0.414   4.197 -0.5798  0.1854 -0.3004
  357MOL0     H48133  10.071   0.409   4.369 -0.0159 -0.7336 -0.2174
  357MOL0     H48134   9.891   0.534   4.382 -0.1553 -0.1981 -1.0294
  357MOL0     H48135  10.001   0.664   4.368 -2.8617 -0.3889  2.2298
  357MOL0     H48136   9.961   0.656   4.111  2.5977 -1.4105  1.9911
  357MOL0     H48137   9.832   0.542   4.141  0.3325 -0.6093  1.0412
  357MOL0     H48138   9.737   0.706   4.308  0.2363 -4.7315 -1.0734
  357MOL0     H48139   9.846   0.827   4.248 -0.2155 -0.9985  1.3282
  357MOL0     H48140   9.735   0.824   4.029 -1.0766  0.8484 -0.4491
  357MOL0     H48141   9.651   0.684   4.075  2.4853 -0.6556  0.4356
  357MOL0     H48142   9.554   0.845   4.289 -2.3128 -2.0968 -0.1123
  357MOL0     H48143   9.607   0.970   4.177  0.8166  0.7070 -2.5438
  357MOL0     H48144   9.359   0.910   4.183  1.7616  0.4455  3.0572
  357MOL0     H48145   9.402   0.746   4.137  1.8054 -1.4383  2.6938
  357MOL0     H48146   9.269   0.759   3.901 -0.2766 -0.8028  0.8581
  357MOL0     H48147   9.353   0.953   3.577 -1.2449  0.8739 -1.1151
  357MOL0     H48148   9.268   0.805   3.629 -1.1951  0.6388  0.3998
  357MOL0     H48149   9.180   1.057   3.757  0.3636 -0.1881  0.1847
  357MOL0     H48150   9.079   0.923   3.693  0.3975 -1.3698  0.4719
  357MOL0     H48151   9.144   0.995   3.469 -1.5465 -1.5299  0.7855
  357MOL0     H48152   9.239   1.134   3.537 -1.2656  2.5954  1.2821
  357MOL0     H48153   9.030   1.232   3.472  0.6387  0.5987  0.6001
  357MOL0     H48154   9.006   1.206   3.641 -2.1348 -1.2493  0.9911
  357MOL0     H48155   8.811   1.303   3.484  1.2154 -0.4984  0.9003
  357MOL0     H48156   8.520   1.419   3.401  0.5427  0.0483 -0.5409
  357MOL0     H48157   8.692   1.476   3.406  0.3890  1.1339 -0.8346
  357MOL0     H48158   8.605   1.450   3.252 -1.3709 -0.9033 -0.1366
  357MOL0     H48159   8.330   1.216   2.899 -1.0256 -1.3532 -2.3860
  357MOL0     H48160   8.085   1.265   2.821  2.0289  1.9715  0.5400
  357MOL0     H48161   7.901   1.085   2.731 -1.1333  1.3712 -1.2899
  357MOL0     H48162   7.869   0.970   2.859  0.3430 -1.0217 -1.9333
  357MOL0     H48163   7.694   0.966   2.710  0.5011  0.8186 -0.5719
  357MOL0     H48164   7.632   1.033   2.865 -4.0438  3.8973 -0.5034
  357MOL0     H48165   7.710   1.234   2.671 -1.4989 -0.7669 -1.9017
  357MOL0     H48166   7.590   1.241   2.796  2.2045  0.7212  1.6357
  357MOL0     H48167   7.569   1.099   2.529  1.0707 -2.7152  1.3817
  357MOL0     H48168   7.459   1.057   2.657 -2.0409  1.3353 -0.9097
  357MOL0     H48169   7.499   1.326   2.519 -0.0951  1.0065 -0.0710
  357MOL0     H48170   7.402   1.305   2.668 -4.7933 -2.0497 -1.5684
  357MOL0     H48171   7.352   1.109   2.443  0.6060  0.2497 -0.4403
  357MOL0     H48172   7.240   1.168   2.562 -0.4319  0.8128 -0.9587
  357MOL0     H48173   7.289   1.266   2.288 -0.5742  0.3153 -0.6198
  357MOL0     H48174   7.292   1.397   2.406 -1.8825  0.8634  1.1153
  357MOL0     H48175   7.070   1.369   2.330  2.2253  0.4639 -0.3563
  357MOL0     H48176   7.087   1.353   2.511  2.0336 -2.5581  1.6302
  357MOL0     H48177   7.944   1.030   3.145  0.6102 -0.3742 -1.5034
  357MOL0     H48178   8.169   1.018   3.237  1.0186 -0.6130 -0.2639
  357MOL0     H48179   8.561   0.957   3.249 -0.8786  1.0354  0.5527
  357MOL0     H48180   8.780   0.897   3.382 -0.8891 -0.5368  0.0966
  357MOL0     H48181  10.426   0.643   4.216 -1.3653 -1.2546  1.9373
  357MOL0     H48182  10.652   0.654   4.201 -2.0328  0.1900  1.4722
  357MOL0     H48183  11.112   0.208   4.063 -0.7160  1.2863  0.9088
  357MOL0     H48184  11.343   0.241   4.145  2.3381  2.6010  2.8873
  357MOL0     H48185  11.534   0.373   4.068 -1.0953 -0.2264  0.4499
  357MOL0     H48186  11.494   0.538   4.035  2.7653  0.0386 -1.2534
  357MOL0     H48187  11.740   0.506   4.072  1.0653 -1.5614  0.3751
  357MOL0     H48188  11.720   0.416   4.210  1.6891 -0.4013 -2.8881
  357MOL0     H48189  11.607   0.688   4.240  1.0381  0.3177  0.6948
  357MOL0     H48190  11.775   0.689   4.175  1.0903 -2.9678 -1.3515
  357MOL0     H48191  11.676   0.549   4.433 -0.9309  0.9206  0.8512
  357MOL0     H48192  11.718   0.714   4.430 -2.0911 -1.6593  1.7602
  357MOL0     H48193  12.112   0.527   4.394  0.9326  2.0277 -1.6262
  357MOL0     H48194  11.260   0.653   4.221  3.3155 -0.7660  0.7656
  357MOL0     H48195  11.026   0.617   4.180 -0.6758 -0.6831  0.8498
  358MOL0     O48196   1.597   9.722   7.059  0.0609 -0.4561 -0.5352
  358MOL0     C48197   1.483   9.713   7.024  0.7233 -1.0324 -0.2345
  358MOL0     O48198   1.411   9.606   7.029 -0.3118  0.0931 -0.0909
  358MOL0     C48199   1.479   9.489   7.071 -0.3562  1.5318  0.4224
  358MOL0     C48200   1.540   9.405   6.968  0.7687 -0.2641  0.4309
  358MOL0     C48201   1.602   9.292   7.012 -0.3613 -0.4737  0.0479
  358MOL0     C48202   1.630   9.263   7.149  0.2787 -0.5425 -0.9337
  358MOL0     O48203   1.699   9.157   7.197 -0.6866 -0.3397  0.0079
  358MOL0     C48204   1.728   9.052   7.101  0.8203 -0.4133 -0.9048
  358MOL0     C48205   1.752   8.910   7.155  0.0118 -0.2482 -0.5645
  358MOL0     C48206   1.877   8.875   7.243 -0.9270 -0.4807 -0.4846
  358MOL0     C48207   2.013   8.891   7.173  0.1567  0.5441  0.1308
  358MOL0     C48208   2.023   8.794   7.052  0.2380  0.6822  0.1379
  358MOL0     C48209   2.160   8.799   6.985  0.1725  0.1619  0.4091
  358MOL0     C48210   2.202   8.678   6.907  0.7878 -0.5567  0.1059
  358MOL0     C48211   2.353   8.693   6.875 -0.1449 -0.5413 -0.4711
  358MOL0     N48212   2.407   8.567   6.818 -0.3685 -0.1359 -0.0237
  358MOL0     C48213   2.535   8.560   6.766  0.6519 -0.1808  0.0733
  358MOL0     C48214   2.555   8.437   6.737  0.0578  0.3273 -0.5837
  358MOL0     C48215   2.689   8.383   6.695 -0.0671 -0.6829  0.4838
  358MOL0     C48216   2.759   8.432   6.558 -0.3483  0.2655  0.7986
  358MOL0     C48217   2.664   8.428   6.429 -0.6608  0.1986  0.3854
  358MOL0     C48218   2.622   8.285   6.409 -0.7994 -0.4950 -1.0118
  358MOL0     O48219   2.547   8.270   6.289  0.2562  0.0215 -0.2413
  358MOL0     C48220   2.412   8.312   6.294 -0.9783  0.5622  0.4923
  358MOL0     C48221   2.335   8.347   6.406 -0.3285 -0.5552  0.2078
  358MOL0     C48222   2.205   8.392   6.392  0.1670 -0.2613 -0.5530
  358MOL0     C48223   2.128   8.422   6.522  0.1844 -0.4148 -0.2502
  358MOL0     C48224   2.145   8.399   6.265  0.8141  0.1160  0.4219
  358MOL0     C48225   2.009   8.452   6.249 -0.0002  0.3825  0.5986
  358MOL0     O48226   1.974   8.569   6.318  0.5490  0.5129  0.2231
  358MOL0     C48227   1.841   8.587   6.325 -0.1196  0.4560 -0.8475
  358MOL0     C48228   1.761   8.616   6.212  0.0581 -1.3383  0.5784
  358MOL0     C48229   1.619   8.618   6.215 -0.3639  0.1648 -0.0328
  358MOL0     C48230   1.553   8.601   6.345 -0.1328 -0.2927 -0.3034
  358MOL0     O48231   1.422   8.608   6.376 -0.6422 -0.5128  0.0525
  358MOL0     C48232   1.327   8.593   6.263 -0.2688  0.6029  0.0123
  358MOL0     C48233   1.191   8.560   6.323 -0.2147 -0.0337 -0.0531
  358MOL0     C48234   1.140   8.672   6.413 -0.8745  0.4223  0.3077
  358MOL0     C48235   1.111   8.806   6.353  0.9804 -0.8134 -0.2407
  358MOL0     C48236   1.066   8.901   6.464  0.1715 -0.0446  0.7741
  358MOL0     C48237   0.973   9.013   6.411  0.2344 -0.3980  0.9683
  358MOL0     C48238   0.954   9.125   6.512  0.3204  0.1658  0.4850
  358MOL0     C48239   0.845   9.222   6.486  0.0737 -0.3749 -0.2657
  358MOL0    Cl48240   0.906   9.319   6.350 -0.1785  0.3906 -0.2528
  358MOL0     C48241   1.639   8.583   6.460 -0.0602  0.4692  0.2321
  358MOL0     C48242   1.774   8.576   6.449 -0.1696 -0.1796  0.1038
  358MOL0     O48243   1.933   8.374   6.196  0.0122 -0.0046  0.1493
  358MOL0     C48244   2.218   8.354   6.154 -0.1577  0.1053  0.2807
  358MOL0     C48245   2.355   8.319   6.173 -0.2625 -0.3062  0.2176
  358MOL0     N48246   2.433   8.367   6.754 -0.1627 -0.0104  0.4788
  358MOL0     N48247   2.339   8.442   6.798  0.4698 -0.3958  0.2415
  358MOL0     C48248   1.585   9.351   7.238 -0.3253 -0.4643 -0.0950
  358MOL0     C48249   1.499   9.459   7.207 -0.3429 -0.3888  0.7112
  358MOL0     C48250   1.421   9.839   6.987  0.4672 -0.6881  0.7271
  358MOL0     C48251   1.300   9.841   6.924  0.0288  0.4090  0.2026
  358MOL0     C48252   1.249   9.956   6.868 -0.1043 -0.0023  0.1290
  358MOL0     C48253   1.315  10.079   6.880 -0.5373  0.0940  0.2250
  358MOL0     O48254   1.259  10.199   6.840 -0.1038 -0.2562 -0.6621
  358MOL0     C48255   1.143  10.197   6.751  0.0249 -1.4923  0.4032
  358MOL0     C48256   1.116  10.340   6.689  0.2394 -0.1709 -0.2945
  358MOL0     C48257   1.210  10.396   6.577 -0.4036 -0.2853 -0.3716
  358MOL0     C48258   1.154  10.525   6.522 -0.7818  0.1275  0.0641
  358MOL0     C48259   1.012  10.522   6.492 -0.1027 -0.0223 -0.2171
  358MOL0     C48260   0.887  10.524   6.497 -0.6195  0.3024  0.1242
  358MOL0     C48261   1.440  10.080   6.939 -0.3192 -0.2792  0.2610
  358MOL0     C48262   1.493   9.960   6.992 -0.9047 -0.3185 -0.5593
  358MOL0     H48263   1.531   9.432   6.863 -0.0806  1.1673  0.8406
  358MOL0     H48264   1.645   9.221   6.941  1.2844 -0.4008  0.9068
  358MOL0     H48265   1.635   9.035   7.046 -1.6630  2.6451  1.8647
  358MOL0     H48266   1.809   9.088   7.037  0.9313  2.7619  0.7931
  358MOL0     H48267   1.666   8.889   7.218  0.5686  1.5138  0.8600
  358MOL0     H48268   1.758   8.846   7.066  1.6478 -0.9530  0.0070
  358MOL0     H48269   1.865   8.937   7.332 -2.1199  1.6399 -2.0061
  358MOL0     H48270   1.877   8.775   7.286 -0.5943 -0.1959  0.2030
  358MOL0     H48271   2.031   8.994   7.141 -1.3266  1.0125  0.7458
  358MOL0     H48272   2.098   8.862   7.235  2.3143 -1.5898 -3.4443
  358MOL0     H48273   1.989   8.694   7.080 -2.4058  0.9694 -1.7367
  358MOL0     H48274   1.949   8.816   6.975  0.1041  0.7227  0.2783
  358MOL0     H48275   2.175   8.881   6.915  1.9762 -0.9958 -0.6360
  358MOL0     H48276   2.236   8.810   7.063 -0.5744 -2.2269  1.5679
  358MOL0     H48277   2.179   8.597   6.976  1.5769 -2.0591 -1.3054
  358MOL0     H48278   2.148   8.650   6.816 -1.8892  1.0868  1.0768
  358MOL0     H48279   2.404   8.720   6.968 -1.0291 -0.6369  0.0562
  358MOL0     H48280   2.372   8.772   6.802  0.6725  0.2457  0.5616
  358MOL0     H48281   2.612   8.637   6.765  0.0599  0.4207 -0.4245
  358MOL0     H48282   2.757   8.397   6.779 -0.3582  2.4702  0.3092
  358MOL0     H48283   2.682   8.273   6.692  1.7334 -0.8415  1.0515
  358MOL0     H48284   2.843   8.366   6.535  0.3737  1.8595 -1.5015
  358MOL0     H48285   2.799   8.533   6.568 -0.9664  0.5489  0.4861
  358MOL0     H48286   2.716   8.472   6.344  1.0775  2.6328  2.5478
  358MOL0     H48287   2.578   8.493   6.450 -0.2784 -0.0802  3.2789
  358MOL0     H48288   2.579   8.242   6.500 -0.4509 -0.1205 -0.6643
  358MOL0     H48289   2.711   8.222   6.405 -0.3420 -0.1726  1.9557
  358MOL0     H48290   2.385   8.350   6.503  0.0289  0.4558  0.0094
  358MOL0     H48291   2.113   8.530   6.533  0.5242 -0.4857  1.1099
  358MOL0     H48292   2.031   8.373   6.524 -0.9975  1.7315  3.1799
  358MOL0     H48293   2.181   8.392   6.613  0.9511  0.5110 -0.3707
  358MOL0     H48294   1.804   8.622   6.113 -0.8407  2.3886  0.2965
  358MOL0     H48295   1.557   8.643   6.129 -1.6849  1.3984  1.2180
  358MOL0     H48296   1.324   8.688   6.208 -2.9636  1.6681  1.7737
  358MOL0     H48297   1.358   8.515   6.193  3.3414  2.4258 -0.6660
  358MOL0     H48298   1.124   8.540   6.239 -1.0715 -0.3755  0.6952
  358MOL0     H48299   1.204   8.468   6.379  1.3314 -0.2884 -0.7925
  358MOL0     H48300   1.220   8.706   6.480 -2.4200  4.0419  0.5080
  358MOL0     H48301   1.060   8.628   6.474 -1.3326 -0.5183 -0.9355
  358MOL0     H48302   1.209   8.828   6.308 -0.1662  1.1881 -1.9101
  358MOL0     H48303   1.035   8.793   6.276 -0.6858  0.1984  1.1523
  358MOL0     H48304   1.148   8.941   6.524 -0.0419  1.4767  0.0836
  358MOL0     H48305   1.004   8.844   6.534 -0.2635  1.9864  2.1307
  358MOL0     H48306   1.026   9.044   6.320 -1.3965  0.1426  0.1693
  358MOL0     H48307   0.877   8.979   6.371 -0.2163  2.6328 -0.8212
  358MOL0     H48308   1.048   9.179   6.525  1.9084 -2.7984  2.7429
  358MOL0     H48309   0.932   9.078   6.609  1.7759 -3.9320 -0.9434
  358MOL0     H48310   0.824   9.281   6.576 -4.4026 -0.0521 -1.2919
  358MOL0     H48311   0.753   9.165   6.471 -1.5443  1.2963  2.5520
  358MOL0     H48312   1.599   8.590   6.561  0.1727 -2.0123  0.5458
  358MOL0     H48313   1.839   8.552   6.533 -0.9962  1.2229  1.1960
  358MOL0     H48314   2.165   8.361   6.059 -0.1607  0.7799  0.3268
  358MOL0     H48315   2.407   8.282   6.085 -0.1609  1.9753 -0.7630
  358MOL0     H48316   1.606   9.322   7.341 -2.3548  2.9557  1.4353
  358MOL0     H48317   1.454   9.528   7.278 -3.8746 -0.4085 -1.2819
  358MOL0     H48318   1.239   9.754   6.906 -1.5921  1.4064  0.6796
  358MOL0     H48319   1.162   9.956   6.803 -0.3772  1.1719  0.4566
  358MOL0     H48320   1.172  10.134   6.667  1.6618 -0.3391  0.0568
  358MOL0     H48321   1.048  10.158   6.789 -0.6246 -2.1844 -1.8099
  358MOL0     H48322   1.120  10.415   6.769 -0.2004 -0.0466 -0.3857
  358MOL0     H48323   1.016  10.326   6.647  0.5429  0.4765 -1.2469
  358MOL0     H48324   1.211  10.319   6.500 -1.7140 -2.0850  1.3147
  358MOL0     H48325   1.313  10.405   6.614  0.2179  2.2353 -2.3791
  358MOL0     H48326   1.207  10.556   6.432 -1.4601  1.1644  0.0024
  358MOL0     H48327   1.182  10.600   6.596 -2.6888 -1.3490  2.4682
  358MOL0     H48328   0.780  10.522   6.489 -0.6071  0.7030 -0.1936
  358MOL0     H48329   1.482  10.180   6.935  0.6574 -0.6515  0.8903
  358MOL0     H48330   1.591   9.971   7.037 -1.0211  0.4726 -0.4821
  359MOL0     O48331   9.191   8.529  10.819  0.2859 -0.7252 -0.2926
  359MOL0     C48332   9.299   8.500  10.866  0.3068  0.7019  0.5040
  359MOL0     O48333   9.319   8.428  10.972  0.7368  0.3533  0.1833
  359MOL0     C48334   9.215   8.344  11.017  0.1325 -0.2538 -0.2737
  359MOL0     C48335   9.201   8.211  10.987  0.0418  1.0060  0.2931
  359MOL0     C48336   9.113   8.127  11.055 -0.0506  0.3832 -0.2557
  359MOL0     C48337   9.022   8.190  11.147 -0.6839  0.6500  0.1853
  359MOL0     O48338   8.934   8.097  11.205  0.6338 -0.2335  0.3724
  359MOL0     C48339   8.817   8.144  11.267 -0.1920  0.2209  0.5769
  359MOL0     C48340   8.711   8.154  11.156 -1.5881 -0.0225  0.8901
  359MOL0     C48341   8.661   8.020  11.137  0.0677  0.4729 -0.0376
  359MOL0     C48342   8.519   8.012  11.203  0.2656 -0.2471 -0.2924
  359MOL0     C48343   8.449   7.874  11.166 -0.4480  0.9981  0.3311
  359MOL0     C48344   8.332   7.848  11.260 -0.2024 -0.3773  0.1589
  359MOL0     C48345   8.248   7.728  11.214  0.8623 -0.3762 -0.0889
  359MOL0     C48346   8.141   7.700  11.322 -0.0921  0.4855  0.5182
  359MOL0     N48347   8.036   7.611  11.286  0.6645 -0.4366 -0.2216
  359MOL0     C48348   8.021   7.473  11.301 -0.0787 -0.2874  0.4606
  359MOL0     C48349   7.893   7.448  11.256  0.2032  0.2830  0.4777
  359MOL0     C48350   7.816   7.317  11.262 -1.1231 -0.2656 -0.4725
  359MOL0     C48351   7.863   7.234  11.379 -0.0835 -0.4129  0.7156
  359MOL0     C48352   7.783   7.108  11.406  0.9121 -0.2708 -0.0349
  359MOL0     C48353   7.786   7.009  11.285 -0.1096  0.5685  0.1433
  359MOL0     O48354   7.684   7.030  11.180  0.1708  0.3132 -0.5557
  359MOL0     C48355   7.551   7.022  11.218 -0.0265  0.2859  0.5170
  359MOL0     C48356   7.475   7.132  11.196 -0.2006  0.4799 -0.9694
  359MOL0     C48357   7.347   7.137  11.238  0.3992  0.3276  1.1648
  359MOL0     C48358   7.268   7.259  11.212  0.1336 -0.5766  0.7431
  359MOL0     C48359   7.283   7.017  11.282  0.3278 -0.3662  0.2196
  359MOL0     C48360   7.136   7.013  11.336 -1.1773  0.1199 -0.1547
  359MOL0     O48361   7.070   6.893  11.337  0.1045  0.6003 -0.0751
  359MOL0     C48362   6.935   6.897  11.362 -0.1489  0.0584 -0.4261
  359MOL0     C48363   6.844   6.901  11.250 -0.0831 -0.0190 -0.7615
  359MOL0     C48364   6.708   6.917  11.279 -0.4971  0.4244  0.9459
  359MOL0     C48365   6.654   6.919  11.404 -0.7704  0.7085 -0.1278
  359MOL0     O48366   6.517   6.923  11.422  0.2052 -0.3829 -0.1664
  359MOL0     C48367   6.421   6.861  11.336 -0.0923 -0.1430 -0.3515
  359MOL0     C48368   6.439   6.713  11.319  0.3772  0.9832  0.9156
  359MOL0     C48369   6.381   6.643  11.190 -0.3244 -0.5353  0.0307
  359MOL0     C48370   6.429   6.695  11.054  0.2247 -0.1839 -0.5719
  359MOL0     C48371   6.571   6.655  11.036  0.9664 -0.5459  0.2843
  359MOL0     C48372   6.617   6.708  10.899  0.0172 -0.3986 -0.1091
  359MOL0     C48373   6.758   6.669  10.871 -0.0837  0.3901  0.6196
  359MOL0     C48374   6.808   6.731  10.745 -0.4614  0.2952 -1.5166
  359MOL0    Cl48375   6.719   6.670  10.603 -0.5428  0.1934  0.3751
  359MOL0     C48376   6.740   6.913  11.513  0.0657 -1.3172 -0.1137
  359MOL0     C48377   6.881   6.900  11.491  0.0447 -0.2369  0.5125
  359MOL0     O48378   7.089   7.125  11.372  0.1686  0.4325  0.3038
  359MOL0     C48379   7.357   6.904  11.284 -0.3651  0.5471 -0.3120
  359MOL0     C48380   7.492   6.902  11.255  0.5109 -0.6931 -0.3483
  359MOL0     N48381   7.829   7.572  11.215 -0.1995  0.0980  0.0721
  359MOL0     N48382   7.910   7.661  11.247 -0.8470 -0.3366 -0.2497
  359MOL0     C48383   9.041   8.322  11.182  0.4454  0.3536 -1.0081
  359MOL0     C48384   9.133   8.397  11.112 -0.3112 -0.3337 -1.2112
  359MOL0     C48385   9.417   8.528  10.797  0.2772 -0.0324 -0.3245
  359MOL0     C48386   9.411   8.573  10.665  0.1382  0.4462  0.1032
  359MOL0     C48387   9.524   8.577  10.585 -0.2509 -0.0498  0.0392
  359MOL0     C48388   9.652   8.555  10.637  0.2857  0.1200  0.6531
  359MOL0     O48389   9.759   8.558  10.552  0.4031 -0.2464 -0.3819
  359MOL0     C48390   9.890   8.530  10.602  0.0300  0.2002 -0.6470
  359MOL0     C48391   9.985   8.536  10.482 -0.6439  0.0575 -0.4844
  359MOL0     C48392  10.131   8.563  10.522 -0.6409  0.0274 -0.7071
  359MOL0     C48393  10.203   8.649  10.418  0.2559  0.0341  0.2924
  359MOL0     C48394  10.318   8.580  10.361  1.4478 -1.2005  0.8167
  359MOL0     C48395  10.422   8.529  10.317  0.5218 -0.3099 -0.0989
  359MOL0     C48396   9.663   8.526  10.779 -0.8417 -0.0130  0.8765
  359MOL0     C48397   9.542   8.502  10.853 -0.4929 -0.6369 -0.8180
  359MOL0     H48398   9.263   8.160  10.914 -1.4727  0.9206 -0.9977
  359MOL0     H48399   9.096   8.020  11.042  1.3318  0.0481  0.5020
  359MOL0     H48400   8.792   8.071  11.345 -3.6550  0.7605  0.1436
  359MOL0     H48401   8.837   8.236  11.322  0.1484 -0.3515  1.4399
  359MOL0     H48402   8.631   8.229  11.161 -2.2618 -0.5630 -0.9391
  359MOL0     H48403   8.765   8.191  11.068  1.1223  1.2665  2.9354
  359MOL0     H48404   8.662   7.977  11.036 -1.5508  1.3104 -0.4375
  359MOL0     H48405   8.724   7.943  11.183 -0.0837  0.7829  0.6969
  359MOL0     H48406   8.533   8.027  11.310  0.8937 -0.1600 -0.3803
  359MOL0     H48407   8.460   8.101  11.181  0.3663  0.6921  2.8219
  359MOL0     H48408   8.417   7.869  11.062  0.2328 -0.0194  0.1519
  359MOL0     H48409   8.519   7.793  11.189 -2.0593 -0.4289  0.4166
  359MOL0     H48410   8.352   7.841  11.367  0.5221 -1.5274 -0.0323
  359MOL0     H48411   8.284   7.945  11.242  0.2522  0.4921  3.1277
  359MOL0     H48412   8.195   7.751  11.121  1.1213 -0.3133 -0.2237
  359MOL0     H48413   8.301   7.636  11.190  0.5503 -0.7634  0.6673
  359MOL0     H48414   8.096   7.797  11.344 -1.3337  0.1919 -0.5818
  359MOL0     H48415   8.198   7.669  11.410 -0.0369  0.5371  0.5006
  359MOL0     H48416   8.097   7.410  11.344  1.1137 -0.4040 -1.7038
  359MOL0     H48417   7.711   7.348  11.267 -1.1947 -0.3716 -1.2028
  359MOL0     H48418   7.829   7.262  11.168  1.8828  2.4749 -1.8668
  359MOL0     H48419   7.877   7.296  11.468 -2.7602  1.0405  0.2508
  359MOL0     H48420   7.962   7.200  11.348  0.3793  0.5465  1.1209
  359MOL0     H48421   7.681   7.128  11.441 -0.1237 -2.3191 -1.6184
  359MOL0     H48422   7.827   7.061  11.494 -0.0453  0.5960  0.9402
  359MOL0     H48423   7.781   6.909  11.330 -3.5597 -2.3816 -5.5713
  359MOL0     H48424   7.879   7.022  11.228  1.3461  1.9204  2.6824
  359MOL0     H48425   7.536   7.214  11.161  0.2664  0.4934 -0.1418
  359MOL0     H48426   7.232   7.304  11.305  0.3306 -0.3304  0.7009
  359MOL0     H48427   7.325   7.339  11.163 -2.5230  0.5369 -0.7291
  359MOL0     H48428   7.187   7.227  11.146  1.7821 -3.3905 -0.1062
  359MOL0     H48429   6.882   6.919  11.150 -0.9622 -3.8063 -1.9330
  359MOL0     H48430   6.649   6.925  11.187  1.4906  1.6363 -0.2918
  359MOL0     H48431   6.327   6.885  11.387 -0.2919  0.2804 -0.9111
  359MOL0     H48432   6.428   6.916  11.242  1.4199 -2.0003 -1.4028
  359MOL0     H48433   6.547   6.699  11.323  0.2326 -0.2052  1.0807
  359MOL0     H48434   6.401   6.665  11.410 -2.7756  0.8317 -0.3426
  359MOL0     H48435   6.275   6.671  11.191  0.3352  2.4651 -1.5254
  359MOL0     H48436   6.404   6.536  11.186 -0.0985 -0.5093  0.5428
  359MOL0     H48437   6.358   6.658  10.980 -1.8238  0.5991  0.8976
  359MOL0     H48438   6.429   6.804  11.055 -0.4794 -0.1622 -1.6225
  359MOL0     H48439   6.572   6.545  11.043  0.9641 -0.5214  0.7040
  359MOL0     H48440   6.639   6.697  11.110  1.0889  0.2120 -0.2481
  359MOL0     H48441   6.549   6.680  10.818  1.9467 -1.4537 -1.4251
  359MOL0     H48442   6.616   6.817  10.913  1.5782 -0.6344  2.5790
  359MOL0     H48443   6.773   6.561  10.859 -0.2992  0.1054  2.5609
  359MOL0     H48444   6.823   6.707  10.950  1.3869  1.0957 -0.8632
  359MOL0     H48445   6.917   6.728  10.743 -0.4323 -0.6070 -0.1122
  359MOL0     H48446   6.785   6.837  10.737 -0.0887  0.2278 -5.2658
  359MOL0     H48447   6.709   6.926  11.616  1.0549  0.7816 -0.0143
  359MOL0     H48448   6.951   6.895  11.574  1.2659 -2.0485 -0.5323
  359MOL0     H48449   7.325   6.801  11.297  0.2433  0.2036 -1.4020
  359MOL0     H48450   7.543   6.809  11.278 -1.1880 -0.9372  3.0552
  359MOL0     H48451   8.979   8.384  11.247  1.4504  1.5090 -1.1110
  359MOL0     H48452   9.156   8.499  11.142 -0.4830 -0.3662 -0.9698
  359MOL0     H48453   9.317   8.592  10.615  0.3928  2.9109  0.4288
  359MOL0     H48454   9.512   8.595  10.478 -1.5996 -0.7038  0.0584
  359MOL0     H48455   9.911   8.616  10.666  2.2098 -1.2232  0.6732
  359MOL0     H48456   9.900   8.432  10.648 -0.1338  1.6179  2.6530
  359MOL0     H48457   9.944   8.605  10.407  3.7312  0.9742 -2.3996
  359MOL0     H48458   9.987   8.436  10.437  0.7630  0.1873 -0.7701
  359MOL0     H48459  10.186   8.470  10.544 -5.2289 -2.1627  3.6410
  359MOL0     H48460  10.138   8.620  10.615 -0.4679 -0.0560 -0.6684
  359MOL0     H48461  10.225   8.750  10.456  3.8050 -0.5727  0.2561
  359MOL0     H48462  10.132   8.667  10.338 -0.7459 -1.4818  0.8136
  359MOL0     H48463  10.505   8.492  10.260 -0.0466  1.6123 -2.3387
  359MOL0     H48464   9.759   8.509  10.827 -0.5304  0.9324  0.6130
  359MOL0     H48465   9.546   8.470  10.957  0.6318  0.1258 -0.5985
  360MOL0     O48466   8.232   9.262  11.002  0.3740 -0.2749  0.3522
  360MOL0     C48467   8.242   9.380  11.039 -0.3451 -0.3188  0.1112
  360MOL0     O48468   8.140   9.473  11.031  1.0565 -0.3572 -0.1016
  360MOL0     C48469   8.018   9.408  11.001 -0.3788 -0.5897  0.2825
  360MOL0     C48470   7.948   9.337  11.106 -0.4895  0.6067  1.0895
  360MOL0     C48471   7.846   9.248  11.073 -0.3134  0.2327 -0.2879
  360MOL0     C48472   7.786   9.245  10.947  0.4907 -0.1005 -0.1462
  360MOL0     O48473   7.672   9.166  10.927 -0.7744 -0.1023 -0.1702
  360MOL0     C48474   7.644   9.117  10.794  0.2062  0.6673  0.2014
  360MOL0     C48475   7.567   8.990  10.787 -0.3265 -0.6104 -0.2243
  360MOL0     C48476   7.416   9.002  10.816  0.7438 -0.8719 -0.0818
  360MOL0     C48477   7.345   8.874  10.763  0.0410 -0.3454 -0.1880
  360MOL0     C48478   7.200   8.893  10.744  0.8109  0.3706 -0.1311
  360MOL0     C48479   7.126   8.869  10.886  0.2555 -0.7240 -0.2187
  360MOL0     C48480   6.981   8.881  10.876 -0.2058 -0.3549 -0.6959
  360MOL0     C48481   6.934   9.030  10.893 -0.9612  0.1580  0.1786
  360MOL0     N48482   6.794   9.030  10.940 -0.4877 -0.4199  0.0557
  360MOL0     C48483   6.683   8.973  10.880  0.5458  0.7970 -0.6506
  360MOL0     C48484   6.585   8.995  10.975  0.6275 -0.3834 -0.5436
  360MOL0     C48485   6.439   8.939  10.970 -0.2243 -0.2036 -0.0921
  360MOL0     C48486   6.345   9.030  10.891  0.5899 -0.3810 -0.6723
  360MOL0     C48487   6.202   8.973  10.909  0.5467  0.3451  0.1460
  360MOL0     C48488   6.105   9.058  10.837 -0.0511 -1.0278  0.3507
  360MOL0     O48489   5.972   9.013  10.875 -0.1611  0.2760  0.3481
  360MOL0     C48490   5.864   9.060  10.806  0.4474  0.5242  0.0333
  360MOL0     C48491   5.731   9.025  10.851 -0.1504 -0.1516  0.0363
  360MOL0     C48492   5.621   9.065  10.781  0.7868  1.0161  0.4942
  360MOL0     C48493   5.484   9.014  10.843 -0.4298  0.0303  0.3948
  360MOL0     C48494   5.633   9.121  10.653 -0.0832  0.2100 -0.0060
  360MOL0     C48495   5.512   9.165  10.577  0.4585  0.0336 -0.0490
  360MOL0     O48496   5.538   9.226  10.455  0.2016 -0.9934  1.2107
  360MOL0     C48497   5.428   9.253  10.370 -1.0902  0.5544 -0.5121
  360MOL0     C48498   5.379   9.379  10.380 -0.4578 -0.8035  0.9013
  360MOL0     C48499   5.263   9.412  10.314 -0.1845 -0.1879  0.9404
  360MOL0     C48500   5.186   9.319  10.253 -0.0436 -0.0200 -0.0750
  360MOL0     O48501   5.055   9.346  10.198  0.2384 -0.2880 -0.4703
  360MOL0     C48502   5.037   9.480  10.166 -0.3440  0.4795 -0.2309
  360MOL0     C48503   4.914   9.492  10.084 -0.1171 -0.0708  0.1077
  360MOL0     C48504   4.784   9.438  10.157 -0.6002  0.2117  0.2072
  360MOL0     C48505   4.659   9.478  10.071 -0.2046  0.7067  0.1127
  360MOL0     C48506   4.529   9.405  10.094  0.3671 -0.3271  0.2525
  360MOL0     C48507   4.424   9.416   9.992  0.1398 -0.0737  0.5767
  360MOL0     C48508   4.373   9.554   9.971  0.2395  0.8496 -0.5861
  360MOL0     C48509   4.227   9.546   9.911  0.7530  0.0199  0.5565
  360MOL0    Cl48510   4.175   9.407   9.792  0.1133  0.5043  0.1437
  360MOL0     C48511   5.237   9.186  10.239 -0.5999 -0.1141  0.4290
  360MOL0     C48512   5.363   9.154  10.307  0.5617 -0.3278 -0.6464
  360MOL0     O48513   5.394   9.166  10.624  0.5348  0.0378  0.3296
  360MOL0     C48514   5.761   9.154  10.602 -1.0395  1.0006 -0.1266
  360MOL0     C48515   5.873   9.126  10.681 -0.4646 -0.5371 -0.2185
  360MOL0     N48516   6.636   9.054  11.086 -0.1036  0.0046 -0.0191
  360MOL0     N48517   6.757   9.068  11.062 -0.3617  0.9186  0.0873
  360MOL0     C48518   7.839   9.334  10.843 -0.6147 -0.3571 -0.0464
  360MOL0     C48519   7.956   9.407  10.870  0.5569 -1.0787 -1.0201
  360MOL0     C48520   8.372   9.440  11.080 -0.8486 -0.3343  0.4312
  360MOL0     C48521   8.392   9.584  11.095 -0.3424  0.4083  0.4487
  360MOL0     C48522   8.517   9.633  11.130 -0.7615 -0.5967  0.3194
  360MOL0     C48523   8.631   9.542  11.158  0.5056 -0.5040  1.2481
  360MOL0     O48524   8.762   9.574  11.176 -0.6774  0.2614 -0.3630
  360MOL0     C48525   8.786   9.709  11.201 -0.2544 -0.3965 -0.2291
  360MOL0     C48526   8.792   9.806  11.083  0.2658  0.3226 -0.7530
  360MOL0     C48527   8.888   9.751  10.986 -0.3508  0.4125  0.8261
  360MOL0     C48528   8.997   9.845  10.954 -0.4540 -1.0989 -0.1934
  360MOL0     C48529   9.081   9.866  11.071  0.6367  0.9244 -0.9991
  360MOL0     C48530   9.154   9.894  11.162 -0.5249  0.2558 -0.4460
  360MOL0     C48531   8.607   9.403  11.137  0.1448 -0.2065  0.7688
  360MOL0     C48532   8.484   9.355  11.100 -0.3892 -0.5939  0.0272
  360MOL0     H48533   7.997   9.339  11.202  1.1251  2.4303  0.2857
  360MOL0     H48534   7.818   9.178  11.151  0.0131  0.6287  0.1919
  360MOL0     H48535   7.589   9.189  10.732  0.2721  0.8939  0.4035
  360MOL0     H48536   7.743   9.097  10.751  2.1824  2.1060  3.6707
  360MOL0     H48537   7.568   8.961  10.681  0.3406 -0.0749 -0.3655
  360MOL0     H48538   7.607   8.905  10.843  1.0647  0.6925  0.8308
  360MOL0     H48539   7.408   9.005  10.925 -0.8609 -2.6970 -0.0974
  360MOL0     H48540   7.375   9.090  10.765  2.2899 -1.6841 -2.9282
  360MOL0     H48541   7.386   8.845  10.665 -0.4812  0.6299 -0.7132
  360MOL0     H48542   7.352   8.788  10.829  1.4950  0.6728  1.0396
  360MOL0     H48543   7.172   8.992  10.707 -0.7640 -0.2595 -0.7246
  360MOL0     H48544   7.155   8.817  10.680 -1.2144  0.0391  1.5631
  360MOL0     H48545   7.147   8.767  10.919  0.2225  0.2590  3.2902
  360MOL0     H48546   7.168   8.923  10.971 -2.7581  0.7296  0.4703
  360MOL0     H48547   6.943   8.831  10.787  2.0226 -1.8724 -0.8639
  360MOL0     H48548   6.944   8.823  10.960  0.8073  2.2707  1.7387
  360MOL0     H48549   6.949   9.089  10.802  0.9115 -0.1665  0.2434
  360MOL0     H48550   6.994   9.076  10.971 -0.9661  2.6124 -1.1544
  360MOL0     H48551   6.675   8.924  10.784  0.7264  1.2776 -0.9164
  360MOL0     H48552   6.443   8.848  10.909  1.6502  1.5837 -2.8513
  360MOL0     H48553   6.398   8.916  11.069  5.3424 -4.9212  1.6936
  360MOL0     H48554   6.378   9.048  10.788  0.4317  2.1393 -0.3413
  360MOL0     H48555   6.347   9.125  10.945  2.6509 -1.5610  1.5108
  360MOL0     H48556   6.183   8.961  11.016  1.4840 -4.8174  0.0071
  360MOL0     H48557   6.199   8.872  10.867  2.1830 -0.4694  1.8441
  360MOL0     H48558   6.119   9.055  10.728 -0.0588  1.9586  0.1739
  360MOL0     H48559   6.117   9.163  10.868  2.2437 -1.5390  1.3611
  360MOL0     H48560   5.727   8.959  10.937  2.3742 -0.8082 -0.2729
  360MOL0     H48561   5.432   9.097  10.890  0.8550 -0.0336  2.0134
  360MOL0     H48562   5.420   8.956  10.776 -0.8335  2.5530 -1.5547
  360MOL0     H48563   5.505   8.942  10.923  2.7395 -1.7815 -1.8340
  360MOL0     H48564   5.430   9.456  10.437 -1.1828 -0.1563  0.6821
  360MOL0     H48565   5.237   9.517  10.316 -0.5056 -0.1693 -1.4740
  360MOL0     H48566   5.028   9.534  10.261 -0.9788  1.5052 -0.8488
  360MOL0     H48567   5.120   9.517  10.105  0.1887  1.2254  0.9248
  360MOL0     H48568   4.896   9.599  10.067  1.5450  0.1122 -0.8222
  360MOL0     H48569   4.920   9.448   9.984 -0.6459 -1.1716  0.5512
  360MOL0     H48570   4.778   9.457  10.264 -1.5378 -2.2084  0.6437
  360MOL0     H48571   4.781   9.329  10.147  1.0154  0.2358 -0.7983
  360MOL0     H48572   4.644   9.586  10.068 -0.1480  0.7095 -0.0261
  360MOL0     H48573   4.681   9.441   9.970  0.0084 -0.6991  0.6429
  360MOL0     H48574   4.492   9.454  10.185  0.4553  0.0111  0.1079
  360MOL0     H48575   4.548   9.298  10.097 -0.7934 -0.5711 -0.4506
  360MOL0     H48576   4.473   9.393   9.897  2.9853  2.7102  1.1860
  360MOL0     H48577   4.336   9.356  10.014 -0.7907  0.8369 -0.5157
  360MOL0     H48578   4.442   9.606   9.903  1.4551  2.7806  1.9446
  360MOL0     H48579   4.372   9.613  10.063 -0.7263 -0.4235  0.2590
  360MOL0     H48580   4.204   9.639   9.860  2.2121 -1.2104 -2.5760
  360MOL0     H48581   4.151   9.531   9.989 -0.0101 -1.9645 -0.4698
  360MOL0     H48582   5.172   9.109  10.198 -0.4573 -1.9163  3.3616
  360MOL0     H48583   5.385   9.049  10.323 -0.7641 -0.4686  0.4628
  360MOL0     H48584   5.784   9.193  10.503  1.3482 -2.1153 -0.9799
  360MOL0     H48585   5.969   9.162  10.645 -0.9620  0.3933 -0.6568
  360MOL0     H48586   7.816   9.330  10.737  0.7188 -0.1964 -0.3623
  360MOL0     H48587   8.002   9.448  10.781  0.0179  1.2490 -0.2977
  360MOL0     H48588   8.312   9.655  11.078  0.2196  0.5825 -1.7972
  360MOL0     H48589   8.533   9.740  11.138  1.1269 -0.6708 -1.6303
  360MOL0     H48590   8.716   9.751  11.274  1.4045  2.1954 -0.0133
  360MOL0     H48591   8.879   9.711  11.258 -0.0645  0.2139 -0.5513
  360MOL0     H48592   8.832   9.895  11.133 -0.8784  0.3483  0.1594
  360MOL0     H48593   8.695   9.837  11.043  0.7070  2.4850 -0.3069
  360MOL0     H48594   8.837   9.727  10.893  2.9360 -0.8673 -0.8055
  360MOL0     H48595   8.939   9.660  11.019  1.1617  1.4611  1.4724
  360MOL0     H48596   8.937   9.933  10.928  1.6528 -0.6911 -4.6366
  360MOL0     H48597   9.055   9.817  10.865 -0.7280 -0.9864 -0.4094
  360MOL0     H48598   9.206   9.907  11.254  1.3510 -2.3305 -1.0283
  360MOL0     H48599   8.691   9.339  11.163 -0.0545  0.0282  2.0686
  360MOL0     H48600   8.458   9.250  11.088 -2.3227 -0.4495  2.2048
  361MOL0     O48601   1.301   1.256   3.174  0.4848  0.0012  1.1031
  361MOL0     C48602   1.283   1.193   3.274 -0.3390  0.0277  0.5840
  361MOL0     O48603   1.176   1.199   3.350 -0.1075  0.6961 -0.2050
  361MOL0     C48604   1.067   1.252   3.301  0.7797  0.0003  0.2325
  361MOL0     C48605   1.035   1.391   3.316  0.4820 -0.5042  0.2909
  361MOL0     C48606   0.923   1.445   3.256  1.0218 -0.6415 -0.3042
  361MOL0     C48607   0.822   1.371   3.189  0.0153  0.2985 -0.2889
  361MOL0     O48608   0.712   1.416   3.128 -0.5717  0.5109  0.0819
  361MOL0     C48609   0.605   1.452   3.220  0.1359 -0.6356  0.4684
  361MOL0     C48610   0.520   1.332   3.262  0.0815  0.0955  0.2359
  361MOL0     C48611   0.378   1.382   3.298 -0.6914  0.3360 -0.5190
  361MOL0     C48612   0.308   1.257   3.353  0.4184 -0.5409  0.6758
  361MOL0     C48613   0.170   1.297   3.402  0.4277  0.3211  0.8040
  361MOL0     C48614   0.081   1.194   3.479 -0.5960 -0.7113  0.2196
  361MOL0     C48615  -0.057   1.235   3.515  0.6576 -0.9559  0.1642
  361MOL0     C48616  -0.057   1.342   3.630  0.1354  0.8542 -0.1038
  361MOL0     N48617  -0.188   1.379   3.688 -0.2664  0.0267  0.0688
  361MOL0     C48618  -0.299   1.392   3.610  0.2619  0.0300 -0.9681
  361MOL0     C48619  -0.402   1.385   3.697  0.2283 -0.6571  0.0412
  361MOL0     C48620  -0.543   1.402   3.680 -0.1135 -0.0239  0.8487
  361MOL0     C48621  -0.601   1.272   3.623 -0.3588  0.2205 -0.4078
  361MOL0     C48622  -0.559   1.230   3.480  0.5605 -0.0014  0.1343
  361MOL0     C48623  -0.625   1.091   3.449 -0.1012 -0.0744  0.5153
  361MOL0     O48624  -0.758   1.094   3.470  0.2918  0.6939 -0.0179
  361MOL0     C48625  -0.834   0.980   3.461 -0.9362 -0.3060 -0.3958
  361MOL0     C48626  -0.783   0.858   3.453  0.2786  1.2351  0.6019
  361MOL0     C48627  -0.860   0.741   3.432 -0.0033  0.0730  0.3505
  361MOL0     C48628  -0.780   0.613   3.414  0.1657 -0.0393 -0.0485
  361MOL0     C48629  -1.002   0.754   3.431 -0.3143 -0.0458 -0.0094
  361MOL0     C48630  -1.091   0.640   3.412  0.3283 -0.6055  0.3809
  361MOL0     O48631  -1.216   0.646   3.477  0.6203 -0.2228 -0.6147
  361MOL0     C48632  -1.320   0.565   3.441 -0.6852 -0.1561 -1.6034
  361MOL0     C48633  -1.422   0.575   3.536  0.6751 -0.1058  0.9695
  361MOL0     C48634  -1.556   0.521   3.516 -0.8229  0.8160  0.4164
  361MOL0     C48635  -1.583   0.466   3.393  0.2012 -0.6560  0.0924
  361MOL0     O48636  -1.709   0.419   3.357  0.1393 -0.3548 -0.5753
  361MOL0     C48637  -1.742   0.403   3.221  0.1181  0.4267 -0.0182
  361MOL0     C48638  -1.900   0.403   3.227  0.2948 -0.3446  0.6811
  361MOL0     C48639  -1.958   0.398   3.085  0.0971  0.7711 -0.1434
  361MOL0     C48640  -2.109   0.414   3.093 -0.1411 -0.5656 -0.1628
  361MOL0     C48641  -2.167   0.438   2.949 -0.3795 -0.0067  0.0843
  361MOL0     C48642  -2.319   0.444   2.962  0.1044  0.3208 -0.0017
  361MOL0     C48643  -2.394   0.431   2.834  0.2541  0.0098 -0.5871
  361MOL0     C48644  -2.546   0.421   2.850  0.0657 -0.0866 -0.6220
  361MOL0    Cl48645  -2.610   0.424   2.685 -0.4322  0.4898  0.3354
  361MOL0     C48646  -1.479   0.452   3.304  0.5813 -0.8694 -0.4808
  361MOL0     C48647  -1.353   0.501   3.324 -0.3808 -0.7917  0.6994
  361MOL0     O48648  -1.062   0.564   3.320 -0.1484 -0.1903  0.3833
  361MOL0     C48649  -1.059   0.879   3.465  0.0507 -0.6042 -0.0989
  361MOL0     C48650  -0.970   0.996   3.476 -0.6554 -0.1440 -0.7694
  361MOL0     N48651  -0.354   1.380   3.826 -0.1618  0.0294  0.2027
  361MOL0     N48652  -0.222   1.387   3.821  0.6637  0.7548 -0.0643
  361MOL0     C48653   0.854   1.235   3.166  0.6137 -0.1827 -0.0286
  361MOL0     C48654   0.969   1.175   3.222  0.0895 -0.5268  0.2360
  361MOL0     C48655   1.401   1.100   3.311 -0.0301  0.1837  1.0264
  361MOL0     C48656   1.500   1.070   3.215  0.3882  0.2288  0.0962
  361MOL0     C48657   1.615   0.991   3.256  0.3805  0.0237  0.0157
  361MOL0     C48658   1.624   0.927   3.375  0.2280 -0.0736  0.5254
  361MOL0     O48659   1.722   0.826   3.379 -0.2185 -0.1691 -0.3316
  361MOL0     C48660   1.750   0.785   3.514 -0.0341 -0.2648 -0.7589
  361MOL0     C48661   1.831   0.655   3.505 -0.0968  0.1002  0.1380
  361MOL0     C48662   1.976   0.660   3.446 -0.3047  0.0581  0.4871
  361MOL0     C48663   2.038   0.522   3.443  0.2480 -0.2514 -0.1067
  361MOL0     C48664   2.027   0.467   3.313  0.7905 -0.0127  0.0286
  361MOL0     C48665   2.002   0.410   3.203 -0.1657  0.2225 -0.2284
  361MOL0     C48666   1.533   0.962   3.470 -0.1991  0.0467  0.4195
  361MOL0     C48667   1.416   1.052   3.443 -0.1038 -0.2438  0.1113
  361MOL0     H48668   1.107   1.449   3.373 -0.6167  1.0783  0.1340
  361MOL0     H48669   0.886   1.546   3.261 -0.3738 -0.9806 -2.2979
  361MOL0     H48670   0.647   1.503   3.308  2.4765  0.2540 -1.0546
  361MOL0     H48671   0.547   1.525   3.162  1.2545 -0.2023 -0.1377
  361MOL0     H48672   0.508   1.258   3.182  0.7866  2.3776 -2.1394
  361MOL0     H48673   0.562   1.281   3.349  0.2619  1.2346  0.8356
  361MOL0     H48674   0.388   1.455   3.379 -1.1100 -0.3030  0.1185
  361MOL0     H48675   0.316   1.419   3.216 -2.7633  1.3441  1.3864
  361MOL0     H48676   0.294   1.189   3.269 -0.9851  1.7704 -1.0807
  361MOL0     H48677   0.360   1.200   3.431 -0.7563  0.3535  2.1641
  361MOL0     H48678   0.181   1.386   3.464 -2.6089  0.8006  0.8245
  361MOL0     H48679   0.101   1.327   3.323  0.1792 -0.7227  0.6025
  361MOL0     H48680   0.058   1.106   3.419 -0.9710 -0.7544  0.4282
  361MOL0     H48681   0.127   1.165   3.574 -0.7174 -0.6669  0.2910
  361MOL0     H48682  -0.106   1.279   3.428 -0.1977 -0.6447  0.7841
  361MOL0     H48683  -0.109   1.144   3.545  1.8085 -2.2099 -1.4578
  361MOL0     H48684  -0.009   1.439   3.611  3.9949 -0.9373 -0.3789
  361MOL0     H48685   0.004   1.300   3.710  0.2835  1.4938  0.1271
  361MOL0     H48686  -0.295   1.405   3.502 -0.7463  2.0221 -0.8192
  361MOL0     H48687  -0.589   1.417   3.779 -2.1091 -1.4120  0.1926
  361MOL0     H48688  -0.563   1.492   3.622  1.4362 -0.6904 -0.8056
  361MOL0     H48689  -0.703   1.309   3.613 -0.3328  0.0331 -1.4093
  361MOL0     H48690  -0.593   1.188   3.694 -0.0850  0.5949  0.0094
  361MOL0     H48691  -0.452   1.209   3.483  0.4778 -0.4167  2.8195
  361MOL0     H48692  -0.591   1.305   3.407  1.2004  2.1491  1.9612
  361MOL0     H48693  -0.578   1.019   3.515 -0.4703 -1.3548 -0.5690
  361MOL0     H48694  -0.606   1.069   3.344 -1.3774  0.5812  0.1138
  361MOL0     H48695  -0.675   0.846   3.447  0.1100 -0.3234  0.4612
  361MOL0     H48696  -0.674   0.639   3.417  0.1136  0.0995  1.0930
  361MOL0     H48697  -0.798   0.534   3.488  1.6817 -1.3084 -0.9908
  361MOL0     H48698  -0.799   0.571   3.315 -0.0579 -0.7142  0.2693
  361MOL0     H48699  -1.399   0.630   3.627 -0.7674  0.5159  0.9804
  361MOL0     H48700  -1.627   0.527   3.598  1.4871  1.7421  2.4775
  361MOL0     H48701  -1.719   0.497   3.168 -1.0621  1.0038  0.4611
  361MOL0     H48702  -1.700   0.315   3.172  2.0630  0.2876  1.7900
  361MOL0     H48703  -1.938   0.325   3.293  0.0071  0.3277  1.3223
  361MOL0     H48704  -1.924   0.502   3.266 -0.2887 -0.0283 -0.4337
  361MOL0     H48705  -1.935   0.307   3.029  0.5775  0.4170  0.6161
  361MOL0     H48706  -1.914   0.475   3.021  0.5890 -1.0231 -2.0572
  361MOL0     H48707  -2.151   0.324   3.140  2.3882 -1.9746 -0.4453
  361MOL0     H48708  -2.128   0.505   3.152 -0.2776 -1.2064  0.8133
  361MOL0     H48709  -2.138   0.364   2.874 -1.1679  0.5944 -0.8455
  361MOL0     H48710  -2.125   0.536   2.922 -1.8441  1.6970  3.3784
  361MOL0     H48711  -2.347   0.363   3.031  2.6992  0.3813  1.2197
  361MOL0     H48712  -2.333   0.545   3.000  0.8356  1.3007 -2.1516
  361MOL0     H48713  -2.364   0.338   2.783  0.1270 -1.4991  1.9553
  361MOL0     H48714  -2.366   0.517   2.772  3.9088  1.1622  2.2725
  361MOL0     H48715  -2.582   0.505   2.911 -0.3996 -0.2139 -0.7124
  361MOL0     H48716  -2.570   0.329   2.904 -0.9320 -1.9002 -3.8861
  361MOL0     H48717  -1.501   0.403   3.210  0.1401 -0.0709 -0.7983
  361MOL0     H48718  -1.279   0.488   3.245  1.7326 -1.1150  2.5926
  361MOL0     H48719  -1.165   0.886   3.489  0.6478  1.3569  2.3854
  361MOL0     H48720  -1.014   1.091   3.505 -0.5623 -0.2883 -0.1412
  361MOL0     H48721   0.780   1.164   3.130  3.3139 -3.2581 -0.0097
  361MOL0     H48722   0.999   1.074   3.196  2.5489  0.3425 -0.5364
  361MOL0     H48723   1.506   1.104   3.112 -0.3436  1.2142  0.3630
  361MOL0     H48724   1.687   0.948   3.186  1.3189  1.5285  0.0267
  361MOL0     H48725   1.815   0.863   3.556  1.8217 -2.1444  0.0456
  361MOL0     H48726   1.660   0.763   3.572  0.6751 -2.7078 -0.4934
  361MOL0     H48727   1.771   0.579   3.455 -2.7066 -0.0539  3.2176
  361MOL0     H48728   1.846   0.617   3.606 -0.4314  0.9603  0.5246
  361MOL0     H48729   2.031   0.719   3.519  1.9288 -2.4111  0.9564
  361MOL0     H48730   1.989   0.716   3.352 -0.1589 -1.8923 -0.7225
  361MOL0     H48731   2.002   0.452   3.520 -0.5509  2.7510  2.4716
  361MOL0     H48732   2.147   0.521   3.453  0.7451 -0.5232 -3.9832
  361MOL0     H48733   1.984   0.355   3.113  1.8859 -2.1086  0.6700
  361MOL0     H48734   1.530   0.925   3.572 -1.0869 -0.8580  0.0868
  361MOL0     H48735   1.342   1.078   3.518 -2.0088 -1.4117 -1.2603
  362MOL0     O48736   3.436   2.907   1.685 -0.1817 -0.5584  0.3525
  362MOL0     C48737   3.538   2.838   1.673  0.6013 -0.2474 -0.2226
  362MOL0     O48738   3.575   2.726   1.755  0.3090 -0.2732 -0.1627
  362MOL0     C48739   3.498   2.698   1.863  0.3510  0.1816  0.6996
  362MOL0     C48740   3.365   2.652   1.848 -0.2118  0.5304 -1.0028
  362MOL0     C48741   3.283   2.625   1.960  0.3977 -0.2130  0.3582
  362MOL0     C48742   3.321   2.661   2.091 -0.2323  0.0979 -0.2467
  362MOL0     O48743   3.250   2.626   2.200  0.1374 -1.0481  0.6297
  362MOL0     C48744   3.110   2.622   2.190 -0.3186  0.4688  0.3479
  362MOL0     C48745   3.037   2.748   2.147 -0.4160  0.3797  0.5130
  362MOL0     C48746   2.881   2.746   2.138  0.4837  0.4668 -0.2858
  362MOL0     C48747   2.834   2.864   2.071 -0.6402  0.6035 -0.3682
  362MOL0     C48748   2.689   2.905   2.078 -0.0832  0.3625 -0.1759
  362MOL0     C48749   2.667   2.989   2.206 -0.7580  0.1301  0.0406
  362MOL0     C48750   2.521   2.982   2.244  0.6386  0.0607  0.5999
  362MOL0     C48751   2.502   2.876   2.346  0.6081  1.0153 -0.7237
  362MOL0     N48752   2.357   2.852   2.347  0.1759  0.8007 -0.2316
  362MOL0     C48753   2.285   2.772   2.265 -0.7567  0.3327  0.3190
  362MOL0     C48754   2.159   2.782   2.301 -0.0771 -0.7285 -0.4029
  362MOL0     C48755   2.044   2.718   2.220  0.2889  0.3974 -0.3411
  362MOL0     C48756   1.936   2.649   2.297  0.1009  0.2829 -0.0221
  362MOL0     C48757   1.856   2.755   2.382 -0.6769  0.0988  0.2047
  362MOL0     C48758   1.720   2.691   2.432  0.7017 -0.3422  0.3126
  362MOL0     O48759   1.614   2.796   2.427 -0.1127 -0.0366  0.4933
  362MOL0     C48760   1.485   2.749   2.461 -0.3691  0.5465 -0.2171
  362MOL0     C48761   1.377   2.842   2.440  0.5891  1.0461 -0.0743
  362MOL0     C48762   1.248   2.809   2.470 -0.8080  0.0438 -0.5250
  362MOL0     C48763   1.146   2.921   2.459 -0.3933 -0.5885 -0.2044
  362MOL0     C48764   1.215   2.675   2.515 -0.0405 -1.0366 -0.1340
  362MOL0     C48765   1.084   2.638   2.561  0.5722 -0.5026 -0.1178
  362MOL0     O48766   1.077   2.533   2.643 -0.4210 -0.3290 -0.0225
  362MOL0     C48767   0.950   2.506   2.696 -0.3324 -0.2285 -0.1106
  362MOL0     C48768   0.839   2.476   2.618 -0.6602  0.2204  0.4194
  362MOL0     C48769   0.708   2.459   2.668  0.4431 -0.3869 -0.0158
  362MOL0     C48770   0.687   2.473   2.806  0.3792 -0.4568  0.1413
  362MOL0     O48771   0.564   2.462   2.862  0.0788  0.5956 -0.4629
  362MOL0     C48772   0.497   2.593   2.843  0.0039  0.2305  0.7281
  362MOL0     C48773   0.383   2.619   2.938  0.5555  0.1398 -0.1563
  362MOL0     C48774   0.443   2.609   3.082  0.3922 -0.4163  0.1922
  362MOL0     C48775   0.330   2.588   3.185 -0.0397 -0.5588  1.2586
  362MOL0     C48776   0.381   2.596   3.327  0.0335  1.1173 -0.1682
  362MOL0     C48777   0.340   2.721   3.410 -0.1871 -0.6526  0.5686
  362MOL0     C48778   0.427   2.852   3.390  0.5175 -0.3283 -0.1056
  362MOL0     C48779   0.357   2.984   3.415 -0.2793 -0.4064 -0.5915
  362MOL0    Cl48780   0.252   2.983   3.557  0.4212 -0.2390 -0.2013
  362MOL0     C48781   0.802   2.480   2.887 -0.5345 -0.6744 -0.3908
  362MOL0     C48782   0.926   2.499   2.832  0.5738  0.4583 -0.3030
  362MOL0     O48783   0.985   2.705   2.520  0.0856 -0.0858  0.1346
  362MOL0     C48784   1.326   2.581   2.527  0.5206  0.9863  0.9680
  362MOL0     C48785   1.456   2.620   2.506 -0.0163  0.0639  0.0720
  362MOL0     N48786   2.150   2.861   2.411 -0.0360 -0.3242 -0.1362
  362MOL0     N48787   2.269   2.904   2.441 -0.8157 -0.6622 -0.6204
  362MOL0     C48788   3.448   2.712   2.104  0.5061  0.2355  0.7754
  362MOL0     C48789   3.535   2.730   1.995 -0.5839 -0.3863 -0.1213
  362MOL0     C48790   3.636   2.879   1.568 -0.4136 -0.6781 -0.0962
  362MOL0     C48791   3.611   2.997   1.496  0.4489 -0.4218 -0.2063
  362MOL0     C48792   3.708   3.049   1.408  0.4336 -0.7171  0.9467
  362MOL0     C48793   3.829   2.987   1.388  0.5266 -0.0015 -0.6771
  362MOL0     O48794   3.928   3.021   1.296  0.1502  0.5264 -0.5783
  362MOL0     C48795   3.881   3.090   1.177  0.1212  0.5219 -0.4695
  362MOL0     C48796   3.995   3.104   1.076  1.6397  1.7607  0.3452
  362MOL0     C48797   4.079   2.974   1.040  0.1986  0.2348  0.7856
  362MOL0     C48798   4.140   2.977   0.893  0.1962  0.2313 -0.6186
  362MOL0     C48799   4.230   3.087   0.881 -0.2633 -0.4965  0.3597
  362MOL0     C48800   4.309   3.178   0.880  0.7377 -0.2889  0.5563
  362MOL0     C48801   3.855   2.871   1.464 -0.3346 -0.7450  0.6399
  362MOL0     C48802   3.767   2.813   1.557  0.0005 -1.0650  0.1921
  362MOL0     H48803   3.333   2.612   1.753 -2.0811 -3.4291  1.0567
  362MOL0     H48804   3.182   2.602   1.928  0.4998  2.2960 -2.1339
  362MOL0     H48805   3.076   2.538   2.129 -0.0243  0.5571  0.0557
  362MOL0     H48806   3.088   2.603   2.295  0.7738 -2.3304  0.1642
  362MOL0     H48807   3.078   2.831   2.205  0.6959  0.5733 -0.5170
  362MOL0     H48808   3.070   2.761   2.044  0.2543 -2.3166  0.3090
  362MOL0     H48809   2.857   2.654   2.084  0.9931 -0.5831  1.2092
  362MOL0     H48810   2.831   2.743   2.236  2.0439 -0.7404  0.5248
  362MOL0     H48811   2.894   2.951   2.100  0.9673 -0.5521 -0.0609
  362MOL0     H48812   2.846   2.848   1.963 -1.1639  0.5308 -0.4155
  362MOL0     H48813   2.655   2.971   1.998  1.6065  0.7986 -0.5804
  362MOL0     H48814   2.630   2.813   2.074 -1.8672  1.5006 -1.1828
  362MOL0     H48815   2.738   2.958   2.283  0.3261 -0.9271 -1.3335
  362MOL0     H48816   2.699   3.092   2.184  1.2699 -0.7951 -1.7341
  362MOL0     H48817   2.480   3.078   2.277  1.1204  1.3126 -2.1987
  362MOL0     H48818   2.466   2.969   2.151 -2.3842  0.1167  2.2691
  362MOL0     H48819   2.550   2.896   2.443 -0.2331  1.0056 -0.2909
  362MOL0     H48820   2.552   2.788   2.305  1.2515  2.2424 -2.6899
  362MOL0     H48821   2.322   2.709   2.185  0.4516  0.6087  0.6334
  362MOL0     H48822   2.001   2.790   2.150  2.5502  1.5211 -0.6561
  362MOL0     H48823   2.097   2.640   2.165  2.7315  1.3467  0.5658
  362MOL0     H48824   1.979   2.571   2.360 -4.3475 -3.3041 -0.9452
  362MOL0     H48825   1.865   2.606   2.226 -0.1464 -0.2546  0.5466
  362MOL0     H48826   1.837   2.849   2.328  0.4394 -0.4095 -1.1111
  362MOL0     H48827   1.918   2.776   2.470  1.5142 -0.8228 -1.0429
  362MOL0     H48828   1.730   2.655   2.535  0.5574 -1.9998 -0.2242
  362MOL0     H48829   1.687   2.602   2.379 -1.7315 -0.9987  2.7160
  362MOL0     H48830   1.404   2.942   2.410 -0.0595  0.5893 -2.3329
  362MOL0     H48831   1.091   2.894   2.368 -0.4513  0.0451 -0.3629
  362MOL0     H48832   1.080   2.923   2.546  0.2788 -1.1710  0.3238
  362MOL0     H48833   1.196   3.016   2.434 -0.3932 -1.0714 -2.2536
  362MOL0     H48834   0.853   2.469   2.510 -0.3179  0.7712  0.4218
  362MOL0     H48835   0.618   2.449   2.608  0.2034  1.6125 -0.0593
  362MOL0     H48836   0.561   2.681   2.854 -1.4990  1.7455 -1.6392
  362MOL0     H48837   0.445   2.594   2.746  1.2052  2.3983  0.0540
  362MOL0     H48838   0.323   2.707   2.914  0.3123  0.6019  1.9897
  362MOL0     H48839   0.309   2.540   2.925 -2.3539  2.1769  2.6638
  362MOL0     H48840   0.495   2.703   3.103  0.0384 -0.6223  2.2307
  362MOL0     H48841   0.513   2.526   3.094 -1.2853 -1.7399  1.3500
  362MOL0     H48842   0.252   2.663   3.169  1.1096  0.2487 -1.2172
  362MOL0     H48843   0.287   2.488   3.178 -2.8046  0.6297 -1.9443
  362MOL0     H48844   0.489   2.579   3.334 -0.6126 -4.0156  1.3040
  362MOL0     H48845   0.349   2.505   3.379 -0.6719  1.6303  0.3128
  362MOL0     H48846   0.233   2.740   3.399 -0.1384 -0.8814 -0.3714
  362MOL0     H48847   0.360   2.680   3.510  1.3193  0.4744  0.7755
  362MOL0     H48848   0.468   2.858   3.289 -0.0225 -0.2840 -0.3234
  362MOL0     H48849   0.512   2.844   3.458  1.3362  0.7980 -0.9605
  362MOL0     H48850   0.296   3.005   3.326  0.6505  0.3421 -1.0674
  362MOL0     H48851   0.433   3.062   3.421 -1.2571  0.6067 -1.0027
  362MOL0     H48852   0.797   2.468   2.995 -0.6410 -1.2432 -0.4608
  362MOL0     H48853   1.001   2.525   2.906 -1.2816 -2.0227  2.6490
  362MOL0     H48854   1.302   2.483   2.567  1.2488  0.1369 -0.5822
  362MOL0     H48855   1.532   2.544   2.520 -0.0153  0.0225 -0.1564
  362MOL0     H48856   3.477   2.730   2.207 -0.3139  1.4361  0.8207
  362MOL0     H48857   3.634   2.763   2.026 -1.0825 -0.4759  1.6703
  362MOL0     H48858   3.526   3.063   1.507  0.0447 -0.3985 -2.7777
  362MOL0     H48859   3.688   3.147   1.368 -0.7850 -1.0454  0.7078
  362MOL0     H48860   3.792   3.042   1.135 -1.0516  2.5584 -0.4641
  362MOL0     H48861   3.840   3.186   1.210 -0.8106 -0.6644  2.1440
  362MOL0     H48862   4.069   3.166   1.129  1.8868 -1.2460  3.8595
  362MOL0     H48863   3.962   3.151   0.983  3.8656 -0.2052 -1.5939
  362MOL0     H48864   4.021   2.881   1.029 -0.6465  0.9164 -0.7824
  362MOL0     H48865   4.156   2.947   1.113  0.1091 -2.2269  0.0859
  362MOL0     H48866   4.058   2.989   0.822 -1.2611 -1.7068  0.6436
  362MOL0     H48867   4.194   2.885   0.868  1.6584  0.8709  0.0602
  362MOL0     H48868   4.383   3.256   0.880  0.3833  0.0491 -0.1711
  362MOL0     H48869   3.955   2.830   1.450  0.0452 -0.4742  2.3087
  362MOL0     H48870   3.777   2.715   1.604  0.7977 -1.3382 -0.5164
  363MOL0     O48871   1.288   9.926   3.631  0.4075  0.4334  0.8687
  363MOL0     C48872   1.305   9.972   3.520  0.9627 -0.3111  0.3863
  363MOL0     O48873   1.214   9.981   3.422 -0.1216 -0.4126  0.1534
  363MOL0     C48874   1.075  10.006   3.448  0.3927  0.1481  0.4466
  363MOL0     C48875   0.980   9.962   3.362  0.1670 -0.5562 -0.2783
  363MOL0     C48876   0.836   9.963   3.397  0.2644 -0.1286 -0.4025
  363MOL0     C48877   0.797   9.998   3.528  1.0114  0.1833 -0.3147
  363MOL0     O48878   0.671   9.983   3.576 -0.3243  0.2871 -0.5291
  363MOL0     C48879   0.564  10.012   3.488 -0.4359  0.2988  0.2943
  363MOL0     C48880   0.427   9.955   3.543 -0.7948 -0.5171  0.9919
  363MOL0     C48881   0.316  10.009   3.456 -0.0303 -0.4292  0.5981
  363MOL0     C48882   0.175   9.953   3.459 -0.4023 -1.0687  0.3593
  363MOL0     C48883   0.047  10.037   3.429  0.4342 -0.5210 -0.1438
  363MOL0     C48884  -0.083   9.962   3.464  0.1599  0.2914  0.0668
  363MOL0     C48885  -0.195  10.072   3.448  0.7820 -0.2912  0.7042
  363MOL0     C48886  -0.327   9.999   3.460  0.0213 -0.5846 -0.1829
  363MOL0     N48887  -0.442  10.088   3.477 -0.2845 -0.0864 -0.2596
  363MOL0     C48888  -0.448  10.223   3.437  0.2840  1.0119  0.3392
  363MOL0     C48889  -0.554  10.275   3.506 -0.3317  1.1701 -1.0205
  363MOL0     C48890  -0.595  10.415   3.476 -0.2103 -0.2220 -0.2093
  363MOL0     C48891  -0.586  10.453   3.332 -0.5494  0.8672  0.1123
  363MOL0     C48892  -0.628  10.602   3.307  0.0592  0.4364 -0.1120
  363MOL0     C48893  -0.612  10.626   3.164  0.0553  0.2184  0.0619
  363MOL0     O48894  -0.724  10.555   3.101 -0.3430  0.1632 -0.1115
  363MOL0     C48895  -0.851  10.619   3.080 -0.8277 -0.1778  1.2423
  363MOL0     C48896  -0.886  10.735   3.143  0.1540 -0.9960 -0.3445
  363MOL0     C48897  -1.014  10.796   3.130 -1.9042 -0.7677  0.0415
  363MOL0     C48898  -1.038  10.928   3.196 -0.7552  0.0895  0.0767
  363MOL0     C48899  -1.104  10.737   3.040 -0.4027  1.2682  0.2869
  363MOL0     C48900  -1.236  10.789   3.003 -0.0646 -0.6730 -0.0547
  363MOL0     O48901  -1.286  10.890   3.083 -0.0955  0.3532  0.3411
  363MOL0     C48902  -1.422  10.912   3.081 -0.1636 -1.0154 -0.6286
  363MOL0     C48903  -1.458  11.044   3.085  0.0849  0.2050 -0.5079
  363MOL0     C48904  -1.595  11.080   3.097 -0.2144  0.7554 -0.1116
  363MOL0     C48905  -1.698  10.978   3.086 -0.4578 -0.1237 -0.1028
  363MOL0     O48906  -1.827  11.030   3.091  0.5856  0.7582  0.1423
  363MOL0     C48907  -1.942  10.941   3.105 -0.9565 -0.4219  0.2767
  363MOL0     C48908  -2.080  11.000   3.095 -0.1093 -0.1802  0.4367
  363MOL0     C48909  -2.181  10.892   3.126 -0.6857  1.1583 -1.1530
  363MOL0     C48910  -2.327  10.942   3.117 -0.3414 -0.2033 -0.5239
  363MOL0     C48911  -2.348  11.031   3.242  0.1162 -0.2600  0.5620
  363MOL0     C48912  -2.503  11.055   3.239 -0.7885 -0.5785  0.1544
  363MOL0     C48913  -2.533  11.121   3.370 -0.4126 -0.5857 -0.0018
  363MOL0     C48914  -2.684  11.140   3.401  0.1388  0.3771 -0.4767
  363MOL0    Cl48915  -2.758  11.247   3.278 -0.2285 -0.0162 -0.2421
  363MOL0     C48916  -1.661  10.843   3.070 -0.2528  0.2944 -0.1134
  363MOL0     C48917  -1.523  10.815   3.078 -0.6046 -0.4580 -0.0547
  363MOL0     O48918  -1.301  10.735   2.918 -0.4411  0.0577  0.0289
  363MOL0     C48919  -1.064  10.612   2.980 -0.0255 -0.1649  0.2560
  363MOL0     C48920  -0.943  10.551   3.005 -0.1869  0.2885 -0.3934
  363MOL0     N48921  -0.606  10.173   3.592 -0.1359  0.1755  0.3533
  363MOL0     N48922  -0.524  10.067   3.579  0.3655  0.0608  0.2194
  363MOL0     C48923   0.901  10.036   3.620  1.0251  0.9631  0.6015
  363MOL0     C48924   1.030  10.053   3.568 -0.5318  0.1068 -0.1114
  363MOL0     C48925   1.453   9.997   3.502 -0.3081 -0.1383 -0.0001
  363MOL0     C48926   1.546   9.983   3.601 -0.3423  1.1649 -0.4912
  363MOL0     C48927   1.677  10.046   3.596  0.1001 -0.0891 -0.3799
  363MOL0     C48928   1.715  10.112   3.481  0.0317  0.1164  1.1881
  363MOL0     O48929   1.837  10.172   3.464  0.2876 -0.3458  0.5135
  363MOL0     C48930   1.955  10.131   3.534 -0.3500  0.2810 -1.1829
  363MOL0     C48931   2.003   9.989   3.533 -0.4922  0.6066 -0.1981
  363MOL0     C48932   2.054   9.947   3.395  0.0401 -0.5995 -0.9011
  363MOL0     C48933   2.060   9.783   3.384 -0.0767 -0.4705  0.2822
  363MOL0     C48934   1.928   9.722   3.393 -0.0370  0.1940  0.0407
  363MOL0     C48935   1.811   9.690   3.404  0.0207  0.3590  0.4442
  363MOL0     C48936   1.621  10.131   3.381  0.2331  0.1830 -0.2323
  363MOL0     C48937   1.491  10.077   3.392 -0.2802  0.0531 -0.3968
  363MOL0     H48938   1.019   9.919   3.270 -0.7913 -0.3796 -0.7818
  363MOL0     H48939   0.774   9.912   3.325  0.0471  1.6993 -1.5620
  363MOL0     H48940   0.563  10.122   3.494 -1.4283  0.2563  1.1154
  363MOL0     H48941   0.577   9.981   3.384  0.6256  1.7179 -0.0382
  363MOL0     H48942   0.446   9.847   3.538  0.2991 -0.3081  0.2459
  363MOL0     H48943   0.415   9.986   3.647 -0.6878 -0.7866  1.0861
  363MOL0     H48944   0.309  10.114   3.484 -4.8945 -0.9549  2.3080
  363MOL0     H48945   0.342  10.006   3.350  0.9485 -3.6881  0.8135
  363MOL0     H48946   0.168   9.862   3.400  0.1922 -0.7190 -0.2644
  363MOL0     H48947   0.162   9.935   3.566 -1.2195  1.2683  0.7043
  363MOL0     H48948   0.051  10.134   3.480 -3.2088  1.1539 -2.6208
  363MOL0     H48949   0.045  10.068   3.324 -0.3580 -2.1917 -0.6484
  363MOL0     H48950  -0.085   9.884   3.387  5.9948 -0.6351  0.4034
  363MOL0     H48951  -0.100   9.924   3.565 -1.2013 -0.9946 -0.6012
  363MOL0     H48952  -0.161  10.152   3.514  3.0616 -0.5313 -0.0843
  363MOL0     H48953  -0.196  10.114   3.347  1.7684  0.1119  0.8488
  363MOL0     H48954  -0.324   9.937   3.550 -0.4500 -1.1424 -0.5441
  363MOL0     H48955  -0.351   9.947   3.367  0.6573  1.9177 -1.8664
  363MOL0     H48956  -0.385  10.270   3.362  0.6480  0.4373  0.2819
  363MOL0     H48957  -0.699  10.424   3.510 -0.3655 -2.2186 -0.0533
  363MOL0     H48958  -0.532  10.473   3.544  0.4049  0.8408 -1.6217
  363MOL0     H48959  -0.642  10.383   3.271  1.6116  0.3268 -1.3859
  363MOL0     H48960  -0.481  10.455   3.300  0.1224  0.0277  2.0850
  363MOL0     H48961  -0.570  10.669   3.371 -4.1224  2.8267  1.5511
  363MOL0     H48962  -0.733  10.616   3.335  0.7175  1.2620  2.1354
  363MOL0     H48963  -0.518  10.589   3.123 -0.1866 -0.1499 -0.1617
  363MOL0     H48964  -0.623  10.735   3.155 -2.4115  0.0908  0.8523
  363MOL0     H48965  -0.818  10.784   3.212  0.2032 -2.6821  0.8457
  363MOL0     H48966  -1.060  11.005   3.122 -1.8093 -0.8524 -0.6388
  363MOL0     H48967  -1.132  10.908   3.248 -0.9071 -0.9512 -0.5590
  363MOL0     H48968  -0.958  10.959   3.263  0.9527 -1.1851 -1.2533
  363MOL0     H48969  -1.384  11.123   3.080  1.2337 -0.5556  2.6530
  363MOL0     H48970  -1.632  11.180   3.114  3.7672  1.8662  4.0028
  363MOL0     H48971  -1.929  10.866   3.026  3.5712 -1.9520  2.1636
  363MOL0     H48972  -1.934  10.892   3.203 -1.3243 -1.2406 -0.0921
  363MOL0     H48973  -2.101  11.083   3.163 -0.1507  0.5220 -0.4171
  363MOL0     H48974  -2.092  11.032   2.991  3.5412  1.2124  0.2700
  363MOL0     H48975  -2.168  10.851   3.226 -4.2157  0.9046 -0.6886
  363MOL0     H48976  -2.167  10.814   3.050 -1.5982  1.3422 -1.5217
  363MOL0     H48977  -2.332  10.998   3.023  2.3915  0.6110 -0.2716
  363MOL0     H48978  -2.400  10.861   3.119 -1.6004  0.8960  0.8533
  363MOL0     H48979  -2.295  11.126   3.242  1.2893 -0.6588 -4.0293
  363MOL0     H48980  -2.326  10.972   3.331 -0.6457 -1.1197  0.1949
  363MOL0     H48981  -2.527  11.122   3.156 -1.1060 -0.6701  0.1713
  363MOL0     H48982  -2.564  10.965   3.233 -0.1178 -0.9755 -0.8439
  363MOL0     H48983  -2.484  11.218   3.384  0.2994 -0.6897 -1.5417
  363MOL0     H48984  -2.490  11.058   3.449  1.4215  0.3680 -0.1794
  363MOL0     H48985  -2.694  11.182   3.502  2.1716  0.3275 -0.2264
  363MOL0     H48986  -2.723  11.038   3.401 -3.8567  1.6850 -1.5810
  363MOL0     H48987  -1.736  10.765   3.069  1.3905 -1.5582  3.4297
  363MOL0     H48988  -1.481  10.715   3.078  3.0717  0.8872  2.1701
  363MOL0     H48989  -1.120  10.568   2.898 -0.2419 -0.9747  0.8279
  363MOL0     H48990  -0.911  10.461   2.953  3.5830  0.6646  0.9792
  363MOL0     H48991   0.864  10.070   3.717 -2.3756 -2.7207  0.8413
  363MOL0     H48992   1.103  10.092   3.639 -0.4050  1.6512 -1.0567
  363MOL0     H48993   1.526   9.934   3.696  0.0347  0.8284 -0.5795
  363MOL0     H48994   1.748  10.048   3.678 -0.6982  2.9812  0.3612
  363MOL0     H48995   2.035  10.188   3.486 -2.0670  1.8110 -2.3643
  363MOL0     H48996   1.948  10.168   3.637  0.1192  2.5568 -1.9007
  363MOL0     H48997   1.925   9.920   3.568 -0.2324  0.8677  0.9257
  363MOL0     H48998   2.089   9.980   3.599 -1.1388  1.4485  0.7875
  363MOL0     H48999   2.152   9.991   3.373 -0.2511  0.8307  0.4080
  363MOL0     H49000   1.983   9.987   3.323 -3.7482 -4.1609  0.4525
  363MOL0     H49001   2.118   9.736   3.463  1.0379  0.7278  0.2078
  363MOL0     H49002   2.105   9.751   3.289 -1.5198  1.7359 -1.2712
  363MOL0     H49003   1.712   9.650   3.408 -0.0545  0.6064  1.1776
  363MOL0     H49004   1.649  10.194   3.297  0.1505  1.1937  0.4702
  363MOL0     H49005   1.425  10.077   3.305  0.3328  1.2361 -0.8881
  364MOL0     O49006   5.890   7.988   6.316  0.2731 -0.3218 -0.0639
  364MOL0     C49007   5.914   7.962   6.431  0.5853  0.4326 -0.0809
  364MOL0     O49008   5.990   7.852   6.469  0.3651  0.3664 -0.3161
  364MOL0     C49009   6.076   7.776   6.391 -0.2172 -0.4416  0.1622
  364MOL0     C49010   6.146   7.672   6.455  0.1974 -0.5347  0.0287
  364MOL0     C49011   6.245   7.603   6.380 -0.0235 -0.1978 -0.2281
  364MOL0     C49012   6.266   7.628   6.245  0.5996  0.7442  0.8335
  364MOL0     O49013   6.358   7.542   6.176  0.0790 -1.0648 -0.7957
  364MOL0     C49014   6.341   7.524   6.031  1.0229 -0.8897  0.1255
  364MOL0     C49015   6.459   7.434   5.990 -0.5003  0.3724 -0.6449
  364MOL0     C49016   6.455   7.387   5.839 -0.3644 -0.1610  0.1325
  364MOL0     C49017   6.308   7.351   5.794 -0.2480 -0.5537  0.0852
  364MOL0     C49018   6.302   7.269   5.658  0.0838 -0.4770  0.6323
  364MOL0     C49019   6.294   7.112   5.681 -0.4960  0.0438 -0.0237
  364MOL0     C49020   6.162   7.051   5.732 -0.0005 -0.1288  0.6624
  364MOL0     C49021   6.045   7.051   5.639 -0.6469  0.6254  0.3093
  364MOL0     N49022   5.962   6.926   5.647 -0.6515 -0.3585  0.7758
  364MOL0     C49023   5.945   6.847   5.756  0.0534  0.4955  0.5657
  364MOL0     C49024   5.833   6.780   5.719  0.1539  0.3918 -0.0703
  364MOL0     C49025   5.770   6.667   5.799  0.0897 -0.1031 -0.1056
  364MOL0     C49026   5.714   6.541   5.719  0.0872  0.3666 -0.0615
  364MOL0     C49027   5.573   6.553   5.676 -0.3492 -0.0167  0.5538
  364MOL0     C49028   5.509   6.416   5.648  0.6189  0.4500  0.3032
  364MOL0     O49029   5.375   6.447   5.600  0.2733 -0.1431  0.2091
  364MOL0     C49030   5.285   6.346   5.586 -0.2946 -0.3731 -1.2406
  364MOL0     C49031   5.302   6.212   5.624  1.0449 -0.0616 -0.3531
  364MOL0     C49032   5.201   6.114   5.608  0.3386 -0.1475  0.0183
  364MOL0     C49033   5.227   5.975   5.655 -0.1105 -0.3803  0.2636
  364MOL0     C49034   5.075   6.158   5.565  0.0511 -0.3690 -0.3073
  364MOL0     C49035   4.955   6.064   5.540 -1.4977  1.3420  0.4667
  364MOL0     O49036   4.835   6.111   5.588  0.0062 -0.2345  0.0962
  364MOL0     C49037   4.721   6.036   5.602  0.6863 -0.0525 -0.1190
  364MOL0     C49038   4.726   5.896   5.608 -0.2900  0.2001  0.5524
  364MOL0     C49039   4.600   5.824   5.612  0.4674 -0.2288  0.2306
  364MOL0     C49040   4.478   5.891   5.626 -0.1125  0.5996  0.1987
  364MOL0     O49041   4.361   5.826   5.627 -1.1513 -1.1171 -0.3338
  364MOL0     C49042   4.349   5.693   5.673 -0.7268  0.0219  1.0652
  364MOL0     C49043   4.221   5.674   5.751 -0.4847 -0.2306 -0.5264
  364MOL0     C49044   4.102   5.718   5.665  0.2900 -0.6139 -0.0335
  364MOL0     C49045   3.978   5.656   5.741 -0.0959 -0.2830  0.4834
  364MOL0     C49046   3.860   5.718   5.680  0.9040 -1.0140  0.1801
  364MOL0     C49047   3.732   5.656   5.746  0.4121  0.0064  0.3642
  364MOL0     C49048   3.602   5.670   5.667  0.8062  0.1521 -0.1220
  364MOL0     C49049   3.481   5.663   5.751 -0.5247 -0.3126 -0.7396
  364MOL0    Cl49050   3.350   5.583   5.660 -0.1200  0.0247 -0.2704
  364MOL0     C49051   4.479   6.027   5.629  1.0547 -0.3269  0.2096
  364MOL0     C49052   4.598   6.102   5.621  0.5247  0.5106 -0.4706
  364MOL0     O49053   4.982   5.953   5.488 -0.0510  0.1071  0.2908
  364MOL0     C49054   5.064   6.283   5.518  0.3075 -0.7860  0.1858
  364MOL0     C49055   5.170   6.382   5.522  0.7761  0.3846 -0.5830
  364MOL0     N49056   5.797   6.801   5.583  0.1949 -0.2420 -0.7005
  364MOL0     N49057   5.885   6.882   5.541 -0.2165  0.4066  0.0710
  364MOL0     C49058   6.191   7.723   6.183 -0.2935  0.6500 -0.3008
  364MOL0     C49059   6.095   7.797   6.256 -0.6658  0.3043 -0.1051
  364MOL0     C49060   5.863   8.052   6.529  0.8049 -0.1170 -0.2101
  364MOL0     C49061   5.894   8.028   6.666 -0.4060  0.3114 -0.5166
  364MOL0     C49062   5.838   8.101   6.764  1.0400  0.4863 -0.1253
  364MOL0     C49063   5.750   8.204   6.737  0.1231 -0.3427  0.6714
  364MOL0     O49064   5.704   8.280   6.839 -0.0147  0.2751  0.1544
  364MOL0     C49065   5.652   8.410   6.825  0.4639 -0.2864 -0.8854
  364MOL0     C49066   5.597   8.438   6.965 -0.0973  0.0351  0.4078
  364MOL0     C49067   5.719   8.487   7.049  0.4099 -0.6554 -0.3688
  364MOL0     C49068   5.661   8.525   7.194 -0.2726  0.7426 -0.2126
  364MOL0     C49069   5.743   8.622   7.267  0.3226  0.0312  0.8016
  364MOL0     C49070   5.794   8.709   7.335 -0.1234 -0.1372  0.2793
  364MOL0     C49071   5.719   8.231   6.609 -1.1445 -0.1715  0.3441
  364MOL0     C49072   5.775   8.160   6.505 -0.0644  0.3325 -0.0847
  364MOL0     H49073   6.128   7.659   6.561 -1.7413 -0.6136 -0.2839
  364MOL0     H49074   6.316   7.534   6.426  0.8926  0.7944 -0.1357
  364MOL0     H49075   6.240   7.485   6.014  0.8383 -0.8760  1.1257
  364MOL0     H49076   6.347   7.625   5.987 -1.0561  1.2238  4.1153
  364MOL0     H49077   6.544   7.503   5.991 -2.8953  3.6284  2.1933
  364MOL0     H49078   6.463   7.349   6.059 -3.1850  0.3965 -0.3500
  364MOL0     H49079   6.497   7.457   5.768  1.1540 -0.6721  0.4948
  364MOL0     H49080   6.521   7.302   5.818  2.2781  1.7513  0.1969
  364MOL0     H49081   6.260   7.296   5.876 -0.7789 -3.0580 -1.7697
  364MOL0     H49082   6.251   7.444   5.787 -0.0828 -0.3551  1.2199
  364MOL0     H49083   6.213   7.296   5.601  1.0000  1.4569  0.0300
  364MOL0     H49084   6.386   7.284   5.589 -0.1576 -2.2087 -0.0971
  364MOL0     H49085   6.324   7.067   5.586  0.8350  0.7573  0.0368
  364MOL0     H49086   6.374   7.080   5.749 -2.7024 -1.9295  1.8455
  364MOL0     H49087   6.177   6.949   5.769  2.4318  0.1293  0.5648
  364MOL0     H49088   6.140   7.109   5.822  0.9652 -1.4290  1.7738
  364MOL0     H49089   6.080   7.055   5.535  1.0440 -0.0849  0.8150
  364MOL0     H49090   5.991   7.145   5.649  1.4693  2.0784 -1.0208
  364MOL0     H49091   5.990   6.838   5.855  1.2050 -0.9419 -0.0372
  364MOL0     H49092   5.837   6.638   5.881 -1.2043 -1.2672  0.5723
  364MOL0     H49093   5.688   6.724   5.843  0.7964  0.6936  0.2159
  364MOL0     H49094   5.727   6.458   5.789  0.5950 -0.9953 -1.7131
  364MOL0     H49095   5.763   6.521   5.623 -0.2679 -1.0099  0.0186
  364MOL0     H49096   5.567   6.624   5.594  0.7342  0.9717  1.2887
  364MOL0     H49097   5.518   6.595   5.761 -0.9263 -0.4440  0.3974
  364MOL0     H49098   5.485   6.372   5.745 -1.4864 -1.3670 -0.9306
  364MOL0     H49099   5.567   6.341   5.594  0.4030  1.1413 -0.9321
  364MOL0     H49100   5.394   6.197   5.679 -0.3425 -2.0547  1.5859
  364MOL0     H49101   5.142   5.938   5.713 -0.7892  1.1983  0.3112
  364MOL0     H49102   5.258   5.909   5.574 -1.3611 -1.0310  0.2883
  364MOL0     H49103   5.306   5.979   5.730 -1.1878  1.3261  1.3911
  364MOL0     H49104   4.825   5.851   5.614  1.2457  3.3901  1.2049
  364MOL0     H49105   4.598   5.717   5.595 -1.1147 -0.3851  1.2054
  364MOL0     H49106   4.361   5.628   5.585  3.9255 -2.5578  3.2446
  364MOL0     H49107   4.437   5.665   5.732 -0.5753 -1.1025  0.3353
  364MOL0     H49108   4.219   5.569   5.780  2.1565 -0.0987  0.4617
  364MOL0     H49109   4.218   5.741   5.837  0.5014  1.0820 -1.4485
  364MOL0     H49110   4.108   5.663   5.571  0.2570 -1.1662  0.2800
  364MOL0     H49111   4.089   5.825   5.651 -1.5995 -0.9078 -0.7936
  364MOL0     H49112   3.979   5.550   5.716  2.6268 -0.9464  2.8757
  364MOL0     H49113   3.977   5.663   5.850  1.8823 -1.9911  0.6783
  364MOL0     H49114   3.864   5.698   5.573  1.6099 -2.0327  0.3721
  364MOL0     H49115   3.859   5.826   5.693  1.5145 -1.2356  2.4849
  364MOL0     H49116   3.751   5.549   5.758 -1.8135 -0.7542 -1.9259
  364MOL0     H49117   3.732   5.697   5.847  0.4882 -3.0888  1.7455
  364MOL0     H49118   3.605   5.596   5.586  1.2264 -0.1520  0.1667
  364MOL0     H49119   3.604   5.770   5.622  1.7979  0.2925  0.2121
  364MOL0     H49120   3.444   5.762   5.780 -2.5388 -0.4603 -2.5238
  364MOL0     H49121   3.503   5.604   5.840  2.5470 -0.4305 -1.4696
  364MOL0     H49122   4.382   6.076   5.632  2.1425  1.9654  0.2523
  364MOL0     H49123   4.604   6.210   5.619  1.6440  0.4629 -0.4781
  364MOL0     H49124   4.972   6.327   5.479  1.1494  0.9843  0.1030
  364MOL0     H49125   5.147   6.486   5.501 -0.3923 -0.0358 -1.5395
  364MOL0     H49126   6.196   7.757   6.080 -4.6991 -2.7484 -1.9818
  364MOL0     H49127   6.038   7.870   6.198 -1.7217 -1.5569 -1.4975
  364MOL0     H49128   5.950   7.945   6.708 -3.0117 -1.4271 -0.2155
  364MOL0     H49129   5.875   8.071   6.861 -0.5011  0.7030  0.5559
  364MOL0     H49130   5.736   8.475   6.798  0.6195  0.9067  2.1667
  364MOL0     H49131   5.567   8.407   6.756  1.4765  1.4888 -2.2792
  364MOL0     H49132   5.561   8.345   7.011  0.3282 -0.8133 -0.9311
  364MOL0     H49133   5.515   8.509   6.959 -0.4820 -0.5362 -1.5759
  364MOL0     H49134   5.763   8.579   7.009 -0.5791  0.8133  1.7370
  364MOL0     H49135   5.789   8.405   7.067 -0.5757 -0.6537  5.4868
  364MOL0     H49136   5.644   8.434   7.251  0.0079 -0.4378 -1.9331
  364MOL0     H49137   5.561   8.568   7.180 -0.6840 -0.8072 -2.6172
  364MOL0     H49138   5.846   8.781   7.395  2.3119 -0.6569 -1.0842
  364MOL0     H49139   5.653   8.314   6.583 -0.4375  0.6418  1.0840
  364MOL0     H49140   5.751   8.195   6.404  1.8533  0.3444 -0.5827
  365MOL0     O49141   5.501  10.069   2.866  0.2071 -1.3845 -0.1513
  365MOL0     C49142   5.448  10.172   2.830  0.3703 -0.3525  0.2859
  365MOL0     O49143   5.315  10.190   2.791 -0.3115  0.0682  0.4175
  365MOL0     C49144   5.223  10.089   2.809 -1.4846 -0.6254  0.5783
  365MOL0     C49145   5.090  10.137   2.824  0.2784 -0.0841 -0.5033
  365MOL0     C49146   4.979  10.042   2.830  0.0785  0.4381 -0.0231
  365MOL0     C49147   5.002   9.904   2.842 -0.2051  0.2569 -0.6744
  365MOL0     O49148   4.909   9.808   2.868 -0.3714  0.6895 -0.1207
  365MOL0     C49149   4.771   9.845   2.857  0.3159  0.4578 -0.5047
  365MOL0     C49150   4.695   9.717   2.877 -0.0433  0.5615 -0.3875
  365MOL0     C49151   4.545   9.714   2.856  0.5716  0.7289  0.1589
  365MOL0     C49152   4.482   9.575   2.886  0.3105 -0.1278  0.6185
  365MOL0     C49153   4.328   9.582   2.865 -0.1972 -0.1486 -0.0263
  365MOL0     C49154   4.254   9.454   2.876  0.2048  0.9518  0.1879
  365MOL0     C49155   4.110   9.472   2.901  0.1125 -0.0445 -0.2413
  365MOL0     C49156   4.058   9.568   2.787  0.0002  0.5529 -0.4276
  365MOL0     N49157   3.913   9.564   2.776  1.3615 -0.8534  0.8695
  365MOL0     C49158   3.845   9.483   2.689 -0.4657  0.1550 -0.3103
  365MOL0     C49159   3.720   9.537   2.674  0.1214 -0.4376 -0.4856
  365MOL0     C49160   3.609   9.490   2.580  0.4348  1.2761  0.2433
  365MOL0     C49161   3.465   9.510   2.635  1.3105 -0.2417 -0.6437
  365MOL0     C49162   3.355   9.421   2.577 -0.4734  0.2798 -0.3552
  365MOL0     C49163   3.278   9.350   2.681 -0.5867  0.0275 -0.2283
  365MOL0     O49164   3.167   9.274   2.622  0.0965  0.2361  0.1871
  365MOL0     C49165   3.069   9.205   2.691  0.4063  0.1934  0.2043
  365MOL0     C49166   3.059   9.194   2.828 -0.0377  0.5417 -0.1705
  365MOL0     C49167   2.940   9.133   2.893  0.7378  1.1316  0.5502
  365MOL0     C49168   2.946   9.119   3.045  0.5065 -1.5136  0.3785
  365MOL0     C49169   2.835   9.084   2.806 -0.6029 -0.4617 -0.2575
  365MOL0     C49170   2.702   9.036   2.863  0.8041  0.9265  0.5048
  365MOL0     O49171   2.622   8.966   2.773 -0.3643  0.1756 -0.4509
  365MOL0     C49172   2.504   8.914   2.820 -0.0273  0.8721 -0.0590
  365MOL0     C49173   2.511   8.823   2.926  1.2021  0.8888  0.0939
  365MOL0     C49174   2.393   8.758   2.968  0.4514  0.1342  0.0839
  365MOL0     C49175   2.263   8.791   2.903 -0.6195  0.1615  0.5043
  365MOL0     O49176   2.145   8.740   2.930  0.4431  0.4063 -0.0329
  365MOL0     C49177   2.107   8.721   3.064 -0.0200 -0.5705 -0.7021
  365MOL0     C49178   2.052   8.578   3.078 -0.1584 -0.3413 -0.2830
  365MOL0     C49179   1.910   8.537   3.021 -0.6173  0.3021 -0.3236
  365MOL0     C49180   1.799   8.601   3.103  0.4468 -0.1796  0.3664
  365MOL0     C49181   1.666   8.524   3.074 -0.6866  1.4184 -0.0489
  365MOL0     C49182   1.545   8.584   3.147  0.3781 -1.1505 -0.7729
  365MOL0     C49183   1.507   8.729   3.109  0.2966 -0.7101 -0.0227
  365MOL0     C49184   1.409   8.773   3.219 -0.4402 -0.4299  0.4120
  365MOL0    Cl49185   1.257   8.668   3.237 -0.3915  0.0336 -0.6886
  365MOL0     C49186   2.273   8.891   2.805 -0.1583  0.0475 -0.8224
  365MOL0     C49187   2.387   8.950   2.756 -0.6531  0.5694  0.0548
  365MOL0     O49188   2.681   9.048   2.983  0.0350 -0.3751 -0.4074
  365MOL0     C49189   2.849   9.093   2.667  0.8021 -0.4239  0.3763
  365MOL0     C49190   2.970   9.154   2.614 -0.4842 -0.4079 -0.5357
  365MOL0     N49191   3.718   9.656   2.751 -0.2242  0.4254 -0.4017
  365MOL0     N49192   3.831   9.666   2.816  0.1091  0.8745  0.1919
  365MOL0     C49193   5.138   9.852   2.830  0.6397 -0.1798 -0.3683
  365MOL0     C49194   5.243   9.944   2.811 -0.2534  0.2686 -1.2415
  365MOL0     C49195   5.539  10.290   2.829 -0.2198 -0.0804 -0.9009
  365MOL0     C49196   5.490  10.416   2.773 -0.2211  0.5896  0.0522
  365MOL0     C49197   5.568  10.528   2.770 -0.7792 -0.8899 -0.7113
  365MOL0     C49198   5.699  10.539   2.830 -0.0452  1.2797 -0.3350
  365MOL0     O49199   5.793  10.638   2.823  0.5382 -0.9788  0.4259
  365MOL0     C49200   5.726  10.762   2.802 -0.3446  0.3926 -0.2859
  365MOL0     C49201   5.809  10.893   2.801  0.2003  0.1460 -0.1676
  365MOL0     C49202   5.716  11.015   2.770 -0.1179  0.4105  0.4034
  365MOL0     C49203   5.640  11.054   2.895  0.3537  0.8448  0.8850
  365MOL0     C49204   5.515  10.986   2.922  0.3102  0.0568 -0.0320
  365MOL0     C49205   5.414  10.941   2.960  0.3386  0.7552 -0.2354
  365MOL0     C49206   5.747  10.418   2.877 -0.1988  0.2281 -0.0079
  365MOL0     C49207   5.673  10.301   2.883 -0.2249  0.0955 -0.7431
  365MOL0     H49208   5.054  10.238   2.810 -0.4285 -0.2315  0.1559
  365MOL0     H49209   4.879  10.083   2.826  0.5147  1.9983  2.7624
  365MOL0     H49210   4.746   9.919   2.934  0.3461  2.0544 -1.9705
  365MOL0     H49211   4.748   9.896   2.763 -0.1119  2.0088  0.3912
  365MOL0     H49212   4.729   9.649   2.798  1.0892  0.5591  0.0926
  365MOL0     H49213   4.727   9.675   2.973  0.1017 -0.6147 -0.9366
  365MOL0     H49214   4.487   9.781   2.920 -0.4295 -2.5312  2.9913
  365MOL0     H49215   4.517   9.735   2.752 -0.6630 -1.6559 -0.0735
  365MOL0     H49216   4.525   9.490   2.831  0.7106  1.1342 -1.1032
  365MOL0     H49217   4.501   9.550   2.991  1.1409 -0.6786  0.3471
  365MOL0     H49218   4.299   9.650   2.946  0.0583  0.9648 -0.8346
  365MOL0     H49219   4.305   9.633   2.770  0.6354  1.4561  0.5895
  365MOL0     H49220   4.270   9.398   2.784 -1.1373 -1.2593  1.2152
  365MOL0     H49221   4.304   9.391   2.950  3.1565 -2.3282 -4.1065
  365MOL0     H49222   4.052   9.380   2.912 -2.4029  1.6066  1.2803
  365MOL0     H49223   4.103   9.536   2.989 -0.3444  4.1657 -3.0427
  365MOL0     H49224   4.101   9.534   2.692  0.9025  0.2149  0.0939
  365MOL0     H49225   4.101   9.668   2.801 -0.9212  0.6669  2.2438
  365MOL0     H49226   3.875   9.388   2.644 -0.1369  0.1244 -0.0327
  365MOL0     H49227   3.618   9.534   2.481  0.2753  0.4795 -0.1344
  365MOL0     H49228   3.621   9.381   2.573  0.7053  1.1332  2.2699
  365MOL0     H49229   3.441   9.613   2.606  0.9056 -0.3695 -0.7727
  365MOL0     H49230   3.472   9.497   2.744  0.1152 -1.1186 -0.6520
  365MOL0     H49231   3.389   9.352   2.500  0.5919  0.0293  0.3153
  365MOL0     H49232   3.280   9.495   2.547 -3.2209 -1.0381  2.5888
  365MOL0     H49233   3.245   9.434   2.743  0.8127  0.9614 -0.7034
  365MOL0     H49234   3.343   9.281   2.737 -1.6808 -1.5660 -0.8516
  365MOL0     H49235   3.143   9.233   2.885 -2.4218 -0.0147  4.1506
  365MOL0     H49236   3.040   9.157   3.084 -0.1770  0.1685  0.4807
  365MOL0     H49237   2.862   9.165   3.098  0.1325 -1.2868 -0.3857
  365MOL0     H49238   2.935   9.012   3.064  1.1106 -1.5617  0.4728
  365MOL0     H49239   2.604   8.808   2.980  1.5677  1.3143 -0.4082
  365MOL0     H49240   2.386   8.675   3.038 -1.1853 -2.5153 -2.9716
  365MOL0     H49241   2.190   8.739   3.133 -0.0398 -0.2070 -0.7698
  365MOL0     H49242   2.026   8.792   3.083 -0.1070 -0.6585 -0.7464
  365MOL0     H49243   2.132   8.512   3.041 -0.5687 -0.9144 -0.1694
  365MOL0     H49244   2.035   8.553   3.183 -2.1970  1.1582 -0.2018
  365MOL0     H49245   1.905   8.428   3.009  1.7231  0.1729 -0.6920
  365MOL0     H49246   1.913   8.577   2.919  1.0907 -0.3490 -0.5745
  365MOL0     H49247   1.825   8.592   3.209 -2.3572 -2.7881  0.9625
  365MOL0     H49248   1.785   8.708   3.085 -0.5358 -0.4984 -0.8860
  365MOL0     H49249   1.676   8.419   3.102 -0.1398  1.1792 -1.0791
  365MOL0     H49250   1.639   8.521   2.967  0.8926 -1.5810 -0.4591
  365MOL0     H49251   1.467   8.509   3.126 -0.3516 -0.1652 -1.7161
  365MOL0     H49252   1.571   8.573   3.252  1.4656  1.5681 -0.6730
  365MOL0     H49253   1.466   8.726   3.008  1.9669 -2.4778 -0.7194
  365MOL0     H49254   1.592   8.796   3.089 -1.3926  1.1997 -1.1495
  365MOL0     H49255   1.383   8.877   3.198  1.2096  0.1417  1.1022
  365MOL0     H49256   1.466   8.783   3.311  1.0122  2.6997 -0.6961
  365MOL0     H49257   2.181   8.927   2.761 -0.3100  0.1438 -0.4288
  365MOL0     H49258   2.384   9.030   2.682  0.9288  0.9367  0.3648
  365MOL0     H49259   2.766   9.074   2.600  0.1054  0.6192  0.9114
  365MOL0     H49260   2.974   9.175   2.508  1.2073 -2.1719 -0.8591
  365MOL0     H49261   5.154   9.745   2.828 -0.7110 -0.5229  2.3155
  365MOL0     H49262   5.334   9.890   2.788 -1.0376 -0.9598 -1.5907
  365MOL0     H49263   5.398  10.410   2.715 -0.5905 -0.3403  0.7006
  365MOL0     H49264   5.528  10.610   2.711 -0.1384  1.2588  1.6774
  365MOL0     H49265   5.662  10.767   2.713  1.9573 -1.8980 -2.2110
  365MOL0     H49266   5.665  10.772   2.893  0.0945  0.9519 -0.0466
  365MOL0     H49267   5.880  10.897   2.718  2.2410  0.6341  1.5011
  365MOL0     H49268   5.861  10.908   2.896  0.6285 -0.1933 -0.3456
  365MOL0     H49269   5.643  10.978   2.696  0.4581 -2.4750  1.1370
  365MOL0     H49270   5.769  11.101   2.728 -2.0527  1.3526 -0.2338
  365MOL0     H49271   5.610  11.159   2.897  0.3654  0.8670  3.2171
  365MOL0     H49272   5.702  11.032   2.982 -0.7531 -2.6801  0.9588
  365MOL0     H49273   5.313  10.917   2.987  0.7628  0.4465  1.1757
  365MOL0     H49274   5.844  10.428   2.924 -0.6520  1.2992  0.7298
  365MOL0     H49275   5.726  10.218   2.928 -2.1131  0.0359  1.5908
  366MOL0     O49276   5.876   3.958   0.671 -0.1709 -0.1438 -0.5346
  366MOL0     C49277   5.785   3.882   0.655 -0.0819  0.7581 -0.1039
  366MOL0     O49278   5.657   3.920   0.657  0.3650  0.2364 -0.8757
  366MOL0     C49279   5.607   4.045   0.635 -1.1986 -0.2260  0.7831
  366MOL0     C49280   5.473   4.064   0.658  0.0907 -0.3049  0.3389
  366MOL0     C49281   5.414   4.185   0.623 -0.8389  0.3415 -0.7081
  366MOL0     C49282   5.488   4.289   0.577 -0.7872 -0.2029 -0.1765
  366MOL0     O49283   5.439   4.410   0.537 -0.0673 -0.1793  0.2341
  366MOL0     C49284   5.403   4.402   0.402  0.5979 -0.0427 -0.4300
  366MOL0     C49285   5.305   4.291   0.356  0.1855 -0.1731  0.0194
  366MOL0     C49286   5.163   4.320   0.418  0.1473  0.7019 -0.7847
  366MOL0     C49287   5.039   4.242   0.377 -0.2680 -0.3582  0.0078
  366MOL0     C49288   5.029   4.096   0.415  0.2397 -0.1998 -0.5290
  366MOL0     C49289   4.998   4.075   0.567 -0.4598 -0.0013  0.0058
  366MOL0     C49290   4.942   3.925   0.584 -0.0422 -1.1142 -0.1139
  366MOL0     C49291   4.786   3.913   0.600  0.7782  0.4648  0.3178
  366MOL0     N49292   4.737   3.946   0.739 -0.1896 -0.5788  0.4030
  366MOL0     C49293   4.691   3.863   0.839  1.4729  0.5541  0.1622
  366MOL0     C49294   4.644   3.944   0.934  0.6042 -0.8018  0.2734
  366MOL0     C49295   4.581   3.897   1.065 -0.2267  0.4026 -0.1973
  366MOL0     C49296   4.448   3.821   1.065  0.3722  0.5420  0.6119
  366MOL0     C49297   4.357   3.878   0.956  0.1315 -0.3771 -0.2291
  366MOL0     C49298   4.310   4.028   0.987  0.0936  0.0853 -1.4339
  366MOL0     O49299   4.231   4.041   1.110 -0.0937  0.2710  0.1523
  366MOL0     C49300   4.105   3.994   1.106  0.6130 -0.0631  0.1153
  366MOL0     C49301   4.032   3.989   1.224 -0.5742  1.1302 -0.8088
  366MOL0     C49302   3.903   3.933   1.235 -0.3028  0.4962 -0.5207
  366MOL0     C49303   3.852   3.926   1.374  0.0531  1.0116  0.4762
  366MOL0     C49304   3.843   3.877   1.117 -0.5078  0.2333 -0.3243
  366MOL0     C49305   3.699   3.820   1.118 -0.5235  0.2645 -0.1442
  366MOL0     O49306   3.657   3.751   1.229 -0.1511 -0.7056  0.4081
  366MOL0     C49307   3.519   3.744   1.248  0.8678  0.1398  0.7333
  366MOL0     C49308   3.425   3.835   1.196 -0.4428  0.5465 -0.9496
  366MOL0     C49309   3.291   3.815   1.233  0.6464  0.4700 -0.5531
  366MOL0     C49310   3.246   3.729   1.332  0.2268  0.7775  0.0611
  366MOL0     O49311   3.110   3.719   1.357  0.3379  0.4346 -0.7205
  366MOL0     C49312   3.050   3.836   1.415 -0.4501 -0.4137  0.1740
  366MOL0     C49313   2.918   3.871   1.347 -0.5262  0.2974 -0.1438
  366MOL0     C49314   2.808   3.772   1.402  0.4563  0.8669  0.5898
  366MOL0     C49315   2.673   3.804   1.325 -0.2527 -0.0864 -0.0502
  366MOL0     C49316   2.551   3.744   1.387  0.5663  0.3313  0.0416
  366MOL0     C49317   2.523   3.792   1.531 -0.4416 -0.0194 -0.2833
  366MOL0     C49318   2.417   3.716   1.603 -0.0094 -0.2386 -0.5329
  366MOL0     C49319   2.278   3.774   1.578 -0.0827 -0.5741 -0.4523
  366MOL0    Cl49320   2.159   3.717   1.713 -0.0410 -0.0103  0.2378
  366MOL0     C49321   3.344   3.635   1.378 -0.2570 -0.5860 -0.1888
  366MOL0     C49322   3.475   3.647   1.345  0.7572  0.1152 -0.6555
  366MOL0     O49323   3.629   3.836   1.016  0.4477  0.3553 -0.4123
  366MOL0     C49324   3.919   3.883   1.001  0.1252 -0.1310 -0.1720
  366MOL0     C49325   4.047   3.933   1.000 -0.1098  0.3305 -0.3913
  366MOL0     N49326   4.655   4.078   0.892 -0.3721  0.1038  0.2052
  366MOL0     N49327   4.698   4.073   0.773 -0.4135 -0.1323  1.0904
  366MOL0     C49328   5.620   4.268   0.552 -0.3500  0.2507 -0.7974
  366MOL0     C49329   5.685   4.150   0.583  0.1141 -0.7659 -0.4103
  366MOL0     C49330   5.820   3.740   0.649  0.1602  1.0265 -0.9655
  366MOL0     C49331   5.952   3.694   0.671  0.2658 -0.3528 -0.1067
  366MOL0     C49332   5.981   3.558   0.683  0.4574  0.5380 -0.5141
  366MOL0     C49333   5.881   3.460   0.655 -0.0563 -0.2793 -0.1899
  366MOL0     O49334   5.920   3.334   0.658  0.2132 -0.3408  0.5624
  366MOL0     C49335   5.839   3.234   0.595  0.1143  0.0800  0.2790
  366MOL0     C49336   5.925   3.108   0.569 -0.3599  0.2469  0.1059
  366MOL0     C49337   5.876   3.010   0.454 -0.6688 -0.6865 -0.4456
  366MOL0     C49338   5.727   2.997   0.465  0.3414 -0.0227 -0.7551
  366MOL0     C49339   5.671   2.903   0.369  0.4180 -0.3048  0.0361
  366MOL0     C49340   5.633   2.811   0.296 -0.1353  0.4346  0.1577
  366MOL0     C49341   5.749   3.505   0.623 -0.0258  0.4781 -1.3103
  366MOL0     C49342   5.721   3.646   0.638  0.7969  0.2508  0.2671
  366MOL0     H49343   5.422   3.971   0.682 -0.7482 -1.0071 -3.5321
  366MOL0     H49344   5.307   4.186   0.640 -0.3348  0.6566  3.3161
  366MOL0     H49345   5.362   4.500   0.375  2.3214  0.8269 -0.0077
  366MOL0     H49346   5.493   4.396   0.341  1.4424  2.4893  0.4754
  366MOL0     H49347   5.301   4.303   0.247 -0.3289  3.9318  0.3050
  366MOL0     H49348   5.335   4.189   0.382 -0.6610 -0.1294  1.2330
  366MOL0     H49349   5.166   4.321   0.527 -2.7811  1.5955 -0.6164
  366MOL0     H49350   5.134   4.423   0.398 -2.5596  0.7391  2.4661
  366MOL0     H49351   4.951   4.291   0.419  0.2779  0.2718  0.4383
  366MOL0     H49352   5.034   4.253   0.268 -1.5988  2.0578  0.2465
  366MOL0     H49353   4.947   4.054   0.357  0.5592  1.2412 -2.1040
  366MOL0     H49354   5.116   4.034   0.391 -2.2998 -3.9615 -0.8468
  366MOL0     H49355   5.091   4.082   0.624  0.4891 -0.8327 -1.3742
  366MOL0     H49356   4.914   4.131   0.610 -1.2716  0.3271 -1.9027
  366MOL0     H49357   4.980   3.864   0.501  2.7199  2.0153 -1.4016
  366MOL0     H49358   4.992   3.885   0.673 -0.7936 -1.0095  0.3608
  366MOL0     H49359   4.742   3.818   0.569 -2.5471  0.3738  4.4282
  366MOL0     H49360   4.749   3.992   0.534 -0.4448  0.3519  0.8533
  366MOL0     H49361   4.704   3.756   0.850  2.1428  0.8472  2.8404
  366MOL0     H49362   4.649   3.830   1.117 -0.5749 -0.8176 -1.2449
  366MOL0     H49363   4.583   3.984   1.131 -3.1274 -0.0295  0.6099
  366MOL0     H49364   4.392   3.820   1.159  0.7419  3.3555  0.9675
  366MOL0     H49365   4.467   3.717   1.038  0.9578  0.9391 -0.5644
  366MOL0     H49366   4.279   3.802   0.959 -1.5770  1.3111 -0.2052
  366MOL0     H49367   4.393   3.877   0.853  1.3675  1.5622  0.1301
  366MOL0     H49368   4.269   4.084   0.903 -0.0855  0.5246 -1.0616
  366MOL0     H49369   4.402   4.084   1.006 -0.8085  1.1440  0.0478
  366MOL0     H49370   4.082   4.023   1.314 -0.4501 -2.8225  0.8328
  366MOL0     H49371   3.885   4.009   1.438  1.0662  0.6340  0.4687
  366MOL0     H49372   3.743   3.926   1.380  0.0952 -0.6538  1.9118
  366MOL0     H49373   3.897   3.842   1.427  1.1889  1.4231  0.2209
  366MOL0     H49374   3.446   3.917   1.127 -0.0260  1.4054  0.1724
  366MOL0     H49375   3.220   3.875   1.177  1.5467  0.4734 -1.7379
  366MOL0     H49376   3.024   3.809   1.518 -0.9345 -0.2971  0.0831
  366MOL0     H49377   3.110   3.927   1.407 -1.1535 -0.0244 -0.8255
  366MOL0     H49378   2.888   3.972   1.376  2.5263  1.0435  0.8122
  366MOL0     H49379   2.931   3.865   1.239  0.9989  0.1466  0.0199
  366MOL0     H49380   2.810   3.789   1.510 -1.9154  3.1460  0.3635
  366MOL0     H49381   2.834   3.666   1.390  1.2159  0.9845  1.0898
  366MOL0     H49382   2.650   3.909   1.309  0.6841 -0.0591 -1.3845
  366MOL0     H49383   2.695   3.770   1.223  2.4994 -0.2364  0.5069
  366MOL0     H49384   2.564   3.637   1.369  2.7185  0.5433  0.0722
  366MOL0     H49385   2.474   3.776   1.316  3.8212  2.8026 -2.7366
  366MOL0     H49386   2.613   3.754   1.582 -0.8497 -3.3057 -1.7678
  366MOL0     H49387   2.518   3.901   1.537 -0.5260 -0.0408  0.0878
  366MOL0     H49388   2.432   3.730   1.711 -3.2204 -0.2012  0.0001
  366MOL0     H49389   2.411   3.610   1.577  0.6134 -0.2995 -0.4317
  366MOL0     H49390   2.248   3.731   1.482 -0.5647  0.6218 -0.8589
  366MOL0     H49391   2.285   3.882   1.559  0.3525 -0.1375  1.9054
  366MOL0     H49392   3.300   3.552   1.431 -2.1934  0.1215 -0.6054
  366MOL0     H49393   3.544   3.574   1.387 -0.3069 -0.6631 -0.2263
  366MOL0     H49394   3.880   3.850   0.905 -2.2000  0.1531  0.6101
  366MOL0     H49395   4.095   3.935   0.903 -2.1707  2.8397 -1.4558
  366MOL0     H49396   5.679   4.349   0.509 -0.0621  0.0199 -0.8343
  366MOL0     H49397   5.791   4.138   0.565 -0.1976 -2.7348 -1.2202
  366MOL0     H49398   6.033   3.764   0.690 -0.0157  0.2871 -1.2201
  366MOL0     H49399   6.070   3.516   0.728  0.2391  1.6598  1.0665
  366MOL0     H49400   5.756   3.201   0.657 -0.2475  0.7867  0.1734
  366MOL0     H49401   5.818   3.279   0.497  0.9224  2.9776  1.3318
  366MOL0     H49402   5.930   3.041   0.655  0.9808 -0.8710 -0.7917
  366MOL0     H49403   6.027   3.146   0.554 -0.0794  0.3251  1.9621
  366MOL0     H49404   5.926   2.915   0.480 -1.0924 -0.7615  0.1218
  366MOL0     H49405   5.910   3.048   0.358 -0.4702 -2.5016 -1.1445
  366MOL0     H49406   5.672   3.090   0.448 -2.3136 -1.1211  1.0064
  366MOL0     H49407   5.702   2.957   0.564  2.4652  0.9985  0.2461
  366MOL0     H49408   5.595   2.736   0.230 -1.4541  1.8581 -0.7729
  366MOL0     H49409   5.660   3.446   0.604  0.7962 -1.3206  0.2005
  366MOL0     H49410   5.620   3.684   0.622  0.8092  0.2091  0.0880
  367MOL0     O49411  11.058   9.386  11.189 -0.0389  0.8450 -0.3452
  367MOL0     C49412  11.114   9.487  11.246  0.4040  0.9212  0.0095
  367MOL0     O49413  11.066   9.557  11.353 -0.0336  0.2194 -0.2510
  367MOL0     C49414  10.960   9.493  11.411  0.0311  0.8396 -0.2830
  367MOL0     C49415  10.828   9.528  11.387  0.1740  0.6863  0.4872
  367MOL0     C49416  10.719   9.454  11.427 -0.6136 -0.0582 -0.1265
  367MOL0     C49417  10.735   9.339  11.505  0.0946 -0.2124  0.0890
  367MOL0     O49418  10.625   9.270  11.544 -0.1628 -0.3177 -0.2299
  367MOL0     C49419  10.622   9.254  11.693  0.1659 -0.1218  0.0838
  367MOL0     C49420  10.509   9.345  11.735  0.3392  0.1243 -0.9102
  367MOL0     C49421  10.374   9.277  11.707  0.0875  0.3410  0.5244
  367MOL0     C49422  10.250   9.355  11.762  0.1841  0.1763 -0.0383
  367MOL0     C49423  10.130   9.327  11.668 -0.6695 -0.7478  1.0185
  367MOL0     C49424  10.010   9.404  11.726  0.4563  0.4802 -0.9531
  367MOL0     C49425   9.882   9.353  11.664 -0.3836 -0.1955  0.5736
  367MOL0     C49426   9.757   9.407  11.736 -0.1159 -1.0179 -0.6021
  367MOL0     N49427   9.629   9.355  11.685 -0.0552  0.6783  0.3701
  367MOL0     C49428   9.588   9.228  11.659 -0.6550  0.8759 -0.7751
  367MOL0     C49429   9.462   9.235  11.608 -0.3866  0.1768 -0.5678
  367MOL0     C49430   9.378   9.118  11.553 -0.3512 -0.0754  1.0189
  367MOL0     C49431   9.225   9.129  11.590  0.6299  0.2429  0.2049
  367MOL0     C49432   9.201   9.088  11.732  0.3227 -0.2338 -0.9842
  367MOL0     C49433   9.063   9.102  11.782  0.4326  0.1109  0.2527
  367MOL0     O49434   8.954   9.111  11.683 -0.4767  0.2802  0.6124
  367MOL0     C49435   8.846   9.040  11.713 -0.4252 -0.8359 -0.1636
  367MOL0     C49436   8.770   9.006  11.608  0.6691  0.0983  0.3112
  367MOL0     C49437   8.634   8.953  11.630  1.1283  0.8112  0.3885
  367MOL0     C49438   8.543   8.952  11.506  0.5381 -0.0526  0.1107
  367MOL0     C49439   8.586   8.917  11.754  0.1319 -0.2422  0.6819
  367MOL0     C49440   8.455   8.855  11.778  0.3550  0.2103 -0.0564
  367MOL0     O49441   8.426   8.844  11.907  0.7110 -0.3832 -0.3613
  367MOL0     C49442   8.301   8.816  11.959 -0.3325  0.7233 -0.2912
  367MOL0     C49443   8.182   8.852  11.891  0.1211  0.1036  0.0742
  367MOL0     C49444   8.055   8.820  11.947 -0.0512  0.9769  0.7393
  367MOL0     C49445   8.046   8.771  12.077  0.4020 -0.1494 -0.1282
  367MOL0     O49446   7.930   8.731  12.135 -0.7188  0.4353  0.7129
  367MOL0     C49447   7.816   8.811  12.121 -0.0686  0.5372 -0.6761
  367MOL0     C49448   7.717   8.747  12.022 -0.4552  0.4129  0.1654
  367MOL0     C49449   7.667   8.612  12.072 -0.0871  0.0478  0.2587
  367MOL0     C49450   7.548   8.547  11.988  1.4608  1.1263 -0.5786
  367MOL0     C49451   7.434   8.481  12.070 -0.5479 -0.1830 -0.3198
  367MOL0     C49452   7.482   8.347  12.124 -0.0523  0.5130 -0.3052
  367MOL0     C49453   7.362   8.259  12.148  0.9586  0.1898 -0.6318
  367MOL0     C49454   7.263   8.291  12.248  0.0935 -0.1590 -0.8075
  367MOL0    Cl49455   7.138   8.168  12.262  0.2864 -0.2389  0.2077
  367MOL0     C49456   8.166   8.723  12.136  0.0840 -0.2568  0.7165
  367MOL0     C49457   8.293   8.751  12.082 -0.4511  0.1845 -0.2776
  367MOL0     O49458   8.392   8.803  11.690 -0.7770  0.1450  0.1987
  367MOL0     C49459   8.673   8.943  11.859 -0.4953  0.1590 -0.4161
  367MOL0     C49460   8.796   9.012  11.845  0.0040  0.4392  0.0503
  367MOL0     N49461   9.424   9.369  11.602 -0.2722 -0.0292  0.8159
  367MOL0     N49462   9.526   9.441  11.642  0.1019 -0.0119  0.1660
  367MOL0     C49463  10.868   9.297  11.533  0.6656  0.3238 -0.0459
  367MOL0     C49464  10.977   9.373  11.490  0.9764 -0.5837  0.9314
  367MOL0     C49465  11.236   9.540  11.181 -0.7291 -0.1827 -0.1343
  367MOL0     C49466  11.308   9.649  11.236  0.1057  0.9841 -0.1001
  367MOL0     C49467  11.421   9.698  11.171  0.2936  0.4731  0.4026
  367MOL0     C49468  11.473   9.654  11.049 -0.0321  0.7650 -0.4736
  367MOL0     O49469  11.588   9.697  10.984 -0.1177 -0.4112 -0.5408
  367MOL0     C49470  11.692   9.756  11.058 -0.0861 -0.2733 -0.0493
  367MOL0     C49471  11.820   9.715  10.967 -0.1010 -0.8610  0.4948
  367MOL0     C49472  11.809   9.732  10.815 -0.4337  0.4579  0.6472
  367MOL0     C49473  11.922   9.672  10.730 -0.1554 -0.7778 -0.0063
  367MOL0     C49474  12.047   9.739  10.761  0.4542  0.8778 -0.0009
  367MOL0     C49475  12.149   9.771  10.807  0.0142  0.2344 -0.3641
  367MOL0     C49476  11.397   9.555  10.985 -1.0759 -0.0874 -0.3368
  367MOL0     C49477  11.281   9.503  11.050 -0.1422 -0.2776 -0.8718
  367MOL0     H49478  10.806   9.612  11.322 -0.8348  0.6450  0.7509
  367MOL0     H49479  10.620   9.487  11.398 -1.6446  1.1478  4.0371
  367MOL0     H49480  10.597   9.149  11.711  1.9639 -0.2088  2.4527
  367MOL0     H49481  10.714   9.283  11.745 -0.4855 -0.3020  1.3707
  367MOL0     H49482  10.519   9.351  11.844 -1.4629 -4.9086 -0.2030
  367MOL0     H49483  10.513   9.445  11.690 -1.0392  0.9994  0.7912
  367MOL0     H49484  10.366   9.269  11.599 -3.4974  0.8078  0.6600
  367MOL0     H49485  10.371   9.179  11.757 -0.4132  0.9042  1.6315
  367MOL0     H49486  10.219   9.319  11.861 -1.5710  0.1857 -0.5454
  367MOL0     H49487  10.268   9.461  11.782  0.7683 -0.1187  1.0408
  367MOL0     H49488  10.144   9.365  11.567 -0.3561  0.4097  1.4827
  367MOL0     H49489  10.117   9.218  11.668  3.0165 -1.3038  1.1873
  367MOL0     H49490  10.009   9.371  11.831  2.2087 -0.2639 -1.1359
  367MOL0     H49491  10.019   9.513  11.716 -3.1980  0.9665 -0.2899
  367MOL0     H49492   9.880   9.372  11.556  0.4531 -1.0218  0.4060
  367MOL0     H49493   9.878   9.244  11.667 -0.2591 -0.3362 -1.9295
  367MOL0     H49494   9.762   9.516  11.736 -0.7939 -0.9759  0.4620
  367MOL0     H49495   9.761   9.378  11.841  2.1517  2.7655  0.5493
  367MOL0     H49496   9.653   9.141  11.663  0.9575  2.0998  1.3947
  367MOL0     H49497   9.399   9.112  11.446  0.1676  3.0714  0.8360
  367MOL0     H49498   9.404   9.028  11.610 -1.3135 -1.3031 -0.4009
  367MOL0     H49499   9.161   9.068  11.525 -0.9237  1.0340  0.9267
  367MOL0     H49500   9.202   9.234  11.573  2.8018  1.1748  2.4498
  367MOL0     H49501   9.275   9.143  11.790  2.0278 -0.6724 -2.6433
  367MOL0     H49502   9.222   8.982  11.744  0.2773 -0.1904 -0.5221
  367MOL0     H49503   9.051   9.188  11.848 -0.0349 -1.3271  2.1123
  367MOL0     H49504   9.044   9.015  11.846 -2.5136  1.9586  2.1421
  367MOL0     H49505   8.795   9.026  11.504  1.0106 -3.5552 -0.4500
  367MOL0     H49506   8.580   9.018  11.427 -1.1998  1.2090  0.3126
  367MOL0     H49507   8.541   8.850  11.465  0.2455 -0.2826  0.6810
  367MOL0     H49508   8.441   8.981  11.530  0.9881  2.8960 -1.1336
  367MOL0     H49509   8.190   8.886  11.788 -0.4952  0.0956  0.0229
  367MOL0     H49510   7.963   8.844  11.894  0.3735 -2.0246 -1.6578
  367MOL0     H49511   7.776   8.819  12.223  2.7072  2.1420  0.4101
  367MOL0     H49512   7.841   8.914  12.095  2.0317  0.3459  0.3892
  367MOL0     H49513   7.621   8.800  12.022 -2.4654 -2.7935  2.9110
  367MOL0     H49514   7.769   8.736  11.926  1.6148 -2.7945  1.4945
  367MOL0     H49515   7.631   8.616  12.175 -3.2718 -2.6549 -0.5747
  367MOL0     H49516   7.748   8.539  12.060 -1.9152 -1.6975 -3.0690
  367MOL0     H49517   7.508   8.629  11.928 -0.0898  0.2950 -0.7163
  367MOL0     H49518   7.594   8.472  11.923 -1.3151 -2.2556  1.0097
  367MOL0     H49519   7.345   8.460  12.009 -1.7245 -1.9253  1.8480
  367MOL0     H49520   7.408   8.546  12.154 -0.8095 -0.2365 -0.3583
  367MOL0     H49521   7.539   8.296  12.045  1.3985 -0.2959  1.2012
  367MOL0     H49522   7.551   8.358  12.208  1.8103 -1.2925 -1.4949
  367MOL0     H49523   7.398   8.157  12.166  1.2692  0.4993  0.5373
  367MOL0     H49524   7.309   8.249  12.053  1.7340  0.4686 -1.1050
  367MOL0     H49525   7.217   8.387  12.224  0.9642  0.1993 -1.0908
  367MOL0     H49526   7.316   8.305  12.343  0.9655 -1.6337 -1.0415
  367MOL0     H49527   8.155   8.657  12.222  0.5406  1.7204  2.3647
  367MOL0     H49528   8.386   8.713  12.124  1.2862  0.8098 -3.2446
  367MOL0     H49529   8.651   8.932  11.964  1.5692  1.1938  0.1802
  367MOL0     H49530   8.855   9.045  11.930  0.9465  0.4790 -0.5927
  367MOL0     H49531  10.884   9.200  11.578 -2.4893  0.1970  1.0247
  367MOL0     H49532  11.076   9.328  11.487  0.1981 -2.3331 -0.9281
  367MOL0     H49533  11.278   9.698  11.328  1.5693  2.5461 -0.4135
  367MOL0     H49534  11.477   9.785  11.202  1.0654  1.5172 -3.3993
  367MOL0     H49535  11.686   9.865  11.062  0.5732 -0.2669  1.6377
  367MOL0     H49536  11.708   9.712  11.157  1.9735  1.5602  0.5149
  367MOL0     H49537  11.836   9.608  10.976 -0.7047 -0.9974  0.0166
  367MOL0     H49538  11.911   9.765  11.002  0.7710 -1.6974 -0.5117
  367MOL0     H49539  11.802   9.840  10.800  4.3480  0.8553 -0.1295
  367MOL0     H49540  11.720   9.678  10.781  0.3484 -0.8472  0.6193
  367MOL0     H49541  11.892   9.691  10.627 -1.6130 -1.4593  0.2680
  367MOL0     H49542  11.921   9.563  10.741 -1.9027 -0.8592 -0.5940
  367MOL0     H49543  12.242   9.797  10.852  2.3969 -5.8415 -0.7842
  367MOL0     H49544  11.414   9.515  10.886 -0.9946  0.7170 -0.6527
  367MOL0     H49545  11.216   9.436  10.995  1.6285 -1.5170 -1.5192
  368MOL0     O49546  10.779   6.176  10.468  0.1000 -0.7657  0.3640
  368MOL0     C49547  10.789   6.168  10.343 -0.0838 -0.3174 -0.4823
  368MOL0     O49548  10.691   6.152  10.249 -1.3659 -0.2526  0.3362
  368MOL0     C49549  10.572   6.130  10.311  0.8483  0.2940  0.0407
  368MOL0     C49550  10.555   5.998  10.372  0.3237 -0.1817  0.9647
  368MOL0     C49551  10.425   5.984  10.432 -0.1589 -0.7296 -0.0924
  368MOL0     C49552  10.314   6.074  10.414 -0.1378 -0.3290 -0.3883
  368MOL0     O49553  10.199   6.051  10.490 -0.5554 -0.0677  0.4619
  368MOL0     C49554  10.073   6.082  10.436 -0.0863 -0.4389 -0.2978
  368MOL0     C49555   9.964   5.983  10.492  0.6134  0.1925  0.4698
  368MOL0     C49556   9.841   6.052  10.569 -0.3861 -0.1099 -0.6801
  368MOL0     C49557   9.727   5.962  10.634 -0.0104  0.6151 -0.0306
  368MOL0     C49558   9.657   6.031  10.739  1.0326  0.3093  0.8502
  368MOL0     C49559   9.537   5.941  10.773 -0.3141 -0.4198  0.8193
  368MOL0     C49560   9.441   6.026  10.854  0.2056  0.1032  0.4529
  368MOL0     C49561   9.338   5.937  10.929  0.1410  0.2742  0.1403
  368MOL0     N49562   9.257   5.851  10.843  0.1441 -0.2547 -0.4351
  368MOL0     C49563   9.266   5.706  10.842  0.0249  0.0473 -1.2652
  368MOL0     C49564   9.161   5.678  10.762  0.7661 -0.3590 -0.0101
  368MOL0     C49565   9.132   5.539  10.735  0.3316  0.8324  0.7548
  368MOL0     C49566   9.023   5.487  10.837 -0.7024  0.5792 -0.9211
  368MOL0     C49567   8.879   5.531  10.820  1.1985  0.3058  0.3701
  368MOL0     C49568   8.800   5.444  10.714 -0.1458 -0.2151  0.3436
  368MOL0     O49569   8.665   5.476  10.756  0.1462 -0.3791 -0.0769
  368MOL0     C49570   8.554   5.424  10.696  0.6849 -0.1882 -0.6582
  368MOL0     C49571   8.550   5.304  10.622  0.3111 -0.0243 -0.7908
  368MOL0     C49572   8.426   5.254  10.572  0.7912  0.4879  0.4211
  368MOL0     C49573   8.421   5.123  10.489  0.2321 -0.5878  0.6296
  368MOL0     C49574   8.306   5.322  10.608  1.0123  0.3645 -0.2532
  368MOL0     C49575   8.178   5.282  10.567 -0.5994  0.4713  0.0937
  368MOL0     O49576   8.102   5.380  10.515 -0.5126  0.1562  0.1975
  368MOL0     C49577   7.965   5.394  10.543  0.3736 -0.1424 -0.6950
  368MOL0     C49578   7.906   5.513  10.592 -0.0291 -0.5582  0.3823
  368MOL0     C49579   7.766   5.510  10.615 -0.5166  0.1858  0.4815
  368MOL0     C49580   7.695   5.393  10.616  0.1307  0.0241  0.4421
  368MOL0     O49581   7.560   5.377  10.644 -0.0233  0.2101  0.2493
  368MOL0     C49582   7.476   5.485  10.612  0.2535 -0.0408  0.2310
  368MOL0     C49583   7.333   5.423  10.652 -0.6345 -0.3248  0.1515
  368MOL0     C49584   7.222   5.508  10.601 -0.5565 -0.7557 -0.6647
  368MOL0     C49585   7.088   5.460  10.662  0.6112 -0.0201  0.2396
  368MOL0     C49586   6.965   5.547  10.603 -0.1119  0.1608 -0.1319
  368MOL0     C49587   6.841   5.473  10.633 -0.1519 -0.0703 -0.5624
  368MOL0     C49588   6.718   5.571  10.653 -0.8228  0.0131 -0.1719
  368MOL0     C49589   6.648   5.587  10.526 -0.6895 -0.5943 -0.6274
  368MOL0    Cl49590   6.471   5.612  10.557  0.4084  0.2260 -0.3415
  368MOL0     C49591   7.749   5.275  10.569  0.1248  0.0528  0.1179
  368MOL0     C49592   7.883   5.285  10.529 -0.1983  0.0116  0.3261
  368MOL0     O49593   8.139   5.163  10.584 -0.2545  0.4992 -0.3898
  368MOL0     C49594   8.313   5.438  10.685  0.4863  0.0828 -0.1931
  368MOL0     C49595   8.434   5.490  10.735 -0.1549  0.4091  0.9067
  368MOL0     N49596   9.095   5.791  10.716 -1.0365  0.6564  0.3762
  368MOL0     N49597   9.158   5.894  10.767  0.1716 -0.0479 -0.3106
  368MOL0     C49598  10.342   6.195  10.351  0.6060 -0.0230  0.5520
  368MOL0     C49599  10.464   6.223  10.302 -0.1744 -0.2511 -0.2188
  368MOL0     C49600  10.920   6.201  10.292 -0.4963  0.2649  0.5881
  368MOL0     C49601  11.028   6.213  10.380 -0.0199  0.5028  0.0959
  368MOL0     C49602  11.155   6.241  10.332 -1.0198 -0.4685 -0.2997
  368MOL0     C49603  11.173   6.279  10.200  0.0051 -0.3013  0.3546
  368MOL0     O49604  11.291   6.331  10.149 -0.4478  0.0461  0.0797
  368MOL0     C49605  11.286   6.442  10.052  0.1219  0.6534 -0.0500
  368MOL0     C49606  11.359   6.580  10.086  0.2300  0.1803  0.5590
  368MOL0     C49607  11.510   6.550  10.070  0.1663  1.0662 -0.5725
  368MOL0     C49608  11.583   6.680  10.088 -0.0105  0.9926 -0.0880
  368MOL0     C49609  11.718   6.668  10.039  0.0940 -0.5753  0.8303
  368MOL0     C49610  11.834   6.654  10.009 -0.1465  0.2371  0.7924
  368MOL0     C49611  11.066   6.266  10.115  0.2332  0.1926  0.5433
  368MOL0     C49612  10.940   6.220  10.155 -0.0896 -0.9158 -0.3146
  368MOL0     H49613  10.632   5.922  10.373  3.2204  2.5165 -0.4890
  368MOL0     H49614  10.413   5.894  10.491  0.5125 -0.6139  0.2364
  368MOL0     H49615  10.050   6.186  10.457 -1.6262 -1.2067  2.1924
  368MOL0     H49616  10.073   6.073  10.327  2.0672 -0.1010 -0.3702
  368MOL0     H49617   9.918   5.937  10.404 -2.2542  2.4662  0.6280
  368MOL0     H49618  10.012   5.905  10.552  1.8935 -0.2553 -1.0804
  368MOL0     H49619   9.886   6.110  10.650 -0.0431 -0.8225 -0.3541
  368MOL0     H49620   9.796   6.123  10.499 -0.7764  1.0365  0.6897
  368MOL0     H49621   9.668   5.919  10.553  0.8064 -0.4704 -0.0789
  368MOL0     H49622   9.763   5.876  10.692 -2.7126  0.5333  1.7038
  368MOL0     H49623   9.724   6.050  10.823  0.9452 -0.6561  1.1425
  368MOL0     H49624   9.629   6.131  10.704  1.0819 -0.0478 -0.2458
  368MOL0     H49625   9.493   5.891  10.686 -0.0929 -2.7464  1.9778
  368MOL0     H49626   9.563   5.855  10.835  0.5043 -1.1721 -0.5054
  368MOL0     H49627   9.494   6.086  10.929 -1.9435  1.1236  1.2176
  368MOL0     H49628   9.406   6.110  10.794 -2.0333  1.0639  2.9244
  368MOL0     H49629   9.266   5.995  10.988  0.5943  0.5482  0.4323
  368MOL0     H49630   9.393   5.886  11.009 -1.5213  1.0937  1.9076
  368MOL0     H49631   9.326   5.635  10.896 -3.5106 -0.3162  2.6839
  368MOL0     H49632   9.094   5.515  10.635 -0.4679  0.7448  1.0639
  368MOL0     H49633   9.226   5.487  10.755 -0.4090 -0.5139  0.8444
  368MOL0     H49634   9.046   5.517  10.940 -0.3393 -0.4655 -0.6902
  368MOL0     H49635   9.030   5.378  10.836  0.0323  0.6223 -2.0253
  368MOL0     H49636   8.878   5.636  10.791 -0.4196  1.0330  2.7938
  368MOL0     H49637   8.838   5.527  10.921  1.9149 -0.8432  0.6418
  368MOL0     H49638   8.818   5.338  10.732  1.6510 -0.0598 -0.2992
  368MOL0     H49639   8.839   5.473  10.616 -3.2015 -1.3097 -1.3214
  368MOL0     H49640   8.639   5.245  10.601  0.5658 -0.3133  0.9073
  368MOL0     H49641   8.376   5.035  10.536  0.9581 -0.6704  1.1883
  368MOL0     H49642   8.363   5.148  10.400  3.9746 -1.7199 -2.3970
  368MOL0     H49643   8.509   5.074  10.448 -0.8284 -1.2927 -0.9017
  368MOL0     H49644   7.960   5.608  10.587  0.1332 -0.7147 -1.4555
  368MOL0     H49645   7.705   5.598  10.635 -1.6685 -0.4767 -0.0368
  368MOL0     H49646   7.503   5.570  10.676  1.3008 -2.5994  3.5123
  368MOL0     H49647   7.486   5.511  10.506 -0.4242  2.3992  0.6979
  368MOL0     H49648   7.326   5.318  10.621 -1.1539  0.6842 -3.5282
  368MOL0     H49649   7.322   5.423  10.761  1.0949  0.0737  0.3562
  368MOL0     H49650   7.204   5.500  10.494 -1.8375 -0.4945 -0.4853
  368MOL0     H49651   7.240   5.612  10.630  0.3822 -1.2805  0.7512
  368MOL0     H49652   7.071   5.353  10.646 -6.1120  0.7458 -0.9874
  368MOL0     H49653   7.085   5.487  10.768  1.3500 -1.0026  0.5161
  368MOL0     H49654   6.970   5.570  10.496  0.2981 -1.0683 -0.3849
  368MOL0     H49655   6.966   5.647  10.648 -1.5212  0.2503 -0.2439
  368MOL0     H49656   6.821   5.389  10.565 -1.0110 -0.9267  0.6949
  368MOL0     H49657   6.860   5.416  10.725  1.0824 -0.5349 -1.0769
  368MOL0     H49658   6.749   5.665  10.699 -0.0132 -0.5775  0.5050
  368MOL0     H49659   6.647   5.531  10.726  0.0348 -1.1120  0.0683
  368MOL0     H49660   6.658   5.493  10.472  0.1626 -1.6079  1.1853
  368MOL0     H49661   6.693   5.667  10.466 -0.1039 -1.4103 -1.3092
  368MOL0     H49662   7.687   5.187  10.564  0.3282 -0.1156  0.5274
  368MOL0     H49663   7.929   5.198  10.483  1.6451  2.0290 -1.9076
  368MOL0     H49664   8.217   5.470  10.722 -0.7968 -2.7909 -0.7806
  368MOL0     H49665   8.441   5.564  10.815 -0.1803  0.9448  0.4203
  368MOL0     H49666  10.261   6.267  10.346  3.2443  3.1190 -0.2595
  368MOL0     H49667  10.477   6.320  10.254 -0.9401 -2.1071 -4.7000
  368MOL0     H49668  11.028   6.187  10.485  2.4146  0.1677  0.0791
  368MOL0     H49669  11.241   6.251  10.398 -1.0920  2.2251 -0.5242
  368MOL0     H49670  11.316   6.397   9.957  0.7471 -2.1134  1.3418
  368MOL0     H49671  11.181   6.469  10.040 -0.1982 -0.1585  0.7504
  368MOL0     H49672  11.336   6.629  10.181  2.9038  0.0871  1.3406
  368MOL0     H49673  11.324   6.649  10.009  1.1516  1.4887  1.2806
  368MOL0     H49674  11.532   6.498   9.977  2.3070  0.5530  0.1531
  368MOL0     H49675  11.553   6.486  10.148  2.0691  3.3298  0.3759
  368MOL0     H49676  11.586   6.708  10.193 -1.8574 -1.0180  0.5591
  368MOL0     H49677  11.531   6.764  10.041 -0.1378  2.8986  3.2226
  368MOL0     H49678  11.935   6.637   9.977 -0.5561  0.6847 -0.8537
  368MOL0     H49679  11.084   6.271  10.008 -0.9167 -2.7206  0.1282
  368MOL0     H49680  10.852   6.207  10.094 -0.0770 -2.0304 -0.1083
  369MOL0     O49681   8.205   7.403   3.503 -0.1374  0.1209  0.3333
  369MOL0     C49682   8.189   7.303   3.428  0.1477 -0.2804 -0.5954
  369MOL0     O49683   8.287   7.249   3.344 -0.1140 -0.6300 -0.0479
  369MOL0     C49684   8.428   7.271   3.371  0.2232 -0.4517  1.1341
  369MOL0     C49685   8.505   7.248   3.262 -0.3969 -0.4182  0.1572
  369MOL0     C49686   8.646   7.265   3.266 -0.3031 -0.3089 -0.0260
  369MOL0     C49687   8.708   7.314   3.383 -0.6951  0.6513  0.3877
  369MOL0     O49688   8.836   7.350   3.368 -0.6960 -0.1594  0.2687
  369MOL0     C49689   8.884   7.410   3.490  0.3890 -0.5329 -0.0209
  369MOL0     C49690   9.019   7.472   3.468  0.4722 -1.1555 -0.5162
  369MOL0     C49691   9.101   7.511   3.591  0.1056  0.3510  0.0596
  369MOL0     C49692   9.166   7.386   3.664 -0.0810  0.3460 -0.4377
  369MOL0     C49693   9.265   7.423   3.776 -0.7871  0.4751  1.0442
  369MOL0     C49694   9.224   7.545   3.858 -0.1807 -0.0417 -0.6239
  369MOL0     C49695   9.299   7.573   3.991 -0.8274  0.6656 -0.4516
  369MOL0     C49696   9.315   7.713   4.044 -0.1913  0.9196  0.7221
  369MOL0     N49697   9.196   7.779   4.078  0.9498 -0.3857 -0.8416
  369MOL0     C49698   9.083   7.722   4.134  0.4822  0.7801 -0.4073
  369MOL0     C49699   8.987   7.812   4.146  0.1404 -0.0204  0.1628
  369MOL0     C49700   8.851   7.787   4.198 -0.0002 -0.0009 -0.4700
  369MOL0     C49701   8.737   7.851   4.112 -0.7122  0.1213 -0.0665
  369MOL0     C49702   8.596   7.831   4.164 -0.1294  0.4662 -0.2176
  369MOL0     C49703   8.567   7.688   4.172 -0.9009 -0.1039 -0.0417
  369MOL0     O49704   8.580   7.646   4.308  0.0123 -0.2161 -0.0691
  369MOL0     C49705   8.561   7.519   4.350  0.6165  0.0268  0.7509
  369MOL0     C49706   8.510   7.428   4.258 -0.2228  1.0378  1.0272
  369MOL0     C49707   8.490   7.292   4.292  0.1562  0.4405  0.0094
  369MOL0     C49708   8.424   7.207   4.190  0.6378 -0.5790  0.3351
  369MOL0     C49709   8.515   7.242   4.424 -0.6256  0.1071 -0.1721
  369MOL0     C49710   8.486   7.102   4.475 -1.2898  0.3375 -0.1444
  369MOL0     O49711   8.500   7.080   4.606 -0.0089 -0.2465 -1.0143
  369MOL0     C49712   8.438   6.965   4.656 -0.3136  0.9451 -0.5231
  369MOL0     C49713   8.308   6.968   4.716 -0.8819 -1.0151 -0.1683
  369MOL0     C49714   8.255   6.858   4.779 -0.7612 -0.4702 -1.0128
  369MOL0     C49715   8.321   6.728   4.767  0.0982  0.4243 -0.5425
  369MOL0     O49716   8.273   6.609   4.813  0.4077 -0.6619 -0.0850
  369MOL0     C49717   8.170   6.620   4.911  0.6217 -1.0117  0.2204
  369MOL0     C49718   8.151   6.479   4.968  0.1365  0.8221 -0.9305
  369MOL0     C49719   8.060   6.383   4.876 -0.9818 -0.2232 -0.4099
  369MOL0     C49720   7.910   6.395   4.922  0.0437  0.5343  0.6877
  369MOL0     C49721   7.825   6.295   4.847  0.5729 -0.4489  0.5513
  369MOL0     C49722   7.681   6.286   4.893 -0.3588  0.1041 -0.6821
  369MOL0     C49723   7.594   6.205   4.798 -0.6005  0.9366 -0.1076
  369MOL0     C49724   7.565   6.057   4.842  0.3113 -0.7328 -0.1392
  369MOL0    Cl49725   7.491   6.065   5.002 -0.1053  0.0067 -0.4054
  369MOL0     C49726   8.441   6.723   4.697 -0.1757  0.7471 -0.5423
  369MOL0     C49727   8.503   6.840   4.653 -0.5233 -0.5513 -0.2208
  369MOL0     O49728   8.455   7.016   4.392 -0.5419  0.2873 -0.2524
  369MOL0     C49729   8.579   7.335   4.513  0.1351 -0.2914  0.1425
  369MOL0     C49730   8.597   7.464   4.475  0.0016  0.2773 -0.9935
  369MOL0     N49731   9.043   7.928   4.106 -0.1611  0.1062  0.2453
  369MOL0     N49732   9.163   7.913   4.063 -0.0023  0.4324 -0.1831
  369MOL0     C49733   8.626   7.329   3.493  0.3929  0.4688  0.2700
  369MOL0     C49734   8.488   7.303   3.488 -0.6394 -1.1426 -0.4836
  369MOL0     C49735   8.059   7.234   3.427  0.4163 -1.1166  0.2220
  369MOL0     C49736   7.945   7.279   3.502  0.5957 -0.2021  0.4986
  369MOL0     C49737   7.822   7.205   3.502 -0.3271  0.6157 -0.2128
  369MOL0     C49738   7.811   7.086   3.440  0.3549  0.0902 -1.0259
  369MOL0     O49739   7.694   7.007   3.426  0.0017 -0.4099 -0.0783
  369MOL0     C49740   7.561   7.064   3.436 -0.3095 -0.1170 -0.0453
  369MOL0     C49741   7.469   6.948   3.417  0.2766  0.5962  1.1013
  369MOL0     C49742   7.489   6.836   3.529 -0.4118 -0.3978  0.6191
  369MOL0     C49743   7.413   6.705   3.483  0.8807  0.1448 -0.6644
  369MOL0     C49744   7.282   6.732   3.449  0.9868  0.3314  0.1570
  369MOL0     C49745   7.171   6.757   3.399 -0.1851 -0.1335 -0.2885
  369MOL0     C49746   7.925   7.045   3.370 -0.8868  0.2362 -0.6158
  369MOL0     C49747   8.044   7.117   3.360  0.5924  0.6371  0.1610
  369MOL0     H49748   8.458   7.215   3.170 -1.4145 -0.2311  0.5911
  369MOL0     H49749   8.709   7.257   3.178  1.9711 -0.7331  1.5455
  369MOL0     H49750   8.834   7.500   3.528  3.1933  1.0523  0.2038
  369MOL0     H49751   8.900   7.333   3.565  1.1245  0.8560  1.3026
  369MOL0     H49752   9.077   7.407   3.401 -2.0341 -4.6901  0.4564
  369MOL0     H49753   9.020   7.562   3.406  0.6784 -0.8841 -0.1156
  369MOL0     H49754   9.186   7.574   3.563  0.8707  0.4363  2.3854
  369MOL0     H49755   9.047   7.577   3.659 -1.7949  0.2087 -1.2417
  369MOL0     H49756   9.079   7.336   3.707 -0.4596  2.6483  1.6978
  369MOL0     H49757   9.204   7.305   3.600  0.0940 -1.6443  2.0346
  369MOL0     H49758   9.283   7.331   3.833  1.6321 -2.0885 -3.3785
  369MOL0     H49759   9.359   7.451   3.729 -0.9611  1.6155  1.3464
  369MOL0     H49760   9.245   7.630   3.792  0.1332  0.0067 -0.4614
  369MOL0     H49761   9.119   7.533   3.884  0.2372 -2.2148  0.2639
  369MOL0     H49762   9.258   7.516   4.075  1.4995  2.7208  2.3149
  369MOL0     H49763   9.396   7.525   3.980 -1.7825 -1.1211 -1.5355
  369MOL0     H49764   9.371   7.776   3.975  1.4047  0.2596  1.3573
  369MOL0     H49765   9.375   7.708   4.136  4.5712 -3.6011 -2.0329
  369MOL0     H49766   9.070   7.615   4.147  0.7863  0.5212 -2.0296
  369MOL0     H49767   8.839   7.680   4.217 -0.6673  0.2285  0.5056
  369MOL0     H49768   8.848   7.832   4.298 -4.0056 -1.3798  0.1938
  369MOL0     H49769   8.750   7.807   4.012  2.2200  0.6499 -0.0259
  369MOL0     H49770   8.763   7.957   4.113 -2.0006  0.4662 -1.1056
  369MOL0     H49771   8.522   7.867   4.091  0.5198 -0.2829 -1.2848
  369MOL0     H49772   8.584   7.887   4.257  3.2048  0.2435  0.4685
  369MOL0     H49773   8.628   7.631   4.101  0.6832  1.3474  0.0950
  369MOL0     H49774   8.467   7.669   4.132 -0.1619  0.0731 -2.0989
  369MOL0     H49775   8.462   7.453   4.164 -1.8705  0.6126  1.7081
  369MOL0     H49776   8.346   7.139   4.224 -1.5050 -0.4001 -3.5652
  369MOL0     H49777   8.370   7.264   4.114  1.9271  2.6381  1.6777
  369MOL0     H49778   8.504   7.142   4.152 -0.5486 -2.4301  0.8705
  369MOL0     H49779   8.257   7.064   4.718 -0.2346 -0.6226 -1.3440
  369MOL0     H49780   8.170   6.877   4.844  0.9448 -1.9873  1.8610
  369MOL0     H49781   8.209   6.677   4.996 -3.5692 -1.5838  2.8357
  369MOL0     H49782   8.088   6.678   4.867  1.0657 -2.6575 -3.0625
  369MOL0     H49783   8.251   6.436   4.976  0.3773  1.2797 -1.4274
  369MOL0     H49784   8.114   6.482   5.070  0.2371 -2.1837 -0.7093
  369MOL0     H49785   8.083   6.277   4.894  2.3607  0.0951 -2.1336
  369MOL0     H49786   8.084   6.402   4.772  2.3842  1.2689  0.5061
  369MOL0     H49787   7.919   6.369   5.028 -1.2108 -2.7231  0.1114
  369MOL0     H49788   7.861   6.491   4.905  1.9943  1.9244  2.3788
  369MOL0     H49789   7.875   6.197   4.856  1.7586  0.1460  0.6836
  369MOL0     H49790   7.824   6.324   4.741  0.4465 -1.0976  0.3665
  369MOL0     H49791   7.688   6.245   4.994 -1.0757  1.1380 -0.1980
  369MOL0     H49792   7.648   6.389   4.908  2.3200  1.2383 -1.9046
  369MOL0     H49793   7.636   6.198   4.697 -0.3235  2.5979 -0.1263
  369MOL0     H49794   7.492   6.243   4.799 -0.8086  0.5998 -2.5540
  369MOL0     H49795   7.659   6.007   4.865  0.5046  0.2051  1.2449
  369MOL0     H49796   7.495   6.012   4.771  0.0475  0.9234 -0.9781
  369MOL0     H49797   8.486   6.627   4.671  0.2272  0.7658  0.0823
  369MOL0     H49798   8.600   6.825   4.607 -0.7922 -2.5388 -0.2302
  369MOL0     H49799   8.602   7.301   4.614  0.3245  0.2035  0.2637
  369MOL0     H49800   8.640   7.527   4.553  1.0594 -0.4250 -0.9756
  369MOL0     H49801   8.668   7.359   3.588  3.2962  0.2366 -0.8294
  369MOL0     H49802   8.425   7.313   3.576 -1.8641  2.3886 -1.5901
  369MOL0     H49803   7.959   7.378   3.545 -1.3571  0.9041 -1.2330
  369MOL0     H49804   7.736   7.241   3.556 -0.8840 -2.3205  1.0760
  369MOL0     H49805   7.541   7.092   3.540 -0.9804 -0.1207 -0.1671
  369MOL0     H49806   7.534   7.145   3.366 -3.3853 -0.1127  0.9728
  369MOL0     H49807   7.489   6.913   3.316 -1.1585  0.2555  0.9074
  369MOL0     H49808   7.368   6.989   3.426 -0.3970 -1.0208  1.2885
  369MOL0     H49809   7.444   6.875   3.620 -1.4553  3.0232 -1.2130
  369MOL0     H49810   7.597   6.822   3.538  0.1304  3.4554  1.8495
  369MOL0     H49811   7.418   6.629   3.561  0.4966  1.3396  0.5769
  369MOL0     H49812   7.457   6.659   3.394 -0.4881  1.7926 -2.2816
  369MOL0     H49813   7.087   6.787   3.340 -0.4841  0.2241  0.3103
  369MOL0     H49814   7.919   6.943   3.334 -1.1647  0.4963 -1.3292
  369MOL0     H49815   8.125   7.075   3.302  1.8478 -2.0234  3.5010
  370MOL0     O49816   5.168   4.634   8.794 -0.5382 -0.3851 -0.2466
  370MOL0     C49817   5.167   4.675   8.682  0.5665 -0.3943  0.0908
  370MOL0     O49818   5.056   4.683   8.602  0.1423  0.0347 -0.7437
  370MOL0     C49819   4.931   4.658   8.661  0.3743 -0.0631 -0.3973
  370MOL0     C49820   4.841   4.763   8.641 -0.0299 -0.4677 -0.5480
  370MOL0     C49821   4.711   4.743   8.686 -0.0861 -0.6154 -0.1785
  370MOL0     C49822   4.672   4.627   8.768  0.2306 -0.8406 -0.4292
  370MOL0     O49823   4.550   4.621   8.822 -0.3449  0.2760  0.2087
  370MOL0     C49824   4.503   4.500   8.869 -0.1371  0.1028  1.1706
  370MOL0     C49825   4.353   4.507   8.899 -0.2807  0.4429  0.0203
  370MOL0     C49826   4.281   4.530   8.767  0.3004 -0.8302 -0.4980
  370MOL0     C49827   4.164   4.439   8.752  0.3623 -0.2697  0.8983
  370MOL0     C49828   4.080   4.474   8.622  0.3793 -0.2557 -0.0388
  370MOL0     C49829   3.982   4.354   8.578 -0.1334 -0.0079 -0.0692
  370MOL0     C49830   3.903   4.391   8.449 -0.0719 -0.4307 -1.2525
  370MOL0     C49831   3.760   4.391   8.483 -0.1310  0.0590 -0.9566
  370MOL0     N49832   3.701   4.254   8.497 -0.5768 -0.2688  0.4624
  370MOL0     C49833   3.699   4.174   8.613 -0.3159  0.3387 -0.4389
  370MOL0     C49834   3.657   4.048   8.576 -0.8671 -0.1476  0.1567
  370MOL0     C49835   3.625   3.935   8.674  0.0798 -0.0626 -0.0546
  370MOL0     C49836   3.476   3.889   8.660 -0.7950  0.6696 -0.2978
  370MOL0     C49837   3.370   4.000   8.675 -1.0930  0.2020  0.1122
  370MOL0     C49838   3.232   3.955   8.630 -0.0373  0.4213 -0.3804
  370MOL0     O49839   3.162   4.086   8.627  0.3755 -0.0636 -0.3248
  370MOL0     C49840   3.028   4.080   8.644 -0.4962 -0.4737 -0.9016
  370MOL0     C49841   2.972   4.183   8.723 -0.5716  0.4059  0.4347
  370MOL0     C49842   2.835   4.210   8.732  0.4653  0.5219  0.6346
  370MOL0     C49843   2.784   4.323   8.814  0.5740  0.0144  0.3267
  370MOL0     C49844   2.752   4.108   8.672 -0.5413  0.1578 -0.8339
  370MOL0     C49845   2.606   4.103   8.657  0.2267 -0.6736  0.0223
  370MOL0     O49846   2.547   3.997   8.598  0.1673 -0.1369  0.1088
  370MOL0     C49847   2.415   3.956   8.613  0.0196  0.3153  0.3137
  370MOL0     C49848   2.365   3.850   8.532  0.4962  0.0335  0.3206
  370MOL0     C49849   2.234   3.812   8.541  0.3804  1.0724  0.1829
  370MOL0     C49850   2.146   3.862   8.641 -0.1356 -0.1143  1.1277
  370MOL0     O49851   2.014   3.836   8.679 -0.1260 -0.1940 -0.1508
  370MOL0     C49852   1.939   3.778   8.571  0.5932  0.7006  0.3827
  370MOL0     C49853   1.788   3.816   8.580 -0.3827 -0.5728  0.2196
  370MOL0     C49854   1.736   3.798   8.725 -0.1153 -0.3678 -0.5335
  370MOL0     C49855   1.623   3.892   8.747  0.3562 -0.1524 -0.3643
  370MOL0     C49856   1.482   3.855   8.690  0.4667  0.4847  0.2218
  370MOL0     C49857   1.419   3.726   8.747 -0.4327 -1.0768 -0.3374
  370MOL0     C49858   1.298   3.681   8.674  0.6916  0.5855  0.7763
  370MOL0     C49859   1.239   3.546   8.720  0.4169 -0.2285  0.7824
  370MOL0    Cl49860   1.083   3.510   8.634 -0.5004 -0.1833  0.7287
  370MOL0     C49861   2.205   3.947   8.738  0.0730  0.3314  0.1527
  370MOL0     C49862   2.333   3.992   8.726 -0.1641 -0.3835  0.6144
  370MOL0     O49863   2.556   4.210   8.683 -0.2809 -0.3283 -0.5029
  370MOL0     C49864   2.815   3.990   8.612 -0.1773 -0.2947  0.5391
  370MOL0     C49865   2.950   3.983   8.584 -0.4954  0.5129 -0.6312
  370MOL0     N49866   3.637   4.054   8.430 -0.3509  0.4146 -0.2831
  370MOL0     N49867   3.653   4.182   8.393 -0.1408  0.4059 -0.0715
  370MOL0     C49868   4.762   4.524   8.782  0.0167  0.3189  0.0993
  370MOL0     C49869   4.891   4.538   8.726  0.3452 -0.1146 -0.5753
  370MOL0     C49870   5.294   4.719   8.622  0.2390 -0.5671 -0.1328
  370MOL0     C49871   5.314   4.722   8.485  0.4188 -0.2316  0.4766
  370MOL0     C49872   5.437   4.750   8.430  0.2535  0.3851  0.1748
  370MOL0     C49873   5.545   4.777   8.518  0.9787 -0.4479 -0.9854
  370MOL0     O49874   5.665   4.800   8.454 -0.1003  0.3193 -0.9508
  370MOL0     C49875   5.744   4.899   8.526 -0.1985  0.6224 -0.3219
  370MOL0     C49876   5.862   4.829   8.593  0.1201  0.0002 -0.3771
  370MOL0     C49877   5.964   4.792   8.486 -0.4654  0.8332  0.2726
  370MOL0     C49878   6.078   4.896   8.460 -0.1352 -0.0089  0.1279
  370MOL0     C49879   6.140   4.862   8.327  0.1538 -0.2944  0.9662
  370MOL0     C49880   6.195   4.825   8.218  0.1182  0.1559 -0.8974
  370MOL0     C49881   5.525   4.767   8.655  0.2364 -0.8848 -1.0213
  370MOL0     C49882   5.398   4.737   8.712 -0.6028  0.1673 -0.6695
  370MOL0     H49883   4.872   4.852   8.588  1.5472 -0.8970 -0.3800
  370MOL0     H49884   4.640   4.815   8.649  0.1180  0.2565  1.0729
  370MOL0     H49885   4.507   4.436   8.780 -2.4288  2.9013 -1.1603
  370MOL0     H49886   4.563   4.469   8.955  1.1605 -2.2815 -0.4759
  370MOL0     H49887   4.312   4.417   8.945  1.0053 -0.7684 -1.1001
  370MOL0     H49888   4.336   4.587   8.971  1.0065  0.0838  0.7644
  370MOL0     H49889   4.252   4.636   8.764 -1.3902 -1.2697 -0.4267
  370MOL0     H49890   4.342   4.514   8.678  0.0368  1.5157 -1.1673
  370MOL0     H49891   4.200   4.336   8.748  0.0923 -0.3185 -1.5041
  370MOL0     H49892   4.090   4.436   8.833  0.5266 -0.7288  1.0352
  370MOL0     H49893   4.010   4.555   8.641  3.3267  2.0961  1.7928
  370MOL0     H49894   4.147   4.502   8.541  0.9349 -1.1391  0.1008
  370MOL0     H49895   4.044   4.276   8.534 -0.2544 -1.6315  2.4455
  370MOL0     H49896   3.918   4.313   8.657 -0.6867 -2.1555 -1.5507
  370MOL0     H49897   3.941   4.490   8.423  1.2206 -0.3081  0.8143
  370MOL0     H49898   3.921   4.320   8.367  1.7551  0.1810 -1.4433
  370MOL0     H49899   3.703   4.445   8.407 -1.7992 -2.3464 -1.5456
  370MOL0     H49900   3.732   4.433   8.580  0.5958 -0.7749 -0.3736
  370MOL0     H49901   3.710   4.207   8.715  3.7292  1.9638 -1.2374
  370MOL0     H49902   3.698   3.856   8.657 -1.5896 -1.3845 -1.4273
  370MOL0     H49903   3.640   3.980   8.773 -2.0092 -1.4484  0.9603
  370MOL0     H49904   3.460   3.813   8.737  1.9065  0.9054  0.6189
  370MOL0     H49905   3.462   3.838   8.564  1.3039 -1.5980  0.4920
  370MOL0     H49906   3.398   4.076   8.602 -3.9340  2.5353  1.2445
  370MOL0     H49907   3.374   4.047   8.774  1.5018  0.4760 -0.0653
  370MOL0     H49908   3.201   3.872   8.695  0.8953  0.2617 -0.1263
  370MOL0     H49909   3.238   3.918   8.527  3.6930 -0.4099 -0.0035
  370MOL0     H49910   3.041   4.232   8.792 -1.3597 -2.6140  3.7173
  370MOL0     H49911   2.758   4.407   8.749 -0.9117 -1.0373 -0.5089
  370MOL0     H49912   2.705   4.301   8.886 -0.7371  1.1781 -0.7128
  370MOL0     H49913   2.857   4.365   8.884 -1.5309  0.6916  2.2216
  370MOL0     H49914   2.440   3.813   8.461  1.4978  0.0619  1.3327
  370MOL0     H49915   2.195   3.745   8.466  0.1256 -1.3582  2.3507
  370MOL0     H49916   1.973   3.821   8.476 -1.0687  1.9777  0.3114
  370MOL0     H49917   1.947   3.670   8.561  0.6732  0.5638  1.8084
  370MOL0     H49918   1.789   3.921   8.551  2.7144 -0.2436  1.1607
  370MOL0     H49919   1.733   3.750   8.512 -0.1121 -0.0720 -0.5030
  370MOL0     H49920   1.811   3.827   8.798  0.6516 -0.2856 -1.3457
  370MOL0     H49921   1.701   3.698   8.753 -1.9601 -0.1715 -1.9397
  370MOL0     H49922   1.613   3.906   8.855 -0.2960 -1.1768 -0.2847
  370MOL0     H49923   1.644   3.991   8.706  1.0510 -1.1864 -2.6554
  370MOL0     H49924   1.506   3.848   8.584 -0.3316  4.4294 -0.3624
  370MOL0     H49925   1.408   3.935   8.705 -0.6552 -0.6729  1.0840
  370MOL0     H49926   1.502   3.654   8.741  2.3311  1.4883  2.9392
  370MOL0     H49927   1.393   3.735   8.853  0.3791 -0.1724 -0.2015
  370MOL0     H49928   1.324   3.664   8.569  0.3105  0.0202  0.7728
  370MOL0     H49929   1.234   3.770   8.666 -0.3505 -0.2047  0.1267
  370MOL0     H49930   1.223   3.544   8.829  0.5404  1.1038  0.8409
  370MOL0     H49931   1.319   3.472   8.712  0.6914  0.3074 -3.0848
  370MOL0     H49932   2.139   3.975   8.819 -0.8933 -0.0061 -0.5107
  370MOL0     H49933   2.372   4.060   8.802  0.7664 -0.1201 -0.0738
  370MOL0     H49934   2.756   3.907   8.573  0.1731 -0.0281 -0.6139
  370MOL0     H49935   2.976   3.897   8.525  1.0153  1.1967 -1.0157
  370MOL0     H49936   4.726   4.437   8.835 -1.1406 -0.1611 -1.4091
  370MOL0     H49937   4.960   4.456   8.744 -3.5731 -3.0689  2.7413
  370MOL0     H49938   5.225   4.716   8.423  0.8520 -1.3115 -0.0581
  370MOL0     H49939   5.454   4.765   8.324  0.9708  0.8479  0.3503
  370MOL0     H49940   5.768   4.976   8.452  0.9003  0.8521  0.2539
  370MOL0     H49941   5.689   4.955   8.603  0.6122  1.7016 -0.5066
  370MOL0     H49942   5.830   4.744   8.654  2.0135 -1.2876 -1.0958
  370MOL0     H49943   5.915   4.890   8.668  0.6540 -2.3318  1.2652
  370MOL0     H49944   5.913   4.761   8.394  0.2913 -0.7672  0.3545
  370MOL0     H49945   6.006   4.699   8.527 -1.0880  0.2051 -0.4820
  370MOL0     H49946   6.158   4.890   8.534 -0.5542 -0.8139  0.5316
  370MOL0     H49947   6.036   4.998   8.460  0.8150  0.3993 -0.8668
  370MOL0     H49948   6.231   4.788   8.124  2.4241  1.0791 -0.4501
  370MOL0     H49949   5.607   4.781   8.725  0.0286 -3.1959 -0.2564
  370MOL0     H49950   5.386   4.723   8.819  0.6686  0.2703 -0.4992
  371MOL0     O49951   8.117   1.722   9.421  0.1984  0.1558 -0.8067
  371MOL0     C49952   8.176   1.688   9.323 -0.0927  0.6824  0.0386
  371MOL0     O49953   8.126   1.690   9.197  0.7435  0.1176 -0.2053
  371MOL0     C49954   8.004   1.751   9.184 -0.5914  0.3127  0.2338
  371MOL0     C49955   7.886   1.684   9.216 -0.3018 -0.4850  0.1045
  371MOL0     C49956   7.761   1.760   9.214 -0.1005  0.2790 -0.0413
  371MOL0     C49957   7.757   1.889   9.178  0.8608  0.0424  0.5193
  371MOL0     O49958   7.637   1.954   9.153 -0.5514 -0.4160  0.9335
  371MOL0     C49959   7.563   2.018   9.262 -0.2927  0.2977 -0.2070
  371MOL0     C49960   7.412   2.050   9.218 -0.0173 -0.9021  0.4702
  371MOL0     C49961   7.323   2.081   9.338 -0.3203  0.2169  0.2134
  371MOL0     C49962   7.192   2.148   9.303 -0.0392 -0.1340 -0.3005
  371MOL0     C49963   7.090   2.061   9.239  0.6613 -0.1411  0.2758
  371MOL0     C49964   6.964   2.151   9.195  0.6922  0.5237 -0.3383
  371MOL0     C49965   6.846   2.058   9.140  0.1924  0.1079 -0.4768
  371MOL0     C49966   6.763   1.999   9.257 -0.5234  1.4528 -0.1998
  371MOL0     N49967   6.641   1.939   9.200  0.1455  0.2878  0.3609
  371MOL0     C49968   6.609   1.809   9.146 -0.5376 -0.3609  0.4760
  371MOL0     C49969   6.488   1.823   9.077 -0.7005  0.4343 -0.7008
  371MOL0     C49970   6.425   1.717   8.992  0.0643 -0.0517 -0.6203
  371MOL0     C49971   6.301   1.658   9.044  0.9446  0.3121 -0.0831
  371MOL0     C49972   6.200   1.774   9.065  0.5267  0.1276 -0.7736
  371MOL0     C49973   6.059   1.721   9.073  0.0553  0.4486  0.0091
  371MOL0     O49974   5.976   1.839   9.094  0.6160 -0.1173 -0.0860
  371MOL0     C49975   5.843   1.826   9.079  0.4574  0.8641  0.2096
  371MOL0     C49976   5.769   1.939   9.087  0.1500  0.4757  0.1948
  371MOL0     C49977   5.629   1.937   9.086 -0.0688 -0.8696  1.7788
  371MOL0     C49978   5.565   2.070   9.098 -0.3830  0.0430 -0.2245
  371MOL0     C49979   5.564   1.814   9.066 -0.4565 -0.7155  0.4854
  371MOL0     C49980   5.419   1.793   9.076  1.0782 -0.6152  0.1116
  371MOL0     O49981   5.336   1.904   9.088 -0.1245 -0.0378  0.0974
  371MOL0     C49982   5.203   1.891   9.059 -0.0112 -0.5615 -0.7586
  371MOL0     C49983   5.111   1.816   9.127 -0.2655 -0.8818  0.0258
  371MOL0     C49984   4.982   1.797   9.081 -0.1317 -0.3914 -1.0664
  371MOL0     C49985   4.944   1.865   8.967  0.5132  0.2209 -0.1644
  371MOL0     O49986   4.817   1.838   8.924 -0.4574  0.1186  0.1654
  371MOL0     C49987   4.746   1.964   8.886  0.3124 -0.2917 -0.2041
  371MOL0     C49988   4.603   1.924   8.867  0.3740 -0.1534  0.6460
  371MOL0     C49989   4.532   1.869   8.987 -0.5349 -0.0786  0.1480
  371MOL0     C49990   4.391   1.835   8.940 -0.1476 -0.0517 -0.4667
  371MOL0     C49991   4.289   1.835   9.051 -0.5988  0.0662  0.3082
  371MOL0     C49992   4.319   1.727   9.165  0.8521 -0.7579 -0.1032
  371MOL0     C49993   4.210   1.720   9.275  0.2200 -0.1630 -0.4685
  371MOL0     C49994   4.081   1.649   9.236 -0.1055  0.0210  0.5845
  371MOL0    Cl49995   4.110   1.477   9.225  0.0275  0.0668 -0.1578
  371MOL0     C49996   5.035   1.948   8.894 -0.1206 -0.0532 -0.9837
  371MOL0     C49997   5.167   1.958   8.944  0.1665 -0.4761  0.1599
  371MOL0     O49998   5.381   1.676   9.079  0.3288 -0.0128 -0.6641
  371MOL0     C49999   5.641   1.702   9.045  0.1109 -0.3056 -0.4589
  371MOL0     C50000   5.774   1.707   9.046 -0.1906  0.3026 -0.1061
  371MOL0     N50001   6.446   1.956   9.108  0.3664  0.9105  0.2529
  371MOL0     N50002   6.536   2.016   9.168  0.0265 -0.4605 -0.0349
  371MOL0     C50003   7.875   1.953   9.139  0.1937 -0.8145  0.5960
  371MOL0     C50004   7.997   1.882   9.147  0.1470 -0.6131  0.8518
  371MOL0     C50005   8.315   1.639   9.341 -0.9574 -0.1479 -0.5484
  371MOL0     C50006   8.366   1.614   9.474 -0.2479 -0.2257 -0.1436
  371MOL0     C50007   8.501   1.569   9.487 -0.3417 -0.3160 -0.1429
  371MOL0     C50008   8.582   1.559   9.372 -0.1114  0.8044  0.2731
  371MOL0     O50009   8.713   1.537   9.402  0.0446  0.3552 -0.7579
  371MOL0     C50010   8.806   1.616   9.328 -0.2520  0.0064 -0.9432
  371MOL0     C50011   8.913   1.671   9.421 -0.3600  0.3521  0.4875
  371MOL0     C50012   8.986   1.559   9.508 -0.1165 -0.2673 -0.4714
  371MOL0     C50013   9.122   1.596   9.569 -1.6720 -0.1480  0.3698
  371MOL0     C50014   9.224   1.601   9.459 -0.1213  0.5928 -0.5194
  371MOL0     C50015   9.315   1.580   9.383  0.1011 -0.5489  0.0582
  371MOL0     C50016   8.535   1.581   9.243 -0.3298  0.1532 -0.4853
  371MOL0     C50017   8.395   1.615   9.232  0.7656 -0.0375 -1.3403
  371MOL0     H50018   7.885   1.580   9.248 -3.3993  0.0236  2.0027
  371MOL0     H50019   7.665   1.714   9.236 -0.6318  1.3957  0.0183
  371MOL0     H50020   7.559   1.951   9.349 -1.3744 -0.4239 -0.7822
  371MOL0     H50021   7.615   2.112   9.282 -2.8763  1.1074  4.0431
  371MOL0     H50022   7.428   2.140   9.157 -0.9733  0.0480  1.5667
  371MOL0     H50023   7.372   1.974   9.150 -1.2279  1.5186 -1.7097
  371MOL0     H50024   7.300   1.985   9.385  0.0494  0.2944  0.5586
  371MOL0     H50025   7.377   2.146   9.408 -0.9332  0.0504  0.8611
  371MOL0     H50026   7.147   2.195   9.391  2.3611  1.3820  0.2047
  371MOL0     H50027   7.220   2.228   9.234  2.6654 -0.9703 -0.2680
  371MOL0     H50028   7.135   2.012   9.153  3.0396  0.6847  0.9681
  371MOL0     H50029   7.062   1.985   9.313 -0.8535  0.8665  0.7929
  371MOL0     H50030   6.926   2.198   9.286  0.5987  1.6578 -0.9532
  371MOL0     H50031   6.987   2.226   9.119 -0.4992 -1.0590 -2.4035
  371MOL0     H50032   6.772   2.115   9.082 -0.3778 -0.3961 -0.2558
  371MOL0     H50033   6.876   1.975   9.076  2.1232  1.8049 -1.9180
  371MOL0     H50034   6.733   2.080   9.324 -1.8018  2.7030 -2.1801
  371MOL0     H50035   6.822   1.929   9.316 -0.1921  3.1524  1.5809
  371MOL0     H50036   6.679   1.726   9.153  1.2995  1.0852  0.0513
  371MOL0     H50037   6.408   1.754   8.891  1.2356  0.9862 -0.4763
  371MOL0     H50038   6.499   1.636   8.988  1.5115  1.1633  0.1843
  371MOL0     H50039   6.310   1.603   9.139 -1.9615 -0.9315 -0.4065
  371MOL0     H50040   6.259   1.588   8.971  0.0159  2.0534 -1.2987
  371MOL0     H50041   6.209   1.841   8.979 -3.7347  2.7846  0.5536
  371MOL0     H50042   6.234   1.829   9.153  0.4786 -1.1342  0.0655
  371MOL0     H50043   6.046   1.659   9.162  1.2437  1.2597  0.7785
  371MOL0     H50044   6.046   1.661   8.983 -0.5877  1.9545 -0.9534
  371MOL0     H50045   5.816   2.035   9.105  0.2102  0.6821 -0.9563
  371MOL0     H50046   5.496   2.064   9.183 -1.4995  1.0382 -1.0107
  371MOL0     H50047   5.640   2.146   9.123 -0.2734 -0.0580 -0.2497
  371MOL0     H50048   5.509   2.091   9.006 -2.3056 -1.2312  0.5958
  371MOL0     H50049   5.133   1.756   9.214 -2.0005 -2.8104 -0.7716
  371MOL0     H50050   4.917   1.731   9.139  0.7096  1.3916  2.1425
  371MOL0     H50051   4.756   2.049   8.953  3.6295  0.7003 -1.7233
  371MOL0     H50052   4.789   2.007   8.794 -2.7641  1.9202 -0.7815
  371MOL0     H50053   4.544   2.012   8.839  1.0319  0.1318  0.1392
  371MOL0     H50054   4.597   1.859   8.780  1.6008  1.2463 -0.5516
  371MOL0     H50055   4.535   1.927   9.080 -3.5062 -0.8768  0.8225
  371MOL0     H50056   4.574   1.773   9.020 -1.0594 -0.5510 -0.5455
  371MOL0     H50057   4.356   1.907   8.866 -0.7491  0.3752  0.2204
  371MOL0     H50058   4.396   1.737   8.890  0.6401 -0.7488  0.8999
  371MOL0     H50059   4.191   1.809   9.011 -0.9224 -1.2895  1.8495
  371MOL0     H50060   4.278   1.935   9.093 -0.5627  0.0583  0.3365
  371MOL0     H50061   4.336   1.628   9.122  0.2953 -0.8109 -0.2006
  371MOL0     H50062   4.400   1.761   9.231  0.1566  1.2468 -0.2011
  371MOL0     H50063   4.186   1.823   9.304  0.7544  0.1570 -1.1414
  371MOL0     H50064   4.253   1.660   9.356  0.1415 -0.6167 -0.7626
  371MOL0     H50065   4.048   1.683   9.137  0.8853  2.2218  0.9757
  371MOL0     H50066   3.995   1.678   9.298  0.4787  1.6545  0.6571
  371MOL0     H50067   5.011   2.001   8.803  0.9393  0.2635 -1.0989
  371MOL0     H50068   5.247   2.019   8.903  0.5083 -0.5602  0.6764
  371MOL0     H50069   5.591   1.605   9.046 -1.3720  0.4064  2.2249
  371MOL0     H50070   5.836   1.619   9.036 -0.5142  0.2812 -2.3137
  371MOL0     H50071   7.869   2.056   9.105 -0.5090 -0.8670  0.5376
  371MOL0     H50072   8.087   1.938   9.123 -1.3078  1.9815  1.0223
  371MOL0     H50073   8.291   1.623   9.552  0.1340  1.1978  0.0940
  371MOL0     H50074   8.535   1.552   9.588  0.5034 -1.8469 -0.6567
  371MOL0     H50075   8.851   1.549   9.255 -1.9618 -0.9616 -1.1664
  371MOL0     H50076   8.754   1.697   9.276 -1.1438 -0.9204 -1.5414
  371MOL0     H50077   8.875   1.736   9.500 -0.4362 -1.6950  2.2224
  371MOL0     H50078   8.988   1.734   9.372  1.1999 -0.8565  1.2319
  371MOL0     H50079   9.012   1.474   9.446  0.0040 -0.2112 -0.4976
  371MOL0     H50080   8.924   1.528   9.593  1.0398 -2.9787 -0.5419
  371MOL0     H50081   9.149   1.520   9.644 -1.3765 -0.2717  0.1394
  371MOL0     H50082   9.122   1.689   9.626  4.1802  0.0026  0.6537
  371MOL0     H50083   9.394   1.561   9.313  0.5174 -1.3511  0.7280
  371MOL0     H50084   8.596   1.546   9.160  0.6639 -0.6035  0.5284
  371MOL0     H50085   8.329   1.605   9.146 -1.9698 -0.0839  0.6392
  372MOL0     O50086   5.762   8.056  10.730  0.0988 -0.7546 -0.9274
  372MOL0     C50087   5.835   8.111  10.650 -0.5503  0.3229  0.5715
  372MOL0     O50088   5.816   8.237  10.592  0.0530 -0.1279  0.3348
  372MOL0     C50089   5.695   8.304  10.593  0.2251  0.1225 -0.0725
  372MOL0     C50090   5.571   8.235  10.570 -0.8011  0.6689  0.3160
  372MOL0     C50091   5.452   8.313  10.549  0.2299 -0.0824 -0.5157
  372MOL0     C50092   5.455   8.458  10.566  0.1547  1.1482  0.6593
  372MOL0     O50093   5.345   8.543  10.562 -0.1112  1.0763  0.4559
  372MOL0     C50094   5.213   8.487  10.581  1.0357  0.2059 -0.0449
  372MOL0     C50095   5.125   8.602  10.649 -0.1058  0.5940  0.6101
  372MOL0     C50096   5.128   8.730  10.581  0.1483 -0.6044 -0.1162
  372MOL0     C50097   5.059   8.843  10.661 -0.3200 -0.0843  0.3162
  372MOL0     C50098   5.067   8.978  10.585 -0.7697 -0.7835 -0.3622
  372MOL0     C50099   4.960   9.072  10.629  0.4304  0.1312 -0.7727
  372MOL0     C50100   4.975   9.200  10.554 -1.0908  0.0501  1.2053
  372MOL0     C50101   4.888   9.318  10.590 -0.6010  0.5641  0.4272
  372MOL0     N50102   4.746   9.282  10.585 -0.6693 -0.3330 -0.0637
  372MOL0     C50103   4.685   9.211  10.487 -0.0065 -0.1406 -0.1857
  372MOL0     C50104   4.566   9.185  10.544  0.5346 -0.1815  0.4138
  372MOL0     C50105   4.460   9.109  10.482  1.0433 -0.5585 -1.1781
  372MOL0     C50106   4.334   9.196  10.476 -0.0778 -0.6571  0.1598
  372MOL0     C50107   4.364   9.314  10.376 -0.0482 -0.4020 -0.1485
  372MOL0     C50108   4.235   9.389  10.325  0.2844 -0.4052 -0.6221
  372MOL0     O50109   4.151   9.296  10.267 -0.1163  0.4475 -0.0407
  372MOL0     C50110   4.028   9.337  10.225  0.3282 -0.3804 -0.6812
  372MOL0     C50111   3.988   9.309  10.091 -1.1633  0.0307 -0.0031
  372MOL0     C50112   3.867   9.358  10.041  0.3992 -0.6297 -0.0513
  372MOL0     C50113   3.844   9.363   9.888  0.4554  0.1434  0.8382
  372MOL0     C50114   3.768   9.408  10.134  0.1346  0.0386 -0.4875
  372MOL0     C50115   3.632   9.467  10.096  0.3226  0.6706 -0.5410
  372MOL0     O50116   3.569   9.428   9.978  0.1936 -0.1550 -0.1066
  372MOL0     C50117   3.432   9.446   9.972  0.4546 -0.6151  0.4761
  372MOL0     C50118   3.381   9.538   9.873  0.1055  0.3265  0.3894
  372MOL0     C50119   3.239   9.562   9.863  0.6729 -0.1760 -0.0649
  372MOL0     C50120   3.151   9.501   9.956 -0.2912 -0.2650 -0.2340
  372MOL0     O50121   3.014   9.526   9.950 -0.4406 -0.0940  0.1664
  372MOL0     C50122   2.947   9.571   9.832  0.2066  1.1169  0.0166
  372MOL0     C50123   2.801   9.577   9.885  0.6974  0.2501  1.0811
  372MOL0     C50124   2.740   9.446   9.937  0.5624  0.4054 -0.3413
  372MOL0     C50125   2.584   9.452   9.938 -0.0660 -0.8296 -0.2626
  372MOL0     C50126   2.521   9.343  10.010  0.6381  0.1237  0.3457
  372MOL0     C50127   2.374   9.336   9.990  1.1463  0.2657  0.2667
  372MOL0     C50128   2.299   9.235  10.084  0.2654  0.0287  0.3420
  372MOL0     C50129   2.164   9.183  10.024  0.7711 -0.4100 -0.6675
  372MOL0    Cl50130   2.183   9.046   9.910 -0.2194  0.1164 -0.3367
  372MOL0     C50131   3.200   9.418  10.051  0.4392  0.2426 -0.0915
  372MOL0     C50132   3.336   9.383  10.056  0.0568 -0.8214  0.5975
  372MOL0     O50133   3.582   9.541  10.184 -0.3099 -0.1827  0.4510
  372MOL0     C50134   3.811   9.431  10.268 -0.1811 -0.8797  0.2762
  372MOL0     C50135   3.935   9.395  10.315 -0.2336  0.6558  0.0214
  372MOL0     N50136   4.554   9.239  10.669 -0.3003 -0.4390  0.8649
  372MOL0     N50137   4.672   9.292  10.694 -0.4403 -1.0030 -0.0420
  372MOL0     C50138   5.575   8.511  10.606 -0.0248  0.1575  0.3696
  372MOL0     C50139   5.694   8.443  10.611 -0.8490  0.3845 -0.7054
  372MOL0     C50140   5.967   8.049  10.629  0.1428 -0.2735 -0.2860
  372MOL0     C50141   6.047   8.102  10.527 -0.0088  0.6092  0.1657
  372MOL0     C50142   6.178   8.057  10.523  0.2922  0.0281 -0.3146
  372MOL0     C50143   6.223   7.958  10.610  0.5769  0.6708  1.0357
  372MOL0     O50144   6.353   7.914  10.621 -0.5565 -0.7640 -0.2343
  372MOL0     C50145   6.448   8.013  10.583 -0.1440 -0.4162  0.4624
  372MOL0     C50146   6.570   7.985  10.652  0.2309  0.8565 -0.4608
  372MOL0     C50147   6.681   8.092  10.637  0.2154  0.7448  0.0358
  372MOL0     C50148   6.789   8.080  10.743  0.8366  0.1705 -0.0793
  372MOL0     C50149   6.912   8.130  10.687  0.6684 -0.5710  0.1306
  372MOL0     C50150   7.024   8.154  10.653 -0.3188 -0.4491  1.1478
  372MOL0     C50151   6.133   7.903  10.698  0.9571  0.3132  0.0729
  372MOL0     C50152   6.006   7.949  10.707  0.3927  0.5459  0.8006
  372MOL0     H50153   5.572   8.127  10.562 -1.7694  0.7361 -1.2675
  372MOL0     H50154   5.362   8.265  10.512  1.8585 -3.8555 -0.0588
  372MOL0     H50155   5.166   8.463  10.485  1.6599 -0.4222 -0.2071
  372MOL0     H50156   5.199   8.402  10.648  0.6978  1.8861  2.1113
  372MOL0     H50157   5.018   8.580  10.650 -0.6570  2.7950  3.6596
  372MOL0     H50158   5.162   8.607  10.752  1.6304 -0.3636  0.0776
  372MOL0     H50159   5.229   8.765  10.559 -0.8816  2.6737 -0.2938
  372MOL0     H50160   5.085   8.716  10.481  1.3602 -2.0189 -0.4714
  372MOL0     H50161   4.952   8.824  10.676  0.0091 -2.8745 -0.3527
  372MOL0     H50162   5.095   8.849  10.764 -3.1080  0.8201  1.3601
  372MOL0     H50163   5.166   9.020  10.602 -1.0726  0.0958 -0.7384
  372MOL0     H50164   5.059   8.976  10.476  1.0031  1.5175 -0.5997
  372MOL0     H50165   4.864   9.023  10.610  0.2136  0.5064 -0.6549
  372MOL0     H50166   4.970   9.091  10.736  1.3218 -2.9695 -0.2270
  372MOL0     H50167   5.081   9.222  10.569 -0.1669 -3.4350  0.6418
  372MOL0     H50168   4.963   9.189  10.446  1.1471  2.8483  0.5588
  372MOL0     H50169   4.903   9.394  10.513  0.9114  0.7509  0.8831
  372MOL0     H50170   4.917   9.358  10.688  0.8839 -3.4045  1.8296
  372MOL0     H50171   4.743   9.180  10.400  2.5401  1.4968  0.7855
  372MOL0     H50172   4.488   9.071  10.383 -0.1187 -0.6628 -1.4790
  372MOL0     H50173   4.442   9.025  10.550  2.7560  0.2185  0.3364
  372MOL0     H50174   4.307   9.244  10.571 -2.4050  0.4089 -0.9662
  372MOL0     H50175   4.249   9.132  10.452 -2.6656  0.9966  3.8555
  372MOL0     H50176   4.419   9.272  10.292  0.4411 -2.8771  1.3026
  372MOL0     H50177   4.442   9.376  10.422  4.3557 -3.8689 -2.2577
  372MOL0     H50178   4.263   9.458  10.244  0.6503  2.0055  1.4322
  372MOL0     H50179   4.185   9.446  10.404  2.4492  1.0840 -0.2434
  372MOL0     H50180   4.051   9.260  10.017 -1.0317 -2.9991  1.9183
  372MOL0     H50181   3.747   9.318   9.865  0.1613  0.9809  0.4076
  372MOL0     H50182   3.834   9.469   9.866 -1.5811  0.1885  1.7379
  372MOL0     H50183   3.921   9.315   9.827 -0.5624  0.3772 -0.6714
  372MOL0     H50184   3.452   9.575   9.799  1.7343  0.0334  1.7595
  372MOL0     H50185   3.199   9.627   9.785  0.6874  0.0497  0.1136
  372MOL0     H50186   2.968   9.670   9.790  0.1812  0.3532 -1.8910
  372MOL0     H50187   2.962   9.488   9.763  2.2741 -0.0307  1.7355
  372MOL0     H50188   2.816   9.648   9.967  3.2392  1.3392 -0.2143
  372MOL0     H50189   2.736   9.612   9.803  3.1575 -0.5435 -1.3544
  372MOL0     H50190   2.770   9.428  10.041  2.0613 -1.4734 -1.0393
  372MOL0     H50191   2.776   9.361   9.879  0.9425  0.8280 -0.7272
  372MOL0     H50192   2.550   9.551   9.970  0.3846  0.1121 -2.4940
  372MOL0     H50193   2.554   9.456   9.833 -1.7346  1.2288  0.2215
  372MOL0     H50194   2.538   9.345  10.118  3.4725 -2.3712  0.0962
  372MOL0     H50195   2.554   9.245   9.973 -2.1136 -0.8723  0.2560
  372MOL0     H50196   2.327   9.434  10.004 -0.4828 -0.3731 -0.4505
  372MOL0     H50197   2.364   9.307   9.885 -1.4377  2.2320 -0.1420
  372MOL0     H50198   2.281   9.280  10.182  0.0172  0.1538  0.2383
  372MOL0     H50199   2.361   9.147  10.101 -0.9073 -1.2241 -1.5787
  372MOL0     H50200   2.096   9.259   9.985 -1.6355 -1.8796  0.4629
  372MOL0     H50201   2.110   9.148  10.112  0.4081  0.0858 -0.6949
  372MOL0     H50202   3.131   9.365  10.116  0.0844 -0.2144 -0.8307
  372MOL0     H50203   3.382   9.319  10.130  1.1836  0.7381  1.2927
  372MOL0     H50204   3.741   9.476  10.338 -0.2164  1.5691 -1.1965
  372MOL0     H50205   3.967   9.409  10.418  0.7671 -0.8792 -0.0543
  372MOL0     H50206   5.578   8.619  10.610  2.5795  0.1236  0.9882
  372MOL0     H50207   5.783   8.483  10.658 -1.1368 -0.5069  0.6603
  372MOL0     H50208   6.015   8.175  10.454  0.3770  1.1756  0.5628
  372MOL0     H50209   6.245   8.098  10.448 -0.0043 -2.4060 -2.0301
  372MOL0     H50210   6.458   8.014  10.474 -2.9752 -0.6349  0.1235
  372MOL0     H50211   6.406   8.113  10.599 -2.1641 -0.7213 -2.1806
  372MOL0     H50212   6.610   7.887  10.623 -0.9659  0.8079 -2.1033
  372MOL0     H50213   6.546   7.986  10.758  1.2924 -2.0334 -0.0858
  372MOL0     H50214   6.641   8.193  10.646 -1.7993 -0.0599  0.6200
  372MOL0     H50215   6.718   8.086  10.534 -2.8295 -0.4366 -1.1038
  372MOL0     H50216   6.804   7.979  10.782  0.6081  0.7781  1.6845
  372MOL0     H50217   6.769   8.148  10.826  4.8778  0.7521  0.6634
  372MOL0     H50218   7.125   8.163  10.620 -0.6558 -1.8316 -0.4189
  372MOL0     H50219   6.165   7.823  10.764 -0.5694 -1.4664 -1.2163
  372MOL0     H50220   5.940   7.921  10.788 -1.6611  2.3402 -0.1529
  373MOL0     O50221   4.421   5.032   0.727 -0.2796  0.2521 -0.6713
  373MOL0     C50222   4.465   4.937   0.802  0.5253  0.0631  0.7478
  373MOL0     O50223   4.397   4.831   0.852  0.0944  0.7340  0.2851
  373MOL0     C50224   4.268   4.817   0.798  0.5207  0.5709  0.7937
  373MOL0     C50225   4.157   4.841   0.875  0.5135  0.1210 -0.1036
  373MOL0     C50226   4.026   4.812   0.820  0.0856  0.5654 -0.2746
  373MOL0     C50227   4.016   4.760   0.685  0.4835  0.1104 -0.0090
  373MOL0     O50228   3.894   4.736   0.632 -0.3450 -0.1906  0.2410
  373MOL0     C50229   3.877   4.775   0.498  0.1429  0.1757 -0.2339
  373MOL0     C50230   3.727   4.785   0.498  0.3609  0.2563  0.2927
  373MOL0     C50231   3.676   4.862   0.373  0.2481 -0.4199 -0.1178
  373MOL0     C50232   3.730   5.003   0.347  0.3406 -0.7218  0.0163
  373MOL0     C50233   3.678   5.066   0.220  0.2188  0.2224  1.0723
  373MOL0     C50234   3.525   5.107   0.228  0.0539 -0.1119  0.2504
  373MOL0     C50235   3.470   5.201   0.120 -0.0073  0.1143  0.1297
  373MOL0     C50236   3.536   5.346   0.123  0.0565  0.3590  0.2960
  373MOL0     N50237   3.477   5.441   0.023 -0.0478  0.0192  0.4235
  373MOL0     C50238   3.443   5.416  -0.107 -0.1755 -0.1576 -0.8270
  373MOL0     C50239   3.375   5.524  -0.149 -0.0340 -0.0683  0.4683
  373MOL0     C50240   3.318   5.553  -0.279  0.2978  0.5629  0.5172
  373MOL0     C50241   3.212   5.465  -0.327  0.4774  0.5170  0.7454
  373MOL0     C50242   3.087   5.489  -0.246  0.3662 -0.4207 -0.4646
  373MOL0     C50243   2.987   5.386  -0.295  0.4520 -0.5338 -0.4065
  373MOL0     O50244   2.868   5.405  -0.214 -0.4445 -0.5575 -0.3110
  373MOL0     C50245   2.755   5.337  -0.255  0.3493  0.3149  1.5795
  373MOL0     C50246   2.755   5.220  -0.323 -0.2084  0.3232  0.4960
  373MOL0     C50247   2.634   5.160  -0.370 -0.3228  0.5726  0.5724
  373MOL0     C50248   2.653   5.036  -0.449  0.1914 -0.3826 -1.2543
  373MOL0     C50249   2.509   5.211  -0.329  0.2829 -0.7198  0.0558
  373MOL0     C50250   2.385   5.135  -0.324 -0.1052  1.4722  0.5759
  373MOL0     O50251   2.301   5.172  -0.229 -0.5138  0.2865  0.4538
  373MOL0     C50252   2.177   5.107  -0.221 -0.2323 -0.6880 -0.5363
  373MOL0     C50253   2.056   5.178  -0.233 -0.1392 -0.5127 -0.3324
  373MOL0     C50254   1.934   5.116  -0.208 -0.0119 -0.0923 -0.3016
  373MOL0     C50255   1.931   4.974  -0.188  0.2070 -0.8539  0.2077
  373MOL0     O50256   1.816   4.911  -0.178 -0.0899  0.3803 -0.2076
  373MOL0     C50257   1.727   4.934  -0.076  0.7735  0.5620  0.3137
  373MOL0     C50258   1.693   4.796  -0.015 -0.4075 -0.1873 -0.8279
  373MOL0     C50259   1.607   4.820   0.111  0.3469  0.8225  0.1157
  373MOL0     C50260   1.458   4.805   0.092  0.3693 -0.2716 -0.4348
  373MOL0     C50261   1.389   4.833   0.219  1.2895 -0.0291 -0.1111
  373MOL0     C50262   1.232   4.823   0.206 -0.1577  0.8570  0.1268
  373MOL0     C50263   1.185   4.693   0.134  0.4118  0.2541 -0.7269
  373MOL0     C50264   1.025   4.714   0.109  0.4253 -0.2701  0.5347
  373MOL0    Cl50265   0.982   4.853   0.006  0.7553 -0.1928 -0.1804
  373MOL0     C50266   2.052   4.901  -0.194  0.6062  0.1403  0.1401
  373MOL0     C50267   2.172   4.966  -0.204 -0.0216  0.5070  0.4418
  373MOL0     O50268   2.369   5.039  -0.389 -0.7261  0.6912  0.1018
  373MOL0     C50269   2.511   5.336  -0.253  0.9061  0.6340  0.6499
  373MOL0     C50270   2.634   5.397  -0.231  0.5257  0.4555  0.4005
  373MOL0     N50271   3.362   5.608  -0.041  0.6553 -0.2928 -0.3082
  373MOL0     N50272   3.426   5.563   0.056  1.0277 -1.0050 -0.6319
  373MOL0     C50273   4.126   4.728   0.611 -1.2002  0.0877 -0.3333
  373MOL0     C50274   4.254   4.761   0.670  0.1426 -0.2399  1.1935
  373MOL0     C50275   4.612   4.943   0.824 -0.0463  0.4736  0.7834
  373MOL0     C50276   4.703   5.009   0.743  0.8770 -0.2382  0.1317
  373MOL0     C50277   4.834   5.015   0.770 -0.3322 -0.8096 -0.3575
  373MOL0     C50278   4.881   4.944   0.884  0.4838 -0.2236  0.5683
  373MOL0     O50279   5.003   4.937   0.938 -0.4005  0.2070 -0.5447
  373MOL0     C50280   5.106   5.015   0.876  0.2234 -0.3469  0.7156
  373MOL0     C50281   5.154   4.937   0.748 -0.3814 -0.2259  1.1431
  373MOL0     C50282   5.200   4.795   0.782  0.3801  0.6057  0.5683
  373MOL0     C50283   5.227   4.688   0.670 -0.2054 -0.5784  0.4339
  373MOL0     C50284   5.348   4.729   0.601  0.8947 -0.3098  0.6361
  373MOL0     C50285   5.428   4.788   0.528 -0.6234  0.5921  0.7557
  373MOL0     C50286   4.792   4.877   0.964  0.1730 -0.4027 -0.4413
  373MOL0     C50287   4.653   4.867   0.936  0.6130 -0.3310  0.5617
  373MOL0     H50288   4.164   4.882   0.975 -1.3630 -0.1958  0.1978
  373MOL0     H50289   3.935   4.821   0.878 -1.2678  1.2454 -2.3879
  373MOL0     H50290   3.936   4.867   0.484  0.0501  0.5571  1.7086
  373MOL0     H50291   3.913   4.708   0.419  1.1965  1.7793 -1.1896
  373MOL0     H50292   3.682   4.685   0.500 -1.5499  1.0714  0.1014
  373MOL0     H50293   3.694   4.832   0.591 -0.1765  0.8689 -0.2028
  373MOL0     H50294   3.702   4.800   0.288  3.4777  0.4916  0.0775
  373MOL0     H50295   3.568   4.873   0.383  0.1943 -0.5273 -0.5812
  373MOL0     H50296   3.716   5.083   0.420 -0.0073  0.2222 -1.0531
  373MOL0     H50297   3.837   4.992   0.324 -0.3274 -1.5196 -3.1649
  373MOL0     H50298   3.730   5.162   0.210  1.1863 -0.4211 -0.3058
  373MOL0     H50299   3.692   4.996   0.138 -2.5312  1.8124 -0.9198
  373MOL0     H50300   3.474   5.010   0.228 -1.0918  0.4641  0.9506
  373MOL0     H50301   3.514   5.151   0.328 -1.5032  1.0221 -0.3770
  373MOL0     H50302   3.496   5.162   0.021  0.5662  0.5068  0.1246
  373MOL0     H50303   3.361   5.204   0.129  0.0477 -1.4603  1.9461
  373MOL0     H50304   3.644   5.344   0.103 -0.4275 -0.8438 -2.8445
  373MOL0     H50305   3.523   5.379   0.226  1.5273 -0.9252  0.9525
  373MOL0     H50306   3.482   5.343  -0.178 -2.4666 -0.5613 -1.7566
  373MOL0     H50307   3.270   5.651  -0.282 -2.0014 -0.4868  0.8835
  373MOL0     H50308   3.410   5.543  -0.339  1.4268 -1.0276  2.4030
  373MOL0     H50309   3.246   5.362  -0.314  0.3258 -0.1384 -2.9868
  373MOL0     H50310   3.198   5.484  -0.434 -0.6288  1.2749  1.0060
  373MOL0     H50311   3.048   5.591  -0.251  0.8110 -0.3050 -1.8994
  373MOL0     H50312   3.113   5.479  -0.140  0.1822  1.9704 -0.1483
  373MOL0     H50313   3.030   5.286  -0.284 -0.1278 -0.7928 -0.4505
  373MOL0     H50314   2.959   5.411  -0.398  1.7363  1.9076 -0.2538
  373MOL0     H50315   2.846   5.163  -0.337 -2.1105 -3.2085  1.4199
  373MOL0     H50316   2.756   5.031  -0.486  1.2398  1.4630  1.1095
  373MOL0     H50317   2.628   4.955  -0.380  4.1497 -0.3415  0.4923
  373MOL0     H50318   2.586   5.033  -0.536 -1.6786 -2.8798  0.1340
  373MOL0     H50319   2.063   5.285  -0.250  0.3902 -0.6114 -0.7640
  373MOL0     H50320   1.844   5.177  -0.199  0.7821  1.1445 -0.4999
  373MOL0     H50321   1.760   5.003   0.002  3.6402 -0.2246 -0.1009
  373MOL0     H50322   1.631   4.955  -0.124  0.4586 -0.2212  0.5840
  373MOL0     H50323   1.628   4.732  -0.074  0.0978 -0.8133 -0.7111
  373MOL0     H50324   1.779   4.737   0.016 -0.3266  0.5578  0.4418
  373MOL0     H50325   1.625   4.917   0.157  1.2351  0.1705  1.2087
  373MOL0     H50326   1.631   4.747   0.189 -0.6105  1.8874  1.4505
  373MOL0     H50327   1.425   4.873   0.013  0.3350 -0.0142 -0.1982
  373MOL0     H50328   1.439   4.700   0.070  0.1888 -0.3202 -0.0516
  373MOL0     H50329   1.421   4.925   0.267 -2.2414  2.0743 -1.4117
  373MOL0     H50330   1.413   4.754   0.290 -0.2870  0.1141  0.6195
  373MOL0     H50331   1.194   4.813   0.308  1.5253 -0.3413  0.6739
  373MOL0     H50332   1.196   4.913   0.156 -1.6932 -0.0646 -0.4988
  373MOL0     H50333   1.191   4.603   0.196 -1.0486 -0.1508 -1.1242
  373MOL0     H50334   1.244   4.672   0.044  1.9896  1.3965 -0.0046
  373MOL0     H50335   0.983   4.721   0.210  1.4111  1.1297  0.8614
  373MOL0     H50336   0.994   4.619   0.065 -0.2388 -1.1327  2.7087
  373MOL0     H50337   2.041   4.795  -0.174 -3.8443  0.3908 -0.0884
  373MOL0     H50338   2.266   4.916  -0.218 -0.3237  0.1705 -0.4002
  373MOL0     H50339   2.425   5.389  -0.216  1.7289  2.4293  0.0751
  373MOL0     H50340   2.621   5.490  -0.176 -1.7775  0.1422  0.4819
  373MOL0     H50341   4.111   4.679   0.515 -0.9790 -1.9954  0.6418
  373MOL0     H50342   4.351   4.736   0.629  0.7459  3.4728  0.0386
  373MOL0     H50343   4.654   5.051   0.656  1.3342 -0.5397 -0.2776
  373MOL0     H50344   4.900   5.079   0.714 -0.0762 -2.0000 -1.4526
  373MOL0     H50345   5.072   5.117   0.854 -0.7770 -0.7720  0.2139
  373MOL0     H50346   5.194   5.029   0.939  1.5198 -0.7414 -0.9291
  373MOL0     H50347   5.227   4.998   0.693 -1.1060 -0.0855  0.3233
  373MOL0     H50348   5.079   4.918   0.672  1.0457  0.3470 -0.4644
  373MOL0     H50349   5.114   4.745   0.827 -0.7014 -0.6195 -2.6485
  373MOL0     H50350   5.289   4.812   0.844  2.2117  1.6867 -2.1695
  373MOL0     H50351   5.159   4.686   0.585 -0.2985  0.0623  0.4894
  373MOL0     H50352   5.237   4.588   0.715 -0.9912 -1.0514 -0.4129
  373MOL0     H50353   5.504   4.846   0.480 -0.5255  0.8362  1.1990
  373MOL0     H50354   4.835   4.843   1.057 -1.4677 -1.5286 -0.0329
  373MOL0     H50355   4.583   4.818   1.003 -2.7491  2.7771 -0.3824
  374MOL0     O50356   6.939   2.865  10.236 -0.3695 -0.3167  0.2439
  374MOL0     C50357   6.919   2.954  10.322  0.1680  0.1947  0.3864
  374MOL0     O50358   7.005   3.006  10.413  0.0985 -0.2401 -0.1116
  374MOL0     C50359   7.117   2.939  10.455 -0.1459  0.5813 -0.2165
  374MOL0     C50360   7.209   3.021  10.524 -0.8090  0.0933 -0.3555
  374MOL0     C50361   7.331   2.962  10.566  0.0460 -1.2113 -0.9741
  374MOL0     C50362   7.359   2.833  10.554 -0.1565 -0.0924 -0.2384
  374MOL0     O50363   7.483   2.797  10.609  0.4292  0.2404 -0.2258
  374MOL0     C50364   7.504   2.661  10.648  0.5457  0.1800 -0.1109
  374MOL0     C50365   7.563   2.666  10.788 -0.3931 -0.1433  0.2637
  374MOL0     C50366   7.715   2.700  10.802 -0.0032  0.8216  0.4726
  374MOL0     C50367   7.806   2.586  10.756 -0.2789 -0.1820 -0.6059
  374MOL0     C50368   7.949   2.616  10.784 -0.0770 -0.2145  0.3091
  374MOL0     C50369   7.986   2.593  10.931 -0.1614 -0.0984 -0.2705
  374MOL0     C50370   8.142   2.578  10.958  0.1304  0.3322  0.4789
  374MOL0     C50371   8.184   2.426  10.960 -0.6552  0.5896  0.1955
  374MOL0     N50372   8.155   2.347  10.839 -0.7023 -0.9078 -0.4694
  374MOL0     C50373   8.221   2.371  10.718  0.1665 -0.1375  0.6959
  374MOL0     C50374   8.205   2.243  10.660 -1.2057  0.2760  0.3428
  374MOL0     C50375   8.225   2.218  10.508  1.2638  0.4001 -0.0620
  374MOL0     C50376   8.127   2.273  10.407 -0.0950  0.9645 -0.5609
  374MOL0     C50377   7.990   2.216  10.419  0.5128 -0.7221  1.2227
  374MOL0     C50378   7.907   2.292  10.514  0.6066  0.5414 -0.6558
  374MOL0     O50379   7.763   2.263  10.488 -0.3818  0.4343 -0.0378
  374MOL0     C50380   7.661   2.283  10.575 -0.4856  0.0057 -0.1171
  374MOL0     C50381   7.531   2.305  10.514 -0.1820 -0.3408  0.8054
  374MOL0     C50382   7.417   2.325  10.596 -0.0275  0.1621  0.4336
  374MOL0     C50383   7.287   2.320  10.529 -0.2668  0.6224  0.0912
  374MOL0     C50384   7.431   2.315  10.735  0.2449 -0.4911  0.0214
  374MOL0     C50385   7.317   2.346  10.828  0.2063  0.8393  0.2279
  374MOL0     O50386   7.249   2.466  10.811 -0.2924 -0.3109  1.1329
  374MOL0     C50387   7.170   2.505  10.912 -0.9289  0.2906 -0.2894
  374MOL0     C50388   7.203   2.497  11.051  0.2781 -0.0701  0.0005
  374MOL0     C50389   7.110   2.546  11.142  0.1192  0.6992 -0.8373
  374MOL0     C50390   6.986   2.589  11.106  0.1605  0.1654 -0.2162
  374MOL0     O50391   6.890   2.614  11.202 -0.8022  0.2961  0.2552
  374MOL0     C50392   6.772   2.677  11.162  0.5404  1.1303  0.0821
  374MOL0     C50393   6.676   2.705  11.279 -0.1321 -0.7660 -0.5291
  374MOL0     C50394   6.750   2.803  11.373  0.6479  0.2820  0.8033
  374MOL0     C50395   6.655   2.835  11.495  0.9396 -0.6790 -0.2493
  374MOL0     C50396   6.716   2.939  11.600  0.4784  0.0965 -0.3206
  374MOL0     C50397   6.735   3.084  11.552 -0.0007  0.2533 -0.8724
  374MOL0     C50398   6.837   3.162  11.645  0.2914 -0.1876  0.2998
  374MOL0     C50399   6.875   3.300  11.596  0.7323 -0.8807 -0.1914
  374MOL0    Cl50400   6.740   3.422  11.589 -0.4077  0.0114  0.2264
  374MOL0     C50401   6.948   2.577  10.975 -0.0905 -0.0609 -0.1066
  374MOL0     C50402   7.041   2.550  10.880  0.5797 -0.1992 -0.3176
  374MOL0     O50403   7.293   2.263  10.913 -0.5952 -1.1019  0.2097
  374MOL0     C50404   7.557   2.284  10.792 -0.1437  0.0591 -0.9680
  374MOL0     C50405   7.675   2.271  10.712  0.4033  0.4925 -0.4291
  374MOL0     N50406   8.131   2.162  10.742  0.2667  0.0069  0.0145
  374MOL0     N50407   8.096   2.224  10.845 -0.0979 -0.3698  0.3602
  374MOL0     C50408   7.261   2.748  10.503 -0.9220 -0.3781 -0.4795
  374MOL0     C50409   7.138   2.800  10.456 -0.8489 -0.2269  0.5537
  374MOL0     C50410   6.779   3.015  10.321  0.0789  0.3557 -0.4065
  374MOL0     C50411   6.765   3.147  10.373  0.4935 -0.4209  0.5220
  374MOL0     C50412   6.631   3.207  10.369 -0.2291 -0.1109 -0.0352
  374MOL0     C50413   6.519   3.136  10.323  0.3220  0.9083 -0.1956
  374MOL0     O50414   6.393   3.182  10.296 -0.1399 -0.2139 -0.2671
  374MOL0     C50415   6.360   3.321  10.328 -0.4532 -0.1930  0.7344
  374MOL0     C50416   6.212   3.333  10.284 -0.3830  0.2209 -0.1776
  374MOL0     C50417   6.123   3.255  10.377 -0.2139 -1.0789  0.1823
  374MOL0     C50418   6.010   3.191  10.312 -0.2013  0.4029 -0.1783
  374MOL0     C50419   5.921   3.145  10.417 -0.2496 -0.3758  0.2613
  374MOL0     C50420   5.845   3.117  10.510  0.4374  0.4864 -0.3581
  374MOL0     C50421   6.539   3.002  10.275  0.6746  0.1503 -0.0575
  374MOL0     C50422   6.664   2.944  10.265 -0.2197  0.0189 -0.5581
  374MOL0     H50423   7.189   3.127  10.537  1.7537  0.5165  0.6591
  374MOL0     H50424   7.392   3.038  10.615 -2.4878  1.2377 -1.3454
  374MOL0     H50425   7.409   2.608  10.655  0.4568  0.3330 -0.1453
  374MOL0     H50426   7.563   2.609  10.572  0.5029 -0.0836  0.0319
  374MOL0     H50427   7.500   2.738  10.841 -2.8892 -2.2664  0.4094
  374MOL0     H50428   7.549   2.567  10.833  0.9716 -0.5304 -0.1166
  374MOL0     H50429   7.736   2.792  10.747 -1.6503  0.6276 -0.5811
  374MOL0     H50430   7.738   2.710  10.908  0.0595 -2.9016  0.9435
  374MOL0     H50431   7.778   2.504  10.822 -1.1051  0.8887  0.4244
  374MOL0     H50432   7.789   2.572  10.648  2.7660 -0.2601 -1.1769
  374MOL0     H50433   8.002   2.547  10.718 -2.7694 -2.6326  0.5112
  374MOL0     H50434   7.971   2.719  10.754  0.4982 -0.6322 -0.7488
  374MOL0     H50435   7.953   2.676  10.994  1.9508  0.4718  0.1589
  374MOL0     H50436   7.940   2.499  10.962 -0.9754 -0.6269 -2.8452
  374MOL0     H50437   8.188   2.615  10.867  1.1676 -2.8200 -0.4116
  374MOL0     H50438   8.179   2.625  11.049 -1.0497 -1.4602  1.9820
  374MOL0     H50439   8.137   2.376  11.045 -2.4598  1.3291 -0.3133
  374MOL0     H50440   8.291   2.421  10.982 -1.2521 -1.7372  3.2528
  374MOL0     H50441   8.271   2.459  10.678  0.1164  0.2810  1.5375
  374MOL0     H50442   8.324   2.260  10.485  0.7141  1.7646 -0.0587
  374MOL0     H50443   8.236   2.110  10.498  1.3577  0.1096  2.5957
  374MOL0     H50444   8.162   2.263  10.304  3.2408 -1.9505  0.6301
  374MOL0     H50445   8.116   2.381  10.422 -1.4420  0.8682 -0.7727
  374MOL0     H50446   7.988   2.107  10.434 -0.5479 -0.6209  1.9061
  374MOL0     H50447   7.945   2.233  10.321  0.6830 -2.0657  0.8841
  374MOL0     H50448   7.910   2.401  10.506  0.6794  0.6043  0.1810
  374MOL0     H50449   7.939   2.272  10.616 -0.9205 -1.9232 -0.5767
  374MOL0     H50450   7.534   2.303  10.405 -0.0463  2.9962  0.6368
  374MOL0     H50451   7.296   2.333  10.420 -1.7059 -0.9624 -0.2663
  374MOL0     H50452   7.236   2.227  10.555 -0.5624  0.9179  0.5801
  374MOL0     H50453   7.224   2.398  10.573  0.4715 -1.2733  5.1919
  374MOL0     H50454   7.302   2.465  11.081  0.6386 -0.4894 -1.5319
  374MOL0     H50455   7.129   2.543  11.249 -1.6385 -1.4383 -0.5120
  374MOL0     H50456   6.799   2.768  11.109 -3.6074  2.7857  0.4496
  374MOL0     H50457   6.715   2.616  11.091 -0.4992  4.0326 -1.7500
  374MOL0     H50458   6.577   2.733  11.242  0.4114  1.8065 -0.2108
  374MOL0     H50459   6.662   2.609  11.331  0.6047 -0.1677  0.8152
  374MOL0     H50460   6.783   2.891  11.317  1.9602 -0.2226  0.7590
  374MOL0     H50461   6.846   2.765  11.407  1.2844  0.9902 -0.1494
  374MOL0     H50462   6.560   2.862  11.448  1.1538 -2.1266 -1.6265
  374MOL0     H50463   6.614   2.747  11.547 -1.6094  0.8153  0.4432
  374MOL0     H50464   6.816   2.904  11.627  1.0624  2.5079  0.9169
  374MOL0     H50465   6.654   2.929  11.690  2.2796  2.4980  1.3109
  374MOL0     H50466   6.777   3.090  11.451 -0.8866  2.1786 -1.1798
  374MOL0     H50467   6.638   3.134  11.552  0.4011  1.3118  2.4937
  374MOL0     H50468   6.930   3.104  11.643  1.1718  1.1914 -1.3908
  374MOL0     H50469   6.796   3.155  11.747 -0.1439 -1.0692  0.0780
  374MOL0     H50470   6.931   3.291  11.502  2.7865 -2.2413  1.0734
  374MOL0     H50471   6.954   3.347  11.654 -0.3899  1.5636 -0.5381
  374MOL0     H50472   6.850   2.592  10.931  0.3105  3.1183 -0.2077
  374MOL0     H50473   7.012   2.572  10.778 -0.5180  0.8693  0.2057
  374MOL0     H50474   7.560   2.278  10.900  1.1459 -3.3597 -1.0688
  374MOL0     H50475   7.766   2.251  10.768 -0.4648  1.6719  1.4795
  374MOL0     H50476   7.277   2.641  10.508  1.0503 -0.0770  1.0839
  374MOL0     H50477   7.070   2.735  10.400 -2.8143  3.2685 -1.4728
  374MOL0     H50478   6.844   3.199  10.427  0.5167  1.8396 -1.5013
  374MOL0     H50479   6.612   3.310  10.396 -1.0018  0.0561 -1.1142
  374MOL0     H50480   6.379   3.345  10.434  1.7608  2.7370 -0.1731
  374MOL0     H50481   6.414   3.398  10.273 -1.2738  0.7335  1.1915
  374MOL0     H50482   6.201   3.306  10.179  1.3418 -3.8594  0.4932
  374MOL0     H50483   6.189   3.439  10.298 -2.5921  0.0792 -2.1256
  374MOL0     H50484   6.093   3.315  10.463 -1.4402 -1.7506  0.2420
  374MOL0     H50485   6.178   3.175  10.428 -0.2328 -1.4890 -0.4338
  374MOL0     H50486   6.035   3.100  10.257  1.3482  0.6906  0.0178
  374MOL0     H50487   5.956   3.258  10.244  0.7197 -0.7761 -2.1860
  374MOL0     H50488   5.778   3.107  10.593  2.7321  1.1092  1.6810
  374MOL0     H50489   6.458   2.948  10.226  0.0238  0.2746  0.8510
  374MOL0     H50490   6.677   2.842  10.231  0.3226 -1.4292  3.3623
  375MOL0     O50491   6.196  11.080   7.522 -0.5659 -0.1016 -0.6337
  375MOL0     C50492   6.254  11.116   7.625 -0.0593 -1.0839 -0.1475
  375MOL0     O50493   6.198  11.190   7.731  0.6334  0.8077  0.1592
  375MOL0     C50494   6.070  11.226   7.710 -0.0214  0.2926  1.0496
  375MOL0     C50495   6.048  11.360   7.672 -0.2289  0.0737 -0.8326
  375MOL0     C50496   5.919  11.413   7.657 -0.0621  0.2712  0.6966
  375MOL0     C50497   5.810  11.329   7.673  0.2804  0.1848  0.3820
  375MOL0     O50498   5.680  11.371   7.651  0.0765  0.7518  0.1945
  375MOL0     C50499   5.645  11.511   7.665 -0.1568 -0.6623 -0.6698
  375MOL0     C50500   5.491  11.519   7.639 -0.1899 -0.1448 -1.4568
  375MOL0     C50501   5.458  11.507   7.486 -0.0080 -0.3481 -0.3154
  375MOL0     C50502   5.301  11.496   7.475  0.2743  0.3145 -0.4681
  375MOL0     C50503   5.255  11.519   7.328 -0.2422  0.7161 -0.0195
  375MOL0     C50504   5.103  11.527   7.319 -0.1063 -0.2003 -0.1665
  375MOL0     C50505   5.028  11.397   7.333 -0.3989 -0.1045 -0.4023
  375MOL0     C50506   4.883  11.399   7.374 -0.2582 -0.1640  0.5623
  375MOL0     N50507   4.799  11.451   7.268 -0.9521 -0.2502  0.1173
  375MOL0     C50508   4.787  11.582   7.239  0.5666  0.0067  0.1251
  375MOL0     C50509   4.674  11.586   7.169 -0.7068  0.2825  0.9114
  375MOL0     C50510   4.636  11.712   7.107 -0.1292 -1.0850  0.8174
  375MOL0     C50511   4.484  11.722   7.118  0.9437 -0.2381 -0.0992
  375MOL0     C50512   4.441  11.847   7.033 -0.0314 -0.1317 -0.5888
  375MOL0     C50513   4.293  11.890   7.039 -0.1855 -0.1813 -0.1538
  375MOL0     O50514   4.225  11.790   6.954  0.2049  0.6395 -0.9200
  375MOL0     C50515   4.087  11.787   6.951 -0.2562 -0.3651 -0.4833
  375MOL0     C50516   4.025  11.673   6.914 -0.7202 -1.0676  1.2266
  375MOL0     C50517   3.886  11.667   6.911  0.0944 -0.5906  0.2290
  375MOL0     C50518   3.823  11.546   6.853 -0.0051 -0.1048  0.4227
  375MOL0     C50519   3.802  11.774   6.950  0.9500  0.5407 -0.0493
  375MOL0     C50520   3.656  11.769   6.955  0.1045  0.4698 -0.6093
  375MOL0     O50521   3.595  11.896   6.949 -0.7071 -0.3289 -0.4392
  375MOL0     C50522   3.463  11.921   6.975 -0.2846  0.0771  0.6427
  375MOL0     C50523   3.397  12.007   6.887  0.6278  0.5491 -0.0600
  375MOL0     C50524   3.263  12.032   6.914  0.6319 -0.9518  0.0588
  375MOL0     C50525   3.186  11.976   7.019  0.2612 -0.6208 -0.0151
  375MOL0     O50526   3.051  11.985   7.038  0.3777  0.4595  0.3522
  375MOL0     C50527   2.977  12.086   6.967  0.0685  0.5719 -0.4021
  375MOL0     C50528   2.825  12.055   6.978  0.2234 -0.6776 -1.1235
  375MOL0     C50529   2.763  12.131   7.096 -0.2291  0.2304  0.4296
  375MOL0     C50530   2.603  12.107   7.092 -0.1826 -0.6415 -0.2820
  375MOL0     C50531   2.524  12.214   7.022 -0.7587  0.5497 -0.3534
  375MOL0     C50532   2.380  12.158   6.989 -0.1709 -0.0471  0.5423
  375MOL0     C50533   2.388  12.065   6.865  0.5954 -0.1951  1.3148
  375MOL0     C50534   2.255  12.039   6.795  0.8009  0.2975  0.1816
  375MOL0    Cl50535   2.282  11.915   6.670  0.6236  0.5313 -0.1399
  375MOL0     C50536   3.259  11.891   7.108 -0.4018 -0.2652 -0.6510
  375MOL0     C50537   3.392  11.863   7.079 -0.5378  0.3655 -0.3371
  375MOL0     O50538   3.597  11.664   6.970  0.3550 -0.3281  0.1340
  375MOL0     C50539   3.863  11.896   6.985 -0.1684  0.2655  0.3080
  375MOL0     C50540   4.007  11.899   6.988  0.3811  0.5020 -0.2827
  375MOL0     N50541   4.626  11.459   7.151 -0.0266 -0.0407  0.3504
  375MOL0     N50542   4.698  11.375   7.211 -0.0987 -0.2675 -0.3439
  375MOL0     C50543   5.833  11.189   7.714 -0.1097  0.2173  0.7723
  375MOL0     C50544   5.963  11.142   7.718  0.2403  0.3146  0.1927
  375MOL0     C50545   6.392  11.076   7.644 -0.4345  0.2981 -0.3850
  375MOL0     C50546   6.456  11.101   7.770  0.2520  0.5140 -0.0097
  375MOL0     C50547   6.592  11.071   7.786 -0.4731  0.7860  0.1932
  375MOL0     C50548   6.662  11.023   7.676  0.4790  0.3436  0.4527
  375MOL0     O50549   6.796  11.004   7.668 -0.2059  0.3084  0.9132
  375MOL0     C50550   6.871  10.977   7.790  0.2412  0.1713  1.2626
  375MOL0     C50551   6.921  11.098   7.873 -0.7486 -0.1002  0.6399
  375MOL0     C50552   7.037  11.170   7.796  0.8114 -0.4756 -0.3027
  375MOL0     C50553   7.076  11.298   7.869  0.1011 -0.0003 -0.3184
  375MOL0     C50554   6.985  11.416   7.845 -0.0426 -1.2686 -0.7128
  375MOL0     C50555   6.921  11.517   7.828  0.3182 -0.0517 -0.5134
  375MOL0     C50556   6.598  10.977   7.556  0.5455  0.5093 -0.0408
  375MOL0     C50557   6.466  11.012   7.534  0.3206  0.5398  0.0168
  375MOL0     H50558   6.134  11.425   7.657 -0.1548  0.3953  0.8061
  375MOL0     H50559   5.903  11.516   7.629  0.7701  0.0739 -0.6380
  375MOL0     H50560   5.669  11.552   7.764  0.6903  0.2491 -1.2443
  375MOL0     H50561   5.701  11.570   7.593  1.6673 -0.1364  1.0792
  375MOL0     H50562   5.457  11.427   7.687 -1.1257 -1.2220 -4.0056
  375MOL0     H50563   5.447  11.601   7.695 -1.2177 -1.1910 -0.6726
  375MOL0     H50564   5.500  11.593   7.434  0.3041 -1.9472 -2.8700
  375MOL0     H50565   5.493  11.412   7.445 -0.6203 -1.3653  1.4160
  375MOL0     H50566   5.282  11.389   7.494  2.2300  0.0150  0.0026
  375MOL0     H50567   5.242  11.565   7.535  0.8411  1.8228 -1.5840
  375MOL0     H50568   5.299  11.614   7.295  0.4398  0.4680  0.1489
  375MOL0     H50569   5.293  11.443   7.259 -1.3374  1.2112 -1.2182
  375MOL0     H50570   5.059  11.597   7.392 -0.5676 -0.1053 -0.5313
  375MOL0     H50571   5.074  11.566   7.222 -0.9889 -0.0092  0.1641
  375MOL0     H50572   5.028  11.351   7.234  0.8237 -2.5917  0.6723
  375MOL0     H50573   5.084  11.326   7.395 -1.8855  1.1985  2.6131
  375MOL0     H50574   4.861  11.457   7.464  0.3584  3.5314 -1.4709
  375MOL0     H50575   4.858  11.295   7.396 -0.7453  0.2049  1.9122
  375MOL0     H50576   4.846  11.666   7.272 -1.2589  1.5458 -0.3608
  375MOL0     H50577   4.686  11.801   7.145 -0.5315 -1.2070  1.6509
  375MOL0     H50578   4.664  11.703   7.002 -3.0473 -2.0040  0.0135
  375MOL0     H50579   4.453  11.735   7.222  2.1894  0.3532  0.2156
  375MOL0     H50580   4.437  11.633   7.075 -0.4394  1.0652 -1.4365
  375MOL0     H50581   4.478  11.837   6.931  1.0923  2.2854 -0.4809
  375MOL0     H50582   4.497  11.932   7.073 -0.3692  0.5647 -1.5502
  375MOL0     H50583   4.265  11.985   6.993 -3.3110 -0.2987  1.2466
  375MOL0     H50584   4.262  11.896   7.143 -2.5316  0.9025 -0.8327
  375MOL0     H50585   4.094  11.603   6.870 -0.7408  1.7731 -4.2097
  375MOL0     H50586   3.739  11.556   6.784 -1.4636 -0.8591  2.0045
  375MOL0     H50587   3.890  11.483   6.793 -0.4147 -0.9532  0.8332
  375MOL0     H50588   3.787  11.484   6.936 -1.2295  0.5358  0.3898
  375MOL0     H50589   3.447  12.044   6.797  0.0449  2.0341  0.1938
  375MOL0     H50590   3.203  12.085   6.840  0.6064  0.2087  0.8879
  375MOL0     H50591   3.014  12.172   7.024  0.6620 -1.3928  2.4144
  375MOL0     H50592   3.002  12.088   6.861  1.3593  1.8577 -0.1042
  375MOL0     H50593   2.795  12.093   6.880 -0.7634  1.4917 -0.0513
  375MOL0     H50594   2.809  11.947   6.981 -2.0831 -0.4245 -1.9824
  375MOL0     H50595   2.777  12.239   7.091  1.1091  0.0157 -2.5188
  375MOL0     H50596   2.813  12.104   7.190 -1.0917  1.2732  1.2216
  375MOL0     H50597   2.582  12.008   7.052 -2.0750 -0.8061  0.9939
  375MOL0     H50598   2.581  12.100   7.199  0.0183  0.5368 -0.1436
  375MOL0     H50599   2.583  12.239   6.933  1.5059 -1.0287  0.6115
  375MOL0     H50600   2.519  12.307   7.079  0.4113  1.1768 -1.2224
  375MOL0     H50601   2.344  12.111   7.081  0.2021  4.2816  3.1155
  375MOL0     H50602   2.314  12.242   6.968  0.4235  0.5533  1.0601
  375MOL0     H50603   2.431  11.966   6.882 -0.1712 -1.2587 -2.0366
  375MOL0     H50604   2.455  12.110   6.791  1.4837 -2.1236  0.8860
  375MOL0     H50605   2.226  12.133   6.746 -1.6909  0.0737  1.0999
  375MOL0     H50606   2.178  12.010   6.868  2.5408 -3.3662  0.7866
  375MOL0     H50607   3.216  11.863   7.204  1.1422 -0.8117 -0.0813
  375MOL0     H50608   3.443  11.807   7.156 -1.9239 -0.2573  0.1546
  375MOL0     H50609   3.805  11.978   7.025  0.9513 -0.4999  3.9165
  375MOL0     H50610   4.051  11.996   7.003 -2.3334  1.6246  1.0899
  375MOL0     H50611   5.749  11.131   7.752 -0.9761  2.0021  1.6819
  375MOL0     H50612   5.989  11.038   7.738  3.8906  0.9490 -0.5653
  375MOL0     H50613   6.400  11.146   7.852  0.9369  1.7232 -0.1735
  375MOL0     H50614   6.638  11.086   7.883  0.8503  0.6984 -0.4066
  375MOL0     H50615   6.802  10.930   7.860 -0.5378  0.1798  0.5059
  375MOL0     H50616   6.956  10.911   7.768 -0.1864  0.6619 -2.5141
  375MOL0     H50617   6.958  11.058   7.967  2.4409 -0.6844 -0.7127
  375MOL0     H50618   6.847  11.176   7.893  0.7097  1.0158  1.8817
  375MOL0     H50619   6.997  11.207   7.701 -2.2185  0.9963  1.4165
  375MOL0     H50620   7.126  11.107   7.778  0.8027 -0.9407  1.1480
  375MOL0     H50621   7.174  11.325   7.829 -0.5428 -0.6664 -2.4626
  375MOL0     H50622   7.079  11.278   7.977 -0.3745  2.5914  0.2593
  375MOL0     H50623   6.876  11.610   7.800  0.4025  0.0301 -0.3745
  375MOL0     H50624   6.654  10.923   7.481  1.6702  0.3282  0.8882
  375MOL0     H50625   6.411  11.002   7.441  0.8558  3.4781 -0.7162
  376MOL0     O50626   7.098   8.747   6.278  0.1517 -0.0575  1.0263
  376MOL0     C50627   7.115   8.864   6.299 -0.2265  0.5423  0.4201
  376MOL0     O50628   7.235   8.929   6.313 -0.0713 -0.7021 -0.0463
  376MOL0     C50629   7.349   8.855   6.293  0.4959 -0.5836  0.2333
  376MOL0     C50630   7.408   8.847   6.168 -0.5656 -0.5842  0.1141
  376MOL0     C50631   7.526   8.774   6.162  0.7990  0.0518  0.3902
  376MOL0     C50632   7.589   8.711   6.269 -0.2061 -0.0853 -0.3862
  376MOL0     O50633   7.703   8.642   6.285 -0.0200  0.1063  0.3214
  376MOL0     C50634   7.826   8.702   6.231  0.0245  0.1138  0.5657
  376MOL0     C50635   7.899   8.805   6.321 -0.1664 -0.1233 -0.2206
  376MOL0     C50636   8.046   8.837   6.273  0.1867 -0.2397 -0.3643
  376MOL0     C50637   8.125   8.925   6.364  0.3113  0.0021  0.0440
  376MOL0     C50638   8.179   8.859   6.493  0.3808 -0.6400  0.1059
  376MOL0     C50639   8.266   8.968   6.573 -0.1937 -0.5836 -0.0465
  376MOL0     C50640   8.402   8.990   6.516  0.0089 -0.4586 -0.3306
  376MOL0     C50641   8.482   9.093   6.601 -1.0038 -0.2658  0.5749
  376MOL0     N50642   8.425   9.230   6.600  0.2856  0.2005  0.9489
  376MOL0     C50643   8.406   9.320   6.494 -0.0811  0.7530  0.2331
  376MOL0     C50644   8.330   9.417   6.547  0.4364 -0.1998  0.0714
  376MOL0     C50645   8.267   9.527   6.466 -0.8554  0.1815 -0.5247
  376MOL0     C50646   8.119   9.497   6.442  0.6886 -0.0738 -0.1206
  376MOL0     C50647   8.060   9.611   6.365  0.2872 -0.1906 -0.1907
  376MOL0     C50648   7.916   9.612   6.363  0.0184  0.9626 -0.0648
  376MOL0     O50649   7.861   9.477   6.348  0.2296  0.5267 -0.9907
  376MOL0     C50650   7.726   9.472   6.341 -0.4057  0.1574 -0.7552
  376MOL0     C50651   7.677   9.345   6.330 -0.2290 -0.6808 -0.0161
  376MOL0     C50652   7.537   9.319   6.321  0.1527 -0.5444 -0.3173
  376MOL0     C50653   7.501   9.177   6.299 -0.4431  0.1570  0.4644
  376MOL0     C50654   7.447   9.431   6.329 -0.4585 -0.7256  0.7370
  376MOL0     C50655   7.298   9.429   6.320  0.9453  0.1413 -0.5910
  376MOL0     O50656   7.240   9.549   6.318 -0.2332 -0.0121  0.6474
  376MOL0     C50657   7.104   9.547   6.294 -1.0759  0.1918 -0.2717
  376MOL0     C50658   7.045   9.520   6.170  0.5386  0.5221  0.0318
  376MOL0     C50659   6.904   9.536   6.155 -0.3718 -0.1841 -1.0171
  376MOL0     C50660   6.825   9.583   6.259  0.2867 -0.0303  0.4069
  376MOL0     O50661   6.695   9.585   6.232  0.4929 -0.0036  0.7230
  376MOL0     C50662   6.618   9.617   6.347 -0.2274  0.1610 -0.3778
  376MOL0     C50663   6.475   9.622   6.299 -0.5064 -0.7599 -0.1866
  376MOL0     C50664   6.380   9.622   6.423  0.4537 -0.8722 -0.4626
  376MOL0     C50665   6.344   9.768   6.460 -0.1796  1.1598 -0.4735
  376MOL0     C50666   6.273   9.794   6.592 -0.1794 -0.2298  0.6829
  376MOL0     C50667   6.120   9.761   6.580 -0.1074 -0.2280 -0.9217
  376MOL0     C50668   6.062   9.765   6.723  0.0410  0.2168  0.2039
  376MOL0     C50669   5.919   9.720   6.712 -0.9619 -0.7858 -0.4979
  376MOL0    Cl50670   5.831   9.721   6.859  0.1761 -0.0842  0.3961
  376MOL0     C50671   6.888   9.607   6.380 -0.5653 -0.2908 -0.2736
  376MOL0     C50672   7.023   9.590   6.394 -0.7306 -0.1688  1.1562
  376MOL0     O50673   7.239   9.318   6.319 -0.2234  0.1735  0.4092
  376MOL0     C50674   7.508   9.563   6.341 -0.6373  0.2845 -0.2189
  376MOL0     C50675   7.645   9.580   6.350 -0.8576  0.5820 -0.4464
  376MOL0     N50676   8.291   9.379   6.677 -0.4398 -0.0277 -0.4163
  376MOL0     N50677   8.357   9.269   6.712  0.1164 -0.2029 -0.1643
  376MOL0     C50678   7.532   8.736   6.390  0.5541  0.5377 -0.6900
  376MOL0     C50679   7.415   8.800   6.405  0.3800 -0.1883  0.2757
  376MOL0     C50680   6.995   8.944   6.295  0.2484 -0.1443  0.2265
  376MOL0     C50681   6.863   8.888   6.286  0.3685  0.1008  0.4258
  376MOL0     C50682   6.746   8.963   6.296 -0.4062 -0.0557 -0.7332
  376MOL0     C50683   6.762   9.106   6.297 -0.0586  0.1593 -0.1586
  376MOL0     O50684   6.656   9.185   6.305 -0.0369 -0.1294  0.4502
  376MOL0     C50685   6.624   9.249   6.186 -0.2163 -1.5151  0.0646
  376MOL0     C50686   6.528   9.161   6.110  0.9902  0.5967 -1.0298
  376MOL0     C50687   6.386   9.157   6.177 -0.4556 -1.2996  0.9411
  376MOL0     C50688   6.302   9.062   6.090 -0.2434  0.9528 -0.2925
  376MOL0     C50689   6.164   9.058   6.141 -0.6061  1.0709  0.5718
  376MOL0     C50690   6.053   9.054   6.188 -0.1820 -0.0586 -0.3022
  376MOL0     C50691   6.889   9.165   6.312  0.3391 -0.2547 -0.2155
  376MOL0     C50692   7.003   9.083   6.319 -0.4519 -0.0468 -0.0098
  376MOL0     H50693   7.368   8.890   6.077  2.6286  0.0235 -1.1338
  376MOL0     H50694   7.580   8.775   6.068 -1.5792  0.0068 -1.0722
  376MOL0     H50695   7.896   8.619   6.213 -1.7240 -1.1582 -0.6818
  376MOL0     H50696   7.806   8.742   6.131 -1.1242  0.7858  1.0452
  376MOL0     H50697   7.845   8.900   6.315 -0.3248 -0.1783  0.2490
  376MOL0     H50698   7.889   8.764   6.422  1.8812  1.3892  0.6667
  376MOL0     H50699   8.099   8.742   6.264  0.4122 -0.1084 -0.4380
  376MOL0     H50700   8.046   8.882   6.173 -0.1765 -2.0357 -1.2134
  376MOL0     H50701   8.211   8.957   6.303  0.9978 -0.3891  0.7827
  376MOL0     H50702   8.066   9.014   6.384 -2.7115 -1.8157 -0.1182
  376MOL0     H50703   8.095   8.823   6.552  1.9420 -0.6982  2.4229
  376MOL0     H50704   8.248   8.778   6.466  1.2789 -0.3423  1.3929
  376MOL0     H50705   8.221   9.067   6.572 -0.6687 -0.7061 -3.5764
  376MOL0     H50706   8.270   8.935   6.677 -2.0068 -1.9696 -0.3610
  376MOL0     H50707   8.460   8.899   6.497 -1.2869 -1.2255 -0.6825
  376MOL0     H50708   8.380   9.033   6.418  0.5783 -1.6104 -0.9832
  376MOL0     H50709   8.579   9.105   6.551  0.2038  1.0225  3.0241
  376MOL0     H50710   8.478   9.063   6.706 -3.5690 -1.4311  0.2213
  376MOL0     H50711   8.446   9.296   6.396  1.0982 -4.1954  1.6701
  376MOL0     H50712   8.284   9.628   6.504  1.0988  0.6760 -2.4460
  376MOL0     H50713   8.316   9.523   6.368  0.6495  1.6821  0.1149
  376MOL0     H50714   8.063   9.483   6.535 -2.4068 -3.6670 -2.2418
  376MOL0     H50715   8.109   9.400   6.392  0.7890 -0.2577  0.2101
  376MOL0     H50716   8.095   9.594   6.263 -1.5304  1.9703 -1.2700
  376MOL0     H50717   8.091   9.708   6.405  2.8432 -0.5407 -1.1882
  376MOL0     H50718   7.890   9.675   6.277  1.7112  1.1061 -0.5022
  376MOL0     H50719   7.882   9.655   6.457 -0.3161 -2.2594  1.4104
  376MOL0     H50720   7.745   9.261   6.318 -1.5871 -1.9489  0.7072
  376MOL0     H50721   7.587   9.111   6.287 -2.5653 -2.2649 -4.4982
  376MOL0     H50722   7.431   9.133   6.371  0.1264 -0.1756  0.8227
  376MOL0     H50723   7.452   9.170   6.202  0.3301 -1.4433  0.1470
  376MOL0     H50724   7.108   9.507   6.082 -0.6962  1.6767 -1.0638
  376MOL0     H50725   6.849   9.527   6.061 -1.0208  2.8772 -1.0328
  376MOL0     H50726   6.623   9.536   6.420 -0.8698  0.6033  0.1639
  376MOL0     H50727   6.648   9.711   6.395  1.7312  1.3842 -3.6398
  376MOL0     H50728   6.471   9.714   6.241 -1.0775 -0.1684  0.7536
  376MOL0     H50729   6.456   9.541   6.228 -0.7552  1.6285 -3.0216
  376MOL0     H50730   6.420   9.564   6.508  1.2157 -2.8941 -2.1052
  376MOL0     H50731   6.290   9.567   6.394  0.9349  0.0018 -4.0519
  376MOL0     H50732   6.441   9.817   6.464  0.2253  0.3281  0.1450
  376MOL0     H50733   6.285   9.810   6.377  1.0018  0.4805 -1.6981
  376MOL0     H50734   6.287   9.900   6.614  1.4470 -0.4630  0.8855
  376MOL0     H50735   6.318   9.747   6.680 -1.8630  0.3180  1.9053
  376MOL0     H50736   6.067   9.833   6.517 -2.2266 -3.3377 -3.0216
  376MOL0     H50737   6.106   9.665   6.528  0.1441 -1.8000  1.7260
  376MOL0     H50738   6.066   9.871   6.750  0.2840  0.3673 -0.3978
  376MOL0     H50739   6.118   9.704   6.794 -0.9057  0.1197  0.8725
  376MOL0     H50740   5.927   9.620   6.670  2.4839 -0.0449 -1.9203
  376MOL0     H50741   5.871   9.779   6.634 -0.5625  1.7618  1.0538
  376MOL0     H50742   6.840   9.640   6.472  0.2646  1.0190 -0.2920
  376MOL0     H50743   7.062   9.619   6.491  4.9542  2.0116 -1.3276
  376MOL0     H50744   7.451   9.654   6.327  0.8572  1.0042 -2.1861
  376MOL0     H50745   7.694   9.676   6.355  1.7643 -0.5698 -2.0101
  376MOL0     H50746   7.592   8.707   6.475  0.2825  0.5209 -0.5025
  376MOL0     H50747   7.377   8.811   6.506 -2.1418 -1.9795 -0.4049
  376MOL0     H50748   6.856   8.779   6.285 -1.7693  0.2035  0.5539
  376MOL0     H50749   6.651   8.913   6.313 -0.1852  0.1642  1.3498
  376MOL0     H50750   6.579   9.348   6.195 -1.4171 -1.8873 -1.4817
  376MOL0     H50751   6.712   9.258   6.121 -0.4433 -1.6883 -0.2661
  376MOL0     H50752   6.574   9.062   6.100 -0.6408 -0.0432 -2.9061
  376MOL0     H50753   6.527   9.196   6.007  2.3521 -0.0114 -1.2808
  376MOL0     H50754   6.348   9.259   6.169  1.3766 -0.4401  2.3555
  376MOL0     H50755   6.397   9.114   6.277 -0.5590 -2.8730  0.3053
  376MOL0     H50756   6.349   8.963   6.095 -2.0937  0.0246  0.0595
  376MOL0     H50757   6.305   9.097   5.987 -1.1236  0.9526 -0.3293
  376MOL0     H50758   5.954   9.064   6.228 -1.1586  2.7112 -3.0237
  376MOL0     H50759   6.899   9.272   6.296  4.2971 -0.3886  0.2422
  376MOL0     H50760   7.095   9.138   6.335 -1.2494  1.9086 -1.6751
  377MOL0     O50761   6.089   2.125   5.025 -0.5255 -0.5873  0.1398
  377MOL0     C50762   6.125   2.134   4.906 -0.6810 -0.1842  0.3801
  377MOL0     O50763   6.045   2.135   4.796 -0.1058  0.7727 -0.4993
  377MOL0     C50764   5.907   2.135   4.821  0.2076 -0.1859 -0.6252
  377MOL0     C50765   5.853   2.016   4.867  0.0424  0.0245 -0.2132
  377MOL0     C50766   5.713   1.989   4.862  0.6306  0.5940 -0.5565
  377MOL0     C50767   5.627   2.082   4.815  0.3692 -0.2167 -0.8836
  377MOL0     O50768   5.492   2.055   4.803 -0.6944 -0.0417 -0.0768
  377MOL0     C50769   5.430   2.045   4.669  0.2908 -0.5307  0.1441
  377MOL0     C50770   5.365   1.917   4.627  1.0225  0.5518  0.4247
  377MOL0     C50771   5.312   1.911   4.479 -0.1897 -0.3073  0.9965
  377MOL0     C50772   5.168   1.878   4.459  0.1132 -0.6519  0.3709
  377MOL0     C50773   5.153   1.839   4.310 -0.2248 -0.6424 -0.6379
  377MOL0     C50774   5.005   1.816   4.283  0.3543  0.4873 -0.3840
  377MOL0     C50775   4.949   1.908   4.169 -0.3021 -0.3713  0.5177
  377MOL0     C50776   4.814   1.859   4.111  0.3472 -0.0693  0.0101
  377MOL0     N50777   4.713   1.851   4.217  0.0889  0.0389 -0.2985
  377MOL0     C50778   4.618   1.937   4.244  0.3827  0.3605  0.5598
  377MOL0     C50779   4.543   1.881   4.344  0.5264 -0.4693 -0.1539
  377MOL0     C50780   4.430   1.941   4.421 -0.1627 -0.8104  0.8140
  377MOL0     C50781   4.454   1.963   4.572  0.4385  0.0982 -0.6618
  377MOL0     C50782   4.354   2.036   4.661  0.7737  0.0856 -0.3823
  377MOL0     C50783   4.359   2.185   4.650  0.5277  0.5302  0.0216
  377MOL0     O50784   4.267   2.245   4.746 -0.2576  0.5875  0.3534
  377MOL0     C50785   4.126   2.255   4.738 -0.0544  0.1416 -0.0220
  377MOL0     C50786   4.057   2.229   4.615  0.2135  0.2349  0.0163
  377MOL0     C50787   3.920   2.229   4.609  0.1167  0.3439  0.6045
  377MOL0     C50788   3.855   2.206   4.472 -0.3511  0.8224 -0.7338
  377MOL0     C50789   3.844   2.271   4.720  0.2927  0.3721  0.1791
  377MOL0     C50790   3.694   2.295   4.724 -0.5219  0.6212  0.1008
  377MOL0     O50791   3.640   2.287   4.848  0.8277 -0.0318  0.0980
  377MOL0     C50792   3.506   2.320   4.863 -0.7355  0.4823  0.0870
  377MOL0     C50793   3.388   2.281   4.792 -0.4671 -0.3153  0.5046
  377MOL0     C50794   3.268   2.337   4.826 -0.2969 -0.0310 -0.3918
  377MOL0     C50795   3.260   2.438   4.920  0.1681  0.4454  0.6549
  377MOL0     O50796   3.141   2.502   4.948  0.2835  0.1634 -0.3437
  377MOL0     C50797   3.018   2.438   4.909  0.1306 -0.4745  0.7389
  377MOL0     C50798   2.899   2.503   4.983  0.7370  0.2216 -0.6251
  377MOL0     C50799   2.791   2.399   5.007 -0.1998 -0.4762  0.3764
  377MOL0     C50800   2.704   2.386   4.873  0.3022  0.3811  0.4822
  377MOL0     C50801   2.595   2.479   4.879  0.1699 -0.0276 -0.0853
  377MOL0     C50802   2.508   2.497   4.755 -0.2696 -0.1616 -0.2349
  377MOL0     C50803   2.356   2.491   4.780  0.2251 -0.8286 -0.3458
  377MOL0     C50804   2.294   2.559   4.655 -0.5180  0.0059 -0.3472
  377MOL0    Cl50805   2.125   2.544   4.651  0.7056 -0.5075  0.2570
  377MOL0     C50806   3.378   2.482   4.985 -0.0544 -0.3211 -0.5909
  377MOL0     C50807   3.496   2.413   4.963  0.3214  0.3053 -0.1790
  377MOL0     O50808   3.630   2.313   4.619  0.0345  0.2533 -1.0420
  377MOL0     C50809   3.910   2.284   4.841 -0.8285  0.0329  0.0859
  377MOL0     C50810   4.047   2.272   4.853 -0.8617 -0.6895  0.4461
  377MOL0     N50811   4.599   1.759   4.370  0.0322  0.2473 -0.4875
  377MOL0     N50812   4.705   1.742   4.300 -0.8310 -0.5471  0.3294
  377MOL0     C50813   5.683   2.203   4.762 -0.0578  0.7933  0.1765
  377MOL0     C50814   5.823   2.230   4.764 -0.2592  0.0333 -0.7226
  377MOL0     C50815   6.271   2.152   4.888 -0.9966 -1.4368 -0.0230
  377MOL0     C50816   6.361   2.165   4.998 -0.0182 -0.0004  0.2620
  377MOL0     C50817   6.500   2.199   4.972  0.7796  0.2873 -0.1955
  377MOL0     C50818   6.544   2.222   4.841  0.1941 -0.5120  0.1871
  377MOL0     O50819   6.672   2.266   4.812 -0.0691 -0.0904 -0.9746
  377MOL0     C50820   6.766   2.282   4.922  0.1701 -0.4339  0.0319
  377MOL0     C50821   6.912   2.307   4.871 -0.3525 -0.3249 -0.3189
  377MOL0     C50822   7.031   2.274   4.966 -0.8928 -0.3020 -0.5190
  377MOL0     C50823   7.065   2.387   5.060  0.1736  0.0824 -0.5417
  377MOL0     C50824   7.188   2.377   5.146  0.0978  0.4170  0.1269
  377MOL0     C50825   7.294   2.377   5.209  0.1358 -0.7309 -0.2320
  377MOL0     C50826   6.453   2.213   4.739 -0.3954 -0.0946 -0.6841
  377MOL0     C50827   6.325   2.174   4.761 -0.0880  0.6724  0.7254
  377MOL0     H50828   5.918   1.936   4.902 -0.9667 -0.0815  1.5613
  377MOL0     H50829   5.668   1.897   4.900  3.0343 -1.0130 -1.3877
  377MOL0     H50830   5.362   2.131   4.661 -1.3825 -1.6808  1.2236
  377MOL0     H50831   5.504   2.066   4.591  0.2892 -2.1008 -0.3133
  377MOL0     H50832   5.435   1.835   4.645 -0.3620 -0.8899 -0.5054
  377MOL0     H50833   5.271   1.910   4.683 -1.0124  3.7332 -2.1576
  377MOL0     H50834   5.335   2.004   4.426  0.5349 -0.5172  0.9310
  377MOL0     H50835   5.372   1.835   4.428  1.7588  1.7156  0.0728
  377MOL0     H50836   5.139   1.791   4.519  3.3973 -4.0167 -2.3945
  377MOL0     H50837   5.115   1.970   4.485  1.3803 -0.4002  2.2075
  377MOL0     H50838   5.197   1.914   4.244  1.8331 -1.1789  0.0201
  377MOL0     H50839   5.206   1.743   4.307 -1.6542 -1.5606  1.3663
  377MOL0     H50840   4.990   1.713   4.250  0.4586  0.7236 -1.1952
  377MOL0     H50841   4.948   1.843   4.372 -0.4789 -1.5401 -0.2489
  377MOL0     H50842   4.937   2.013   4.199 -0.3507  0.6495 -2.6574
  377MOL0     H50843   5.020   1.903   4.086  1.3384 -0.4417  1.8854
  377MOL0     H50844   4.827   1.757   4.073  0.0203  0.5570 -1.8751
  377MOL0     H50845   4.785   1.932   4.035  1.9113  1.2842  0.6351
  377MOL0     H50846   4.593   2.032   4.198 -1.5645  0.0606  0.8865
  377MOL0     H50847   4.398   2.025   4.358 -1.4797 -3.1743 -1.9184
  377MOL0     H50848   4.348   1.868   4.419 -0.3979 -0.5358 -0.0635
  377MOL0     H50849   4.555   1.999   4.595  0.4531 -0.2357 -0.1880
  377MOL0     H50850   4.438   1.860   4.607 -0.4418 -0.9305 -3.7585
  377MOL0     H50851   4.384   2.024   4.766 -2.5839  1.0437  0.8405
  377MOL0     H50852   4.251   1.999   4.650  0.3437  1.4990 -1.4105
  377MOL0     H50853   4.346   2.218   4.546 -1.8642 -1.8167 -0.5343
  377MOL0     H50854   4.461   2.210   4.681  0.5370 -0.6022  0.9482
  377MOL0     H50855   4.108   2.217   4.520 -0.5990  0.9997 -0.5287
  377MOL0     H50856   3.917   2.137   4.414 -0.4509 -0.9769  1.2156
  377MOL0     H50857   3.757   2.159   4.480  0.9123 -2.9658 -3.9919
  377MOL0     H50858   3.843   2.298   4.414 -1.9332  0.8417 -0.4155
  377MOL0     H50859   3.393   2.204   4.716 -0.3071 -0.1569  0.3563
  377MOL0     H50860   3.176   2.305   4.777 -0.1336  0.9178 -1.3761
  377MOL0     H50861   2.995   2.448   4.802  2.7860  0.2887  0.1604
  377MOL0     H50862   3.030   2.331   4.924 -0.5589 -1.0104 -1.9785
  377MOL0     H50863   2.951   2.508   5.080  0.5949 -0.9219 -0.4769
  377MOL0     H50864   2.853   2.597   4.953  0.5896  1.4464  2.9095
  377MOL0     H50865   2.740   2.436   5.097 -0.0195 -2.4270  1.3363
  377MOL0     H50866   2.824   2.302   5.046 -0.9205 -0.4088  1.1885
  377MOL0     H50867   2.762   2.380   4.780 -0.9789 -0.8403 -0.2589
  377MOL0     H50868   2.664   2.285   4.878  1.5513 -0.0873  1.5697
  377MOL0     H50869   2.628   2.582   4.895  0.5710  0.1470 -1.8480
  377MOL0     H50870   2.535   2.445   4.963  1.0031 -2.7392 -0.4967
  377MOL0     H50871   2.535   2.599   4.727  1.3276  0.6042  3.4890
  377MOL0     H50872   2.523   2.423   4.676 -0.9452 -0.4086 -0.1349
  377MOL0     H50873   2.318   2.541   4.870 -0.0902 -0.1472 -0.8465
  377MOL0     H50874   2.322   2.388   4.789 -0.4396 -0.5488  0.5294
  377MOL0     H50875   2.329   2.498   4.571  0.5772 -0.4100  0.3849
  377MOL0     H50876   2.319   2.665   4.642 -2.7307  1.0978  2.9713
  377MOL0     H50877   3.377   2.563   5.057 -4.2737  1.1544 -1.9999
  377MOL0     H50878   3.579   2.436   5.029 -0.8060  1.7132  0.8055
  377MOL0     H50879   3.858   2.312   4.932 -0.1197 -3.1826  1.6315
  377MOL0     H50880   4.105   2.287   4.943  1.2481 -0.8571 -0.8125
  377MOL0     H50881   5.623   2.266   4.696 -2.4102 -0.0883  1.3523
  377MOL0     H50882   5.860   2.319   4.714  1.7998 -0.5792 -0.3497
  377MOL0     H50883   6.333   2.156   5.102  0.9907 -0.8361  0.4819
  377MOL0     H50884   6.550   2.218   5.067  0.3010 -2.4466  0.7038
  377MOL0     H50885   6.736   2.363   4.988  2.6265 -0.8332  1.7907
  377MOL0     H50886   6.758   2.195   4.988 -0.1539  1.2802  2.3681
  377MOL0     H50887   6.925   2.408   4.831  0.2157  0.5235  1.8927
  377MOL0     H50888   6.923   2.252   4.777 -1.1338 -1.0610  0.0114
  377MOL0     H50889   7.118   2.249   4.905  0.0968  2.4403 -0.3431
  377MOL0     H50890   7.010   2.188   5.031  0.1096 -0.4791 -0.4154
  377MOL0     H50891   6.989   2.390   5.139  0.4613 -1.1324 -0.2040
  377MOL0     H50892   7.074   2.481   5.005 -0.2337  1.8780  2.2567
  377MOL0     H50893   7.391   2.388   5.251 -0.7780  1.4650  1.5318
  377MOL0     H50894   6.490   2.239   4.640 -0.2997  0.3998 -0.5206
  377MOL0     H50895   6.259   2.161   4.676 -2.1065 -0.8464  2.4110
  378MOL0     O50896   3.184   1.447  10.180 -0.1701 -0.0250 -0.3992
  378MOL0     C50897   3.160   1.543  10.106 -0.8227 -0.9868  0.3285
  378MOL0     O50898   3.045   1.621  10.092  0.9335  0.2036 -0.8090
  378MOL0     C50899   2.938   1.605  10.178 -0.3887  1.6940 -0.4535
  378MOL0     C50900   2.951   1.566  10.310  0.1407  0.3034 -0.6101
  378MOL0     C50901   2.834   1.551  10.391 -0.6558 -0.0418  0.6874
  378MOL0     C50902   2.700   1.575  10.341 -1.0337  0.3014  0.3886
  378MOL0     O50903   2.597   1.542  10.425 -0.0715  0.0597 -0.0630
  378MOL0     C50904   2.467   1.561  10.369 -0.0597 -0.1763 -0.6838
  378MOL0     C50905   2.362   1.519  10.468  0.7774  0.0044 -0.6470
  378MOL0     C50906   2.342   1.614  10.584  0.0697 -0.1163 -0.2804
  378MOL0     C50907   2.200   1.675  10.585  0.5750  0.1054 -0.2749
  378MOL0     C50908   2.167   1.765  10.706 -0.6316  0.0013  0.3124
  378MOL0     C50909   2.265   1.875  10.730  0.3065 -0.5087 -0.5257
  378MOL0     C50910   2.209   1.996  10.804 -0.2973 -0.3832 -0.2813
  378MOL0     C50911   2.110   2.089  10.734 -0.1567 -0.2857 -0.3488
  378MOL0     N50912   2.059   2.183  10.839 -1.1806 -0.1164 -0.0591
  378MOL0     C50913   1.956   2.157  10.932 -0.9944 -0.4382 -1.1414
  378MOL0     C50914   1.961   2.273  11.004 -0.1455  0.2384  0.0558
  378MOL0     C50915   1.890   2.301  11.132 -0.1193  0.8054 -0.2286
  378MOL0     C50916   1.739   2.279  11.122 -0.2060 -0.4983  0.3086
  378MOL0     C50917   1.699   2.383  11.006 -0.4768 -0.8043  0.3414
  378MOL0     C50918   1.540   2.424  10.997 -0.6463  0.3154 -0.2755
  378MOL0     O50919   1.517   2.471  10.867  0.6048 -0.4974  0.6833
  378MOL0     C50920   1.396   2.461  10.805  0.0604 -0.3089  0.0124
  378MOL0     C50921   1.276   2.423  10.874 -0.1108 -0.1957 -0.7216
  378MOL0     C50922   1.147   2.438  10.813  0.4199 -0.4923  0.8909
  378MOL0     C50923   1.020   2.396  10.891  0.0207  1.0308 -0.3337
  378MOL0     C50924   1.145   2.479  10.677  0.0559 -0.1288 -0.2048
  378MOL0     C50925   1.020   2.509  10.597  0.4368  0.5360  0.3512
  378MOL0     O50926   1.025   2.555  10.463 -0.0233 -0.8485  0.1063
  378MOL0     C50927   0.920   2.601  10.394 -0.4984 -0.1250  0.0596
  378MOL0     C50928   0.791   2.544  10.398  0.3958 -1.3189 -0.0368
  378MOL0     C50929   0.686   2.606  10.328 -0.3678  0.5136  0.0082
  378MOL0     C50930   0.707   2.722  10.243 -0.1418  1.1737 -1.0196
  378MOL0     O50931   0.598   2.785  10.180 -0.2864  0.3252  0.3020
  378MOL0     C50932   0.492   2.819  10.267  1.3551  0.1141 -0.4964
  378MOL0     C50933   0.400   2.906  10.178  0.3103 -0.1698  1.0193
  378MOL0     C50934   0.268   2.952  10.239  0.1064  0.1513 -0.0924
  378MOL0     C50935   0.170   2.832  10.239 -0.3357  0.0089 -0.5327
  378MOL0     C50936   0.043   2.894  10.302 -0.3992 -0.0413 -0.8829
  378MOL0     C50937  -0.079   2.799  10.300 -0.4746  0.7497  0.3466
  378MOL0     C50938  -0.213   2.879  10.301  0.4429  0.1695 -0.2969
  378MOL0     C50939  -0.328   2.797  10.371 -0.3210 -0.2686  0.3726
  378MOL0    Cl50940  -0.477   2.881  10.320  0.0643  0.0756 -0.1327
  378MOL0     C50941   0.839   2.763  10.231 -0.0441  0.4321 -0.0547
  378MOL0     C50942   0.941   2.705  10.305 -0.0438  0.1954 -0.0391
  378MOL0     O50943   0.915   2.510  10.657 -0.5122 -0.2690  0.6822
  378MOL0     C50944   1.263   2.510  10.614  0.1649  0.1699 -0.4261
  378MOL0     C50945   1.387   2.500  10.681  1.5746 -0.7285 -0.1623
  378MOL0     N50946   2.063   2.358  10.958  0.7133 -0.2913  0.1674
  378MOL0     N50947   2.114   2.306  10.846 -0.4341 -0.2813 -0.3673
  378MOL0     C50948   2.693   1.629  10.211  1.0479 -0.1879 -0.5003
  378MOL0     C50949   2.804   1.640  10.132  0.2584  0.4005 -0.1158
  378MOL0     C50950   3.251   1.554   9.996 -0.7270 -0.3466  0.8460
  378MOL0     C50951   3.201   1.617   9.876 -0.3854  0.3097  0.3206
  378MOL0     C50952   3.283   1.626   9.766  0.4841 -0.9701  0.6734
  378MOL0     C50953   3.417   1.588   9.776  0.0092  0.8744 -0.1159
  378MOL0     O50954   3.513   1.605   9.678 -0.5768  0.4596 -0.5241
  378MOL0     C50955   3.463   1.627   9.547 -0.3885 -0.2326  0.4950
  378MOL0     C50956   3.581   1.631   9.444  0.7856  0.0267  0.0670
  378MOL0     C50957   3.632   1.492   9.405 -0.6225  0.6217 -0.9379
  378MOL0     C50958   3.766   1.484   9.347 -0.1453  0.2043 -0.0349
  378MOL0     C50959   3.759   1.526   9.207 -0.0042  0.1403 -0.1026
  378MOL0     C50960   3.757   1.544   9.088  0.3405  0.4757  1.3331
  378MOL0     C50961   3.466   1.529   9.896 -0.2883  0.0459  0.6794
  378MOL0     C50962   3.389   1.518  10.006  0.0343 -0.4677 -0.1422
  378MOL0     H50963   3.051   1.556  10.352 -0.4959  1.9745  1.4960
  378MOL0     H50964   2.839   1.526  10.497  2.4250  2.2258  1.2243
  378MOL0     H50965   2.449   1.668  10.356  1.1820 -0.1849 -3.2443
  378MOL0     H50966   2.441   1.504  10.279 -1.3116  1.3437 -1.3179
  378MOL0     H50967   2.272   1.503  10.408  1.6444  0.5153 -2.1403
  378MOL0     H50968   2.396   1.421  10.504  0.1744 -0.7522 -2.0391
  378MOL0     H50969   2.333   1.553  10.674 -3.6469  1.2777  0.4680
  378MOL0     H50970   2.427   1.684  10.585  0.1043 -0.1301 -1.4463
  378MOL0     H50971   2.188   1.745  10.502 -0.5580 -1.3217 -1.3850
  378MOL0     H50972   2.122   1.598  10.588 -1.4015  2.0347  0.4991
  378MOL0     H50973   2.068   1.807  10.689  0.3546  1.5746 -2.1955
  378MOL0     H50974   2.169   1.699  10.793 -3.4421 -0.6427 -0.0435
  378MOL0     H50975   2.352   1.836  10.784 -1.6020 -2.1224  1.5211
  378MOL0     H50976   2.306   1.904  10.632  1.7633 -0.3909  0.0936
  378MOL0     H50977   2.176   1.975  10.906  0.6853 -0.9128 -0.0537
  378MOL0     H50978   2.298   2.058  10.820  0.2209 -1.5350  1.5860
  378MOL0     H50979   2.021   2.039  10.694 -1.1049  2.4032 -1.8109
  378MOL0     H50980   2.158   2.146  10.655 -1.1488 -1.8002 -2.1354
  378MOL0     H50981   1.890   2.072  10.942  0.3763 -1.2297  3.1723
  378MOL0     H50982   1.933   2.244  11.215  2.0058  1.5478 -0.7721
  378MOL0     H50983   1.900   2.405  11.165 -4.0194  1.0949  0.5743
  378MOL0     H50984   1.694   2.297  11.220  1.8932  2.2841  0.9063
  378MOL0     H50985   1.731   2.177  11.083 -0.5438 -0.2506 -0.2947
  378MOL0     H50986   1.728   2.339  10.910  1.1242 -3.4043  1.9151
  378MOL0     H50987   1.752   2.478  11.022 -2.3616  0.4322 -0.3192
  378MOL0     H50988   1.526   2.503  11.071 -1.1396  0.1457 -0.1829
  378MOL0     H50989   1.469   2.343  11.017  2.5190 -2.8519 -0.7956
  378MOL0     H50990   1.272   2.392  10.978 -3.4821  3.0822  0.3526
  378MOL0     H50991   0.958   2.487  10.897 -0.1597  0.8337  0.9268
  378MOL0     H50992   0.970   2.311  10.844 -1.7244  0.1455  2.8334
  378MOL0     H50993   1.042   2.368  10.994 -1.6993  2.1414  0.3800
  378MOL0     H50994   0.764   2.463  10.466 -1.1312 -0.5145  0.3707
  378MOL0     H50995   0.590   2.558  10.342 -0.5772  0.7904 -0.4714
  378MOL0     H50996   0.451   2.728  10.312  0.8018  0.0950 -1.0289
  378MOL0     H50997   0.517   2.884  10.350 -1.5405  0.8794 -0.1003
  378MOL0     H50998   0.463   2.991  10.151 -0.6888  1.1294  2.6409
  378MOL0     H50999   0.376   2.851  10.086 -1.3743  0.3772  1.1066
  378MOL0     H51000   0.221   3.036  10.187  1.0943  1.3592  0.9266
  378MOL0     H51001   0.290   2.993  10.337  0.5911  1.1066 -0.5832
  378MOL0     H51002   0.149   2.802  10.136 -0.1753 -1.1890 -0.2303
  378MOL0     H51003   0.205   2.739  10.284  0.0529 -0.3575 -1.5679
  378MOL0     H51004   0.007   2.981  10.247 -2.2867  0.3595  0.8628
  378MOL0     H51005   0.072   2.933  10.400  1.6828 -1.7677 -0.7322
  378MOL0     H51006  -0.078   2.728  10.217 -2.4657 -0.4157  1.2433
  378MOL0     H51007  -0.077   2.743  10.394  2.1605 -0.0497 -0.1142
  378MOL0     H51008  -0.226   2.888  10.193  0.5626  0.3342 -0.2967
  378MOL0     H51009  -0.199   2.975  10.351  2.3089  1.7667 -3.5502
  378MOL0     H51010  -0.318   2.782  10.479  0.1575 -3.1015  0.0210
  378MOL0     H51011  -0.332   2.696  10.329  0.7104 -0.1905  0.0641
  378MOL0     H51012   0.855   2.848  10.167 -1.3142  0.2269 -0.6832
  378MOL0     H51013   1.043   2.741  10.302  0.3317 -0.8321  0.1697
  378MOL0     H51014   1.264   2.541  10.510  1.9547 -0.1908 -0.5555
  378MOL0     H51015   1.471   2.540  10.625 -0.7139  0.1702 -3.2257
  378MOL0     H51016   2.595   1.653  10.171  0.1138  1.2149  2.4014
  378MOL0     H51017   2.805   1.697  10.040 -0.2393  2.2157  0.9418
  378MOL0     H51018   3.096   1.644   9.875  0.1102  2.4479  0.4621
  378MOL0     H51019   3.247   1.665   9.671 -0.7294 -0.1413  1.4448
  378MOL0     H51020   3.410   1.537   9.513  1.9426 -2.5002  2.3892
  378MOL0     H51021   3.406   1.719   9.535 -3.8026 -1.6303  3.8582
  378MOL0     H51022   3.663   1.698   9.471  1.2608 -1.8288  3.8577
  378MOL0     H51023   3.538   1.658   9.347 -2.7683 -0.8033  1.2549
  378MOL0     H51024   3.562   1.426   9.354 -0.6059  0.5847 -0.9135
  378MOL0     H51025   3.647   1.432   9.496  3.5877  1.2071 -1.0198
  378MOL0     H51026   3.790   1.377   9.350 -4.0785 -0.7998  2.0083
  378MOL0     H51027   3.838   1.536   9.410 -2.1734  2.6975  0.3851
  378MOL0     H51028   3.756   1.554   8.982 -1.1097 -2.0126  1.0351
  378MOL0     H51029   3.571   1.502   9.909 -0.4765 -0.3000  1.5649
  378MOL0     H51030   3.440   1.480  10.094 -0.1188 -1.2966 -0.4064
  379MOL0     O51031  10.656   7.252   9.454  0.2654 -0.2175 -0.2639
  379MOL0     C51032  10.738   7.271   9.367  0.3890  0.1416  0.9509
  379MOL0     O51033  10.723   7.242   9.234  0.3531 -0.6641 -0.7265
  379MOL0     C51034  10.601   7.201   9.186  0.9106  0.5012  0.2220
  379MOL0     C51035  10.485   7.278   9.201  0.4721 -0.1143 -0.0813
  379MOL0     C51036  10.361   7.240   9.136 -0.2102 -0.6062  1.4291
  379MOL0     C51037  10.364   7.128   9.058 -0.1485  0.4143  0.6657
  379MOL0     O51038  10.240   7.107   9.027  0.2810  0.0519 -0.8669
  379MOL0     C51039  10.202   6.985   8.956  0.5288  0.3324  0.2317
  379MOL0     C51040  10.054   7.005   8.907 -0.5694  0.1820 -0.2027
  379MOL0     C51041  10.026   6.878   8.820 -0.3026 -0.5658  0.6759
  379MOL0     C51042   9.908   6.909   8.728  1.0228  0.0471 -0.1412
  379MOL0     C51043   9.876   6.784   8.640  0.8778 -0.1097 -0.4787
  379MOL0     C51044   9.729   6.801   8.581 -0.2289  0.1201 -0.3990
  379MOL0     C51045   9.714   6.673   8.500  0.2200 -0.2540  0.5400
  379MOL0     C51046   9.585   6.696   8.409 -0.3759 -0.4063 -0.3003
  379MOL0     N51047   9.544   6.568   8.356 -1.0875 -0.1598 -0.4978
  379MOL0     C51048   9.509   6.458   8.427 -0.9515 -0.4022 -0.3090
  379MOL0     C51049   9.506   6.358   8.332  0.6848 -0.1782  0.0145
  379MOL0     C51050   9.449   6.219   8.345 -0.3017 -0.3627  0.6644
  379MOL0     C51051   9.301   6.222   8.322 -0.1625  0.3885 -0.3803
  379MOL0     C51052   9.246   6.084   8.363  0.2376 -0.6656  0.5591
  379MOL0     C51053   9.101   6.102   8.326  0.5380  0.0003 -0.1369
  379MOL0     O51054   9.048   6.201   8.409  0.9006 -0.1719  0.3458
  379MOL0     C51055   8.922   6.202   8.459  0.1303  0.2732  0.8974
  379MOL0     C51056   8.822   6.133   8.391 -0.0055 -0.6145  0.7987
  379MOL0     C51057   8.693   6.128   8.442  0.2251 -0.3590  0.5577
  379MOL0     C51058   8.581   6.068   8.363 -0.3348  0.2397  0.4391
  379MOL0     C51059   8.660   6.200   8.560  0.5863  0.4630  0.5220
  379MOL0     C51060   8.520   6.201   8.614 -0.0486 -0.3350 -0.2761
  379MOL0     O51061   8.496   6.314   8.685  0.0531  0.7619  0.3371
  379MOL0     C51062   8.360   6.334   8.710 -0.3181 -0.0085 -0.4207
  379MOL0     C51063   8.317   6.337   8.845 -0.1718 -0.5606 -0.4059
  379MOL0     C51064   8.184   6.361   8.872  0.2827  0.5524 -0.8436
  379MOL0     C51065   8.088   6.379   8.773 -0.1753 -0.1089 -0.0233
  379MOL0     O51066   7.952   6.396   8.812 -0.1248 -0.2154  0.1831
  379MOL0     C51067   7.866   6.438   8.708 -0.7217  0.2905 -0.1924
  379MOL0     C51068   7.728   6.476   8.768 -1.1204 -0.6987  0.4565
  379MOL0     C51069   7.750   6.601   8.847 -0.3997 -0.3467 -0.3511
  379MOL0     C51070   7.622   6.651   8.910 -0.7220  0.7541  1.1817
  379MOL0     C51071   7.645   6.790   8.965 -0.2398 -0.0061 -0.6975
  379MOL0     C51072   7.666   6.912   8.856  0.7741  1.2815 -1.2571
  379MOL0     C51073   7.537   6.945   8.775  0.0709 -0.0752  0.1507
  379MOL0     C51074   7.575   7.042   8.664 -0.0993  1.0248 -1.2174
  379MOL0    Cl51075   7.700   6.980   8.559  0.9729  0.0301 -0.1459
  379MOL0     C51076   8.134   6.366   8.636  0.6050  0.3626 -0.1054
  379MOL0     C51077   8.271   6.352   8.605  0.4668 -0.6635  0.2993
  379MOL0     O51078   8.440   6.112   8.581 -0.5349 -0.1586 -0.7708
  379MOL0     C51079   8.757   6.269   8.633 -0.2446  0.2148 -0.0297
  379MOL0     C51080   8.887   6.266   8.580  0.4633 -0.2965 -0.2389
  379MOL0     N51081   9.526   6.417   8.208 -1.1414  0.7635  0.0554
  379MOL0     N51082   9.545   6.540   8.224  0.1621 -0.1714 -0.1340
  379MOL0     C51083  10.472   7.038   9.048 -0.3110 -0.7559  0.2282
  379MOL0     C51084  10.594   7.085   9.109 -0.3232  0.4322  0.5042
  379MOL0     C51085  10.864   7.328   9.418  1.2252  0.4691 -0.6612
  379MOL0     C51086  10.874   7.359   9.558  0.3491 -0.5803  0.5518
  379MOL0     C51087  10.993   7.417   9.615 -0.0985  0.2111  0.5680
  379MOL0     C51088  11.105   7.430   9.526  0.0757  0.0651  0.2163
  379MOL0     O51089  11.226   7.475   9.581 -0.4786 -0.0678  0.3453
  379MOL0     C51090  11.276   7.607   9.525  0.2956  0.1027  1.0045
  379MOL0     C51091  11.428   7.593   9.520  0.2765  0.5955  0.0276
  379MOL0     C51092  11.486   7.718   9.453  0.0633  0.0346 -0.7303
  379MOL0     C51093  11.630   7.698   9.409 -0.0503 -0.2284  0.3312
  379MOL0     C51094  11.647   7.663   9.271 -0.3628  0.8819 -0.3144
  379MOL0     C51095  11.657   7.612   9.165  0.3786 -0.4660 -0.6749
  379MOL0     C51096  11.093   7.397   9.392  0.5408 -0.0317  0.4778
  379MOL0     C51097  10.968   7.352   9.332 -0.6585 -0.3648 -0.1470
  379MOL0     H51098  10.475   7.371   9.256  3.3480 -0.6598  1.5651
  379MOL0     H51099  10.271   7.299   9.149 -0.1682 -0.2813  0.3345
  379MOL0     H51100  10.269   6.986   8.870  1.6271  0.2171  1.0605
  379MOL0     H51101  10.223   6.897   9.018  3.5245  1.0028  0.3399
  379MOL0     H51102   9.990   7.012   8.995  0.3466 -3.2527  0.9031
  379MOL0     H51103  10.042   7.102   8.858 -0.2132 -0.6090 -1.9445
  379MOL0     H51104  10.107   6.854   8.750 -1.1016  1.0717 -0.8921
  379MOL0     H51105   9.998   6.797   8.888 -3.4004  2.1372  2.9207
  379MOL0     H51106   9.825   6.927   8.796  1.1742  3.2127 -0.6226
  379MOL0     H51107   9.919   6.997   8.663 -1.1720  1.1171  0.8453
  379MOL0     H51108   9.945   6.779   8.554  0.0615 -1.7098 -1.0866
  379MOL0     H51109   9.880   6.693   8.701 -4.8904 -0.2619  0.1701
  379MOL0     H51110   9.654   6.811   8.660 -1.8224  1.7120 -2.0208
  379MOL0     H51111   9.715   6.895   8.526 -3.4321  0.3397  0.5567
  379MOL0     H51112   9.794   6.651   8.429  1.1501  3.3270  0.2740
  379MOL0     H51113   9.700   6.592   8.573  0.2872  0.1711  1.0300
  379MOL0     H51114   9.610   6.770   8.331  3.6876 -0.0326  1.0774
  379MOL0     H51115   9.506   6.731   8.475 -1.8688 -0.1868 -2.1229
  379MOL0     H51116   9.483   6.447   8.532  1.1136  0.6057  0.3646
  379MOL0     H51117   9.494   6.161   8.263  0.8129  0.3162  0.7843
  379MOL0     H51118   9.466   6.181   8.446  0.3377  0.0330  0.7115
  379MOL0     H51119   9.291   6.248   8.216  0.6618 -3.4149 -1.5554
  379MOL0     H51120   9.273   6.303   8.390  2.8053  1.1547  0.0705
  379MOL0     H51121   9.256   6.062   8.470 -0.9465 -0.7447  0.6728
  379MOL0     H51122   9.294   6.005   8.306  0.8529  1.4436 -2.0668
  379MOL0     H51123   9.046   6.009   8.343 -0.7703  0.8448  0.3579
  379MOL0     H51124   9.085   6.128   8.221 -1.0077 -2.4465 -0.5925
  379MOL0     H51125   8.844   6.079   8.299  0.1971  0.4597  0.2033
  379MOL0     H51126   8.548   5.969   8.399  0.3109 -0.7127 -1.4602
  379MOL0     H51127   8.498   6.138   8.369 -1.3836 -1.0170  1.4978
  379MOL0     H51128   8.630   6.049   8.267  1.2012 -0.2806  1.2749
  379MOL0     H51129   8.394   6.347   8.921  0.0801  1.1736 -0.8667
  379MOL0     H51130   8.145   6.366   8.973  0.8881  0.5205 -0.6075
  379MOL0     H51131   7.906   6.524   8.654 -2.3262  0.9899 -0.3286
  379MOL0     H51132   7.851   6.355   8.638 -0.5951  0.8365 -0.8762
  379MOL0     H51133   7.665   6.503   8.683 -0.3547  3.1241  0.9219
  379MOL0     H51134   7.682   6.399   8.830 -0.1916 -0.4592  1.4729
  379MOL0     H51135   7.796   6.683   8.791  2.2660 -0.7910  1.0247
  379MOL0     H51136   7.815   6.581   8.934 -0.9188  1.0253  0.3835
  379MOL0     H51137   7.541   6.657   8.837 -1.6778  0.1440  2.1587
  379MOL0     H51138   7.580   6.583   8.985  0.0682 -0.3625  0.6332
  379MOL0     H51139   7.731   6.795   9.033  1.9923 -1.9739 -3.1585
  379MOL0     H51140   7.560   6.801   9.032  0.1536  1.6335 -0.4282
  379MOL0     H51141   7.687   6.998   8.920 -2.7989  1.8753 -0.6704
  379MOL0     H51142   7.762   6.899   8.805  2.1324 -1.0163  1.6297
  379MOL0     H51143   7.465   6.992   8.844 -1.1475  1.5009 -2.0665
  379MOL0     H51144   7.471   6.866   8.739 -0.2098  0.5953 -0.8445
  379MOL0     H51145   7.603   7.134   8.717 -0.7192  0.3265  0.3920
  379MOL0     H51146   7.493   7.080   8.602 -0.3130 -0.5289 -1.9180
  379MOL0     H51147   8.057   6.345   8.562  0.9777 -1.4947 -0.0293
  379MOL0     H51148   8.304   6.344   8.502 -2.0702  0.1797 -0.6457
  379MOL0     H51149   8.734   6.318   8.727 -0.4942 -0.5435  0.3167
  379MOL0     H51150   8.976   6.305   8.627 -0.2496 -1.9823  2.7662
  379MOL0     H51151  10.459   6.944   8.995 -2.2155 -1.4628  1.8038
  379MOL0     H51152  10.688   7.032   9.103 -0.0646  0.3774  3.4741
  379MOL0     H51153  10.788   7.346   9.623  1.1836  1.3055  2.1377
  379MOL0     H51154  10.990   7.448   9.718 -1.2291  2.7356 -0.1573
  379MOL0     H51155  11.244   7.616   9.420  0.6036 -3.1622  0.5265
  379MOL0     H51156  11.236   7.692   9.580 -0.0015  0.1239  0.7561
  379MOL0     H51157  11.450   7.503   9.463  2.0909 -0.2049  1.8682
  379MOL0     H51158  11.478   7.586   9.617  0.0668  3.6128  0.4548
  379MOL0     H51159  11.495   7.801   9.523  4.2669 -1.7304  1.1871
  379MOL0     H51160  11.416   7.754   9.377 -0.7873  2.6964  1.1962
  379MOL0     H51161  11.684   7.618   9.460  2.5394  1.1023 -0.1435
  379MOL0     H51162  11.687   7.790   9.422 -1.5726  0.9163 -0.7062
  379MOL0     H51163  11.674   7.568   9.068 -1.1304 -0.3521 -1.0165
  379MOL0     H51164  11.182   7.406   9.330 -1.5666 -0.2848 -2.8764
  379MOL0     H51165  10.978   7.329   9.226  3.2132 -3.7742  0.6756
  380MOL0     O51166   5.804   6.070   2.016 -0.1816  0.6295  0.3644
  380MOL0     C51167   5.826   6.113   2.129  1.0021  0.3508  0.2108
  380MOL0     O51168   5.737   6.194   2.192 -0.3863  0.6497  0.2056
  380MOL0     C51169   5.611   6.220   2.131 -0.0456 -0.3328 -0.6569
  380MOL0     C51170   5.524   6.124   2.084  0.7511  0.1851  0.6092
  380MOL0     C51171   5.423   6.162   1.997  0.0165  0.0029  0.6047
  380MOL0     C51172   5.388   6.294   1.959  0.9485  0.0349 -0.2994
  380MOL0     O51173   5.284   6.321   1.864 -0.4177  0.3053 -0.5112
  380MOL0     C51174   5.205   6.441   1.875  0.0457  0.0901  0.2949
  380MOL0     C51175   5.114   6.460   1.747 -0.3624  0.0612 -0.0533
  380MOL0     C51176   5.028   6.588   1.761 -0.2910 -0.1866  0.5920
  380MOL0     C51177   4.887   6.554   1.786  0.2855  0.4348 -0.8145
  380MOL0     C51178   4.817   6.683   1.840 -0.6034  0.0752  0.3450
  380MOL0     C51179   4.666   6.664   1.841 -0.4731 -0.3167  0.0735
  380MOL0     C51180   4.635   6.535   1.909  0.2451 -0.0883 -0.1339
  380MOL0     C51181   4.495   6.532   1.981 -0.5821  0.2138  0.2781
  380MOL0     N51182   4.376   6.584   1.901  0.4715  0.7014 -0.2954
  380MOL0     C51183   4.341   6.557   1.774 -0.6648 -0.0831 -0.0515
  380MOL0     C51184   4.214   6.606   1.765 -0.4323 -0.1679 -0.3444
  380MOL0     C51185   4.141   6.618   1.632 -0.3109  0.1333 -0.5872
  380MOL0     C51186   3.994   6.626   1.638  1.2625  0.2509  0.2476
  380MOL0     C51187   3.938   6.513   1.712  0.0801 -0.0795 -0.6870
  380MOL0     C51188   3.909   6.390   1.620  0.1425  1.0805 -0.0026
  380MOL0     O51189   3.839   6.423   1.505  0.6921  0.3230  0.4225
  380MOL0     C51190   3.701   6.403   1.513 -0.2687 -0.1056 -0.1178
  380MOL0     C51191   3.632   6.406   1.397  0.7679  0.2784 -0.2098
  380MOL0     C51192   3.497   6.383   1.387  0.1363 -0.0339  0.3583
  380MOL0     C51193   3.442   6.382   1.249  0.6183 -0.4748  0.0560
  380MOL0     C51194   3.423   6.351   1.502 -0.0757 -0.3063  0.2502
  380MOL0     C51195   3.270   6.332   1.502  0.2493  0.2532  0.0816
  380MOL0     O51196   3.208   6.333   1.377  0.1660 -0.2247 -0.7050
  380MOL0     C51197   3.069   6.337   1.364 -0.2682  1.2449 -0.5728
  380MOL0     C51198   3.007   6.432   1.277  0.7136  0.1582 -0.3244
  380MOL0     C51199   2.867   6.436   1.264 -1.0451 -0.5463  0.1930
  380MOL0     C51200   2.781   6.360   1.345  0.5142  0.6932 -0.3016
  380MOL0     O51201   2.639   6.377   1.328 -0.1334 -1.1339  0.7577
  380MOL0     C51202   2.553   6.284   1.393  0.3925  0.3800  0.2314
  380MOL0     C51203   2.417   6.275   1.330  0.5968 -0.6377  0.0101
  380MOL0     C51204   2.428   6.202   1.199 -0.1804 -0.4833 -0.0223
  380MOL0     C51205   2.289   6.189   1.136 -0.3502  0.9644  0.5185
  380MOL0     C51206   2.297   6.135   1.001  0.1089 -0.8659 -0.2775
  380MOL0     C51207   2.162   6.095   0.952  0.1432 -0.2207  0.2436
  380MOL0     C51208   2.161   6.056   0.805  0.6562  0.4768 -0.0219
  380MOL0     C51209   2.025   5.979   0.777 -0.2333 -0.5676 -0.8077
  380MOL0    Cl51210   1.879   6.060   0.849 -0.3089 -0.0466 -0.4443
  380MOL0     C51211   2.843   6.270   1.436 -0.3407  0.1596 -0.4065
  380MOL0     C51212   2.981   6.253   1.444 -1.4533 -1.0804 -0.4855
  380MOL0     O51213   3.209   6.327   1.611  0.0973  0.2962  1.0598
  380MOL0     C51214   3.489   6.352   1.624 -1.3926 -0.0097  0.3949
  380MOL0     C51215   3.628   6.375   1.635 -0.6315  0.0252  0.0394
  380MOL0     N51216   4.181   6.669   1.883  0.0637 -0.3355 -0.6901
  380MOL0     N51217   4.280   6.650   1.966  0.1973 -0.6608 -0.1385
  380MOL0     C51218   5.464   6.390   2.026 -0.7972 -0.5961  0.0020
  380MOL0     C51219   5.577   6.350   2.113 -0.1628 -0.2472  0.0941
  380MOL0     C51220   5.931   6.056   2.216  0.4359 -0.2533  0.2173
  380MOL0     C51221   5.978   6.125   2.328  0.1710  0.7136 -0.1540
  380MOL0     C51222   6.074   6.075   2.412 -0.3426  0.3736 -0.3090
  380MOL0     C51223   6.129   5.950   2.384  0.5424  0.1188 -0.2083
  380MOL0     O51224   6.237   5.898   2.451 -0.4259  0.1697  0.3804
  380MOL0     C51225   6.319   5.975   2.544  0.0896  0.5130  0.5837
  380MOL0     C51226   6.474   5.977   2.514  0.7967 -0.2228  0.5550
  380MOL0     C51227   6.505   5.991   2.366  0.3806 -0.5363  1.0950
  380MOL0     C51228   6.655   5.995   2.326 -0.4528  0.2333  0.4820
  380MOL0     C51229   6.751   6.079   2.404  0.3311  0.8017  0.8748
  380MOL0     C51230   6.826   6.137   2.481 -0.4237  0.9593 -0.1890
  380MOL0     C51231   6.079   5.872   2.279  0.2082 -0.3450  0.4028
  380MOL0     C51232   5.990   5.930   2.193 -0.2243 -0.7693 -0.0646
  380MOL0     H51233   5.545   6.021   2.111 -1.9974 -0.6892 -0.2813
  380MOL0     H51234   5.365   6.086   1.944  0.9953  0.8587 -1.8618
  380MOL0     H51235   5.156   6.433   1.972  1.8167  1.6561  1.3901
  380MOL0     H51236   5.279   6.521   1.886  0.9956 -0.9371  1.6305
  380MOL0     H51237   5.179   6.469   1.659  0.0347  2.7787  0.4400
  380MOL0     H51238   5.060   6.367   1.728  0.3425 -0.5827  0.9892
  380MOL0     H51239   5.074   6.655   1.834  4.4410 -3.7528  1.4014
  380MOL0     H51240   5.036   6.638   1.664 -1.2966 -1.2128 -0.0564
  380MOL0     H51241   4.838   6.530   1.692  1.9511  0.4817 -1.7420
  380MOL0     H51242   4.874   6.471   1.857 -1.6372  1.0716 -0.3747
  380MOL0     H51243   4.847   6.713   1.940 -2.1396  1.2237  0.5052
  380MOL0     H51244   4.840   6.767   1.774 -0.4836 -1.8289 -2.1827
  380MOL0     H51245   4.610   6.751   1.877  1.0680  0.3337  0.9741
  380MOL0     H51246   4.628   6.657   1.738  1.8380  2.5817 -1.1116
  380MOL0     H51247   4.622   6.451   1.841 -0.6506  0.0567 -0.1633
  380MOL0     H51248   4.706   6.506   1.987  1.5779 -1.1924 -1.7016
  380MOL0     H51249   4.505   6.606   2.061 -1.4579  0.0576  0.5472
  380MOL0     H51250   4.470   6.432   2.018 -1.0732  0.1077 -0.3252
  380MOL0     H51251   4.399   6.525   1.688 -1.6388 -0.1433 -0.6900
  380MOL0     H51252   4.188   6.707   1.589 -1.9958  0.7555 -1.2110
  380MOL0     H51253   4.171   6.536   1.567 -0.3052  1.3230 -2.1460
  380MOL0     H51254   3.964   6.625   1.533  2.6554  0.9802 -0.1852
  380MOL0     H51255   3.956   6.715   1.689  0.1484 -0.4192  0.6260
  380MOL0     H51256   3.844   6.551   1.754  1.6764  5.0456 -1.0226
  380MOL0     H51257   4.001   6.472   1.791 -2.5317 -1.3258  0.8689
  380MOL0     H51258   3.860   6.305   1.669  0.4359  0.8378 -0.1239
  380MOL0     H51259   4.002   6.352   1.576 -0.3175 -0.6761  0.4662
  380MOL0     H51260   3.689   6.426   1.307 -0.3784 -1.8353 -1.5032
  380MOL0     H51261   3.405   6.282   1.224 -0.2840  0.2599 -1.7613
  380MOL0     H51262   3.358   6.451   1.239  0.7816 -0.3193 -0.2509
  380MOL0     H51263   3.514   6.420   1.175 -0.6568  1.4033 -0.2906
  380MOL0     H51264   3.067   6.490   1.208  1.9651 -0.3266  0.3208
  380MOL0     H51265   2.832   6.492   1.178 -2.0415  0.2907  1.1183
  380MOL0     H51266   2.597   6.184   1.385  2.4006  1.3626 -2.2508
  380MOL0     H51267   2.546   6.317   1.497 -1.2055  0.3200  0.1678
  380MOL0     H51268   2.362   6.209   1.398  1.5973  0.7654  2.2797
  380MOL0     H51269   2.379   6.378   1.332  0.4359 -0.7027  0.3485
  380MOL0     H51270   2.469   6.102   1.216  3.9178  1.3255  2.2421
  380MOL0     H51271   2.492   6.260   1.132 -0.5656  0.9343  0.8072
  380MOL0     H51272   2.233   6.111   1.189  0.8173 -1.6301 -1.8202
  380MOL0     H51273   2.231   6.281   1.137 -1.3794  0.3841 -1.3842
  380MOL0     H51274   2.367   6.053   0.982  0.3585 -0.9081  0.7438
  380MOL0     H51275   2.336   6.210   0.932  1.7432 -3.0073 -1.8208
  380MOL0     H51276   2.123   6.009   1.008  0.7057  0.3457  1.5505
  380MOL0     H51277   2.090   6.172   0.979 -0.3643 -1.6054  3.3544
  380MOL0     H51278   2.251   5.995   0.795  1.0983  0.9173  1.0919
  380MOL0     H51279   2.174   6.144   0.741  2.1922  0.3157  0.0350
  380MOL0     H51280   2.027   5.875   0.811 -2.2329 -0.7326 -1.1131
  380MOL0     H51281   2.009   5.971   0.669  2.9778  0.8394 -1.5173
  380MOL0     H51282   2.781   6.205   1.497  0.8314  1.7518  2.6595
  380MOL0     H51283   3.024   6.184   1.516 -0.7974 -1.8949 -1.6184
  380MOL0     H51284   3.434   6.331   1.716 -1.2347 -2.8006 -0.0768
  380MOL0     H51285   3.665   6.376   1.737 -4.7920  0.6103  1.7318
  380MOL0     H51286   5.444   6.496   2.014  0.4582 -0.2912  0.4117
  380MOL0     H51287   5.639   6.431   2.151 -0.1099  0.1273 -0.7729
  380MOL0     H51288   5.943   6.224   2.355 -0.9845 -0.1012  1.5341
  380MOL0     H51289   6.097   6.128   2.503 -2.2360 -1.5514  1.3987
  380MOL0     H51290   6.281   6.077   2.550  1.0518  0.9795 -0.8160
  380MOL0     H51291   6.301   5.941   2.646  1.9399 -5.0673 -0.5789
  380MOL0     H51292   6.514   5.885   2.558  2.3746  0.8368  1.4112
  380MOL0     H51293   6.509   6.066   2.566 -2.5693  0.9170  1.1523
  380MOL0     H51294   6.459   6.082   2.325  3.3554  1.0132  0.9788
  380MOL0     H51295   6.454   5.906   2.318 -0.7514  0.8956 -0.3661
  380MOL0     H51296   6.659   6.022   2.220 -1.6479  0.1658  0.4031
  380MOL0     H51297   6.694   5.893   2.320  0.0792  0.5173 -1.4176
  380MOL0     H51298   6.899   6.197   2.532 -0.1257  0.9661 -0.6143
  380MOL0     H51299   6.130   5.778   2.259  2.3202  1.1094 -1.4560
  380MOL0     H51300   5.966   5.881   2.099  1.4649  1.3365 -1.6947
  381MOL0     O51301   5.736  10.407   8.853 -0.5266  0.0628  0.1100
  381MOL0     C51302   5.765  10.287   8.860  0.6685 -0.4262  0.1032
  381MOL0     O51303   5.686  10.185   8.926 -0.1096  0.6240 -0.0146
  381MOL0     C51304   5.561  10.223   8.982  0.2457 -0.3656 -0.0804
  381MOL0     C51305   5.561  10.285   9.107 -0.3041 -0.4922  0.3570
  381MOL0     C51306   5.441  10.303   9.176  0.9107  0.5669 -0.5966
  381MOL0     C51307   5.319  10.262   9.118  0.6333  0.1325 -1.0681
  381MOL0     O51308   5.199  10.288   9.185  0.1695  0.8221 -0.2807
  381MOL0     C51309   5.097  10.191   9.167  1.0384 -0.1687  0.0856
  381MOL0     C51310   4.968  10.252   9.226 -0.1982  0.2741 -0.1610
  381MOL0     C51311   4.854  10.150   9.230  0.2644 -0.1452  0.1645
  381MOL0     C51312   4.713  10.196   9.267 -0.4738 -0.3553 -0.2169
  381MOL0     C51313   4.619  10.073   9.293 -0.2336 -0.1572  0.9451
  381MOL0     C51314   4.483  10.100   9.350  0.8822  0.9328 -0.3563
  381MOL0     C51315   4.390  10.201   9.274 -1.0249 -0.7218 -0.1926
  381MOL0     C51316   4.258  10.215   9.351 -0.7549 -0.7883  0.7567
  381MOL0     N51317   4.159  10.301   9.290 -1.2246 -0.7760 -0.5408
  381MOL0     C51318   4.069  10.256   9.196  0.1841  0.0842  0.1057
  381MOL0     C51319   3.992  10.362   9.163  0.3328 -0.9684 -0.0601
  381MOL0     C51320   3.883  10.358   9.059 -0.2321 -0.1877 -0.3693
  381MOL0     C51321   3.746  10.374   9.124  0.3908  0.8963 -0.8192
  381MOL0     C51322   3.637  10.406   9.026 -0.2037 -0.3410 -0.1472
  381MOL0     C51323   3.498  10.395   9.083 -0.3911  1.0694 -0.0115
  381MOL0     O51324   3.469  10.323   9.201 -1.0863  0.8634  0.3726
  381MOL0     C51325   3.335  10.318   9.241 -0.8296  0.4636  0.4391
  381MOL0     C51326   3.222  10.367   9.175 -0.0527  0.0812  0.4613
  381MOL0     C51327   3.088  10.340   9.208 -0.3061 -0.7086 -0.4248
  381MOL0     C51328   2.974  10.400   9.119 -0.7799  0.5304 -0.0257
  381MOL0     C51329   3.068  10.253   9.318 -0.1276 -0.6940 -0.2993
  381MOL0     C51330   2.936  10.215   9.375 -0.3604 -0.0774 -0.1702
  381MOL0     O51331   2.932  10.162   9.505  0.2689 -0.7256 -0.0819
  381MOL0     C51332   2.813  10.113   9.567 -0.5813  0.4378 -0.1359
  381MOL0     C51333   2.681  10.158   9.546  0.6675 -0.0370 -0.2585
  381MOL0     C51334   2.570  10.096   9.609  0.0625  0.2044 -0.0035
  381MOL0     C51335   2.586   9.983   9.695  0.1175  0.2172 -0.0306
  381MOL0     O51336   2.475   9.931   9.760 -0.3359  0.5896  0.2293
  381MOL0     C51337   2.487   9.787   9.791 -0.2042 -1.1963  0.0353
  381MOL0     C51338   2.357   9.710   9.792  0.5944 -0.6003 -0.7699
  381MOL0     C51339   2.256   9.757   9.899 -0.5000  0.2442 -0.1637
  381MOL0     C51340   2.130   9.667   9.901  0.1233 -0.0902  0.0239
  381MOL0     C51341   2.008   9.742   9.965 -0.7643  0.0509  0.4811
  381MOL0     C51342   1.886   9.652   9.993  0.3752  0.1112  0.0187
  381MOL0     C51343   1.773   9.723  10.075 -0.6894 -1.5565  0.0120
  381MOL0     C51344   1.695   9.619  10.154 -0.1956  0.2403  0.3286
  381MOL0    Cl51345   1.584   9.691  10.275  0.1343 -0.1991 -0.1081
  381MOL0     C51346   2.724   9.946   9.731  0.4731 -0.2262  0.7143
  381MOL0     C51347   2.831  10.016   9.669 -0.3217  0.3871  0.5278
  381MOL0     O51348   2.841  10.216   9.301 -0.0092  0.4784 -0.8240
  381MOL0     C51349   3.179  10.218   9.398 -0.0178  0.0969  0.5663
  381MOL0     C51350   3.304  10.248   9.348 -0.5214  1.1993 -0.3934
  381MOL0     N51351   4.039  10.467   9.236 -0.9733 -0.1606  0.2289
  381MOL0     N51352   4.146  10.438   9.306  0.2124  0.4064 -0.0970
  381MOL0     C51353   5.322  10.214   8.989  0.2102 -0.2215  0.2385
  381MOL0     C51354   5.437  10.188   8.926  0.1090  0.6145  0.4790
  381MOL0     C51355   5.903  10.259   8.817  0.2890 -0.6201  0.0737
  381MOL0     C51356   6.007  10.348   8.831 -0.2055 -0.5617  0.1756
  381MOL0     C51357   6.129  10.323   8.764  0.0703  0.6553  0.1078
  381MOL0     C51358   6.144  10.218   8.670 -0.5623 -0.7826 -0.2476
  381MOL0     O51359   6.262  10.201   8.585  0.0362 -0.2004  0.4188
  381MOL0     C51360   6.390  10.253   8.638  0.5771 -0.4998  0.8251
  381MOL0     C51361   6.508  10.189   8.568 -0.1282  0.3842 -0.0519
  381MOL0     C51362   6.488  10.147   8.425 -0.3788 -0.4719  0.2315
  381MOL0     C51363   6.608  10.125   8.339  0.1831  0.0608  0.1960
  381MOL0     C51364   6.712  10.222   8.359 -0.4839  0.2434 -0.4036
  381MOL0     C51365   6.815  10.289   8.385 -0.2382 -0.4707 -0.2864
  381MOL0     C51366   6.030  10.138   8.653 -0.1442 -1.0025  0.0187
  381MOL0     C51367   5.916  10.150   8.730 -0.1047 -0.6329 -0.2764
  381MOL0     H51368   5.652  10.327   9.150  0.1219  1.0805 -1.9037
  381MOL0     H51369   5.458  10.345   9.275 -2.9891 -0.6271  0.7777
  381MOL0     H51370   5.072  10.163   9.064  2.1107 -1.0488  0.0507
  381MOL0     H51371   5.120  10.092   9.206  1.9642 -0.6975 -1.7010
  381MOL0     H51372   4.985  10.283   9.330 -0.6262  1.2334 -0.3652
  381MOL0     H51373   4.935  10.329   9.156 -1.3802  1.0903  1.2308
  381MOL0     H51374   4.844  10.106   9.131  0.0439  1.6817 -0.6565
  381MOL0     H51375   4.880  10.066   9.295 -0.3424  0.4622  1.2108
  381MOL0     H51376   4.724  10.254   9.359  0.4973  0.0177 -0.5582
  381MOL0     H51377   4.680  10.260   9.184  1.6929 -0.3133 -1.1095
  381MOL0     H51378   4.593  10.025   9.198 -0.7464 -1.5604  1.7578
  381MOL0     H51379   4.668   9.995   9.351 -2.4860 -0.9204  1.9130
  381MOL0     H51380   4.428  10.005   9.346 -0.3271  1.6494 -2.2898
  381MOL0     H51381   4.499  10.119   9.456 -3.5828 -2.3763  1.2392
  381MOL0     H51382   4.437  10.299   9.268  0.4516 -1.3837  0.0747
  381MOL0     H51383   4.376  10.155   9.176  1.2736 -3.5425  0.6645
  381MOL0     H51384   4.302  10.265   9.438  0.5548 -1.8911  0.7625
  381MOL0     H51385   4.197  10.128   9.373  0.4449 -1.6792  0.6577
  381MOL0     H51386   4.070  10.157   9.151  1.7024 -0.3157  0.9571
  381MOL0     H51387   3.906  10.433   8.983  0.9744 -0.0162  0.1297
  381MOL0     H51388   3.894  10.263   9.006 -0.1615  0.3770 -1.3943
  381MOL0     H51389   3.748  10.464   9.185  0.9045 -0.0271  0.5616
  381MOL0     H51390   3.726  10.287   9.187  2.2454 -0.8366 -2.4449
  381MOL0     H51391   3.643  10.338   8.941  3.7029 -2.3577  1.4820
  381MOL0     H51392   3.649  10.512   8.999 -2.4892 -0.7499 -3.2447
  381MOL0     H51393   3.439  10.340   9.009 -0.3294 -0.5103  1.0710
  381MOL0     H51394   3.459  10.496   9.102 -1.2709  0.5959  0.7538
  381MOL0     H51395   3.236  10.412   9.077 -2.4927  2.3261  1.0290
  381MOL0     H51396   3.010  10.487   9.062 -1.6396  2.4918  2.2511
  381MOL0     H51397   2.931  10.326   9.051 -0.6915 -1.2947  1.8179
  381MOL0     H51398   2.892  10.445   9.176  0.9889 -0.2560  3.4032
  381MOL0     H51399   2.652  10.246   9.490 -1.5139 -0.0615  0.7304
  381MOL0     H51400   2.468  10.133   9.597  0.1865  0.7629  0.5988
  381MOL0     H51401   2.563   9.732   9.734  0.5213 -2.4881  2.1203
  381MOL0     H51402   2.512   9.785   9.897  1.4334  0.8301 -0.2407
  381MOL0     H51403   2.315   9.709   9.691 -1.7045 -0.1684  0.1247
  381MOL0     H51404   2.377   9.603   9.808  0.4636 -0.4211  0.7435
  381MOL0     H51405   2.235   9.863   9.881 -0.9729  0.4232  1.2559
  381MOL0     H51406   2.297   9.753  10.001 -0.6751 -0.1242 -0.1058
  381MOL0     H51407   2.100   9.628   9.803  0.4152 -1.4166  0.4391
  381MOL0     H51408   2.167   9.586   9.965 -2.6725 -1.4873  0.0262
  381MOL0     H51409   1.965   9.824   9.907 -2.1070  0.6713  2.2800
  381MOL0     H51410   2.038   9.772  10.066  5.1290 -1.6535 -0.3596
  381MOL0     H51411   1.847   9.611   9.900  2.3296 -0.8397 -0.4373
  381MOL0     H51412   1.933   9.574  10.054  1.4098  0.0305 -0.8523
  381MOL0     H51413   1.707   9.793  10.022  1.7883  0.3389 -0.7209
  381MOL0     H51414   1.816   9.789  10.151 -4.0992 -0.8741  1.5428
  381MOL0     H51415   1.771   9.557  10.203  1.2372  1.8397  0.2031
  381MOL0     H51416   1.639   9.551  10.089 -1.6579  0.9189  0.8443
  381MOL0     H51417   2.756   9.870   9.802  2.5096 -2.0851 -2.0153
  381MOL0     H51418   2.933   9.982   9.682  0.0846  1.8408  1.3300
  381MOL0     H51419   3.164  10.158   9.488 -1.5611 -1.4906 -0.6851
  381MOL0     H51420   3.393  10.207   9.393  0.4576  0.6352 -2.7020
  381MOL0     H51421   5.230  10.181   8.943 -1.1224 -0.3810  2.8384
  381MOL0     H51422   5.433  10.135   8.831  0.0141  4.5162 -1.9049
  381MOL0     H51423   6.001  10.433   8.899  2.1021  1.5514 -2.0646
  381MOL0     H51424   6.206  10.398   8.772 -0.3414  1.0180  0.8136
  381MOL0     H51425   6.389  10.361   8.625  0.8598 -0.7293 -1.4071
  381MOL0     H51426   6.384  10.240   8.747  1.7912  0.3238  1.0116
  381MOL0     H51427   6.533  10.103   8.631 -1.7984  0.2763  0.5131
  381MOL0     H51428   6.588  10.263   8.579  0.2618 -0.2965  2.3274
  381MOL0     H51429   6.440  10.235   8.381  1.3533  0.7378  0.6154
  381MOL0     H51430   6.415  10.067   8.432 -0.8606  0.0824  2.6086
  381MOL0     H51431   6.586  10.124   8.232  3.6917  2.8986 -0.7476
  381MOL0     H51432   6.659  10.030   8.359  2.4501  1.3412  0.8131
  381MOL0     H51433   6.893  10.360   8.400 -0.7946 -0.1747  1.4164
  381MOL0     H51434   6.027  10.065   8.574 -3.8113 -1.3521  0.3137
  381MOL0     H51435   5.829  10.089   8.708  1.1369 -2.5458 -0.0742
  382MOL0     O51436  11.084  10.505   9.133  0.0789  0.3399  0.3818
  382MOL0     C51437  11.164  10.480   9.224  0.3122 -0.6259  0.2173
  382MOL0     O51438  11.125  10.422   9.343 -0.0640  0.0198  1.2193
  382MOL0     C51439  10.999  10.355   9.356  0.2908  0.2286 -1.2458
  382MOL0     C51440  10.937  10.274   9.258 -0.8984  0.1604 -0.0994
  382MOL0     C51441  10.811  10.212   9.281 -0.0104  0.1841  0.3878
  382MOL0     C51442  10.749  10.215   9.406  0.2352  0.7726  0.6941
  382MOL0     O51443  10.645  10.136   9.442 -0.4172 -0.7158 -0.1790
  382MOL0     C51444  10.550  10.093   9.346  0.3178 -0.1147  0.2556
  382MOL0     C51445  10.428  10.051   9.426  0.6725  0.3153  0.1202
  382MOL0     C51446  10.426   9.905   9.469 -0.1493 -0.6859 -0.2600
  382MOL0     C51447  10.281   9.858   9.460 -0.0340 -0.1658 -0.6665
  382MOL0     C51448  10.264   9.732   9.370  0.4692 -0.3873 -0.5457
  382MOL0     C51449  10.116   9.687   9.383  0.1765 -0.7173 -0.1622
  382MOL0     C51450  10.082   9.621   9.514 -0.3531 -0.7436  0.4326
  382MOL0     C51451  10.158   9.497   9.556 -0.9388  0.2548  0.0924
  382MOL0     N51452  10.075   9.373   9.531 -0.1797  0.2498 -0.4712
  382MOL0     C51453  10.010   9.297   9.627 -0.2843  0.4444 -0.8286
  382MOL0     C51454   9.966   9.189   9.551 -0.3929 -0.0854  0.1730
  382MOL0     C51455   9.910   9.064   9.615  0.1144 -0.2243  0.4971
  382MOL0     C51456   9.763   9.059   9.566  0.9635 -0.4816  0.8000
  382MOL0     C51457   9.748   9.047   9.413 -0.3803  0.2297 -0.2100
  382MOL0     C51458   9.640   8.947   9.373  0.4381 -0.0629 -0.1240
  382MOL0     O51459   9.509   9.016   9.390 -0.6264 -0.4247 -0.0267
  382MOL0     C51460   9.403   8.981   9.315 -0.5413 -0.0422  0.3163
  382MOL0     C51461   9.296   9.068   9.315 -0.4499  0.0877  0.1884
  382MOL0     C51462   9.168   9.039   9.242  0.0727  0.3462  0.3036
  382MOL0     C51463   9.066   9.149   9.242 -0.6297 -0.7016 -0.3714
  382MOL0     C51464   9.162   8.925   9.166  0.4395  0.9502  0.4059
  382MOL0     C51465   9.054   8.868   9.071 -0.6135 -0.6210  0.2752
  382MOL0     O51466   9.041   8.736   9.066  1.0200 -0.1350 -0.1619
  382MOL0     C51467   8.965   8.689   8.964 -0.9922 -0.4569 -0.3919
  382MOL0     C51468   8.835   8.713   8.937  0.2102  0.2898 -0.9287
  382MOL0     C51469   8.770   8.671   8.825  0.3892  0.3340  0.4329
  382MOL0     C51470   8.840   8.604   8.725  0.8060 -0.4294  0.5459
  382MOL0     O51471   8.795   8.588   8.594  0.0828  0.3442 -0.0269
  382MOL0     C51472   8.666   8.637   8.571  0.9900 -0.5887  0.1932
  382MOL0     C51473   8.551   8.543   8.605  0.3266  0.7327  0.8142
  382MOL0     C51474   8.419   8.592   8.540  0.1165  0.4497 -0.6031
  382MOL0     C51475   8.323   8.470   8.514 -0.1060  0.7832 -0.3654
  382MOL0     C51476   8.194   8.518   8.460  1.0742 -0.7905 -0.8711
  382MOL0     C51477   8.106   8.397   8.428 -1.0031 -0.8540 -0.6306
  382MOL0     C51478   7.960   8.444   8.393  0.1479 -0.1340  0.1396
  382MOL0     C51479   7.866   8.332   8.378  0.1696  0.6139 -0.0529
  382MOL0    Cl51480   7.835   8.271   8.535  0.1279 -0.1142  0.1406
  382MOL0     C51481   8.969   8.579   8.749 -0.2702  0.1305 -0.5231
  382MOL0     C51482   9.032   8.619   8.870 -0.2672  0.4593  0.4582
  382MOL0     O51483   8.996   8.951   9.004  0.0780  0.3035 -0.7942
  382MOL0     C51484   9.273   8.843   9.171 -0.5891  0.4709 -0.4991
  382MOL0     C51485   9.388   8.866   9.249 -0.3196  0.6893 -0.2273
  382MOL0     N51486  10.031   9.192   9.426 -0.1588 -0.3590 -0.0055
  382MOL0     N51487  10.089   9.308   9.415 -0.3602 -0.7298 -0.4562
  382MOL0     C51488  10.808  10.297   9.499  0.2969 -0.5554 -0.4838
  382MOL0     C51489  10.923  10.374   9.471 -0.2259  0.1635 -0.5768
  382MOL0     C51490  11.304  10.532   9.201 -0.4683 -0.5174  0.1404
  382MOL0     C51491  11.399  10.523   9.310 -0.9164 -0.3273  0.7723
  382MOL0     C51492  11.529  10.571   9.293 -1.0517  0.2956 -0.1523
  382MOL0     C51493  11.571  10.637   9.172 -0.1415  0.0344 -0.0571
  382MOL0     O51494  11.699  10.662   9.157  0.1229 -0.1765 -0.1779
  382MOL0     C51495  11.739  10.796   9.180 -0.2926  0.0367 -1.2157
  382MOL0     C51496  11.829  10.811   9.303 -0.1146 -0.1311  0.0713
  382MOL0     C51497  11.976  10.786   9.257  0.1274  0.4344 -1.0286
  382MOL0     C51498  12.062  10.766   9.374 -0.1361 -0.6262 -0.7808
  382MOL0     C51499  12.062  10.875   9.474  0.2602 -0.1070  0.4044
  382MOL0     C51500  12.071  10.970   9.555  0.2180  0.1947 -0.9959
  382MOL0     C51501  11.473  10.658   9.077  0.5181 -0.0047  0.3868
  382MOL0     C51502  11.340  10.609   9.084  1.0495  0.5015 -0.8158
  382MOL0     H51503  10.999  10.241   9.176 -0.2674 -0.8595  0.7640
  382MOL0     H51504  10.772  10.158   9.195  1.8901  1.8943 -1.6463
  382MOL0     H51505  10.520  10.180   9.286  1.1263  0.2937  0.4350
  382MOL0     H51506  10.589  10.022   9.273  0.4486 -0.3302  0.5341
  382MOL0     H51507  10.422  10.102   9.523 -1.4071 -1.6083  1.0876
  382MOL0     H51508  10.337  10.076   9.371  0.0553 -1.4324  0.2828
  382MOL0     H51509  10.492   9.846   9.406 -1.7352 -1.1690 -1.5392
  382MOL0     H51510  10.459   9.903   9.573 -0.8348  0.8179  0.0073
  382MOL0     H51511  10.255   9.839   9.564  2.9864 -0.5049  0.1305
  382MOL0     H51512  10.213   9.931   9.416 -0.0227  0.1448 -0.1670
  382MOL0     H51513  10.278   9.766   9.267 -1.6711  3.2895  0.1760
  382MOL0     H51514  10.342   9.657   9.387  1.3089  0.5765  0.0047
  382MOL0     H51515  10.043   9.765   9.360 -0.2626 -0.8165  0.8438
  382MOL0     H51516  10.092   9.616   9.303 -0.5203 -0.9018  0.2061
  382MOL0     H51517  10.090   9.690   9.599 -1.4641  0.9791 -0.7990
  382MOL0     H51518   9.975   9.599   9.504 -0.9314  1.2109  1.6684
  382MOL0     H51519  10.186   9.512   9.660 -0.7384  0.9442 -0.0602
  382MOL0     H51520  10.247   9.497   9.492 -1.7455 -1.2045 -1.1015
  382MOL0     H51521   9.987   9.311   9.732 -2.2503  0.0874 -1.1719
  382MOL0     H51522   9.964   8.977   9.575  0.6567 -1.0942  2.9567
  382MOL0     H51523   9.914   9.063   9.724 -0.7867 -1.2444  0.5334
  382MOL0     H51524   9.712   9.152   9.590  0.8648  0.2944 -2.0868
  382MOL0     H51525   9.711   8.980   9.622 -1.2913  0.0971 -0.3804
  382MOL0     H51526   9.843   9.009   9.375 -1.2783 -2.5105  0.0179
  382MOL0     H51527   9.722   9.143   9.368 -1.6371  0.5798  1.1783
  382MOL0     H51528   9.649   8.858   9.437 -0.1748  0.6894  1.0453
  382MOL0     H51529   9.647   8.914   9.269  1.4086  0.6502 -0.3014
  382MOL0     H51530   9.296   9.161   9.370 -2.5984  0.8899 -1.0397
  382MOL0     H51531   8.974   9.099   9.211  0.1932 -3.1702  0.8670
  382MOL0     H51532   9.056   9.192   9.342  1.4815 -1.4859  0.2275
  382MOL0     H51533   9.088   9.222   9.164  0.4524  0.5088  1.0158
  382MOL0     H51534   8.795   8.787   9.006  0.4534  0.7387 -1.2620
  382MOL0     H51535   8.676   8.725   8.816 -0.0588 -0.4849  0.1560
  382MOL0     H51536   8.652   8.740   8.605 -0.4858 -0.8561  0.4600
  382MOL0     H51537   8.662   8.643   8.461 -2.0740 -1.1806  0.2085
  382MOL0     H51538   8.580   8.442   8.577 -2.0168  0.6146 -1.4756
  382MOL0     H51539   8.536   8.538   8.714 -0.6456 -0.3447  0.6407
  382MOL0     H51540   8.442   8.641   8.445  2.7413  1.5286  0.4954
  382MOL0     H51541   8.374   8.666   8.607 -0.5859  0.8737 -1.5242
  382MOL0     H51542   8.371   8.405   8.441 -1.6113 -1.3733  0.4556
  382MOL0     H51543   8.300   8.423   8.610  0.0279 -0.4302 -0.9167
  382MOL0     H51544   8.203   8.568   8.363 -1.6436 -0.2434 -0.9097
  382MOL0     H51545   8.150   8.586   8.534 -1.3985 -1.5413 -1.5548
  382MOL0     H51546   8.151   8.339   8.348 -1.7741 -1.6475 -0.5157
  382MOL0     H51547   8.101   8.334   8.518 -1.8759 -0.0480 -0.0970
  382MOL0     H51548   7.959   8.501   8.300 -0.9355  1.1293  0.8823
  382MOL0     H51549   7.925   8.521   8.463 -1.0001  1.3531 -1.9828
  382MOL0     H51550   7.915   8.261   8.310 -3.3656 -0.9677 -1.1803
  382MOL0     H51551   7.778   8.352   8.317  1.4646 -1.9634 -3.0588
  382MOL0     H51552   9.021   8.547   8.659  3.8907 -0.8341  1.9727
  382MOL0     H51553   9.140   8.617   8.885 -0.6017 -0.2896  3.5601
  382MOL0     H51554   9.280   8.763   9.099  0.2908  0.0733  0.0158
  382MOL0     H51555   9.465   8.789   9.250 -2.1585 -1.2664 -1.5023
  382MOL0     H51556  10.755  10.300   9.594  0.7636 -1.6488 -0.1705
  382MOL0     H51557  10.967  10.426   9.556 -0.2001 -3.5167  1.8746
  382MOL0     H51558  11.378  10.485   9.409  1.3591 -0.6801  1.1835
  382MOL0     H51559  11.601  10.558   9.373 -3.0132 -4.0352  1.1704
  382MOL0     H51560  11.791  10.844   9.096 -2.9180  1.9958 -1.8656
  382MOL0     H51561  11.648  10.856   9.191  0.5727  1.0363  1.1070
  382MOL0     H51562  11.794  10.742   9.381  0.0716 -0.6554 -0.3065
  382MOL0     H51563  11.827  10.919   9.322 -3.4689  0.3813 -2.2049
  382MOL0     H51564  12.017  10.876   9.211 -1.4062  1.3244 -0.7232
  382MOL0     H51565  11.997  10.705   9.187  1.9892  1.6150 -1.9155
  382MOL0     H51566  12.165  10.757   9.338  0.4543 -0.7086  0.8685
  382MOL0     H51567  12.044  10.672   9.426  0.7275 -1.8003 -2.5148
  382MOL0     H51568  12.067  11.050   9.627 -2.2943 -0.2997 -0.5208
  382MOL0     H51569  11.501  10.709   8.986 -2.0606  1.6411  0.4214
  382MOL0     H51570  11.277  10.623   8.997 -1.0452 -0.5655  0.4703
  383MOL0     O51571   8.644   9.656   8.877 -0.4089  1.1039 -0.2829
  383MOL0     C51572   8.662   9.551   8.942  0.0040 -0.0714  0.4484
  383MOL0     O51573   8.563   9.469   8.989 -0.7866  0.3629 -0.7492
  383MOL0     C51574   8.437   9.491   8.944  0.2276 -0.4558  0.9207
  383MOL0     C51575   8.341   9.555   9.027 -0.7621 -0.2731 -0.9559
  383MOL0     C51576   8.207   9.565   8.987  0.0018 -0.1668  0.7101
  383MOL0     C51577   8.161   9.523   8.857 -0.3860 -0.0445  0.3101
  383MOL0     O51578   8.036   9.527   8.808  0.4422 -0.1092 -0.3115
  383MOL0     C51579   7.935   9.589   8.893 -0.9020  0.8343  0.1770
  383MOL0     C51580   7.803   9.610   8.821  0.9188 -0.5912 -0.4759
  383MOL0     C51581   7.677   9.631   8.916 -0.3365 -0.2754 -0.7466
  383MOL0     C51582   7.689   9.726   9.029  0.5204  0.0635 -0.3447
  383MOL0     C51583   7.550   9.749   9.101  0.1878  0.9113 -0.2751
  383MOL0     C51584   7.427   9.780   9.015 -0.1858  0.5986 -0.1682
  383MOL0     C51585   7.302   9.797   9.105  0.0839  0.0113  0.3645
  383MOL0     C51586   7.172   9.798   9.034  0.0715  0.7508 -0.1982
  383MOL0     N51587   7.055   9.843   9.116 -0.4755 -0.0663  0.5402
  383MOL0     C51588   7.013   9.976   9.141  0.0273 -0.1011 -0.0716
  383MOL0     C51589   6.905   9.961   9.213  1.0543 -0.8247  0.8059
  383MOL0     C51590   6.831  10.077   9.279 -0.3292 -0.8673 -1.1777
  383MOL0     C51591   6.681  10.073   9.257 -0.1793 -0.3626  0.1520
  383MOL0     C51592   6.597   9.974   9.350 -0.8054 -0.3590 -0.7589
  383MOL0     C51593   6.478  10.043   9.411  0.1305  0.3978 -0.2588
  383MOL0     O51594   6.369  10.054   9.320  0.3121  0.6056  0.0841
  383MOL0     C51595   6.245  10.081   9.368  0.1316 -0.4443 -0.2102
  383MOL0     C51596   6.138  10.092   9.282  0.3805  0.2470  0.4405
  383MOL0     C51597   6.015  10.140   9.318 -0.5350 -0.3348  0.3846
  383MOL0     C51598   5.912  10.165   9.208 -0.5072 -0.8150  0.6460
  383MOL0     C51599   5.993  10.177   9.459  0.0828  0.8978  0.3226
  383MOL0     C51600   5.873  10.250   9.516 -0.5194  0.5053 -0.9894
  383MOL0     O51601   5.893  10.319   9.626 -0.2310 -0.4591 -0.3360
  383MOL0     C51602   5.791  10.384   9.694  0.3990  0.4732 -0.1937
  383MOL0     C51603   5.808  10.508   9.749 -0.6307  0.1622 -0.2351
  383MOL0     C51604   5.702  10.570   9.821 -0.5634 -1.4111  0.6223
  383MOL0     C51605   5.582  10.504   9.840 -0.6480  0.2457 -0.0667
  383MOL0     O51606   5.466  10.563   9.879  0.8398 -0.5064  0.9465
  383MOL0     C51607   5.474  10.687   9.949  0.5716 -0.3775  0.0704
  383MOL0     C51608   5.351  10.703  10.028  0.9623 -0.4163 -0.4713
  383MOL0     C51609   5.232  10.721   9.927  0.7259 -0.2007  0.5506
  383MOL0     C51610   5.106  10.792   9.996 -0.1506 -0.1713 -0.0836
  383MOL0     C51611   5.129  10.932  10.041  0.3832  0.1990  0.3938
  383MOL0     C51612   5.001  10.972  10.123 -1.3795  0.3663 -0.2397
  383MOL0     C51613   5.006  11.111  10.171  0.8770 -0.1509  0.3254
  383MOL0     C51614   5.003  11.223  10.064  0.1298  0.1339 -0.8152
  383MOL0    Cl51615   4.940  11.367  10.142 -0.1937 -0.4428 -0.2623
  383MOL0     C51616   5.568  10.378   9.790 -0.3693 -0.0351 -0.0119
  383MOL0     C51617   5.676  10.315   9.725 -0.8375 -0.5400  0.5625
  383MOL0     O51618   5.771  10.250   9.450 -0.3485 -0.0900 -0.4686
  383MOL0     C51619   6.105  10.168   9.543 -0.0224  0.6015  0.2704
  383MOL0     C51620   6.226  10.117   9.497 -0.0619 -0.5659 -0.3609
  383MOL0     N51621   6.873   9.831   9.216 -0.1174 -0.1199 -0.2821
  383MOL0     N51622   6.963   9.758   9.159 -0.0498  0.6676  0.4398
  383MOL0     C51623   8.263   9.471   8.773  0.0083  0.2748  0.0953
  383MOL0     C51624   8.397   9.455   8.813 -0.5585  0.9165 -0.0901
  383MOL0     C51625   8.804   9.498   8.938 -0.0331  0.5975  0.0274
  383MOL0     C51626   8.830   9.360   8.938 -0.0544 -0.0798 -0.1194
  383MOL0     C51627   8.969   9.312   8.922  0.7536  0.5845 -0.3285
  383MOL0     C51628   9.068   9.404   8.909 -0.8644 -0.1213 -0.1062
  383MOL0     O51629   9.200   9.366   8.894 -0.3484 -0.2240 -0.0765
  383MOL0     C51630   9.250   9.235   8.914 -0.2258 -0.1281  0.6312
  383MOL0     C51631   9.406   9.236   8.897  0.8279 -0.8682  0.5699
  383MOL0     C51632   9.469   9.122   8.982  0.1295 -0.6802  0.2364
  383MOL0     C51633   9.616   9.115   8.951 -0.1211 -0.7418 -0.5348
  383MOL0     C51634   9.696   9.199   9.047 -0.0448  0.5479 -0.9673
  383MOL0     C51635   9.769   9.255   9.131 -1.1603 -0.1059  0.7622
  383MOL0     C51636   9.047   9.540   8.905  1.1780  0.5183  0.2192
  383MOL0     C51637   8.911   9.584   8.923 -0.3151  0.5568  0.5674
  383MOL0     H51638   8.368   9.590   9.126 -0.3119  2.0584 -1.8251
  383MOL0     H51639   8.142   9.608   9.063 -0.2007  0.6900  0.0757
  383MOL0     H51640   7.924   9.523   8.979  2.0150  2.9336  2.4142
  383MOL0     H51641   7.972   9.682   8.940  2.4422 -1.2713  2.1818
  383MOL0     H51642   7.824   9.702   8.766  1.7974 -0.2713  0.3680
  383MOL0     H51643   7.777   9.525   8.756 -2.9043  1.6652 -2.2161
  383MOL0     H51644   7.600   9.668   8.848  0.5264 -0.3301 -1.7755
  383MOL0     H51645   7.647   9.533   8.955 -0.8049 -1.3351 -3.5475
  383MOL0     H51646   7.759   9.692   9.106 -0.5302  2.0088  1.5458
  383MOL0     H51647   7.725   9.822   8.990  0.3391  0.7165  1.0291
  383MOL0     H51648   7.525   9.654   9.149 -0.3164  0.6714 -0.9898
  383MOL0     H51649   7.557   9.822   9.182  1.1787  1.4171 -0.7933
  383MOL0     H51650   7.434   9.878   8.966  2.7253  1.1880  1.1998
  383MOL0     H51651   7.405   9.698   8.947 -2.8118  0.6795  0.4565
  383MOL0     H51652   7.293   9.725   9.186 -0.5644  1.0263  1.2213
  383MOL0     H51653   7.305   9.894   9.155  1.2734 -0.9885  2.3722
  383MOL0     H51654   7.156   9.693   9.010  1.5750  0.4326  0.1451
  383MOL0     H51655   7.192   9.849   8.939  0.1104 -2.6283 -2.1526
  383MOL0     H51656   7.075  10.060   9.111 -0.7870  0.0887 -1.3061
  383MOL0     H51657   6.855  10.069   9.385  0.2211  1.6583 -1.0556
  383MOL0     H51658   6.867  10.167   9.227 -1.2544  0.1058 -0.1620
  383MOL0     H51659   6.658  10.050   9.152 -1.8753 -2.3588  0.8868
  383MOL0     H51660   6.656  10.176   9.284 -2.7498 -1.1210  0.9736
  383MOL0     H51661   6.666   9.940   9.428 -1.1107 -2.6178 -1.4161
  383MOL0     H51662   6.574   9.882   9.296 -0.6482 -0.8096 -0.0808
  383MOL0     H51663   6.518  10.138   9.448  4.2637 -1.0257 -0.5849
  383MOL0     H51664   6.459   9.978   9.498  0.5302  2.6802  1.6416
  383MOL0     H51665   6.183  10.062   9.188  2.0319 -1.4199  1.7019
  383MOL0     H51666   5.824  10.105   9.233 -0.2984 -1.5652 -0.3346
  383MOL0     H51667   5.869  10.263   9.187  0.0251 -0.9961 -1.5824
  383MOL0     H51668   5.954  10.132   9.112 -1.4286 -1.9235  0.6056
  383MOL0     H51669   5.904  10.556   9.730 -0.7210  0.3961 -0.0988
  383MOL0     H51670   5.716  10.675   9.842 -0.4379 -1.5070  1.0379
  383MOL0     H51671   5.565  10.684  10.010  0.3502 -2.4494  0.3777
  383MOL0     H51672   5.475  10.769   9.877  1.4391 -2.9980 -3.1661
  383MOL0     H51673   5.325  10.616  10.089 -4.4344 -0.7928 -2.7257
  383MOL0     H51674   5.367  10.791  10.090  0.3264 -2.0415  2.1600
  383MOL0     H51675   5.202  10.620   9.896  0.2266 -0.1843  0.9567
  383MOL0     H51676   5.255  10.778   9.836 -2.6948 -0.7962 -0.8696
  383MOL0     H51677   5.023  10.792   9.924 -0.8621  0.4161  0.7282
  383MOL0     H51678   5.082  10.722  10.076 -0.4597 -0.1530 -0.1583
  383MOL0     H51679   5.147  10.997   9.955 -4.5111  0.8448 -0.4381
  383MOL0     H51680   5.212  10.942  10.111  1.5915  1.9330 -1.1668
  383MOL0     H51681   4.910  10.971  10.062 -1.0048  0.4213 -0.8090
  383MOL0     H51682   4.996  10.904  10.208 -1.0245  0.5811 -0.0424
  383MOL0     H51683   5.091  11.115  10.241  0.4792 -0.1172  0.8144
  383MOL0     H51684   4.908  11.123  10.218  0.2152 -0.4658 -0.9317
  383MOL0     H51685   4.933  11.191   9.986 -1.0207  0.2545  0.1283
  383MOL0     H51686   5.104  11.243  10.029  1.2525 -2.2244  0.8427
  383MOL0     H51687   5.473  10.327   9.805 -0.5437 -0.3190 -1.7936
  383MOL0     H51688   5.661  10.216   9.684  2.0894 -1.3166  1.1692
  383MOL0     H51689   6.095  10.194   9.647  0.7265  2.1746 -0.0251
  383MOL0     H51690   6.303  10.129   9.573 -1.6776  1.3353  1.0842
  383MOL0     H51691   8.234   9.428   8.678 -0.2915  0.2103  0.2145
  383MOL0     H51692   8.460   9.393   8.751 -2.7538 -2.2244  0.5674
  383MOL0     H51693   8.761   9.277   8.938  0.8258 -0.9567 -3.0420
  383MOL0     H51694   8.973   9.205   8.939  0.3880  0.8429  1.6003
  383MOL0     H51695   9.238   9.197   9.015  3.5866 -4.2237 -0.1402
  383MOL0     H51696   9.203   9.175   8.835  0.0469 -0.6029  0.8252
  383MOL0     H51697   9.443   9.336   8.922 -1.7105  0.0981  0.7747
  383MOL0     H51698   9.423   9.221   8.790 -3.6091 -0.2888 -0.4159
  383MOL0     H51699   9.439   9.025   8.943  0.4185 -0.7800  0.2564
  383MOL0     H51700   9.454   9.132   9.090  1.4816  0.7626  0.3365
  383MOL0     H51701   9.652   9.137   8.850 -0.0387  3.3218  0.2207
  383MOL0     H51702   9.650   9.013   8.975 -2.9852 -1.3394  1.4752
  383MOL0     H51703   9.821   9.298   9.214 -2.2720  2.9920 -0.0331
  383MOL0     H51704   9.128   9.611   8.893 -0.1412  1.9573 -0.6216
  383MOL0     H51705   8.879   9.686   8.905 -0.3837  0.0183 -3.0672
  384MOL0     O51706  10.358  11.220   1.772  0.5374 -0.5631  0.0425
  384MOL0     C51707  10.454  11.290   1.799  0.5265 -0.2361  0.1951
  384MOL0     O51708  10.441  11.424   1.836 -0.2466 -0.0987  0.6866
  384MOL0     C51709  10.315  11.477   1.862 -0.4184  0.0651 -0.9621
  384MOL0     C51710  10.248  11.558   1.773  0.7613  0.2388 -0.4867
  384MOL0     C51711  10.112  11.600   1.797  0.4208  0.3302 -0.4836
  384MOL0     C51712  10.049  11.560   1.916  0.3429  0.1381  0.6498
  384MOL0     O51713   9.923  11.608   1.949 -0.3389 -0.1219 -0.3561
  384MOL0     C51714   9.814  11.588   1.858  0.6861 -0.0420 -0.6553
  384MOL0     C51715   9.690  11.566   1.948  0.9040 -0.8548 -0.2858
  384MOL0     C51716   9.567  11.519   1.862  0.2885  0.9959 -0.6197
  384MOL0     C51717   9.518  11.631   1.769 -0.0859 -0.2079 -0.6964
  384MOL0     C51718   9.405  11.583   1.679 -0.2792  0.2167  0.3519
  384MOL0     C51719   9.279  11.565   1.755 -1.4691  0.4946  0.0435
  384MOL0     C51720   9.159  11.490   1.677 -0.5929  0.0085 -0.1511
  384MOL0     C51721   9.146  11.495   1.521 -0.2291 -0.1949 -0.0717
  384MOL0     N51722   9.076  11.381   1.465  0.5788  0.4094  0.2057
  384MOL0     C51723   8.943  11.366   1.460 -0.6125  0.1402  0.3923
  384MOL0     C51724   8.925  11.246   1.398 -0.8297  0.2950  1.0927
  384MOL0     C51725   8.790  11.187   1.352 -0.5037  0.4553 -0.0466
  384MOL0     C51726   8.722  11.110   1.458  0.2367  0.2999 -0.1841
  384MOL0     C51727   8.596  11.051   1.397 -0.9796 -0.1311  0.4259
  384MOL0     C51728   8.504  11.002   1.509  0.2778  0.3009 -0.0048
  384MOL0     O51729   8.375  10.968   1.460 -0.1410  0.7287  0.6077
  384MOL0     C51730   8.289  10.884   1.530 -0.7963 -0.2154  0.0525
  384MOL0     C51731   8.291  10.868   1.670 -0.8132  0.3441  0.0279
  384MOL0     C51732   8.202  10.771   1.725 -0.0673 -0.9260  0.9267
  384MOL0     C51733   8.227  10.735   1.868 -0.0638 -0.3475 -0.7302
  384MOL0     C51734   8.112  10.697   1.639  0.4721  0.1186 -0.1910
  384MOL0     C51735   7.996  10.611   1.694 -1.6753  0.3669 -0.8543
  384MOL0     O51736   7.923  10.533   1.609  0.9136  0.3574 -0.2477
  384MOL0     C51737   7.816  10.459   1.648 -0.5132  0.1819 -0.0174
  384MOL0     C51738   7.691  10.495   1.608  0.2985  0.8271  0.0393
  384MOL0     C51739   7.577  10.431   1.650  0.1516  0.7350 -0.4851
  384MOL0     C51740   7.588  10.313   1.719 -0.7809  0.8675 -0.2702
  384MOL0     O51741   7.478  10.243   1.738 -0.8295  0.4926  0.4743
  384MOL0     C51742   7.498  10.101   1.753  0.0836 -0.5184  0.0355
  384MOL0     C51743   7.461  10.056   1.888 -0.3157 -0.0093 -0.5673
  384MOL0     C51744   7.314  10.098   1.927  0.3730  0.3602  0.0585
  384MOL0     C51745   7.262  10.008   2.044  0.1162  0.4225 -0.6700
  384MOL0     C51746   7.115  10.053   2.080  0.3712  0.7291  1.0111
  384MOL0     C51747   7.051   9.932   2.154 -0.3671  0.0667 -0.0541
  384MOL0     C51748   6.943   9.999   2.243 -0.6923 -0.0365 -0.2489
  384MOL0     C51749   6.885   9.893   2.334  0.7198  1.6211  0.6266
  384MOL0    Cl51750   6.759   9.793   2.251 -0.2815  0.0240 -0.1485
  384MOL0     C51751   7.720  10.280   1.774 -0.1099 -0.8025  0.2881
  384MOL0     C51752   7.834  10.350   1.737  0.0663  0.0503 -0.1996
  384MOL0     O51753   7.965  10.640   1.809 -0.3673  0.1321  0.4231
  384MOL0     C51754   8.116  10.714   1.509 -0.5202  1.6565 -1.1297
  384MOL0     C51755   8.204  10.810   1.452  0.1956  0.3293 -0.4747
  384MOL0     N51756   9.050  11.188   1.355 -1.0182  0.8857 -0.3414
  384MOL0     N51757   9.131  11.274   1.408 -0.5291  0.7344  0.5420
  384MOL0     C51758  10.115  11.486   2.008 -0.9309  0.0512 -0.7860
  384MOL0     C51759  10.247  11.442   1.978  0.0277 -0.0005  0.0005
  384MOL0     C51760  10.595  11.246   1.777 -0.2150 -1.2379  0.3949
  384MOL0     C51761  10.700  11.315   1.838 -0.4691 -0.0738 -0.2169
  384MOL0     C51762  10.836  11.275   1.818  0.3185 -0.1155  0.2362
  384MOL0     C51763  10.869  11.175   1.725 -0.7293  0.0207  0.0983
  384MOL0     O51764  10.998  11.157   1.713  0.2453 -0.3093 -0.4635
  384MOL0     C51765  11.035  11.084   1.593  0.5571 -0.4402  0.2086
  384MOL0     C51766  11.182  11.122   1.572  0.6404  0.1447  0.3177
  384MOL0     C51767  11.265  11.054   1.687  0.0090  0.0973 -0.0802
  384MOL0     C51768  11.409  11.086   1.665 -0.2157  0.6060 -0.7152
  384MOL0     C51769  11.486  10.996   1.754 -0.4262 -0.5753 -0.3459
  384MOL0     C51770  11.574  10.937   1.818  0.5323 -0.7620 -0.4441
  384MOL0     C51771  10.764  11.104   1.664 -0.8821 -0.7153 -0.1210
  384MOL0     C51772  10.631  11.142   1.687 -1.3140  0.3955  0.7913
  384MOL0     H51773  10.295  11.585   1.679 -1.7162  0.3506 -1.7737
  384MOL0     H51774  10.046  11.667   1.743 -3.4303 -0.8233  2.4165
  384MOL0     H51775   9.807  11.679   1.798  4.5907 -1.2133 -3.3218
  384MOL0     H51776   9.836  11.511   1.783  0.9063  0.0752 -0.7103
  384MOL0     H51777   9.702  11.496   2.031 -0.2093 -0.4360  0.2443
  384MOL0     H51778   9.660  11.657   2.000  0.0176 -0.6301 -1.1683
  384MOL0     H51779   9.589  11.429   1.803 -1.5686  0.3599 -0.4066
  384MOL0     H51780   9.498  11.499   1.944 -0.1079 -0.5172 -1.2865
  384MOL0     H51781   9.481  11.709   1.836  2.3549 -0.9042  1.6051
  384MOL0     H51782   9.598  11.679   1.712  2.6038 -1.3017  1.9026
  384MOL0     H51783   9.390  11.660   1.602  0.2886  0.8992  0.9169
  384MOL0     H51784   9.430  11.491   1.624  0.2774 -0.0605  1.0573
  384MOL0     H51785   9.300  11.512   1.849  1.5941 -1.3855 -1.5425
  384MOL0     H51786   9.240  11.662   1.786 -1.6288 -0.0099  1.4864
  384MOL0     H51787   9.179  11.385   1.700  1.2947 -0.4296 -3.2360
  384MOL0     H51788   9.076  11.544   1.723 -1.1811 -0.5289 -0.5769
  384MOL0     H51789   9.241  11.517   1.473 -0.7613  0.5562 -0.8249
  384MOL0     H51790   9.082  11.575   1.482  2.0297  0.8985 -1.7774
  384MOL0     H51791   8.866  11.438   1.487  0.0466  1.5831 -1.3414
  384MOL0     H51792   8.732  11.271   1.313  2.2014  1.0680 -3.1138
  384MOL0     H51793   8.806  11.131   1.260 -1.3234  1.8986 -1.1168
  384MOL0     H51794   8.701  11.177   1.542 -0.9405 -0.6596  0.3177
  384MOL0     H51795   8.786  11.025   1.482  0.2771  0.5203  0.5043
  384MOL0     H51796   8.614  10.960   1.339  1.7284 -0.3949  1.5183
  384MOL0     H51797   8.546  11.132   1.343  0.0945  0.8281  0.8395
  384MOL0     H51798   8.484  11.085   1.576 -3.3451 -1.5361  1.4793
  384MOL0     H51799   8.550  10.923   1.569  2.2257  0.7856 -0.7827
  384MOL0     H51800   8.352  10.925   1.740  0.5952 -0.7008 -0.3272
  384MOL0     H51801   8.323  10.751   1.916 -0.5316 -4.4753  2.0654
  384MOL0     H51802   8.151  10.775   1.936  1.1588 -3.6684  2.9399
  384MOL0     H51803   8.216  10.627   1.879 -2.1618 -0.2748 -1.5214
  384MOL0     H51804   7.676  10.577   1.538  0.5864  0.4518 -0.4719
  384MOL0     H51805   7.482  10.474   1.619  1.5347  3.1063 -1.7721
  384MOL0     H51806   7.436  10.039   1.687 -1.2367  0.7141  0.0709
  384MOL0     H51807   7.601  10.079   1.724  1.0022  2.0671  1.1333
  384MOL0     H51808   7.481   9.949   1.887  1.6937  0.3004 -2.5726
  384MOL0     H51809   7.534  10.097   1.958 -0.7515 -1.3102  0.7025
  384MOL0     H51810   7.258  10.096   1.833  1.5350  0.3673 -0.6534
  384MOL0     H51811   7.305  10.204   1.955 -0.2229  0.2283  0.3892
  384MOL0     H51812   7.259   9.903   2.015  0.6767  0.6179 -1.4778
  384MOL0     H51813   7.332  10.008   2.128 -0.7579  0.8714  0.0673
  384MOL0     H51814   7.061  10.064   1.985  1.2001 -1.9732  0.1016
  384MOL0     H51815   7.102  10.147   2.134  1.4453  0.9480  0.9002
  384MOL0     H51816   7.024   9.849   2.089  0.6315 -1.6708  1.6694
  384MOL0     H51817   7.126   9.886   2.219 -1.9004 -4.1012 -0.9337
  384MOL0     H51818   6.872  10.054   2.180 -0.7564  0.1437 -0.0208
  384MOL0     H51819   6.978  10.085   2.301 -1.6988  1.0006 -1.1254
  384MOL0     H51820   6.853   9.940   2.428 -2.2596 -0.0231  0.5724
  384MOL0     H51821   6.969   9.831   2.365 -1.3177 -0.4292  2.4318
  384MOL0     H51822   7.743  10.193   1.835  3.0244 -0.0383  0.3904
  384MOL0     H51823   7.935  10.337   1.774  0.3118  0.6728 -0.6353
  384MOL0     H51824   8.052  10.669   1.435  0.9138 -0.8399 -0.9688
  384MOL0     H51825   8.206  10.825   1.345 -1.6865  0.6877 -0.4942
  384MOL0     H51826  10.063  11.470   2.102  1.3414 -0.3331  0.4554
  384MOL0     H51827  10.305  11.382   2.047  1.2757  1.0033 -0.1401
  384MOL0     H51828  10.682  11.402   1.900 -0.7817 -0.7396  0.6376
  384MOL0     H51829  10.906  11.348   1.855 -0.7875  0.4085  1.3780
  384MOL0     H51830  11.005  10.979   1.602 -1.4391 -0.0013 -0.7396
  384MOL0     H51831  10.976  11.124   1.510  2.6127  1.0613 -0.5883
  384MOL0     H51832  11.198  11.230   1.575  2.3336 -0.0401 -0.6916
  384MOL0     H51833  11.203  11.079   1.473 -0.6319 -1.8417  0.8623
  384MOL0     H51834  11.242  10.947   1.689  0.8994 -0.2673 -3.4229
  384MOL0     H51835  11.242  11.103   1.782  1.1307 -0.2566  0.3950
  384MOL0     H51836  11.421  11.186   1.707 -2.4723 -0.1786  2.0588
  384MOL0     H51837  11.442  11.063   1.563 -2.6925 -5.1446 -0.5846
  384MOL0     H51838  11.650  10.879   1.867 -1.7573 -2.4850  1.3165
  384MOL0     H51839  10.798  11.019   1.606  2.4031 -0.1529  0.7788
  384MOL0     H51840  10.560  11.077   1.637 -0.8325 -1.3148  2.2554
  385MOL0     O51841   7.994   7.304   9.488  0.3721  0.1049  0.2712
  385MOL0     C51842   8.000   7.190   9.533  0.4572  0.7590  0.4858
  385MOL0     O51843   7.897   7.106   9.551 -0.7069 -0.8756 -0.4725
  385MOL0     C51844   7.766   7.147   9.551  0.2782 -0.5861 -0.6529
  385MOL0     C51845   7.718   7.169   9.429 -0.4487 -0.5037  0.5937
  385MOL0     C51846   7.593   7.215   9.411  0.4842 -0.1493  0.2116
  385MOL0     C51847   7.510   7.240   9.522 -0.5869  0.2877 -0.3851
  385MOL0     O51848   7.386   7.295   9.491 -1.1945 -0.3867  0.4620
  385MOL0     C51849   7.282   7.207   9.539 -0.4208  0.2506 -0.4320
  385MOL0     C51850   7.153   7.294   9.541 -0.0101  1.0478  0.3268
  385MOL0     C51851   7.035   7.214   9.591 -0.2072 -0.4468  0.0017
  385MOL0     C51852   6.916   7.313   9.583  0.3088 -0.1722 -0.5702
  385MOL0     C51853   6.793   7.260   9.655  0.0587  0.1329 -0.0654
  385MOL0     C51854   6.671   7.347   9.619  0.2326 -0.2029  0.0053
  385MOL0     C51855   6.541   7.323   9.711 -0.3576 -0.9448  0.4433
  385MOL0     C51856   6.431   7.412   9.662  0.1562  0.7296 -0.5626
  385MOL0     N51857   6.377   7.347   9.537  0.2795  0.0943  1.0082
  385MOL0     C51858   6.317   7.231   9.509 -0.0321  0.5223 -1.4318
  385MOL0     C51859   6.308   7.217   9.378 -0.0826  0.4445  0.0816
  385MOL0     C51860   6.239   7.111   9.308  0.4238  0.1636 -0.0663
  385MOL0     C51861   6.098   7.138   9.277  0.7638  0.4823  0.1746
  385MOL0     C51862   6.006   7.164   9.399  0.7144 -0.5467  0.7193
  385MOL0     C51863   5.866   7.181   9.365  0.2766 -0.1491 -0.6639
  385MOL0     O51864   5.800   7.232   9.482  0.4589  0.0687  0.0688
  385MOL0     C51865   5.669   7.253   9.461 -0.2608  1.0304 -0.0578
  385MOL0     C51866   5.596   7.205   9.347  0.4580  0.2487 -0.6804
  385MOL0     C51867   5.457   7.202   9.345  0.3549 -1.2055 -1.1298
  385MOL0     C51868   5.379   7.160   9.224 -0.3554 -0.2082 -0.3455
  385MOL0     C51869   5.390   7.264   9.453  0.4739  0.2021 -1.1882
  385MOL0     C51870   5.241   7.274   9.462 -0.3608 -0.0389  0.6692
  385MOL0     O51871   5.159   7.176   9.413  0.2215 -0.1999 -0.4456
  385MOL0     C51872   5.026   7.189   9.395 -0.4992 -0.0100  0.4895
  385MOL0     C51873   4.960   7.311   9.385 -0.4985 -0.6472  0.0819
  385MOL0     C51874   4.830   7.315   9.334  0.4144  0.0785  0.7173
  385MOL0     C51875   4.762   7.189   9.308 -0.0833 -0.2859  0.2864
  385MOL0     O51876   4.631   7.186   9.273  0.5697  0.4081  0.0141
  385MOL0     C51877   4.556   7.299   9.231  0.4312 -0.3740  0.4720
  385MOL0     C51878   4.408   7.245   9.219  0.5740 -0.5491  0.9223
  385MOL0     C51879   4.318   7.357   9.165 -0.6700  0.1996 -0.0457
  385MOL0     C51880   4.176   7.301   9.178 -0.6046 -0.7021 -0.4310
  385MOL0     C51881   4.082   7.410   9.128  0.6081 -0.0831  0.0680
  385MOL0     C51882   3.928   7.362   9.094 -0.2281  0.3623  0.5726
  385MOL0     C51883   3.860   7.478   9.037  0.1513 -0.1387 -0.1191
  385MOL0     C51884   3.712   7.446   9.013 -0.6309  0.1652  0.6276
  385MOL0    Cl51885   3.643   7.600   8.950 -0.6255  0.0953 -0.1583
  385MOL0     C51886   4.828   7.071   9.313  0.0893  0.3480 -0.4103
  385MOL0     C51887   4.963   7.077   9.352  0.6670 -0.1257 -0.2790
  385MOL0     O51888   5.200   7.371   9.523  0.2822 -0.7217  0.0435
  385MOL0     C51889   5.465   7.315   9.562  0.0109  0.0602  0.0463
  385MOL0     C51890   5.604   7.308   9.561 -0.0360  0.4913  0.2680
  385MOL0     N51891   6.360   7.333   9.317 -0.4890  0.4089 -0.1166
  385MOL0     N51892   6.403   7.407   9.417 -0.1562  0.4472 -0.7236
  385MOL0     C51893   7.562   7.214   9.646  0.4613 -0.5609  0.5960
  385MOL0     C51894   7.684   7.161   9.668 -0.2001 -0.4806  0.2789
  385MOL0     C51895   8.136   7.135   9.557 -0.3796 -0.8666 -0.3223
  385MOL0     C51896   8.249   7.214   9.525 -0.1094 -0.2491 -0.0580
  385MOL0     C51897   8.369   7.155   9.548 -0.9011 -0.4704 -0.2356
  385MOL0     C51898   8.397   7.032   9.607 -0.0608  0.2995 -0.3701
  385MOL0     O51899   8.519   6.981   9.617 -0.5981  0.6689  0.7896
  385MOL0     C51900   8.542   6.847   9.681 -0.4672 -0.3843  0.0533
  385MOL0     C51901   8.691   6.819   9.708  0.0243 -0.0857 -0.1605
  385MOL0     C51902   8.749   6.910   9.829 -0.6331  0.8831 -0.2898
  385MOL0     C51903   8.900   6.880   9.870 -0.4206 -0.4292  1.0243
  385MOL0     C51904   8.981   6.952   9.766  0.6452  0.1337  0.5226
  385MOL0     C51905   9.058   6.998   9.692 -0.3599 -0.3522  0.3470
  385MOL0     C51906   8.282   6.964   9.658 -0.3082 -0.2032  0.1299
  385MOL0     C51907   8.152   7.010   9.629 -0.3111 -0.7044  0.3536
  385MOL0     H51908   7.771   7.141   9.338  1.1152 -2.7504  2.0922
  385MOL0     H51909   7.549   7.235   9.313 -2.9467 -0.8329  1.4634
  385MOL0     H51910   7.274   7.114   9.482 -1.6133  1.6070 -2.6336
  385MOL0     H51911   7.309   7.178   9.641  0.1050 -0.4392 -0.7550
  385MOL0     H51912   7.165   7.373   9.616 -1.4652  2.2593 -0.6723
  385MOL0     H51913   7.129   7.341   9.446  1.8787 -0.4248 -0.9609
  385MOL0     H51914   7.029   7.126   9.527 -2.5172 -2.6280  2.9458
  385MOL0     H51915   7.056   7.185   9.694 -0.4192 -1.2944 -0.1862
  385MOL0     H51916   6.936   7.408   9.632  0.8691 -1.4716  1.8826
  385MOL0     H51917   6.882   7.316   9.479 -0.8295 -0.2757 -0.2212
  385MOL0     H51918   6.768   7.156   9.636 -0.3253  0.5220 -1.8931
  385MOL0     H51919   6.804   7.267   9.764 -2.5157  3.0400  0.1569
  385MOL0     H51920   6.707   7.449   9.629 -1.3453  0.2917  1.0583
  385MOL0     H51921   6.642   7.332   9.514  0.5279 -1.4511  0.0853
  385MOL0     H51922   6.524   7.215   9.712 -1.1290 -0.9016 -1.8092
  385MOL0     H51923   6.564   7.347   9.815 -2.0895 -1.1915  0.9056
  385MOL0     H51924   6.468   7.514   9.653 -0.1257  0.6812 -2.5800
  385MOL0     H51925   6.349   7.412   9.735  0.3346 -2.2916 -0.2320
  385MOL0     H51926   6.299   7.151   9.579 -0.3800 -0.7421 -2.9214
  385MOL0     H51927   6.294   7.088   9.216 -2.2003 -1.4087 -1.3896
  385MOL0     H51928   6.252   7.014   9.358  1.0272 -0.5683 -1.5729
  385MOL0     H51929   6.056   7.052   9.224  0.3302 -1.0743  2.8238
  385MOL0     H51930   6.102   7.211   9.196  0.1539  0.4744  0.1363
  385MOL0     H51931   6.051   7.253   9.444  1.1747 -2.2508  3.9539
  385MOL0     H51932   6.018   7.084   9.472  0.0828  0.5466  2.0742
  385MOL0     H51933   5.827   7.082   9.338 -1.3943 -0.2849  1.8923
  385MOL0     H51934   5.865   7.256   9.286  0.2701  1.0802  0.4765
  385MOL0     H51935   5.645   7.168   9.258 -0.4212  5.3333 -3.6743
  385MOL0     H51936   5.445   7.127   9.143 -1.2526  2.9938 -2.5503
  385MOL0     H51937   5.309   7.082   9.255 -2.1416  1.4680  0.0657
  385MOL0     H51938   5.332   7.248   9.180  1.2519 -0.5615 -2.9837
  385MOL0     H51939   4.987   7.414   9.406 -0.4437 -1.3648  4.3905
  385MOL0     H51940   4.795   7.413   9.303 -0.4418 -1.0568 -2.2665
  385MOL0     H51941   4.555   7.377   9.308 -0.6558  2.3836 -2.1393
  385MOL0     H51942   4.594   7.335   9.135 -0.8114 -1.9843 -0.6741
  385MOL0     H51943   4.405   7.163   9.147  4.1653 -0.0434  0.0008
  385MOL0     H51944   4.373   7.199   9.313 -3.2910 -2.2962 -1.1204
  385MOL0     H51945   4.356   7.391   9.068  2.9858 -0.7139  0.8896
  385MOL0     H51946   4.314   7.447   9.227 -1.8095 -0.3577  0.7313
  385MOL0     H51947   4.163   7.212   9.116  2.2444 -0.1530 -2.0183
  385MOL0     H51948   4.154   7.280   9.283  0.2947  1.7772  0.3396
  385MOL0     H51949   4.130   7.456   9.041  0.5834 -3.3962 -1.8583
  385MOL0     H51950   4.072   7.489   9.203  0.2955 -0.2270  0.1805
  385MOL0     H51951   3.944   7.285   9.018  0.5865  3.3336 -2.4852
  385MOL0     H51952   3.876   7.313   9.178 -0.2845  0.1352  0.4092
  385MOL0     H51953   3.901   7.499   8.938 -0.5387 -1.0748 -0.6177
  385MOL0     H51954   3.875   7.565   9.102 -1.5162 -1.5136  2.2747
  385MOL0     H51955   3.656   7.409   9.100  1.4153  1.8088  2.7712
  385MOL0     H51956   3.716   7.370   8.935  0.4911  0.2900  0.5456
  385MOL0     H51957   4.767   6.983   9.298 -1.1393  1.2815 -1.0519
  385MOL0     H51958   5.012   6.981   9.362  0.6343 -0.4151 -2.3820
  385MOL0     H51959   5.419   7.360   9.650  2.4307  1.1206  0.8773
  385MOL0     H51960   5.665   7.332   9.647 -0.1757  0.0929  0.4819
  385MOL0     H51961   7.497   7.228   9.732  2.1574 -0.7378  1.9395
  385MOL0     H51962   7.731   7.142   9.764  4.8473  3.0086 -1.0772
  385MOL0     H51963   8.252   7.314   9.483 -0.6102 -0.4924 -0.6922
  385MOL0     H51964   8.459   7.211   9.523 -0.8046 -1.2705 -1.8106
  385MOL0     H51965   8.487   6.868   9.773  0.3810 -0.1470  0.5171
  385MOL0     H51966   8.494   6.767   9.624 -0.7589 -1.0590  1.2072
  385MOL0     H51967   8.751   6.853   9.623  0.4696  0.5477  0.3958
  385MOL0     H51968   8.707   6.712   9.716 -2.7505 -0.5627 -0.1469
  385MOL0     H51969   8.695   6.887   9.922  1.1016 -1.2015  0.2768
  385MOL0     H51970   8.741   7.012   9.791 -2.7705  0.8455 -0.0972
  385MOL0     H51971   8.926   6.773   9.866 -2.7511 -1.0976  1.8031
  385MOL0     H51972   8.922   6.922   9.968  0.6675 -0.2044  0.6954
  385MOL0     H51973   9.134   7.053   9.640  0.9737 -0.5579  1.9941
  385MOL0     H51974   8.288   6.868   9.709  0.3056  1.6919  4.0232
  385MOL0     H51975   8.077   6.944   9.669 -1.4648 -0.3593 -1.1407
  386MOL0     O51976   9.922   3.683   1.127 -0.6457  0.2798  0.0086
  386MOL0     C51977   9.975   3.578   1.160  0.3281  0.6108  0.1293
  386MOL0     O51978   9.929   3.450   1.132 -0.1594 -0.6167  0.0928
  386MOL0     C51979   9.807   3.425   1.080 -0.6195  0.2614 -0.8331
  386MOL0     C51980   9.787   3.290   1.041  0.3333 -0.0090 -0.1661
  386MOL0     C51981   9.665   3.258   0.979  0.0992 -0.7413 -0.2519
  386MOL0     C51982   9.563   3.352   0.980  0.6449  0.1840  1.2081
  386MOL0     O51983   9.447   3.312   0.912  0.5051  0.6146 -0.6872
  386MOL0     C51984   9.335   3.284   0.991  0.2870  0.5672  0.3755
  386MOL0     C51985   9.209   3.263   0.906 -0.5401  0.0457  0.1047
  386MOL0     C51986   9.157   3.379   0.814  0.8777  0.8297  0.0147
  386MOL0     C51987   9.037   3.337   0.733 -0.9472 -0.0850 -0.2083
  386MOL0     C51988   8.975   3.457   0.649 -0.0332  0.0741 -0.0915
  386MOL0     C51989   8.912   3.421   0.505  0.0778 -0.3963  0.0000
  386MOL0     C51990   8.862   3.552   0.457 -0.6290  0.4634 -0.8127
  386MOL0     C51991   8.747   3.520   0.354 -0.1251 -0.3116 -0.6925
  386MOL0     N51992   8.684   3.640   0.309 -0.5435 -0.5362 -0.2564
  386MOL0     C51993   8.742   3.733   0.227  0.6953 -0.9219 -0.7809
  386MOL0     C51994   8.639   3.808   0.184  0.2657 -0.1634  0.0397
  386MOL0     C51995   8.636   3.907   0.073 -0.1928 -1.1442  0.1762
  386MOL0     C51996   8.606   4.046   0.118 -0.3074  0.3968  0.7898
  386MOL0     C51997   8.618   4.139  -0.009  0.4817 -0.3226  0.3911
  386MOL0     C51998   8.548   4.271   0.001 -0.9649 -0.1972  0.3007
  386MOL0     O51999   8.540   4.324   0.133  0.1401  0.2497 -0.7218
  386MOL0     C52000   8.511   4.458   0.130 -0.4608 -0.4550  0.0925
  386MOL0     C52001   8.611   4.548   0.096 -0.1165 -0.3310 -0.2395
  386MOL0     C52002   8.583   4.682   0.082 -0.2982  0.1981  0.2193
  386MOL0     C52003   8.703   4.767   0.043 -0.3319  0.7937  0.0789
  386MOL0     C52004   8.451   4.734   0.086 -0.7597 -0.5400  0.3969
  386MOL0     C52005   8.412   4.876   0.045  0.0521 -0.5865  0.9270
  386MOL0     O52006   8.293   4.911   0.093 -0.4583 -0.0693  0.5003
  386MOL0     C52007   8.234   5.039   0.074  0.5286  0.2034  0.3595
  386MOL0     C52008   8.095   5.042   0.096 -0.1474 -0.0956  0.0329
  386MOL0     C52009   8.022   5.159   0.067  0.1172 -0.8183  0.6154
  386MOL0     C52010   8.087   5.273   0.015  0.2553 -0.2809  0.4543
  386MOL0     O52011   8.011   5.388  -0.008 -0.6881 -0.2032 -0.0509
  386MOL0     C52012   7.903   5.377  -0.096  0.2331 -0.3568  0.1342
  386MOL0     C52013   7.854   5.526  -0.132 -1.1284 -0.3340 -0.0233
  386MOL0     C52014   7.761   5.531  -0.259 -0.3565  0.8162 -0.1171
  386MOL0     C52015   7.643   5.625  -0.232  0.8326 -0.3883 -0.9191
  386MOL0     C52016   7.543   5.615  -0.341  0.2227 -0.2079  0.1147
  386MOL0     C52017   7.417   5.701  -0.326 -0.4877  0.6452 -0.5762
  386MOL0     C52018   7.338   5.666  -0.199 -0.4555 -0.6202 -0.2744
  386MOL0     C52019   7.196   5.715  -0.218 -0.3957  0.3725 -0.1659
  386MOL0    Cl52020   7.121   5.626  -0.359 -0.2966 -0.4862 -0.0726
  386MOL0     C52021   8.223   5.269  -0.001  0.1276 -1.1770  0.1525
  386MOL0     C52022   8.304   5.153   0.032  0.3476 -0.0203  0.1687
  386MOL0     O52023   8.476   4.934  -0.040  0.2816 -0.2629  0.0970
  386MOL0     C52024   8.353   4.647   0.125 -0.0151  0.5689 -0.0227
  386MOL0     C52025   8.384   4.509   0.140  0.3108 -0.0702  1.0817
  386MOL0     N52026   8.516   3.765   0.238 -0.7718 -0.4213 -0.0790
  386MOL0     N52027   8.552   3.668   0.326  0.5408 -0.2333  0.7697
  386MOL0     C52028   9.571   3.477   1.034  0.3810 -0.3949  0.7060
  386MOL0     C52029   9.695   3.517   1.078 -0.7942  0.6335 -0.4775
  386MOL0     C52030  10.104   3.582   1.231  0.3733  0.9870  0.3369
  386MOL0     C52031  10.156   3.465   1.290  0.6564 -0.7989  0.6769
  386MOL0     C52032  10.276   3.471   1.356 -0.1078  0.3870 -0.1153
  386MOL0     C52033  10.359   3.585   1.357  0.1495 -0.1751  0.3638
  386MOL0     O52034  10.483   3.598   1.418  0.4776  0.7216  0.7022
  386MOL0     C52035  10.532   3.481   1.472 -0.9235  0.0037 -0.5088
  386MOL0     C52036  10.675   3.498   1.523  0.5449 -0.7726  0.0483
  386MOL0     C52037  10.698   3.566   1.659  0.7377 -0.3210  0.6042
  386MOL0     C52038  10.838   3.529   1.697  0.0618 -0.2756 -0.0247
  386MOL0     C52039  10.863   3.578   1.832  0.1495  0.0914 -0.7272
  386MOL0     C52040  10.881   3.616   1.948 -0.2585  0.4952  0.1095
  386MOL0     C52041  10.314   3.696   1.286  0.8429  0.3031 -0.1001
  386MOL0     C52042  10.193   3.689   1.227  0.3647  0.1474 -0.8538
  386MOL0     H52043   9.863   3.213   1.036 -0.0774 -0.3573 -1.2199
  386MOL0     H52044   9.661   3.156   0.944  0.6860 -0.5229 -0.9906
  386MOL0     H52045   9.354   3.189   1.044 -0.0907 -1.9358 -3.5497
  386MOL0     H52046   9.314   3.370   1.054  1.5859  0.9539  0.3029
  386MOL0     H52047   9.237   3.186   0.833 -3.2802  0.6465 -1.7289
  386MOL0     H52048   9.140   3.207   0.970 -0.8693 -1.2433 -1.3024
  386MOL0     H52049   9.128   3.464   0.876  3.6010  1.2485  0.8441
  386MOL0     H52050   9.239   3.415   0.752  0.3034 -1.8199 -2.4974
  386MOL0     H52051   9.054   3.253   0.666 -2.4078 -0.5065 -0.0942
  386MOL0     H52052   8.956   3.301   0.798 -0.0070 -0.7774  0.5972
  386MOL0     H52053   8.898   3.496   0.717 -0.0322 -1.1890  0.6774
  386MOL0     H52054   9.050   3.536   0.644  0.3027 -0.2161  0.2439
  386MOL0     H52055   8.981   3.384   0.428 -2.3018 -0.4039 -2.2552
  386MOL0     H52056   8.832   3.347   0.513 -0.3324 -0.3485 -2.5134
  386MOL0     H52057   8.831   3.607   0.547 -0.0417  0.7352 -0.7777
  386MOL0     H52058   8.947   3.612   0.424 -0.3722  2.1309  2.4529
  386MOL0     H52059   8.671   3.452   0.395 -1.0852 -1.8720 -4.6328
  386MOL0     H52060   8.790   3.479   0.262  0.7493  0.1735 -0.5072
  386MOL0     H52061   8.847   3.737   0.199  0.9644  1.8936  0.3110
  386MOL0     H52062   8.720   3.891   0.004 -1.0380 -1.9669 -0.7001
  386MOL0     H52063   8.553   3.887   0.004  0.2994  0.2504 -0.8502
  386MOL0     H52064   8.674   4.101   0.184  0.7975  1.4441 -1.1362
  386MOL0     H52065   8.505   4.044   0.161 -1.0766 -2.4690 -0.8349
  386MOL0     H52066   8.577   4.090  -0.098  0.7845 -0.1061  0.1263
  386MOL0     H52067   8.721   4.153  -0.044 -0.4404 -0.7270 -2.8220
  386MOL0     H52068   8.442   4.258  -0.025 -1.7302  3.6576  0.9139
  386MOL0     H52069   8.597   4.339  -0.068  1.2972 -2.0480 -0.0474
  386MOL0     H52070   8.712   4.513   0.075 -0.7882 -1.1077 -2.5120
  386MOL0     H52071   8.785   4.707   0.002  0.4206  0.3205  2.1821
  386MOL0     H52072   8.687   4.836  -0.040 -0.4255  0.8832  0.1717
  386MOL0     H52073   8.742   4.814   0.133 -0.9658 -2.7166  2.4070
  386MOL0     H52074   8.043   4.962   0.146 -0.0392  0.5818  1.2718
  386MOL0     H52075   7.920   5.175   0.101  0.4560 -1.9473  2.2564
  386MOL0     H52076   7.946   5.324  -0.182  0.5083 -3.1012  1.8473
  386MOL0     H52077   7.820   5.317  -0.057 -2.1483  1.6245 -1.5777
  386MOL0     H52078   7.802   5.570  -0.046 -0.8193  2.4723 -1.1708
  386MOL0     H52079   7.939   5.590  -0.157 -3.2489  2.6363 -0.1508
  386MOL0     H52080   7.709   5.436  -0.267 -0.4478  0.4763  3.1638
  386MOL0     H52081   7.815   5.558  -0.350  0.0514 -0.6156 -0.3203
  386MOL0     H52082   7.586   5.592  -0.144  1.0079  0.3910 -0.4977
  386MOL0     H52083   7.684   5.726  -0.218 -0.9857  0.2570  0.2780
  386MOL0     H52084   7.507   5.512  -0.346  0.2083 -0.2495  1.0253
  386MOL0     H52085   7.591   5.633  -0.438 -1.4002 -3.5756 -1.4817
  386MOL0     H52086   7.445   5.807  -0.329 -1.7786  1.0056 -0.2646
  386MOL0     H52087   7.355   5.681  -0.414 -1.6751 -0.7280  0.5144
  386MOL0     H52088   7.381   5.711  -0.109  1.7031 -1.7945 -0.6542
  386MOL0     H52089   7.339   5.559  -0.176  1.1336 -0.0364  3.0202
  386MOL0     H52090   7.199   5.823  -0.235  2.8320  0.6403  1.3158
  386MOL0     H52091   7.136   5.716  -0.126  1.7265  0.1344  1.3045
  386MOL0     H52092   8.270   5.355  -0.049  0.6444 -0.7951  1.3167
  386MOL0     H52093   8.412   5.162   0.029  0.2399  1.2751 -0.5009
  386MOL0     H52094   8.248   4.667   0.109  0.2886  2.1714 -0.1591
  386MOL0     H52095   8.305   4.435   0.130  0.1235  0.3182 -0.7259
  386MOL0     H52096   9.493   3.552   1.034 -0.7166 -1.4868 -1.0775
  386MOL0     H52097   9.708   3.617   1.117 -0.4280  0.9360 -1.3636
  386MOL0     H52098  10.097   3.374   1.288 -4.1652  2.0120 -0.6791
  386MOL0     H52099  10.326   3.387   1.404  2.3479  1.5297 -0.4876
  386MOL0     H52100  10.471   3.438   1.552 -0.5486  1.6809  0.7281
  386MOL0     H52101  10.543   3.398   1.402  3.0591  1.1405 -1.4708
  386MOL0     H52102  10.722   3.561   1.447  0.9923  0.2629  1.1642
  386MOL0     H52103  10.717   3.397   1.525 -0.8642 -1.4139 -1.0963
  386MOL0     H52104  10.624   3.533   1.733  0.0413  2.8317  1.4669
  386MOL0     H52105  10.684   3.674   1.653  2.5489 -0.1513 -2.5470
  386MOL0     H52106  10.908   3.581   1.630 -0.2687  1.0018  0.5763
  386MOL0     H52107  10.848   3.421   1.693 -3.1042 -0.6921 -4.7357
  386MOL0     H52108  10.902   3.640   2.051  2.1396  0.4419 -0.3150
  386MOL0     H52109  10.378   3.782   1.268  1.0083 -0.0772 -1.4461
  386MOL0     H52110  10.161   3.778   1.173 -1.9764 -1.2197 -1.8968
  387MOL0     O52111   7.986   2.459  10.033  0.4009 -0.1971 -1.3742
  387MOL0     C52112   7.988   2.581  10.049 -0.7367 -0.0496 -0.6871
  387MOL0     O52113   8.072   2.649  10.131 -0.3520 -0.0515 -0.1251
  387MOL0     C52114   8.189   2.595  10.176  0.2367 -1.3408  0.5936
  387MOL0     C52115   8.233   2.647  10.302  0.4169 -0.1389 -0.1223
  387MOL0     C52116   8.352   2.608  10.366 -0.2822  0.4409 -0.0185
  387MOL0     C52117   8.438   2.515  10.297 -0.0295  0.0766 -0.7777
  387MOL0     O52118   8.555   2.486  10.358  0.1878 -0.5497  0.3052
  387MOL0     C52119   8.636   2.377  10.312 -0.4896 -0.1068 -0.4009
  387MOL0     C52120   8.776   2.376  10.391  0.3175 -0.3365  0.2667
  387MOL0     C52121   8.848   2.509  10.379 -0.5328 -1.3315  0.8840
  387MOL0     C52122   9.003   2.492  10.405  0.9735  0.1666  0.2894
  387MOL0     C52123   9.097   2.607  10.378 -0.1689 -0.0580  0.1178
  387MOL0     C52124   9.047   2.736  10.436  0.2884  0.0833  0.3688
  387MOL0     C52125   9.150   2.849  10.416  0.8058  1.2919  0.0851
  387MOL0     C52126   9.101   2.978  10.487 -0.4757  0.0306  0.2525
  387MOL0     N52127   8.984   3.043  10.420 -0.6776 -0.0939  0.4014
  387MOL0     C52128   8.976   3.067  10.290  0.7026 -0.2668  0.6530
  387MOL0     C52129   8.861   3.129  10.276 -1.1078 -0.1171 -0.8013
  387MOL0     C52130   8.803   3.189  10.150 -1.0032 -0.1418  0.8391
  387MOL0     C52131   8.693   3.109  10.097 -0.3816 -0.4439 -0.1792
  387MOL0     C52132   8.610   3.179   9.980  0.2135  1.0060 -0.4530
  387MOL0     C52133   8.548   3.322  10.008 -0.5984 -0.3395 -0.2940
  387MOL0     O52134   8.472   3.360   9.897  0.1983 -0.4990  0.0285
  387MOL0     C52135   8.332   3.340   9.895 -0.2204  0.2182 -0.9578
  387MOL0     C52136   8.265   3.230   9.949  0.2104  0.3052 -0.0557
  387MOL0     C52137   8.124   3.215   9.956  0.4111  0.3263  0.7419
  387MOL0     C52138   8.061   3.109  10.041 -0.3860 -0.0329 -0.3499
  387MOL0     C52139   8.042   3.314   9.880 -0.2602  0.0528 -0.1541
  387MOL0     C52140   7.903   3.300   9.855  0.1893  0.3898 -0.9329
  387MOL0     O52141   7.863   3.361   9.736 -0.5314 -0.1491  0.0261
  387MOL0     C52142   7.733   3.389   9.698  0.1433 -0.2846 -0.6384
  387MOL0     C52143   7.608   3.349   9.756 -0.0934 -0.8006 -0.4445
  387MOL0     C52144   7.489   3.373   9.697 -0.1090 -0.7450 -0.6095
  387MOL0     C52145   7.479   3.436   9.578  0.4706  0.7393 -0.6399
  387MOL0     O52146   7.354   3.460   9.532  0.5767  0.4951  0.2442
  387MOL0     C52147   7.323   3.541   9.410 -0.6461 -0.0748  0.3719
  387MOL0     C52148   7.319   3.450   9.297 -0.4752  0.9652  0.4719
  387MOL0     C52149   7.205   3.337   9.325 -0.0237 -0.8570 -0.3939
  387MOL0     C52150   7.112   3.320   9.212  1.0387  0.0676  0.2665
  387MOL0     C52151   6.982   3.248   9.241 -0.1582  0.4904  0.2758
  387MOL0     C52152   6.903   3.212   9.118  0.0398 -0.1866  0.5186
  387MOL0     C52153   6.790   3.114   9.152  0.4289  0.3588 -0.6555
  387MOL0     C52154   6.818   2.956   9.128 -0.6709  0.5178  0.1017
  387MOL0    Cl52155   6.985   2.916   9.195  0.3296  0.7056  0.0943
  387MOL0     C52156   7.591   3.493   9.525  0.7899  0.4263 -0.3778
  387MOL0     C52157   7.712   3.478   9.585  1.3330  1.0439 -0.3923
  387MOL0     O52158   7.824   3.277   9.947 -0.1447  0.2119 -0.3290
  387MOL0     C52159   8.108   3.418   9.814  0.5518 -0.0554  0.2853
  387MOL0     C52160   8.250   3.429   9.835 -0.1114 -0.1495 -0.0809
  387MOL0     N52161   8.789   3.120  10.397  0.0331  0.5287  0.2274
  387MOL0     N52162   8.863   3.054  10.483  0.1299 -0.9430  0.8359
  387MOL0     C52163   8.383   2.454  10.179  0.6660  0.1754  0.2548
  387MOL0     C52164   8.264   2.497  10.115  0.1983  0.6862  0.0040
  387MOL0     C52165   7.877   2.648   9.981  0.3672  0.3818  0.2661
  387MOL0     C52166   7.802   2.577   9.886  0.5320  0.0246  0.3025
  387MOL0     C52167   7.696   2.628   9.816  0.0068  0.6329 -0.7360
  387MOL0     C52168   7.655   2.764   9.839 -1.0345 -1.3671 -0.1622
  387MOL0     O52169   7.560   2.819   9.767  0.9850  0.6469  0.0071
  387MOL0     C52170   7.528   2.958   9.794  0.8811  0.0527 -0.0015
  387MOL0     C52171   7.428   3.011   9.697 -0.0472 -0.9387  0.4212
  387MOL0     C52172   7.303   2.915   9.678 -0.5447  0.4063  0.0322
  387MOL0     C52173   7.226   2.984   9.572  0.6140  0.8317 -0.1533
  387MOL0     C52174   7.125   2.881   9.522 -0.9307  0.3642  0.0176
  387MOL0     C52175   7.055   2.804   9.470 -0.3143  0.4597  0.2902
  387MOL0     C52176   7.725   2.834   9.939  0.1085 -0.2053 -0.3205
  387MOL0     C52177   7.836   2.779  10.002  0.3252 -0.5853 -0.0317
  387MOL0     H52178   8.169   2.720  10.351  1.6828  0.6291  0.4439
  387MOL0     H52179   8.367   2.642  10.468 -2.8358 -0.1471  0.6257
  387MOL0     H52180   8.585   2.282  10.330 -1.4764 -0.1830 -3.1436
  387MOL0     H52181   8.650   2.380  10.204  2.2463 -3.0693 -0.2961
  387MOL0     H52182   8.769   2.370  10.500  5.3495  3.2550  1.1430
  387MOL0     H52183   8.836   2.293  10.352 -0.8187 -0.8492 -0.4473
  387MOL0     H52184   8.823   2.563  10.287  2.5853 -1.3537 -0.0686
  387MOL0     H52185   8.825   2.576  10.463 -0.9405 -1.5925  0.9832
  387MOL0     H52186   9.013   2.460  10.510 -0.4877 -0.1680  0.3554
  387MOL0     H52187   9.033   2.406  10.345  1.0498 -1.4830  2.5305
  387MOL0     H52188   9.191   2.591  10.431  0.1232  2.3854  0.4167
  387MOL0     H52189   9.104   2.607  10.268 -0.1955 -1.9422  0.0839
  387MOL0     H52190   8.954   2.768  10.388  0.6281  2.8646  1.3760
  387MOL0     H52191   9.024   2.718  10.542  0.1226 -0.8189  0.1875
  387MOL0     H52192   9.246   2.815  10.457 -0.1319 -2.6110 -0.5653
  387MOL0     H52193   9.158   2.866  10.309  1.5525 -1.9432 -0.4958
  387MOL0     H52194   9.183   3.052  10.486  1.3631 -1.7482 -3.4889
  387MOL0     H52195   9.075   2.943  10.587 -0.1552 -1.7434 -0.2670
  387MOL0     H52196   9.044   3.047  10.208 -2.9217 -1.8052 -2.2439
  387MOL0     H52197   8.768   3.291  10.168  2.8904  1.2363  1.4711
  387MOL0     H52198   8.878   3.196  10.071  0.2811  1.5478  2.1300
  387MOL0     H52199   8.615   3.097  10.173 -0.5405 -2.5814 -0.6085
  387MOL0     H52200   8.740   3.013  10.070  1.0335  0.2111 -0.1519
  387MOL0     H52201   8.532   3.107   9.954  2.4045 -0.7811 -2.6876
  387MOL0     H52202   8.678   3.195   9.896  1.6911  0.3570  0.5547
  387MOL0     H52203   8.636   3.387  10.018 -0.6879 -0.2896  0.2018
  387MOL0     H52204   8.487   3.321  10.099 -0.9458 -2.0838 -0.5093
  387MOL0     H52205   8.324   3.162  10.010  0.6124 -0.1423 -0.9222
  387MOL0     H52206   7.990   3.147  10.115  0.3734  1.0795 -0.1835
  387MOL0     H52207   8.013   3.041   9.969  0.0689 -2.9785  1.9371
  387MOL0     H52208   8.139   3.061  10.101 -0.1107 -1.3143 -1.6607
  387MOL0     H52209   7.616   3.286   9.845 -1.0213 -1.0483 -0.5258
  387MOL0     H52210   7.394   3.346   9.743 -0.9134 -0.4850 -2.0632
  387MOL0     H52211   7.228   3.594   9.416 -1.7172 -1.6369 -1.6068
  387MOL0     H52212   7.402   3.615   9.397 -1.1283  0.5197  0.7566
  387MOL0     H52213   7.312   3.493   9.196  1.3697  1.0231  0.3259
  387MOL0     H52214   7.412   3.392   9.292 -0.3725  1.2349 -1.3769
  387MOL0     H52215   7.141   3.371   9.407 -1.3711  0.4616 -1.9340
  387MOL0     H52216   7.245   3.236   9.337 -1.5848 -1.5881 -1.1895
  387MOL0     H52217   7.084   3.419   9.174  3.8338  0.3831 -1.2548
  387MOL0     H52218   7.169   3.273   9.132  0.8707 -1.3701  0.9767
  387MOL0     H52219   6.914   3.308   9.303 -1.9359 -1.3440  0.1820
  387MOL0     H52220   7.006   3.151   9.286 -1.6315 -0.9878 -1.9461
  387MOL0     H52221   6.857   3.297   9.068  1.9518 -0.4874 -1.9438
  387MOL0     H52222   6.963   3.155   9.046 -3.1077  0.0858 -2.6554
  387MOL0     H52223   6.702   3.142   9.093 -0.7685 -0.8825  0.4493
  387MOL0     H52224   6.751   3.119   9.254  0.9302  1.8111 -0.5146
  387MOL0     H52225   6.822   2.930   9.022  2.9100  1.9165 -0.2672
  387MOL0     H52226   6.739   2.904   9.183  1.3054 -1.0141  1.6233
  387MOL0     H52227   7.592   3.562   9.441 -1.3843  2.3689  1.0568
  387MOL0     H52228   7.795   3.522   9.531  1.8116 -2.2908 -2.6473
  387MOL0     H52229   8.055   3.502   9.771  1.4669 -0.2631 -1.3193
  387MOL0     H52230   8.309   3.519   9.816 -1.4550  0.4025 -1.9558
  387MOL0     H52231   8.442   2.370  10.145  1.3685  1.3862 -1.6311
  387MOL0     H52232   8.234   2.452  10.020 -0.0927  1.2177 -0.1589
  387MOL0     H52233   7.820   2.471   9.876 -2.0326 -0.5593  1.1014
  387MOL0     H52234   7.636   2.577   9.742 -2.1097 -0.8226  1.8062
  387MOL0     H52235   7.486   2.978   9.893 -0.4315 -0.0105 -0.5288
  387MOL0     H52236   7.616   3.022   9.787 -0.0758  1.6107  1.4537
  387MOL0     H52237   7.485   3.018   9.604 -0.5613 -0.9697  0.0995
  387MOL0     H52238   7.385   3.103   9.734 -1.6684 -1.6614  0.4098
  387MOL0     H52239   7.243   2.905   9.769 -1.3601  0.1929 -0.5224
  387MOL0     H52240   7.336   2.819   9.639 -0.3944  1.2484 -2.0752
  387MOL0     H52241   7.283   3.014   9.484 -0.8048  0.6799 -1.1622
  387MOL0     H52242   7.173   3.066   9.619  1.9932  0.5274  2.0817
  387MOL0     H52243   7.003   2.736   9.404  1.1484  0.6174 -1.0962
  387MOL0     H52244   7.706   2.935   9.973 -0.6951  0.0739 -1.5158
  387MOL0     H52245   7.897   2.842  10.066 -1.5150  0.5094  0.7224
  388MOL0     O52246   1.975   7.048   9.182  0.0615  0.1450  0.3520
  388MOL0     C52247   1.882   6.996   9.244 -0.2165  0.3002  0.3478
  388MOL0     O52248   1.745   7.021   9.217 -0.1414  0.0711  0.0139
  388MOL0     C52249   1.719   7.122   9.125  0.8075  0.5203  0.5327
  388MOL0     C52250   1.755   7.108   8.995 -0.0155 -0.9199  0.2743
  388MOL0     C52251   1.714   7.203   8.904 -0.1025 -0.5873 -0.9693
  388MOL0     C52252   1.643   7.316   8.944  0.9756  0.2574  0.2387
  388MOL0     O52253   1.615   7.402   8.837 -0.3882 -0.5205  0.3126
  388MOL0     C52254   1.474   7.433   8.819 -0.3539 -0.9340  0.1228
  388MOL0     C52255   1.443   7.485   8.677 -0.2412  0.6415  0.1786
  388MOL0     C52256   1.450   7.366   8.578  0.6616 -0.2642 -0.1267
  388MOL0     C52257   1.469   7.421   8.434  0.2322  0.1644 -0.0474
  388MOL0     C52258   1.489   7.317   8.326  0.3943 -0.8293  0.8040
  388MOL0     C52259   1.363   7.252   8.259  0.1541 -0.6481  0.8439
  388MOL0     C52260   1.263   7.353   8.196 -0.3964  0.2833 -0.0517
  388MOL0     C52261   1.327   7.449   8.095  0.7293  0.6427  0.3157
  388MOL0     N52262   1.237   7.522   8.003 -0.1698  0.2913  0.8315
  388MOL0     C52263   1.122   7.588   8.040  0.0752 -0.2051 -0.4001
  388MOL0     C52264   1.089   7.662   7.932 -0.1391  0.5278 -0.0557
  388MOL0     C52265   0.958   7.738   7.897 -0.8758  0.4346 -0.5536
  388MOL0     C52266   0.985   7.849   7.795  0.0704 -0.4301  0.8215
  388MOL0     C52267   0.927   7.810   7.653 -1.0460  0.8065 -0.3392
  388MOL0     C52268   0.776   7.824   7.645  0.5926 -0.5149  0.4760
  388MOL0     O52269   0.738   7.778   7.510  0.0203  0.5902 -1.0429
  388MOL0     C52270   0.603   7.784   7.473 -0.9384 -0.3987  0.5940
  388MOL0     C52271   0.555   7.867   7.374 -0.0607  0.6555 -1.1153
  388MOL0     C52272   0.421   7.893   7.355 -0.8807 -0.1278  0.8018
  388MOL0     C52273   0.390   7.984   7.245  0.3589 -0.1747 -0.5433
  388MOL0     C52274   0.327   7.817   7.425  0.8852 -0.3032  0.3396
  388MOL0     C52275   0.178   7.818   7.398  0.4691 -0.1057 -0.3016
  388MOL0     O52276   0.099   7.779   7.507 -0.4918  0.2143  0.2062
  388MOL0     C52277  -0.034   7.750   7.480  1.3126 -0.5503 -0.9548
  388MOL0     C52278  -0.122   7.834   7.418  0.1658 -0.8728  0.6374
  388MOL0     C52279  -0.254   7.802   7.397  0.4366  0.6793 -1.1400
  388MOL0     C52280  -0.305   7.685   7.448  0.2268 -0.4444  0.4543
  388MOL0     O52281  -0.436   7.633   7.434 -1.0360  0.5339  0.4272
  388MOL0     C52282  -0.532   7.710   7.362 -0.2808 -0.2268  0.3696
  388MOL0     C52283  -0.661   7.638   7.360  1.1678 -0.3782  0.0398
  388MOL0     C52284  -0.699   7.610   7.507  0.2935  0.0263 -0.2576
  388MOL0     C52285  -0.846   7.579   7.519  0.5540  0.1590 -0.5133
  388MOL0     C52286  -0.911   7.639   7.643  1.4845 -0.4558 -0.4365
  388MOL0     C52287  -0.913   7.802   7.646  0.2038 -0.3222  0.3939
  388MOL0     C52288  -1.005   7.830   7.761 -0.5318 -0.1278 -0.2557
  388MOL0     C52289  -1.044   7.977   7.764 -0.1861  0.8031 -0.2534
  388MOL0    Cl52290  -1.127   8.042   7.617  0.1351  0.2908  0.0638
  388MOL0     C52291  -0.217   7.610   7.527  1.8016  0.1517  0.7080
  388MOL0     C52292  -0.089   7.642   7.537 -0.1465 -0.1143  0.1969
  388MOL0     O52293   0.140   7.827   7.283  0.5122  0.4703 -0.1130
  388MOL0     C52294   0.369   7.725   7.517 -0.1738  0.4042  0.4730
  388MOL0     C52295   0.507   7.712   7.539 -0.3200  0.1943 -0.0493
  388MOL0     N52296   1.193   7.645   7.841 -0.1436  0.0569  0.2698
  388MOL0     N52297   1.273   7.561   7.876  1.0209 -0.1078  0.1177
  388MOL0     C52298   1.597   7.327   9.077 -0.3462  0.1352 -0.3562
  388MOL0     C52299   1.635   7.233   9.167 -0.9697  0.5963 -0.2656
  388MOL0     C52300   1.910   6.893   9.344 -0.6913  0.1390  0.2435
  388MOL0     C52301   1.802   6.838   9.418 -0.0074 -0.4265 -0.4454
  388MOL0     C52302   1.832   6.731   9.505  1.0514 -0.2782  0.5463
  388MOL0     C52303   1.960   6.683   9.539  0.8066 -0.1543 -0.9438
  388MOL0     O52304   1.989   6.582   9.630 -0.3581  0.5536 -0.4015
  388MOL0     C52305   1.879   6.508   9.687 -0.3540 -0.2077  0.6684
  388MOL0     C52306   1.941   6.411   9.786 -0.7300 -0.0478  0.2127
  388MOL0     C52307   1.820   6.334   9.852 -0.5776 -0.3003  0.7604
  388MOL0     C52308   1.852   6.201   9.908  0.1515  0.3821 -0.3935
  388MOL0     C52309   1.823   6.096   9.808  0.9829  0.6667 -0.2621
  388MOL0     C52310   1.789   6.013   9.721 -0.4317  0.0752  0.2328
  388MOL0     C52311   2.063   6.750   9.471 -0.1326  0.1179 -0.5903
  388MOL0     C52312   2.043   6.847   9.370 -0.4497  0.2334  0.2513
  388MOL0     H52313   1.806   7.020   8.956 -0.3281 -1.1120  0.2945
  388MOL0     H52314   1.760   7.206   8.806 -1.5968 -1.5059 -1.7224
  388MOL0     H52315   1.415   7.344   8.843  0.9789 -2.1880 -1.0200
  388MOL0     H52316   1.444   7.508   8.892  0.8924 -3.1295  3.0909
  388MOL0     H52317   1.340   7.521   8.675 -1.1603 -1.7891 -0.0192
  388MOL0     H52318   1.523   7.556   8.655  0.0735  0.5795  1.0683
  388MOL0     H52319   1.527   7.291   8.598  0.0803 -0.5265  1.2932
  388MOL0     H52320   1.352   7.316   8.580  1.5840 -2.1381 -0.5140
  388MOL0     H52321   1.382   7.483   8.410 -0.0942 -0.7207 -1.2114
  388MOL0     H52322   1.555   7.489   8.443 -1.3942  2.0867  2.1808
  388MOL0     H52323   1.556   7.353   8.248 -0.8600 -0.7446 -0.2608
  388MOL0     H52324   1.535   7.233   8.380  1.4402 -0.5103  0.4419
  388MOL0     H52325   1.404   7.185   8.184 -2.1058 -0.1850 -0.9198
  388MOL0     H52326   1.318   7.197   8.342 -0.7528 -2.1348 -0.5770
  388MOL0     H52327   1.190   7.295   8.139  1.0504  0.6089 -2.3843
  388MOL0     H52328   1.198   7.407   8.264 -1.0797 -0.1317 -0.3686
  388MOL0     H52329   1.391   7.388   8.031 -0.1118  0.4009 -0.3215
  388MOL0     H52330   1.389   7.521   8.149 -2.2292  0.3907  4.4969
  388MOL0     H52331   1.068   7.567   8.131 -0.3873  1.6992 -0.2074
  388MOL0     H52332   0.880   7.669   7.863 -1.2564  0.1568  0.7855
  388MOL0     H52333   0.923   7.775   7.994 -0.0293 -0.7661  0.2393
  388MOL0     H52334   1.092   7.872   7.791 -0.1793  0.7697  0.8162
  388MOL0     H52335   0.935   7.937   7.836  0.8994  0.5410 -0.1706
  388MOL0     H52336   0.951   7.706   7.630  0.1822  1.2966 -1.3672
  388MOL0     H52337   0.972   7.860   7.566  3.1334 -0.8214  0.6537
  388MOL0     H52338   0.757   7.931   7.656  0.8942  0.1564 -3.8212
  388MOL0     H52339   0.711   7.767   7.712  0.5027 -2.1578 -0.9472
  388MOL0     H52340   0.634   7.912   7.314 -1.0365  1.4080 -1.8622
  388MOL0     H52341   0.359   7.916   7.165 -1.8313 -0.6226  0.6027
  388MOL0     H52342   0.320   8.057   7.286  1.0159 -0.2661  0.8012
  388MOL0     H52343   0.478   8.032   7.203 -0.1308  0.8501 -0.4235
  388MOL0     H52344  -0.090   7.932   7.385  2.5252 -1.1277  1.9573
  388MOL0     H52345  -0.317   7.871   7.342  0.0328  0.5677 -0.8225
  388MOL0     H52346  -0.561   7.795   7.425 -1.4750 -0.0953 -0.3288
  388MOL0     H52347  -0.506   7.733   7.258 -0.5062 -0.3301  0.2902
  388MOL0     H52348  -0.736   7.696   7.305  2.2078  0.8058 -0.1650
  388MOL0     H52349  -0.657   7.539   7.313  0.3977  0.6912 -2.4333
  388MOL0     H52350  -0.675   7.701   7.564  2.3985 -0.5807 -0.1049
  388MOL0     H52351  -0.639   7.528   7.546  0.5575  0.5167  0.3788
  388MOL0     H52352  -0.897   7.609   7.427  0.3784 -0.9176 -0.7875
  388MOL0     H52353  -0.859   7.472   7.536  1.5154  0.3347  1.5490
  388MOL0     H52354  -0.862   7.591   7.728 -1.5118 -0.3782  1.5126
  388MOL0     H52355  -1.011   7.597   7.633  0.6892  1.5684 -1.7077
  388MOL0     H52356  -0.816   7.850   7.666 -0.1935 -0.5904  3.3842
  388MOL0     H52357  -0.949   7.839   7.550  1.6029 -0.2529 -0.1349
  388MOL0     H52358  -0.948   7.807   7.852 -3.8701 -0.3071  1.9287
  388MOL0     H52359  -1.091   7.763   7.767  1.9393 -3.4636  1.4067
  388MOL0     H52360  -0.949   8.030   7.776 -0.0415  0.6241 -0.5941
  388MOL0     H52361  -1.109   7.995   7.850 -1.4833  0.1578 -1.0711
  388MOL0     H52362  -0.251   7.513   7.563 -0.1999 -0.4318 -2.3446
  388MOL0     H52363  -0.019   7.571   7.578 -0.0796 -1.0164 -1.3676
  388MOL0     H52364   0.309   7.653   7.573  0.0349  0.1233  0.3358
  388MOL0     H52365   0.537   7.632   7.606 -0.5458 -1.2317 -1.5631
  388MOL0     H52366   1.531   7.406   9.111 -2.3506 -1.6984  0.2145
  388MOL0     H52367   1.602   7.250   9.269  0.4021  1.2822  0.0927
  388MOL0     H52368   1.700   6.853   9.385  0.8329  1.8928 -2.2074
  388MOL0     H52369   1.745   6.688   9.553  1.4977 -1.2754  0.4758
  388MOL0     H52370   1.825   6.578   9.751  0.1923  0.7850  0.0745
  388MOL0     H52371   1.818   6.467   9.606  1.2781  1.4164 -1.4911
  388MOL0     H52372   1.995   6.462   9.866 -0.6424  0.9174 -0.4458
  388MOL0     H52373   2.013   6.344   9.737 -0.7392 -0.8458  1.2461
  388MOL0     H52374   1.741   6.335   9.776  0.9570 -1.3542 -0.9160
  388MOL0     H52375   1.798   6.403   9.934  1.4920  1.2324  0.1139
  388MOL0     H52376   1.803   6.179  10.004 -0.4880  0.3557 -0.7249
  388MOL0     H52377   1.958   6.193   9.934 -0.0730  0.3198  0.5331
  388MOL0     H52378   1.759   5.945   9.643  0.1881  0.9531 -0.7927
  388MOL0     H52379   2.158   6.701   9.489 -1.4837 -2.5397 -0.2046
  388MOL0     H52380   2.126   6.902   9.328 -1.4535  1.4888 -0.1310
  389MOL0     O52381  10.236   3.380   0.887 -0.5088 -0.5407  0.8758
  389MOL0     C52382  10.286   3.473   0.814  1.0545 -0.0253  0.7388
  389MOL0     O52383  10.227   3.504   0.691  0.0264 -0.0743  0.3613
  389MOL0     C52384  10.093   3.480   0.664  0.5217 -0.5937  0.7912
  389MOL0     C52385   9.987   3.479   0.756  0.9226  0.0327 -0.2716
  389MOL0     C52386   9.850   3.476   0.725  0.1645  0.7052 -1.4796
  389MOL0     C52387   9.809   3.490   0.590  0.1510  0.2907  1.0368
  389MOL0     O52388   9.675   3.489   0.540 -0.0698 -1.0276 -0.3920
  389MOL0     C52389   9.584   3.425   0.627  1.1602 -0.0387 -0.8189
  389MOL0     C52390   9.469   3.359   0.551 -0.5061 -0.6886 -1.0219
  389MOL0     C52391   9.397   3.449   0.447 -0.1887 -0.6567  0.1644
  389MOL0     C52392   9.297   3.374   0.363  0.1603  0.3303 -0.4046
  389MOL0     C52393   9.206   3.466   0.271  0.7821 -0.1246 -0.0999
  389MOL0     C52394   9.111   3.404   0.163 -0.7179 -0.3813  0.2197
  389MOL0     C52395   9.045   3.504   0.070  0.4336  0.0796 -0.4601
  389MOL0     C52396   8.943   3.429  -0.020 -0.4004  0.2380 -0.5037
  389MOL0     N52397   8.864   3.539  -0.078  0.0054  0.1639 -0.0314
  389MOL0     C52398   8.910   3.638  -0.162 -0.9431 -0.5465  0.1547
  389MOL0     C52399   8.808   3.715  -0.190 -0.4746  0.2574  0.8293
  389MOL0     C52400   8.805   3.836  -0.283 -0.8823  0.0296  0.4174
  389MOL0     C52401   8.797   3.808  -0.423 -1.0327 -0.1005 -0.8741
  389MOL0     C52402   8.670   3.726  -0.467 -0.1972  0.2281 -0.1665
  389MOL0     C52403   8.673   3.708  -0.619  0.4630 -0.7857  0.2377
  389MOL0     O52404   8.582   3.600  -0.655  0.3491 -0.5551  0.2760
  389MOL0     C52405   8.449   3.613  -0.622 -0.0284 -0.4453 -0.4246
  389MOL0     C52406   8.395   3.525  -0.520  0.2198  0.7357 -0.4413
  389MOL0     C52407   8.262   3.518  -0.482  1.6008 -0.3379  0.3088
  389MOL0     C52408   8.210   3.418  -0.391 -0.0958  0.6072  0.4437
  389MOL0     C52409   8.168   3.612  -0.540 -0.1740 -0.2595 -0.3340
  389MOL0     C52410   8.022   3.629  -0.500 -0.3538  0.0362  0.4516
  389MOL0     O52411   7.969   3.737  -0.566 -0.3461  0.5883  0.5796
  389MOL0     C52412   7.833   3.755  -0.579 -0.0928 -0.9959 -0.4076
  389MOL0     C52413   7.761   3.782  -0.465  0.8239  0.8177  0.2150
  389MOL0     C52414   7.629   3.817  -0.475 -0.0381  0.4782 -1.0717
  389MOL0     C52415   7.569   3.844  -0.594  0.5464 -0.3247 -0.2201
  389MOL0     O52416   7.446   3.904  -0.616 -0.1295  0.2057 -0.5265
  389MOL0     C52417   7.335   3.817  -0.605  0.0431  0.4666  0.5917
  389MOL0     C52418   7.235   3.826  -0.719 -0.7737  0.5217 -1.2054
  389MOL0     C52419   7.113   3.735  -0.693  0.1309 -0.2027  0.6184
  389MOL0     C52420   7.134   3.582  -0.681  0.2938  0.3375  0.0965
  389MOL0     C52421   7.007   3.490  -0.685  1.0535 -0.3655 -0.5491
  389MOL0     C52422   6.924   3.506  -0.565 -0.3424  0.1156 -0.6302
  389MOL0     C52423   6.803   3.417  -0.554 -0.1001 -0.2444  0.8126
  389MOL0     C52424   6.734   3.406  -0.679 -0.5898  0.6367  0.0783
  389MOL0    Cl52425   6.587   3.308  -0.661 -0.4202 -0.0806 -0.0168
  389MOL0     C52426   7.647   3.835  -0.712  0.4980 -0.0843  0.5857
  389MOL0     C52427   7.776   3.788  -0.702  0.0920 -0.4746  0.0614
  389MOL0     O52428   7.959   3.556  -0.426 -0.0883 -0.2734 -0.4494
  389MOL0     C52429   8.216   3.698  -0.644  0.1124  1.0849  0.0564
  389MOL0     C52430   8.354   3.699  -0.673  0.4928 -0.2298  0.2168
  389MOL0     N52431   8.693   3.656  -0.131 -0.7620 -0.4342 -0.0493
  389MOL0     N52432   8.733   3.549  -0.072  0.6592  0.8029 -0.1332
  389MOL0     C52433   9.911   3.491   0.491  0.0509  0.4201  0.1270
  389MOL0     C52434  10.047   3.479   0.528 -0.9903  0.2877 -0.0795
  389MOL0     C52435  10.407   3.546   0.857  0.4362 -0.4470  0.0843
  389MOL0     C52436  10.479   3.639   0.776  0.4590  0.8278 -0.5777
  389MOL0     C52437  10.601   3.692   0.817  0.2645 -0.7726  0.0113
  389MOL0     C52438  10.646   3.660   0.948  0.6357  0.7314  0.4034
  389MOL0     O52439  10.767   3.710   0.986 -0.6530 -0.6158 -0.1244
  389MOL0     C52440  10.868   3.679   0.892  0.1831  0.1029  0.0437
  389MOL0     C52441  10.990   3.762   0.937 -0.4647  0.1411  0.2979
  389MOL0     C52442  11.071   3.684   1.037  0.6154  0.3868  0.7442
  389MOL0     C52443  11.171   3.772   1.110  0.6910  0.0377  0.0747
  389MOL0     C52444  11.182   3.724   1.251 -0.1804 -0.9508  0.4517
  389MOL0     C52445  11.185   3.686   1.367 -0.4061 -0.3910  0.6999
  389MOL0     C52446  10.572   3.580   1.033  0.2241  0.1475  0.2001
  389MOL0     C52447  10.459   3.514   0.991  0.1435  0.5635 -0.3900
  389MOL0     H52448  10.015   3.476   0.861  1.4639 -3.2047 -0.4001
  389MOL0     H52449   9.777   3.461   0.804  0.7701 -0.5547 -1.1380
  389MOL0     H52450   9.620   3.341   0.686 -1.6524 -0.6499  0.2159
  389MOL0     H52451   9.530   3.492   0.695  0.0167 -0.3804 -1.3630
  389MOL0     H52452   9.518   3.275   0.501 -2.0137 -0.0960 -3.7043
  389MOL0     H52453   9.392   3.313   0.613 -0.9838 -0.5756 -1.5184
  389MOL0     H52454   9.343   3.528   0.500 -1.0534  0.8816 -2.7914
  389MOL0     H52455   9.467   3.494   0.376 -0.9233 -0.1496 -0.2557
  389MOL0     H52456   9.355   3.304   0.302  1.6644 -2.5924  3.9710
  389MOL0     H52457   9.234   3.308   0.423  0.5436  1.1610  0.9527
  389MOL0     H52458   9.140   3.523   0.336  0.2243 -0.2337 -0.5610
  389MOL0     H52459   9.281   3.535   0.229 -0.4285  0.8106 -0.7934
  389MOL0     H52460   9.175   3.343   0.099  1.0039  0.8909  0.6713
  389MOL0     H52461   9.032   3.340   0.203 -0.2930 -0.4495  0.9671
  389MOL0     H52462   8.981   3.571   0.129  0.8115  0.2073 -0.1927
  389MOL0     H52463   9.117   3.560   0.009  0.9918 -0.1063  0.0176
  389MOL0     H52464   8.868   3.370   0.034  0.6443  0.1049  0.8632
  389MOL0     H52465   8.984   3.363  -0.096  1.2113 -1.4667  1.7050
  389MOL0     H52466   9.010   3.649  -0.202 -0.3936 -2.0644  1.0522
  389MOL0     H52467   8.720   3.903  -0.264 -0.1522  0.6374  1.6822
  389MOL0     H52468   8.894   3.896  -0.263  1.0465 -1.8898 -1.8896
  389MOL0     H52469   8.882   3.745  -0.453 -0.4318  0.0545  0.4390
  389MOL0     H52470   8.803   3.894  -0.491 -0.9390 -0.1330 -0.9077
  389MOL0     H52471   8.581   3.785  -0.442 -1.0180 -1.0832  0.1221
  389MOL0     H52472   8.651   3.635  -0.410 -1.5561  0.2587 -0.5310
  389MOL0     H52473   8.774   3.688  -0.655  0.2546  0.2768 -1.0197
  389MOL0     H52474   8.641   3.799  -0.671 -0.9893 -2.0306 -1.1563
  389MOL0     H52475   8.466   3.461  -0.469  0.6613  2.2306  0.9053
  389MOL0     H52476   8.130   3.353  -0.429 -1.0581  1.4443  0.9671
  389MOL0     H52477   8.295   3.364  -0.348  0.0856  1.5216  1.2572
  389MOL0     H52478   8.164   3.480  -0.313  2.4495  3.9664 -0.5072
  389MOL0     H52479   7.805   3.754  -0.370 -1.5268 -0.4278  1.0197
  389MOL0     H52480   7.574   3.834  -0.382 -1.9476 -1.9191 -1.6733
  389MOL0     H52481   7.376   3.715  -0.601  1.1563  0.8610 -0.0543
  389MOL0     H52482   7.277   3.843  -0.516 -2.9521 -0.0410 -1.0819
  389MOL0     H52483   7.214   3.933  -0.710  1.2025  0.9167 -0.7162
  389MOL0     H52484   7.287   3.789  -0.808  2.0885  0.9690  0.1564
  389MOL0     H52485   7.048   3.740  -0.781  0.1863  0.0654  0.5914
  389MOL0     H52486   7.051   3.769  -0.609 -1.3517 -2.8798  0.7402
  389MOL0     H52487   7.201   3.555  -0.764 -0.0431  1.8359 -0.7146
  389MOL0     H52488   7.182   3.565  -0.584 -0.9825 -1.5707  0.4282
  389MOL0     H52489   7.036   3.386  -0.670  0.7004 -0.3442  0.3441
  389MOL0     H52490   6.958   3.499  -0.783 -0.6397 -2.7688 -0.0072
  389MOL0     H52491   6.985   3.487  -0.476  0.6927 -1.5008 -1.6332
  389MOL0     H52492   6.889   3.610  -0.554  0.3403  0.3001 -0.0744
  389MOL0     H52493   6.739   3.442  -0.469  2.1036 -0.6173  2.7038
  389MOL0     H52494   6.832   3.311  -0.546 -3.0448 -1.3696 -1.5898
  389MOL0     H52495   6.792   3.358  -0.758  0.0204  0.0954  0.8359
  389MOL0     H52496   6.712   3.507  -0.715 -0.4454  0.6331 -0.0205
  389MOL0     H52497   7.607   3.857  -0.810  1.3728 -1.0632 -0.0044
  389MOL0     H52498   7.839   3.796  -0.790  0.9109  0.4622  0.7143
  389MOL0     H52499   8.155   3.770  -0.698 -0.1234  2.2580  1.7942
  389MOL0     H52500   8.377   3.773  -0.749  0.4856 -1.8458 -1.4365
  389MOL0     H52501   9.886   3.498   0.385 -2.2052  0.3800  0.6264
  389MOL0     H52502  10.124   3.469   0.453 -1.4615  3.4658 -1.1419
  389MOL0     H52503  10.452   3.666   0.674  0.0221  0.5296 -0.5453
  389MOL0     H52504  10.658   3.755   0.750  1.4096 -0.2844  1.3960
  389MOL0     H52505  10.882   3.570   0.890  0.8021  0.1070  2.0066
  389MOL0     H52506  10.846   3.699   0.786 -0.6613 -0.2506  0.1451
  389MOL0     H52507  10.957   3.860   0.974  1.2784  1.2773 -1.0645
  389MOL0     H52508  11.053   3.787   0.852 -2.6735  2.2518 -0.8410
  389MOL0     H52509  11.124   3.603   0.984 -1.8091 -2.2946  2.1690
  389MOL0     H52510  10.998   3.638   1.104 -0.3626  0.5639 -0.1597
  389MOL0     H52511  11.132   3.875   1.106  0.3848  0.0272  1.9342
  389MOL0     H52512  11.267   3.767   1.058 -0.8529  0.3866 -3.0656
  389MOL0     H52513  11.187   3.663   1.471  0.0594  0.2679  0.8433
  389MOL0     H52514  10.599   3.576   1.138 -0.5480  1.0251  0.4446
  389MOL0     H52515  10.394   3.461   1.061 -0.1900  2.5184  0.8415
  390MOL0     O52516   9.028   3.436   1.927  0.1658 -0.4709 -1.0131
  390MOL0     C52517   9.042   3.320   1.884  1.1670  0.2498  0.6538
  390MOL0     O52518   8.950   3.216   1.893 -1.0057  0.5182 -0.6960
  390MOL0     C52519   8.819   3.267   1.915  1.3574  0.2389 -0.2844
  390MOL0     C52520   8.728   3.252   1.810 -0.3573  0.5345 -0.2529
  390MOL0     C52521   8.597   3.299   1.826 -0.7292  1.0446 -0.7171
  390MOL0     C52522   8.565   3.370   1.947 -0.2852 -0.2069  0.5623
  390MOL0     O52523   8.453   3.442   1.963  0.0694 -0.9559  0.0273
  390MOL0     C52524   8.327   3.392   1.927  0.5059 -0.4486  0.4176
  390MOL0     C52525   8.233   3.486   2.009  0.3359  0.4505  0.2410
  390MOL0     C52526   8.209   3.621   1.959  0.2050 -0.5514  0.0926
  390MOL0     C52527   8.158   3.631   1.812  1.0877 -0.2199  0.2349
  390MOL0     C52528   8.014   3.573   1.787 -0.2298  0.2968 -0.1102
  390MOL0     C52529   7.896   3.641   1.860 -0.3529  0.0326 -0.2909
  390MOL0     C52530   7.894   3.792   1.845  0.8579  0.0195  0.3427
  390MOL0     C52531   7.862   3.833   1.700 -0.3867 -0.0569  0.8401
  390MOL0     N52532   7.720   3.820   1.670 -0.5419 -0.7753  0.3677
  390MOL0     C52533   7.682   3.721   1.594  0.0871  0.7454 -0.1989
  390MOL0     C52534   7.553   3.725   1.605 -0.5624  0.2183  0.1809
  390MOL0     C52535   7.458   3.634   1.554  0.5372  0.0564 -0.5362
  390MOL0     C52536   7.505   3.490   1.552  0.4791  0.2778  0.5571
  390MOL0     C52537   7.398   3.395   1.498  0.4264  0.1347  0.1250
  390MOL0     C52538   7.273   3.387   1.590  0.3353  0.1799  0.5012
  390MOL0     O52539   7.206   3.272   1.537  0.5623 -0.1873 -0.6129
  390MOL0     C52540   7.083   3.232   1.582 -0.6046  0.0627  0.0968
  390MOL0     C52541   7.015   3.163   1.490 -0.0525 -0.6649 -0.1631
  390MOL0     C52542   6.888   3.101   1.519  0.1229 -0.9655 -0.2133
  390MOL0     C52543   6.836   3.008   1.408 -0.3474  0.6750 -0.3151
  390MOL0     C52544   6.835   3.117   1.654  0.3517  0.1221 -0.0155
  390MOL0     C52545   6.701   3.064   1.695 -0.4294  0.0860  0.3644
  390MOL0     O52546   6.652   3.132   1.810 -1.0195  0.3761  0.5124
  390MOL0     C52547   6.533   3.100   1.874 -0.5837  0.3501  0.5221
  390MOL0     C52548   6.443   3.204   1.894 -0.0307 -0.5244  0.4741
  390MOL0     C52549   6.321   3.174   1.955 -1.0569 -0.1746 -0.2147
  390MOL0     C52550   6.288   3.034   1.978 -0.0033 -0.7045 -0.8703
  390MOL0     O52551   6.164   3.013   2.033 -0.2331  1.2421  0.5908
  390MOL0     C52552   6.116   2.882   2.029 -0.1429  0.1498 -0.0791
  390MOL0     C52553   5.968   2.856   2.012  1.1003  0.1889  0.1134
  390MOL0     C52554   5.923   2.855   1.871  0.0612 -0.2055  0.1608
  390MOL0     C52555   5.766   2.876   1.845  0.0785 -0.3353  0.1907
  390MOL0     C52556   5.721   2.847   1.699 -0.2309 -0.8808  0.0362
  390MOL0     C52557   5.573   2.877   1.678 -0.5725 -0.0814 -0.5661
  390MOL0     C52558   5.542   3.028   1.687  0.2859  0.3999  0.6056
  390MOL0     C52559   5.399   3.053   1.725  1.2384  0.3558 -0.7262
  390MOL0    Cl52560   5.373   2.980   1.882 -0.2471 -0.0325 -0.3930
  390MOL0     C52561   6.393   2.939   1.976 -0.2829  0.0118  0.2461
  390MOL0     C52562   6.513   2.974   1.918  0.3880  1.4832  0.0638
  390MOL0     O52563   6.646   2.973   1.633  0.9781  0.2815 -0.1956
  390MOL0     C52564   6.913   3.196   1.741  0.9089  0.2208  0.7696
  390MOL0     C52565   7.034   3.251   1.701  0.3703 -0.5979 -0.2466
  390MOL0     N52566   7.519   3.841   1.662 -0.5124  0.0140 -0.5763
  390MOL0     N52567   7.624   3.900   1.711  0.7358 -0.7856 -0.5215
  390MOL0     C52568   8.660   3.391   2.044 -0.2639  0.8390 -0.3053
  390MOL0     C52569   8.781   3.324   2.037 -0.4336 -0.5949 -0.1902
  390MOL0     C52570   9.178   3.289   1.825 -0.2640  0.1271 -0.6177
  390MOL0     C52571   9.275   3.389   1.813 -0.0632 -0.3089  0.3191
  390MOL0     C52572   9.404   3.350   1.778 -1.3104 -0.5725 -0.1376
  390MOL0     C52573   9.442   3.220   1.757 -0.2282  0.2103 -0.3303
  390MOL0     O52574   9.573   3.183   1.750  0.0734 -0.3615 -0.2908
  390MOL0     C52575   9.623   3.143   1.875 -0.3490  0.6656  0.3907
  390MOL0     C52576   9.780   3.116   1.894 -0.2542 -0.2990  0.9513
  390MOL0     C52577   9.832   3.015   1.793 -0.1662 -0.5090  0.8833
  390MOL0     C52578   9.979   3.008   1.787  0.7015 -0.2133 -0.5359
  390MOL0     C52579  10.030   2.973   1.920 -0.1140  0.1288  0.2237
  390MOL0     C52580  10.079   2.948   2.024 -0.6579 -0.5067  0.7848
  390MOL0     C52581   9.343   3.123   1.759 -0.3758  0.1162  0.4361
  390MOL0     C52582   9.211   3.151   1.797  0.1918 -0.4819  0.2211
  390MOL0     H52583   8.754   3.215   1.712 -2.7040  2.0566 -1.5548
  390MOL0     H52584   8.524   3.287   1.747 -1.7234 -0.1461  0.3594
  390MOL0     H52585   8.306   3.392   1.820  0.5246 -3.0996  0.3609
  390MOL0     H52586   8.323   3.290   1.965  1.0542 -0.7104 -0.2077
  390MOL0     H52587   8.133   3.444   2.019 -0.5892  1.6859 -2.7024
  390MOL0     H52588   8.271   3.493   2.112 -1.1702  0.2784  0.8317
  390MOL0     H52589   8.147   3.673   2.033  2.7158 -0.3793  2.1915
  390MOL0     H52590   8.302   3.678   1.964 -1.0872  1.9345 -2.0666
  390MOL0     H52591   8.162   3.740   1.805  1.1510 -0.1254  1.5473
  390MOL0     H52592   8.233   3.582   1.749  1.3046  0.7306 -0.2578
  390MOL0     H52593   8.022   3.569   1.678  0.9633 -1.2846  0.0024
  390MOL0     H52594   8.008   3.470   1.824 -0.2030 -0.2725 -1.5904
  390MOL0     H52595   7.805   3.602   1.815  1.0396 -0.5006 -2.8515
  390MOL0     H52596   7.889   3.607   1.963  0.2872 -0.7846 -0.5058
  390MOL0     H52597   7.819   3.843   1.906 -1.6432 -0.9181 -1.7591
  390MOL0     H52598   7.987   3.840   1.877 -0.0395  0.3937  2.6160
  390MOL0     H52599   7.924   3.770   1.636 -2.4520 -0.1509 -1.2105
  390MOL0     H52600   7.894   3.937   1.685  3.6958 -0.9506  2.1220
  390MOL0     H52601   7.723   3.633   1.543 -1.8457  1.5439 -3.4173
  390MOL0     H52602   7.367   3.650   1.612  1.1623 -0.1555  0.5357
  390MOL0     H52603   7.430   3.661   1.452 -0.8620  0.3148 -0.1009
  390MOL0     H52604   7.535   3.468   1.655 -0.2980 -1.2540  0.4895
  390MOL0     H52605   7.592   3.477   1.487  1.6259 -1.4733  2.3447
  390MOL0     H52606   7.450   3.299   1.503  2.5257  0.9288 -3.0911
  390MOL0     H52607   7.374   3.422   1.394  1.0811  0.1115 -0.0376
  390MOL0     H52608   7.193   3.459   1.571  0.2408  0.3059  1.3320
  390MOL0     H52609   7.301   3.388   1.696 -3.4789  3.2016  1.7161
  390MOL0     H52610   7.061   3.170   1.391  3.1226  1.9422  1.2949
  390MOL0     H52611   6.742   3.048   1.368 -0.7810 -1.1161 -1.2051
  390MOL0     H52612   6.902   3.002   1.322 -0.7314  1.7029 -0.6999
  390MOL0     H52613   6.816   2.907   1.445 -0.0972  0.9579  0.6194
  390MOL0     H52614   6.471   3.305   1.868  3.1814 -0.7338  2.5472
  390MOL0     H52615   6.238   3.238   1.985 -1.4125 -0.0033 -1.5183
  390MOL0     H52616   6.167   2.820   1.956 -0.6926 -1.6118  0.9651
  390MOL0     H52617   6.138   2.834   2.125  0.0767 -0.6170 -0.5077
  390MOL0     H52618   5.950   2.752   2.043  0.4805  1.0221  2.7526
  390MOL0     H52619   5.904   2.913   2.079  0.3042 -0.5800  0.0212
  390MOL0     H52620   5.958   2.761   1.828 -1.3937 -0.9785  0.5884
  390MOL0     H52621   5.970   2.932   1.810 -0.1694 -2.0305 -2.4913
  390MOL0     H52622   5.709   2.806   1.907  1.8572 -1.0236  1.1463
  390MOL0     H52623   5.756   2.978   1.881  4.9388  0.3123  0.3242
  390MOL0     H52624   5.754   2.748   1.665  1.7805  0.0802 -1.0274
  390MOL0     H52625   5.772   2.923   1.639 -4.4989  1.4829 -1.0085
  390MOL0     H52626   5.548   2.829   1.583 -3.7550 -1.6991  0.9268
  390MOL0     H52627   5.521   2.814   1.750 -1.0768 -2.4863 -2.8880
  390MOL0     H52628   5.548   3.070   1.586  1.8709 -1.5439 -0.1626
  390MOL0     H52629   5.611   3.080   1.754  1.5655 -0.7213  0.2125
  390MOL0     H52630   5.330   3.008   1.653  1.2749  0.1269 -0.6177
  390MOL0     H52631   5.383   3.162   1.726  3.6756  0.7650  0.0900
  390MOL0     H52632   6.386   2.832   1.992  1.1499  0.0984  1.7539
  390MOL0     H52633   6.594   2.908   1.889 -0.7759 -0.7134  1.4681
  390MOL0     H52634   6.889   3.217   1.845  4.2134 -0.2001  1.7145
  390MOL0     H52635   7.086   3.300   1.782 -1.4993  2.7046 -0.8555
  390MOL0     H52636   8.636   3.454   2.129  0.8334 -0.3366  0.9026
  390MOL0     H52637   8.861   3.326   2.111 -0.6252 -3.6372  0.2500
  390MOL0     H52638   9.250   3.494   1.826  0.4788 -0.0420 -0.6726
  390MOL0     H52639   9.473   3.433   1.771 -2.1521  0.1850  0.3393
  390MOL0     H52640   9.593   3.205   1.960  0.2903  0.3557  0.8559
  390MOL0     H52641   9.571   3.049   1.892  0.2616  0.1300 -0.5786
  390MOL0     H52642   9.796   3.083   1.997 -0.2932 -2.0484  0.4361
  390MOL0     H52643   9.829   3.212   1.875 -1.8816  0.2495 -0.7249
  390MOL0     H52644   9.801   3.045   1.692  0.2367 -1.7959  0.3609
  390MOL0     H52645   9.788   2.917   1.815  0.8011 -0.6982  2.0556
  390MOL0     H52646  10.008   3.110   1.761 -0.5253  1.3143  3.3910
  390MOL0     H52647   9.987   2.931   1.710 -4.5233 -0.1926 -1.4495
  390MOL0     H52648  10.109   2.921   2.124  2.0570 -0.7171 -0.0079
  390MOL0     H52649   9.383   3.023   1.748 -0.4130  0.0955  0.4908
  390MOL0     H52650   9.129   3.081   1.813 -3.8946  3.3115 -1.9534
  391MOL0     O52651   0.946   7.756  11.052 -0.2621 -0.2706  0.5757
  391MOL0     C52652   0.999   7.644  11.035  0.6341 -0.5293 -0.5705
  391MOL0     O52653   0.934   7.522  11.057 -0.8855 -0.3694  0.0395
  391MOL0     C52654   0.801   7.537  11.079  0.4073 -0.5012  0.1554
  391MOL0     C52655   0.751   7.487  11.197  0.1361  1.2710 -0.3598
  391MOL0     C52656   0.616   7.478  11.211  0.8727  0.0183  0.8164
  391MOL0     C52657   0.523   7.526  11.114 -0.9697 -0.0466  0.4042
  391MOL0     O52658   0.389   7.515  11.118  0.3296 -0.9052 -0.3432
  391MOL0     C52659   0.334   7.496  11.245  1.2635  0.0637 -0.7625
  391MOL0     C52660   0.183   7.518  11.225 -0.9291 -0.1811  0.1519
  391MOL0     C52661   0.097   7.542  11.352 -0.8751  0.5427  0.1979
  391MOL0     C52662  -0.046   7.502  11.310  0.0035 -0.1190  0.6896
  391MOL0     C52663  -0.144   7.550  11.421  0.0632  0.4637  0.9101
  391MOL0     C52664  -0.283   7.487  11.394  0.1613 -0.4678 -1.0150
  391MOL0     C52665  -0.395   7.537  11.483 -0.3212 -0.1446 -0.4636
  391MOL0     C52666  -0.369   7.509  11.633 -0.6642  0.4032  0.4428
  391MOL0     N52667  -0.475   7.548  11.733  0.2824  0.0233 -0.0430
  391MOL0     C52668  -0.509   7.679  11.759 -0.1913 -0.9430 -0.3269
  391MOL0     C52669  -0.637   7.675  11.813 -0.5143  0.1849  0.6087
  391MOL0     C52670  -0.716   7.803  11.849  0.6205 -0.4555 -0.7758
  391MOL0     C52671  -0.842   7.809  11.760 -0.0524  0.1912  0.0134
  391MOL0     C52672  -0.932   7.931  11.800  0.0712  1.1608 -0.4350
  391MOL0     C52673  -1.050   7.946  11.701 -0.1397 -0.3725 -0.4428
  391MOL0     O52674  -1.132   8.051  11.741 -0.0287  0.2034  0.6599
  391MOL0     C52675  -1.248   8.016  11.812  0.5421  0.0332  0.4222
  391MOL0     C52676  -1.254   7.905  11.898  0.1523  0.6312 -0.0994
  391MOL0     C52677  -1.373   7.862  11.958  0.0603  0.2846  0.5813
  391MOL0     C52678  -1.354   7.745  12.052 -0.8352  0.1362 -0.0730
  391MOL0     C52679  -1.489   7.939  11.948  1.1419  0.4779 -0.4519
  391MOL0     C52680  -1.608   7.923  12.031  0.9836 -0.1414  0.5689
  391MOL0     O52681  -1.633   7.803  12.091  0.2360 -0.0835  0.4546
  391MOL0     C52682  -1.749   7.778  12.162 -0.0138 -0.0930 -0.0828
  391MOL0     C52683  -1.815   7.666  12.118  0.0974  0.5782 -0.7372
  391MOL0     C52684  -1.934   7.630  12.176  0.3886 -0.3069 -0.6441
  391MOL0     C52685  -1.990   7.707  12.285 -0.2813 -0.5913  0.9841
  391MOL0     O52686  -2.112   7.652  12.322 -0.0408  0.5331  0.4374
  391MOL0     C52687  -2.179   7.707  12.438 -0.2982 -0.4289  0.3280
  391MOL0     C52688  -2.262   7.593  12.493  0.6116 -0.9898  0.4509
  391MOL0     C52689  -2.186   7.509  12.595 -0.1847 -0.1276  0.3799
  391MOL0     C52690  -2.262   7.389  12.664 -0.7805 -1.2495 -0.2268
  391MOL0     C52691  -2.179   7.274  12.728 -0.0856  0.1538  0.1745
  391MOL0     C52692  -2.256   7.153  12.778 -0.3585  0.2830  0.4943
  391MOL0     C52693  -2.364   7.090  12.675  1.0223  0.2335  0.8582
  391MOL0     C52694  -2.454   6.989  12.739  0.2032 -0.2179 -0.4143
  391MOL0    Cl52695  -2.551   6.892  12.616 -0.0827  0.4051 -0.0228
  391MOL0     C52696  -1.916   7.816  12.327  0.2388 -0.5596  0.2640
  391MOL0     C52697  -1.797   7.853  12.270 -0.1264 -0.6777 -0.0169
  391MOL0     O52698  -1.691   8.017  12.027  0.1401  0.3355  1.1187
  391MOL0     C52699  -1.478   8.053  11.873 -0.6590 -0.2670  0.9853
  391MOL0     C52700  -1.368   8.093  11.796 -0.1234  0.2673  0.8680
  391MOL0     N52701  -0.675   7.540  11.826 -0.3118 -0.2698  0.7151
  391MOL0     N52702  -0.580   7.466  11.777 -0.1734 -0.1960  0.2170
  391MOL0     C52703   0.584   7.591  11.002 -0.4104 -0.1607 -0.2551
  391MOL0     C52704   0.720   7.592  10.985 -0.4988  0.0881 -0.1262
  391MOL0     C52705   1.151   7.639  11.039 -0.3071 -0.3787 -0.9709
  391MOL0     C52706   1.233   7.754  11.049 -0.1380 -0.1757  0.1102
  391MOL0     C52707   1.371   7.744  11.047  0.1590  0.2919  0.0498
  391MOL0     C52708   1.444   7.626  11.056  0.3045 -0.1703 -0.2692
  391MOL0     O52709   1.581   7.605  11.059  0.1132 -0.3800 -0.3846
  391MOL0     C52710   1.663   7.723  11.094  0.1107  0.1416  0.1605
  391MOL0     C52711   1.805   7.682  11.056  0.4814  0.6727 -0.4533
  391MOL0     C52712   1.902   7.795  11.054  0.7307  0.3626 -0.0459
  391MOL0     C52713   2.042   7.744  11.029 -0.2929  0.6337 -1.2776
  391MOL0     C52714   2.060   7.726  10.885  0.3024  0.1857  0.3302
  391MOL0     C52715   2.078   7.731  10.765  0.1620 -0.0907  0.1581
  391MOL0     C52716   1.359   7.511  11.065  0.0606 -0.1195  0.1249
  391MOL0     C52717   1.219   7.521  11.048  0.5890 -0.0577  0.0015
  391MOL0     H52718   0.818   7.457  11.277  1.8388 -1.1061 -2.5185
  391MOL0     H52719   0.584   7.425  11.300 -2.5189  1.7183  0.7512
  391MOL0     H52720   0.338   7.391  11.277 -1.1184  0.2355  0.2919
  391MOL0     H52721   0.373   7.562  11.323 -1.7085 -0.8753  1.7125
  391MOL0     H52722   0.172   7.607  11.163  1.6104  0.9382  1.1576
  391MOL0     H52723   0.137   7.427  11.184 -2.7552  0.7680 -0.0088
  391MOL0     H52724   0.139   7.482  11.433 -1.9392 -0.4304  0.0555
  391MOL0     H52725   0.098   7.647  11.383  1.4500  0.1792  1.5638
  391MOL0     H52726  -0.059   7.541  11.209  0.8534  0.0491  0.6437
  391MOL0     H52727  -0.057   7.394  11.300 -0.5518  0.0243 -0.4208
  391MOL0     H52728  -0.104   7.511  11.515  4.2451  0.3648 -0.6926
  391MOL0     H52729  -0.147   7.656  11.446 -1.9085  0.3058  1.5126
  391MOL0     H52730  -0.318   7.535  11.302  1.6507  3.1258  0.1036
  391MOL0     H52731  -0.290   7.378  11.397  1.3938 -0.6120 -2.1313
  391MOL0     H52732  -0.403   7.646  11.474 -1.5175 -0.2245 -0.4773
  391MOL0     H52733  -0.487   7.481  11.467  0.7078 -1.2719 -3.0609
  391MOL0     H52734  -0.275   7.559  11.654 -0.4173  0.2820 -0.3497
  391MOL0     H52735  -0.350   7.401  11.639  3.0299  0.7863 -1.7369
  391MOL0     H52736  -0.455   7.765  11.720 -0.3556 -0.8626 -0.3781
  391MOL0     H52737  -0.750   7.815  11.952  0.0377 -0.9401 -0.9053
  391MOL0     H52738  -0.647   7.887  11.833  3.0122 -1.5499  2.6351
  391MOL0     H52739  -0.890   7.711  11.764 -3.8222  1.8878  0.4403
  391MOL0     H52740  -0.818   7.824  11.654 -0.7373  2.0636  0.0836
  391MOL0     H52741  -0.875   8.023  11.812  2.6564 -0.2013 -1.6490
  391MOL0     H52742  -0.963   7.909  11.903  2.5751  0.5536  0.2493
  391MOL0     H52743  -1.115   7.858  11.699 -0.9919  0.2510 -1.4604
  391MOL0     H52744  -1.014   7.956  11.598 -0.7789 -1.9088 -0.8450
  391MOL0     H52745  -1.188   7.828  11.936 -2.7224 -2.2686 -0.5381
  391MOL0     H52746  -1.426   7.663  12.044  0.1467 -0.8586  0.8229
  391MOL0     H52747  -1.259   7.692  12.043 -0.9635 -0.1736  0.3207
  391MOL0     H52748  -1.360   7.784  12.154  2.0847  1.1755 -0.2190
  391MOL0     H52749  -1.784   7.595  12.042  1.6620 -0.4494  0.7734
  391MOL0     H52750  -1.988   7.544  12.137 -1.1176 -0.5875  1.7902
  391MOL0     H52751  -2.101   7.739  12.508  2.1316 -1.4450 -1.7521
  391MOL0     H52752  -2.241   7.787  12.397  1.4860 -1.3214 -4.9020
  391MOL0     H52753  -2.350   7.636  12.541  0.8766  1.0283 -0.7778
  391MOL0     H52754  -2.300   7.533  12.409  0.4780  0.6593 -0.7060
  391MOL0     H52755  -2.136   7.572  12.670  0.0553 -0.4069  0.4545
  391MOL0     H52756  -2.107   7.472  12.530 -0.4016  2.3421 -1.4554
  391MOL0     H52757  -2.335   7.430  12.735  0.9310 -1.1149  1.5390
  391MOL0     H52758  -2.322   7.350  12.582 -0.3516  1.5142 -1.9741
  391MOL0     H52759  -2.130   7.312  12.818 -2.0710 -3.3547  2.9806
  391MOL0     H52760  -2.103   7.243  12.657 -1.1321 -0.9030 -0.5250
  391MOL0     H52761  -2.182   7.073  12.791 -1.0826 -0.7203 -1.2992
  391MOL0     H52762  -2.313   7.178  12.868 -2.7014 -0.4630 -0.7212
  391MOL0     H52763  -2.319   7.049  12.585  0.1168  0.9287  0.0726
  391MOL0     H52764  -2.426   7.168  12.631  1.6353  0.1710 -0.1391
  391MOL0     H52765  -2.525   7.046  12.800  0.9334 -0.0134  0.2694
  391MOL0     H52766  -2.390   6.927  12.803  1.9156 -0.2825 -2.0966
  391MOL0     H52767  -1.956   7.883  12.404 -2.9117  0.2501 -1.8591
  391MOL0     H52768  -1.744   7.946  12.289 -1.3430 -0.2599  1.5038
  391MOL0     H52769  -1.566   8.116  11.862  0.9101  1.9748  0.5476
  391MOL0     H52770  -1.379   8.175  11.726 -3.0541 -0.4562  0.3451
  391MOL0     H52771   0.531   7.630  10.916  1.2017  0.0252 -1.1951
  391MOL0     H52772   0.758   7.640  10.895 -2.0263 -1.2619 -1.5479
  391MOL0     H52773   1.189   7.853  11.049  2.2972  1.0604 -2.4815
  391MOL0     H52774   1.426   7.838  11.049  1.2966 -0.3445 -0.8211
  391MOL0     H52775   1.638   7.807  11.028 -1.2321  0.6361  1.2466
  391MOL0     H52776   1.652   7.758  11.197 -1.4650  0.0229  0.0602
  391MOL0     H52777   1.801   7.620  10.966 -0.8927 -0.6551  0.4620
  391MOL0     H52778   1.839   7.607  11.128 -0.4521  0.8451  0.1778
  391MOL0     H52779   1.891   7.840  11.153  1.6446  4.6675 -1.6670
  391MOL0     H52780   1.875   7.868  10.978 -1.4742  0.4591  0.7617
  391MOL0     H52781   2.066   7.656  11.089  2.3760  0.3652 -2.6124
  391MOL0     H52782   2.119   7.815  11.062  0.1260 -0.1951 -0.4383
  391MOL0     H52783   2.097   7.707  10.662  2.0496 -0.2829  0.5021
  391MOL0     H52784   1.410   7.415  11.067 -0.6276 -0.5848 -2.1064
  391MOL0     H52785   1.171   7.424  11.047 -2.0911  1.1718 -0.5733
  392MOL0     O52786   5.759   7.625  10.772  0.6703 -0.1063  0.5535
  392MOL0     C52787   5.830   7.606  10.677  0.2041 -0.5323  0.6525
  392MOL0     O52788   5.793   7.622  10.547 -0.1279  0.4285 -0.2081
  392MOL0     C52789   5.663   7.659  10.508 -0.6157 -0.3548 -0.0184
  392MOL0     C52790   5.618   7.793  10.520  0.8620 -0.3893 -0.1380
  392MOL0     C52791   5.484   7.831  10.489  0.1050  0.4565 -0.0490
  392MOL0     C52792   5.399   7.729  10.436  0.8208  0.4901 -0.2176
  392MOL0     O52793   5.270   7.747  10.386  0.2422  0.3514  0.7172
  392MOL0     C52794   5.226   7.870  10.344 -0.4147  0.2423 -0.6891
  392MOL0     C52795   5.109   7.840  10.254  0.5399  0.0706 -0.4843
  392MOL0     C52796   5.139   7.734  10.144  0.3587 -0.0245 -0.3465
  392MOL0     C52797   5.048   7.607  10.137  0.1036 -0.5156  0.0578
  392MOL0     C52798   4.919   7.633  10.061 -0.4374 -0.8222  0.4539
  392MOL0     C52799   4.817   7.514  10.048  0.3519  0.3322 -0.6713
  392MOL0     C52800   4.888   7.384   9.998 -0.7977 -0.0761 -0.6653
  392MOL0     C52801   4.791   7.277   9.954 -0.2777  0.0095  0.8245
  392MOL0     N52802   4.689   7.262  10.050 -0.3865 -0.1300 -0.3060
  392MOL0     C52803   4.699   7.193  10.164 -0.0282  0.6164 -0.0089
  392MOL0     C52804   4.582   7.208  10.222  0.4566  0.0684  0.5827
  392MOL0     C52805   4.535   7.150  10.358 -0.0704 -0.1128  0.3578
  392MOL0     C52806   4.385   7.182  10.380  0.5486 -0.2443  0.2942
  392MOL0     C52807   4.347   7.138  10.519 -0.5912  0.2880  0.3097
  392MOL0     C52808   4.194   7.135  10.533 -0.2803  0.6012 -0.7002
  392MOL0     O52809   4.154   7.021  10.444  0.7045  0.3300  0.1104
  392MOL0     C52810   4.020   7.007  10.409 -0.3057 -0.0985 -0.2052
  392MOL0     C52811   3.986   6.894  10.338  0.1075  0.5138 -0.0856
  392MOL0     C52812   3.853   6.870  10.301  0.1791  0.1833 -0.1379
  392MOL0     C52813   3.836   6.760  10.204 -0.5071  0.0069  0.5204
  392MOL0     C52814   3.742   6.944  10.348  0.2127  1.0572  0.2311
  392MOL0     C52815   3.598   6.912  10.322  0.2264  0.4377 -0.2513
  392MOL0     O52816   3.507   7.017  10.346 -0.6923 -0.3433 -0.0884
  392MOL0     C52817   3.383   7.017  10.286  0.3760 -0.3895 -0.5738
  392MOL0     C52818   3.327   7.144  10.256  0.2350  0.4227 -0.3311
  392MOL0     C52819   3.208   7.155  10.182 -0.0556  0.9452 -0.7770
  392MOL0     C52820   3.125   7.048  10.162  0.5889  0.4535  0.3012
  392MOL0     O52821   2.998   7.073  10.093 -0.2584 -0.1432 -0.3556
  392MOL0     C52822   2.900   6.965  10.092 -0.0659  0.1561  0.6629
  392MOL0     C52823   2.756   7.002  10.044  0.0839  1.0309  0.2779
  392MOL0     C52824   2.703   7.128  10.090  0.6406 -1.0244 -0.2200
  392MOL0     C52825   2.560   7.149  10.044 -0.4209  0.6061  0.3081
  392MOL0     C52826   2.518   7.300  10.036  0.6338  0.6926  0.4019
  392MOL0     C52827   2.393   7.314   9.950 -0.3493 -0.2396  0.2552
  392MOL0     C52828   2.341   7.460   9.956 -0.2167  0.0477 -0.1025
  392MOL0     C52829   2.227   7.479   9.852  0.5309 -0.1158 -0.0226
  392MOL0    Cl52830   2.084   7.383   9.877 -0.1922 -0.4409 -0.6484
  392MOL0     C52831   3.167   6.921  10.210  0.8297 -0.2955 -1.0285
  392MOL0     C52832   3.295   6.904  10.262  0.7296 -0.8457  0.6172
  392MOL0     O52833   3.571   6.808  10.265  0.2968  0.1606  1.0886
  392MOL0     C52834   3.779   7.063  10.422 -0.0405  0.5988 -0.9945
  392MOL0     C52835   3.913   7.091  10.445  0.8434 -0.2832  0.2829
  392MOL0     N52836   4.506   7.296  10.144  0.4111 -0.1395  0.6804
  392MOL0     N52837   4.571   7.331  10.044 -0.4545 -0.1820  0.3271
  392MOL0     C52838   5.446   7.597  10.408 -0.9829 -0.2476  0.7530
  392MOL0     C52839   5.584   7.570  10.449  0.7152  0.1359 -0.1517
  392MOL0     C52840   5.973   7.568  10.709  0.0909  0.0600  0.9350
  392MOL0     C52841   6.056   7.522  10.601  0.0203 -0.1359 -1.1981
  392MOL0     C52842   6.188   7.478  10.625  0.3435 -0.1104 -0.3868
  392MOL0     C52843   6.241   7.488  10.757 -0.9211  0.3074  0.0824
  392MOL0     O52844   6.374   7.468  10.787 -0.2397 -0.3821  0.1224
  392MOL0     C52845   6.446   7.591  10.797  0.4532 -0.6968 -0.6204
  392MOL0     C52846   6.593   7.555  10.819  0.9107 -0.9292  0.4817
  392MOL0     C52847   6.636   7.482  10.692  0.6514 -0.0756  0.0715
  392MOL0     C52848   6.775   7.442  10.716 -0.7297 -0.6375 -0.5580
  392MOL0     C52849   6.865   7.564  10.715  0.3750 -0.6123 -0.0394
  392MOL0     C52850   6.909   7.679  10.713  0.3252  0.3446  1.0444
  392MOL0     C52851   6.164   7.539  10.858  0.3955 -0.2003 -0.7817
  392MOL0     C52852   6.032   7.574  10.833  0.8040 -0.3184 -0.8347
  392MOL0     H52853   5.697   7.854  10.563  0.2667  0.0097  0.3984
  392MOL0     H52854   5.457   7.933  10.512 -2.3095  0.6334 -3.0327
  392MOL0     H52855   5.196   7.934  10.428 -0.1926  1.4894 -1.5271
  392MOL0     H52856   5.307   7.920  10.289  3.6348 -2.5739  2.1301
  392MOL0     H52857   5.020   7.799  10.302  0.8379 -2.5497 -2.0132
  392MOL0     H52858   5.076   7.939  10.221 -1.3501 -0.9154 -1.7361
  392MOL0     H52859   5.121   7.788  10.050  0.6766 -1.7270 -1.4360
  392MOL0     H52860   5.243   7.700  10.138  0.3185 -0.1199 -0.5381
  392MOL0     H52861   5.102   7.521  10.094  1.5691  1.2324 -1.7860
  392MOL0     H52862   5.035   7.578  10.241  2.5995 -0.5205  0.4452
  392MOL0     H52863   4.873   7.711  10.122  0.9944 -0.2509  0.8550
  392MOL0     H52864   4.951   7.675   9.965  0.7686  1.2963  1.7038
  392MOL0     H52865   4.774   7.487  10.145 -0.5504  0.8424 -0.9223
  392MOL0     H52866   4.738   7.532   9.976 -0.1013 -0.4015 -0.3709
  392MOL0     H52867   4.957   7.394   9.913 -0.0058  0.7755  0.0470
  392MOL0     H52868   4.947   7.351  10.084 -2.0991  0.6645  0.5403
  392MOL0     H52869   4.851   7.186   9.948  0.6467  0.4747  2.3652
  392MOL0     H52870   4.748   7.299   9.855  0.4592  3.3958  1.1151
  392MOL0     H52871   4.783   7.140  10.206  0.1040  1.7489  1.2407
  392MOL0     H52872   4.555   7.043  10.353 -0.2917 -0.1296 -0.2933
  392MOL0     H52873   4.599   7.190  10.437  1.6608 -0.4027 -0.8575
  392MOL0     H52874   4.328   7.125  10.306 -1.6210 -2.2794  3.2707
  392MOL0     H52875   4.356   7.288  10.383 -1.1489 -0.6830  1.4242
  392MOL0     H52876   4.398   7.211  10.582 -0.0182  0.1534  0.0029
  392MOL0     H52877   4.388   7.040  10.540  1.5536  1.4411  1.8602
  392MOL0     H52878   4.159   7.233  10.499 -0.6232  0.7604  0.0765
  392MOL0     H52879   4.155   7.125  10.635  0.2331  5.3366  0.1835
  392MOL0     H52880   4.065   6.825  10.312  0.7382  1.6861 -1.4359
  392MOL0     H52881   3.931   6.723  10.164 -1.0371  1.0986 -1.9300
  392MOL0     H52882   3.783   6.675  10.248 -0.7644 -0.8861 -1.4213
  392MOL0     H52883   3.781   6.803  10.121  2.3147  2.1755 -0.3744
  392MOL0     H52884   3.390   7.232  10.268  4.7967 -2.3900 -1.1390
  392MOL0     H52885   3.193   7.256  10.147  2.2110  1.9766  0.9359
  392MOL0     H52886   2.941   6.878  10.039  0.9791  0.0237  1.6480
  392MOL0     H52887   2.893   6.943  10.198 -1.3603  0.2898  0.6232
  392MOL0     H52888   2.763   7.010   9.935 -1.0994 -2.2060 -0.1224
  392MOL0     H52889   2.691   6.917  10.068  1.9096  0.0034  1.8155
  392MOL0     H52890   2.764   7.209  10.049 -1.2603 -0.7694 -2.7634
  392MOL0     H52891   2.710   7.128  10.199 -0.2878 -0.6293 -0.1579
  392MOL0     H52892   2.546   7.109   9.943  0.8643  0.8052  0.0293
  392MOL0     H52893   2.489   7.091  10.104  0.6318 -1.5990 -0.4593
  392MOL0     H52894   2.604   7.348   9.988  1.5964 -2.1970 -0.9541
  392MOL0     H52895   2.510   7.341  10.137  3.4674  1.3405  0.4455
  392MOL0     H52896   2.417   7.284   9.847  0.2182  1.7929 -0.2649
  392MOL0     H52897   2.310   7.253   9.987 -0.7875 -1.4004 -2.3832
  392MOL0     H52898   2.422   7.525   9.922 -1.2049  1.4475  0.1336
  392MOL0     H52899   2.311   7.476  10.060  0.0128 -0.8547  0.1203
  392MOL0     H52900   2.276   7.463   9.755 -1.4881 -0.9044 -0.9596
  392MOL0     H52901   2.192   7.582   9.862 -2.0223 -0.8220 -1.1284
  392MOL0     H52902   3.106   6.834  10.190  1.5586 -1.6918  2.1472
  392MOL0     H52903   3.323   6.803  10.289  0.8529 -1.0938 -0.4124
  392MOL0     H52904   3.710   7.132  10.471  0.5568 -0.7121  1.9608
  392MOL0     H52905   3.922   7.189  10.493  1.2437 -0.0887 -0.1807
  392MOL0     H52906   5.383   7.522  10.360 -0.1088  1.1016 -2.7994
  392MOL0     H52907   5.641   7.479  10.434  0.8322  0.6548 -3.7304
  392MOL0     H52908   6.019   7.520  10.499 -1.2025  2.9971 -0.9241
  392MOL0     H52909   6.259   7.448  10.548  1.7184 -0.1899  0.8746
  392MOL0     H52910   6.437   7.650  10.705  0.8407 -2.3104 -1.7470
  392MOL0     H52911   6.395   7.648  10.874  0.5067  0.9671 -1.7753
  392MOL0     H52912   6.615   7.490  10.904  2.7455 -2.4957 -1.1038
  392MOL0     H52913   6.640   7.653  10.830 -0.1109 -0.5435  1.5365
  392MOL0     H52914   6.627   7.541  10.600  0.0475 -0.0813  0.1203
  392MOL0     H52915   6.568   7.399  10.670 -0.0391  1.0959 -2.6728
  392MOL0     H52916   6.807   7.387  10.627 -1.2196  0.9424 -1.7783
  392MOL0     H52917   6.784   7.379  10.804  0.3093  0.0944 -0.1248
  392MOL0     H52918   6.943   7.780  10.703  0.4670  0.3443  1.4800
  392MOL0     H52919   6.206   7.533  10.958  2.0261  0.0197 -1.4166
  392MOL0     H52920   5.979   7.613  10.919  2.0255 -0.9840  0.2749
  393MOL0     O52921   7.283  10.667   1.496  0.0294 -0.5203 -0.0656
  393MOL0     C52922   7.361  10.724   1.577  0.5398 -0.8364 -0.3913
  393MOL0     O52923   7.346  10.723   1.710  0.0339  0.1505 -0.1666
  393MOL0     C52924   7.249  10.646   1.762 -0.4834 -0.3187  0.2268
  393MOL0     C52925   7.138  10.718   1.811  0.1832  0.6282 -0.1286
  393MOL0     C52926   7.030  10.645   1.868 -0.3258 -0.6459 -0.1088
  393MOL0     C52927   7.029  10.508   1.894 -0.1521 -0.7046  0.6082
  393MOL0     O52928   6.935  10.433   1.963 -0.3167  0.1630  0.2200
  393MOL0     C52929   6.832  10.506   2.033 -0.5965 -0.5295 -0.0801
  393MOL0     C52930   6.792  10.437   2.170 -0.4884 -0.2773  0.7131
  393MOL0     C52931   6.691  10.517   2.233  0.2549 -0.0196  0.8641
  393MOL0     C52932   6.555  10.489   2.160  0.0133  0.3828  0.2068
  393MOL0     C52933   6.440  10.518   2.243 -0.3830  0.3005 -0.6890
  393MOL0     C52934   6.309  10.484   2.173  0.5137  0.7138 -0.5819
  393MOL0     C52935   6.191  10.557   2.236  0.1331 -0.9956  0.2074
  393MOL0     C52936   6.197  10.717   2.256 -0.4666 -0.6896  0.4576
  393MOL0     N52937   6.077  10.765   2.326 -0.2338 -0.6970 -0.4291
  393MOL0     C52938   5.954  10.783   2.280  0.5407  0.5468  0.1313
  393MOL0     C52939   5.877  10.855   2.369 -0.3587  0.7398 -0.4658
  393MOL0     C52940   5.743  10.905   2.370 -0.1355  0.5430 -1.2785
  393MOL0     C52941   5.639  10.792   2.337 -0.6192  0.3188  0.3592
  393MOL0     C52942   5.507  10.827   2.396  0.5955  0.4766 -0.1906
  393MOL0     C52943   5.403  10.720   2.379  0.3325 -0.7149  0.4240
  393MOL0     O52944   5.428  10.609   2.465  0.1889  0.0799 -0.3683
  393MOL0     C52945   5.333  10.517   2.475  0.3913 -0.9075 -1.0021
  393MOL0     C52946   5.349  10.384   2.435 -0.8294  0.8458 -0.0553
  393MOL0     C52947   5.248  10.290   2.451 -0.2796  0.4495  0.3809
  393MOL0     C52948   5.281  10.149   2.427  0.2549  0.3724 -0.0423
  393MOL0     C52949   5.117  10.330   2.494 -0.2000  0.2472  0.2258
  393MOL0     C52950   4.988  10.248   2.510 -0.6970  0.1022  0.6270
  393MOL0     O52951   4.887  10.298   2.585  0.2102 -0.6363  0.2097
  393MOL0     C52952   4.768  10.238   2.603  0.9408 -0.3024  0.1204
  393MOL0     C52953   4.698  10.295   2.710 -0.1447  0.2946 -0.8601
  393MOL0     C52954   4.571  10.257   2.734 -0.3197 -0.0868 -0.1404
  393MOL0     C52955   4.501  10.159   2.657 -0.3967 -0.6483 -0.7788
  393MOL0     O52956   4.374  10.132   2.696  0.2367 -0.3230  0.7723
  393MOL0     C52957   4.322  10.004   2.678 -1.3484  0.5239 -0.0945
  393MOL0     C52958   4.200   9.964   2.764 -0.1532  0.7076 -0.4460
  393MOL0     C52959   4.239   9.975   2.908 -0.6990 -0.0467 -0.0253
  393MOL0     C52960   4.133   9.925   3.012  0.3472 -0.1520  0.1472
  393MOL0     C52961   4.024  10.032   3.021 -0.7475  0.2705 -0.2380
  393MOL0     C52962   3.895   9.967   3.082 -0.4558 -1.5009  0.4219
  393MOL0     C52963   3.792  10.082   3.097  0.8111  0.2698  0.4303
  393MOL0     C52964   3.835  10.188   3.196 -0.7145 -0.5400 -0.0154
  393MOL0    Cl52965   3.717  10.311   3.222  0.0749  0.0586  0.0336
  393MOL0     C52966   4.574  10.097   2.562 -0.8036  0.1286  1.2168
  393MOL0     C52967   4.704  10.128   2.532  0.1134  0.1246  0.0363
  393MOL0     O52968   4.990  10.128   2.469 -0.5308  0.0759  0.4828
  393MOL0     C52969   5.103  10.466   2.536  0.2612 -0.6320  0.2378
  393MOL0     C52970   5.211  10.552   2.529  0.0545 -0.3522 -1.0280
  393MOL0     N52971   5.963  10.871   2.483 -0.9883  0.5511 -0.5003
  393MOL0     N52972   6.076  10.820   2.455  0.3162 -0.4434 -0.7215
  393MOL0     C52973   7.148  10.443   1.843  0.3874 -0.1029  0.4405
  393MOL0     C52974   7.249  10.502   1.771 -0.4898  0.4725 -0.0931
  393MOL0     C52975   7.478  10.795   1.526 -0.0135  0.2233 -0.3444
  393MOL0     C52976   7.588  10.815   1.611 -0.2041  0.6556 -0.3469
  393MOL0     C52977   7.710  10.869   1.570 -0.4094  0.7456  0.5628
  393MOL0     C52978   7.727  10.903   1.434 -0.5984 -0.1585  0.4834
  393MOL0     O52979   7.853  10.952   1.402 -0.3427 -0.2072  0.4022
  393MOL0     C52980   7.880  11.035   1.286  0.4338  0.4866 -0.1388
  393MOL0     C52981   7.938  10.954   1.167  0.3125  0.5015 -0.1588
  393MOL0     C52982   7.915  11.021   1.029  0.2594 -0.4449 -0.1180
  393MOL0     C52983   7.805  10.965   0.945  0.1621 -0.2372  0.0592
  393MOL0     C52984   7.818  10.994   0.798 -0.0168 -0.3605 -0.6996
  393MOL0     C52985   7.829  11.004   0.680 -0.2707  0.1464 -0.4877
  393MOL0     C52986   7.616  10.889   1.345 -0.1633  0.3465  0.0888
  393MOL0     C52987   7.493  10.828   1.393  0.5254 -0.1664  0.4535
  393MOL0     H52988   7.119  10.822   1.787 -2.9368 -0.0851 -1.2690
  393MOL0     H52989   6.945  10.710   1.887 -0.8145 -1.1206 -0.6645
  393MOL0     H52990   6.853  10.613   2.038 -2.2413 -0.1204 -1.1062
  393MOL0     H52991   6.741  10.492   1.973 -1.3610  1.4625  0.5316
  393MOL0     H52992   6.757  10.335   2.153 -1.2778  0.1577 -0.3995
  393MOL0     H52993   6.882  10.439   2.232 -0.0295  1.1594  0.0333
  393MOL0     H52994   6.695  10.487   2.338 -1.0692 -1.3019  0.5790
  393MOL0     H52995   6.722  10.622   2.224  0.2166 -0.1899 -2.9629
  393MOL0     H52996   6.555  10.557   2.075  0.4297  1.2601  0.8935
  393MOL0     H52997   6.553  10.388   2.118  1.5961 -0.0416  1.0678
  393MOL0     H52998   6.457  10.453   2.329  2.0422  0.0769 -1.2642
  393MOL0     H52999   6.437  10.623   2.274 -1.3987  0.4038 -1.0774
  393MOL0     H53000   6.317  10.507   2.066  0.7589  0.3252 -0.6489
  393MOL0     H53001   6.288  10.377   2.173 -3.6003  1.3260 -2.5076
  393MOL0     H53002   6.112  10.534   2.164  1.8050 -2.2008 -1.3290
  393MOL0     H53003   6.171  10.513   2.334 -0.0306 -4.2473 -1.1789
  393MOL0     H53004   6.197  10.762   2.156 -2.2621  2.6543  1.7768
  393MOL0     H53005   6.285  10.746   2.315  0.3674  1.1475 -1.5225
  393MOL0     H53006   5.931  10.744   2.181  1.4537 -1.9956  0.8482
  393MOL0     H53007   5.723  10.960   2.463  0.0150  0.5457 -1.2470
  393MOL0     H53008   5.739  10.985   2.296  0.0542  3.1949  1.4062
  393MOL0     H53009   5.669  10.695   2.377 -2.5703 -0.2527  0.5457
  393MOL0     H53010   5.624  10.792   2.228  0.2914  0.3352  0.2268
  393MOL0     H53011   5.483  10.924   2.352  0.5405  0.2774 -0.6104
  393MOL0     H53012   5.533  10.834   2.502  2.6371 -1.2102 -0.5278
  393MOL0     H53013   5.394  10.685   2.275  2.3446 -1.3864  0.4286
  393MOL0     H53014   5.314  10.780   2.400 -2.1059 -3.7073 -0.6021
  393MOL0     H53015   5.433  10.354   2.374 -1.2764 -0.4215 -0.0832
  393MOL0     H53016   5.216  10.104   2.352  0.0065  2.8190 -1.3945
  393MOL0     H53017   5.384  10.126   2.396 -0.1340 -0.9048 -0.4412
  393MOL0     H53018   5.273  10.088   2.518 -0.2587  0.9554  0.3055
  393MOL0     H53019   4.742  10.361   2.784  1.5160 -2.7691  1.0535
  393MOL0     H53020   4.526  10.300   2.823  1.4233 -2.5096  2.0674
  393MOL0     H53021   4.293  10.000   2.573  1.5673 -0.2460 -0.9504
  393MOL0     H53022   4.400   9.928   2.683  0.1407  1.7705 -2.4457
  393MOL0     H53023   4.108  10.021   2.749 -0.2688  0.6355 -0.0329
  393MOL0     H53024   4.176   9.859   2.748  2.2234 -0.2325  1.5756
  393MOL0     H53025   4.270  10.076   2.937 -3.6694 -0.3199  5.4725
  393MOL0     H53026   4.328   9.913   2.925 -0.7309  0.9259  5.2840
  393MOL0     H53027   4.090   9.828   2.982 -0.0793  0.1274 -0.1583
  393MOL0     H53028   4.184   9.901   3.106 -0.5761  0.8957  0.9364
  393MOL0     H53029   4.021  10.096   2.932  1.7627  4.0008  2.0538
  393MOL0     H53030   4.058  10.098   3.101 -2.7725  0.4061  0.5758
  393MOL0     H53031   3.840   9.889   3.028  1.4477 -2.1310 -0.6701
  393MOL0     H53032   3.907   9.910   3.175 -0.9632  0.9044  2.0687
  393MOL0     H53033   3.697  10.034   3.121  0.2320  0.2375 -1.6956
  393MOL0     H53034   3.780  10.136   3.003 -0.7086 -0.8536 -0.0560
  393MOL0     H53035   3.920  10.251   3.167 -0.1802  0.2242  2.8899
  393MOL0     H53036   3.866  10.146   3.292  0.4368 -1.2851 -0.6972
  393MOL0     H53037   4.534  10.015   2.503  2.6956 -2.6366  2.2878
  393MOL0     H53038   4.750  10.072   2.451  0.1869 -0.8343  0.7204
  393MOL0     H53039   5.008  10.508   2.567  0.5582 -0.7662  1.3589
  393MOL0     H53040   5.176  10.650   2.558  1.4574 -0.3222  0.7984
  393MOL0     H53041   7.152  10.335   1.854  0.9219 -0.1018  0.2951
  393MOL0     H53042   7.330  10.440   1.733  1.3541  2.4304  0.4426
  393MOL0     H53043   7.591  10.795   1.718 -0.5086 -0.7428 -0.5757
  393MOL0     H53044   7.798  10.876   1.633 -0.0589  0.2556  0.1372
  393MOL0     H53045   7.792  11.082   1.242  0.1744 -0.8186 -1.0669
  393MOL0     H53046   7.956  11.105   1.321  3.6567 -3.4053  1.5075
  393MOL0     H53047   7.893  10.854   1.177  0.1436  0.4620 -1.1644
  393MOL0     H53048   8.045  10.935   1.180  0.1540 -1.6384 -1.3638
  393MOL0     H53049   8.004  10.998   0.969  1.7822  0.6393  1.6019
  393MOL0     H53050   7.911  11.130   1.042 -0.7262 -0.0969 -2.7757
  393MOL0     H53051   7.711  11.001   0.987  0.7427 -2.4467  3.6024
  393MOL0     H53052   7.798  10.856   0.950  1.9117 -0.4555 -1.1578
  393MOL0     H53053   7.843  11.042   0.581 -1.0109 -0.4676 -0.8356
  393MOL0     H53054   7.625  10.930   1.245 -0.9026 -0.9138 -0.5105
  393MOL0     H53055   7.411  10.812   1.323  1.4941 -0.8056 -0.5791
  394MOL0     O53056   8.089   1.403   1.212  0.1175 -0.4569 -0.4767
  394MOL0     C53057   8.013   1.494   1.183  0.0731 -0.9307  1.0179
  394MOL0     O53058   7.877   1.480   1.147  0.1089 -0.3334 -0.5379
  394MOL0     C53059   7.815   1.361   1.154 -0.3678 -0.0226  0.4056
  394MOL0     C53060   7.715   1.345   1.250  0.3176 -0.5421 -1.6469
  394MOL0     C53061   7.651   1.225   1.268  0.8297  0.1358 -0.1744
  394MOL0     C53062   7.663   1.118   1.176 -0.0613  0.5550 -0.6223
  394MOL0     O53063   7.584   1.006   1.191  0.1748  0.0183  0.8306
  394MOL0     C53064   7.558   0.923   1.074 -0.2810 -0.0642  0.0711
  394MOL0     C53065   7.445   0.832   1.127 -0.1580 -0.4693  0.7215
  394MOL0     C53066   7.415   0.720   1.031  0.4034 -0.7872  0.4131
  394MOL0     C53067   7.306   0.608   1.072  0.4160 -0.7856 -0.3126
  394MOL0     C53068   7.164   0.656   1.068 -0.4551 -0.1611 -0.1165
  394MOL0     C53069   7.119   0.664   0.930 -1.3898 -0.2618 -0.0846
  394MOL0     C53070   6.976   0.717   0.926 -0.8884  0.4717 -0.2481
  394MOL0     C53071   6.866   0.608   0.961 -0.5589 -0.8172  0.7364
  394MOL0     N53072   6.738   0.673   0.942  0.7649  0.0921  0.2672
  394MOL0     C53073   6.683   0.764   1.025  1.0724  0.0196 -0.8317
  394MOL0     C53074   6.566   0.793   0.968 -0.4313 -0.1480  0.3564
  394MOL0     C53075   6.459   0.873   1.036 -0.3172 -0.2336 -0.1308
  394MOL0     C53076   6.342   0.785   1.088  0.3960  0.6356 -0.5597
  394MOL0     C53077   6.225   0.876   1.127  0.6727 -0.9957  1.0357
  394MOL0     C53078   6.095   0.801   1.122  0.3620 -0.2344 -0.0420
  394MOL0     O53079   6.077   0.713   1.241 -0.0993  0.1032  1.4438
  394MOL0     C53080   5.956   0.655   1.263  0.0245  0.0529  0.1221
  394MOL0     C53081   5.932   0.582   1.384 -0.5095 -0.3283  0.7952
  394MOL0     C53082   5.808   0.519   1.410  0.5360  0.0889 -0.2118
  394MOL0     C53083   5.791   0.448   1.540  0.1880 -0.7227 -0.7156
  394MOL0     C53084   5.701   0.530   1.319 -0.1583  0.3883 -0.6499
  394MOL0     C53085   5.560   0.480   1.346 -0.5708  0.9613 -0.6667
  394MOL0     O53086   5.463   0.570   1.302 -0.1416  0.3246 -0.4135
  394MOL0     C53087   5.341   0.548   1.354  0.0758  0.4930  0.7385
  394MOL0     C53088   5.313   0.557   1.491 -0.1900 -0.2575 -0.6933
  394MOL0     C53089   5.181   0.552   1.536 -0.6302  0.2696 -0.3224
  394MOL0     C53090   5.074   0.527   1.447 -0.2363 -0.7499 -0.6182
  394MOL0     O53091   4.950   0.512   1.501  0.3591  0.2935 -0.0180
  394MOL0     C53092   4.847   0.457   1.423 -0.2038 -0.2863  0.2890
  394MOL0     C53093   4.741   0.396   1.519 -0.5576 -0.4686 -0.1789
  394MOL0     C53094   4.623   0.331   1.453  0.2047  0.2734 -0.1492
  394MOL0     C53095   4.515   0.432   1.411  0.7786 -0.5734 -0.0786
  394MOL0     C53096   4.391   0.365   1.361 -0.0602  0.4911 -0.1382
  394MOL0     C53097   4.302   0.325   1.483  0.0079 -0.6495  0.2203
  394MOL0     C53098   4.174   0.255   1.423 -0.3152  0.3444  0.6167
  394MOL0     C53099   4.075   0.200   1.529  0.3826  0.2648  0.2100
  394MOL0    Cl53100   3.910   0.178   1.446 -0.4137 -0.2268 -0.5806
  394MOL0     C53101   5.099   0.514   1.311 -0.3603  0.1476 -0.4707
  394MOL0     C53102   5.237   0.529   1.265  0.1164  0.0877  0.4620
  394MOL0     O53103   5.546   0.354   1.372 -0.3693 -0.1118  0.3816
  394MOL0     C53104   5.721   0.612   1.209 -0.4774 -0.3290  0.1289
  394MOL0     C53105   5.847   0.667   1.171  0.5729 -0.9402  0.3090
  394MOL0     N53106   6.558   0.738   0.840 -0.3310  0.4493  0.0683
  394MOL0     N53107   6.663   0.660   0.831  0.0506  0.4330  0.1044
  394MOL0     C53108   7.757   1.142   1.068 -0.0240  0.0245 -0.6648
  394MOL0     C53109   7.837   1.257   1.058 -0.3433 -1.1048  0.2051
  394MOL0     C53110   8.062   1.636   1.209 -0.2100 -0.1006  0.1897
  394MOL0     C53111   7.966   1.735   1.199 -0.3844  1.3188 -0.7980
  394MOL0     C53112   8.005   1.873   1.207  0.3457 -0.5523  0.7328
  394MOL0     C53113   8.136   1.912   1.240  0.6397  0.0605  0.3114
  394MOL0     O53114   8.175   2.038   1.249 -0.3298 -0.1934  0.3507
  394MOL0     C53115   8.194   2.094   1.116  0.3662 -0.4305 -0.1725
  394MOL0     C53116   8.299   2.196   1.117  0.0110 -0.0456 -0.0258
  394MOL0     C53117   8.447   2.138   1.160  0.1922 -0.5652  0.5114
  394MOL0     C53118   8.545   2.242   1.132  0.0566  0.0955  0.7936
  394MOL0     C53119   8.555   2.330   1.243  0.4076 -0.0118 -0.7833
  394MOL0     C53120   8.550   2.401   1.335 -0.7071 -0.7354  0.8504
  394MOL0     C53121   8.229   1.807   1.257  0.0419 -0.2658  0.1806
  394MOL0     C53122   8.192   1.673   1.238  0.6348 -0.1024 -0.3290
  394MOL0     H53123   7.703   1.422   1.326 -0.6866  1.7147 -3.9369
  394MOL0     H53124   7.579   1.209   1.347  2.4933 -3.2126  0.8415
  394MOL0     H53125   7.520   0.982   0.991 -2.7094 -0.3172  0.9121
  394MOL0     H53126   7.647   0.865   1.048 -0.6355 -0.3511 -0.5117
  394MOL0     H53127   7.475   0.787   1.222 -0.0106 -0.3192  0.7482
  394MOL0     H53128   7.360   0.899   1.145 -0.0571  0.1649 -0.9384
  394MOL0     H53129   7.394   0.765   0.933 -1.5147 -0.8957  0.7326
  394MOL0     H53130   7.509   0.668   1.009  0.3402 -0.1418 -1.6611
  394MOL0     H53131   7.322   0.515   1.017  2.8342  0.4736 -1.9193
  394MOL0     H53132   7.333   0.589   1.177 -1.2780 -2.2405 -0.0845
  394MOL0     H53133   7.103   0.590   1.130 -2.0031  1.4422  0.1503
  394MOL0     H53134   7.164   0.758   1.107  2.9060  0.1424 -0.6916
  394MOL0     H53135   7.180   0.738   0.877  2.9544 -2.7751  0.9275
  394MOL0     H53136   7.133   0.573   0.871  1.4964 -1.1317  1.7414
  394MOL0     H53137   6.971   0.794   1.004  0.2122  1.6752 -1.3318
  394MOL0     H53138   6.937   0.759   0.833 -4.9975  0.3346  1.1840
  394MOL0     H53139   6.871   0.567   1.063 -1.7544 -2.6868  0.0977
  394MOL0     H53140   6.871   0.529   0.886 -0.7512  2.7612 -3.4070
  394MOL0     H53141   6.723   0.798   1.120  0.0871  2.5629 -1.2390
  394MOL0     H53142   6.509   0.932   1.113  0.9052  1.9576 -2.4479
  394MOL0     H53143   6.432   0.941   0.954  1.1758  0.8791  0.2554
  394MOL0     H53144   6.376   0.722   1.171  0.4933 -2.6410 -2.8942
  394MOL0     H53145   6.305   0.709   1.019  0.2039 -1.6793  1.9388
  394MOL0     H53146   6.218   0.961   1.059  1.4299 -0.0415  2.1129
  394MOL0     H53147   6.251   0.908   1.228  1.0743 -0.3796  0.7422
  394MOL0     H53148   6.083   0.749   1.026 -2.8356 -0.8686  0.5915
  394MOL0     H53149   6.013   0.873   1.116  0.9556  0.3987 -0.7125
  394MOL0     H53150   6.010   0.576   1.459  0.3308 -1.6437 -0.1309
  394MOL0     H53151   5.694   0.475   1.583  1.0960 -1.6875  2.2170
  394MOL0     H53152   5.794   0.339   1.534 -1.7484 -0.9185  0.7850
  394MOL0     H53153   5.858   0.477   1.622  0.3216 -1.8489 -0.4069
  394MOL0     H53154   5.391   0.566   1.567 -0.5850 -0.3113 -0.2771
  394MOL0     H53155   5.158   0.557   1.642  0.2727 -0.2878 -0.0880
  394MOL0     H53156   4.793   0.529   1.360 -1.6926 -0.9758  0.7264
  394MOL0     H53157   4.891   0.370   1.375  1.1093 -0.5502  1.8777
  394MOL0     H53158   4.786   0.309   1.568 -0.3774  0.3640  1.1539
  394MOL0     H53159   4.711   0.466   1.597  2.5938  0.2675  0.5045
  394MOL0     H53160   4.582   0.261   1.526 -0.2768  0.6097 -0.0934
  394MOL0     H53161   4.653   0.268   1.369 -0.9078  1.6936 -1.6541
  394MOL0     H53162   4.479   0.500   1.489 -2.6912 -1.5727 -0.6647
  394MOL0     H53163   4.555   0.485   1.324  1.2941  1.5443  1.3602
  394MOL0     H53164   4.413   0.276   1.302  1.3309  1.8113 -1.7011
  394MOL0     H53165   4.332   0.442   1.311 -1.5275  0.8381  1.9878
  394MOL0     H53166   4.365   0.271   1.554  0.2837  1.5448  1.7526
  394MOL0     H53167   4.271   0.411   1.543  0.7867  1.3465 -2.0710
  394MOL0     H53168   4.203   0.170   1.360 -2.4368 -2.1990  2.7935
  394MOL0     H53169   4.113   0.328   1.370 -0.8888 -1.2815 -1.0724
  394MOL0     H53170   4.052   0.258   1.618  0.1029 -1.1775  1.0902
  394MOL0     H53171   4.117   0.102   1.555  1.7493  0.8546  0.3515
  394MOL0     H53172   5.025   0.492   1.234  0.3493 -1.6024 -0.7062
  394MOL0     H53173   5.270   0.516   1.162  0.8984 -0.4173  0.7652
  394MOL0     H53174   5.635   0.626   1.144 -0.8509  1.2030  0.9088
  394MOL0     H53175   5.844   0.736   1.088 -0.6927  0.8929  1.7825
  394MOL0     H53176   7.757   1.079   0.979  2.7452 -1.2237  0.1167
  394MOL0     H53177   7.885   1.288   0.966 -0.4124 -0.2522  0.4477
  394MOL0     H53178   7.862   1.711   1.179  0.4625 -2.8643 -1.0710
  394MOL0     H53179   7.927   1.947   1.195 -0.1646 -1.0172  1.0994
  394MOL0     H53180   8.214   2.011   1.047  1.1298 -2.8277  2.7049
  394MOL0     H53181   8.099   2.143   1.097  0.1906 -0.2391  1.0798
  394MOL0     H53182   8.264   2.275   1.184 -2.7653  0.7036 -2.1474
  394MOL0     H53183   8.303   2.235   1.015  0.1285 -1.6651 -0.6735
  394MOL0     H53184   8.472   2.058   1.090  3.8849  1.0497 -0.2722
  394MOL0     H53185   8.448   2.119   1.268 -1.6589 -0.2566  0.6107
  394MOL0     H53186   8.527   2.308   1.046 -2.4444 -2.5340 -0.8730
  394MOL0     H53187   8.648   2.207   1.122 -0.4909 -1.5831  0.8476
  394MOL0     H53188   8.555   2.474   1.414 -1.6121  0.7597 -0.3953
  394MOL0     H53189   8.328   1.852   1.265  0.5253 -0.8352 -2.0371
  394MOL0     H53190   8.258   1.587   1.234 -2.4792 -2.6159 -2.8748
  395MOL0     O53191   1.960   9.801   1.950  0.1009 -1.3293 -0.4706
  395MOL0     C53192   2.005   9.804   1.832  0.0840 -0.1875 -0.2585
  395MOL0     O53193   1.937   9.748   1.721  0.2116 -0.3168 -0.3382
  395MOL0     C53194   1.827   9.668   1.741 -0.1575  0.3951  0.1518
  395MOL0     C53195   1.842   9.558   1.827  0.1323 -0.3895  1.0208
  395MOL0     C53196   1.742   9.467   1.840  0.2917 -0.6597 -0.1167
  395MOL0     C53197   1.611   9.487   1.778 -0.9435 -0.1636 -0.2986
  395MOL0     O53198   1.502   9.401   1.787  0.2579  0.6189 -0.0469
  395MOL0     C53199   1.522   9.276   1.846 -0.3641  0.7046 -0.8284
  395MOL0     C53200   1.379   9.217   1.881 -0.0399 -0.7748 -0.4450
  395MOL0     C53201   1.272   9.304   1.955 -0.2162  0.0663  0.5818
  395MOL0     C53202   1.138   9.233   1.969  0.1041 -0.8099  0.4191
  395MOL0     C53203   1.041   9.320   2.047 -0.2664  0.2029 -0.9923
  395MOL0     C53204   1.048   9.291   2.197 -0.6515  0.0781 -0.3770
  395MOL0     C53205   0.928   9.355   2.269 -0.0656  0.6328 -0.0883
  395MOL0     C53206   0.938   9.507   2.275  1.1555  0.5516  0.7499
  395MOL0     N53207   0.851   9.558   2.383 -0.4795 -0.5489  0.4850
  395MOL0     C53208   0.736   9.635   2.373  0.6070  0.2679  0.4259
  395MOL0     C53209   0.695   9.641   2.498 -1.1706 -0.4239  0.6177
  395MOL0     C53210   0.578   9.715   2.547  0.2530  0.3869 -0.6868
  395MOL0     C53211   0.451   9.630   2.561 -0.1390 -0.7946 -1.2000
  395MOL0     C53212   0.324   9.711   2.597  1.1026  0.2477 -0.5310
  395MOL0     C53213   0.218   9.618   2.663  0.5595  0.6228  0.4099
  395MOL0     O53214   0.091   9.692   2.655 -0.5488 -0.2761  0.1069
  395MOL0     C53215   0.002   9.674   2.758  0.5696 -0.1705 -0.1502
  395MOL0     C53216   0.020   9.740   2.882 -0.2230  0.1242  0.4461
  395MOL0     C53217  -0.064   9.708   2.991 -0.1517 -0.7772  1.1341
  395MOL0     C53218  -0.024   9.761   3.123  0.4529 -0.3225 -0.5431
  395MOL0     C53219  -0.185   9.632   2.973  0.0145  0.3459  0.1997
  395MOL0     C53220  -0.290   9.609   3.075  0.0100 -0.2239  0.0420
  395MOL0     O53221  -0.400   9.546   3.025 -0.3635 -0.3033  0.2899
  395MOL0     C53222  -0.512   9.523   3.103  0.4062 -0.0216 -0.2220
  395MOL0     C53223  -0.613   9.622   3.094 -0.0403  1.1453 -0.3152
  395MOL0     C53224  -0.729   9.601   3.170  0.0944  0.6355  0.0581
  395MOL0     C53225  -0.748   9.496   3.259  0.2447 -0.3260  0.4162
  395MOL0     O53226  -0.864   9.490   3.330  0.0122 -0.0216 -0.9519
  395MOL0     C53227  -0.893   9.403   3.450  0.1258 -0.0403 -0.4888
  395MOL0     C53228  -1.037   9.426   3.501  1.0468  0.1953  0.8547
  395MOL0     C53229  -1.139   9.452   3.385  1.1129  0.6198 -0.2392
  395MOL0     C53230  -1.274   9.478   3.447 -0.0434 -0.6090 -0.4386
  395MOL0     C53231  -1.377   9.466   3.340  0.3520 -0.0435  0.7636
  395MOL0     C53232  -1.514   9.488   3.394  0.9945 -0.4502 -0.1548
  395MOL0     C53233  -1.624   9.469   3.289 -0.3195 -0.5012  0.5203
  395MOL0     C53234  -1.760   9.542   3.323  0.4107 -0.4121  0.0327
  395MOL0    Cl53235  -1.750   9.711   3.282 -0.0215 -0.3456  0.0441
  395MOL0     C53236  -0.646   9.405   3.265  0.2513  0.1601 -0.0680
  395MOL0     C53237  -0.532   9.413   3.180 -0.0064  0.0283 -0.3035
  395MOL0     O53238  -0.273   9.646   3.192 -0.6267  0.3645 -1.1259
  395MOL0     C53239  -0.198   9.573   2.845  0.8669  0.1967  0.0278
  395MOL0     C53240  -0.108   9.585   2.748  0.0792 -0.2949  0.0993
  395MOL0     N53241   0.786   9.584   2.590  0.4832 -0.5364  0.8832
  395MOL0     N53242   0.883   9.534   2.518 -0.4238 -0.8253  0.2668
  395MOL0     C53243   1.606   9.589   1.682  0.0037 -0.4114 -0.2280
  395MOL0     C53244   1.710   9.680   1.665 -0.6560 -0.0342 -0.1015
  395MOL0     C53245   2.134   9.862   1.788  0.4190  0.0240 -0.0446
  395MOL0     C53246   2.177   9.856   1.654 -0.0733  1.2813  0.1059
  395MOL0     C53247   2.288   9.924   1.614 -0.6350 -0.2427 -0.3575
  395MOL0     C53248   2.386   9.981   1.713  0.5042  0.8203 -0.0210
  395MOL0     O53249   2.512  10.031   1.695  0.0435  0.3076 -0.4075
  395MOL0     C53250   2.571  10.020   1.562 -0.2626  0.1644  0.4651
  395MOL0     C53251   2.719  10.062   1.564  0.5408 -0.2927  0.2937
  395MOL0     C53252   2.740  10.188   1.642  1.0363 -0.2860 -0.1877
  395MOL0     C53253   2.637  10.308   1.615  0.1738  0.4423 -0.3269
  395MOL0     C53254   2.640  10.360   1.483 -0.2642  0.3885  0.1378
  395MOL0     C53255   2.638  10.389   1.362 -0.6498 -0.0690  0.0259
  395MOL0     C53256   2.338   9.981   1.841  0.2348  0.0438 -0.0598
  395MOL0     C53257   2.207   9.937   1.878 -0.6790  0.5320  0.7412
  395MOL0     H53258   1.939   9.546   1.875  0.2877  1.1981  1.1759
  395MOL0     H53259   1.765   9.383   1.905 -1.3959  0.5629  2.2595
  395MOL0     H53260   1.574   9.212   1.774 -2.2131 -3.0828  0.9298
  395MOL0     H53261   1.574   9.272   1.942 -0.4507 -2.1841 -0.8234
  395MOL0     H53262   1.337   9.186   1.784 -0.6359  4.0439 -1.9610
  395MOL0     H53263   1.392   9.124   1.937  0.5851 -0.1860  0.4150
  395MOL0     H53264   1.313   9.338   2.050  0.0749  2.1776 -0.2280
  395MOL0     H53265   1.248   9.382   1.882  0.8582 -0.7835 -0.7405
  395MOL0     H53266   1.093   9.217   1.870  0.8111  2.6879 -0.6048
  395MOL0     H53267   1.155   9.138   2.020 -1.8331 -0.3491  2.0627
  395MOL0     H53268   1.062   9.426   2.029  1.8244 -0.1200 -0.6888
  395MOL0     H53269   0.939   9.297   2.015 -0.5766  0.6318 -0.3402
  395MOL0     H53270   1.032   9.183   2.200 -0.2694 -0.0146 -1.2918
  395MOL0     H53271   1.150   9.311   2.233 -0.4900 -1.9727  0.3918
  395MOL0     H53272   0.835   9.310   2.233 -0.8246  2.1545 -0.1051
  395MOL0     H53273   0.933   9.329   2.375 -0.8271 -2.5411 -0.7353
  395MOL0     H53274   0.905   9.553   2.182 -0.4448  1.4155  1.7153
  395MOL0     H53275   1.037   9.554   2.285  0.0117  3.0891  0.7814
  395MOL0     H53276   0.684   9.677   2.288  0.4294 -0.5152  0.1396
  395MOL0     H53277   0.607   9.766   2.639 -1.3726  1.2431 -0.6044
  395MOL0     H53278   0.554   9.793   2.474  0.8257  1.6981  0.4796
  395MOL0     H53279   0.484   9.570   2.646  1.0554  2.8075  1.1009
  395MOL0     H53280   0.433   9.573   2.469 -3.2955 -3.5221  0.8778
  395MOL0     H53281   0.291   9.764   2.508 -0.9254  0.0706  0.0552
  395MOL0     H53282   0.348   9.794   2.664 -1.9858  0.5771  0.3195
  395MOL0     H53283   0.241   9.584   2.764 -1.5089  2.4060  1.5762
  395MOL0     H53284   0.212   9.521   2.613 -3.7973  0.1826  1.3862
  395MOL0     H53285   0.108   9.803   2.893 -1.6150  2.1654  0.3474
  395MOL0     H53286   0.070   9.817   3.120 -0.2966  1.0393  0.2496
  395MOL0     H53287  -0.106   9.820   3.166  1.3454  1.2539 -0.9321
  395MOL0     H53288  -0.009   9.673   3.185 -0.0019 -2.1415 -2.8417
  395MOL0     H53289  -0.605   9.708   3.028 -0.5702  1.4054 -0.0426
  395MOL0     H53290  -0.813   9.670   3.164 -0.0955  0.2998 -1.6077
  395MOL0     H53291  -0.877   9.299   3.421 -2.9147 -1.4436  2.2106
  395MOL0     H53292  -0.828   9.432   3.533  0.5726  1.3184 -1.2850
  395MOL0     H53293  -1.069   9.330   3.543 -0.6769 -0.5083 -1.8077
  395MOL0     H53294  -1.053   9.508   3.572 -0.8344  1.6720 -1.1096
  395MOL0     H53295  -1.158   9.364   3.324 -0.6959 -0.4441  1.7331
  395MOL0     H53296  -1.109   9.535   3.320  2.4022  0.4011  0.0439
  395MOL0     H53297  -1.298   9.409   3.527  1.5428 -1.8790 -1.0195
  395MOL0     H53298  -1.269   9.576   3.496  1.1367 -0.8279 -0.0945
  395MOL0     H53299  -1.369   9.371   3.286 -0.0760  0.9438 -1.1283
  395MOL0     H53300  -1.354   9.548   3.270 -1.5439  0.1979  0.3678
  395MOL0     H53301  -1.535   9.435   3.488 -2.3754  0.8488 -0.0218
  395MOL0     H53302  -1.522   9.596   3.414 -3.0674 -0.1691 -2.2663
  395MOL0     H53303  -1.638   9.363   3.265 -1.0622 -0.2215 -0.3302
  395MOL0     H53304  -1.571   9.499   3.198  3.8769 -1.7104  2.3171
  395MOL0     H53305  -1.767   9.521   3.430  0.6295  2.1378  0.6092
  395MOL0     H53306  -1.847   9.501   3.271 -0.8957  2.5283 -0.2880
  395MOL0     H53307  -0.647   9.309   3.316  2.2141 -0.2989 -0.7854
  395MOL0     H53308  -0.465   9.327   3.183 -1.8193 -1.4142  1.9375
  395MOL0     H53309  -0.286   9.510   2.835  1.9127 -1.3479  0.0933
  395MOL0     H53310  -0.116   9.543   2.648 -2.1990  0.1086  0.0528
  395MOL0     H53311   1.514   9.598   1.624 -0.4651  0.6983  0.6429
  395MOL0     H53312   1.711   9.755   1.587 -1.7214 -2.1602 -2.2775
  395MOL0     H53313   2.112   9.815   1.577  1.2552  1.3927 -1.0961
  395MOL0     H53314   2.310   9.924   1.508  2.9878  0.5525  0.2800
  395MOL0     H53315   2.575   9.914   1.534  1.8669 -0.2444  2.0462
  395MOL0     H53316   2.530  10.082   1.482  0.7524 -0.8515 -0.8823
  395MOL0     H53317   2.764  10.066   1.464 -2.0926  2.5807 -0.9330
  395MOL0     H53318   2.767   9.978   1.615 -0.1374 -1.4626 -0.9232
  395MOL0     H53319   2.835  10.236   1.615  0.4037  0.9559 -0.2546
  395MOL0     H53320   2.751  10.179   1.750  1.5298 -0.9448 -0.2875
  395MOL0     H53321   2.661  10.388   1.686 -0.8619  0.9771 -0.5687
  395MOL0     H53322   2.535  10.277   1.636  0.4478  0.3095  0.9357
  395MOL0     H53323   2.644  10.419   1.260  1.3200 -1.0229 -0.1864
  395MOL0     H53324   2.405  10.019   1.917  0.9934 -1.5090  0.0827
  395MOL0     H53325   2.178   9.949   1.982  1.2817 -0.0901  1.3988
  396MOL0     O53326   0.158   1.497   0.748  0.6233 -0.8824 -0.8583
  396MOL0     C53327   0.136   1.557   0.856  0.1259 -0.2133 -0.9859
  396MOL0     O53328   0.014   1.601   0.908  0.3452 -0.2915  0.0081
  396MOL0     C53329  -0.109   1.594   0.845 -0.0861 -0.1326  0.3036
  396MOL0     C53330  -0.220   1.591   0.920  0.0647  0.4571 -0.6960
  396MOL0     C53331  -0.354   1.589   0.867  0.4609  0.3549 -0.5594
  396MOL0     C53332  -0.367   1.603   0.728 -0.5259  0.4016  0.6879
  396MOL0     O53333  -0.490   1.613   0.667 -0.4871 -0.4441 -0.0795
  396MOL0     C53334  -0.591   1.515   0.694  0.4691  0.0542 -0.2004
  396MOL0     C53335  -0.731   1.533   0.642 -0.2791 -0.1330  0.1086
  396MOL0     C53336  -0.782   1.675   0.656 -0.6074  0.1179 -0.2996
  396MOL0     C53337  -0.920   1.679   0.587 -0.2397  0.4086  0.8475
  396MOL0     C53338  -0.976   1.821   0.561  0.1489 -0.5907  0.5675
  396MOL0     C53339  -0.964   1.920   0.679  0.5408 -0.0783  0.2447
  396MOL0     C53340  -1.040   2.059   0.668 -0.2359 -0.1837  0.5993
  396MOL0     C53341  -1.041   2.132   0.799 -0.9143 -0.7345 -0.0477
  396MOL0     N53342  -0.953   2.250   0.814 -0.1426 -0.4022 -1.0330
  396MOL0     C53343  -0.976   2.379   0.774 -0.9189  0.3209  0.5444
  396MOL0     C53344  -0.874   2.452   0.836 -0.8382  0.8731 -0.0327
  396MOL0     C53345  -0.837   2.597   0.814 -0.6792  0.4965 -0.1708
  396MOL0     C53346  -0.733   2.613   0.694  0.0476 -0.0974 -0.0766
  396MOL0     C53347  -0.787   2.603   0.548  0.0884 -0.5887  0.0216
  396MOL0     C53348  -0.876   2.722   0.500 -0.7504  0.0519 -1.1270
  396MOL0     O53349  -0.929   2.685   0.376 -0.4251  0.3875  0.0353
  396MOL0     C53350  -1.033   2.596   0.358 -0.2333  0.1287 -0.2995
  396MOL0     C53351  -1.030   2.529   0.237  0.0948  0.1597  0.8032
  396MOL0     C53352  -1.135   2.434   0.210 -0.2596 -0.5001 -0.3928
  396MOL0     C53353  -1.127   2.390   0.066  0.5718  0.4662  0.4729
  396MOL0     C53354  -1.243   2.405   0.299 -0.5681  0.0661 -0.3361
  396MOL0     C53355  -1.343   2.304   0.283 -0.3737 -0.3263  0.0608
  396MOL0     O53356  -1.424   2.265   0.379 -0.3149  0.2584 -0.1054
  396MOL0     C53357  -1.521   2.165   0.363  0.1199  0.2233  0.4908
  396MOL0     C53358  -1.497   2.037   0.334 -0.1722 -0.8593 -0.5769
  396MOL0     C53359  -1.606   1.945   0.323  0.4241 -0.0168 -0.1885
  396MOL0     C53360  -1.734   1.981   0.362 -0.6116  0.4820 -0.4925
  396MOL0     O53361  -1.841   1.893   0.369 -0.5862 -0.1463  0.5215
  396MOL0     C53362  -1.807   1.787   0.462  0.0496  0.3322 -0.1673
  396MOL0     C53363  -1.935   1.717   0.513 -0.0756  0.1164  0.6745
  396MOL0     C53364  -1.912   1.635   0.642  0.2795 -0.0400 -0.1281
  396MOL0     C53365  -2.045   1.574   0.685 -1.0852 -0.0885 -0.2639
  396MOL0     C53366  -2.016   1.452   0.776 -0.3031  0.4992 -0.7733
  396MOL0     C53367  -2.161   1.402   0.817 -0.4263  0.9724 -0.6657
  396MOL0     C53368  -2.156   1.278   0.907 -0.5852 -1.2732 -0.2070
  396MOL0     C53369  -2.138   1.145   0.832 -0.9262  0.0329  0.3998
  396MOL0    Cl53370  -2.250   1.124   0.708 -0.1671 -0.3534  0.2290
  396MOL0     C53371  -1.760   2.110   0.400  0.0771 -0.2234  0.7796
  396MOL0     C53372  -1.650   2.195   0.406  0.3388 -0.1556  0.0149
  396MOL0     O53373  -1.341   2.250   0.173  0.7663  0.0737  0.6138
  396MOL0     C53374  -1.222   2.462   0.427  1.9473 -0.5133  0.6856
  396MOL0     C53375  -1.127   2.563   0.456 -0.2807  0.1638 -0.3826
  396MOL0     N53376  -0.790   2.366   0.909  0.0311  0.2543 -0.2529
  396MOL0     N53377  -0.843   2.249   0.892  0.1382  0.2477  0.0680
  396MOL0     C53378  -0.255   1.617   0.646 -0.5739 -0.2963 -0.0092
  396MOL0     C53379  -0.132   1.621   0.706 -0.7734 -0.8807 -0.0516
  396MOL0     C53380   0.261   1.606   0.922 -0.7243  0.4361  0.4194
  396MOL0     C53381   0.249   1.673   1.045  0.9981  0.5213  0.2582
  396MOL0     C53382   0.364   1.712   1.118 -0.0426 -0.2907  0.5854
  396MOL0     C53383   0.492   1.697   1.060 -0.2579 -0.3416 -1.1837
  396MOL0     O53384   0.599   1.740   1.130 -1.1606  0.3575 -0.7209
  396MOL0     C53385   0.738   1.712   1.091  0.9136 -0.5535  0.5907
  396MOL0     C53386   0.829   1.780   1.188 -0.0589  1.0418  0.0320
  396MOL0     C53387   0.978   1.724   1.191 -0.1971 -0.1648 -0.3138
  396MOL0     C53388   1.065   1.811   1.284 -0.1298 -1.1520  0.3244
  396MOL0     C53389   1.194   1.752   1.312  0.1240 -0.2335  0.0479
  396MOL0     C53390   1.308   1.714   1.318 -1.2902 -0.2385 -0.0491
  396MOL0     C53391   0.510   1.628   0.941  0.4658  0.6201  0.4380
  396MOL0     C53392   0.395   1.580   0.871 -0.2853 -0.7845  0.6315
  396MOL0     H53393  -0.217   1.591   1.029 -0.2811  1.1050 -0.6792
  396MOL0     H53394  -0.432   1.586   0.943  1.5321 -0.2416  0.5541
  396MOL0     H53395  -0.566   1.419   0.648 -0.5226 -0.2752 -0.0840
  396MOL0     H53396  -0.604   1.502   0.802  0.3512  0.9458 -0.1002
  396MOL0     H53397  -0.744   1.487   0.544  0.7258 -3.2862  1.3232
  396MOL0     H53398  -0.790   1.471   0.710 -2.9692 -1.3586 -3.0934
  396MOL0     H53399  -0.807   1.694   0.761  0.0760 -0.8125  0.0399
  396MOL0     H53400  -0.706   1.747   0.625 -0.2002 -0.1416  0.0855
  396MOL0     H53401  -0.924   1.635   0.487  0.3013  1.4436  0.3480
  396MOL0     H53402  -0.988   1.614   0.642 -1.9760 -0.5889 -2.2147
  396MOL0     H53403  -0.926   1.867   0.475 -0.1979  2.2686  1.7626
  396MOL0     H53404  -1.084   1.820   0.543  0.2119 -0.6608  0.1876
  396MOL0     H53405  -1.008   1.867   0.764 -1.2024 -1.0840 -1.1878
  396MOL0     H53406  -0.860   1.932   0.709  0.2919  0.8195  0.8041
  396MOL0     H53407  -0.987   2.119   0.594  0.3826 -2.3612 -0.8286
  396MOL0     H53408  -1.143   2.047   0.635 -0.5795 -2.2950  2.2025
  396MOL0     H53409  -1.023   2.066   0.884  0.5688  0.5800  0.7108
  396MOL0     H53410  -1.147   2.158   0.806 -1.6619 -2.8518 -2.2120
  396MOL0     H53411  -1.059   2.414   0.714 -1.1382  1.6884  1.6127
  396MOL0     H53412  -0.923   2.663   0.796 -1.2075 -0.0069  0.4642
  396MOL0     H53413  -0.787   2.625   0.906 -0.0090 -0.7947 -0.1223
  396MOL0     H53414  -0.658   2.534   0.704  1.8311  1.5527  0.1059
  396MOL0     H53415  -0.677   2.705   0.712  0.7044 -0.2989 -1.0329
  396MOL0     H53416  -0.847   2.511   0.544  1.3807 -1.4592  0.0898
  396MOL0     H53417  -0.700   2.594   0.482 -0.7268 -2.1336 -0.9023
  396MOL0     H53418  -0.822   2.816   0.484 -1.0993  1.2520  3.4246
  396MOL0     H53419  -0.950   2.730   0.581  1.4621 -0.3428  1.0445
  396MOL0     H53420  -0.947   2.543   0.169 -2.1394 -1.6431 -2.5925
  396MOL0     H53421  -1.224   2.412   0.019 -0.4473 -0.3348  2.1071
  396MOL0     H53422  -1.053   2.446   0.008 -0.6126  0.5462 -1.0573
  396MOL0     H53423  -1.093   2.286   0.063  0.1007  0.2276 -3.7914
  396MOL0     H53424  -1.389   2.022   0.336  0.4409  2.6844  1.2403
  396MOL0     H53425  -1.589   1.843   0.288 -3.0205 -1.0546  0.8373
  396MOL0     H53426  -1.735   1.718   0.417  1.8974  3.1847 -1.8691
  396MOL0     H53427  -1.762   1.833   0.550 -1.9932 -0.2214  1.2357
  396MOL0     H53428  -2.018   1.788   0.525 -0.3927 -0.2895  0.9088
  396MOL0     H53429  -1.966   1.643   0.439  3.0083  0.3677 -1.0344
  396MOL0     H53430  -1.872   1.696   0.723 -0.9601 -0.9641  1.2354
  396MOL0     H53431  -1.848   1.550   0.616  2.9081  1.6211  0.4685
  396MOL0     H53432  -2.113   1.643   0.737  0.7543 -0.0817  2.3205
  396MOL0     H53433  -2.095   1.548   0.591 -0.7535  3.1708 -1.4828
  396MOL0     H53434  -1.962   1.473   0.868 -0.5264 -1.5146 -0.1335
  396MOL0     H53435  -1.955   1.384   0.716 -1.7028 -0.0046 -1.6847
  396MOL0     H53436  -2.218   1.481   0.866 -3.7546 -1.6559  0.0882
  396MOL0     H53437  -2.216   1.380   0.725 -1.2276  3.0047 -0.7120
  396MOL0     H53438  -2.251   1.279   0.963 -0.0117  0.4929  0.8282
  396MOL0     H53439  -2.074   1.280   0.979  0.8716  0.3872 -1.8290
  396MOL0     H53440  -2.150   1.071   0.912  0.9283 -1.0288 -0.2375
  396MOL0     H53441  -2.035   1.130   0.799 -1.2595 -0.2214 -0.5532
  396MOL0     H53442  -1.864   2.134   0.421 -0.0219 -1.0101  1.2383
  396MOL0     H53443  -1.670   2.290   0.455  2.0305  0.6653 -0.8278
  396MOL0     H53444  -1.279   2.436   0.515  2.8431 -1.3795  1.0311
  396MOL0     H53445  -1.124   2.611   0.553  2.5562 -4.2842  2.1089
  396MOL0     H53446  -0.260   1.626   0.538  2.6506 -0.6194 -0.2909
  396MOL0     H53447  -0.042   1.637   0.649 -0.9007  1.4763  0.3034
  396MOL0     H53448   0.156   1.675   1.101  0.8669 -2.6515  0.3673
  396MOL0     H53449   0.362   1.750   1.219  0.2886 -2.9031  1.6410
  396MOL0     H53450   0.746   1.605   1.114  1.1121 -0.9210 -1.0960
  396MOL0     H53451   0.767   1.730   0.987  1.1443  0.2356  0.7862
  396MOL0     H53452   0.779   1.757   1.283 -0.8115  0.2072 -0.5487
  396MOL0     H53453   0.828   1.888   1.174 -3.3958  1.1823  0.4900
  396MOL0     H53454   1.002   1.713   1.085 -3.5802  0.8389 -1.2946
  396MOL0     H53455   0.974   1.622   1.231  1.7082  0.0892  0.6405
  396MOL0     H53456   1.019   1.825   1.382  0.0023 -1.1570  0.3875
  396MOL0     H53457   1.074   1.905   1.230 -2.0824 -1.0065  0.2009
  396MOL0     H53458   1.410   1.685   1.332 -1.6446 -1.6182 -0.1923
  396MOL0     H53459   0.610   1.619   0.899  0.0224 -3.7260 -0.1458
  396MOL0     H53460   0.419   1.552   0.769 -0.5280  2.4086 -0.4367
  397MOL0     O53461   0.797   6.945  10.806  0.1092 -0.3460  0.1803
  397MOL0     C53462   0.754   7.065  10.805 -0.6874  0.4281  0.2704
  397MOL0     O53463   0.835   7.175  10.816  0.0041 -0.5000  0.1466
  397MOL0     C53464   0.973   7.157  10.824 -0.2358  1.3000 -0.8057
  397MOL0     C53465   1.047   7.114  10.715  0.3697  0.3498  0.3316
  397MOL0     C53466   1.181   7.092  10.727  0.9130 -0.1995  0.1852
  397MOL0     C53467   1.243   7.107  10.849 -0.5834  0.0631 -0.1847
  397MOL0     O53468   1.376   7.089  10.852 -0.0730 -0.3131 -0.5498
  397MOL0     C53469   1.438   7.005  10.956  0.8019  0.4843  0.0661
  397MOL0     C53470   1.498   7.084  11.072  0.0951 -0.6993 -0.6054
  397MOL0     C53471   1.616   7.171  11.029 -0.0216 -0.0016 -0.1640
  397MOL0     C53472   1.711   7.209  11.143 -0.5221 -0.1113 -0.0765
  397MOL0     C53473   1.821   7.306  11.100 -0.4989  0.2665 -0.1074
  397MOL0     C53474   1.939   7.309  11.197 -0.1251  0.6434  1.2415
  397MOL0     C53475   2.015   7.175  11.204  0.3136 -0.7120 -0.1244
  397MOL0     C53476   2.148   7.185  11.279  1.0937 -0.3686  1.2158
  397MOL0     N53477   2.132   7.210  11.421  1.0044 -0.7677  0.2269
  397MOL0     C53478   2.120   7.119  11.523 -0.6280 -0.1493  0.2934
  397MOL0     C53479   2.112   7.190  11.635 -0.1092  0.1905 -0.1457
  397MOL0     C53480   2.105   7.144  11.777  0.6543 -0.2490 -0.5025
  397MOL0     C53481   2.252   7.110  11.829  0.5310 -0.9853 -0.8583
  397MOL0     C53482   2.334   7.005  11.750  0.6937 -0.3519  0.8401
  397MOL0     C53483   2.456   6.938  11.824  1.0467  0.0027 -0.0406
  397MOL0     O53484   2.553   7.043  11.821  0.1681 -0.6579 -0.3357
  397MOL0     C53485   2.674   7.041  11.882  0.6548  0.8757 -0.7713
  397MOL0     C53486   2.722   6.926  11.937 -0.0203  0.7996 -0.8207
  397MOL0     C53487   2.845   6.914  11.998  0.0694 -0.6379  0.7510
  397MOL0     C53488   2.879   6.779  12.043  0.4273 -0.0173 -0.1020
  397MOL0     C53489   2.939   7.020  11.988  0.3019 -0.1771  0.4216
  397MOL0     C53490   3.083   7.011  12.046  0.3968 -0.0420 -0.0894
  397MOL0     O53491   3.165   7.115  12.015  0.0110  0.5180 -0.9746
  397MOL0     C53492   3.296   7.117  12.058  0.8840  0.8962  0.8395
  397MOL0     C53493   3.393   7.032  12.004 -0.2023  0.1978  0.7223
  397MOL0     C53494   3.520   7.025  12.054  0.0613 -0.4978  0.7834
  397MOL0     C53495   3.563   7.114  12.161  0.6537 -0.0466  0.0798
  397MOL0     O53496   3.687   7.105  12.215 -0.2094  0.1540  0.5575
  397MOL0     C53497   3.741   7.228  12.260  0.9783  0.5243  0.0810
  397MOL0     C53498   3.876   7.203  12.310 -0.4028  0.0106 -0.0463
  397MOL0     C53499   3.951   7.336  12.346  0.1922 -0.0475  0.2745
  397MOL0     C53500   4.102   7.334  12.378 -0.2312  0.0129  1.1763
  397MOL0     C53501   4.134   7.268  12.516  0.1784 -0.2040 -0.5968
  397MOL0     C53502   4.283   7.253  12.548  0.3879  0.0818 -0.1075
  397MOL0     C53503   4.290   7.186  12.685 -0.3510  0.6154  0.2419
  397MOL0     C53504   4.429   7.158  12.732 -0.1526 -0.1947 -0.1656
  397MOL0    Cl53505   4.517   7.307  12.764 -0.3574 -0.0999  0.1210
  397MOL0     C53506   3.464   7.203  12.215 -0.0967  0.8263 -0.3833
  397MOL0     C53507   3.333   7.209  12.160  0.2909  0.5969 -0.0876
  397MOL0     O53508   3.114   6.916  12.112 -0.5504  0.7834  0.1527
  397MOL0     C53509   2.891   7.136  11.924 -0.4340  0.2057 -0.0538
  397MOL0     C53510   2.761   7.143  11.871  0.2972  0.4439 -0.1854
  397MOL0     N53511   2.112   7.329  11.606 -0.6361  0.2705 -0.1828
  397MOL0     N53512   2.139   7.333  11.474 -0.6390 -0.1792  0.0922
  397MOL0     C53513   1.169   7.157  10.953  0.1088 -0.5794 -0.2940
  397MOL0     C53514   1.030   7.172  10.949  0.4363  0.4370 -0.0948
  397MOL0     C53515   0.610   7.090  10.806 -0.5916  0.7417  0.1827
  397MOL0     C53516   0.523   6.985  10.776  0.3370  0.2678  0.0693
  397MOL0     C53517   0.383   7.009  10.781  0.2122  0.2909  0.2620
  397MOL0     C53518   0.329   7.132  10.818  0.4358  0.1301  0.2884
  397MOL0     O53519   0.193   7.145  10.814  0.5250  0.4725  0.0638
  397MOL0     C53520   0.137   7.268  10.844  0.2189 -0.1253 -0.7264
  397MOL0     C53521  -0.008   7.251  10.899  0.7522 -0.2262  0.1113
  397MOL0     C53522  -0.104   7.234  10.777  0.5566 -0.1058 -0.2387
  397MOL0     C53523  -0.247   7.223  10.836 -0.2342  0.5519 -0.2740
  397MOL0     C53524  -0.296   7.336  10.914 -0.2440  0.2179  0.0650
  397MOL0     C53525  -0.329   7.444  10.961  0.3711 -0.7021  0.3369
  397MOL0     C53526   0.421   7.231  10.848 -0.1396  0.7462  0.5501
  397MOL0     C53527   0.556   7.214  10.852  0.1469 -0.4289  0.7615
  397MOL0     H53528   0.985   7.114  10.626  0.2774  0.7453  0.3943
  397MOL0     H53529   1.224   7.050  10.636 -4.5464  1.8107 -3.9208
  397MOL0     H53530   1.366   6.930  10.991 -1.9048  1.7601 -2.3957
  397MOL0     H53531   1.522   6.955  10.907  0.0963  0.0064 -0.6822
  397MOL0     H53532   1.428   7.152  11.122  0.6199  0.6321 -1.6163
  397MOL0     H53533   1.537   7.015  11.147 -0.5443  0.0774  0.4760
  397MOL0     H53534   1.669   7.120  10.948  1.3195  1.8298 -0.4952
  397MOL0     H53535   1.575   7.263  10.984  1.6254  0.7977 -0.1063
  397MOL0     H53536   1.659   7.264  11.222 -1.5216 -0.3170 -0.5761
  397MOL0     H53537   1.750   7.120  11.193  2.2941  1.5973  0.9920
  397MOL0     H53538   1.858   7.283  10.999 -0.3446 -2.0698  0.4202
  397MOL0     H53539   1.773   7.403  11.087 -0.0396  0.3640 -1.1620
  397MOL0     H53540   2.015   7.381  11.162 -0.6909  0.9600  0.6403
  397MOL0     H53541   1.899   7.330  11.296  1.4789 -0.4961  2.1754
  397MOL0     H53542   1.959   7.097  11.256  3.5997 -1.3477  2.9420
  397MOL0     H53543   2.038   7.137  11.104  2.0298  0.1826 -0.1148
  397MOL0     H53544   2.187   7.279  11.238 -1.7766  1.8558  3.1340
  397MOL0     H53545   2.207   7.095  11.258 -1.6886 -1.8568 -1.1145
  397MOL0     H53546   2.114   7.011  11.512  0.3209  0.0413 -3.0674
  397MOL0     H53547   2.067   7.227  11.839  0.7453 -0.0001 -0.7763
  397MOL0     H53548   2.039   7.057  11.778 -2.2815  1.7062 -2.8057
  397MOL0     H53549   2.241   7.064  11.928 -0.3206  1.8351  0.4716
  397MOL0     H53550   2.308   7.203  11.840 -3.1296  1.4185 -0.8429
  397MOL0     H53551   2.383   7.053  11.665 -0.7962  1.4000  0.9055
  397MOL0     H53552   2.271   6.927  11.706  0.7636  0.3302 -0.5275
  397MOL0     H53553   2.495   6.852  11.770  0.4501 -1.2628  1.4764
  397MOL0     H53554   2.425   6.902  11.923  1.2853 -0.7175 -0.2261
  397MOL0     H53555   2.658   6.839  11.924  0.3062  0.8355 -3.0272
  397MOL0     H53556   2.887   6.783  12.153 -0.8322 -0.5670  0.0285
  397MOL0     H53557   2.799   6.705  12.034  1.4206 -1.2124  0.6027
  397MOL0     H53558   2.971   6.739  12.000 -0.6190 -2.1277 -0.5066
  397MOL0     H53559   3.370   6.984  11.909 -2.3595 -0.2499  1.4124
  397MOL0     H53560   3.589   6.960  12.002 -1.0134 -0.9737 -0.0843
  397MOL0     H53561   3.731   7.303  12.181  0.0135 -0.6747 -0.9925
  397MOL0     H53562   3.681   7.263  12.344  2.8386 -1.9857  2.6379
  397MOL0     H53563   3.871   7.140  12.399  1.8834  0.5293  0.5333
  397MOL0     H53564   3.930   7.147  12.233  1.7514 -0.1809  1.5175
  397MOL0     H53565   3.901   7.393  12.425  0.1493  2.0306 -1.1956
  397MOL0     H53566   3.941   7.400  12.259 -1.7523 -0.1405  0.3914
  397MOL0     H53567   4.150   7.281  12.296 -2.1923 -2.5880  1.5748
  397MOL0     H53568   4.142   7.436  12.375  0.9480 -0.3910 -3.7349
  397MOL0     H53569   4.078   7.176  12.535 -4.5634  2.5603  0.5391
  397MOL0     H53570   4.088   7.332  12.592 -2.7490 -0.8667 -1.6701
  397MOL0     H53571   4.336   7.180  12.486 -0.5077 -0.2237 -0.5389
  397MOL0     H53572   4.329   7.351  12.564  1.3235 -0.5877  1.6148
  397MOL0     H53573   4.237   7.091  12.677  0.4783  0.1345  0.2543
  397MOL0     H53574   4.233   7.252  12.751 -0.1579  0.3688  0.6572
  397MOL0     H53575   4.484   7.098  12.660  0.5266 -0.3224  0.4436
  397MOL0     H53576   4.421   7.105  12.828 -2.3152  3.2542  1.7842
  397MOL0     H53577   3.479   7.275  12.295 -2.5185 -0.2881  1.1785
  397MOL0     H53578   3.269   7.275  12.218  1.8060  1.5873  0.5279
  397MOL0     H53579   2.954   7.224  11.912 -1.6544  0.8786 -1.8804
  397MOL0     H53580   2.750   7.239  11.821 -1.4615  1.1866  1.5069
  397MOL0     H53581   1.222   7.176  11.046 -0.1173  1.3782 -0.5181
  397MOL0     H53582   0.974   7.213  11.032 -0.6787  0.3646 -0.7905
  397MOL0     H53583   0.556   6.883  10.755 -0.4830 -0.0570  0.2735
  397MOL0     H53584   0.319   6.923  10.763  0.3250  0.0278  1.0782
  397MOL0     H53585   0.194   7.315  10.925  1.1868  1.2539 -2.1376
  397MOL0     H53586   0.143   7.326  10.751  0.6834 -0.4130 -0.8801
  397MOL0     H53587  -0.040   7.339  10.956  0.8500 -1.2763  1.8503
  397MOL0     H53588  -0.016   7.163  10.963 -3.3633 -1.0020 -1.1749
  397MOL0     H53589  -0.070   7.144  10.726  0.6126 -0.3041  0.1408
  397MOL0     H53590  -0.093   7.318  10.708  0.5896 -0.4364 -0.6414
  397MOL0     H53591  -0.254   7.134  10.899  2.0437  1.6964  1.7372
  397MOL0     H53592  -0.318   7.211  10.753 -0.7253  0.2677  0.1797
  397MOL0     H53593  -0.354   7.542  10.996 -2.1560 -1.3845  0.6269
  397MOL0     H53594   0.393   7.335  10.863  3.6553  2.3498 -1.9298
  397MOL0     H53595   0.616   7.302  10.874  0.5002  0.8548 -4.1434
  398MOL0     O53596   2.459   6.893   4.528 -0.0688  0.0548  0.5511
  398MOL0     C53597   2.471   6.827   4.424 -0.8617 -0.2364 -0.3586
  398MOL0     O53598   2.386   6.839   4.313 -0.5271 -0.0349  0.2490
  398MOL0     C53599   2.270   6.916   4.338 -0.7714  0.8754 -0.2356
  398MOL0     C53600   2.271   7.053   4.351 -0.4161  0.0302  0.2216
  398MOL0     C53601   2.155   7.134   4.359 -0.6902  0.3418 -0.2328
  398MOL0     C53602   2.028   7.074   4.359 -0.8487 -0.3526  0.6888
  398MOL0     O53603   1.907   7.139   4.372 -0.2443  0.3537  0.6329
  398MOL0     C53604   1.909   7.260   4.448 -0.5882 -0.9335  0.4177
  398MOL0     C53605   1.758   7.288   4.477 -0.7998  1.2538  0.9040
  398MOL0     C53606   1.738   7.359   4.611  0.0748 -0.4614  0.0859
  398MOL0     C53607   1.597   7.363   4.655  0.1480  0.4386 -0.2837
  398MOL0     C53608   1.580   7.437   4.791 -0.0858  0.7436 -0.1774
  398MOL0     C53609   1.442   7.509   4.811  0.2747  0.7440 -0.1144
  398MOL0     C53610   1.427   7.548   4.961  0.1042  0.2581 -1.2965
  398MOL0     C53611   1.390   7.423   5.056 -0.0313 -0.3086 -1.4657
  398MOL0     N53612   1.268   7.359   5.025  0.3947  0.0726  0.0520
  398MOL0     C53613   1.244   7.254   4.943  0.2467  0.5187  0.6046
  398MOL0     C53614   1.105   7.246   4.942 -0.1229 -0.0175  0.2769
  398MOL0     C53615   1.021   7.153   4.864 -0.0802  0.1409  1.1907
  398MOL0     C53616   0.944   7.238   4.752 -0.0972  0.2696  0.3232
  398MOL0     C53617   0.835   7.154   4.678  0.3960 -0.0485 -0.5963
  398MOL0     C53618   0.769   7.229   4.561 -0.8545  0.0377 -0.1029
  398MOL0     O53619   0.869   7.285   4.479 -0.0505 -0.3622 -0.7761
  398MOL0     C53620   0.835   7.335   4.355 -0.8169  0.4125 -0.6414
  398MOL0     C53621   0.703   7.329   4.302 -0.8305  0.9808  0.4419
  398MOL0     C53622   0.690   7.379   4.166  0.2558  0.4879 -0.2954
  398MOL0     C53623   0.553   7.362   4.109 -0.4278 -0.8246  0.8496
  398MOL0     C53624   0.790   7.448   4.101 -0.5105 -0.5445  0.9779
  398MOL0     C53625   0.766   7.527   3.972  0.2660  0.3893 -0.6925
  398MOL0     O53626   0.707   7.453   3.868  0.0539  0.2421 -0.0351
  398MOL0     C53627   0.706   7.497   3.742 -0.3439  0.4486  0.6228
  398MOL0     C53628   0.815   7.482   3.657 -0.0158  0.3638 -0.0805
  398MOL0     C53629   0.810   7.518   3.528  0.3276  0.0293  0.4619
  398MOL0     C53630   0.685   7.567   3.470 -0.0399 -0.7909 -0.3375
  398MOL0     O53631   0.670   7.602   3.335 -0.6888  0.4072 -0.0641
  398MOL0     C53632   0.789   7.579   3.254 -0.4386 -0.6541  0.0063
  398MOL0     C53633   0.763   7.623   3.106  0.0868 -0.1315 -0.5990
  398MOL0     C53634   0.884   7.589   3.017  0.1996  0.0111 -1.0723
  398MOL0     C53635   0.849   7.616   2.862 -0.5847 -0.2729  0.3498
  398MOL0     C53636   0.967   7.661   2.770  0.9005  0.0971 -0.9657
  398MOL0     C53637   1.098   7.585   2.788 -0.2625  0.3226  0.4393
  398MOL0     C53638   1.099   7.438   2.747  0.4201  1.0391  0.0732
  398MOL0     C53639   1.230   7.377   2.787 -0.5659 -0.0132 -0.1509
  398MOL0    Cl53640   1.227   7.375   2.969  0.1025  0.2723 -0.1250
  398MOL0     C53641   0.570   7.575   3.552 -0.4400 -0.3989 -0.6847
  398MOL0     C53642   0.584   7.553   3.689 -0.0175  0.3334 -0.7102
  398MOL0     O53643   0.829   7.627   3.954 -0.9361  0.0013  0.3517
  398MOL0     C53644   0.914   7.466   4.170 -0.1964  0.0501 -0.5120
  398MOL0     C53645   0.936   7.406   4.293  0.0142  0.5783  0.7302
  398MOL0     N53646   1.049   7.345   5.019  0.1288 -0.2457  0.9137
  398MOL0     N53647   1.149   7.414   5.063  0.2146  0.0275  0.2770
  398MOL0     C53648   2.026   6.937   4.338 -0.4509  0.6362  1.1967
  398MOL0     C53649   2.144   6.854   4.325  0.0393  0.2470  0.3390
  398MOL0     C53650   2.605   6.763   4.421 -0.5967 -0.8463  0.1587
  398MOL0     C53651   2.706   6.798   4.513 -0.4345  1.5086 -0.2884
  398MOL0     C53652   2.835   6.742   4.502  0.4485 -0.5485  0.1676
  398MOL0     C53653   2.864   6.648   4.393  1.6756 -0.1200 -1.8404
  398MOL0     O53654   2.988   6.594   4.374  0.1143 -0.5001  0.2807
  398MOL0     C53655   3.075   6.559   4.481 -0.2256  0.0253  0.0972
  398MOL0     C53656   3.172   6.673   4.524 -0.1147  0.7025  0.5245
  398MOL0     C53657   3.260   6.731   4.409  0.0913 -0.2531  0.6311
  398MOL0     C53658   3.347   6.840   4.457 -0.3529 -1.0917 -0.2075
  398MOL0     C53659   3.471   6.839   4.380  0.1614 -0.4180 -0.5918
  398MOL0     C53660   3.575   6.835   4.309  0.4477  0.6183 -0.4635
  398MOL0     C53661   2.766   6.618   4.309  0.4285 -0.4487 -0.4943
  398MOL0     C53662   2.638   6.673   4.321  0.1763  0.8981 -0.5997
  398MOL0     H53663   2.373   7.090   4.346 -1.3334  2.6495 -2.0771
  398MOL0     H53664   2.164   7.242   4.367  2.1950  0.0748  2.1075
  398MOL0     H53665   1.963   7.244   4.541  0.6131 -1.7476 -0.3967
  398MOL0     H53666   1.956   7.342   4.394 -0.3969 -1.4280 -0.1828
  398MOL0     H53667   1.720   7.343   4.391 -0.6064 -1.5412 -1.1080
  398MOL0     H53668   1.705   7.193   4.483  1.2644 -0.0658 -0.4078
  398MOL0     H53669   1.809   7.315   4.682  2.0859 -0.2839 -1.7243
  398MOL0     H53670   1.770   7.463   4.604 -1.8598  0.1395 -0.4143
  398MOL0     H53671   1.540   7.418   4.580 -0.4614 -1.8444 -1.5769
  398MOL0     H53672   1.560   7.262   4.673  0.6972  0.0063 -1.4843
  398MOL0     H53673   1.608   7.369   4.871  0.1981  0.0547 -0.8552
  398MOL0     H53674   1.662   7.509   4.783 -1.0763  1.7671 -2.1225
  398MOL0     H53675   1.438   7.598   4.748  0.7901 -0.6136 -2.2023
  398MOL0     H53676   1.358   7.451   4.770  1.4708 -0.4661 -0.9299
  398MOL0     H53677   1.511   7.599   5.008 -1.0771 -0.6425  2.0406
  398MOL0     H53678   1.345   7.620   4.960  0.1969  0.5218  1.8562
  398MOL0     H53679   1.379   7.478   5.150  2.0622 -2.7134  0.3322
  398MOL0     H53680   1.474   7.355   5.072 -1.6900 -2.5239 -1.7465
  398MOL0     H53681   1.312   7.204   4.875  1.4257  4.0728 -1.0855
  398MOL0     H53682   1.082   7.078   4.812  1.5701  1.4866  1.0973
  398MOL0     H53683   0.947   7.113   4.934 -0.1807  1.6399  1.9617
  398MOL0     H53684   1.016   7.269   4.676 -2.1150  0.9456 -1.4064
  398MOL0     H53685   0.896   7.332   4.782  2.2724  1.9158 -0.7054
  398MOL0     H53686   0.760   7.116   4.748  4.1475 -1.4171  3.1468
  398MOL0     H53687   0.885   7.066   4.636  0.7552  0.1690 -0.6304
  398MOL0     H53688   0.699   7.305   4.598  0.3403  1.2050 -0.1623
  398MOL0     H53689   0.724   7.154   4.495 -0.7188  0.5133 -0.7520
  398MOL0     H53690   0.612   7.287   4.344 -0.4667 -1.8044 -1.2647
  398MOL0     H53691   0.561   7.276   4.042  0.7498  1.2405 -1.8280
  398MOL0     H53692   0.493   7.345   4.199  1.9188 -0.5536  2.5496
  398MOL0     H53693   0.523   7.454   4.058  2.0268 -0.0534  0.6540
  398MOL0     H53694   0.908   7.441   3.694  0.0404  1.1716  0.7363
  398MOL0     H53695   0.903   7.521   3.473 -0.3442  0.3423 -0.7204
  398MOL0     H53696   0.865   7.645   3.297  1.9298 -2.8567 -0.5489
  398MOL0     H53697   0.831   7.480   3.269  0.5428 -0.2872 -0.2617
  398MOL0     H53698   0.675   7.573   3.063  0.2870 -0.6761 -0.3779
  398MOL0     H53699   0.740   7.730   3.107 -2.7470 -0.6440  0.5696
  398MOL0     H53700   0.913   7.485   3.036  0.9188  0.8619  4.0572
  398MOL0     H53701   0.968   7.650   3.051  1.7922 -1.8641 -1.5238
  398MOL0     H53702   0.815   7.516   2.834  1.9002 -0.7665 -1.1235
  398MOL0     H53703   0.768   7.687   2.842 -1.4085 -1.5561 -1.0784
  398MOL0     H53704   0.989   7.766   2.791  0.8117  0.1310 -1.0456
  398MOL0     H53705   0.939   7.648   2.665  0.0938 -2.6265 -0.4727
  398MOL0     H53706   1.177   7.632   2.729  0.6426 -0.8768  0.6374
  398MOL0     H53707   1.129   7.594   2.893  4.0714  0.5674 -0.6431
  398MOL0     H53708   1.086   7.426   2.639  2.4441  4.5866 -0.7262
  398MOL0     H53709   1.019   7.380   2.794 -0.6392  0.5027 -2.2339
  398MOL0     H53710   1.304   7.443   2.740  2.2883 -1.9404  1.3173
  398MOL0     H53711   1.250   7.275   2.751 -2.6848 -1.2141  1.8075
  398MOL0     H53712   0.472   7.605   3.517 -0.9688  0.4367  1.3486
  398MOL0     H53713   0.490   7.557   3.743  0.0532  1.8261 -0.6338
  398MOL0     H53714   0.992   7.529   4.128  1.4067 -0.3854  1.6228
  398MOL0     H53715   1.032   7.412   4.342  1.4928  1.5663 -2.0370
  398MOL0     H53716   1.923   6.903   4.325 -0.0796  0.1392 -0.7135
  398MOL0     H53717   2.135   6.749   4.300 -0.7359  0.6358 -1.1250
  398MOL0     H53718   2.682   6.875   4.586  0.5684  2.4929 -0.9470
  398MOL0     H53719   2.915   6.775   4.567  1.8138  2.0275 -2.5804
  398MOL0     H53720   3.008   6.533   4.564 -1.1496 -4.5249 -1.7993
  398MOL0     H53721   3.135   6.473   4.453 -1.1820 -0.9227  0.8860
  398MOL0     H53722   3.235   6.629   4.602  1.6314 -0.4403 -1.4283
  398MOL0     H53723   3.115   6.757   4.566 -1.3364  0.6748 -0.9660
  398MOL0     H53724   3.197   6.774   4.330  1.8637 -2.1894 -1.9922
  398MOL0     H53725   3.315   6.641   4.378  0.3956 -0.6995  2.3728
  398MOL0     H53726   3.362   6.831   4.565  0.5262  1.3659 -0.0621
  398MOL0     H53727   3.314   6.943   4.438 -0.2051 -0.5824  2.0727
  398MOL0     H53728   3.659   6.837   4.242  2.3486  0.8488  1.8236
  398MOL0     H53729   2.783   6.548   4.227  2.1441 -0.6534  0.0064
  398MOL0     H53730   2.563   6.642   4.249  0.9412 -1.8612 -0.3388
  399MOL0     O53731   8.681   4.858  10.427 -0.1483 -0.3068 -0.2366
  399MOL0     C53732   8.702   4.741  10.397  0.2740  0.1227  0.0514
  399MOL0     O53733   8.633   4.637  10.447 -0.5649  0.1941 -0.2796
  399MOL0     C53734   8.519   4.657  10.525 -0.2993 -0.2600  0.3218
  399MOL0     C53735   8.497   4.585  10.641  0.1118 -0.6187 -0.3639
  399MOL0     C53736   8.376   4.588  10.704  0.0749 -0.6304 -0.0510
  399MOL0     C53737   8.268   4.659  10.657  0.1443 -0.1127  0.1759
  399MOL0     O53738   8.158   4.647  10.733  0.3321  0.1300  0.0342
  399MOL0     C53739   8.079   4.770  10.767  0.2084  0.1153  0.1694
  399MOL0     C53740   7.938   4.726  10.769  0.6202  0.0641 -0.5994
  399MOL0     C53741   7.856   4.847  10.801 -0.2805  0.7483 -0.0575
  399MOL0     C53742   7.706   4.815  10.814 -0.0051  0.0561 -0.1903
  399MOL0     C53743   7.642   4.807  10.673  0.5176  0.0534 -0.1720
  399MOL0     C53744   7.493   4.786  10.706 -0.3131  0.6672 -0.2222
  399MOL0     C53745   7.416   4.857  10.589 -0.3943 -0.7216  0.3425
  399MOL0     C53746   7.256   4.834  10.605  0.0606 -0.4318  0.3822
  399MOL0     N53747   7.194   4.909  10.491  0.4588  0.3863  0.5274
  399MOL0     C53748   7.191   4.861  10.359  0.2450 -0.1633 -0.1491
  399MOL0     C53749   7.149   4.961  10.286  0.5698 -0.4228  0.3625
  399MOL0     C53750   7.109   4.955  10.137 -0.3589  0.7187 -0.1867
  399MOL0     C53751   6.965   4.923  10.121  0.6137 -0.1792  0.6851
  399MOL0     C53752   6.935   4.772  10.142 -0.0788 -0.1612  0.6757
  399MOL0     C53753   7.002   4.696  10.026 -0.1151 -0.1556  0.6242
  399MOL0     O53754   6.909   4.595   9.986  0.2446 -0.5162  0.1848
  399MOL0     C53755   6.893   4.481  10.065  0.5695 -0.5623 -0.3349
  399MOL0     C53756   6.976   4.425  10.149  0.5365 -0.5193  0.2033
  399MOL0     C53757   6.937   4.319  10.235  0.4982  0.3781 -0.0990
  399MOL0     C53758   7.033   4.285  10.341 -0.2483 -0.4333  0.3164
  399MOL0     C53759   6.813   4.261  10.225 -0.2009 -0.6578 -0.2991
  399MOL0     C53760   6.778   4.138  10.301 -0.4404  0.6648  0.4700
  399MOL0     O53761   6.644   4.117  10.333 -0.3956  0.3617 -0.3044
  399MOL0     C53762   6.609   4.013  10.424 -0.0215 -0.1444  0.0743
  399MOL0     C53763   6.675   4.001  10.549 -0.2564 -0.2618  0.6608
  399MOL0     C53764   6.626   3.910  10.649 -0.2894  0.3774 -0.4907
  399MOL0     C53765   6.516   3.835  10.615 -0.0159  0.2975 -0.7452
  399MOL0     O53766   6.479   3.745  10.714 -0.0785  0.1149  0.2713
  399MOL0     C53767   6.373   3.649  10.696 -0.0881  0.9643 -0.8102
  399MOL0     C53768   6.339   3.567  10.827  0.1080 -0.1843  0.5672
  399MOL0     C53769   6.219   3.481  10.816  0.4612  0.5973 -0.7151
  399MOL0     C53770   6.221   3.380  10.938 -0.1765  0.8435 -0.0846
  399MOL0     C53771   6.134   3.260  10.899  0.5109 -0.1252  0.0793
  399MOL0     C53772   6.165   3.162  10.786  0.2903  0.5368  0.3217
  399MOL0     C53773   6.308   3.109  10.797 -0.0484 -0.6027 -0.2658
  399MOL0     C53774   6.353   3.046  10.660 -0.7468 -0.0883  0.1233
  399MOL0    Cl53775   6.514   2.949  10.658  0.4158 -0.2299  0.0174
  399MOL0     C53776   6.448   3.838  10.498 -0.3568 -0.4725  0.4168
  399MOL0     C53777   6.502   3.926  10.398  0.0881 -0.1708  0.0152
  399MOL0     O53778   6.873   4.059  10.324  0.1294  0.9570 -0.7828
  399MOL0     C53779   6.731   4.305  10.123  0.1883  0.2816 -0.5619
  399MOL0     C53780   6.769   4.419  10.050 -0.2055  0.1909 -0.3736
  399MOL0     N53781   7.119   5.065  10.368  0.4478 -0.7826  0.2117
  399MOL0     N53782   7.124   5.025  10.497 -0.0048  0.0876 -0.2982
  399MOL0     C53783   8.291   4.737  10.547  0.4782 -0.0308  0.1590
  399MOL0     C53784   8.414   4.742  10.481  0.2660  0.7362 -0.6571
  399MOL0     C53785   8.824   4.697  10.315  0.9416 -0.8280  0.5272
  399MOL0     C53786   8.917   4.804  10.306 -0.6981 -0.7661  0.1262
  399MOL0     C53787   9.037   4.777  10.229 -0.0618  0.2102  0.3448
  399MOL0     C53788   9.064   4.644  10.176 -0.4570  0.2679  1.1435
  399MOL0     O53789   9.187   4.620  10.116  0.2047  0.6738 -0.4388
  399MOL0     C53790   9.251   4.512  10.176  0.3790  0.2951  0.9723
  399MOL0     C53791   9.385   4.477  10.102  0.0445  0.4111  0.6012
  399MOL0     C53792   9.504   4.547  10.168 -0.2527  0.0820  0.7380
  399MOL0     C53793   9.544   4.512  10.314  0.8217 -0.0669 -0.3005
  399MOL0     C53794   9.623   4.614  10.374  0.0044  0.5054  1.5703
  399MOL0     C53795   9.705   4.694  10.408  0.2438 -0.3088  0.8880
  399MOL0     C53796   8.959   4.545  10.179 -0.1118  0.3349  0.7472
  399MOL0     C53797   8.840   4.574  10.244 -0.1195 -0.3824 -0.1271
  399MOL0     H53798   8.575   4.513  10.661 -1.5175 -2.2616  0.3030
  399MOL0     H53799   8.364   4.517  10.785 -2.8952 -0.2780 -0.0774
  399MOL0     H53800   8.111   4.820  10.860 -1.3245  1.2026  0.1474
  399MOL0     H53801   8.090   4.849  10.692  1.9093 -1.5184 -1.3868
  399MOL0     H53802   7.919   4.673  10.675 -1.2323  0.8501 -0.7108
  399MOL0     H53803   7.935   4.655  10.853  1.8698 -1.6096 -1.8933
  399MOL0     H53804   7.907   4.898  10.883 -1.4135  2.6348 -0.4611
  399MOL0     H53805   7.872   4.920  10.721  1.6650  0.4986  0.0516
  399MOL0     H53806   7.707   4.716  10.859 -0.6138 -0.7643 -1.8856
  399MOL0     H53807   7.654   4.885  10.880 -0.9545 -0.4909 -0.3283
  399MOL0     H53808   7.661   4.899  10.617  1.3707 -0.1235 -0.1955
  399MOL0     H53809   7.672   4.713  10.626 -2.3365 -1.3181  0.5619
  399MOL0     H53810   7.480   4.680  10.729 -1.5390  1.4391  3.2706
  399MOL0     H53811   7.465   4.836  10.800  1.8930 -0.2031  0.9792
  399MOL0     H53812   7.446   4.962  10.587 -1.5416 -0.3973 -1.3256
  399MOL0     H53813   7.456   4.823  10.493  1.2229  2.1868 -0.1410
  399MOL0     H53814   7.226   4.868  10.705  0.0892 -1.6501  0.8183
  399MOL0     H53815   7.224   4.731  10.591 -0.4535 -0.0051 -1.9473
  399MOL0     H53816   7.217   4.760  10.330 -1.0114 -0.0766 -1.6516
  399MOL0     H53817   7.124   5.049  10.083  0.8711 -0.4851 -2.0229
  399MOL0     H53818   7.170   4.878  10.090 -0.0464  1.3016 -0.7553
  399MOL0     H53819   6.936   4.949  10.018 -2.4193  0.4544  1.5856
  399MOL0     H53820   6.903   4.981  10.190  1.1294  1.7665 -0.4182
  399MOL0     H53821   6.826   4.760  10.142 -0.1988 -0.5461 -3.4430
  399MOL0     H53822   6.970   4.721  10.232  2.8044  0.0588 -0.2200
  399MOL0     H53823   7.104   4.665  10.050  0.2554  1.4076  1.1264
  399MOL0     H53824   7.012   4.763   9.940 -1.3257 -1.0101 -0.2286
  399MOL0     H53825   7.074   4.470  10.163  0.8927 -0.4483 -2.1691
  399MOL0     H53826   7.115   4.357  10.340  0.3080 -1.0561  0.5172
  399MOL0     H53827   6.984   4.280  10.439  1.4602  0.2568  1.2382
  399MOL0     H53828   7.077   4.186  10.328 -0.3972 -0.0929 -4.5742
  399MOL0     H53829   6.757   4.066  10.580 -0.3093 -1.3862  3.3863
  399MOL0     H53830   6.673   3.895  10.746  1.9524  0.5218 -1.4915
  399MOL0     H53831   6.284   3.710  10.684  1.2980  3.1324 -0.6596
  399MOL0     H53832   6.389   3.582  10.611  0.5165 -0.8157  0.6468
  399MOL0     H53833   6.421   3.496  10.841 -1.3793 -2.4232 -1.3646
  399MOL0     H53834   6.328   3.638  10.909  1.5959  0.7687 -0.0287
  399MOL0     H53835   6.207   3.433  10.718 -2.6830 -1.6025  0.5616
  399MOL0     H53836   6.136   3.552  10.822  0.1569  0.5777 -3.4079
  399MOL0     H53837   6.316   3.330  10.956  0.1325  1.9474  1.5519
  399MOL0     H53838   6.186   3.425  11.031 -0.8130  3.2724 -1.4184
  399MOL0     H53839   6.032   3.296  10.885  1.0251  1.0298 -0.9303
  399MOL0     H53840   6.153   3.192  10.982  1.0442 -0.6422 -0.4622
  399MOL0     H53841   6.104   3.072  10.797  1.7154 -0.7367 -1.6306
  399MOL0     H53842   6.142   3.192  10.683 -1.3777  0.0499  0.5255
  399MOL0     H53843   6.311   3.037  10.879  0.5738 -1.0790 -0.6964
  399MOL0     H53844   6.384   3.185  10.815  0.8763 -1.3084 -1.0799
  399MOL0     H53845   6.360   3.119  10.579 -0.3307  0.8932  1.0229
  399MOL0     H53846   6.271   2.978  10.632  0.0377 -0.3026 -1.8710
  399MOL0     H53847   6.358   3.781  10.477 -0.5126  0.0064 -0.2407
  399MOL0     H53848   6.446   3.948  10.307 -1.2784  2.4318  1.3851
  399MOL0     H53849   6.635   4.259  10.102  0.3005 -0.2641  0.0615
  399MOL0     H53850   6.695   4.457   9.981  0.5056  0.0623 -1.2333
  399MOL0     H53851   8.222   4.814  10.515 -1.8429 -2.4247 -0.9738
  399MOL0     H53852   8.420   4.806  10.393 -0.0787  0.9417 -0.5380
  399MOL0     H53853   8.904   4.889  10.372 -5.4084 -0.5839 -0.7060
  399MOL0     H53854   9.108   4.859  10.219 -1.5731  1.7980  1.8286
  399MOL0     H53855   9.267   4.536  10.281 -1.4342  3.0905  0.7114
  399MOL0     H53856   9.185   4.425  10.164 -1.3599  1.6566  0.1428
  399MOL0     H53857   9.383   4.500   9.995 -0.3138 -0.4404  0.4167
  399MOL0     H53858   9.398   4.369  10.105 -2.5675 -0.0370 -0.7844
  399MOL0     H53859   9.480   4.654  10.159 -3.2567 -0.5329  0.2499
  399MOL0     H53860   9.591   4.531  10.104 -1.7783 -1.5315 -1.0781
  399MOL0     H53861   9.604   4.421  10.313 -1.8265 -1.9685  0.9619
  399MOL0     H53862   9.452   4.495  10.371  0.4192  0.1369 -0.8676
  399MOL0     H53863   9.764   4.764  10.466 -1.8395  2.2021  0.1794
  399MOL0     H53864   8.959   4.453  10.121 -1.1286  0.0509  1.1857
  399MOL0     H53865   8.747   4.519  10.235 -1.4548  1.1341  2.9923
  400MOL0     O53866   8.455   1.920   3.060  0.1032 -0.3252  0.3065
  400MOL0     C53867   8.437   1.806   3.095 -0.4216 -0.1319 -0.2628
  400MOL0     O53868   8.541   1.732   3.146  0.2542  0.2485  0.4442
  400MOL0     C53869   8.676   1.774   3.146  0.3880  0.9651  0.4017
  400MOL0     C53870   8.753   1.738   3.258  0.3438  0.1633  1.3272
  400MOL0     C53871   8.901   1.757   3.254  0.1399 -0.3111  0.5428
  400MOL0     C53872   8.960   1.799   3.135 -1.4927  0.0780 -0.4684
  400MOL0     O53873   9.090   1.830   3.126 -0.0472  0.0794  0.1513
  400MOL0     C53874   9.178   1.848   3.232  0.8226 -0.1641  0.7292
  400MOL0     C53875   9.320   1.876   3.173  1.0744  0.0964 -0.5580
  400MOL0     C53876   9.413   1.956   3.277 -0.2888  0.9138  0.0082
  400MOL0     C53877   9.540   2.001   3.204  0.0542 -0.1241 -0.8329
  400MOL0     C53878   9.624   2.080   3.311  0.4050  0.3628  0.5725
  400MOL0     C53879   9.764   2.096   3.264 -0.8913 -0.0292  0.3858
  400MOL0     C53880   9.852   2.187   3.352  0.1363 -0.0612  0.4631
  400MOL0     C53881   9.870   2.128   3.492  0.2379  0.4599 -0.4474
  400MOL0     N53882   9.995   2.197   3.546  0.0251  0.0784  0.0859
  400MOL0     C53883  10.114   2.142   3.552  0.6834  0.3595 -0.3729
  400MOL0     C53884  10.179   2.209   3.647  0.2943  0.1981  0.8207
  400MOL0     C53885  10.328   2.181   3.686 -0.4407  0.6278 -0.2606
  400MOL0     C53886  10.428   2.136   3.569 -0.5241 -0.0045 -0.1740
  400MOL0     C53887  10.469   2.257   3.481  0.0894 -0.1534  1.4169
  400MOL0     C53888  10.367   2.290   3.368  0.0246  0.1672  0.3927
  400MOL0     O53889  10.320   2.180   3.300 -0.3330 -0.3120 -0.8965
  400MOL0     C53890  10.228   2.199   3.197 -1.0355  0.1912  0.1233
  400MOL0     C53891  10.173   2.083   3.148  0.3097  0.5795 -0.7906
  400MOL0     C53892  10.069   2.081   3.055  0.1248 -0.8286  0.6790
  400MOL0     C53893  10.020   1.954   3.014 -0.2791  0.1084  0.2573
  400MOL0     C53894  10.014   2.209   3.004 -0.4641  0.1766 -0.1205
  400MOL0     C53895   9.911   2.222   2.908  0.1926 -0.5207  0.5654
  400MOL0     O53896   9.906   2.341   2.843  0.4010  0.2744 -0.0614
  400MOL0     C53897   9.800   2.397   2.775 -0.1045 -0.2364  0.5421
  400MOL0     C53898   9.785   2.540   2.773 -0.3511 -0.2052 -0.0077
  400MOL0     C53899   9.680   2.601   2.707  0.5652  0.2913  0.2450
  400MOL0     C53900   9.594   2.523   2.625 -1.2796 -0.1455 -0.3903
  400MOL0     O53901   9.490   2.579   2.556 -0.1889  0.2745 -0.2658
  400MOL0     C53902   9.375   2.599   2.639  0.0851  0.1419 -0.2540
  400MOL0     C53903   9.267   2.670   2.544 -0.8447 -0.3224 -1.0691
  400MOL0     C53904   9.134   2.646   2.604  0.4515  0.2612  0.0908
  400MOL0     C53905   9.029   2.649   2.493 -0.1995  0.1542  0.2865
  400MOL0     C53906   8.897   2.650   2.572 -0.5068  0.2754 -0.1854
  400MOL0     C53907   8.783   2.707   2.477 -0.2891  0.8759  0.6475
  400MOL0     C53908   8.668   2.749   2.566  0.2419 -0.0466 -0.1715
  400MOL0     C53909   8.526   2.753   2.501 -0.1730  0.3609  0.3642
  400MOL0    Cl53910   8.403   2.793   2.626  0.1399 -0.4041 -0.1995
  400MOL0     C53911   9.614   2.386   2.632  0.2884 -0.6287  0.2465
  400MOL0     C53912   9.706   2.320   2.708 -0.0489 -0.2084  0.2430
  400MOL0     O53913   9.825   2.137   2.911  0.0566 -0.1859  0.1815
  400MOL0     C53914  10.077   2.333   3.056 -0.5065  0.4515  0.2412
  400MOL0     C53915  10.177   2.317   3.154  0.1095 -0.6832  0.0692
  400MOL0     N53916  10.101   2.317   3.686  0.7420  0.8205 -0.5447
  400MOL0     N53917   9.989   2.311   3.620 -0.2663  0.3570 -0.0420
  400MOL0     C53918   8.876   1.837   3.029 -0.5982 -0.3476  0.0784
  400MOL0     C53919   8.737   1.822   3.031 -0.0145  0.7671  0.5944
  400MOL0     C53920   8.308   1.746   3.114  0.0012 -0.1520 -0.2721
  400MOL0     C53921   8.282   1.629   3.184 -0.2412  0.2938  0.2711
  400MOL0     C53922   8.162   1.573   3.209  0.5283  0.0441  1.0111
  400MOL0     C53923   8.039   1.636   3.158 -0.6797  0.2423  0.0766
  400MOL0     O53924   7.907   1.602   3.184  0.1399  0.2092 -0.3534
  400MOL0     C53925   7.880   1.460   3.169  0.9874 -0.4276  0.3253
  400MOL0     C53926   7.820   1.411   3.298  0.2641 -0.1238  0.4930
  400MOL0     C53927   7.772   1.267   3.298  0.4250 -0.0876  0.3848
  400MOL0     C53928   7.671   1.249   3.405  0.5182 -1.4152 -0.5761
  400MOL0     C53929   7.669   1.112   3.457  0.3861 -0.0129 -0.1797
  400MOL0     C53930   7.652   1.012   3.522 -0.4796 -0.5385 -0.3002
  400MOL0     C53931   8.062   1.760   3.096  0.1909  0.2273  0.0535
  400MOL0     C53932   8.194   1.808   3.066  0.0755  0.7733  0.0048
  400MOL0     H53933   8.705   1.695   3.345  0.6988  0.6175  1.7575
  400MOL0     H53934   8.949   1.717   3.343  0.6933 -1.6086 -0.2982
  400MOL0     H53935   9.144   1.941   3.278  1.8179  1.9771 -2.5490
  400MOL0     H53936   9.179   1.767   3.306 -2.0665  2.3280  3.8458
  400MOL0     H53937   9.365   1.780   3.146 -2.6421 -2.4271  1.3238
  400MOL0     H53938   9.309   1.930   3.079 -0.0717  0.1908 -0.3823
  400MOL0     H53939   9.352   2.038   3.314 -0.8886  0.4563  0.0490
  400MOL0     H53940   9.434   1.898   3.368 -1.4501  1.1841  0.4590
  400MOL0     H53941   9.598   1.915   3.171  2.8864  1.1591  0.4457
  400MOL0     H53942   9.520   2.071   3.122  0.6848  1.6862  0.4936
  400MOL0     H53943   9.572   2.173   3.337  0.3967 -0.0051  1.9734
  400MOL0     H53944   9.618   2.019   3.402 -1.6460  1.5182  1.2701
  400MOL0     H53945   9.820   2.003   3.260  1.0465  1.0893 -3.4797
  400MOL0     H53946   9.769   2.133   3.161  0.2104 -2.7306 -0.6275
  400MOL0     H53947   9.951   2.196   3.305 -0.9555  2.3510 -1.5918
  400MOL0     H53948   9.824   2.293   3.344 -0.1480 -0.0729  1.2941
  400MOL0     H53949   9.875   2.020   3.504  1.1634  0.5711  0.3115
  400MOL0     H53950   9.784   2.160   3.553 -0.4992 -0.4019 -1.0159
  400MOL0     H53951  10.152   2.067   3.483  4.5494  2.1797 -0.5166
  400MOL0     H53952  10.366   2.276   3.724 -0.0130  0.4062 -0.1207
  400MOL0     H53953  10.326   2.108   3.768  0.1593  1.0176  0.1061
  400MOL0     H53954  10.386   2.058   3.504 -2.8963 -3.1345  4.5157
  400MOL0     H53955  10.513   2.085   3.614 -0.8793 -1.5714 -1.1905
  400MOL0     H53956  10.555   2.228   3.419 -1.7241 -0.1496 -1.2719
  400MOL0     H53957  10.493   2.353   3.529 -0.0389  1.2328 -1.1180
  400MOL0     H53958  10.410   2.363   3.300 -2.1875  0.6786 -0.5473
  400MOL0     H53959  10.278   2.342   3.406 -0.7799  0.0613 -1.2821
  400MOL0     H53960  10.216   1.993   3.191  1.9616  1.1402 -1.1956
  400MOL0     H53961   9.986   1.941   2.911 -2.6018 -0.4812  1.0353
  400MOL0     H53962  10.099   1.878   3.019 -2.8853 -2.8734 -0.4363
  400MOL0     H53963   9.931   1.921   3.069 -1.3461  4.4363  1.5035
  400MOL0     H53964   9.863   2.599   2.820 -0.7758  0.1289  0.2809
  400MOL0     H53965   9.674   2.710   2.711  1.2514  0.3359  0.1953
  400MOL0     H53966   9.330   2.504   2.668  0.1950  0.5270  1.2609
  400MOL0     H53967   9.402   2.654   2.730 -1.3844  1.0690 -0.3479
  400MOL0     H53968   9.296   2.775   2.532 -0.0422 -0.1838  1.5463
  400MOL0     H53969   9.276   2.625   2.444 -0.9325 -3.1783  0.1300
  400MOL0     H53970   9.106   2.725   2.674  0.4723  0.4790 -0.1465
  400MOL0     H53971   9.136   2.555   2.664  0.6434 -0.0067 -0.3199
  400MOL0     H53972   9.046   2.741   2.437  0.5161 -0.4585 -0.5201
  400MOL0     H53973   9.047   2.558   2.437 -0.5595 -0.0567  0.5082
  400MOL0     H53974   8.904   2.725   2.651 -1.0239  0.3798 -0.2315
  400MOL0     H53975   8.869   2.551   2.609 -1.3681  1.1235  1.5466
  400MOL0     H53976   8.821   2.788   2.413 -0.5961  1.0661  0.7018
  400MOL0     H53977   8.747   2.635   2.404  1.0274  0.3050  0.5409
  400MOL0     H53978   8.696   2.842   2.616  0.1403 -1.4884  2.8268
  400MOL0     H53979   8.659   2.687   2.656 -0.7246  1.1266  0.5826
  400MOL0     H53980   8.506   2.656   2.453  4.0159  0.5441 -2.2483
  400MOL0     H53981   8.530   2.821   2.416 -1.1773 -0.2192 -0.1653
  400MOL0     H53982   9.551   2.318   2.575 -0.1856 -0.9925  1.1758
  400MOL0     H53983   9.730   2.214   2.702  2.0228  0.1377  1.4073
  400MOL0     H53984  10.042   2.432   3.030 -0.4449  0.1770 -0.9239
  400MOL0     H53985  10.218   2.414   3.178 -2.8045  1.1257 -1.5611
  400MOL0     H53986   8.934   1.875   2.945  0.4332 -2.0205 -0.0051
  400MOL0     H53987   8.666   1.833   2.950 -0.0677  0.6090  0.6187
  400MOL0     H53988   8.362   1.567   3.223 -1.8320 -0.3030  2.8824
  400MOL0     H53989   8.149   1.479   3.261  0.5696 -0.0961  0.7708
  400MOL0     H53990   7.801   1.434   3.098  0.0107  0.4097  1.0873
  400MOL0     H53991   7.972   1.406   3.145  0.6514 -0.7733 -0.1855
  400MOL0     H53992   7.729   1.467   3.321 -0.7169 -1.8047  0.8982
  400MOL0     H53993   7.887   1.433   3.381  4.2903  1.0801 -2.7641
  400MOL0     H53994   7.860   1.207   3.323  0.2723 -2.0507 -3.1165
  400MOL0     H53995   7.740   1.246   3.196 -0.7330  0.0961  0.6998
  400MOL0     H53996   7.578   1.289   3.364  2.4461  3.4915 -0.8949
  400MOL0     H53997   7.685   1.307   3.496  0.7966 -0.5518 -1.1578
  400MOL0     H53998   7.641   0.931   3.590 -2.2688 -1.0350 -1.1289
  400MOL0     H53999   7.984   1.822   3.054  1.5196  1.8353 -0.1143
  400MOL0     H54000   8.198   1.902   3.012 -0.8935  0.9280  0.1865
  401MOL0     O54001   5.032   5.659  10.606  0.7285 -0.2773  0.0337
  401MOL0     C54002   5.052   5.726  10.507 -0.4078 -0.7300  0.1656
  401MOL0     O54003   4.950   5.779  10.426  0.6720  0.5717  0.2412
  401MOL0     C54004   4.812   5.748  10.447 -0.9695  0.1732 -0.3318
  401MOL0     C54005   4.741   5.712  10.340 -0.5894  0.7238  1.0882
  401MOL0     C54006   4.605   5.687  10.353  0.9954 -0.0513 -0.5628
  401MOL0     C54007   4.529   5.696  10.468 -0.4128  0.4003 -1.0757
  401MOL0     O54008   4.393   5.664  10.473 -0.1559 -0.0415 -0.1893
  401MOL0     C54009   4.313   5.715  10.577 -0.1219  0.0763 -0.1829
  401MOL0     C54010   4.172   5.735  10.521 -0.3462 -0.6096 -0.1903
  401MOL0     C54011   4.060   5.698  10.614  0.2482  0.3674  0.2558
  401MOL0     C54012   4.057   5.766  10.748 -0.4433 -0.3422  0.1328
  401MOL0     C54013   4.108   5.683  10.863  0.1057 -0.1132 -0.1164
  401MOL0     C54014   4.119   5.755  10.996 -0.6544 -0.0730 -0.5079
  401MOL0     C54015   4.182   5.888  11.005  0.9338 -0.3491  0.8086
  401MOL0     C54016   4.310   5.890  10.916  0.3145 -0.2611 -1.3508
  401MOL0     N54017   4.348   6.027  10.875 -0.5780 -0.1514 -0.7603
  401MOL0     C54018   4.436   6.050  10.783  0.1385 -0.5384 -0.7353
  401MOL0     C54019   4.451   6.188  10.771 -0.2148 -0.3819 -1.0800
  401MOL0     C54020   4.541   6.267  10.692 -0.0767 -0.0949  0.3558
  401MOL0     C54021   4.685   6.291  10.734  0.0072 -0.1855  0.2799
  401MOL0     C54022   4.777   6.167  10.704  0.0957 -0.4646 -0.1638
  401MOL0     C54023   4.929   6.205  10.708 -0.0136  0.4402 -0.8796
  401MOL0     O54024   4.961   6.321  10.633 -0.5195  0.2594  0.3017
  401MOL0     C54025   5.093   6.349  10.593 -0.2144 -1.1009 -0.3251
  401MOL0     C54026   5.199   6.255  10.608 -0.0819 -0.2571  0.4238
  401MOL0     C54027   5.337   6.293  10.582 -0.2687  0.2923 -0.2031
  401MOL0     C54028   5.438   6.199  10.630 -0.0789 -0.0323  0.9123
  401MOL0     C54029   5.366   6.421  10.523  0.6377 -0.0113 -0.1795
  401MOL0     C54030   5.502   6.477  10.491 -0.2182  1.0313  0.4726
  401MOL0     O54031   5.514   6.610  10.473 -0.8330 -0.8316  0.1003
  401MOL0     C54032   5.629   6.669  10.438 -0.5291 -0.4613 -0.2405
  401MOL0     C54033   5.676   6.773  10.516 -0.3535  0.5637  0.2628
  401MOL0     C54034   5.800   6.843  10.486  0.1129 -0.4619  0.5762
  401MOL0     C54035   5.869   6.807  10.370 -0.0924  0.1872  0.5115
  401MOL0     O54036   5.992   6.871  10.353 -0.2077 -0.2921 -0.3795
  401MOL0     C54037   6.078   6.832  10.244  0.6425  0.0249 -0.3143
  401MOL0     C54038   6.204   6.918  10.246 -0.5427  0.0844  0.6584
  401MOL0     C54039   6.184   7.060  10.199 -0.3090 -0.1894 -0.2043
  401MOL0     C54040   6.308   7.122  10.114  1.0252  0.3264  0.6490
  401MOL0     C54041   6.281   7.272  10.083  0.5765  0.1219  0.2309
  401MOL0     C54042   6.153   7.300   9.992 -0.3082  0.0910  0.0336
  401MOL0     C54043   6.151   7.448   9.950  0.2952  1.1211  0.0273
  401MOL0     C54044   6.031   7.482   9.862  0.3237  0.3349  1.4940
  401MOL0    Cl54045   6.040   7.393   9.706  0.4306 -0.4540 -0.1857
  401MOL0     C54046   5.815   6.710  10.284  0.1869  0.3495 -0.6564
  401MOL0     C54047   5.697   6.641  10.321 -0.7251  0.5542  0.1186
  401MOL0     O54048   5.596   6.397  10.468 -0.6832 -0.2074 -0.1851
  401MOL0     C54049   5.262   6.507  10.496  0.1113  0.4522 -0.3200
  401MOL0     C54050   5.134   6.470  10.524  0.5679  0.2148 -0.3324
  401MOL0     N54051   4.352   6.242  10.863 -1.3576  0.8975 -0.1796
  401MOL0     N54052   4.297   6.139  10.923  0.2054 -0.1720 -0.1197
  401MOL0     C54053   4.603   5.741  10.580  0.1408  0.1380  0.1909
  401MOL0     C54054   4.744   5.765  10.575 -0.4555 -0.3587 -1.1155
  401MOL0     C54055   5.192   5.772  10.492 -0.4912  0.5730 -0.4476
  401MOL0     C54056   5.286   5.760  10.589 -0.6698 -0.0527 -0.7102
  401MOL0     C54057   5.402   5.829  10.578 -0.3881  0.6566 -0.4915
  401MOL0     C54058   5.446   5.877  10.455  0.6301 -0.0587 -0.0080
  401MOL0     O54059   5.573   5.911  10.424 -0.2680 -0.2382 -0.2952
  401MOL0     C54060   5.663   5.935  10.537 -0.4324 -0.4185  0.6897
  401MOL0     C54061   5.755   6.045  10.485 -0.1821 -0.9312 -0.3220
  401MOL0     C54062   5.902   6.033  10.529  0.1934  0.2406 -0.0800
  401MOL0     C54063   5.997   5.959  10.431  0.3904 -0.1666 -0.1253
  401MOL0     C54064   6.050   6.063  10.332 -0.7680  0.3425  0.4950
  401MOL0     C54065   6.113   6.137  10.261 -0.5880  0.7656 -0.2383
  401MOL0     C54066   5.350   5.869  10.349 -1.3443  0.2947  1.0777
  401MOL0     C54067   5.227   5.829  10.366  1.0013 -0.4145 -0.3314
  401MOL0     H54068   4.781   5.726  10.240 -2.4450  4.1782  0.6758
  401MOL0     H54069   4.544   5.680  10.263 -1.6843  3.0793  0.7744
  401MOL0     H54070   4.324   5.633  10.649 -0.6921 -0.7619 -1.0346
  401MOL0     H54071   4.354   5.811  10.611 -1.5029  0.2520  1.1336
  401MOL0     H54072   4.170   5.839  10.487  1.3260 -0.8015 -0.9669
  401MOL0     H54073   4.162   5.677  10.429 -2.9349 -0.5444 -0.0479
  401MOL0     H54074   3.972   5.723  10.552  1.5263  0.6574 -1.5205
  401MOL0     H54075   4.053   5.589  10.619 -2.8048  0.4255 -0.5868
  401MOL0     H54076   4.113   5.859  10.738 -1.0248  0.0280  0.2652
  401MOL0     H54077   3.952   5.786  10.775 -1.0300 -0.0512 -2.1756
  401MOL0     H54078   4.038   5.600  10.873 -0.1447  0.0095 -0.8116
  401MOL0     H54079   4.205   5.641  10.833  0.4761  1.9680 -2.0780
  401MOL0     H54080   4.015   5.762  11.030  0.1094 -1.3668  2.3875
  401MOL0     H54081   4.164   5.691  11.072 -1.7164  0.3583  0.5174
  401MOL0     H54082   4.115   5.962  10.961 -0.4572 -1.7712  0.4222
  401MOL0     H54083   4.210   5.915  11.107 -0.4891 -1.0322  1.4132
  401MOL0     H54084   4.313   5.825  10.829  3.4474 -0.4275 -1.2249
  401MOL0     H54085   4.389   5.848  10.979  0.3802 -0.9687 -1.9050
  401MOL0     H54086   4.498   5.978  10.732  1.8889  0.6661 -0.3901
  401MOL0     H54087   4.544   6.234  10.588  0.0180  2.7698 -0.6384
  401MOL0     H54088   4.500   6.369  10.694  1.1300  0.6611 -3.8636
  401MOL0     H54089   4.693   6.316  10.841 -0.6567 -0.1919  0.3387
  401MOL0     H54090   4.716   6.383  10.683 -2.3862 -0.7855 -2.5248
  401MOL0     H54091   4.755   6.122  10.607 -1.0286 -2.1403  0.8297
  401MOL0     H54092   4.760   6.095  10.784 -0.7578 -0.2737 -0.1567
  401MOL0     H54093   4.995   6.124  10.677  1.4295  1.4764 -0.6674
  401MOL0     H54094   4.956   6.216  10.814  0.2852 -2.2995 -0.6031
  401MOL0     H54095   5.190   6.151  10.636  1.2559 -1.4717 -3.1087
  401MOL0     H54096   5.489   6.160  10.542  3.0123  1.9025  1.6591
  401MOL0     H54097   5.513   6.257  10.684  0.5531  1.3197 -1.2857
  401MOL0     H54098   5.397   6.118  10.690  0.8534 -0.8097  0.5256
  401MOL0     H54099   5.620   6.790  10.607 -3.4680 -2.7768 -0.7896
  401MOL0     H54100   5.841   6.920  10.550  0.4223  0.7335 -1.0026
  401MOL0     H54101   6.102   6.726  10.258 -1.3453 -0.1680  2.2725
  401MOL0     H54102   6.026   6.845  10.149  1.5973 -0.1788 -0.8810
  401MOL0     H54103   6.251   6.916  10.345  1.1471  1.1759 -0.0785
  401MOL0     H54104   6.268   6.874  10.168  1.0629 -1.3984  2.6848
  401MOL0     H54105   6.164   7.128  10.282  1.1535  1.0682 -0.8311
  401MOL0     H54106   6.093   7.055  10.138 -0.8933 -2.4643  0.7454
  401MOL0     H54107   6.397   7.130  10.177  0.7469  3.1084  0.8092
  401MOL0     H54108   6.320   7.059  10.025 -0.5016 -1.5542  1.6925
  401MOL0     H54109   6.372   7.320  10.045 -0.1490  3.7668  2.5652
  401MOL0     H54110   6.261   7.318  10.180  1.2157 -2.2994  1.5887
  401MOL0     H54111   6.171   7.254   9.895  1.2873  1.7015 -0.4865
  401MOL0     H54112   6.058   7.271  10.039 -2.9360  2.8198 -3.1158
  401MOL0     H54113   6.241   7.471   9.892  0.1642 -1.7527 -1.4834
  401MOL0     H54114   6.139   7.521  10.031 -0.5321 -0.3584  1.2823
  401MOL0     H54115   6.035   7.589   9.838  1.9268  0.7019  3.1759
  401MOL0     H54116   5.935   7.458   9.907  0.0220 -0.8613  0.2852
  401MOL0     H54117   5.860   6.675  10.192 -1.3280  0.6558 -1.5304
  401MOL0     H54118   5.668   6.559  10.257  0.4884 -2.2199  2.8602
  401MOL0     H54119   5.279   6.596  10.436  0.2257 -0.4292 -1.6408
  401MOL0     H54120   5.049   6.533  10.499 -1.5916 -2.5041 -0.3681
  401MOL0     H54121   4.562   5.745  10.680  0.4182 -0.5031  0.3345
  401MOL0     H54122   4.801   5.811  10.655 -3.1793 -0.9795  1.3850
  401MOL0     H54123   5.263   5.720  10.688  1.4820 -1.2718 -0.6399
  401MOL0     H54124   5.470   5.834  10.663  0.3087  0.6818 -1.0364
  401MOL0     H54125   5.605   5.981  10.618 -3.8437 -1.4915 -0.9666
  401MOL0     H54126   5.715   5.846  10.573 -1.6004 -1.7193 -0.6843
  401MOL0     H54127   5.710   6.135  10.527 -2.6481 -1.4632 -1.6188
  401MOL0     H54128   5.737   6.065  10.379 -4.1806  1.8817  0.6499
  401MOL0     H54129   5.903   5.972  10.620  2.6311 -2.2686 -1.6165
  401MOL0     H54130   5.937   6.126  10.576  0.9128 -0.4526  0.7996
  401MOL0     H54131   5.958   5.874  10.377  1.2816 -0.7385  0.0968
  401MOL0     H54132   6.069   5.922  10.506 -0.5544  0.2698  1.0380
  401MOL0     H54133   6.169   6.211  10.207 -0.2500  2.3751  2.1109
  401MOL0     H54134   5.385   5.913  10.256  1.1040 -0.5398  1.5163
  401MOL0     H54135   5.153   5.836  10.287  0.8994 -0.9100 -0.2829
  402MOL0     O54136   4.205   5.104   9.948  0.2700 -0.3412  0.5582
  402MOL0     C54137   4.234   4.989   9.906 -0.5578 -0.7560 -0.8974
  402MOL0     O54138   4.154   4.888   9.882 -0.1866 -0.1062  0.0459
  402MOL0     C54139   4.022   4.910   9.875  0.5247 -0.0247 -0.4633
  402MOL0     C54140   3.972   5.019   9.808  0.5087 -0.9946  0.0269
  402MOL0     C54141   3.831   5.022   9.790  0.1085 -0.6538 -0.7079
  402MOL0     C54142   3.747   4.938   9.862 -0.1078  0.0624 -0.8312
  402MOL0     O54143   3.611   4.951   9.840 -0.0620  0.9335 -0.0059
  402MOL0     C54144   3.534   4.830   9.868  0.0142  0.7357 -0.6595
  402MOL0     C54145   3.388   4.833   9.823 -0.1847 -1.1465  0.0502
  402MOL0     C54146   3.298   4.736   9.893  0.5749  0.6454  0.2122
  402MOL0     C54147   3.160   4.752   9.834  0.4539  0.3855  0.4147
  402MOL0     C54148   3.059   4.660   9.904 -1.1722 -0.6144 -0.4705
  402MOL0     C54149   2.918   4.683   9.856 -0.0255  0.3617  0.5635
  402MOL0     C54150   2.817   4.652   9.972 -0.7253 -0.5968  0.7240
  402MOL0     C54151   2.685   4.626   9.908  0.4243  0.3290  0.6215
  402MOL0     N54152   2.582   4.597  10.008  0.5825  0.2337  0.7426
  402MOL0     C54153   2.450   4.569   9.980  0.8765 -0.3546 -0.6082
  402MOL0     C54154   2.396   4.543  10.102  0.1641  0.0850  0.4391
  402MOL0     C54155   2.267   4.484  10.132  1.3579  0.1684  0.2076
  402MOL0     C54156   2.159   4.580  10.076 -0.5746 -0.6602 -0.0537
  402MOL0     C54157   2.159   4.718  10.152  0.1187 -0.2478  1.1138
  402MOL0     C54158   2.020   4.778  10.140  0.3245  0.1889  0.2366
  402MOL0     O54159   2.025   4.881  10.243 -0.3211 -1.1880  0.2469
  402MOL0     C54160   1.915   4.934  10.296  0.3240  0.0357 -0.3635
  402MOL0     C54161   1.931   5.055  10.370  0.2986 -0.4735  0.0358
  402MOL0     C54162   1.821   5.134  10.415  0.6972  0.3231 -0.4823
  402MOL0     C54163   1.845   5.274  10.458  0.1055  0.0265 -0.2053
  402MOL0     C54164   1.686   5.078  10.403 -0.6539 -1.1145  0.2309
  402MOL0     C54165   1.560   5.140  10.446 -0.3836 -0.0066  0.7794
  402MOL0     O54166   1.559   5.269  10.505 -0.4542  0.6549  0.0487
  402MOL0     C54167   1.434   5.312  10.545  0.8522 -0.2301 -0.3809
  402MOL0     C54168   1.340   5.233  10.623 -0.2714 -0.3079  0.6085
  402MOL0     C54169   1.217   5.294  10.651  0.1592 -0.5760 -0.3732
  402MOL0     C54170   1.193   5.432  10.617  0.0910  0.2591 -0.6959
  402MOL0     O54171   1.074   5.491  10.653  0.2394  0.7368  0.1296
  402MOL0     C54172   1.038   5.484  10.797  1.0682  0.6485  0.5396
  402MOL0     C54173   1.057   5.615  10.866 -0.5365 -0.0122  0.2585
  402MOL0     C54174   1.202   5.647  10.921  0.0337  0.2349 -0.1776
  402MOL0     C54175   1.198   5.772  11.021  0.1032  0.2522  0.2722
  402MOL0     C54176   1.331   5.804  11.080  0.7684 -0.0010 -0.1895
  402MOL0     C54177   1.314   5.897  11.207  0.1725 -0.2334 -0.6119
  402MOL0     C54178   1.453   5.941  11.254  0.4399 -0.0550 -0.8944
  402MOL0     C54179   1.519   6.042  11.163  0.7829 -0.7376  0.6330
  402MOL0    Cl54180   1.406   6.183  11.145 -0.4142 -0.0183  0.2958
  402MOL0     C54181   1.283   5.499  10.533  0.3698  0.4097  0.3681
  402MOL0     C54182   1.400   5.440  10.500 -0.1580 -0.5566 -0.2830
  402MOL0     O54183   1.456   5.082  10.406 -0.1110  0.3198 -0.0795
  402MOL0     C54184   1.677   4.952  10.334  0.2470 -0.8444 -0.4293
  402MOL0     C54185   1.788   4.884  10.281  0.5797  0.8233 -0.5223
  402MOL0     N54186   2.499   4.551  10.199  0.1508 -0.1997  0.5573
  402MOL0     N54187   2.605   4.587  10.140  0.5961  0.1871 -0.0949
  402MOL0     C54188   3.805   4.833   9.944  0.0034  0.1676  1.4189
  402MOL0     C54189   3.942   4.819   9.944 -0.2932 -0.1505  0.0678
  402MOL0     C54190   4.375   4.954   9.887  0.2506  0.4627  0.2121
  402MOL0     C54191   4.419   4.827   9.832 -0.2070 -0.8119 -0.4713
  402MOL0     C54192   4.554   4.800   9.816  0.2000 -0.0867 -0.6648
  402MOL0     C54193   4.652   4.898   9.842  0.7524 -0.3041  0.3043
  402MOL0     O54194   4.778   4.885   9.811 -0.5358  0.3351 -0.1362
  402MOL0     C54195   4.824   4.790   9.714 -0.5991 -0.3472 -0.3061
  402MOL0     C54196   4.968   4.827   9.672 -0.4625 -0.1315  0.0155
  402MOL0     C54197   4.986   4.973   9.635  0.4900  0.2026 -0.0776
  402MOL0     C54198   5.122   4.996   9.574  0.3113  0.0256  0.1601
  402MOL0     C54199   5.212   5.004   9.690  1.4804  0.7854 -0.2868
  402MOL0     C54200   5.306   5.018   9.767 -0.1985 -0.2571  0.1454
  402MOL0     C54201   4.609   5.020   9.894 -0.7094 -0.0496 -0.2259
  402MOL0     C54202   4.474   5.046   9.928  0.2187  0.3749  0.3327
  402MOL0     H54203   4.034   5.078   9.742 -0.7409 -0.2139 -0.4954
  402MOL0     H54204   3.791   5.095   9.721  3.3134  3.0405  0.9529
  402MOL0     H54205   3.578   4.739   9.825  0.7329  2.0176 -2.8401
  402MOL0     H54206   3.536   4.816   9.976 -0.0058  2.3144 -0.4325
  402MOL0     H54207   3.344   4.933   9.828  0.3111 -0.9686  1.0300
  402MOL0     H54208   3.386   4.820   9.714  0.5456  1.4633 -0.3313
  402MOL0     H54209   3.337   4.635   9.878  1.7356  1.2435 -1.0364
  402MOL0     H54210   3.290   4.761   9.999 -1.4504 -0.9594  0.4979
  402MOL0     H54211   3.123   4.854   9.844 -2.5512 -0.5980  0.1981
  402MOL0     H54212   3.167   4.714   9.732  0.0905  0.3550  0.3990
  402MOL0     H54213   3.090   4.555   9.903 -4.5534 -1.7536  0.3035
  402MOL0     H54214   3.076   4.684  10.010 -2.0505  0.2601 -0.5203
  402MOL0     H54215   2.905   4.790   9.835 -3.8200 -0.4734 -2.5177
  402MOL0     H54216   2.893   4.641   9.759  0.6885  1.8471 -0.2976
  402MOL0     H54217   2.852   4.557  10.012  0.7010 -1.0707 -1.5090
  402MOL0     H54218   2.821   4.728  10.051  3.8501  0.6405 -0.4009
  402MOL0     H54219   2.697   4.541   9.840  0.4392 -0.2741  1.3612
  402MOL0     H54220   2.656   4.711   9.846 -2.1620 -2.2944 -2.1482
  402MOL0     H54221   2.392   4.578   9.888  1.3146 -0.2947 -0.8807
  402MOL0     H54222   2.263   4.384  10.087 -1.8811  0.0869  0.4565
  402MOL0     H54223   2.248   4.472  10.239 -3.2874 -1.6529 -0.5664
  402MOL0     H54224   2.069   4.522  10.099 -0.5316 -1.6953 -2.2029
  402MOL0     H54225   2.154   4.601   9.969 -1.9461 -0.7287 -0.0167
  402MOL0     H54226   2.228   4.789  10.106 -2.0813  0.5182 -1.2279
  402MOL0     H54227   2.172   4.711  10.261  2.2099  0.4935  0.9695
  402MOL0     H54228   1.944   4.704  10.167  1.2481 -0.1920  1.9248
  402MOL0     H54229   2.001   4.817  10.040  0.6337 -3.5604 -1.4715
  402MOL0     H54230   2.030   5.089  10.398  0.6029 -1.0565 -0.2884
  402MOL0     H54231   1.939   5.310  10.417  0.5699 -0.4415  0.4285
  402MOL0     H54232   1.770   5.342  10.417 -0.9284  1.0609  3.0459
  402MOL0     H54233   1.831   5.289  10.566  0.5015 -0.7622 -0.0312
  402MOL0     H54234   1.363   5.129  10.644 -4.7217 -1.7727 -0.7808
  402MOL0     H54235   1.142   5.238  10.705  0.2666 -1.0252 -0.6800
  402MOL0     H54236   0.931   5.464  10.800  1.3186 -0.9817  0.0384
  402MOL0     H54237   1.081   5.405  10.860 -2.5586 -0.7851  1.4761
  402MOL0     H54238   1.028   5.693  10.795 -0.0119  0.4299  0.5272
  402MOL0     H54239   0.991   5.622  10.953 -0.2948 -3.3348  0.8179
  402MOL0     H54240   1.260   5.662  10.830 -0.8004 -0.7788 -0.9037
  402MOL0     H54241   1.242   5.563  10.979  0.2614 -0.3710 -1.1914
  402MOL0     H54242   1.152   5.861  10.977  0.7227 -0.0201 -0.9797
  402MOL0     H54243   1.136   5.753  11.109 -1.3408 -0.0493 -0.7796
  402MOL0     H54244   1.385   5.848  10.995  3.0356 -1.9684  0.1127
  402MOL0     H54245   1.376   5.707  11.106 -1.2344 -0.7068  0.8511
  402MOL0     H54246   1.256   5.986  11.180 -0.5601 -0.7318 -0.7138
  402MOL0     H54247   1.262   5.841  11.284  0.4655  0.8671  0.4221
  402MOL0     H54248   1.522   5.857  11.248  0.1089 -0.3017 -1.3084
  402MOL0     H54249   1.453   5.976  11.357  3.8207  0.0681 -0.8107
  402MOL0     H54250   1.536   5.995  11.065 -3.0293 -3.0294  0.8804
  402MOL0     H54251   1.610   6.078  11.212  0.4742  0.5004  0.3424
  402MOL0     H54252   1.249   5.596  10.496 -3.1407 -1.8037 -3.0346
  402MOL0     H54253   1.471   5.493  10.437  2.4501 -2.8925  0.4892
  402MOL0     H54254   1.578   4.913  10.311 -0.5670  1.0507 -0.3941
  402MOL0     H54255   1.766   4.796  10.222 -1.9225  0.1912  1.1934
  402MOL0     H54256   3.741   4.775  10.010 -1.1470  0.7225  0.8385
  402MOL0     H54257   3.998   4.740   9.993  1.4506  0.9628 -0.0173
  402MOL0     H54258   4.354   4.748   9.796 -1.3585 -1.0877  1.9906
  402MOL0     H54259   4.584   4.706   9.771 -0.8384 -0.0301 -1.5419
  402MOL0     H54260   4.823   4.687   9.750  0.8978 -0.2951 -0.0493
  402MOL0     H54261   4.765   4.777   9.623 -0.4765 -0.3910 -0.3791
  402MOL0     H54262   4.992   4.758   9.591  0.4454 -0.4428  0.5325
  402MOL0     H54263   5.035   4.812   9.758  0.8455  1.7133 -0.6063
  402MOL0     H54264   4.974   5.035   9.724 -0.2389 -0.0220 -0.0054
  402MOL0     H54265   4.913   5.002   9.558  0.4545 -3.5264 -1.6475
  402MOL0     H54266   5.124   5.082   9.506 -0.2242 -0.7114 -0.8097
  402MOL0     H54267   5.146   4.907   9.515 -0.7252 -0.2964  0.2132
  402MOL0     H54268   5.388   5.031   9.834 -1.4059 -1.1149  1.8750
  402MOL0     H54269   4.687   5.093   9.918  1.2999 -2.2988  0.5741
  402MOL0     H54270   4.445   5.137   9.980 -0.0671 -0.2049  1.2159
  403MOL0     O54271   1.645   1.100   7.449 -0.4064 -0.4162 -0.3813
  403MOL0     C54272   1.588   1.040   7.541 -0.6518 -0.0505  0.8238
  403MOL0     O54273   1.638   1.022   7.665  0.9662  0.7753 -0.1028
  403MOL0     C54274   1.746   1.100   7.701 -1.0486  0.0201 -1.4139
  403MOL0     C54275   1.842   1.030   7.777  0.1263  0.4721  0.3136
  403MOL0     C54276   1.964   1.083   7.814 -0.4989 -1.6202 -0.3962
  403MOL0     C54277   1.987   1.220   7.788  0.0452 -0.2339 -0.5963
  403MOL0     O54278   2.099   1.281   7.835 -0.1421 -0.8353 -0.5780
  403MOL0     C54279   2.179   1.349   7.747 -0.4659 -0.8023 -0.1191
  403MOL0     C54280   2.321   1.352   7.787 -0.1153 -0.4323 -0.2192
  403MOL0     C54281   2.392   1.221   7.802 -0.4753  0.6296 -0.3562
  403MOL0     C54282   2.536   1.242   7.876  1.1302 -0.0076  0.4285
  403MOL0     C54283   2.599   1.108   7.899 -0.1468  0.1081  0.1085
  403MOL0     C54284   2.744   1.097   7.854  0.2640 -0.6118  1.0082
  403MOL0     C54285   2.789   0.949   7.882  0.0444  0.5420  0.1928
  403MOL0     C54286   2.945   0.940   7.887  0.6106 -0.6776 -0.6576
  403MOL0     N54287   3.010   1.002   8.010  0.6036 -0.2886  0.3015
  403MOL0     C54288   3.022   0.931   8.128  0.1610 -0.4354  0.1567
  403MOL0     C54289   3.090   1.017   8.210  0.7742 -0.8487  0.1396
  403MOL0     C54290   3.134   0.995   8.359 -0.5394  0.0257 -0.0429
  403MOL0     C54291   3.207   1.110   8.420 -0.7942 -0.5742  0.4209
  403MOL0     C54292   3.275   1.083   8.551  0.0131  0.7599 -0.6355
  403MOL0     C54293   3.170   1.040   8.665 -0.7324 -0.0762 -0.0259
  403MOL0     O54294   3.048   1.111   8.641  0.1635 -0.8690 -0.1804
  403MOL0     C54295   2.943   1.089   8.722 -0.2856 -0.0643 -0.3757
  403MOL0     C54296   2.952   1.004   8.831 -0.2380 -0.2920  0.8628
  403MOL0     C54297   2.835   0.978   8.906  0.0312  1.7937 -0.2333
  403MOL0     C54298   2.844   0.852   8.994 -0.2786  0.5642  0.1166
  403MOL0     C54299   2.709   1.041   8.890  0.8635 -0.6053  0.6036
  403MOL0     C54300   2.589   1.016   8.973  0.8173 -0.3281  0.0755
  403MOL0     O54301   2.480   1.088   8.943  0.2008 -0.1376  0.2418
  403MOL0     C54302   2.363   1.042   8.998  0.2482 -0.2748  0.1869
  403MOL0     C54303   2.296   0.934   8.928 -0.8698 -0.9816 -0.3671
  403MOL0     C54304   2.160   0.904   8.957 -0.4366  0.8200 -0.1832
  403MOL0     C54305   2.096   0.966   9.063 -0.4069  0.3046 -0.4652
  403MOL0     O54306   1.969   0.946   9.101  0.1470 -0.7740  0.5466
  403MOL0     C54307   1.932   0.818   9.160  0.9207  0.0224  0.5612
  403MOL0     C54308   1.998   0.798   9.296  0.7694  0.3495  0.8058
  403MOL0     C54309   1.912   0.845   9.410 -0.3350  0.2025  0.3543
  403MOL0     C54310   1.807   0.741   9.434  0.1158  0.3951  0.1933
  403MOL0     C54311   1.732   0.773   9.559  0.3011  0.8184 -0.3716
  403MOL0     C54312   1.598   0.699   9.556 -0.1456  0.5567  0.3433
  403MOL0     C54313   1.634   0.557   9.595 -0.7164  0.4597 -0.1697
  403MOL0     C54314   1.525   0.464   9.537  0.5655 -0.8470 -0.1264
  403MOL0    Cl54315   1.379   0.489   9.640 -0.2493 -0.4969  0.2029
  403MOL0     C54316   2.162   1.064   9.130  0.8486  0.0039  0.0512
  403MOL0     C54317   2.291   1.106   9.096 -0.2757 -0.9908 -0.0627
  403MOL0     O54318   2.592   0.935   9.064  0.7816 -0.7636  0.4106
  403MOL0     C54319   2.711   1.137   8.781  0.4360 -0.7762  0.2044
  403MOL0     C54320   2.823   1.160   8.697  0.1171  0.7243 -0.4691
  403MOL0     N54321   3.120   1.131   8.130  0.1813  0.5134  0.4318
  403MOL0     N54322   3.074   1.121   8.017 -0.5698 -0.0972  0.4324
  403MOL0     C54323   1.893   1.293   7.716  0.2601  0.7046 -0.1548
  403MOL0     C54324   1.781   1.232   7.667  0.4126 -0.2352  0.6295
  403MOL0     C54325   1.449   0.981   7.511  0.2491 -0.5392 -0.6135
  403MOL0     C54326   1.390   0.884   7.595 -0.2211  0.2686 -0.8052
  403MOL0     C54327   1.258   0.843   7.581 -0.0158  0.0855  0.9080
  403MOL0     C54328   1.172   0.901   7.481  0.3517 -1.0076  0.4743
  403MOL0     O54329   1.051   0.864   7.448  0.9376 -0.2924  0.0792
  403MOL0     C54330   1.004   0.737   7.496  0.3652 -0.1539 -0.0795
  403MOL0     C54331   0.868   0.708   7.444  0.3378 -0.3618  0.3819
  403MOL0     C54332   0.760   0.791   7.505  0.3017 -0.4836 -0.4848
  403MOL0     C54333   0.622   0.782   7.443  0.5186  0.2224  0.2833
  403MOL0     C54334   0.560   0.657   7.492 -0.1010 -0.2209  0.0939
  403MOL0     C54335   0.515   0.553   7.523 -0.2082 -0.2048 -0.0824
  403MOL0     C54336   1.232   0.990   7.392  0.1021 -0.1999 -0.4389
  403MOL0     C54337   1.368   1.033   7.409  0.5846 -0.4635 -1.0932
  403MOL0     H54338   1.815   0.927   7.800 -1.4592  1.2680  2.3935
  403MOL0     H54339   2.038   1.030   7.873  1.7235  0.1500 -1.4606
  403MOL0     H54340   2.167   1.299   7.650  2.4679 -0.8651 -0.5217
  403MOL0     H54341   2.140   1.449   7.725 -0.6262 -1.3162 -2.5250
  403MOL0     H54342   2.372   1.404   7.705 -1.0265  1.8710  0.6051
  403MOL0     H54343   2.320   1.410   7.880  0.0411 -0.3236 -0.2839
  403MOL0     H54344   2.343   1.147   7.867  1.0841 -0.4641 -0.3648
  403MOL0     H54345   2.394   1.179   7.701 -0.2171  0.4820 -0.2902
  403MOL0     H54346   2.579   1.310   7.801 -2.2008 -0.8815 -2.5288
  403MOL0     H54347   2.528   1.307   7.963 -0.7282  0.2147  0.1363
  403MOL0     H54348   2.597   1.069   8.001 -0.1654 -3.8438 -1.2326
  403MOL0     H54349   2.535   1.042   7.840 -0.5596  1.1924 -0.6824
  403MOL0     H54350   2.741   1.107   7.745 -1.8167  0.2620  1.0923
  403MOL0     H54351   2.813   1.169   7.898 -0.7278 -0.1935  1.9079
  403MOL0     H54352   2.746   0.916   7.977 -0.7414 -0.1095 -0.3687
  403MOL0     H54353   2.754   0.881   7.804 -1.1581 -1.2855  2.2201
  403MOL0     H54354   2.987   0.991   7.800  3.5902 -2.5227 -0.4341
  403MOL0     H54355   2.958   0.832   7.877 -0.2376 -0.6945 -1.7837
  403MOL0     H54356   2.980   0.832   8.142 -1.8353  0.3982  0.3693
  403MOL0     H54357   3.035   0.997   8.404  0.2081  1.6645  1.6451
  403MOL0     H54358   3.188   0.900   8.364 -1.0553 -0.1981  2.4121
  403MOL0     H54359   3.133   1.190   8.430 -0.1090  0.2745 -0.9930
  403MOL0     H54360   3.286   1.147   8.354  0.2747 -0.3572  1.7780
  403MOL0     H54361   3.325   1.168   8.596  2.0740 -1.1084  0.7970
  403MOL0     H54362   3.351   1.005   8.538 -1.4330 -2.4640  5.9005
  403MOL0     H54363   3.209   1.058   8.765 -2.4216 -2.5957  1.1818
  403MOL0     H54364   3.154   0.932   8.658 -0.4992 -0.1818  0.9943
  403MOL0     H54365   3.042   0.947   8.849 -0.3649 -1.0744 -0.8047
  403MOL0     H54366   2.817   0.877   9.098  2.5218  0.6368  0.9036
  403MOL0     H54367   2.787   0.764   8.964  0.6422 -0.0462  0.1376
  403MOL0     H54368   2.945   0.811   8.994 -0.8696 -0.9444  0.0451
  403MOL0     H54369   2.340   0.892   8.838 -0.8389  0.9512 -1.3063
  403MOL0     H54370   2.105   0.823   8.910 -1.5731  0.2424  1.9927
  403MOL0     H54371   1.824   0.810   9.175  0.6533  0.9981 -0.7243
  403MOL0     H54372   1.962   0.743   9.087  0.8518 -0.4607  1.0251
  403MOL0     H54373   2.016   0.690   9.292  1.2142  0.4338 -2.5637
  403MOL0     H54374   2.098   0.843   9.290  1.4038 -1.1796 -0.6852
  403MOL0     H54375   1.867   0.944   9.397 -2.8692 -0.8686  0.5507
  403MOL0     H54376   1.974   0.851   9.500  0.4277  1.6887 -0.2302
  403MOL0     H54377   1.733   0.752   9.354  3.2531  1.7169 -2.7702
  403MOL0     H54378   1.854   0.642   9.437  1.9076  1.1261 -1.6271
  403MOL0     H54379   1.717   0.881   9.566  1.5809  0.9694  0.5073
  403MOL0     H54380   1.802   0.750   9.640 -0.1614 -2.5155 -0.7823
  403MOL0     H54381   1.540   0.747   9.635  1.2483  2.8277  0.1017
  403MOL0     H54382   1.549   0.717   9.460  1.4246  0.7142 -0.4753
  403MOL0     H54383   1.629   0.551   9.704 -0.5423 -0.2443 -0.1961
  403MOL0     H54384   1.734   0.530   9.561 -0.3287 -1.4687  2.2222
  403MOL0     H54385   1.561   0.361   9.535 -0.3149 -1.1563 -1.2533
  403MOL0     H54386   1.498   0.480   9.432  1.5165  1.5792 -0.0683
  403MOL0     H54387   2.095   1.102   9.207 -0.1350  0.1361 -0.8416
  403MOL0     H54388   2.340   1.179   9.160 -0.0569 -0.2056 -1.0954
  403MOL0     H54389   2.622   1.192   8.753  0.9084 -0.7784 -1.3611
  403MOL0     H54390   2.825   1.229   8.614  4.3515  0.7658 -0.5349
  403MOL0     H54391   1.920   1.394   7.686 -0.4134  1.5720  2.0171
  403MOL0     H54392   1.718   1.290   7.601 -1.4035 -1.1863  1.4505
  403MOL0     H54393   1.452   0.831   7.667 -1.1400 -1.4155 -1.2171
  403MOL0     H54394   1.214   0.766   7.644 -1.4000 -0.0376 -0.1437
  403MOL0     H54395   1.071   0.657   7.465 -0.0059 -0.0270 -1.2620
  403MOL0     H54396   1.002   0.743   7.605  0.0134 -3.0837  0.1623
  403MOL0     H54397   0.852   0.603   7.470 -0.7597 -0.1308  0.6952
  403MOL0     H54398   0.864   0.736   7.338  2.5182  0.8432  0.5648
  403MOL0     H54399   0.779   0.899   7.507 -1.6162 -0.1146 -0.1609
  403MOL0     H54400   0.753   0.763   7.610 -1.6235  5.0761  1.2330
  403MOL0     H54401   0.633   0.768   7.336  0.3443  0.1153  0.2791
  403MOL0     H54402   0.556   0.869   7.450  0.1478  0.9623 -6.4873
  403MOL0     H54403   0.459   0.464   7.544 -1.1963  0.5012  0.3667
  403MOL0     H54404   1.174   1.042   7.316 -2.4042 -0.7684  0.9767
  403MOL0     H54405   1.391   1.114   7.340 -1.2308  0.8991 -0.1946
  404MOL0     O54406   7.913  10.179   0.123 -0.2665  0.0488 -0.3876
  404MOL0     C54407   7.937  10.190   0.243  0.9053  0.1991 -0.1241
  404MOL0     O54408   7.842  10.180   0.334  0.0312 -0.2452  0.4329
  404MOL0     C54409   7.732  10.101   0.308 -0.1023  0.2935 -0.2665
  404MOL0     C54410   7.732   9.985   0.224  0.1549  0.1717  0.1772
  404MOL0     C54411   7.620   9.905   0.198 -0.0894 -0.8134 -1.1374
  404MOL0     C54412   7.498   9.942   0.262  0.0538  0.0436 -0.1547
  404MOL0     O54413   7.388   9.854   0.241  0.3809  0.0305 -0.4781
  404MOL0     C54414   7.261   9.867   0.315 -0.6152 -0.6214  0.5277
  404MOL0     C54415   7.153   9.808   0.222 -0.0957  0.1221  0.5322
  404MOL0     C54416   7.150   9.866   0.076  0.2268  0.9533  0.3621
  404MOL0     C54417   7.026   9.805   0.012 -0.6144 -0.3880 -0.2494
  404MOL0     C54418   7.033   9.800  -0.146 -0.1795 -0.9996  0.7090
  404MOL0     C54419   6.895   9.771  -0.214 -0.4923 -0.7949  1.1596
  404MOL0     C54420   6.778   9.876  -0.189  0.0510  0.6388 -0.0694
  404MOL0     C54421   6.675   9.816  -0.094 -0.2257  0.5103  1.6009
  404MOL0     N54422   6.711   9.819   0.051  0.0346  0.2705 -0.3734
  404MOL0     C54423   6.704   9.714   0.135  0.1552  0.5550 -0.5380
  404MOL0     C54424   6.678   9.756   0.264 -0.5698  0.6523  0.0121
  404MOL0     C54425   6.661   9.665   0.386  0.0801  0.1657 -0.4741
  404MOL0     C54426   6.523   9.617   0.396 -0.0793  0.1923  0.4290
  404MOL0     C54427   6.444   9.709   0.485 -0.3688  0.4552 -0.3108
  404MOL0     C54428   6.304   9.648   0.503  0.1877  0.3061 -0.1566
  404MOL0     O54429   6.236   9.740   0.588 -0.1796  0.2746 -0.2613
  404MOL0     C54430   6.110   9.708   0.628 -0.5682 -0.1041  0.4548
  404MOL0     C54431   6.037   9.806   0.701  0.5564 -0.0714 -0.6870
  404MOL0     C54432   5.902   9.787   0.745 -0.1266  0.3079  0.4326
  404MOL0     C54433   5.847   9.899   0.830 -0.3940  0.0038 -0.2402
  404MOL0     C54434   5.837   9.670   0.713  0.5781  0.7109  0.1475
  404MOL0     C54435   5.698   9.646   0.755  1.1719  1.0634 -0.0647
  404MOL0     O54436   5.618   9.733   0.821 -0.9712 -0.6445 -0.0961
  404MOL0     C54437   5.511   9.706   0.898  0.3864  0.7585 -0.1691
  404MOL0     C54438   5.404   9.619   0.860  0.4130 -0.2399  0.6560
  404MOL0     C54439   5.286   9.600   0.935 -0.0465  0.0917  0.0622
  404MOL0     C54440   5.261   9.673   1.050  0.4261  0.6356  0.5436
  404MOL0     O54441   5.140   9.647   1.113 -0.2811 -0.3181 -0.1320
  404MOL0     C54442   5.114   9.718   1.231  0.2284  0.4635  0.3867
  404MOL0     C54443   4.961   9.698   1.262 -0.5973  0.1361 -0.0832
  404MOL0     C54444   4.870   9.777   1.168  0.2592 -0.0365  0.5425
  404MOL0     C54445   4.754   9.682   1.130 -1.1506  0.4358  0.1773
  404MOL0     C54446   4.664   9.761   1.030  1.0520 -0.4532 -0.3635
  404MOL0     C54447   4.520   9.713   1.023 -0.5003 -0.5247  0.0775
  404MOL0     C54448   4.510   9.577   0.957  0.3016 -0.1421 -0.8086
  404MOL0     C54449   4.371   9.550   0.911 -0.3563 -1.8692  0.1585
  404MOL0    Cl54450   4.279   9.567   1.058 -0.3918  0.2310 -0.4395
  404MOL0     C54451   5.372   9.753   1.089 -0.5450  0.6007  0.1593
  404MOL0     C54452   5.489   9.776   1.019 -0.3214  0.8894 -0.0776
  404MOL0     O54453   5.653   9.533   0.731  0.4044  0.0384  0.7603
  404MOL0     C54454   5.915   9.570   0.646 -0.5776  0.9255  0.7533
  404MOL0     C54455   6.044   9.591   0.602  0.0574 -0.1272 -0.4089
  404MOL0     N54456   6.666   9.893   0.257  0.1118  0.7943  0.0607
  404MOL0     N54457   6.682   9.926   0.129  0.1952  0.8919 -1.0846
  404MOL0     C54458   7.494  10.053   0.348 -0.0337  0.4242  0.4090
  404MOL0     C54459   7.612  10.133   0.366  0.1018 -0.4920 -0.0719
  404MOL0     C54460   8.072  10.222   0.291  0.4363 -0.7345  0.4098
  404MOL0     C54461   8.174  10.250   0.198  1.2798  0.2197  0.4625
  404MOL0     C54462   8.294  10.298   0.240  0.4672  0.5569 -0.1260
  404MOL0     C54463   8.333  10.294   0.370 -0.6225  0.2865  0.2057
  404MOL0     O54464   8.465  10.311   0.403  0.4012  0.1122 -0.3145
  404MOL0     C54465   8.568  10.314   0.308  0.4015  0.3230  0.7657
  404MOL0     C54466   8.694  10.331   0.388 -0.5719 -0.2408  0.7779
  404MOL0     C54467   8.709  10.466   0.461  0.5272  0.0115 -0.1260
  404MOL0     C54468   8.832  10.476   0.545  0.1341 -0.3841 -0.6162
  404MOL0     C54469   8.938  10.520   0.459  0.4429  0.1836 -0.3976
  404MOL0     C54470   9.020  10.568   0.386 -0.4116 -0.3860 -0.9714
  404MOL0     C54471   8.237  10.257   0.465  0.2747 -0.0818 -0.6643
  404MOL0     C54472   8.106  10.222   0.425 -0.0750 -0.4953 -0.5546
  404MOL0     H54473   7.830   9.949   0.194  0.3131 -1.0310  1.9687
  404MOL0     H54474   7.607   9.816   0.137 -2.1478 -0.0133 -1.9670
  404MOL0     H54475   7.274   9.815   0.410 -0.2001 -1.2173  0.1498
  404MOL0     H54476   7.241   9.973   0.335  2.6885  1.0752 -3.5326
  404MOL0     H54477   7.142   9.699   0.218  0.7905 -0.0015  1.2117
  404MOL0     H54478   7.064   9.835   0.280  0.9823  1.8535  1.4490
  404MOL0     H54479   7.149   9.975   0.081 -0.1301  0.8882  2.9237
  404MOL0     H54480   7.241   9.837   0.021  1.0091 -1.6016  2.7274
  404MOL0     H54481   7.012   9.704   0.052 -0.6943  1.0707  3.7880
  404MOL0     H54482   6.943   9.865   0.051 -1.7563 -2.5062  0.7840
  404MOL0     H54483   7.069   9.896  -0.183 -0.3112 -1.5891 -1.0470
  404MOL0     H54484   7.106   9.723  -0.173 -0.3676 -1.7624  2.2472
  404MOL0     H54485   6.898   9.765  -0.323 -0.9955  1.8020  0.9316
  404MOL0     H54486   6.869   9.676  -0.167  1.3332 -1.2686  1.2844
  404MOL0     H54487   6.804   9.973  -0.145 -2.9816  0.7294  1.8572
  404MOL0     H54488   6.719   9.904  -0.276  0.1284 -0.1422 -0.3801
  404MOL0     H54489   6.664   9.713  -0.129  1.7608  0.7790  0.0084
  404MOL0     H54490   6.584   9.874  -0.109  0.3005  1.9976  3.7718
  404MOL0     H54491   6.698   9.611   0.102 -1.8981 -0.8782  3.6636
  404MOL0     H54492   6.737   9.586   0.387  0.4365  0.4760 -1.6113
  404MOL0     H54493   6.686   9.722   0.476 -2.7128 -1.9484  1.8142
  404MOL0     H54494   6.522   9.515   0.435 -0.8283 -0.4135 -1.0670
  404MOL0     H54495   6.468   9.617   0.301 -0.4874 -3.6563  0.4984
  404MOL0     H54496   6.443   9.807   0.437 -0.7493 -0.0718 -1.4009
  404MOL0     H54497   6.489   9.715   0.585 -1.5182  0.8922  0.1954
  404MOL0     H54498   6.310   9.548   0.548  0.8224  0.3586 -0.1086
  404MOL0     H54499   6.251   9.633   0.409  0.3687  0.6135 -0.3099
  404MOL0     H54500   6.084   9.902   0.719 -0.1053  0.2723 -0.7658
  404MOL0     H54501   5.755   9.922   0.775 -1.7495  0.3939  2.0497
  404MOL0     H54502   5.816   9.868   0.930  0.7608  1.2550  0.5463
  404MOL0     H54503   5.915   9.983   0.846 -1.2925  0.6250  0.3844
  404MOL0     H54504   5.417   9.559   0.770 -0.0459  0.1081  0.3520
  404MOL0     H54505   5.213   9.523   0.910 -2.1112  2.7629 -2.8046
  404MOL0     H54506   5.168   9.658   1.306 -0.2802 -2.6295 -1.5375
  404MOL0     H54507   5.145   9.822   1.217  0.4951  0.4598  0.9272
  404MOL0     H54508   4.939   9.592   1.272  0.8480  0.0134  2.5755
  404MOL0     H54509   4.948   9.737   1.363  1.3261 -0.4166  0.4155
  404MOL0     H54510   4.920   9.819   1.080 -1.7337  0.5890 -0.3436
  404MOL0     H54511   4.829   9.862   1.223  0.5390 -0.4782  1.4442
  404MOL0     H54512   4.800   9.596   1.081 -5.0599 -1.7656  0.0166
  404MOL0     H54513   4.697   9.652   1.218 -1.1912  2.3963  0.8706
  404MOL0     H54514   4.704   9.757   0.929  1.4711 -1.8674 -0.1611
  404MOL0     H54515   4.658   9.866   1.062 -0.5304 -0.3920 -0.7680
  404MOL0     H54516   4.479   9.712   1.124 -0.4072  3.9821  0.3442
  404MOL0     H54517   4.478   9.785   0.953 -0.6806  0.3915  1.1115
  404MOL0     H54518   4.527   9.499   1.032 -2.1518  1.1351  1.2625
  404MOL0     H54519   4.592   9.571   0.885  0.4628 -0.8642 -0.5684
  404MOL0     H54520   4.360   9.454   0.861  1.5993 -0.5508 -3.1310
  404MOL0     H54521   4.345   9.630   0.841 -1.6932  0.2281  2.8416
  404MOL0     H54522   5.362   9.795   1.189  0.1480 -1.4417  1.1444
  404MOL0     H54523   5.573   9.827   1.064 -0.6129  0.3028  1.1812
  404MOL0     H54524   5.877   9.469   0.634  0.1962  0.5133  1.6964
  404MOL0     H54525   6.104   9.511   0.559 -1.1759 -0.6037 -1.2966
  404MOL0     H54526   7.406  10.093   0.397  0.3114 -0.1565  1.5436
  404MOL0     H54527   7.592  10.209   0.441 -1.3077  0.8085 -1.6927
  404MOL0     H54528   8.156  10.253   0.092  2.8563 -0.8972  0.1199
  404MOL0     H54529   8.366  10.311   0.160  0.0472 -1.1718 -0.8176
  404MOL0     H54530   8.571  10.215   0.261 -1.1555  0.9518 -0.7659
  404MOL0     H54531   8.554  10.396   0.237 -1.1457  0.7160  1.4717
  404MOL0     H54532   8.770  10.331   0.309 -2.5635  1.7759 -1.3080
  404MOL0     H54533   8.703  10.257   0.468 -0.9684  0.1207  1.1660
  404MOL0     H54534   8.630  10.479   0.535  0.7130 -0.8273  0.2301
  404MOL0     H54535   8.693  10.553   0.396 -1.6080  0.4708  0.8973
  404MOL0     H54536   8.855  10.383   0.598 -0.1965 -0.8968 -1.3582
  404MOL0     H54537   8.812  10.549   0.625 -0.0358 -1.2209  0.1246
  404MOL0     H54538   9.094  10.612   0.321  1.7658 -0.5183  1.2512
  404MOL0     H54539   8.265  10.243   0.569 -1.5978 -0.6812 -0.2100
  404MOL0     H54540   8.042  10.183   0.504  1.2740 -1.8443 -0.0823
  405MOL0     O54541   9.863   1.144   1.630  0.1003 -0.1622 -0.4589
  405MOL0     C54542   9.901   1.172   1.743 -0.7566 -0.3469  0.2462
  405MOL0     O54543   9.828   1.247   1.841  0.5927  1.3930  0.2586
  405MOL0     C54544   9.721   1.319   1.805 -0.4171  0.5579 -0.0122
  405MOL0     C54545   9.727   1.412   1.695  0.1234  0.1412  0.7853
  405MOL0     C54546   9.624   1.505   1.666  0.3576 -0.2137 -0.3923
  405MOL0     C54547   9.510   1.511   1.759 -0.5937  0.1579 -0.1652
  405MOL0     O54548   9.417   1.607   1.730  0.1039  0.2824  0.0505
  405MOL0     C54549   9.307   1.642   1.824 -1.1427 -1.5918  1.1100
  405MOL0     C54550   9.194   1.709   1.741 -0.7131 -0.1668 -0.0718
  405MOL0     C54551   9.244   1.847   1.689 -0.6899  1.0272  0.2116
  405MOL0     C54552   9.150   1.918   1.588  0.1543  0.0717 -0.2849
  405MOL0     C54553   9.206   2.058   1.532 -0.5878  0.0070  0.8939
  405MOL0     C54554   9.104   2.108   1.420  0.9763  0.0849 -0.0415
  405MOL0     C54555   8.980   2.190   1.476 -0.3021  0.2263  0.5061
  405MOL0     C54556   8.879   2.236   1.359  0.1688 -0.2675 -0.1678
  405MOL0     N54557   8.947   2.282   1.232  0.5051  1.1993 -0.2312
  405MOL0     C54558   8.994   2.191   1.138 -1.1707  0.0968 -0.6877
  405MOL0     C54559   9.025   2.265   1.034 -0.0014 -0.4038 -0.0830
  405MOL0     C54560   9.087   2.218   0.905 -0.3780  0.3914 -0.5879
  405MOL0     C54561   8.993   2.213   0.790  0.0295 -0.1533  0.8863
  405MOL0     C54562   9.077   2.166   0.656  0.3121 -1.0938 -0.2598
  405MOL0     C54563   9.061   2.012   0.628 -0.1351  0.1124  0.5827
  405MOL0     O54564   9.128   1.962   0.512 -0.7714  0.2927 -1.3936
  405MOL0     C54565   9.077   1.993   0.387 -0.2251 -0.8361 -0.8208
  405MOL0     C54566   9.170   1.965   0.287 -0.0104  0.3308  0.0482
  405MOL0     C54567   9.144   1.986   0.151  0.4147 -0.0058 -0.0675
  405MOL0     C54568   9.257   1.951   0.057  0.2785 -1.4056  0.3043
  405MOL0     C54569   9.015   2.020   0.113  0.5915 -1.5841  0.3065
  405MOL0     C54570   8.976   2.041  -0.028 -0.1878  0.5334  0.0330
  405MOL0     O54571   8.841   2.039  -0.048 -0.0045 -0.2921 -0.7823
  405MOL0     C54572   8.787   2.058  -0.173  0.3954  0.0363 -0.5943
  405MOL0     C54573   8.669   2.121  -0.181  0.2266 -0.1810 -0.0850
  405MOL0     C54574   8.598   2.140  -0.296  0.0577 -0.0771 -0.6171
  405MOL0     C54575   8.640   2.077  -0.417  0.1582  0.1336 -0.8653
  405MOL0     O54576   8.555   2.086  -0.523 -0.0191 -0.4636  0.0803
  405MOL0     C54577   8.510   2.211  -0.563 -0.7305  0.0439 -0.3632
  405MOL0     C54578   8.626   2.313  -0.578 -0.6203  0.4779 -0.1040
  405MOL0     C54579   8.562   2.447  -0.609  1.4425 -0.1274 -0.9345
  405MOL0     C54580   8.660   2.561  -0.581 -0.1777  0.3337  0.2733
  405MOL0     C54581   8.591   2.694  -0.602  0.2262  0.5193  0.6908
  405MOL0     C54582   8.687   2.806  -0.578  1.1162  0.1377 -0.5289
  405MOL0     C54583   8.616   2.946  -0.551  0.0653 -0.1955 -0.5044
  405MOL0     C54584   8.534   2.996  -0.668  0.1536  0.5763 -0.2351
  405MOL0    Cl54585   8.495   3.169  -0.624 -0.4891  0.2795  0.1204
  405MOL0     C54586   8.758   2.002  -0.417 -0.1859 -0.2166 -0.1531
  405MOL0     C54587   8.832   1.993  -0.292  1.1709  0.1227 -1.0232
  405MOL0     O54588   9.060   2.063  -0.115  0.4344 -0.1929 -0.2160
  405MOL0     C54589   8.920   2.038   0.217 -0.3165 -0.1103 -0.0690
  405MOL0     C54590   8.946   2.030   0.352  0.2255 -0.0487  0.5925
  405MOL0     N54591   9.008   2.399   1.067 -0.6295 -0.2263 -1.0413
  405MOL0     N54592   8.947   2.411   1.182  0.1862  0.1945  0.4216
  405MOL0     C54593   9.504   1.423   1.865 -0.4052  0.0258 -0.0196
  405MOL0     C54594   9.607   1.329   1.886 -0.0614  0.1680 -0.2296
  405MOL0     C54595  10.034   1.109   1.780  0.2795  0.1230  0.8400
  405MOL0     C54596  10.103   1.013   1.700 -0.4862 -0.0023 -1.1659
  405MOL0     C54597  10.216   0.947   1.740 -0.6907 -0.0315 -0.4427
  405MOL0     C54598  10.284   0.979   1.862  0.4765 -0.1950  0.4358
  405MOL0     O54599  10.408   0.930   1.892  0.5002  0.7001 -0.4042
  405MOL0     C54600  10.438   0.927   2.035 -0.2009 -0.0617 -0.1803
  405MOL0     C54601  10.570   0.850   2.061 -0.2278 -0.1593  0.1710
  405MOL0     C54602  10.677   0.894   1.953 -0.0785 -0.1982 -0.0923
  405MOL0     C54603  10.719   1.041   1.955 -0.5742 -1.1546 -0.1787
  405MOL0     C54604  10.786   1.074   2.083  0.0619  0.2732 -0.2021
  405MOL0     C54605  10.835   1.098   2.196 -0.0933 -0.4653 -0.3170
  405MOL0     C54606  10.223   1.074   1.936 -0.1016 -0.3051  0.5938
  405MOL0     C54607  10.100   1.140   1.905  0.3136  0.3075  0.3125
  405MOL0     H54608   9.812   1.443   1.635  2.4539  0.1360  3.8423
  405MOL0     H54609   9.634   1.571   1.581  1.4167 -1.0324 -0.9254
  405MOL0     H54610   9.262   1.552   1.867 -1.6115 -3.0619 -2.1810
  405MOL0     H54611   9.353   1.687   1.913  1.2348 -4.9117  1.7641
  405MOL0     H54612   9.159   1.646   1.659 -0.0740 -1.4929  0.6405
  405MOL0     H54613   9.108   1.723   1.807 -1.2993 -1.4004 -0.5446
  405MOL0     H54614   9.253   1.909   1.779 -0.8832  0.5404  0.5701
  405MOL0     H54615   9.345   1.845   1.647 -0.7111 -0.6967  0.1924
  405MOL0     H54616   9.142   1.839   1.513 -0.3397 -2.3826  2.1826
  405MOL0     H54617   9.050   1.926   1.633 -0.7535 -1.3059 -1.9018
  405MOL0     H54618   9.223   2.131   1.611  0.0535  0.0036  0.7604
  405MOL0     H54619   9.298   2.034   1.478 -1.6031 -1.4693 -0.2989
  405MOL0     H54620   9.162   2.169   1.350  0.1270  0.4702 -0.4190
  405MOL0     H54621   9.069   2.024   1.358  0.4897 -1.2119  1.8845
  405MOL0     H54622   8.922   2.125   1.543 -1.0830  0.1364 -0.2459
  405MOL0     H54623   9.025   2.277   1.526  0.4015  0.1104  0.0857
  405MOL0     H54624   8.811   2.315   1.393  2.0715  1.7512 -0.8325
  405MOL0     H54625   8.813   2.150   1.340 -0.1094  0.2096 -1.4929
  405MOL0     H54626   9.005   2.083   1.138  1.2675  0.2870  0.5134
  405MOL0     H54627   9.171   2.285   0.883  1.1758 -1.2107  0.2493
  405MOL0     H54628   9.135   2.121   0.922  2.5654  1.9337  0.6225
  405MOL0     H54629   8.950   2.313   0.777  0.2284  0.1440  2.3417
  405MOL0     H54630   8.910   2.145   0.813  0.8316 -0.7576  2.1203
  405MOL0     H54631   9.179   2.202   0.669  0.5081 -1.7843  0.1276
  405MOL0     H54632   9.040   2.215   0.565  2.3186 -0.6797 -0.9034
  405MOL0     H54633   8.954   1.992   0.634 -0.2376  0.2009 -0.6688
  405MOL0     H54634   9.102   1.954   0.712  0.5332 -1.6414 -0.8833
  405MOL0     H54635   9.272   1.936   0.313 -0.8346 -2.7928  0.1429
  405MOL0     H54636   9.349   1.923   0.110 -0.9681 -0.6119  3.0201
  405MOL0     H54637   9.238   1.878  -0.022 -0.6727 -0.9743  0.1195
  405MOL0     H54638   9.280   2.044   0.003  0.1638 -1.9011 -0.6198
  405MOL0     H54639   8.629   2.160  -0.088 -2.5426 -2.0294 -0.3508
  405MOL0     H54640   8.504   2.194  -0.296  1.3446  2.3584  1.4022
  405MOL0     H54641   8.467   2.202  -0.664 -2.5529  2.2104  0.1587
  405MOL0     H54642   8.437   2.247  -0.490  0.1863  2.8458 -0.7049
  405MOL0     H54643   8.689   2.312  -0.488 -1.3573 -1.5052  0.4582
  405MOL0     H54644   8.687   2.286  -0.665 -1.2305 -0.9052 -0.1371
  405MOL0     H54645   8.481   2.459  -0.536  1.8497  0.6337 -0.5928
  405MOL0     H54646   8.533   2.445  -0.715 -0.0308 -2.7020 -0.5705
  405MOL0     H54647   8.680   2.566  -0.474 -1.9599  2.1210  0.5783
  405MOL0     H54648   8.748   2.559  -0.646 -1.4988  0.1920 -1.5779
  405MOL0     H54649   8.505   2.696  -0.535 -2.1362 -1.2204 -2.0563
  405MOL0     H54650   8.545   2.694  -0.701  1.9414  0.0966 -0.1499
  405MOL0     H54651   8.750   2.790  -0.489 -0.8830  2.7707  1.5260
  405MOL0     H54652   8.749   2.814  -0.668  3.0319 -1.1743  0.6109
  405MOL0     H54653   8.679   3.033  -0.532 -0.9446  0.5723 -0.5886
  405MOL0     H54654   8.562   2.929  -0.457 -0.7321 -3.3278 -1.4116
  405MOL0     H54655   8.438   2.944  -0.677  0.9000 -1.1466  1.1646
  405MOL0     H54656   8.583   2.992  -0.765 -0.3315  1.5546 -0.5378
  405MOL0     H54657   8.778   1.951  -0.510  0.8453  1.0490 -0.6665
  405MOL0     H54658   8.927   1.940  -0.290  1.5158  0.6519  2.9440
  405MOL0     H54659   8.816   2.053   0.190 -1.2383 -3.4845  1.0516
  405MOL0     H54660   8.864   2.025   0.423 -1.3131  2.3369 -0.8916
  405MOL0     H54661   9.423   1.434   1.937  1.2979 -1.3336  2.2462
  405MOL0     H54662   9.599   1.265   1.974 -0.6112  0.9412  0.3003
  405MOL0     H54663  10.054   0.977   1.610  0.2600 -0.7608 -1.2748
  405MOL0     H54664  10.258   0.875   1.670  4.1041  1.9474  0.0315
  405MOL0     H54665  10.460   1.024   2.080  0.0696  0.4371 -1.3309
  405MOL0     H54666  10.366   0.874   2.098  0.5514 -1.5119 -0.4718
  405MOL0     H54667  10.561   0.742   2.047  0.0842 -0.1155 -0.3724
  405MOL0     H54668  10.609   0.868   2.162  1.9812  0.2018 -0.6857
  405MOL0     H54669  10.645   0.862   1.854 -2.6930  0.6047  0.3980
  405MOL0     H54670  10.766   0.835   1.976 -1.0560 -1.2289  1.2418
  405MOL0     H54671  10.632   1.102   1.929  1.1630  1.1519 -0.9629
  405MOL0     H54672  10.792   1.072   1.879  1.1790  0.0072  1.8940
  405MOL0     H54673  10.869   1.120   2.295 -0.3057 -2.4641  0.2410
  405MOL0     H54674  10.270   1.106   2.028  0.4603  1.6588 -0.3103
  405MOL0     H54675  10.054   1.213   1.971 -1.5744 -2.8003  2.7458
  406MOL0     O54676   5.835  10.740   9.071  0.0819 -0.1779  0.1494
  406MOL0     C54677   5.873  10.637   9.126 -0.2527 -0.2320 -0.5313
  406MOL0     O54678   5.798  10.565   9.220 -0.3596 -0.8206  0.3463
  406MOL0     C54679   5.665  10.593   9.262 -0.2125 -0.0849  0.1506
  406MOL0     C54680   5.566  10.654   9.179  0.6039  0.4998 -0.1873
  406MOL0     C54681   5.438  10.679   9.232 -0.0902 -0.1655  0.6131
  406MOL0     C54682   5.403  10.649   9.364 -0.2844  0.6304 -0.4488
  406MOL0     O54683   5.282  10.677   9.417  0.4189  0.2757  0.1619
  406MOL0     C54684   5.246  10.606   9.538  0.2200  0.3753 -0.6762
  406MOL0     C54685   5.095  10.618   9.564  0.0359 -0.4356  0.6870
  406MOL0     C54686   5.013  10.546   9.455 -0.2902 -0.6492 -0.2570
  406MOL0     C54687   4.887  10.631   9.412 -0.4373 -0.2700 -0.1904
  406MOL0     C54688   4.792  10.627   9.542 -0.3704  0.1272 -0.1562
  406MOL0     C54689   4.664  10.715   9.507  0.0796  0.1316 -0.7045
  406MOL0     C54690   4.589  10.689   9.372  0.7926  0.6686 -1.3101
  406MOL0     C54691   4.552  10.539   9.351  0.1774  0.7929  0.2334
  406MOL0     N54692   4.462  10.494   9.458  0.7257  0.5553  0.3950
  406MOL0     C54693   4.357  10.568   9.497  0.6898 -0.0639 -0.1597
  406MOL0     C54694   4.323  10.502   9.611 -0.4461 -1.0607  0.4446
  406MOL0     C54695   4.199  10.519   9.700 -0.8883 -0.5226  0.7043
  406MOL0     C54696   4.134  10.652   9.683  0.0894  0.5221 -0.7455
  406MOL0     C54697   4.019  10.678   9.790 -0.4493  0.0722 -0.3909
  406MOL0     C54698   3.947  10.801   9.738  0.6413 -0.3278 -0.7304
  406MOL0     O54699   3.881  10.845   9.852 -0.0350  0.1768 -0.0072
  406MOL0     C54700   3.767  10.915   9.837 -0.1861 -0.3819  0.7253
  406MOL0     C54701   3.749  11.033   9.914  0.2522  0.6353 -0.1042
  406MOL0     C54702   3.635  11.109   9.932 -1.3974 -0.6561  0.0080
  406MOL0     C54703   3.627  11.217  10.047 -0.1897  0.0580  0.2021
  406MOL0     C54704   3.526  11.078   9.843  0.2089  1.0181 -0.2567
  406MOL0     C54705   3.394  11.148   9.850 -0.5147  1.1391 -0.3205
  406MOL0     O54706   3.357  11.216   9.970 -0.3269  0.0757  0.5650
  406MOL0     C54707   3.224  11.216   9.999  0.2951  0.5210  0.4687
  406MOL0     C54708   3.132  11.116   9.971  0.3055  0.4665  0.4823
  406MOL0     C54709   2.995  11.137   9.995  0.7189 -0.4278  0.0247
  406MOL0     C54710   2.956  11.256  10.052  0.0249  0.1357 -0.9494
  406MOL0     O54711   2.819  11.259  10.087 -1.0125  0.2168  0.1463
  406MOL0     C54712   2.759  11.388  10.097  0.0563 -0.7323  0.1745
  406MOL0     C54713   2.602  11.395  10.127  0.2278 -0.5541 -0.7955
  406MOL0     C54714   2.548  11.266  10.194  0.5995  0.6612 -0.2421
  406MOL0     C54715   2.414  11.274  10.275  0.1751 -1.0828 -0.8256
  406MOL0     C54716   2.280  11.297  10.198 -0.3211 -0.3254  0.2597
  406MOL0     C54717   2.159  11.327  10.293 -0.8762  0.6553  0.3592
  406MOL0     C54718   2.106  11.204  10.365  0.1560  0.3015 -0.5260
  406MOL0     C54719   1.992  11.240  10.463  0.0584 -0.3870 -1.0500
  406MOL0    Cl54720   1.884  11.099  10.477 -0.0955  0.1448  0.1285
  406MOL0     C54721   3.045  11.358  10.067  0.0984  0.2202 -0.1743
  406MOL0     C54722   3.184  11.337  10.045 -0.3815  0.5094 -0.0557
  406MOL0     O54723   3.327  11.145   9.751  0.7841  0.2235 -0.0697
  406MOL0     C54724   3.544  10.974   9.746  0.0580 -0.4302 -0.2787
  406MOL0     C54725   3.655  10.892   9.750  0.4131  0.0944 -0.6757
  406MOL0     N54726   4.406  10.393   9.641  0.2436 -0.8427 -0.3925
  406MOL0     N54727   4.488  10.393   9.549 -0.7286 -0.8025 -0.2110
  406MOL0     C54728   5.507  10.582   9.444 -0.2955  0.3992 -0.3389
  406MOL0     C54729   5.631  10.560   9.394 -0.9938  0.5232 -0.0094
  406MOL0     C54730   6.006  10.591   9.114 -0.4550 -1.1106  0.1303
  406MOL0     C54731   6.061  10.483   9.178 -0.4860  0.6461 -0.4729
  406MOL0     C54732   6.196  10.440   9.154  0.4076  0.6140 -0.1537
  406MOL0     C54733   6.273  10.510   9.062  0.3970  1.1641  0.0202
  406MOL0     O54734   6.406  10.480   9.021  0.3307 -0.2491 -0.1661
  406MOL0     C54735   6.482  10.376   9.083 -0.9249  0.3510  0.0423
  406MOL0     C54736   6.632  10.385   9.044  0.1656  0.1740  0.8398
  406MOL0     C54737   6.698  10.495   9.119  0.1143 -0.0194  0.5716
  406MOL0     C54738   6.833  10.546   9.050  0.4227  0.3587  0.4426
  406MOL0     C54739   6.950  10.450   9.039  0.9302 -0.2276 -0.2099
  406MOL0     C54740   7.048  10.373   9.033  0.3704 -0.7522 -0.1156
  406MOL0     C54741   6.217  10.619   9.002 -0.7736  0.4838  0.2094
  406MOL0     C54742   6.088  10.659   9.022  0.6191 -0.2795  0.2631
  406MOL0     H54743   5.584  10.690   9.079  1.2933 -0.1425 -0.3061
  406MOL0     H54744   5.366  10.726   9.165  2.9550  1.9257 -1.4481
  406MOL0     H54745   5.272  10.500   9.537  2.8471  0.9518 -2.2216
  406MOL0     H54746   5.302  10.657   9.617 -1.1132  2.1801 -0.8412
  406MOL0     H54747   5.076  10.583   9.666  1.4266  2.3204  2.0018
  406MOL0     H54748   5.063  10.722   9.560  1.3083 -0.0736 -1.1355
  406MOL0     H54749   5.077  10.519   9.370  2.1346 -0.1402  1.2889
  406MOL0     H54750   4.988  10.448   9.495 -2.7357  0.2243  0.4801
  406MOL0     H54751   4.915  10.734   9.387 -0.4565  0.0371  0.9845
  406MOL0     H54752   4.858  10.579   9.321  0.7880 -2.6641  0.6916
  406MOL0     H54753   4.750  10.526   9.555 -1.3089  0.1560 -2.4755
  406MOL0     H54754   4.838  10.665   9.634 -2.3838 -3.8856  2.8556
  406MOL0     H54755   4.595  10.708   9.591  0.1249  1.6904 -0.4994
  406MOL0     H54756   4.695  10.820   9.507  3.2657 -0.6802 -2.2216
  406MOL0     H54757   4.500  10.752   9.359  2.9028  3.3845 -3.9180
  406MOL0     H54758   4.657  10.704   9.289  0.1275  1.6668 -1.6956
  406MOL0     H54759   4.636  10.469   9.342 -0.3679  0.3664 -4.1410
  406MOL0     H54760   4.493  10.543   9.259  0.0923  1.7706  0.3169
  406MOL0     H54761   4.323  10.664   9.461 -0.8686  0.5682  2.6507
  406MOL0     H54762   4.127  10.440   9.676 -1.7445  0.6198 -0.6563
  406MOL0     H54763   4.229  10.510   9.805  0.1455  1.1938  0.5971
  406MOL0     H54764   4.102  10.641   9.579  0.1914 -1.2868 -0.6267
  406MOL0     H54765   4.215  10.724   9.698  1.3623 -1.1123  0.6967
  406MOL0     H54766   4.063  10.680   9.891 -2.3461 -1.4283  0.5190
  406MOL0     H54767   3.943  10.600   9.796 -1.8905  1.4030 -0.8994
  406MOL0     H54768   3.881  10.778   9.654 -1.7125 -0.0631  0.9612
  406MOL0     H54769   4.021  10.877   9.710 -0.1999  2.1302  2.9402
  406MOL0     H54770   3.833  11.055   9.978  1.1072  1.9970 -1.6158
  406MOL0     H54771   3.587  11.311  10.009  0.3728  2.1320  4.2686
  406MOL0     H54772   3.567  11.191  10.134  2.8287 -3.6261  1.4854
  406MOL0     H54773   3.726  11.239  10.089  0.7264 -4.3132  0.8024
  406MOL0     H54774   3.165  11.022   9.928 -2.4933 -0.4649  0.1728
  406MOL0     H54775   2.915  11.066   9.977 -2.3964  3.2233 -1.7141
  406MOL0     H54776   2.808  11.439  10.180  1.0055 -0.0142 -0.7957
  406MOL0     H54777   2.776  11.450  10.007  0.6850  1.4355  1.7030
  406MOL0     H54778   2.583  11.471  10.203 -1.1365 -0.4345 -1.2376
  406MOL0     H54779   2.551  11.416  10.033  0.4945  0.7744 -0.6588
  406MOL0     H54780   2.619  11.233  10.270  0.0911 -0.9392 -0.4152
  406MOL0     H54781   2.530  11.185  10.123 -2.9396  1.9218 -1.0328
  406MOL0     H54782   2.404  11.183  10.335 -0.5113 -0.8774 -0.6190
  406MOL0     H54783   2.427  11.351  10.352 -0.8915  0.9900 -2.6184
  406MOL0     H54784   2.261  11.209  10.137  1.3890 -0.5600  0.0134
  406MOL0     H54785   2.292  11.387  10.136 -0.5729  0.4229  1.2730
  406MOL0     H54786   2.196  11.394  10.372  0.2548  0.0609  0.3574
  406MOL0     H54787   2.076  11.374  10.240 -0.5134  1.9718  0.8997
  406MOL0     H54788   2.188  11.166  10.427 -1.0544  0.5018  1.2795
  406MOL0     H54789   2.073  11.128  10.294 -1.8546 -2.1820  2.7667
  406MOL0     H54790   1.937  11.329  10.429 -2.4911  0.1260  3.6293
  406MOL0     H54791   2.030  11.267  10.561  0.7674 -1.3763 -1.0394
  406MOL0     H54792   3.007  11.450  10.109 -0.1109 -0.0300  0.1951
  406MOL0     H54793   3.245  11.419  10.081  1.8881 -1.6694  1.3614
  406MOL0     H54794   3.465  10.955   9.674 -1.3242  0.0758  1.0449
  406MOL0     H54795   3.659  10.806   9.684  1.7983  0.0888 -0.6240
  406MOL0     H54796   5.484  10.546   9.544  0.9551  1.7561  0.4828
  406MOL0     H54797   5.706  10.512   9.456 -0.0431 -1.4126 -2.4723
  406MOL0     H54798   6.014  10.429   9.260  1.9239  0.1258  0.6628
  406MOL0     H54799   6.234  10.368   9.226 -2.7823 -0.3084  0.7812
  406MOL0     H54800   6.460  10.367   9.190 -1.3935 -0.7846 -0.1379
  406MOL0     H54801   6.452  10.276   9.049 -0.2899 -0.7175  2.4156
  406MOL0     H54802   6.640  10.406   8.937  0.8689  0.3888  0.9327
  406MOL0     H54803   6.685  10.292   9.068  1.4711  0.9617  1.1039
  406MOL0     H54804   6.701  10.458   9.222 -1.8654  0.1777  0.7434
  406MOL0     H54805   6.631  10.582   9.113  1.4042  0.9050 -1.6744
  406MOL0     H54806   6.867  10.640   9.096 -2.6180  2.2927 -0.8748
  406MOL0     H54807   6.809  10.564   8.945  1.9741 -2.5192 -0.4832
  406MOL0     H54808   7.139  10.328   8.999 -1.0662 -1.6654 -3.2086
  406MOL0     H54809   6.282  10.667   8.929  1.2468  0.7700  2.1011
  406MOL0     H54810   6.054  10.739   8.957  3.3443 -1.1150 -2.3777
  407MOL0     O54811   0.380   8.056   9.419 -0.9426  0.2273  0.0696
  407MOL0     C54812   0.414   8.006   9.304  1.2050 -0.3196 -1.0894
  407MOL0     O54813   0.330   7.977   9.203  0.0340 -0.3078 -0.0714
  407MOL0     C54814   0.198   8.016   9.200  0.7923  0.4028 -0.3241
  407MOL0     C54815   0.140   8.113   9.280  0.1690  0.5922 -0.8664
  407MOL0     C54816   0.000   8.142   9.278 -1.1181  0.0876  0.6028
  407MOL0     C54817  -0.084   8.075   9.190 -0.5143 -0.0614 -0.4489
  407MOL0     O54818  -0.207   8.114   9.170  0.2388 -0.6848  0.3235
  407MOL0     C54819  -0.306   8.011   9.189  0.6195  0.5053  0.8478
  407MOL0     C54820  -0.321   7.942   9.328  0.4002  0.5719  0.4802
  407MOL0     C54821  -0.464   7.917   9.357  0.1613  0.7134 -0.3441
  407MOL0     C54822  -0.525   7.796   9.282 -0.3970 -0.2651  0.4101
  407MOL0     C54823  -0.674   7.774   9.280 -0.1960  0.4525  0.5237
  407MOL0     C54824  -0.752   7.742   9.409 -0.6061  0.1989  0.3732
  407MOL0     C54825  -0.692   7.602   9.456  0.9333  0.2068 -0.3381
  407MOL0     C54826  -0.756   7.574   9.596 -0.3535  0.2267 -0.4634
  407MOL0     N54827  -0.687   7.650   9.699  0.0184 -0.1851  0.5379
  407MOL0     C54828  -0.730   7.776   9.746 -0.5106  0.5369  0.4276
  407MOL0     C54829  -0.619   7.815   9.813  1.1582 -0.5064 -0.2044
  407MOL0     C54830  -0.609   7.940   9.892  0.9156 -0.1087 -0.3956
  407MOL0     C54831  -0.499   8.023   9.831  1.4417 -0.0292  0.8165
  407MOL0     C54832  -0.512   8.171   9.886  0.5494 -0.3491  0.2790
  407MOL0     C54833  -0.496   8.280   9.778 -0.0030  0.1358 -0.1517
  407MOL0     O54834  -0.365   8.254   9.714  0.0557  0.6846  0.2637
  407MOL0     C54835  -0.248   8.309   9.756  0.4400 -0.0170  0.0341
  407MOL0     C54836  -0.138   8.309   9.669 -0.1047 -0.4477 -0.6485
  407MOL0     C54837  -0.025   8.382   9.706  0.3213  0.8710  0.7545
  407MOL0     C54838   0.088   8.390   9.604  0.0078  0.4645  0.3498
  407MOL0     C54839  -0.023   8.441   9.838 -0.0088 -0.5247  0.8814
  407MOL0     C54840   0.098   8.514   9.876  0.4894  0.0508 -1.4301
  407MOL0     O54841   0.221   8.446   9.865  1.2213  0.4544  0.4668
  407MOL0     C54842   0.333   8.519   9.843 -1.3639  0.2427  0.4095
  407MOL0     C54843   0.458   8.466   9.883  0.7008  0.6687  0.3261
  407MOL0     C54844   0.580   8.532   9.855  0.6081  0.2115  0.1501
  407MOL0     C54845   0.581   8.659   9.798 -0.2486  0.6252 -0.1110
  407MOL0     O54846   0.687   8.734   9.761 -0.5836  0.7384  0.6802
  407MOL0     C54847   0.825   8.683   9.765 -0.3370  0.3348 -0.7151
  407MOL0     C54848   0.888   8.713   9.908  1.3205 -0.4091  0.8549
  407MOL0     C54849   1.037   8.699   9.915 -0.0897 -0.2841  0.0850
  407MOL0     C54850   1.081   8.552   9.914  0.2481 -0.2606 -0.2296
  407MOL0     C54851   1.073   8.503  10.057  0.0514 -0.6513 -0.0822
  407MOL0     C54852   1.116   8.360  10.067  1.1217  0.6450  0.1316
  407MOL0     C54853   1.263   8.334  10.039 -0.1913 -0.3102  0.8778
  407MOL0     C54854   1.311   8.202  10.098 -0.0166 -0.3959 -0.3167
  407MOL0    Cl54855   1.489   8.196  10.052  0.3248 -0.0069  0.1342
  407MOL0     C54856   0.455   8.713   9.758 -0.3014  0.3419 -0.0766
  407MOL0     C54857   0.335   8.643   9.777 -0.1269 -0.2572  0.2324
  407MOL0     O54858   0.082   8.618   9.933 -0.2093 -0.4941  0.6026
  407MOL0     C54859  -0.125   8.430   9.928 -0.5786  1.6708  0.2173
  407MOL0     C54860  -0.236   8.365   9.885 -0.1676  0.7716 -0.7200
  407MOL0     N54861  -0.527   7.712   9.821 -0.1010 -0.0037  0.3643
  407MOL0     N54862  -0.566   7.617   9.747  0.5824  0.0171  0.1227
  407MOL0     C54863  -0.020   7.963   9.121  0.8348  0.4323 -0.3192
  407MOL0     C54864   0.114   7.936   9.123 -0.3318  0.2657 -0.6145
  407MOL0     C54865   0.552   7.956   9.298  0.1132 -0.1704 -0.3796
  407MOL0     C54866   0.650   7.995   9.395 -0.4550  0.6388 -0.6339
  407MOL0     C54867   0.776   7.946   9.386  0.4358  0.1133 -0.2281
  407MOL0     C54868   0.824   7.850   9.296 -0.1140 -0.5210  0.6990
  407MOL0     O54869   0.957   7.828   9.297 -0.4417  0.6534 -0.0607
  407MOL0     C54870   1.020   7.763   9.185 -1.3236  0.4753 -0.3710
  407MOL0     C54871   1.148   7.692   9.227  0.3193  0.0328 -0.0941
  407MOL0     C54872   1.131   7.547   9.285  0.6436 -0.1152  0.2725
  407MOL0     C54873   1.249   7.469   9.241  0.0210 -0.5776 -0.2349
  407MOL0     C54874   1.243   7.325   9.277 -0.2846 -0.2057 -0.3057
  407MOL0     C54875   1.228   7.215   9.313 -0.4265  0.3829  0.1056
  407MOL0     C54876   0.725   7.798   9.211  0.2510 -0.3305  0.6239
  407MOL0     C54877   0.590   7.848   9.214  0.2192 -0.1068 -0.1338
  407MOL0     H54878   0.197   8.172   9.352  2.0070 -5.0480  3.0848
  407MOL0     H54879  -0.028   8.240   9.315 -1.3618 -0.4274  1.8334
  407MOL0     H54880  -0.397   8.063   9.158 -2.1873 -2.0443  4.0982
  407MOL0     H54881  -0.305   7.930   9.115 -0.6322 -1.3317  2.7535
  407MOL0     H54882  -0.249   7.861   9.325 -1.1528 -0.8357 -0.2765
  407MOL0     H54883  -0.297   8.012   9.409 -0.0557 -0.2157  1.3238
  407MOL0     H54884  -0.476   7.886   9.462  0.7844 -1.8861 -0.9529
  407MOL0     H54885  -0.523   8.007   9.339 -3.8251 -1.8268 -1.2444
  407MOL0     H54886  -0.501   7.812   9.176 -0.7540 -3.5097 -0.2543
  407MOL0     H54887  -0.473   7.705   9.313  2.4807  0.7255 -1.1673
  407MOL0     H54888  -0.716   7.870   9.248 -1.2456  0.4516  1.7819
  407MOL0     H54889  -0.690   7.693   9.208  2.7394 -1.3824  1.7836
  407MOL0     H54890  -0.728   7.817   9.486 -2.0199  1.0161  0.0433
  407MOL0     H54891  -0.858   7.742   9.382 -0.7611 -0.4876  0.9504
  407MOL0     H54892  -0.720   7.516   9.394  0.4923  2.3545 -3.3597
  407MOL0     H54893  -0.586   7.613   9.482  0.8589  0.1838 -0.0258
  407MOL0     H54894  -0.751   7.468   9.622 -0.1301  0.5363  0.7972
  407MOL0     H54895  -0.861   7.602   9.594 -0.4728 -0.1444 -2.8509
  407MOL0     H54896  -0.826   7.822   9.725 -0.0426  1.8493  1.0309
  407MOL0     H54897  -0.705   7.992   9.885  1.2075  0.2320 -2.6522
  407MOL0     H54898  -0.596   7.914   9.998 -1.5279  0.1474  0.0291
  407MOL0     H54899  -0.512   8.020   9.723  1.2889 -0.8353  0.8514
  407MOL0     H54900  -0.395   7.993   9.843  1.9676  0.9268 -1.0878
  407MOL0     H54901  -0.436   8.174   9.965 -0.4815 -1.6872  1.3847
  407MOL0     H54902  -0.609   8.181   9.938  0.5023 -2.1911  0.5993
  407MOL0     H54903  -0.492   8.378   9.828  4.2994 -0.7103  1.6339
  407MOL0     H54904  -0.583   8.273   9.712  0.2465 -1.3771 -0.3480
  407MOL0     H54905  -0.146   8.279   9.565 -2.4005  1.9501 -1.2828
  407MOL0     H54906   0.176   8.441   9.644  1.9903 -1.2566 -1.5460
  407MOL0     H54907   0.125   8.289   9.586  2.7214  0.9973  2.2324
  407MOL0     H54908   0.049   8.426   9.508 -0.0532  0.5145  0.3937
  407MOL0     H54909   0.458   8.370   9.932  0.3747  1.2503  1.5165
  407MOL0     H54910   0.666   8.476   9.891  0.2350  0.7915  2.0390
  407MOL0     H54911   0.820   8.574   9.759 -0.6389  0.1899  1.4147
  407MOL0     H54912   0.887   8.727   9.687 -1.0700  0.7549 -1.0700
  407MOL0     H54913   0.870   8.814   9.946  1.2741 -0.5199  1.1283
  407MOL0     H54914   0.839   8.641   9.973  2.1031  0.3054  2.2857
  407MOL0     H54915   1.051   8.753  10.009 -3.2320 -0.7901  0.9765
  407MOL0     H54916   1.088   8.749   9.831 -0.9072  1.1050  0.3752
  407MOL0     H54917   1.010   8.502   9.848 -0.0049 -1.6641  1.0451
  407MOL0     H54918   1.177   8.531   9.866 -0.6943  0.6730 -2.6733
  407MOL0     H54919   0.967   8.510  10.085 -0.2731  0.9767 -1.5345
  407MOL0     H54920   1.131   8.566  10.125  0.8687 -0.3872 -1.0021
  407MOL0     H54921   1.099   8.337  10.173 -0.2681  0.5561 -0.0820
  407MOL0     H54922   1.043   8.296  10.016  1.7673 -1.0937  1.2960
  407MOL0     H54923   1.326   8.411  10.084 -2.6001  2.2359  0.1494
  407MOL0     H54924   1.287   8.328   9.933  5.0972  0.1262  1.7609
  407MOL0     H54925   1.255   8.115  10.061  1.6497 -1.8406  0.3890
  407MOL0     H54926   1.305   8.198  10.207 -2.3235 -0.7088 -0.4035
  407MOL0     H54927   0.452   8.803   9.697 -0.7240 -0.9612 -2.0564
  407MOL0     H54928   0.236   8.675   9.745 -0.6853 -1.4904  0.6928
  407MOL0     H54929  -0.108   8.466  10.030 -1.3727  0.9649  0.6117
  407MOL0     H54930  -0.318   8.364   9.956  1.1190  2.1259  0.8645
  407MOL0     H54931  -0.092   7.914   9.056  0.5127  2.7636 -1.8529
  407MOL0     H54932   0.153   7.849   9.070 -1.9440  0.2193 -1.7967
  407MOL0     H54933   0.641   8.066   9.476 -0.9548  0.9498 -0.9582
  407MOL0     H54934   0.855   7.983   9.451 -0.0364  0.6647  0.0404
  407MOL0     H54935   0.960   7.685   9.138 -3.5254  0.7725  1.7800
  407MOL0     H54936   1.048   7.838   9.110  0.0204  1.4257  1.0151
  407MOL0     H54937   1.199   7.747   9.307  0.5930 -1.9634  1.1671
  407MOL0     H54938   1.206   7.699   9.135 -0.7445  1.4022 -0.6998
  407MOL0     H54939   1.042   7.505   9.237  3.1271 -4.6130 -1.0597
  407MOL0     H54940   1.115   7.534   9.393 -1.1296 -0.3989  0.0014
  407MOL0     H54941   1.340   7.513   9.282 -0.1183 -0.6052  0.1066
  407MOL0     H54942   1.251   7.478   9.132  0.6678  1.6873 -0.0756
  407MOL0     H54943   1.218   7.111   9.337  0.2104 -0.2985 -2.2604
  407MOL0     H54944   0.748   7.715   9.146  1.4051  1.3718 -1.2339
  407MOL0     H54945   0.513   7.806   9.151 -1.6316 -2.8146  3.5203
  408MOL0     O54946   3.949   9.056   8.983  0.3483 -0.2763 -0.2435
  408MOL0     C54947   3.879   9.123   8.906  0.3139  0.1668  0.1289
  408MOL0     O54948   3.912   9.214   8.808  0.3407  0.0749  1.0052
  408MOL0     C54949   4.037   9.271   8.791 -0.0874  0.1205 -0.4050
  408MOL0     C54950   4.055   9.346   8.674 -1.1355  0.0682  1.2772
  408MOL0     C54951   4.189   9.408   8.660  0.1615  0.5465  1.1917
  408MOL0     C54952   4.288   9.398   8.754 -0.1602  0.5257  0.2444
  408MOL0     O54953   4.408   9.469   8.720  0.2197 -0.0481  0.3786
  408MOL0     C54954   4.532   9.416   8.771 -0.4352 -0.1467  1.3770
  408MOL0     C54955   4.650   9.524   8.775  0.3046  0.2484 -0.3365
  408MOL0     C54956   4.678   9.593   8.639 -0.1188 -0.3147 -0.3955
  408MOL0     C54957   4.822   9.638   8.626 -0.2305 -0.0901  0.5287
  408MOL0     C54958   4.903   9.546   8.537 -0.0162  0.4052 -0.3272
  408MOL0     C54959   5.047   9.574   8.563  0.5884 -0.6102  0.7269
  408MOL0     C54960   5.138   9.507   8.468  0.8387 -0.0534 -0.4340
  408MOL0     C54961   5.289   9.553   8.479 -0.7391  0.4568 -0.3002
  408MOL0     N54962   5.350   9.452   8.571 -0.0093 -0.2428  0.1992
  408MOL0     C54963   5.396   9.330   8.513 -0.5218 -0.5650 -0.6792
  408MOL0     C54964   5.472   9.272   8.607 -0.4161  0.3704  0.2893
  408MOL0     C54965   5.565   9.146   8.587  0.7887  0.6698 -0.1686
  408MOL0     C54966   5.531   9.061   8.460  0.1892  0.6270 -0.6083
  408MOL0     C54967   5.433   8.953   8.481 -0.3189 -1.4222 -0.0354
  408MOL0     C54968   5.293   8.996   8.535 -0.1877  0.0120  0.1600
  408MOL0     O54969   5.232   9.076   8.436  0.0184  0.0347 -0.4825
  408MOL0     C54970   5.102   9.106   8.459  0.4476 -0.0923 -0.0771
  408MOL0     C54971   5.035   9.138   8.339 -0.1993 -0.4369 -0.4553
  408MOL0     C54972   4.902   9.176   8.333 -0.2038  0.9576  0.3497
  408MOL0     C54973   4.839   9.207   8.195  0.8824 -0.4585 -0.0670
  408MOL0     C54974   4.827   9.194   8.445  0.1874 -0.0112 -0.4667
  408MOL0     C54975   4.685   9.235   8.445  0.6582 -0.5238  0.0516
  408MOL0     O54976   4.612   9.165   8.534  0.0065 -0.9562 -0.5555
  408MOL0     C54977   4.482   9.137   8.517 -1.0846  0.5730  0.1452
  408MOL0     C54978   4.410   9.153   8.396 -0.8707 -0.1028  0.5630
  408MOL0     C54979   4.275   9.114   8.388  0.0643  0.6747 -0.4120
  408MOL0     C54980   4.204   9.078   8.504  0.1163  0.5381  0.1636
  408MOL0     O54981   4.071   9.046   8.494  0.0170  0.3187 -0.5801
  408MOL0     C54982   4.015   8.931   8.558  0.6868  0.1768  0.0948
  408MOL0     C54983   3.859   8.932   8.518  0.0491 -0.0805 -0.5236
  408MOL0     C54984   3.784   8.837   8.618 -0.6073  0.4412 -0.2416
  408MOL0     C54985   3.643   8.854   8.586  0.0730 -0.5421 -0.7646
  408MOL0     C54986   3.542   8.769   8.665 -0.2586 -0.5640  0.7043
  408MOL0     C54987   3.401   8.776   8.613 -0.0041  0.0964 -0.7935
  408MOL0     C54988   3.312   8.660   8.659 -0.1098 -0.0113  0.3950
  408MOL0     C54989   3.354   8.515   8.617 -0.4376 -0.3319 -0.1540
  408MOL0    Cl54990   3.373   8.497   8.444  0.0363 -0.3187 -0.1152
  408MOL0     C54991   4.278   9.053   8.622  0.2389  0.0871  0.1852
  408MOL0     C54992   4.416   9.085   8.630 -0.4935  0.4990  0.6715
  408MOL0     O54993   4.644   9.330   8.374 -0.7682  0.1861 -0.1545
  408MOL0     C54994   4.890   9.158   8.569  0.2569 -0.6914 -0.8964
  408MOL0     C54995   5.027   9.114   8.569  0.3643  0.1857  0.4496
  408MOL0     N54996   5.450   9.342   8.723 -0.0767 -0.0334 -0.7078
  408MOL0     N54997   5.388   9.451   8.701  0.1455 -0.6583 -0.1497
  408MOL0     C54998   4.264   9.315   8.864 -0.4251 -0.1942 -0.1214
  408MOL0     C54999   4.144   9.250   8.883  0.4919  0.7313  0.9037
  408MOL0     C55000   3.722   9.106   8.923 -0.6517  0.1228  0.1891
  408MOL0     C55001   3.631   9.160   8.835  0.0150 -0.3567 -0.1778
  408MOL0     C55002   3.498   9.126   8.845  0.0571 -0.1451  0.3954
  408MOL0     C55003   3.451   9.030   8.932  0.3383 -0.1556 -0.9362
  408MOL0     O55004   3.318   9.010   8.923 -0.3518  0.3405 -0.2175
  408MOL0     C55005   3.280   8.885   8.992  0.0465 -0.1651 -0.1014
  408MOL0     C55006   3.141   8.855   8.951 -0.6608 -0.8278  0.2839
  408MOL0     C55007   3.086   8.738   9.029  0.1965 -0.5166 -0.4683
  408MOL0     C55008   2.953   8.695   8.963  0.7129 -0.0290 -0.0885
  408MOL0     C55009   2.877   8.579   9.029  0.5128  0.4155 -0.1752
  408MOL0     C55010   2.810   8.488   9.080 -0.6136 -0.3018 -0.5936
  408MOL0     C55011   3.542   8.976   9.023  0.3446 -0.2073 -0.0322
  408MOL0     C55012   3.676   9.013   9.016  0.3599  0.3421  0.8351
  408MOL0     H55013   3.971   9.347   8.606  0.4765 -0.5730 -0.8613
  408MOL0     H55014   4.197   9.470   8.571  1.6922 -1.5233 -0.2050
  408MOL0     H55015   4.523   9.378   8.873  2.4658 -0.9166  1.4353
  408MOL0     H55016   4.558   9.332   8.706 -0.2950 -0.5573  1.9599
  408MOL0     H55017   4.615   9.599   8.846 -1.8147 -1.0176  0.0623
  408MOL0     H55018   4.743   9.482   8.815 -0.0092  0.3417  0.5032
  408MOL0     H55019   4.647   9.523   8.561 -1.0328 -0.2209 -0.1241
  408MOL0     H55020   4.608   9.675   8.622  0.0830  0.2571  1.2851
  408MOL0     H55021   4.829   9.738   8.581 -0.2741 -0.3587 -0.0855
  408MOL0     H55022   4.866   9.650   8.725 -1.4976 -1.4102  1.2912
  408MOL0     H55023   4.887   9.444   8.573 -3.3121  1.4627  1.7452
  408MOL0     H55024   4.879   9.554   8.430  0.4713  0.4601 -0.4326
  408MOL0     H55025   5.066   9.682   8.560  0.9432 -0.6740  0.5515
  408MOL0     H55026   5.061   9.542   8.667 -2.9641 -3.3697  0.5238
  408MOL0     H55027   5.131   9.400   8.491  0.9206 -0.3987 -1.9590
  408MOL0     H55028   5.106   9.537   8.368  0.5361  3.3758  0.5851
  408MOL0     H55029   5.309   9.655   8.514  0.4818  0.6062 -1.3299
  408MOL0     H55030   5.327   9.552   8.376 -0.9220 -0.2033 -0.3657
  408MOL0     H55031   5.386   9.294   8.411 -0.7298 -0.6548 -0.6276
  408MOL0     H55032   5.667   9.181   8.569  0.0146  2.9702 -0.3649
  408MOL0     H55033   5.554   9.078   8.672 -1.4548 -0.5706 -1.3642
  408MOL0     H55034   5.624   9.022   8.418 -0.1138 -1.6729  0.6972
  408MOL0     H55035   5.497   9.136   8.388 -0.1102 -0.6804 -1.8703
  408MOL0     H55036   5.463   8.877   8.553 -3.4068  0.3887  3.4969
  408MOL0     H55037   5.416   8.898   8.388  0.1290 -1.4006 -0.1324
  408MOL0     H55038   5.303   9.044   8.633  1.0805 -0.8473  0.4863
  408MOL0     H55039   5.232   8.906   8.549  0.5973 -0.4559  0.6675
  408MOL0     H55040   5.095   9.126   8.249 -1.0801  2.7099 -1.6158
  408MOL0     H55041   4.916   9.184   8.121  1.8690  1.0589  0.4524
  408MOL0     H55042   4.752   9.143   8.176 -0.1527  1.4223 -2.1427
  408MOL0     H55043   4.818   9.314   8.192 -0.2249 -0.6625 -0.1105
  408MOL0     H55044   4.458   9.185   8.304  2.6182 -1.6772  1.6762
  408MOL0     H55045   4.223   9.121   8.293 -0.4936 -0.5820 -0.2174
  408MOL0     H55046   4.065   8.839   8.528  2.0871  0.2378  2.0247
  408MOL0     H55047   4.026   8.947   8.666  0.2722 -0.6252  0.2625
  408MOL0     H55048   3.808   9.028   8.527 -2.7108 -1.1260 -3.3178
  408MOL0     H55049   3.848   8.903   8.414  0.4883 -1.6559 -0.1598
  408MOL0     H55050   3.801   8.866   8.722 -0.9751 -2.6986  0.7991
  408MOL0     H55051   3.830   8.739   8.598  1.7976  1.7677 -1.7513
  408MOL0     H55052   3.616   8.960   8.593 -0.2157 -0.6560 -0.1319
  408MOL0     H55053   3.622   8.839   8.479  0.1167  1.3723 -1.0739
  408MOL0     H55054   3.545   8.796   8.770  1.5520  1.7127  0.1228
  408MOL0     H55055   3.570   8.664   8.650  1.4460  0.0262 -0.5260
  408MOL0     H55056   3.362   8.871   8.648 -0.7780 -1.1613  2.0289
  408MOL0     H55057   3.395   8.776   8.504 -4.3292  1.5346 -0.7472
  408MOL0     H55058   3.205   8.674   8.639 -0.3282  0.1585  1.5984
  408MOL0     H55059   3.295   8.654   8.767 -3.4938  1.2459  0.0572
  408MOL0     H55060   3.279   8.441   8.646  0.3620 -2.1783 -2.4941
  408MOL0     H55061   3.450   8.493   8.664 -0.1084 -2.0688 -1.5347
  408MOL0     H55062   4.246   8.996   8.709  1.6119  0.2567  0.8319
  408MOL0     H55063   4.484   9.058   8.710  0.8666 -2.1747 -1.2213
  408MOL0     H55064   4.840   9.176   8.664  1.2403  0.0916 -0.5118
  408MOL0     H55065   5.074   9.086   8.663  0.2122 -4.0066 -0.5169
  408MOL0     H55066   4.344   9.289   8.933 -1.3966 -0.7474  0.8316
  408MOL0     H55067   4.135   9.187   8.971 -0.6998  0.4818  0.6230
  408MOL0     H55068   3.667   9.230   8.760  1.1569  0.1378  0.8137
  408MOL0     H55069   3.431   9.159   8.766 -1.0986 -1.7717  0.6487
  408MOL0     H55070   3.343   8.797   8.973 -3.6522 -3.2361  0.5815
  408MOL0     H55071   3.279   8.910   9.098 -0.9660  1.6153 -0.4792
  408MOL0     H55072   3.127   8.831   8.845  0.3382  1.8911 -0.5552
  408MOL0     H55073   3.090   8.950   8.968 -1.7837 -1.3083 -0.2972
  408MOL0     H55074   3.073   8.775   9.131  1.4889  0.5340 -0.6646
  408MOL0     H55075   3.150   8.650   9.042  0.9836  0.2762  1.3431
  408MOL0     H55076   2.965   8.674   8.856 -4.3061 -0.2021 -0.8145
  408MOL0     H55077   2.884   8.779   8.961  0.4795 -0.2236 -1.9307
  408MOL0     H55078   2.763   8.411   9.138  0.7671  0.4986  1.7049
  408MOL0     H55079   3.514   8.896   9.091 -1.0862  1.4007  1.3704
  408MOL0     H55080   3.755   8.972   9.077  3.1606  0.3872 -2.4879
  409MOL0     O55081   9.688   8.336   3.990 -0.8347  0.6238  0.8158
  409MOL0     C55082   9.699   8.340   3.867  0.1600 -0.2768  0.4448
  409MOL0     O55083   9.597   8.335   3.778 -0.3761  0.1286  0.4617
  409MOL0     C55084   9.464   8.333   3.825  0.4397 -0.1699  0.3396
  409MOL0     C55085   9.402   8.458   3.811 -0.5700  0.4904  0.1581
  409MOL0     C55086   9.269   8.476   3.856  0.2960  0.3938 -0.1253
  409MOL0     C55087   9.199   8.365   3.918  0.0461 -0.5017 -0.4205
  409MOL0     O55088   9.065   8.396   3.957 -0.0121 -0.0510  0.2041
  409MOL0     C55089   9.031   8.331   4.080 -0.1532 -0.2813  0.0408
  409MOL0     C55090   8.911   8.234   4.053 -0.3309 -0.5161  0.2941
  409MOL0     C55091   8.793   8.312   3.994 -0.7292  0.0087 -0.0260
  409MOL0     C55092   8.677   8.220   3.982 -0.2251 -0.0519  0.0194
  409MOL0     C55093   8.562   8.267   4.054  0.4144 -0.3605 -0.0189
  409MOL0     C55094   8.442   8.166   4.057 -0.1667  0.2240 -0.1670
  409MOL0     C55095   8.315   8.221   4.120  0.2423 -0.2597  0.0921
  409MOL0     C55096   8.191   8.158   4.065 -0.1149 -0.4565  0.5769
  409MOL0     N55097   8.195   8.012   4.061 -0.5601  0.8192 -0.3608
  409MOL0     C55098   8.178   7.929   3.953  0.8764 -0.4475  0.8020
  409MOL0     C55099   8.176   7.804   3.994 -0.6494  0.8505  0.3895
  409MOL0     C55100   8.163   7.683   3.905 -0.1977 -0.6846  0.0806
  409MOL0     C55101   8.273   7.590   3.939  0.4595  0.4164  0.1887
  409MOL0     C55102   8.297   7.484   3.832 -0.4742  0.0038 -0.0530
  409MOL0     C55103   8.196   7.367   3.859 -0.3984 -0.7168 -0.6212
  409MOL0     O55104   8.261   7.260   3.786  0.4604 -1.6193 -0.1615
  409MOL0     C55105   8.178   7.155   3.761 -0.0861  0.5292 -0.3333
  409MOL0     C55106   8.233   7.055   3.682  0.2823  0.5676 -0.6156
  409MOL0     C55107   8.171   6.932   3.641  0.4849  0.1923 -0.1724
  409MOL0     C55108   8.260   6.839   3.563 -0.2813 -0.3004 -1.2258
  409MOL0     C55109   8.037   6.910   3.684 -0.4960 -0.6607  0.2047
  409MOL0     C55110   7.960   6.784   3.670  0.1706 -0.0972  1.3479
  409MOL0     O55111   8.023   6.674   3.617 -0.0487 -0.2789 -0.1010
  409MOL0     C55112   7.951   6.568   3.567  0.4907 -0.4758  0.8088
  409MOL0     C55113   8.025   6.460   3.525  0.9055  0.0730  0.2137
  409MOL0     C55114   7.952   6.362   3.448 -0.0549 -0.3633 -0.7062
  409MOL0     C55115   7.816   6.364   3.411 -0.3293  0.8741  0.1786
  409MOL0     O55116   7.774   6.244   3.351 -0.3168  0.1248 -0.4264
  409MOL0     C55117   7.638   6.208   3.387  0.3872 -0.7406  0.3287
  409MOL0     C55118   7.611   6.074   3.333 -0.5779  0.2787  0.1758
  409MOL0     C55119   7.471   6.017   3.347 -0.3987 -0.0210  0.0104
  409MOL0     C55120   7.434   5.981   3.492  0.1308  0.6758 -0.9807
  409MOL0     C55121   7.311   5.896   3.515  0.1304 -0.3867  0.6113
  409MOL0     C55122   7.185   5.970   3.461 -0.1109 -0.8567 -0.4268
  409MOL0     C55123   7.068   5.871   3.482  0.7762 -0.3845  0.9396
  409MOL0     C55124   6.929   5.929   3.483 -0.0057  0.2548  0.6534
  409MOL0    Cl55125   6.816   5.797   3.505  0.0352 -0.2299 -0.3238
  409MOL0     C55126   7.743   6.476   3.458  0.2343  0.5572 -0.3646
  409MOL0     C55127   7.809   6.578   3.529 -0.2621 -0.1813  0.0734
  409MOL0     O55128   7.850   6.785   3.721 -0.1493  0.2396  0.4223
  409MOL0     C55129   7.972   7.022   3.759 -0.2479 -0.2185 -0.5843
  409MOL0     C55130   8.037   7.143   3.797 -0.7032 -0.4187 -0.1942
  409MOL0     N55131   8.173   7.804   4.132 -0.4942 -0.3571  0.4307
  409MOL0     N55132   8.197   7.926   4.170  0.0456  0.3785 -0.0775
  409MOL0     C55133   9.264   8.238   3.916 -0.5300  0.2440  0.2827
  409MOL0     C55134   9.394   8.217   3.865 -0.0015 -0.8223 -0.1306
  409MOL0     C55135   9.840   8.349   3.816 -0.3148 -0.6622 -0.4539
  409MOL0     C55136   9.878   8.299   3.691 -0.0950  0.1457  0.0787
  409MOL0     C55137  10.014   8.305   3.646  0.1194  0.6677 -0.6257
  409MOL0     C55138  10.117   8.335   3.734  0.6871  0.3771  0.4212
  409MOL0     O55139  10.249   8.333   3.714  0.0596  0.3605 -0.2151
  409MOL0     C55140  10.305   8.303   3.590 -0.1469  0.1964  0.5789
  409MOL0     C55141  10.452   8.319   3.588 -0.5258 -0.4959 -0.5897
  409MOL0     C55142  10.525   8.227   3.683  0.0262 -0.1564  0.1950
  409MOL0     C55143  10.672   8.218   3.636 -0.0993  0.1125  0.5124
  409MOL0     C55144  10.753   8.150   3.744 -1.0379  0.1839  0.9179
  409MOL0     C55145  10.830   8.100   3.826  0.3372  0.2876  0.4497
  409MOL0     C55146  10.080   8.370   3.861 -0.1697 -0.7770  0.3920
  409MOL0     C55147   9.948   8.377   3.906 -0.3549  0.4411  0.3468
  409MOL0     H55148   9.454   8.541   3.764  3.7348 -2.3416 -0.5663
  409MOL0     H55149   9.223   8.573   3.869 -0.5991 -0.1492  0.8187
  409MOL0     H55150   9.108   8.272   4.130 -0.3304 -0.1034  0.5320
  409MOL0     H55151   9.006   8.410   4.152 -5.5925 -3.0240  1.7625
  409MOL0     H55152   8.946   8.160   3.980 -2.0672 -1.6366  0.5556
  409MOL0     H55153   8.901   8.175   4.144  3.6132 -0.9241  0.6267
  409MOL0     H55154   8.766   8.391   4.065  0.9348 -0.5292  1.2807
  409MOL0     H55155   8.824   8.350   3.896  0.1647 -1.3565 -0.2979
  409MOL0     H55156   8.637   8.216   3.880  0.2610  0.4505 -0.1957
  409MOL0     H55157   8.692   8.120   4.025 -2.1483 -0.3723 -0.0022
  409MOL0     H55158   8.588   8.289   4.158  0.2710 -0.8444  0.1214
  409MOL0     H55159   8.533   8.357   3.999  2.2012 -0.2763 -0.9283
  409MOL0     H55160   8.431   8.126   3.956 -0.1624 -3.0748  1.0123
  409MOL0     H55161   8.482   8.087   4.122  2.5941  0.9232 -0.8770
  409MOL0     H55162   8.326   8.207   4.228  0.6525 -0.0730  0.0759
  409MOL0     H55163   8.311   8.328   4.098  1.1645 -0.6652 -2.3326
  409MOL0     H55164   8.171   8.200   3.966 -0.8790  0.8535  1.2616
  409MOL0     H55165   8.113   8.182   4.137  1.4744 -0.0441  2.2106
  409MOL0     H55166   8.170   7.969   3.852  2.0629  0.0045  0.8697
  409MOL0     H55167   8.066   7.636   3.916 -0.8569  0.6143  0.0792
  409MOL0     H55168   8.182   7.714   3.802 -1.0303  1.8891  0.6197
  409MOL0     H55169   8.248   7.544   4.035  0.1480  0.2357  0.0228
  409MOL0     H55170   8.365   7.648   3.948 -0.6906  2.5855 -1.0931
  409MOL0     H55171   8.397   7.449   3.862 -1.5557 -0.6286  3.1974
  409MOL0     H55172   8.286   7.518   3.729 -1.1575 -0.2096 -0.0516
  409MOL0     H55173   8.105   7.403   3.810 -1.3297 -4.7317 -2.1839
  409MOL0     H55174   8.175   7.347   3.964 -0.3847 -2.2109 -0.8817
  409MOL0     H55175   8.333   7.077   3.645  0.9894 -1.7343 -0.2196
  409MOL0     H55176   8.219   6.830   3.462  0.2464  2.4411 -1.7615
  409MOL0     H55177   8.356   6.886   3.543 -0.1476  0.8578  1.6871
  409MOL0     H55178   8.269   6.748   3.623  0.7229  2.1025  2.6110
  409MOL0     H55179   8.129   6.443   3.552  1.3283 -0.5519 -1.6834
  409MOL0     H55180   8.004   6.269   3.426  0.8215 -0.0093 -0.1590
  409MOL0     H55181   7.621   6.215   3.495  0.7512 -3.2996  0.6043
  409MOL0     H55182   7.570   6.278   3.337  0.0965 -2.9236 -2.6187
  409MOL0     H55183   7.624   6.081   3.225  1.5532  1.4546  0.4643
  409MOL0     H55184   7.680   6.000   3.375 -2.7324 -1.4653  0.8358
  409MOL0     H55185   7.465   5.928   3.285  0.6052  0.1849 -0.4020
  409MOL0     H55186   7.400   6.088   3.303 -0.2704  1.4417  2.0133
  409MOL0     H55187   7.515   5.925   3.539 -1.0592 -1.8065 -1.7204
  409MOL0     H55188   7.405   6.065   3.557 -1.8344  0.3380 -1.3691
  409MOL0     H55189   7.292   5.878   3.621 -0.6762  0.3561  0.6083
  409MOL0     H55190   7.320   5.796   3.473  1.6784 -0.6155  1.4148
  409MOL0     H55191   7.165   6.055   3.527 -2.4112 -0.3880 -1.6234
  409MOL0     H55192   7.198   5.995   3.355 -1.3845  0.5609 -0.2752
  409MOL0     H55193   7.079   5.829   3.582  0.0076 -1.2744  0.6539
  409MOL0     H55194   7.078   5.788   3.411  0.7802  0.3524  0.0561
  409MOL0     H55195   6.931   5.974   3.383  0.1190 -2.7030 -0.7920
  409MOL0     H55196   6.913   6.000   3.564  0.1577  0.5953  0.3907
  409MOL0     H55197   7.636   6.483   3.443 -0.0120 -0.9122  0.4674
  409MOL0     H55198   7.757   6.671   3.552  3.8121  2.0407  1.2125
  409MOL0     H55199   7.868   7.011   3.790  0.0296 -1.0937  0.0859
  409MOL0     H55200   7.987   7.222   3.852  0.7044  0.6726 -0.4135
  409MOL0     H55201   9.215   8.145   3.940 -1.2351  0.0191 -1.7842
  409MOL0     H55202   9.431   8.116   3.875 -0.7780 -0.9914  1.2605
  409MOL0     H55203   9.791   8.270   3.634 -0.2437 -1.2098  0.9464
  409MOL0     H55204  10.037   8.265   3.548  1.1505  0.6388 -0.3872
  409MOL0     H55205  10.275   8.201   3.564  1.4689 -0.1711  0.0827
  409MOL0     H55206  10.267   8.370   3.512  0.4385 -0.0292  0.0967
  409MOL0     H55207  10.485   8.419   3.616 -0.6155 -1.3274  2.9593
  409MOL0     H55208  10.476   8.292   3.485 -1.9312 -1.3292 -0.7192
  409MOL0     H55209  10.491   8.124   3.672  3.2792 -1.2748 -0.6570
  409MOL0     H55210  10.513   8.261   3.786 -1.8107  2.6702 -0.8223
  409MOL0     H55211  10.715   8.316   3.610  1.0955 -1.0374 -2.2097
  409MOL0     H55212  10.686   8.169   3.540  1.0160 -1.5332  1.4591
  409MOL0     H55213  10.870   8.044   3.908 -0.2256 -1.3669 -0.3772
  409MOL0     H55214  10.160   8.370   3.934  0.9707 -3.2561 -0.7693
  409MOL0     H55215   9.939   8.401   4.012 -3.0970 -0.7115  0.4572
  410MOL0     O55216   4.939   7.185   4.496  0.0886  0.6992 -0.9791
  410MOL0     C55217   4.989   7.266   4.418 -0.2626 -0.2438 -0.7190
  410MOL0     O55218   4.929   7.387   4.396 -0.1213 -0.4217 -0.4767
  410MOL0     C55219   4.813   7.429   4.456  0.0074 -0.0523  0.4895
  410MOL0     C55220   4.719   7.363   4.535  0.2335 -0.2471 -0.5324
  410MOL0     C55221   4.619   7.433   4.613 -0.1234 -0.2343 -0.6654
  410MOL0     C55222   4.616   7.571   4.614 -0.2494  0.3681 -0.6779
  410MOL0     O55223   4.539   7.648   4.698  0.2855 -0.6719  0.7847
  410MOL0     C55224   4.422   7.601   4.757  0.1507 -0.1846 -0.2791
  410MOL0     C55225   4.341   7.722   4.801 -0.1706 -0.7517 -0.5524
  410MOL0     C55226   4.212   7.676   4.875  0.0143  0.1860 -0.0953
  410MOL0     C55227   4.127   7.795   4.897 -0.1934 -0.3805  0.4446
  410MOL0     C55228   3.997   7.770   4.962  0.6549  0.1171  0.1835
  410MOL0     C55229   3.910   7.896   4.976  0.1744 -0.3161  0.1423
  410MOL0     C55230   3.766   7.853   5.005 -0.1856  0.1090  0.0748
  410MOL0     C55231   3.686   7.973   5.058 -0.0803  0.5437 -0.4690
  410MOL0     N55232   3.545   7.936   5.044  0.6068 -0.0917 -0.3235
  410MOL0     C55233   3.489   7.821   5.082 -0.2546 -0.0053  0.2593
  410MOL0     C55234   3.355   7.834   5.042  0.6093 -0.0269 -0.3862
  410MOL0     C55235   3.239   7.740   5.079 -0.0022 -0.4180 -0.3290
  410MOL0     C55236   3.196   7.675   4.951 -0.0098 -0.4818  0.7517
  410MOL0     C55237   3.088   7.566   4.968 -0.0974  0.6295 -0.0804
  410MOL0     C55238   3.035   7.526   4.832 -0.5891 -0.3821 -0.7863
  410MOL0     O55239   2.934   7.621   4.808 -0.4173  0.2897 -0.0967
  410MOL0     C55240   2.804   7.588   4.840 -0.4539  0.6632  0.0287
  410MOL0     C55241   2.710   7.692   4.849 -0.5862  0.1488 -0.3010
  410MOL0     C55242   2.576   7.683   4.872 -0.0291 -0.1007  0.6396
  410MOL0     C55243   2.498   7.814   4.873  0.0947  0.5221  0.1875
  410MOL0     C55244   2.527   7.555   4.907 -0.3069  0.1910 -0.0624
  410MOL0     C55245   2.391   7.535   4.955  0.2497 -0.4810  0.7533
  410MOL0     O55246   2.355   7.409   5.001 -0.2056  0.0346 -0.2510
  410MOL0     C55247   2.233   7.387   5.070 -0.0788 -0.0731  0.0047
  410MOL0     C55248   2.104   7.438   5.041  0.0059  0.1090  0.0804
  410MOL0     C55249   1.991   7.415   5.119  0.3551 -0.2258  0.8587
  410MOL0     C55250   2.001   7.341   5.235 -0.4164 -0.3747 -0.9623
  410MOL0     O55251   1.890   7.321   5.317 -1.1656 -0.6363  0.0384
  410MOL0     C55252   1.755   7.339   5.274  0.4016  0.4614 -0.4219
  410MOL0     C55253   1.661   7.288   5.385  0.3467 -0.0648 -0.1714
  410MOL0     C55254   1.514   7.326   5.369 -0.4900  0.1138 -0.1951
  410MOL0     C55255   1.445   7.300   5.508  0.1145 -0.3452 -0.4463
  410MOL0     C55256   1.301   7.364   5.502 -0.0905  0.6411  0.1964
  410MOL0     C55257   1.210   7.302   5.602  0.2825  0.9112 -0.6126
  410MOL0     C55258   1.073   7.362   5.608  0.2130  0.1835 -0.6419
  410MOL0     C55259   1.083   7.496   5.683 -0.1287  0.8889 -0.3376
  410MOL0    Cl55260   0.919   7.547   5.738 -0.6312  0.3840  0.0987
  410MOL0     C55261   2.131   7.285   5.268  1.0400 -0.6991 -0.7126
  410MOL0     C55262   2.240   7.314   5.189  0.0197 -0.0527 -0.1310
  410MOL0     O55263   2.311   7.633   4.965  0.9860 -0.0205  0.0123
  410MOL0     C55264   2.615   7.445   4.891 -0.2819  0.1139 -0.6077
  410MOL0     C55265   2.751   7.460   4.860 -0.3856  0.0849  0.5336
  410MOL0     N55266   3.338   7.947   4.968  0.0548 -0.7398  0.4467
  410MOL0     N55267   3.450   8.015   4.991  0.6871 -0.9595 -0.1298
  410MOL0     C55268   4.702   7.636   4.524  0.1379 -0.1917  0.5734
  410MOL0     C55269   4.798   7.567   4.446  0.1291  0.1424  0.5765
  410MOL0     C55270   5.110   7.237   4.337 -0.3023 -0.0174 -0.1143
  410MOL0     C55271   5.180   7.120   4.358 -0.1523  0.8816 -0.2590
  410MOL0     C55272   5.299   7.091   4.287  0.2441 -0.4755 -0.1366
  410MOL0     C55273   5.351   7.186   4.188  0.7448  0.1641  0.1810
  410MOL0     O55274   5.469   7.172   4.120 -0.2950 -0.0945  0.8897
  410MOL0     C55275   5.533   7.050   4.111 -0.2510 -0.1743  0.6639
  410MOL0     C55276   5.471   6.966   4.004  0.1292  0.3645  0.3648
  410MOL0     C55277   5.528   7.006   3.857 -0.6364 -0.3926 -0.5176
  410MOL0     C55278   5.430   6.979   3.752  0.1456  0.5799 -0.2731
  410MOL0     C55279   5.466   7.060   3.633  0.5126 -0.0971 -0.3621
  410MOL0     C55280   5.481   7.147   3.549 -0.4564 -0.0158  1.1234
  410MOL0     C55281   5.284   7.306   4.186 -0.6457 -0.4813  0.2674
  410MOL0     C55282   5.158   7.326   4.244  0.5766  0.7936 -0.3224
  410MOL0     H55283   4.720   7.255   4.543  0.9782 -0.2296 -0.3084
  410MOL0     H55284   4.550   7.366   4.663  1.3556 -0.0122  1.8190
  410MOL0     H55285   4.353   7.555   4.685 -0.3939 -1.3548  0.9332
  410MOL0     H55286   4.429   7.525   4.836  0.5769  0.4674  0.3115
  410MOL0     H55287   4.407   7.768   4.875 -1.5752 -2.3884  1.8858
  410MOL0     H55288   4.319   7.797   4.725 -2.4130 -0.9772 -0.1955
  410MOL0     H55289   4.156   7.602   4.816  0.6824 -0.9003  0.6061
  410MOL0     H55290   4.236   7.626   4.969  0.1819  0.9886  0.2996
  410MOL0     H55291   4.191   7.866   4.950 -0.5332 -0.3773  0.8569
  410MOL0     H55292   4.113   7.839   4.797  0.9629 -0.5130  0.2047
  410MOL0     H55293   3.942   7.689   4.913 -0.9255 -0.7275  3.1116
  410MOL0     H55294   4.038   7.735   5.058  4.2145  5.0644  0.9087
  410MOL0     H55295   3.933   7.964   5.059  1.0980  0.3222 -0.6175
  410MOL0     H55296   3.905   7.949   4.880 -2.8101  0.3567  0.5898
  410MOL0     H55297   3.728   7.822   4.908  1.9630 -1.4979 -0.3169
  410MOL0     H55298   3.760   7.766   5.071  2.2592  0.0920  0.3511
  410MOL0     H55299   3.703   8.067   5.003 -1.3248  0.7955 -0.4448
  410MOL0     H55300   3.723   8.000   5.158  1.3825  1.5935 -1.2558
  410MOL0     H55301   3.530   7.751   5.154 -1.4268  0.5395  1.4888
  410MOL0     H55302   3.285   7.665   5.144 -0.1818  0.3857  0.7627
  410MOL0     H55303   3.160   7.793   5.132 -0.8893 -1.8114 -0.2211
  410MOL0     H55304   3.285   7.626   4.912 -1.0507 -1.3180 -0.6603
  410MOL0     H55305   3.164   7.755   4.884 -1.3009  0.1478  2.0580
  410MOL0     H55306   3.000   7.587   5.029 -1.2663  2.1068 -2.1570
  410MOL0     H55307   3.136   7.481   5.019 -1.4195 -0.4690 -0.6008
  410MOL0     H55308   3.004   7.422   4.844  2.0413 -1.6560 -3.6198
  410MOL0     H55309   3.111   7.534   4.754  0.3880  2.9153  0.3408
  410MOL0     H55310   2.744   7.791   4.819 -3.4646  0.3029 -3.6500
  410MOL0     H55311   2.478   7.821   4.981 -1.1880 -1.2075  0.1118
  410MOL0     H55312   2.559   7.898   4.839 -2.1405  1.9546 -0.5019
  410MOL0     H55313   2.409   7.803   4.810  0.1448 -0.9118  0.3235
  410MOL0     H55314   2.089   7.505   4.956 -0.6701 -0.1374  0.0012
  410MOL0     H55315   1.899   7.452   5.075  1.6009 -2.0473 -3.8263
  410MOL0     H55316   1.738   7.447   5.268  3.7489  1.1334  0.0386
  410MOL0     H55317   1.746   7.298   5.173  1.6881  1.8126 -1.1293
  410MOL0     H55318   1.666   7.179   5.394 -2.0429 -0.0664  2.4374
  410MOL0     H55319   1.702   7.333   5.476 -1.4797 -0.9696  1.1470
  410MOL0     H55320   1.471   7.271   5.285  1.1130  0.2658 -1.1403
  410MOL0     H55321   1.507   7.430   5.337 -1.7925 -0.8234 -3.3889
  410MOL0     H55322   1.426   7.193   5.524 -0.3153 -0.7271 -3.0187
  410MOL0     H55323   1.496   7.342   5.595  2.4259  1.4762 -2.5340
  410MOL0     H55324   1.266   7.357   5.399 -0.1648  0.1290  0.2514
  410MOL0     H55325   1.305   7.472   5.516  0.9755  0.6544 -0.1322
  410MOL0     H55326   1.186   7.200   5.573  2.7120  0.6497 -1.9303
  410MOL0     H55327   1.262   7.293   5.698 -3.1666 -3.1043  1.1981
  410MOL0     H55328   1.010   7.293   5.665  1.6859 -0.6643  0.0107
  410MOL0     H55329   1.032   7.376   5.508  0.2436 -2.0282 -0.9929
  410MOL0     H55330   1.131   7.577   5.627 -0.4524  0.3121 -1.4882
  410MOL0     H55331   1.139   7.467   5.772  1.5578 -1.1801 -1.9627
  410MOL0     H55332   2.144   7.225   5.357  1.2191  0.4492  0.0708
  410MOL0     H55333   2.335   7.265   5.211 -0.4808 -1.0960 -0.2568
  410MOL0     H55334   2.580   7.342   4.903  3.7790 -1.8962 -3.6200
  410MOL0     H55335   2.802   7.367   4.839 -1.2453 -0.8183  2.2545
  410MOL0     H55336   4.692   7.744   4.530 -3.4933 -0.4803  2.4477
  410MOL0     H55337   4.871   7.617   4.383  0.9004 -2.1791 -0.4755
  410MOL0     H55338   5.149   7.058   4.441  0.1101  0.9298 -0.1235
  410MOL0     H55339   5.367   7.009   4.308  0.0137 -1.1685 -1.9113
  410MOL0     H55340   5.636   7.062   4.075 -0.5310  1.5412  0.3399
  410MOL0     H55341   5.536   7.000   4.208  0.4590  0.4834  0.9892
  410MOL0     H55342   5.362   6.964   4.015  0.1835  1.5879  1.4064
  410MOL0     H55343   5.508   6.865   4.019 -0.3382  0.3354  1.4460
  410MOL0     H55344   5.620   6.950   3.837 -0.0040 -0.0019  1.1216
  410MOL0     H55345   5.550   7.113   3.860  0.0847 -0.5513  0.8112
  410MOL0     H55346   5.329   7.002   3.787  0.4021  0.2122  0.7170
  410MOL0     H55347   5.446   6.873   3.728  0.7238 -0.1929  3.0717
  410MOL0     H55348   5.495   7.230   3.483 -2.3286  0.0247  0.7203
  410MOL0     H55349   5.323   7.394   4.137 -0.2899 -2.5588 -3.4986
  410MOL0     H55350   5.112   7.424   4.235 -0.3153  0.2091 -2.6383
  411MOL0     O55351   0.078   4.824   7.465 -0.2373  0.9666  0.0767
  411MOL0     C55352   0.105   4.949   7.466  0.0513  0.3494 -0.4989
  411MOL0     O55353   0.017   5.047   7.437 -0.2240 -0.7525  0.3097
  411MOL0     C55354  -0.111   5.013   7.401 -1.4426 -0.1103 -0.5941
  411MOL0     C55355  -0.192   4.917   7.458  0.0348 -0.0501  0.1394
  411MOL0     C55356  -0.318   4.898   7.411  0.4752 -0.4143 -0.7284
  411MOL0     C55357  -0.366   4.967   7.296  0.2362  0.4981  0.0157
  411MOL0     O55358  -0.494   4.937   7.255  0.2576 -0.5756 -0.7719
  411MOL0     C55359  -0.518   4.945   7.113  0.1962 -0.3367  0.0092
  411MOL0     C55360  -0.668   4.959   7.076  0.5204  0.4740  0.4788
  411MOL0     C55361  -0.731   4.828   7.119  0.3076  0.9017  0.4004
  411MOL0     C55362  -0.879   4.828   7.095  0.2213 -1.1534 -0.3821
  411MOL0     C55363  -0.950   4.691   7.090 -0.6084 -0.3516  0.0908
  411MOL0     C55364  -1.101   4.709   7.079  0.2775 -0.3880  0.0221
  411MOL0     C55365  -1.171   4.750   7.210 -0.2961  0.6943  0.0245
  411MOL0     C55366  -1.168   4.638   7.318  0.1047 -0.4527 -0.2344
  411MOL0     N55367  -1.241   4.681   7.442 -0.1055  1.1683  0.1436
  411MOL0     C55368  -1.367   4.645   7.492 -0.3504 -0.1860  0.4213
  411MOL0     C55369  -1.377   4.700   7.617  0.0683  0.0124  0.0198
  411MOL0     C55370  -1.500   4.695   7.702  0.3338 -0.0881  0.1734
  411MOL0     C55371  -1.575   4.563   7.703  0.4443 -1.2277  0.7536
  411MOL0     C55372  -1.694   4.552   7.792  0.4558  0.0456  0.1097
  411MOL0     C55373  -1.671   4.564   7.948  0.2521  0.0846  0.1076
  411MOL0     O55374  -1.767   4.488   8.020  0.2233  0.6266  0.0362
  411MOL0     C55375  -1.895   4.541   8.014  0.0090  0.4494 -0.6404
  411MOL0     C55376  -1.936   4.659   8.079  0.1464 -0.7156  0.2865
  411MOL0     C55377  -2.070   4.712   8.079 -0.5795  0.2421  1.0248
  411MOL0     C55378  -2.085   4.841   8.140  0.2109 -0.1291 -0.1359
  411MOL0     C55379  -2.177   4.643   8.014 -0.4656 -0.2536  0.4413
  411MOL0     C55380  -2.318   4.685   8.013  0.1685  0.2214 -0.1359
  411MOL0     O55381  -2.397   4.635   7.916 -0.1655 -0.4429 -0.5951
  411MOL0     C55382  -2.530   4.661   7.908 -0.1955  0.3827  0.2864
  411MOL0     C55383  -2.619   4.558   7.945  0.1931  0.2124 -0.9231
  411MOL0     C55384  -2.755   4.579   7.941  0.6488  0.1731 -0.2876
  411MOL0     C55385  -2.808   4.700   7.885  0.6555  0.4579 -0.9570
  411MOL0     O55386  -2.941   4.724   7.886 -0.4239  0.0203  0.5075
  411MOL0     C55387  -3.003   4.860   7.887  0.7084 -0.5314  0.0454
  411MOL0     C55388  -3.156   4.833   7.892  0.0592 -0.1488 -0.2047
  411MOL0     C55389  -3.227   4.969   7.883  0.3258  1.1762 -1.0041
  411MOL0     C55390  -3.382   4.952   7.885 -0.3351  0.1068 -0.0524
  411MOL0     C55391  -3.457   5.088   7.869 -0.0484 -0.2582  0.0470
  411MOL0     C55392  -3.604   5.067   7.890  0.8602  1.1078 -0.6430
  411MOL0     C55393  -3.678   5.050   7.761  0.4355 -0.2469 -0.6594
  411MOL0     C55394  -3.812   4.979   7.770 -0.3657  0.7164  0.6610
  411MOL0    Cl55395  -3.904   5.100   7.851  0.6045 -0.0400  0.5170
  411MOL0     C55396  -2.717   4.800   7.844  0.1820  0.4696 -0.1308
  411MOL0     C55397  -2.581   4.784   7.867 -0.6461  0.1474  0.3742
  411MOL0     O55398  -2.361   4.755   8.103 -0.8488 -1.4963 -0.6192
  411MOL0     C55399  -2.141   4.525   7.955 -0.1776 -0.5393  0.7359
  411MOL0     C55400  -2.008   4.473   7.959  0.2857  0.1360  0.2197
  411MOL0     N55401  -1.257   4.762   7.643 -0.2458  0.3568  0.5132
  411MOL0     N55402  -1.179   4.760   7.535 -0.4052 -0.0359  0.3165
  411MOL0     C55403  -0.287   5.065   7.243  0.2130 -0.0743 -0.4950
  411MOL0     C55404  -0.161   5.082   7.300 -0.3069 -0.1304  0.5299
  411MOL0     C55405   0.239   4.985   7.502 -0.0307 -0.4092  0.7381
  411MOL0     C55406   0.346   4.906   7.474 -0.6905 -0.6370 -0.2747
  411MOL0     C55407   0.473   4.948   7.503 -0.3744 -0.9159 -0.2206
  411MOL0     C55408   0.497   5.071   7.572  0.0881  0.7441 -0.5142
  411MOL0     O55409   0.618   5.099   7.619 -0.2215 -0.5232  0.0809
  411MOL0     C55410   0.731   5.090   7.536  0.3401  0.2010  0.0888
  411MOL0     C55411   0.835   5.001   7.605  0.4184 -0.1289 -0.0084
  411MOL0     C55412   0.879   5.036   7.755  0.4983  0.8074 -0.0078
  411MOL0     C55413   0.936   5.181   7.759  0.3861  0.2840 -0.8889
  411MOL0     C55414   0.841   5.291   7.782 -0.3816 -0.6892 -0.5666
  411MOL0     C55415   0.754   5.373   7.775  0.6538  0.3080  0.7032
  411MOL0     C55416   0.386   5.153   7.615  0.2857 -0.2905  0.8665
  411MOL0     C55417   0.260   5.110   7.566  0.0478 -0.1189  0.2453
  411MOL0     H55418  -0.157   4.859   7.544  1.3429  2.9284  1.7605
  411MOL0     H55419  -0.385   4.825   7.455  0.4557  0.4060  0.6426
  411MOL0     H55420  -0.475   5.034   7.066 -1.2605  0.5108  0.2126
  411MOL0     H55421  -0.468   4.863   7.062  1.6565  0.6280 -0.1624
  411MOL0     H55422  -0.719   5.043   7.124  0.6274  0.5835  0.3993
  411MOL0     H55423  -0.690   4.972   6.969 -0.8041  0.7561  0.7689
  411MOL0     H55424  -0.688   4.747   7.058 -0.0954  2.1875 -1.6528
  411MOL0     H55425  -0.718   4.812   7.227 -3.4979 -2.8443  0.5772
  411MOL0     H55426  -0.917   4.880   7.184  3.7282  0.0946  0.5564
  411MOL0     H55427  -0.905   4.883   7.004 -3.0867 -0.4689  0.8364
  411MOL0     H55428  -0.918   4.645   6.996 -2.4149 -4.1115  1.0862
  411MOL0     H55429  -0.922   4.618   7.167 -1.4397 -1.1258 -0.3110
  411MOL0     H55430  -1.107   4.783   6.998  0.1116  0.8081  1.0893
  411MOL0     H55431  -1.142   4.619   7.034  2.6522 -0.6438 -1.8667
  411MOL0     H55432  -1.121   4.835   7.258  0.6633 -1.1483  2.5116
  411MOL0     H55433  -1.273   4.788   7.196  0.5019  3.7734  1.5772
  411MOL0     H55434  -1.063   4.621   7.346 -0.4227 -1.8956  0.9997
  411MOL0     H55435  -1.199   4.541   7.276  4.8845 -1.4690 -2.1019
  411MOL0     H55436  -1.432   4.571   7.445 -2.0392  1.2329  0.4059
  411MOL0     H55437  -1.457   4.712   7.802  1.3407  1.8331 -0.5311
  411MOL0     H55438  -1.558   4.785   7.682  0.9519  0.3037  0.1358
  411MOL0     H55439  -1.503   4.487   7.735 -0.0804 -1.4706  1.3642
  411MOL0     H55440  -1.614   4.552   7.601 -0.9572 -1.6649  1.3195
  411MOL0     H55441  -1.742   4.457   7.767 -0.3736 -0.1305  2.1596
  411MOL0     H55442  -1.759   4.636   7.767 -1.6475 -1.0256  1.6104
  411MOL0     H55443  -1.670   4.669   7.980 -0.4049  0.2463 -0.3901
  411MOL0     H55444  -1.571   4.526   7.970  0.6508  1.6971  1.2531
  411MOL0     H55445  -1.850   4.707   8.125 -2.9652  4.4437  1.5779
  411MOL0     H55446  -2.135   4.837   8.237  1.1612  1.4416  0.4711
  411MOL0     H55447  -1.996   4.902   8.159 -0.9556  1.0391  2.0929
  411MOL0     H55448  -2.147   4.894   8.068  0.8770 -1.0200 -1.4074
  411MOL0     H55449  -2.580   4.466   7.986 -1.3474  0.6821  1.9580
  411MOL0     H55450  -2.824   4.498   7.966  1.4488 -1.1969 -2.2479
  411MOL0     H55451  -2.975   4.926   7.970  1.0598  0.3217 -0.7320
  411MOL0     H55452  -2.985   4.910   7.791 -0.9003  0.5705  0.2715
  411MOL0     H55453  -3.181   4.767   7.809  3.2150 -2.1901  0.2853
  411MOL0     H55454  -3.170   4.779   7.986 -1.4255 -0.6714 -0.6958
  411MOL0     H55455  -3.186   5.034   7.805  2.2027  1.3336  0.0332
  411MOL0     H55456  -3.195   5.033   7.966  0.0691  0.1125 -0.0682
  411MOL0     H55457  -3.415   4.892   7.800 -2.3403 -0.8740  1.3433
  411MOL0     H55458  -3.417   4.901   7.975  1.9976  0.8901  1.4223
  411MOL0     H55459  -3.443   5.134   7.771  1.6480  1.7072  1.1112
  411MOL0     H55460  -3.406   5.158   7.938  2.5416  2.1402 -3.8692
  411MOL0     H55461  -3.631   4.987   7.960 -0.0192 -0.5479 -2.7715
  411MOL0     H55462  -3.642   5.166   7.920  0.1426  0.8100 -0.5505
  411MOL0     H55463  -3.616   4.994   7.690 -0.3593 -2.3435  0.2000
  411MOL0     H55464  -3.682   5.151   7.720  2.1905 -0.1406 -0.6489
  411MOL0     H55465  -3.810   4.891   7.835  0.4720 -2.0763 -2.8109
  411MOL0     H55466  -3.857   4.954   7.673  0.5522 -1.4946  0.7398
  411MOL0     H55467  -2.758   4.895   7.812  4.3005  2.7680  0.6829
  411MOL0     H55468  -2.509   4.862   7.844 -1.0844  1.4632  3.0330
  411MOL0     H55469  -2.211   4.462   7.903 -0.1815 -1.4253  1.7855
  411MOL0     H55470  -1.985   4.374   7.920  0.6461  0.8199 -1.3604
  411MOL0     H55471  -0.297   5.117   7.148  2.5227 -0.1267 -0.8346
  411MOL0     H55472  -0.103   5.162   7.255 -1.6237  0.9044  0.6280
  411MOL0     H55473   0.333   4.810   7.424 -4.6917 -0.6713  0.5235
  411MOL0     H55474   0.558   4.881   7.494  0.2218 -0.7216  2.9247
  411MOL0     H55475   0.704   5.046   7.440 -1.5742  0.1726  0.5903
  411MOL0     H55476   0.768   5.191   7.515  0.3700 -0.2414 -2.2055
  411MOL0     H55477   0.922   4.986   7.540  0.9768 -1.4050  0.9796
  411MOL0     H55478   0.797   4.899   7.617  0.2021 -0.0199  0.2603
  411MOL0     H55479   0.959   4.968   7.783  0.2307  0.8153  0.7945
  411MOL0     H55480   0.791   5.036   7.821  0.6661  4.7299  0.4773
  411MOL0     H55481   0.974   5.203   7.659  2.2059  0.8067 -0.1421
  411MOL0     H55482   1.017   5.195   7.832 -1.5855  1.9515  1.1223
  411MOL0     H55483   0.679   5.447   7.758  1.3631  0.4949 -2.2194
  411MOL0     H55484   0.399   5.251   7.661  4.2595 -0.0561 -0.3629
  411MOL0     H55485   0.178   5.178   7.585 -0.3398 -0.6697  0.5682
  412MOL0     O55486   6.223   0.646   8.045  0.0530 -0.2327  0.1064
  412MOL0     C55487   6.316   0.727   8.056 -0.1862 -1.0118 -1.2284
  412MOL0     O55488   6.361   0.814   7.958 -0.0824  0.8027 -0.1117
  412MOL0     C55489   6.293   0.807   7.840 -0.2910  0.2286  0.6710
  412MOL0     C55490   6.190   0.900   7.818  0.7084 -0.0536 -0.4509
  412MOL0     C55491   6.113   0.902   7.699  0.2376 -0.2192 -0.2432
  412MOL0     C55492   6.140   0.823   7.590 -0.0255  0.4804 -0.7692
  412MOL0     O55493   6.068   0.836   7.472  0.4281  0.2326 -0.3937
  412MOL0     C55494   6.140   0.860   7.349  0.1078 -0.2643  0.1361
  412MOL0     C55495   6.053   0.930   7.242 -0.5225 -0.0433 -0.1012
  412MOL0     C55496   5.936   0.846   7.185 -0.4393  0.6104  0.4254
  412MOL0     C55497   5.867   0.916   7.076  0.1780 -0.3415 -0.4233
  412MOL0     C55498   5.778   0.823   7.000 -0.1541 -0.2580  0.7107
  412MOL0     C55499   5.641   0.788   7.060  0.2525 -0.5008  0.1287
  412MOL0     C55500   5.540   0.908   7.063 -0.0577  0.9196 -0.4812
  412MOL0     C55501   5.413   0.865   7.140 -0.5526 -1.0893  0.4869
  412MOL0     N55502   5.325   0.981   7.167  0.7455  0.0408  0.1258
  412MOL0     C55503   5.238   0.993   7.271  0.3593  0.1345  0.4149
  412MOL0     C55504   5.148   1.083   7.217 -0.0345  0.0186 -0.6357
  412MOL0     C55505   5.031   1.138   7.296  0.0036 -0.2170 -0.1171
  412MOL0     C55506   4.905   1.040   7.278 -0.0822 -0.1119 -0.5328
  412MOL0     C55507   4.767   1.109   7.298  0.0375  0.2252  0.5749
  412MOL0     C55508   4.647   1.022   7.269 -0.1718  0.7191  0.8272
  412MOL0     O55509   4.648   0.976   7.128 -0.0206  0.6696 -0.1716
  412MOL0     C55510   4.534   0.948   7.048 -0.6257 -0.0835  0.1586
  412MOL0     C55511   4.547   0.892   6.924  0.1092  0.3956  0.0949
  412MOL0     C55512   4.439   0.858   6.839  0.6575  1.4863 -0.5614
  412MOL0     C55513   4.488   0.780   6.726  0.8459  0.4001  0.3946
  412MOL0     C55514   4.303   0.878   6.881 -0.3542 -0.5585 -1.2225
  412MOL0     C55515   4.188   0.822   6.818  0.7675  0.7500 -0.0982
  412MOL0     O55516   4.216   0.751   6.710 -0.6075 -0.0433  0.5204
  412MOL0     C55517   4.117   0.672   6.651 -0.0154  0.2772 -0.0453
  412MOL0     C55518   4.136   0.539   6.648 -0.0757  0.6399  0.0472
  412MOL0     C55519   4.044   0.446   6.602 -0.6715  0.1998 -0.5219
  412MOL0     C55520   3.931   0.495   6.546  0.4286  0.1135  0.2247
  412MOL0     O55521   3.843   0.396   6.497  0.6182  0.2673 -0.2513
  412MOL0     C55522   3.705   0.428   6.512 -0.9583 -1.0853 -0.4920
  412MOL0     C55523   3.614   0.304   6.496  0.3864  0.2666  0.5029
  412MOL0     C55524   3.465   0.337   6.491  0.3131 -0.0116 -0.3016
  412MOL0     C55525   3.386   0.323   6.616  0.5415  1.4388  0.1318
  412MOL0     C55526   3.244   0.349   6.592  0.2055 -0.8435 -0.2776
  412MOL0     C55527   3.179   0.344   6.729 -0.7534 -0.3614  1.2628
  412MOL0     C55528   3.030   0.376   6.721  0.0859 -0.0690 -0.1595
  412MOL0     C55529   2.945   0.352   6.853 -0.6208 -0.1377 -0.5102
  412MOL0    Cl55530   2.950   0.181   6.907 -0.3752  0.1027 -0.1084
  412MOL0     C55531   3.902   0.632   6.537 -0.6598 -0.2580  0.2427
  412MOL0     C55532   3.995   0.722   6.594  0.9789 -0.2713 -0.0496
  412MOL0     O55533   4.077   0.845   6.857 -0.5290  0.3925 -0.5456
  412MOL0     C55534   4.288   0.935   7.015  0.4007  0.6108 -0.3860
  412MOL0     C55535   4.402   0.968   7.095 -0.1079  0.5618  0.1687
  412MOL0     N55536   5.187   1.129   7.099 -0.1523 -0.4647  1.0066
  412MOL0     N55537   5.297   1.073   7.071  0.7324  0.1354 -0.3490
  412MOL0     C55538   6.233   0.722   7.613  0.0541  0.4307 -0.3577
  412MOL0     C55539   6.315   0.712   7.735 -0.1976  0.5512 -0.1428
  412MOL0     C55540   6.377   0.738   8.189 -0.3656  0.3693 -1.1949
  412MOL0     C55541   6.471   0.830   8.203 -0.2625 -0.3968 -1.2996
  412MOL0     C55542   6.546   0.832   8.321 -1.1681 -0.0117 -0.6663
  412MOL0     C55543   6.527   0.748   8.431 -0.1422  0.4594  0.2106
  412MOL0     O55544   6.598   0.737   8.546 -0.1327  0.6007  0.1336
  412MOL0     C55545   6.724   0.791   8.548  0.2615 -0.1907 -0.0075
  412MOL0     C55546   6.796   0.740   8.673 -0.4484  0.1616 -0.3080
  412MOL0     C55547   6.923   0.823   8.688  0.2738 -0.1051  0.3257
  412MOL0     C55548   6.984   0.831   8.829  0.4286  0.2574  0.3551
  412MOL0     C55549   7.094   0.927   8.841  0.2222  1.1527  0.1412
  412MOL0     C55550   7.188   1.004   8.831 -0.1113  0.3213  0.9461
  412MOL0     C55551   6.417   0.669   8.411  0.1522 -0.1175 -0.0678
  412MOL0     C55552   6.354   0.656   8.293 -0.5389 -0.7982  0.3614
  412MOL0     H55553   6.172   0.966   7.902  0.8911 -0.5334 -0.0257
  412MOL0     H55554   6.031   0.972   7.694 -0.4095 -0.9656 -0.2988
  412MOL0     H55555   6.225   0.928   7.355  2.1931 -2.3070 -3.0251
  412MOL0     H55556   6.182   0.764   7.318  0.3001 -1.8776  4.7084
  412MOL0     H55557   6.009   1.024   7.277  1.1667  0.1369  1.6834
  412MOL0     H55558   6.117   0.970   7.162 -0.3305  2.8914  1.3722
  412MOL0     H55559   5.968   0.748   7.148 -0.1203  0.1349  1.8811
  412MOL0     H55560   5.876   0.820   7.273 -2.0133  1.0742 -0.4818
  412MOL0     H55561   5.808   0.998   7.117 -0.7224 -0.6867 -1.0079
  412MOL0     H55562   5.940   0.954   7.003  0.5227 -1.3981 -0.6418
  412MOL0     H55563   5.770   0.870   6.902  2.9233 -3.8819 -1.5271
  412MOL0     H55564   5.840   0.736   6.977 -0.0464 -0.0202  0.0975
  412MOL0     H55565   5.597   0.706   7.004 -1.5421  1.9319 -2.2497
  412MOL0     H55566   5.657   0.758   7.164  0.2553  3.5812  1.4944
  412MOL0     H55567   5.590   0.996   7.106  1.4069 -0.2269  0.2464
  412MOL0     H55568   5.518   0.947   6.963  0.0214  1.4983 -0.2764
  412MOL0     H55569   5.436   0.820   7.237 -0.0553  0.7507  1.2702
  412MOL0     H55570   5.375   0.783   7.079 -1.2594 -0.0621 -0.4897
  412MOL0     H55571   5.240   0.941   7.366  2.1552  1.0134  0.9020
  412MOL0     H55572   5.053   1.151   7.402  0.9493 -1.0097 -0.1959
  412MOL0     H55573   5.016   1.239   7.256  1.2124 -1.2775 -3.6853
  412MOL0     H55574   4.909   0.958   7.349 -1.7534  1.2932  1.2987
  412MOL0     H55575   4.914   0.995   7.178 -3.3911 -1.5358 -0.3008
  412MOL0     H55576   4.767   1.199   7.236  1.4656 -0.9004 -1.1577
  412MOL0     H55577   4.744   1.132   7.403 -0.2669  0.9546  0.3534
  412MOL0     H55578   4.549   1.070   7.281 -0.6739 -0.0741  0.1370
  412MOL0     H55579   4.636   0.928   7.324 -0.1083 -1.5067 -2.6279
  412MOL0     H55580   4.645   0.861   6.890  0.6334  1.7306  0.3623
  412MOL0     H55581   4.438   0.819   6.636 -0.1637 -2.5301 -0.4251
  412MOL0     H55582   4.596   0.779   6.711  0.8526  0.1656  0.4649
  412MOL0     H55583   4.464   0.676   6.749  0.9743  0.3626  0.3558
  412MOL0     H55584   4.236   0.505   6.674  1.4872  1.9474 -3.5265
  412MOL0     H55585   4.055   0.338   6.597  0.3523  0.3226 -1.0194
  412MOL0     H55586   3.684   0.478   6.607  3.0663  1.4658 -0.7048
  412MOL0     H55587   3.690   0.507   6.438  0.0585  0.5109  0.9040
  412MOL0     H55588   3.646   0.251   6.406  0.2879 -0.1608  0.7185
  412MOL0     H55589   3.627   0.242   6.585 -1.3733 -0.0586  0.5580
  412MOL0     H55590   3.428   0.260   6.423 -0.4183  0.4718 -0.4645
  412MOL0     H55591   3.448   0.435   6.445  1.4618  0.5820  0.4765
  412MOL0     H55592   3.390   0.218   6.649  0.0794  2.1555  2.7218
  412MOL0     H55593   3.425   0.381   6.701  0.5112  0.2519  0.9767
  412MOL0     H55594   3.191   0.276   6.531  1.5175 -0.7880 -1.5206
  412MOL0     H55595   3.233   0.448   6.546  1.6604 -0.8121 -0.6185
  412MOL0     H55596   3.198   0.240   6.758 -1.0959  0.0103  2.9384
  412MOL0     H55597   3.234   0.417   6.789  0.0803 -0.5786  0.7850
  412MOL0     H55598   2.994   0.307   6.644  2.8860 -1.0378 -0.7421
  412MOL0     H55599   3.015   0.478   6.686 -0.1629  0.0810  0.3714
  412MOL0     H55600   2.844   0.381   6.822 -0.3243  1.4288 -0.1369
  412MOL0     H55601   2.982   0.416   6.935  1.6126 -1.4153 -0.4384
  412MOL0     H55602   3.805   0.671   6.509 -0.4559  2.9785  3.3770
  412MOL0     H55603   3.977   0.829   6.595 -0.5839 -0.5200  0.1563
  412MOL0     H55604   4.187   0.958   7.050  0.5655  0.8866 -0.0797
  412MOL0     H55605   4.368   1.011   7.189 -0.7773  0.6159 -0.0923
  412MOL0     H55606   6.256   0.656   7.529  0.6925 -0.2268  0.3127
  412MOL0     H55607   6.395   0.639   7.745 -0.2973  0.0481 -2.4577
  412MOL0     H55608   6.501   0.909   8.135 -0.0232  2.5875  1.9895
  412MOL0     H55609   6.625   0.906   8.315 -0.2611 -0.7996  0.8002
  412MOL0     H55610   6.781   0.774   8.456 -2.6110 -1.2819 -1.7287
  412MOL0     H55611   6.712   0.899   8.558 -3.1163 -0.6578  5.5420
  412MOL0     H55612   6.812   0.632   8.668  0.7733  0.3485 -0.7651
  412MOL0     H55613   6.737   0.749   8.764  0.2586  0.6486  0.1053
  412MOL0     H55614   6.903   0.928   8.667  2.3948  0.2305 -0.2427
  412MOL0     H55615   7.009   0.805   8.623  1.8191  4.5477  0.7432
  412MOL0     H55616   7.010   0.734   8.873  2.4038  1.0467  1.0570
  412MOL0     H55617   6.904   0.865   8.895 -0.9977  0.9286 -1.6339
  412MOL0     H55618   7.263   1.080   8.838 -0.6218  0.7264  2.5771
  412MOL0     H55619   6.385   0.603   8.491 -2.9067 -0.1702 -1.1911
  412MOL0     H55620   6.285   0.573   8.289  0.9673 -2.0652 -0.7372
  413MOL0     O55621   9.313   0.096  10.074  0.0505  0.3056  0.3564
  413MOL0     C55622   9.244   0.082  10.178 -0.1564 -0.0839  0.0614
  413MOL0     O55623   9.300   0.076  10.303  0.3159  0.4470 -0.1904
  413MOL0     C55624   9.436   0.107  10.298 -0.4004 -0.4451  0.3016
  413MOL0     C55625   9.523  -0.006  10.293  0.0648 -0.1805  0.0223
  413MOL0     C55626   9.659   0.004  10.312  0.6435  0.6205 -0.2200
  413MOL0     C55627   9.715   0.130  10.306 -0.2819 -0.4837 -0.2936
  413MOL0     O55628   9.857   0.139  10.285  0.2548  0.0028 -0.2940
  413MOL0     C55629   9.938   0.244  10.336 -0.5593  0.2256 -0.3093
  413MOL0     C55630  10.094   0.210  10.301  0.7234  0.5112  0.0620
  413MOL0     C55631  10.155   0.090  10.378  0.6300  0.6118 -0.3749
  413MOL0     C55632  10.183   0.106  10.523 -0.3916 -0.1000  0.0186
  413MOL0     C55633  10.232  -0.032  10.580  1.1909 -0.3348  0.0642
  413MOL0     C55634  10.253  -0.020  10.740  0.7961 -0.2482 -0.7784
  413MOL0     C55635  10.314  -0.142  10.790  0.2449  0.1148  0.2974
  413MOL0     C55636  10.299  -0.174  10.936 -0.0295 -1.1949 -1.5339
  413MOL0     N55637  10.166  -0.221  10.966 -0.0137 -0.0241  0.1482
  413MOL0     C55638  10.149  -0.358  10.978  0.4156  0.1264  0.2971
  413MOL0     C55639  10.042  -0.379  11.057  0.0648 -0.5303 -1.1439
  413MOL0     C55640   9.990  -0.519  11.091  0.1723  0.2119  0.1553
  413MOL0     C55641  10.081  -0.613  11.170 -0.9310 -0.1629  0.3734
  413MOL0     C55642  10.060  -0.764  11.162  0.3340  0.7606  0.3822
  413MOL0     C55643   9.912  -0.801  11.182  0.0500  0.3538 -0.8463
  413MOL0     O55644   9.870  -0.737  11.303  0.3112  0.4616  0.4356
  413MOL0     C55645   9.740  -0.776  11.342  0.0697 -0.9212  1.8281
  413MOL0     C55646   9.704  -0.801  11.470  0.5472  0.0008 -0.0887
  413MOL0     C55647   9.571  -0.831  11.514 -0.0993 -0.0936  0.1142
  413MOL0     C55648   9.543  -0.853  11.663 -0.6721  0.7028 -0.1486
  413MOL0     C55649   9.470  -0.841  11.414  0.0227  0.6694 -0.6276
  413MOL0     C55650   9.331  -0.892  11.448 -0.3636 -0.5248  1.1037
  413MOL0     O55651   9.259  -0.946  11.339 -0.6243 -0.3085  0.8029
  413MOL0     C55652   9.133  -0.957  11.323  1.2257 -0.5349 -0.6207
  413MOL0     C55653   9.036  -0.874  11.383  1.1353 -0.2300  0.3292
  413MOL0     C55654   8.902  -0.889  11.358  0.6927 -0.1504  0.2060
  413MOL0     C55655   8.867  -0.983  11.271  0.4948 -0.5395  0.8943
  413MOL0     O55656   8.736  -0.997  11.232 -0.1261  0.1405  0.1125
  413MOL0     C55657   8.680  -1.113  11.171  1.2600 -0.4077  0.1598
  413MOL0     C55658   8.528  -1.096  11.185  0.0793 -0.4927 -0.5823
  413MOL0     C55659   8.448  -1.215  11.133 -0.6036  0.3724  0.7078
  413MOL0     C55660   8.304  -1.200  11.160  0.8930 -1.0598  0.6712
  413MOL0     C55661   8.226  -1.326  11.104 -0.4601  0.8183  0.3639
  413MOL0     C55662   8.086  -1.320  11.151  0.4642  0.2590 -0.3756
  413MOL0     C55663   7.990  -1.441  11.111 -0.4967 -0.6832 -0.4178
  413MOL0     C55664   7.849  -1.434  11.183 -0.1993 -0.1896  0.6261
  413MOL0    Cl55665   7.768  -1.586  11.122 -0.3910 -0.0104  0.2614
  413MOL0     C55666   8.956  -1.069  11.205  0.3076  0.4592  0.1134
  413MOL0     C55667   9.089  -1.063  11.245 -0.4887 -0.4130  0.2507
  413MOL0     O55668   9.288  -0.868  11.558  0.5971  0.3627 -0.4194
  413MOL0     C55669   9.506  -0.799  11.285 -0.3293 -0.5417  0.5163
  413MOL0     C55670   9.637  -0.762  11.251  0.2318 -0.8174 -0.2281
  413MOL0     N55671  10.004  -0.258  11.114 -0.0357  0.0167  0.6299
  413MOL0     N55672  10.080  -0.165  11.056 -0.3529 -0.1242 -0.5805
  413MOL0     C55673   9.635   0.241  10.301 -0.0352 -0.0862 -0.3033
  413MOL0     C55674   9.496   0.232  10.308 -0.5464 -0.0216 -0.2169
  413MOL0     C55675   9.101   0.068  10.154 -0.2105  0.4422  0.1387
  413MOL0     C55676   9.006   0.079  10.262 -0.9876  0.1739 -1.0324
  413MOL0     C55677   8.872   0.085  10.234  0.0175 -0.0145 -0.5494
  413MOL0     C55678   8.819   0.059  10.104 -0.4544  0.6989 -0.4405
  413MOL0     O55679   8.682   0.050  10.072  0.1850  0.8966 -0.1200
  413MOL0     C55680   8.589   0.084  10.172  0.7696  0.4843  0.4782
  413MOL0     C55681   8.448   0.060  10.120  0.4165 -0.6358 -0.0910
  413MOL0     C55682   8.339   0.083  10.228 -0.4951  0.4197  0.6664
  413MOL0     C55683   8.313  -0.048  10.302  0.4933  0.4119 -0.1229
  413MOL0     C55684   8.194  -0.026  10.383  0.0261  0.3462 -0.0484
  413MOL0     C55685   8.087  -0.017  10.438  0.0294  0.3258  0.7187
  413MOL0     C55686   8.913   0.049  10.002  0.1971 -0.0836 -0.2279
  413MOL0     C55687   9.050   0.054  10.026  0.3547 -0.0389  0.4493
  413MOL0     H55688   9.489  -0.109  10.297 -1.4993  0.3220  0.3829
  413MOL0     H55689   9.727  -0.081  10.316 -1.4690 -1.1744 -0.9534
  413MOL0     H55690   9.915   0.334  10.280 -0.8276  0.2578 -0.1462
  413MOL0     H55691   9.926   0.253  10.444 -0.3000 -1.7188 -0.0753
  413MOL0     H55692  10.092   0.198  10.192 -2.5380 -0.4660  0.1393
  413MOL0     H55693  10.157   0.297  10.320  0.8472  0.2460  0.8781
  413MOL0     H55694  10.086   0.007  10.357 -0.1093  0.4736  2.2632
  413MOL0     H55695  10.253   0.067  10.334  0.3408  2.1402 -1.9257
  413MOL0     H55696  10.252   0.190  10.537 -1.0265  0.2771  0.9651
  413MOL0     H55697  10.085   0.134  10.564  0.1800  0.0056  1.3396
  413MOL0     H55698  10.159  -0.110  10.556  0.7237 -0.6762  2.2945
  413MOL0     H55699  10.323  -0.064  10.528  0.3018 -0.6164 -1.3533
  413MOL0     H55700  10.319   0.063  10.766 -0.7376  0.7535  0.0785
  413MOL0     H55701  10.158  -0.004  10.793 -0.3335 -2.7034 -1.9092
  413MOL0     H55702  10.273  -0.225  10.730  0.9812 -1.2176  1.5700
  413MOL0     H55703  10.419  -0.127  10.763 -0.7916  2.5346 -3.1209
  413MOL0     H55704  10.308  -0.077  10.987  0.7058  1.1660 -5.7231
  413MOL0     H55705  10.382  -0.239  10.965  2.7663  2.1608 -1.3803
  413MOL0     H55706  10.212  -0.434  10.931 -0.7505 -0.0401 -1.0849
  413MOL0     H55707   9.900  -0.522  11.154  0.3135 -0.6039  0.3247
  413MOL0     H55708   9.970  -0.570  10.997 -1.3558  0.6861  0.1934
  413MOL0     H55709  10.084  -0.580  11.274 -2.0577  0.9425  0.0832
  413MOL0     H55710  10.183  -0.605  11.132 -0.8860  0.9066  0.6856
  413MOL0     H55711  10.130  -0.813  11.231 -0.6252 -0.1826  0.6934
  413MOL0     H55712  10.087  -0.804  11.064  0.7162  1.8749  0.0184
  413MOL0     H55713   9.895  -0.909  11.189 -4.7064  0.9772  2.7515
  413MOL0     H55714   9.845  -0.765  11.104 -2.9840 -0.4846  1.1610
  413MOL0     H55715   9.782  -0.808  11.545  1.9036 -0.6136 -1.4990
  413MOL0     H55716   9.506  -0.761  11.711  0.5812  0.2864  1.7376
  413MOL0     H55717   9.481  -0.940  11.686  0.1843  0.3180  0.7784
  413MOL0     H55718   9.635  -0.884  11.713 -0.9293  0.9927  0.5254
  413MOL0     H55719   9.069  -0.790  11.443  2.2844  0.0617 -0.6628
  413MOL0     H55720   8.824  -0.843  11.417  1.2115 -0.5521  1.2254
  413MOL0     H55721   8.715  -1.118  11.067  1.6736  2.6994  0.0516
  413MOL0     H55722   8.713  -1.197  11.232 -0.3999 -2.6101 -1.7636
  413MOL0     H55723   8.501  -1.079  11.290  2.2336  0.3117 -0.1104
  413MOL0     H55724   8.494  -1.011  11.125 -1.5354  0.0859  1.0645
  413MOL0     H55725   8.490  -1.301  11.186 -1.0258  1.8490  3.6474
  413MOL0     H55726   8.448  -1.228  11.025  0.0911  0.2327  0.7199
  413MOL0     H55727   8.284  -1.198  11.267 -1.5832  0.3184  0.2479
  413MOL0     H55728   8.269  -1.109  11.111 -0.6852 -1.3206  1.2443
  413MOL0     H55729   8.282  -1.416  11.132  1.0158  0.7786 -2.3810
  413MOL0     H55730   8.220  -1.324  10.995 -0.4087  0.0229  0.3408
  413MOL0     H55731   8.072  -1.319  11.259 -1.1200  0.4405 -0.5529
  413MOL0     H55732   8.034  -1.237  11.103  0.9096  0.7434 -0.0253
  413MOL0     H55733   8.031  -1.536  11.146 -3.8276 -1.4985  1.7511
  413MOL0     H55734   7.988  -1.455  11.002  0.3447  0.3370 -0.5838
  413MOL0     H55735   7.798  -1.345  11.144  0.3723  1.1663  2.8035
  413MOL0     H55736   7.858  -1.433  11.292  1.6131  0.0415  0.4980
  413MOL0     H55737   8.926  -1.144  11.132  2.1536 -2.7423  2.4290
  413MOL0     H55738   9.165  -1.137  11.221 -1.5619 -1.9731  1.4840
  413MOL0     H55739   9.438  -0.792  11.201  1.5134  0.4341 -0.9583
  413MOL0     H55740   9.652  -0.712  11.157 -1.2949  1.8871  0.8602
  413MOL0     H55741   9.687   0.336  10.310  0.7276 -0.3683 -1.5510
  413MOL0     H55742   9.436   0.320  10.327  1.2542  1.1088  0.5473
  413MOL0     H55743   9.028   0.082  10.368 -4.3176  0.2711 -0.2574
  413MOL0     H55744   8.812   0.098  10.324  1.1851 -0.0499  0.2588
  413MOL0     H55745   8.613   0.017  10.255  4.1226  0.8513 -0.0430
  413MOL0     H55746   8.585   0.189  10.204 -1.9488  0.2522  1.1631
  413MOL0     H55747   8.439  -0.036  10.068 -2.4783  0.2884 -1.5030
  413MOL0     H55748   8.447   0.133  10.038  0.1558  0.4786  0.8795
  413MOL0     H55749   8.246   0.120  10.185 -0.5869 -2.1999 -1.6940
  413MOL0     H55750   8.375   0.164  10.293 -1.2966  1.7647 -0.5207
  413MOL0     H55751   8.396  -0.082  10.364 -1.7025 -1.8851  1.7906
  413MOL0     H55752   8.284  -0.124  10.229 -3.5634  2.1753 -0.6339
  413MOL0     H55753   7.987  -0.012  10.476  0.0968 -0.4371  1.0212
  413MOL0     H55754   8.870   0.033   9.904  0.1544 -0.7601 -0.1101
  413MOL0     H55755   9.103   0.059   9.931 -1.3552 -1.2598 -0.6181
  414MOL0     O55756   3.997  10.282   5.594  0.0035  0.2876  0.1736
  414MOL0     C55757   4.031  10.177   5.542 -0.4418 -0.0514 -0.2714
  414MOL0     O55758   3.963  10.068   5.532  0.2962  0.6635  0.0407
  414MOL0     C55759   3.827  10.067   5.538  0.2191  0.3065 -0.1192
  414MOL0     C55760   3.748  10.036   5.422 -0.0953 -0.4870 -0.1394
  414MOL0     C55761   3.610  10.033   5.433  0.1490 -0.4031 -0.1071
  414MOL0     C55762   3.551  10.051   5.556  0.1539  0.6353 -0.3269
  414MOL0     O55763   3.417  10.019   5.575 -0.0704 -0.1736 -0.0899
  414MOL0     C55764   3.375   9.897   5.516 -0.2662  0.2460 -0.2512
  414MOL0     C55765   3.224   9.878   5.523 -0.3310 -0.6458  0.6572
  414MOL0     C55766   3.180   9.758   5.438 -0.6401 -0.9888  0.3415
  414MOL0     C55767   3.028   9.750   5.419  0.9281  0.2131  0.6029
  414MOL0     C55768   3.001   9.625   5.334  0.1796  1.3982  0.0809
  414MOL0     C55769   2.844   9.612   5.334 -0.1774 -0.1613  0.4808
  414MOL0     C55770   2.783   9.472   5.305  0.4038 -0.3699  0.4305
  414MOL0     C55771   2.631   9.476   5.289 -0.3367 -0.1741  0.2167
  414MOL0     N55772   2.559   9.529   5.403  0.4786  0.3669 -0.5285
  414MOL0     C55773   2.444   9.596   5.388  0.8133  1.6118 -0.2152
  414MOL0     C55774   2.416   9.647   5.513  0.3239  0.0191 -0.0650
  414MOL0     C55775   2.298   9.739   5.556  0.1854  0.0299 -0.5086
  414MOL0     C55776   2.186   9.650   5.617 -0.9119  0.6973  0.6366
  414MOL0     C55777   2.056   9.732   5.610 -0.5529  0.1274  0.3903
  414MOL0     C55778   1.943   9.673   5.685  0.3205  0.5629 -0.3557
  414MOL0     O55779   1.833   9.758   5.683 -0.5400  0.1021  0.4463
  414MOL0     C55780   1.737   9.740   5.776  0.5356 -0.9479  0.1903
  414MOL0     C55781   1.633   9.828   5.780  0.0327 -0.8603  0.3301
  414MOL0     C55782   1.530   9.831   5.876 -0.2764  0.1358 -0.6736
  414MOL0     C55783   1.424   9.931   5.866 -0.1520 -0.5904 -0.4633
  414MOL0     C55784   1.529   9.729   5.981  0.0535 -0.0195  0.3308
  414MOL0     C55785   1.434   9.732   6.104  0.2903  0.9381  0.2520
  414MOL0     O55786   1.339   9.831   6.121  0.1240  0.4006  0.2295
  414MOL0     C55787   1.265   9.841   6.235 -0.4223  0.3135 -0.1776
  414MOL0     C55788   1.305   9.929   6.343  0.0271 -0.6552  0.8687
  414MOL0     C55789   1.236   9.942   6.454 -0.0642  0.6500  0.6050
  414MOL0     C55790   1.119   9.860   6.471 -0.2433 -0.2729  1.1109
  414MOL0     O55791   1.066   9.859   6.595  0.7212  0.6851  0.2997
  414MOL0     C55792   0.926   9.840   6.600 -0.0732  0.0161  1.1876
  414MOL0     C55793   0.863   9.901   6.723 -0.0209 -0.7259  0.0114
  414MOL0     C55794   0.713   9.876   6.727 -1.0301 -1.2374 -1.0635
  414MOL0     C55795   0.664   9.934   6.862  0.3283 -0.6249  0.3442
  414MOL0     C55796   0.513   9.950   6.888  0.4652  0.4399  0.2284
  414MOL0     C55797   0.475   9.987   7.030  0.4434 -0.2498 -0.2400
  414MOL0     C55798   0.335  10.032   7.056  0.3994 -0.1130  0.2875
  414MOL0     C55799   0.311  10.101   7.190  0.1612  0.8961  0.0254
  414MOL0    Cl55800   0.312   9.986   7.331 -0.2034 -0.2221 -0.5007
  414MOL0     C55801   1.080   9.778   6.363  0.7129  0.2401 -0.0189
  414MOL0     C55802   1.149   9.766   6.241  0.0542  1.0449 -0.4519
  414MOL0     O55803   1.446   9.641   6.191 -0.5550 -0.4506  0.3958
  414MOL0     C55804   1.631   9.638   5.982 -0.0767 -0.0217 -0.4090
  414MOL0     C55805   1.727   9.639   5.879 -0.1798 -0.0076 -0.8240
  414MOL0     N55806   2.504   9.587   5.603  0.2705  1.2119  0.9380
  414MOL0     N55807   2.591   9.522   5.538 -0.0421 -0.3534 -0.1121
  414MOL0     C55808   3.627  10.102   5.664 -0.0566  0.4970 -0.5841
  414MOL0     C55809   3.763  10.102   5.657 -0.7749 -0.3197 -0.9121
  414MOL0     C55810   4.165  10.177   5.490 -0.8774  0.2132  0.1598
  414MOL0     C55811   4.256  10.284   5.525  0.2521  0.6331  0.8958
  414MOL0     C55812   4.385  10.275   5.471  0.2466 -1.0407  0.4066
  414MOL0     C55813   4.434  10.177   5.391  1.1642  0.9577 -0.4307
  414MOL0     O55814   4.561  10.157   5.339  0.0964  0.0465 -0.0620
  414MOL0     C55815   4.672  10.222   5.397  0.6676 -0.3027  0.6316
  414MOL0     C55816   4.754  10.133   5.480  0.3341  0.8782  0.7654
  414MOL0     C55817   4.696  10.136   5.624 -0.2319  0.5900  0.2578
  414MOL0     C55818   4.784  10.067   5.737  0.2601 -0.1628  0.6128
  414MOL0     C55819   4.922  10.106   5.741  0.4780 -0.2154 -0.1046
  414MOL0     C55820   5.038  10.149   5.748 -0.7696 -0.1342  1.1572
  414MOL0     C55821   4.347  10.070   5.364  0.2971 -1.1956 -0.4948
  414MOL0     C55822   4.214  10.077   5.403 -0.8707  0.3610 -0.0185
  414MOL0     H55823   3.786  10.003   5.326 -1.5688 -4.0168  0.3552
  414MOL0     H55824   3.549  10.019   5.344  0.6536  2.4319 -1.0069
  414MOL0     H55825   3.417   9.870   5.419  1.0889  1.5943 -0.0600
  414MOL0     H55826   3.418   9.821   5.582 -2.3541 -0.4742  0.3807
  414MOL0     H55827   3.181   9.859   5.622  0.7363 -1.5350  0.9690
  414MOL0     H55828   3.192   9.975   5.482  1.4010 -0.6117 -0.7347
  414MOL0     H55829   3.215   9.764   5.334  3.0995 -0.1467  1.4775
  414MOL0     H55830   3.225   9.666   5.475  2.6321 -0.0093 -0.7734
  414MOL0     H55831   2.979   9.748   5.517  1.1096  0.2400  0.6940
  414MOL0     H55832   3.004   9.835   5.355  1.4563 -0.9675 -1.2297
  414MOL0     H55833   3.047   9.628   5.234  0.0413  1.0128  0.0050
  414MOL0     H55834   3.032   9.540   5.394 -0.3921 -0.9486 -2.7342
  414MOL0     H55835   2.802   9.640   5.431 -2.1834  0.5696 -0.5354
  414MOL0     H55836   2.811   9.686   5.261  0.3719  0.9577  1.3369
  414MOL0     H55837   2.827   9.440   5.211  1.5276  1.1339  0.4062
  414MOL0     H55838   2.791   9.401   5.388 -0.2408  0.9768  1.7214
  414MOL0     H55839   2.604   9.371   5.277 -1.0695  0.0918 -0.5189
  414MOL0     H55840   2.611   9.538   5.201  2.1572  0.3954 -0.0401
  414MOL0     H55841   2.399   9.614   5.291 -3.4222  2.7477  1.7163
  414MOL0     H55842   2.329   9.810   5.634  1.6038 -2.4575  1.3552
  414MOL0     H55843   2.268   9.793   5.466  1.2531 -0.3928 -1.1285
  414MOL0     H55844   2.219   9.617   5.716  1.8900 -3.1005 -1.3170
  414MOL0     H55845   2.169   9.549   5.578 -3.0304  0.2142  2.5519
  414MOL0     H55846   2.033   9.743   5.504 -1.1614 -0.3119  0.4751
  414MOL0     H55847   2.068   9.834   5.650 -0.6599  0.0703  0.5682
  414MOL0     H55848   1.981   9.658   5.787 -0.1192 -0.1987 -0.3004
  414MOL0     H55849   1.916   9.580   5.634  0.8803  0.6793 -0.8734
  414MOL0     H55850   1.632   9.908   5.706  0.3497  0.4210  1.6785
  414MOL0     H55851   1.421   9.971   5.764 -1.1420  1.4831  0.3283
  414MOL0     H55852   1.325   9.886   5.878 -0.5460  0.6236  1.0815
  414MOL0     H55853   1.433  10.018   5.932 -1.8748 -1.2018  0.6151
  414MOL0     H55854   1.398   9.984   6.332 -0.2711 -0.1080  1.0596
  414MOL0     H55855   1.277   9.998   6.538  0.5330 -1.5490  1.8590
  414MOL0     H55856   0.866   9.888   6.522 -0.9419 -1.1801  1.0912
  414MOL0     H55857   0.898   9.736   6.583 -0.5719  0.4208 -0.6738
  414MOL0     H55858   0.906   9.851   6.811  3.4415  2.6642  0.4887
  414MOL0     H55859   0.900  10.004   6.728  2.2655 -1.2861 -2.7071
  414MOL0     H55860   0.695   9.768   6.724 -0.8493 -1.2466 -2.1165
  414MOL0     H55861   0.666   9.925   6.641  0.4074  0.3493 -0.9841
  414MOL0     H55862   0.697   9.878   6.949  0.3486  0.2007  0.8792
  414MOL0     H55863   0.696  10.038   6.872  0.7369 -0.2246 -3.5412
  414MOL0     H55864   0.469   9.850   6.878  1.2897 -0.1674  2.2049
  414MOL0     H55865   0.472  10.026   6.820 -3.4466  0.7204  2.5720
  414MOL0     H55866   0.487   9.908   7.105 -1.8276  0.0869  0.5778
  414MOL0     H55867   0.534  10.075   7.057  0.2050 -0.2409  0.2747
  414MOL0     H55868   0.273   9.944   7.036  0.8420  0.0919 -2.3190
  414MOL0     H55869   0.303  10.113   6.990  0.1348  0.1189  0.6984
  414MOL0     H55870   0.218  10.158   7.200  0.4210  1.7278 -1.8601
  414MOL0     H55871   0.398  10.166   7.200 -0.1440  1.0415  2.0933
  414MOL0     H55872   1.004   9.701   6.371 -0.7174  1.5232 -0.7944
  414MOL0     H55873   1.114   9.698   6.164  1.0477  1.9089 -1.7030
  414MOL0     H55874   1.639   9.557   6.054 -0.2210 -1.0893 -1.5522
  414MOL0     H55875   1.812   9.572   5.880 -0.8132 -0.9162 -2.4576
  414MOL0     H55876   3.572  10.132   5.752 -0.3789 -0.8715 -0.2912
  414MOL0     H55877   3.822  10.115   5.747 -1.3207  2.5007 -0.8716
  414MOL0     H55878   4.227  10.369   5.585  0.8501  0.9940  0.6863
  414MOL0     H55879   4.447  10.362   5.486  0.1793 -1.3340  2.7478
  414MOL0     H55880   4.740  10.247   5.314  1.1446 -0.9014  0.8405
  414MOL0     H55881   4.652  10.318   5.447  0.2249 -0.4026  0.6539
  414MOL0     H55882   4.860  10.162   5.475  0.8698 -1.1540 -0.9037
  414MOL0     H55883   4.753  10.030   5.445 -0.5070  2.3458 -4.3748
  414MOL0     H55884   4.609  10.069   5.622  1.4510 -1.8921  2.3340
  414MOL0     H55885   4.669  10.238   5.650 -0.1325  0.8620 -0.6639
  414MOL0     H55886   4.786   9.960   5.715  1.6191  0.3184 -1.9926
  414MOL0     H55887   4.735  10.084   5.834 -0.1145  3.5147 -0.1058
  414MOL0     H55888   5.125  10.210   5.759 -0.3842 -0.7531  1.6450
  414MOL0     H55889   4.393   9.993   5.302  1.0216 -0.0923 -1.3650
  414MOL0     H55890   4.151   9.990   5.385  0.5500 -0.4011 -1.5976
  415MOL0     O55891   6.380   8.739   9.249  0.8133 -0.1944 -0.4343
  415MOL0     C55892   6.259   8.707   9.245 -0.0436 -0.0104 -0.2702
  415MOL0     O55893   6.165   8.756   9.153  0.3279  0.3448 -0.5078
  415MOL0     C55894   6.207   8.849   9.070  0.1346 -0.0510  0.7127
  415MOL0     C55895   6.124   8.961   9.062  0.4211 -0.0433 -0.5624
  415MOL0     C55896   6.159   9.064   8.974  0.0496 -0.0220 -0.6252
  415MOL0     C55897   6.268   9.045   8.884  1.2035  0.8506  0.5157
  415MOL0     O55898   6.282   9.153   8.801 -0.0871 -0.9471 -0.7614
  415MOL0     C55899   6.389   9.150   8.706  0.1862  0.4626 -0.5935
  415MOL0     C55900   6.370   9.273   8.622  0.7504 -0.6884  0.2052
  415MOL0     C55901   6.236   9.262   8.538  0.3636  0.1980 -0.4702
  415MOL0     C55902   6.218   9.383   8.452 -0.1871  0.6526 -0.2938
  415MOL0     C55903   6.114   9.368   8.341  0.7013  0.9217 -0.3429
  415MOL0     C55904   6.131   9.479   8.227  0.5129  0.3742 -0.8144
  415MOL0     C55905   6.037   9.447   8.109 -0.6368  0.2977  0.5790
  415MOL0     C55906   6.029   9.568   8.026  0.5907 -0.0072 -0.3824
  415MOL0     N55907   6.146   9.600   7.943  0.4228 -0.1927 -0.7330
  415MOL0     C55908   6.188   9.532   7.831 -0.4331 -0.6284 -0.6478
  415MOL0     C55909   6.305   9.584   7.787  0.1777  0.2705 -0.3843
  415MOL0     C55910   6.385   9.565   7.662  0.6107  0.4262 -0.8977
  415MOL0     C55911   6.315   9.597   7.529 -0.1377  0.4202 -0.4916
  415MOL0     C55912   6.289   9.753   7.515 -0.1519  0.4606  0.8108
  415MOL0     C55913   6.250   9.798   7.374 -1.2954  0.9851 -1.1515
  415MOL0     O55914   6.161   9.712   7.301 -0.4106 -0.4309  0.6863
  415MOL0     C55915   6.027   9.733   7.314  0.6847 -0.8607 -0.5932
  415MOL0     C55916   5.936   9.662   7.238  0.1974  0.4417 -0.5118
  415MOL0     C55917   5.795   9.672   7.242 -0.2249  0.3927 -0.2022
  415MOL0     C55918   5.713   9.583   7.143 -0.1184 -0.3989  0.0836
  415MOL0     C55919   5.739   9.771   7.324  0.0053 -0.7711 -0.3291
  415MOL0     C55920   5.596   9.802   7.337 -0.6237 -0.1764  0.4979
  415MOL0     O55921   5.565   9.913   7.416 -0.2418  0.6859  0.3443
  415MOL0     C55922   5.448   9.934   7.488  0.9995  0.0518 -0.2359
  415MOL0     C55923   5.365   9.825   7.527 -0.5368 -0.6333  0.5519
  415MOL0     C55924   5.252   9.841   7.596  0.5496  0.1373  0.3434
  415MOL0     C55925   5.208   9.969   7.619 -0.1040  0.1713  0.5232
  415MOL0     O55926   5.088   9.970   7.696  0.0860  0.7759  0.5409
  415MOL0     C55927   5.004  10.089   7.703 -0.6592 -0.7144  0.0784
  415MOL0     C55928   5.040  10.168   7.833 -0.1862  1.1055  0.2621
  415MOL0     C55929   4.927  10.274   7.866  0.1744 -0.1192  0.0609
  415MOL0     C55930   4.980  10.381   7.962  0.4498 -0.9173  0.3468
  415MOL0     C55931   5.022  10.346   8.103 -0.1869 -0.2116 -0.3075
  415MOL0     C55932   4.912  10.334   8.205 -0.2193 -0.1771  0.5666
  415MOL0     C55933   4.821  10.452   8.219  0.2648 -0.0952  0.0949
  415MOL0     C55934   4.790  10.456   8.371  0.4509 -0.1053 -0.8984
  415MOL0    Cl55935   4.677  10.313   8.398  0.1189 -0.0923  0.2525
  415MOL0     C55936   5.284  10.083   7.573  0.4421  0.0358 -0.2220
  415MOL0     C55937   5.403  10.062   7.504  0.0020  0.2344  0.5528
  415MOL0     O55938   5.512   9.727   7.292  0.2020  0.8489  0.1841
  415MOL0     C55939   5.834   9.850   7.405 -0.0731  1.4973 -0.3972
  415MOL0     C55940   5.973   9.831   7.399 -0.7023 -0.2904  0.1915
  415MOL0     N55941   6.338   9.682   7.874 -0.3305 -0.5269  0.1399
  415MOL0     N55942   6.241   9.695   7.965 -0.5892 -0.2869  0.5972
  415MOL0     C55943   6.346   8.931   8.893 -0.4604 -0.1151 -0.1172
  415MOL0     C55944   6.317   8.837   8.989 -0.1600  0.5935  0.2366
  415MOL0     C55945   6.222   8.590   9.323  1.1310 -1.3565  0.3824
  415MOL0     C55946   6.307   8.504   9.384  0.3537  0.0921 -0.4834
  415MOL0     C55947   6.269   8.390   9.467 -0.3668 -0.3923  0.1583
  415MOL0     C55948   6.135   8.355   9.470 -0.0608 -0.5942 -0.4503
  415MOL0     O55949   6.095   8.254   9.555 -0.1423 -0.1709 -0.4425
  415MOL0     C55950   6.101   8.126   9.490  0.0624  0.0269 -0.4661
  415MOL0     C55951   6.011   8.016   9.536 -0.1601 -0.8168 -0.1446
  415MOL0     C55952   5.874   8.061   9.590 -0.4355  0.5970  0.0772
  415MOL0     C55953   5.787   8.154   9.509  0.2399 -0.4337  0.5290
  415MOL0     C55954   5.750   8.101   9.382 -0.1197  1.1476 -0.5482
  415MOL0     C55955   5.720   8.078   9.263  0.8277  0.7140 -0.0923
  415MOL0     C55956   6.046   8.444   9.403  1.1006  1.3649 -0.6980
  415MOL0     C55957   6.085   8.556   9.333  0.2459 -0.6019  0.0233
  415MOL0     H55958   6.039   8.961   9.130  1.9018 -1.9886  1.4248
  415MOL0     H55959   6.084   9.143   8.975 -3.1093 -2.6791  2.4642
  415MOL0     H55960   6.488   9.144   8.751 -0.3285 -2.3450  0.3477
  415MOL0     H55961   6.388   9.056   8.650  1.1057 -1.0407  1.7695
  415MOL0     H55962   6.357   9.364   8.681  1.4757  1.8353 -3.2063
  415MOL0     H55963   6.457   9.281   8.556  1.0823 -0.4743  0.6687
  415MOL0     H55964   6.239   9.170   8.478 -1.6304  0.7833 -1.5350
  415MOL0     H55965   6.146   9.255   8.599  0.0964 -0.9586 -0.9627
  415MOL0     H55966   6.194   9.466   8.519 -2.9208 -0.1886 -0.0936
  415MOL0     H55967   6.309   9.407   8.396  1.0498 -0.3216  1.2499
  415MOL0     H55968   6.122   9.273   8.288  0.3108  2.0458 -2.5304
  415MOL0     H55969   6.016   9.381   8.388  1.1080  3.2734 -0.0512
  415MOL0     H55970   6.109   9.576   8.272 -2.5042  0.5173 -2.3641
  415MOL0     H55971   6.236   9.482   8.196  1.0868  0.5611  1.0003
  415MOL0     H55972   6.086   9.370   8.048 -0.6407  0.3275  0.5373
  415MOL0     H55973   5.939   9.418   8.147  0.1225 -0.8131  1.7368
  415MOL0     H55974   5.994   9.654   8.084  3.1933  0.2084  0.9720
  415MOL0     H55975   5.941   9.549   7.963  1.2829 -1.4601 -0.9343
  415MOL0     H55976   6.136   9.455   7.775  1.4288 -1.2360 -1.5950
  415MOL0     H55977   6.479   9.620   7.671  1.1950 -0.5079 -1.1967
  415MOL0     H55978   6.421   9.462   7.653  1.4843  0.4554  1.4648
  415MOL0     H55979   6.230   9.529   7.523  1.8827 -2.4448  0.9197
  415MOL0     H55980   6.383   9.572   7.447  2.2080  1.9901  0.8597
  415MOL0     H55981   6.377   9.814   7.537  0.1388  0.3706 -0.0761
  415MOL0     H55982   6.213   9.786   7.587 -0.4761  2.2789 -0.3334
  415MOL0     H55983   6.340   9.788   7.313 -1.3483  1.1539 -1.2559
  415MOL0     H55984   6.220   9.903   7.369  1.2091  1.7249 -1.7394
  415MOL0     H55985   5.974   9.594   7.162  0.6672  0.8771 -0.6741
  415MOL0     H55986   5.778   9.509   7.096  1.3073  2.0303 -2.0275
  415MOL0     H55987   5.633   9.530   7.196 -2.2271  1.5660 -0.9837
  415MOL0     H55988   5.659   9.643   7.069  1.2238  1.4872  0.5873
  415MOL0     H55989   5.395   9.724   7.503  1.5848  0.1629 -0.3044
  415MOL0     H55990   5.194   9.753   7.622 -3.1933  1.9487 -1.1982
  415MOL0     H55991   5.025  10.158   7.620 -1.1395  1.0794  1.3807
  415MOL0     H55992   4.899  10.060   7.697 -1.1363  1.1203 -1.5854
  415MOL0     H55993   5.035  10.086   7.906  1.6126  0.4670 -0.2912
  415MOL0     H55994   5.139  10.213   7.832 -0.9578  2.9151 -1.7656
  415MOL0     H55995   4.832  10.235   7.903  0.3188  1.8032  2.6871
  415MOL0     H55996   4.912  10.316   7.766  3.8478 -0.9876 -1.0050
  415MOL0     H55997   5.072  10.425   7.922  1.4275 -2.3136  0.9756
  415MOL0     H55998   4.910  10.465   7.966  0.8203 -0.6397  1.4709
  415MOL0     H55999   5.088  10.431   8.121  1.6551 -0.4489 -4.6428
  415MOL0     H56000   5.095  10.264   8.104  2.5796  2.0863 -0.9009
  415MOL0     H56001   4.858  10.241   8.186  0.4777  0.0612 -3.2206
  415MOL0     H56002   4.969  10.327   8.298 -1.0312 -1.8474  0.9651
  415MOL0     H56003   4.730  10.441   8.160  0.2836  1.3476 -0.2301
  415MOL0     H56004   4.870  10.544   8.186 -1.7269 -0.3720 -4.4031
  415MOL0     H56005   4.735  10.549   8.392  0.0641 -0.4492 -0.3788
  415MOL0     H56006   4.875  10.447   8.439 -0.8270  1.3394  1.0017
  415MOL0     H56007   5.250  10.186   7.579 -5.5588 -1.4866 -1.5822
  415MOL0     H56008   5.466  10.143   7.470  1.6336 -1.4751 -0.7156
  415MOL0     H56009   5.795   9.922   7.477 -0.7401  0.8793 -0.1278
  415MOL0     H56010   6.036   9.893   7.461 -0.8218 -1.9254  2.0342
  415MOL0     H56011   6.430   8.930   8.824 -2.6692 -0.2691 -3.0004
  415MOL0     H56012   6.383   8.751   8.999  3.7701  3.3895  0.7893
  415MOL0     H56013   6.414   8.520   9.383  1.0473 -2.8960  3.2323
  415MOL0     H56014   6.349   8.330   9.510 -1.5832 -0.4048  2.5497
  415MOL0     H56015   6.069   8.146   9.388  0.9660 -0.4351 -0.8542
  415MOL0     H56016   6.206   8.096   9.485  0.0839  0.0851 -0.3780
  415MOL0     H56017   6.064   7.968   9.618  0.2634  2.7988  1.9401
  415MOL0     H56018   6.007   7.946   9.452  1.0743  0.4362 -1.2936
  415MOL0     H56019   5.904   8.110   9.684  0.9592  1.4693 -0.7954
  415MOL0     H56020   5.812   7.973   9.609 -0.5715  0.6281 -0.2222
  415MOL0     H56021   5.853   8.238   9.488 -0.2479 -0.3005 -0.5042
  415MOL0     H56022   5.699   8.184   9.567 -1.0098 -0.8249 -1.0875
  415MOL0     H56023   5.701   8.060   9.159  1.7433  1.4730 -0.4064
  415MOL0     H56024   5.940   8.422   9.415  0.8018  0.2122 -4.2891
  415MOL0     H56025   6.010   8.621   9.289  0.2459 -0.6965 -0.1175
  416MOL0     O56026   2.997  11.211   5.800  0.2659 -0.7044  0.8523
  416MOL0     C56027   3.076  11.283   5.850 -1.2097  0.4510  0.7140
  416MOL0     O56028   3.083  11.420   5.849  0.6072  0.4450  0.1133
  416MOL0     C56029   2.992  11.477   5.754 -0.0523 -0.2336  0.2861
  416MOL0     C56030   2.884  11.556   5.808 -0.6335 -0.2444  0.9496
  416MOL0     C56031   2.806  11.622   5.716  0.9518 -0.3519  0.9489
  416MOL0     C56032   2.823  11.608   5.575 -0.2620  0.2950 -0.5062
  416MOL0     O56033   2.745  11.678   5.489 -0.5082  0.5285 -0.2810
  416MOL0     C56034   2.704  11.616   5.365 -0.8158 -0.0160 -1.0257
  416MOL0     C56035   2.578  11.670   5.300  0.5133  0.5677  1.0263
  416MOL0     C56036   2.571  11.820   5.277  0.5031 -0.1720 -0.1988
  416MOL0     C56037   2.464  11.850   5.174  0.8891  0.4829  0.2885
  416MOL0     C56038   2.419  11.995   5.168 -0.0127  0.1415 -0.6623
  416MOL0     C56039   2.361  12.034   5.028  0.1524 -0.3057  0.9340
  416MOL0     C56040   2.395  12.181   4.991 -0.0597  0.2212 -0.1333
  416MOL0     C56041   2.283  12.246   4.902  0.8637 -0.5315  0.9038
  416MOL0     N56042   2.170  12.320   4.970  0.4695  0.5343  0.0542
  416MOL0     C56043   2.070  12.249   5.026 -0.0201  0.5614  0.1001
  416MOL0     C56044   1.989  12.344   5.074  0.6231  0.6107 -0.0480
  416MOL0     C56045   1.879  12.304   5.165 -0.7754 -0.7985  0.6422
  416MOL0     C56046   1.843  12.421   5.257  0.5097  0.1758  0.2613
  416MOL0     C56047   1.773  12.380   5.391  0.8009  0.4651  0.1835
  416MOL0     C56048   1.651  12.278   5.374  0.4266  0.1216 -0.6246
  416MOL0     O56049   1.557  12.315   5.275 -0.2261  1.0394 -0.3879
  416MOL0     C56050   1.442  12.236   5.257  1.2892  0.4853  0.2010
  416MOL0     C56051   1.353  12.276   5.155 -0.0439 -0.3470 -0.3775
  416MOL0     C56052   1.227  12.225   5.136  0.4383  0.7250 -0.0842
  416MOL0     C56053   1.147  12.263   5.011 -0.0382  0.0457 -0.3598
  416MOL0     C56054   1.185  12.119   5.222 -0.1125 -0.2140  0.7866
  416MOL0     C56055   1.051  12.061   5.223 -0.1293  0.5582 -0.1010
  416MOL0     O56056   1.009  12.005   5.339 -0.3111  0.0650  0.2518
  416MOL0     C56057   0.872  12.011   5.368  0.6343 -0.1809 -0.2188
  416MOL0     C56058   0.827  11.902   5.439  0.0584  0.8039 -0.0380
  416MOL0     C56059   0.687  11.890   5.458 -0.5747 -0.1603 -0.2212
  416MOL0     C56060   0.596  11.979   5.401  0.8063  0.1295  0.7263
  416MOL0     O56061   0.461  11.958   5.399  0.0259  0.0940 -0.8595
  416MOL0     C56062   0.396  11.898   5.507 -0.3204 -0.2827 -0.4172
  416MOL0     C56063   0.245  11.919   5.486 -0.0816  0.2356 -0.0058
  416MOL0     C56064   0.184  11.829   5.376 -0.1189  0.0985 -0.5207
  416MOL0     C56065   0.020  11.822   5.384 -0.0265  0.3090  0.0426
  416MOL0     C56066  -0.030  11.712   5.287  0.1659 -0.1978 -0.9151
  416MOL0     C56067  -0.189  11.702   5.300 -0.7981  1.0054 -0.8366
  416MOL0     C56068  -0.238  11.594   5.210 -0.4321 -0.0852  0.0419
  416MOL0     C56069  -0.382  11.568   5.224  0.6007  0.6463 -0.1506
  416MOL0    Cl56070  -0.428  11.423   5.117  0.1601 -0.0717  0.3176
  416MOL0     C56071   0.646  12.095   5.347 -0.4635  0.1952  0.4621
  416MOL0     C56072   0.781  12.116   5.333  0.0363  0.1009  0.5972
  416MOL0     O56073   0.977  12.069   5.124 -0.3784  0.2953  0.1682
  416MOL0     C56074   1.276  12.070   5.321  0.3880 -0.5847 -0.0744
  416MOL0     C56075   1.397  12.132   5.340  0.2565 -0.4078 -0.2716
  416MOL0     N56076   2.029  12.474   5.031 -0.0399 -0.2904  0.9253
  416MOL0     N56077   2.135  12.449   4.962 -0.2696  0.0678  0.4981
  416MOL0     C56078   2.928  11.529   5.530 -0.8649  0.6603 -0.5974
  416MOL0     C56079   3.007  11.454   5.616 -1.3471 -0.5252 -0.5756
  416MOL0     C56080   3.163  11.217   5.942  0.6241  0.9228  0.6831
  416MOL0     C56081   3.251  11.293   6.015 -0.1797 -0.4960 -0.0646
  416MOL0     C56082   3.343  11.241   6.102 -0.3473  0.4343  0.1114
  416MOL0     C56083   3.351  11.097   6.121 -0.4104 -0.2433 -0.1867
  416MOL0     O56084   3.450  11.050   6.199  0.2481 -0.8141 -0.3673
  416MOL0     C56085   3.437  10.909   6.250  0.0377 -0.2877  0.3935
  416MOL0     C56086   3.506  10.810   6.152 -1.0976  0.4014  0.3766
  416MOL0     C56087   3.541  10.674   6.213  0.2300  0.0697 -0.6318
  416MOL0     C56088   3.644  10.688   6.328 -0.0871 -0.4291 -0.5137
  416MOL0     C56089   3.720  10.562   6.352  0.3111  0.1569 -0.9293
  416MOL0     C56090   3.785  10.459   6.369  0.4042  0.1966 -0.0235
  416MOL0     C56091   3.259  11.008   6.056  0.3803 -0.9022  0.1504
  416MOL0     C56092   3.161  11.075   5.971 -0.5547  0.1515 -0.3930
  416MOL0     H56093   2.872  11.575   5.914  2.0964  0.2789  1.2439
  416MOL0     H56094   2.733  11.694   5.752 -0.4562 -0.3033 -1.7614
  416MOL0     H56095   2.777  11.621   5.284 -0.7787 -0.1351 -1.0001
  416MOL0     H56096   2.681  11.512   5.391 -3.5752  0.9544  0.9615
  416MOL0     H56097   2.560  11.614   5.209  0.3903  1.3120  0.5844
  416MOL0     H56098   2.500  11.644   5.372  0.3628 -0.7204  0.4129
  416MOL0     H56099   2.545  11.866   5.373 -2.2523 -1.3565 -0.2868
  416MOL0     H56100   2.668  11.857   5.241  1.5065 -0.5241  1.9609
  416MOL0     H56101   2.507  11.828   5.076  0.4223 -0.4274  0.2851
  416MOL0     H56102   2.391  11.771   5.192  1.7068 -0.0276  1.4659
  416MOL0     H56103   2.338  12.018   5.238  0.5188 -1.8173  0.6934
  416MOL0     H56104   2.499  12.062   5.201 -2.3509  2.7851  0.0162
  416MOL0     H56105   2.395  11.964   4.951 -1.8582  0.5143 -0.7900
  416MOL0     H56106   2.253  12.017   5.023  0.4676 -2.2642 -0.6591
  416MOL0     H56107   2.422  12.243   5.077  1.2806 -0.8919  0.2886
  416MOL0     H56108   2.487  12.175   4.932  0.0238 -0.6122  0.0690
  416MOL0     H56109   2.253  12.166   4.834  0.0157  0.3854  0.1822
  416MOL0     H56110   2.318  12.334   4.848 -0.2868  0.7556  2.1605
  416MOL0     H56111   2.065  12.143   5.044  0.4279  0.3538 -0.8908
  416MOL0     H56112   1.796  12.268   5.103  2.6587 -3.2118 -3.0933
  416MOL0     H56113   1.902  12.215   5.223  0.0287 -0.8272  0.2944
  416MOL0     H56114   1.775  12.484   5.199  1.9785  1.1384 -0.4773
  416MOL0     H56115   1.930  12.480   5.288 -0.7176  0.3661  3.7914
  416MOL0     H56116   1.730  12.467   5.441 -0.4359 -0.2463  0.4020
  416MOL0     H56117   1.851  12.338   5.455  0.8971 -1.3510 -1.0385
  416MOL0     H56118   1.603  12.271   5.472 -0.1309 -1.2594 -0.9697
  416MOL0     H56119   1.690  12.181   5.344  0.3818 -0.4842  1.1842
  416MOL0     H56120   1.398  12.356   5.098 -1.1910  0.3472 -0.3417
  416MOL0     H56121   1.052  12.306   5.042  1.7673  3.0479  1.5445
  416MOL0     H56122   1.205  12.338   4.956 -1.1294  0.1862 -1.3617
  416MOL0     H56123   1.129  12.175   4.948  2.1622  0.0754 -1.1204
  416MOL0     H56124   0.887  11.819   5.475 -2.0286 -0.7601  0.0695
  416MOL0     H56125   0.651  11.801   5.510 -1.0162 -0.0088 -0.2604
  416MOL0     H56126   0.426  11.793   5.509  1.7801  0.2715  1.2042
  416MOL0     H56127   0.426  11.944   5.602 -0.6162  0.0373 -0.4757
  416MOL0     H56128   0.196  11.896   5.581  0.1100  0.3254  0.1153
  416MOL0     H56129   0.236  12.025   5.460  0.9176  0.3394  0.0375
  416MOL0     H56130   0.227  11.731   5.398  1.2926  0.5536 -1.1700
  416MOL0     H56131   0.221  11.853   5.276 -1.6681 -1.3302 -1.4939
  416MOL0     H56132  -0.001  11.788   5.486  0.8774  2.1108  0.8806
  416MOL0     H56133  -0.019  11.921   5.362 -1.2238 -0.4203 -1.3083
  416MOL0     H56134   0.012  11.616   5.318  0.2224 -1.1152 -3.5785
  416MOL0     H56135  -0.002  11.740   5.185 -0.2602  1.2100 -0.6720
  416MOL0     H56136  -0.225  11.694   5.403 -0.9286 -2.4613 -1.0426
  416MOL0     H56137  -0.225  11.800   5.267  0.1105  1.9480  0.8282
  416MOL0     H56138  -0.190  11.497   5.224 -1.4154 -1.5228 -4.6661
  416MOL0     H56139  -0.205  11.624   5.110  0.6073  3.9527  1.3709
  416MOL0     H56140  -0.436  11.658   5.194 -0.6405 -0.0853 -0.1798
  416MOL0     H56141  -0.395  11.541   5.329  0.2133 -1.6256 -0.7319
  416MOL0     H56142   0.584  12.176   5.311 -0.1353 -0.2877 -1.2600
  416MOL0     H56143   0.816  12.203   5.278 -1.4871  1.9799  2.4457
  416MOL0     H56144   1.258  11.989   5.391  0.4708 -0.4662  0.0822
  416MOL0     H56145   1.453  12.100   5.427  0.7889  0.3441 -0.3320
  416MOL0     H56146   2.945  11.526   5.422 -1.5602  1.4705 -0.7374
  416MOL0     H56147   3.086  11.384   5.590  0.5250  1.3761 -0.2207
  416MOL0     H56148   3.260  11.401   6.025  1.0022 -0.6054  0.1535
  416MOL0     H56149   3.419  11.304   6.148  0.6605  1.2903 -2.5661
  416MOL0     H56150   3.487  10.903   6.347 -0.3821  1.7972  0.7957
  416MOL0     H56151   3.330  10.893   6.268  0.1840 -0.1616  1.4891
  416MOL0     H56152   3.600  10.847   6.111  0.0421 -1.6544  0.9921
  416MOL0     H56153   3.440  10.785   6.069 -0.6306 -1.3784  0.4957
  416MOL0     H56154   3.584  10.611   6.134  0.4424 -0.8470  0.1962
  416MOL0     H56155   3.445  10.633   6.247 -0.0587 -0.9378 -2.5358
  416MOL0     H56156   3.600  10.713   6.426  2.0918  0.8183  0.1972
  416MOL0     H56157   3.709  10.775   6.315 -0.0889 -0.4236 -0.4888
  416MOL0     H56158   3.861  10.385   6.377  2.3903  2.1421  0.1032
  416MOL0     H56159   3.248  10.900   6.060 -1.8398 -0.8204 -1.8322
  416MOL0     H56160   3.092  11.009   5.920 -0.2613 -0.4123 -0.0578
  417MOL0     O56161   1.597   9.232   3.612  0.2773 -0.4961  0.3350
  417MOL0     C56162   1.670   9.211   3.710  0.4775 -0.2766 -0.5981
  417MOL0     O56163   1.620   9.182   3.839 -0.0837  0.2256 -0.1006
  417MOL0     C56164   1.486   9.141   3.852  0.1563  0.0099 -0.8210
  417MOL0     C56165   1.439   9.014   3.803 -0.5035 -0.8223  0.3245
  417MOL0     C56166   1.302   8.990   3.805  0.1063  0.2375 -0.8060
  417MOL0     C56167   1.214   9.066   3.874  0.5194 -0.4527  0.6624
  417MOL0     O56168   1.085   9.022   3.900 -0.4444  0.8103  0.3320
  417MOL0     C56169   0.981   9.119   3.914 -0.6049  0.0208 -0.3717
  417MOL0     C56170   0.857   9.030   3.944 -0.6041 -0.4619  0.4123
  417MOL0     C56171   0.728   9.110   3.943  0.1568 -0.3170  0.2480
  417MOL0     C56172   0.610   9.030   3.996  0.0233  0.1850  0.0845
  417MOL0     C56173   0.488   9.122   4.050 -0.2272 -0.0039  1.0944
  417MOL0     C56174   0.366   9.045   4.101  0.6314  0.4306 -0.6975
  417MOL0     C56175   0.375   8.994   4.250  0.6591 -0.5193  0.8218
  417MOL0     C56176   0.272   8.893   4.282 -0.1887 -0.1161 -0.4145
  417MOL0     N56177   0.282   8.850   4.423  0.8029  0.0864 -0.4236
  417MOL0     C56178   0.274   8.940   4.524  0.0332  0.0313 -0.3160
  417MOL0     C56179   0.289   8.876   4.639 -0.9640 -0.1439 -0.1597
  417MOL0     C56180   0.308   8.953   4.771  0.1481 -0.0265  0.4911
  417MOL0     C56181   0.183   8.923   4.853 -0.4948 -0.0486 -0.4189
  417MOL0     C56182   0.061   8.979   4.795  0.0676  0.3078  0.1087
  417MOL0     C56183  -0.059   8.971   4.893 -0.0010 -1.4252  0.2884
  417MOL0     O56184  -0.177   9.007   4.817 -0.1343  0.3415 -0.5620
  417MOL0     C56185  -0.296   9.005   4.882  0.5696 -1.2035  0.4657
  417MOL0     C56186  -0.316   8.951   5.008 -0.3672  0.1485 -0.2507
  417MOL0     C56187  -0.441   8.951   5.066  0.4721  0.3273 -0.5692
  417MOL0     C56188  -0.456   8.901   5.213 -0.2310 -0.1648  0.6300
  417MOL0     C56189  -0.555   8.996   4.991  0.5911 -0.0863  0.6234
  417MOL0     C56190  -0.690   8.982   5.032  0.8579  0.0305  0.8292
  417MOL0     O56191  -0.783   8.970   4.925  0.3738  0.7771 -0.7370
  417MOL0     C56192  -0.900   8.913   4.955  1.0332 -0.4604 -0.0211
  417MOL0     C56193  -1.002   8.976   5.019 -0.0923  0.1847  0.0088
  417MOL0     C56194  -1.128   8.916   5.029 -0.2846 -0.4862 -0.0843
  417MOL0     C56195  -1.157   8.794   4.973 -0.2090  0.0393 -0.1101
  417MOL0     O56196  -1.281   8.743   4.990 -0.5799  0.5485 -0.3646
  417MOL0     C56197  -1.328   8.639   4.899  0.6166  0.5337 -0.5053
  417MOL0     C56198  -1.473   8.607   4.926  0.3828 -0.2329 -0.3115
  417MOL0     C56199  -1.585   8.709   4.883 -0.6034 -0.2746  0.6555
  417MOL0     C56200  -1.724   8.697   4.945  0.0225 -0.1682  0.4287
  417MOL0     C56201  -1.737   8.657   5.091  0.1264 -0.2785  0.2050
  417MOL0     C56202  -1.876   8.666   5.148  0.7627  0.0148  0.1743
  417MOL0     C56203  -1.997   8.632   5.050 -0.4001  0.3841  0.2014
  417MOL0     C56204  -2.126   8.666   5.117  0.0351  0.5287 -0.3851
  417MOL0    Cl56205  -2.173   8.561   5.250  0.2349  0.0817 -0.3882
  417MOL0     C56206  -1.059   8.730   4.905  0.3437  0.9074  0.4725
  417MOL0     C56207  -0.931   8.793   4.897 -0.8866 -0.5406 -0.0120
  417MOL0     O56208  -0.717   9.003   5.147  0.4091  0.4140 -0.2558
  417MOL0     C56209  -0.532   9.055   4.867 -0.1194 -0.2653 -0.0903
  417MOL0     C56210  -0.399   9.055   4.813 -0.7822 -0.1930 -0.3800
  417MOL0     N56211   0.316   8.748   4.600  0.0670 -0.8946  0.0446
  417MOL0     N56212   0.319   8.730   4.468 -0.7256 -0.4879 -0.0620
  417MOL0     C56213   1.263   9.178   3.934 -0.3035 -0.0932 -0.0806
  417MOL0     C56214   1.395   9.219   3.930  0.1640 -0.2798  0.1137
  417MOL0     C56215   1.811   9.234   3.697  0.6482 -0.9038 -0.1311
  417MOL0     C56216   1.897   9.223   3.810  0.0450 -0.0392  0.3692
  417MOL0     C56217   2.033   9.252   3.805  0.3561  0.4284  0.6822
  417MOL0     C56218   2.091   9.282   3.681  0.4360 -0.0126  0.0120
  417MOL0     O56219   2.225   9.288   3.666 -0.3218 -0.6162 -0.4665
  417MOL0     C56220   2.271   9.393   3.582 -0.0851 -0.1821 -0.1133
  417MOL0     C56221   2.394   9.361   3.508 -0.3180  0.0957  0.2474
  417MOL0     C56222   2.507   9.289   3.591  1.3382 -1.0192 -0.5284
  417MOL0     C56223   2.640   9.319   3.520  0.4775 -0.4096  0.3519
  417MOL0     C56224   2.755   9.271   3.588  0.6546  0.1120  0.2817
  417MOL0     C56225   2.850   9.205   3.635 -0.2105 -0.5424 -0.1660
  417MOL0     C56226   2.004   9.286   3.569 -0.1925 -0.3697 -0.2690
  417MOL0     C56227   1.869   9.270   3.575 -0.3770 -0.8620  0.0460
  417MOL0     H56228   1.502   8.935   3.762  0.7619  0.5502 -0.4675
  417MOL0     H56229   1.258   8.897   3.770 -1.2480  1.9400 -4.1260
  417MOL0     H56230   0.991   9.192   3.994 -2.6220  0.6099 -0.5938
  417MOL0     H56231   0.969   9.171   3.818 -1.6275  0.0935 -0.2179
  417MOL0     H56232   0.851   8.953   3.866 -0.7216  0.3048 -0.3446
  417MOL0     H56233   0.867   8.980   4.040  2.4040 -2.1849 -0.6653
  417MOL0     H56234   0.740   9.200   4.004  0.1504  0.9738 -1.6082
  417MOL0     H56235   0.702   9.140   3.842  0.6999 -1.9120 -0.3965
  417MOL0     H56236   0.563   8.966   3.921 -2.3682  2.5263 -0.5726
  417MOL0     H56237   0.644   8.962   4.075 -2.4281 -1.4944 -0.1780
  417MOL0     H56238   0.515   9.195   4.128 -0.6639  1.3513  0.0252
  417MOL0     H56239   0.441   9.178   3.968 -0.5690 -0.8185  0.7264
  417MOL0     H56240   0.266   9.088   4.094 -0.3953 -1.7363  0.1032
  417MOL0     H56241   0.371   8.957   4.037  1.8394 -0.4792  0.5934
  417MOL0     H56242   0.477   8.958   4.267  0.8848 -0.7296 -0.8034
  417MOL0     H56243   0.359   9.071   4.325  0.3055  0.6046 -0.3715
  417MOL0     H56244   0.275   8.802   4.221  0.0850  0.1049 -0.7324
  417MOL0     H56245   0.171   8.931   4.266 -0.2970 -0.1415  0.1833
  417MOL0     H56246   0.256   9.046   4.508 -0.7179 -0.3821 -2.5877
  417MOL0     H56247   0.402   8.911   4.807 -1.1910 -3.1591  0.6579
  417MOL0     H56248   0.313   9.060   4.748  1.8614 -0.4771 -1.5510
  417MOL0     H56249   0.206   8.954   4.955  3.3998 -2.4118 -0.3786
  417MOL0     H56250   0.174   8.815   4.870  1.5149 -0.0128  1.2287
  417MOL0     H56251   0.037   8.912   4.712 -1.1489 -2.6032  2.6323
  417MOL0     H56252   0.079   9.079   4.755  0.7404  0.0745 -0.2032
  417MOL0     H56253  -0.050   9.044   4.974  1.1638  1.0548 -1.9225
  417MOL0     H56254  -0.069   8.865   4.919  0.2406 -1.6311 -0.4376
  417MOL0     H56255  -0.246   8.906   5.078  0.7817  0.5146 -1.1314
  417MOL0     H56256  -0.458   8.989   5.277  0.3916  2.4019 -2.6003
  417MOL0     H56257  -0.542   8.834   5.224  1.1655 -1.9535  1.1210
  417MOL0     H56258  -0.365   8.842   5.233  0.7896  0.7107 -1.1811
  417MOL0     H56259  -0.971   9.073   5.058  1.0376 -0.0347 -0.3079
  417MOL0     H56260  -1.204   8.963   5.090  1.3118 -0.1901  1.7496
  417MOL0     H56261  -1.306   8.666   4.796 -0.6210 -0.7463 -1.1436
  417MOL0     H56262  -1.276   8.547   4.927 -1.6737 -0.2066  1.7461
  417MOL0     H56263  -1.494   8.515   4.871  1.3948 -0.9620  0.4646
  417MOL0     H56264  -1.492   8.598   5.034 -1.3239  0.1302 -0.5532
  417MOL0     H56265  -1.592   8.707   4.774  1.0640  3.1223  0.3731
  417MOL0     H56266  -1.551   8.812   4.897  2.1437 -0.9767 -0.0496
  417MOL0     H56267  -1.763   8.797   4.921 -1.8045 -1.0486 -0.4774
  417MOL0     H56268  -1.781   8.621   4.891 -0.0060 -0.2589  0.5889
  417MOL0     H56269  -1.674   8.728   5.147 -1.5597  2.4933 -1.2046
  417MOL0     H56270  -1.700   8.554   5.093 -1.3313 -0.8552  2.7581
  417MOL0     H56271  -1.879   8.611   5.243  1.8303 -0.6517 -0.1536
  417MOL0     H56272  -1.897   8.770   5.170 -2.5625 -0.8517  1.7079
  417MOL0     H56273  -1.993   8.532   5.005 -0.3317  1.3814 -2.1816
  417MOL0     H56274  -1.992   8.698   4.963  0.9829  2.1142  1.5280
  417MOL0     H56275  -2.208   8.649   5.046  1.1461 -5.2178 -0.7883
  417MOL0     H56276  -2.131   8.766   5.162 -0.6507  1.4430 -2.3611
  417MOL0     H56277  -1.075   8.630   4.867  0.6941  0.3819  1.6433
  417MOL0     H56278  -0.854   8.746   4.837  0.1705  0.3000  0.6464
  417MOL0     H56279  -0.607   9.101   4.804 -1.1643  0.7276  1.7821
  417MOL0     H56280  -0.378   9.090   4.712 -0.7163  3.5094  0.7733
  417MOL0     H56281   1.188   9.233   3.991 -0.5867  2.1372 -2.4071
  417MOL0     H56282   1.431   9.307   3.981 -2.2589  0.1652  1.1772
  417MOL0     H56283   1.865   9.192   3.909  1.6099 -0.1701  0.8654
  417MOL0     H56284   2.092   9.247   3.895  0.3327 -2.7470  0.6340
  417MOL0     H56285   2.196   9.429   3.510 -1.3443 -1.9389  0.2807
  417MOL0     H56286   2.313   9.467   3.651  1.1528 -0.1270 -0.9081
  417MOL0     H56287   2.446   9.445   3.462  3.8742 -0.4606  3.3282
  417MOL0     H56288   2.365   9.301   3.421 -2.4123  2.8705 -1.1333
  417MOL0     H56289   2.487   9.182   3.603 -3.8271 -0.3870 -1.4110
  417MOL0     H56290   2.501   9.339   3.688  1.1094 -0.0338 -1.0357
  417MOL0     H56291   2.656   9.426   3.538  0.4661 -0.2818 -0.3823
  417MOL0     H56292   2.639   9.279   3.418 -1.0626 -2.9928  1.2839
  417MOL0     H56293   2.933   9.154   3.679 -1.2151  0.5199  3.3096
  417MOL0     H56294   2.047   9.313   3.472 -2.9327  0.7912 -1.2389
  417MOL0     H56295   1.815   9.288   3.482  1.6838  0.9347 -0.8863
  418MOL0     O56296   3.746   0.791  10.238  0.7842 -0.6981  0.5534
  418MOL0     C56297   3.843   0.850  10.283 -0.5741 -0.5996 -0.2980
  418MOL0     O56298   3.832   0.952  10.372 -0.3542 -0.8282  0.2778
  418MOL0     C56299   3.713   0.982  10.422 -0.7642  0.2477  0.0163
  418MOL0     C56300   3.659   0.907  10.527  0.4306 -0.3492  0.1120
  418MOL0     C56301   3.529   0.917  10.576 -0.6687 -0.7248  0.3927
  418MOL0     C56302   3.463   1.034  10.532 -0.5995 -0.2067 -1.0873
  418MOL0     O56303   3.347   1.071  10.594  0.0536 -0.2266  0.4086
  418MOL0     C56304   3.253   0.977  10.646  0.0562  1.1951 -1.1780
  418MOL0     C56305   3.105   1.039  10.658 -0.2642  0.0623 -0.0644
  418MOL0     C56306   3.055   1.035  10.509  0.2987 -0.3574  0.0866
  418MOL0     C56307   2.920   1.097  10.500  0.4602  0.1165  0.3204
  418MOL0     C56308   2.895   1.138  10.358 -0.6626  0.5483 -0.8163
  418MOL0     C56309   2.763   1.217  10.354  0.7318 -0.9572  0.1784
  418MOL0     C56310   2.722   1.253  10.212  0.0476  0.7317 -0.0991
  418MOL0     C56311   2.681   1.129  10.131 -0.1897 -0.3592 -0.4179
  418MOL0     N56312   2.584   1.036  10.184  0.0872  0.7393 -0.2656
  418MOL0     C56313   2.600   0.893  10.196  0.4223 -0.0729  0.0689
  418MOL0     C56314   2.491   0.869  10.270  0.6757  0.2470 -0.8159
  418MOL0     C56315   2.450   0.740  10.340  0.3849 -0.1078  0.3742
  418MOL0     C56316   2.289   0.729  10.362 -0.7390 -0.1957  0.4167
  418MOL0     C56317   2.248   0.613  10.454  1.0692 -0.1293  1.0924
  418MOL0     C56318   2.103   0.607  10.491  0.1291  0.5164 -0.3481
  418MOL0     O56319   2.060   0.468  10.481 -1.1434  0.7342  0.7246
  418MOL0     C56320   1.933   0.438  10.510  0.9466  0.2317 -0.2317
  418MOL0     C56321   1.832   0.531  10.549  0.6286  0.2576 -0.3153
  418MOL0     C56322   1.696   0.488  10.559 -0.0489  1.0320 -1.0968
  418MOL0     C56323   1.592   0.601  10.577  0.7146 -0.3925  1.1509
  418MOL0     C56324   1.668   0.351  10.546  0.3687  0.2120  0.6039
  418MOL0     C56325   1.532   0.276  10.559 -0.4391  0.3161 -0.2507
  418MOL0     O56326   1.528   0.140  10.569  0.3655 -0.5680 -0.1309
  418MOL0     C56327   1.412   0.076  10.606 -1.0346  0.3830 -0.1866
  418MOL0     C56328   1.301   0.090  10.524 -0.1403 -0.3536  0.0872
  418MOL0     C56329   1.190   0.007  10.551 -0.2493  0.5047  0.1331
  418MOL0     C56330   1.188  -0.086  10.653 -0.0415 -0.2765 -0.8020
  418MOL0     O56331   1.075  -0.166  10.663 -0.5181 -0.2596 -0.1225
  418MOL0     C56332   1.074  -0.274  10.755  0.7258 -0.3188 -0.1560
  418MOL0     C56333   0.955  -0.364  10.744  0.3444  0.4321  0.4938
  418MOL0     C56334   0.965  -0.453  10.615  0.1977 -0.0543 -0.2255
  418MOL0     C56335   0.866  -0.569  10.605 -0.1219 -0.0435  0.0058
  418MOL0     C56336   0.728  -0.509  10.559 -0.9225  0.5130  0.4867
  418MOL0     C56337   0.614  -0.611  10.569  0.0524 -0.0613  0.4772
  418MOL0     C56338   0.635  -0.745  10.508 -0.9555  0.3924  0.0805
  418MOL0     C56339   0.702  -0.849  10.606 -0.6843 -0.0492  0.3290
  418MOL0    Cl56340   0.714  -1.013  10.531  0.2896  0.1091 -0.0917
  418MOL0     C56341   1.299  -0.092  10.736 -0.5167 -0.0886  0.2687
  418MOL0     C56342   1.407  -0.011  10.723  0.1116 -0.3902  0.0351
  418MOL0     O56343   1.434   0.349  10.574 -0.0926 -0.2314  0.4286
  418MOL0     C56344   1.770   0.263  10.501  0.1633  0.7137 -0.7438
  418MOL0     C56345   1.900   0.304  10.488 -0.2033 -0.2301  0.8850
  418MOL0     N56346   2.410   0.977  10.276  0.1805 -0.7191 -0.3998
  418MOL0     N56347   2.459   1.077  10.218 -0.0206 -1.4352 -0.2964
  418MOL0     C56348   3.509   1.114  10.429  0.5178  0.6343 -0.8283
  418MOL0     C56349   3.635   1.083  10.369  0.7672 -0.5635 -0.1218
  418MOL0     C56350   3.981   0.808  10.256  0.6041 -0.0133  0.5666
  418MOL0     C56351   4.098   0.891  10.274  0.2508 -0.0448  0.1745
  418MOL0     C56352   4.226   0.848  10.267 -0.0213  0.5223 -0.2893
  418MOL0     C56353   4.246   0.707  10.231  0.0980 -0.5129  0.0021
  418MOL0     O56354   4.367   0.651  10.230 -0.0323  0.4608  0.4196
  418MOL0     C56355   4.489   0.712  10.274 -0.1423  0.5745 -0.0868
  418MOL0     C56356   4.608   0.621  10.221  0.1800 -0.8157 -0.9583
  418MOL0     C56357   4.611   0.472  10.243  0.0056 -0.1685 -0.4342
  418MOL0     C56358   4.630   0.427  10.395 -0.0634 -0.3624  0.0705
  418MOL0     C56359   4.770   0.448  10.423 -0.4332 -0.3051 -0.5423
  418MOL0     C56360   4.886   0.465  10.425 -0.3199  0.0386  0.7181
  418MOL0     C56361   4.138   0.621  10.207  0.2241 -0.0913 -0.2476
  418MOL0     C56362   4.007   0.672  10.216  0.1913 -0.2728  0.3465
  418MOL0     H56363   3.728   0.830  10.562  1.8645  0.5882 -0.5428
  418MOL0     H56364   3.479   0.854  10.648 -1.0664 -2.2483 -1.1512
  418MOL0     H56365   3.241   0.883  10.592 -0.7825  0.4339  0.2789
  418MOL0     H56366   3.282   0.945  10.747 -0.7525  0.9314 -1.0258
  418MOL0     H56367   3.043   0.975  10.720  0.7566  0.6784  1.6847
  418MOL0     H56368   3.092   1.139  10.701 -0.1703 -0.0870  0.3096
  418MOL0     H56369   3.122   1.092  10.445 -0.6561  1.0129  0.2694
  418MOL0     H56370   3.045   0.933  10.470 -0.2943 -0.3935  0.3235
  418MOL0     H56371   2.849   1.020  10.530  1.7634 -1.5229 -0.6499
  418MOL0     H56372   2.908   1.191  10.556 -1.2357 -0.4981  1.0528
  418MOL0     H56373   2.975   1.201  10.319  0.0734  1.3260  1.7793
  418MOL0     H56374   2.882   1.052  10.291 -4.7910  1.2243 -1.1315
  418MOL0     H56375   2.687   1.162  10.410  1.7944 -3.6880 -0.8967
  418MOL0     H56376   2.782   1.306  10.416  0.9965 -2.3331  2.1672
  418MOL0     H56377   2.649   1.333  10.221 -1.8329 -1.1514  4.6013
  418MOL0     H56378   2.806   1.296  10.157 -0.6178  1.2126 -0.7559
  418MOL0     H56379   2.766   1.063  10.114 -0.6902 -1.5848  1.5666
  418MOL0     H56380   2.653   1.162  10.030  1.6423 -1.1618 -1.2246
  418MOL0     H56381   2.676   0.823  10.162 -0.6322 -1.4190  0.3859
  418MOL0     H56382   2.488   0.653  10.287 -0.0433 -0.6025  0.8644
  418MOL0     H56383   2.500   0.738  10.437  1.7706 -3.5897 -0.2848
  418MOL0     H56384   2.237   0.709  10.268 -1.2491  0.0523  0.6431
  418MOL0     H56385   2.251   0.822  10.404  0.4628  0.6687 -0.3290
  418MOL0     H56386   2.315   0.638  10.537  2.3279  1.5693 -0.3630
  418MOL0     H56387   2.287   0.521  10.410  3.6478  0.8288  1.2090
  418MOL0     H56388   2.043   0.676  10.431  0.0098  2.7986  2.1557
  418MOL0     H56389   2.093   0.648  10.592  0.2859 -1.8374  0.6993
  418MOL0     H56390   1.852   0.637  10.559  0.5484  0.1277  1.5292
  418MOL0     H56391   1.518   0.600  10.496  1.2899  1.2406  0.5654
  418MOL0     H56392   1.534   0.574  10.666  0.9910 -2.2000  0.8295
  418MOL0     H56393   1.647   0.695  10.582  5.6147 -2.9071  0.2232
  418MOL0     H56394   1.302   0.160  10.441  5.6751  3.2224  2.4882
  418MOL0     H56395   1.106   0.001  10.482  2.4492 -1.3886 -3.3108
  418MOL0     H56396   1.170  -0.328  10.757 -0.7433 -3.1465  1.7258
  418MOL0     H56397   1.065  -0.231  10.855  1.7001  0.2709 -0.3059
  418MOL0     H56398   0.954  -0.433  10.829  1.9091  2.7940  2.5404
  418MOL0     H56399   0.864  -0.304  10.740  0.5978  0.7672 -0.6635
  418MOL0     H56400   1.069  -0.488  10.613  0.7262  1.4499 -0.4760
  418MOL0     H56401   0.952  -0.388  10.528 -2.7542 -1.9285 -1.3237
  418MOL0     H56402   0.896  -0.627  10.517  2.2554  1.6733 -0.4030
  418MOL0     H56403   0.849  -0.623  10.699  0.8420  2.3267  1.6377
  418MOL0     H56404   0.734  -0.457  10.463  0.7279  0.5126  0.5671
  418MOL0     H56405   0.693  -0.435  10.631 -4.4179 -2.2386  1.9558
  418MOL0     H56406   0.593  -0.638  10.673  1.7718 -2.4643  0.2840
  418MOL0     H56407   0.529  -0.567  10.517  0.1593  1.6183  1.6433
  418MOL0     H56408   0.703  -0.732  10.423 -1.0781  0.7168  0.0320
  418MOL0     H56409   0.543  -0.789  10.467  0.4078 -0.6127 -2.1101
  418MOL0     H56410   0.629  -0.859  10.687 -2.3627  2.0642 -0.8184
  418MOL0     H56411   0.796  -0.810  10.647 -1.5018  0.7933  1.4774
  418MOL0     H56412   1.301  -0.165  10.816  1.0814  0.1821  0.4995
  418MOL0     H56413   1.490  -0.032  10.789 -0.3511 -0.1965  0.6913
  418MOL0     H56414   1.749   0.157  10.486  2.7738 -0.1033  0.7131
  418MOL0     H56415   1.978   0.235  10.457  0.9266  1.3732 -0.0544
  418MOL0     H56416   3.446   1.197  10.398  0.1156  0.4827 -0.4289
  418MOL0     H56417   3.669   1.147  10.288 -2.7853 -0.9150 -2.1481
  418MOL0     H56418   4.070   0.990  10.308 -2.7770 -1.3557  1.8749
  418MOL0     H56419   4.314   0.910  10.280  1.3133 -1.0709 -1.2878
  418MOL0     H56420   4.505   0.809  10.226  0.0601  0.2287 -0.7316
  418MOL0     H56421   4.486   0.730  10.382  0.7482 -0.4547  0.1351
  418MOL0     H56422   4.701   0.662  10.259 -0.8336  0.1472  0.6139
  418MOL0     H56423   4.602   0.645  10.114 -0.3447  1.7659 -0.4039
  418MOL0     H56424   4.692   0.435  10.180 -0.1115  0.6672 -1.0987
  418MOL0     H56425   4.517   0.431  10.204 -1.9791  1.0248  2.7682
  418MOL0     H56426   4.603   0.323  10.413  0.2730 -0.4589  0.0270
  418MOL0     H56427   4.556   0.481  10.456 -1.6247 -3.3758  1.0583
  418MOL0     H56428   4.990   0.469  10.402 -0.1135 -5.5547 -0.7424
  418MOL0     H56429   4.162   0.517  10.190 -0.4925 -0.2891 -0.0976
  418MOL0     H56430   3.929   0.603  10.186  1.4909 -0.4408 -3.0919
  419MOL0     O56431   8.098   5.030   3.853 -0.2176 -0.2407  0.1079
  419MOL0     C56432   8.151   5.089   3.947  0.0373 -0.4510 -0.8493
  419MOL0     O56433   8.084   5.165   4.041 -0.3813  0.0049 -0.7225
  419MOL0     C56434   7.959   5.209   4.027 -0.9794  0.4597  0.3438
  419MOL0     C56435   7.867   5.197   4.131  0.3848 -0.2690 -0.5220
  419MOL0     C56436   7.735   5.222   4.119 -0.4614 -0.5237  0.7702
  419MOL0     C56437   7.695   5.275   3.990  0.5023 -0.0172  0.4564
  419MOL0     O56438   7.569   5.300   3.942 -0.5854 -0.2470 -0.0397
  419MOL0     C56439   7.459   5.321   4.030  0.4940  0.9877 -0.8409
  419MOL0     C56440   7.360   5.398   3.954  0.4164 -0.0483  0.1651
  419MOL0     C56441   7.220   5.419   4.024 -0.1073 -0.1973  0.4053
  419MOL0     C56442   7.121   5.476   3.930  0.7369 -0.0121 -0.4258
  419MOL0     C56443   6.975   5.478   3.996  0.3061  0.0744 -0.4484
  419MOL0     C56444   6.880   5.530   3.891  0.9694 -0.3358 -0.4971
  419MOL0     C56445   6.739   5.541   3.945  0.6544 -0.0287 -0.0996
  419MOL0     C56446   6.649   5.624   3.853  0.4200  0.1498  0.1689
  419MOL0     N56447   6.523   5.646   3.920 -0.7267 -0.0491 -0.8385
  419MOL0     C56448   6.503   5.758   3.995  0.6525 -1.2902  0.1237
  419MOL0     C56449   6.375   5.747   4.028 -0.7848  0.0366  1.4001
  419MOL0     C56450   6.296   5.837   4.108  0.3828  0.1665 -0.6831
  419MOL0     C56451   6.160   5.769   4.147 -1.0092  0.7466  0.5718
  419MOL0     C56452   6.082   5.857   4.242  0.3042  0.2024 -0.2316
  419MOL0     C56453   6.135   5.875   4.376 -0.4154 -0.7284  0.2494
  419MOL0     O56454   6.151   6.004   4.424 -0.5369 -0.8886 -0.1496
  419MOL0     C56455   6.270   6.019   4.485  0.6514  1.5207 -0.8190
  419MOL0     C56456   6.374   6.076   4.411  0.3587 -0.0142  0.1394
  419MOL0     C56457   6.498   6.105   4.471  0.0665  0.7245 -0.5797
  419MOL0     C56458   6.595   6.165   4.367 -0.0312 -0.3067 -0.3827
  419MOL0     C56459   6.522   6.074   4.604 -0.2054 -1.2891  0.1707
  419MOL0     C56460   6.651   6.090   4.681  0.1266  0.1151  0.2315
  419MOL0     O56461   6.760   6.159   4.614  0.0397 -0.2596  0.1419
  419MOL0     C56462   6.867   6.183   4.696 -0.2089  0.3181 -0.1891
  419MOL0     C56463   6.858   6.273   4.799 -0.9156 -0.6771 -0.0776
  419MOL0     C56464   6.964   6.308   4.875 -0.1422  0.9317  0.4466
  419MOL0     C56465   7.090   6.263   4.843 -0.1849 -0.6584 -0.0353
  419MOL0     O56466   7.202   6.301   4.916 -0.4496 -0.5742  0.2885
  419MOL0     C56467   7.178   6.393   5.025 -0.7314  1.1027  0.2125
  419MOL0     C56468   7.318   6.436   5.079 -0.3941 -0.4860 -0.0528
  419MOL0     C56469   7.299   6.553   5.180 -0.4280  0.7629  0.2199
  419MOL0     C56470   7.435   6.603   5.231 -0.5215  0.2361  0.5192
  419MOL0     C56471   7.409   6.709   5.338 -0.5076  0.0691 -0.6959
  419MOL0     C56472   7.536   6.786   5.393  0.7863  0.1966 -0.3484
  419MOL0     C56473   7.485   6.887   5.491 -0.3258 -0.9505  0.0659
  419MOL0     C56474   7.615   6.948   5.548  0.3094 -0.5041 -0.4776
  419MOL0    Cl56475   7.707   7.028   5.424  0.4041 -0.2744  0.0718
  419MOL0     C56476   7.109   6.173   4.734 -0.1431  0.5535  0.4458
  419MOL0     C56477   6.990   6.142   4.662  0.5766 -0.0816  0.1463
  419MOL0     O56478   6.667   6.023   4.776 -0.1064 -0.8184  0.1261
  419MOL0     C56479   6.414   6.022   4.676 -0.0773  0.4827  0.2094
  419MOL0     C56480   6.286   5.988   4.624 -0.9342 -0.5876  0.7220
  419MOL0     N56481   6.316   5.644   3.949 -0.5376  0.2461  0.4495
  419MOL0     N56482   6.412   5.570   3.893 -0.2331 -0.1947 -0.1203
  419MOL0     C56483   7.788   5.305   3.896  0.8997  0.3531  0.3763
  419MOL0     C56484   7.923   5.278   3.921 -0.1317 -0.6428  0.3917
  419MOL0     C56485   8.301   5.080   3.960  0.2501  0.4931 -0.0523
  419MOL0     C56486   8.372   5.164   4.052 -0.0376  0.0773 -0.8518
  419MOL0     C56487   8.508   5.144   4.073  0.0152 -0.1876 -0.2618
  419MOL0     C56488   8.583   5.051   4.004 -0.4088 -1.0380  0.2732
  419MOL0     O56489   8.723   5.041   4.012 -0.2421 -0.5428 -0.2064
  419MOL0     C56490   8.774   5.018   4.144 -0.3625 -0.5030  0.2739
  419MOL0     C56491   8.914   4.969   4.132  1.0673  0.1067 -0.3541
  419MOL0     C56492   8.978   4.922   4.265  0.1870 -0.2735 -0.2103
  419MOL0     C56493   9.129   4.881   4.237 -0.0448 -0.1270 -0.5906
  419MOL0     C56494   9.148   4.761   4.156 -0.1732  0.0832  0.2247
  419MOL0     C56495   9.150   4.661   4.086 -0.0117 -0.9148 -0.0130
  419MOL0     C56496   8.514   4.977   3.907  0.1739 -0.6816  0.5924
  419MOL0     C56497   8.374   4.980   3.887 -1.0075  0.3893 -0.5018
  419MOL0     H56498   7.897   5.159   4.228 -1.1498  0.3229  0.2201
  419MOL0     H56499   7.651   5.204   4.185 -0.2436 -1.6148  0.7580
  419MOL0     H56500   7.417   5.224   4.060  1.9962  0.4137 -0.4849
  419MOL0     H56501   7.485   5.370   4.125  1.3863 -2.0311  0.5954
  419MOL0     H56502   7.404   5.495   3.926  0.6334  1.0489  3.7311
  419MOL0     H56503   7.343   5.337   3.865 -1.1593  2.2874 -1.2579
  419MOL0     H56504   7.182   5.322   4.057 -0.3002  0.5085  2.4141
  419MOL0     H56505   7.231   5.489   4.107 -0.3956 -0.6255  0.8098
  419MOL0     H56506   7.148   5.575   3.893 -2.6197  2.1549  2.2798
  419MOL0     H56507   7.124   5.415   3.839 -2.9247  1.9802 -2.1029
  419MOL0     H56508   6.961   5.374   4.029  4.3859 -0.3925  0.3326
  419MOL0     H56509   6.978   5.546   4.082 -0.6985  0.7079 -0.9018
  419MOL0     H56510   6.912   5.622   3.842  0.1911  0.1310 -0.1484
  419MOL0     H56511   6.879   5.447   3.820  2.1022 -0.6135 -0.2070
  419MOL0     H56512   6.696   5.441   3.961  0.3164  0.4503  2.4004
  419MOL0     H56513   6.757   5.594   4.039  0.6281  1.4713 -0.9039
  419MOL0     H56514   6.631   5.577   3.756 -0.7603  1.6375 -0.3729
  419MOL0     H56515   6.705   5.717   3.839 -0.2114  0.4237 -0.6293
  419MOL0     H56516   6.576   5.823   4.042  0.5411 -2.0774  1.4534
  419MOL0     H56517   6.346   5.853   4.203  0.1961 -5.9963  0.8460
  419MOL0     H56518   6.273   5.934   4.063 -0.0168 -0.4897 -1.9463
  419MOL0     H56519   6.182   5.670   4.186  3.1358  1.6322  0.9707
  419MOL0     H56520   6.111   5.763   4.050  4.5666  1.2525 -2.7244
  419MOL0     H56521   5.979   5.821   4.254 -0.1360  1.2222 -0.8058
  419MOL0     H56522   6.085   5.958   4.199  1.2836 -0.1427 -0.9993
  419MOL0     H56523   6.231   5.823   4.383 -0.7502 -1.1290  2.9785
  419MOL0     H56524   6.068   5.832   4.451  1.1136  0.5927  2.5070
  419MOL0     H56525   6.369   6.084   4.303 -2.0477  0.3312  0.2258
  419MOL0     H56526   6.540   6.210   4.284 -1.9125 -1.7224  0.0184
  419MOL0     H56527   6.652   6.244   4.418  0.5432 -1.8152  1.4515
  419MOL0     H56528   6.666   6.092   4.327  0.1251  0.5430 -1.7198
  419MOL0     H56529   6.757   6.310   4.811 -0.5231  1.5825 -2.7749
  419MOL0     H56530   6.935   6.373   4.957 -1.9662 -0.6385  1.0947
  419MOL0     H56531   7.129   6.483   4.988 -0.5818  1.1666  0.1662
  419MOL0     H56532   7.125   6.334   5.100  1.4363 -0.9976  0.2073
  419MOL0     H56533   7.371   6.354   5.127  0.7316 -0.0730 -0.5624
  419MOL0     H56534   7.376   6.464   4.991 -2.1433 -1.8385 -1.7314
  419MOL0     H56535   7.248   6.518   5.270  1.0275  0.3114  0.9135
  419MOL0     H56536   7.237   6.631   5.136 -0.9687  0.4078  0.3461
  419MOL0     H56537   7.498   6.526   5.276 -1.0998 -0.1960  0.6122
  419MOL0     H56538   7.489   6.653   5.150 -2.3810  0.3196 -0.7470
  419MOL0     H56539   7.356   6.651   5.414 -2.3364  0.7630 -1.3701
  419MOL0     H56540   7.329   6.774   5.301 -1.2028  0.1188  0.8470
  419MOL0     H56541   7.597   6.709   5.440  1.2318  0.1057 -1.0595
  419MOL0     H56542   7.580   6.830   5.303  0.6568 -2.3840 -1.7693
  419MOL0     H56543   7.425   6.841   5.569 -0.7641 -2.5505 -1.1602
  419MOL0     H56544   7.429   6.964   5.436  1.2353 -0.6678 -1.2065
  419MOL0     H56545   7.678   6.871   5.594 -0.8307 -0.7433  0.7528
  419MOL0     H56546   7.581   7.018   5.625  1.5062  0.6938 -0.9887
  419MOL0     H56547   7.212   6.152   4.707 -0.2847  1.4461 -0.8836
  419MOL0     H56548   7.008   6.082   4.573  0.8725  0.4833 -0.1866
  419MOL0     H56549   6.429   6.007   4.782 -0.0579  3.1497  0.6381
  419MOL0     H56550   6.208   5.954   4.692 -2.8957 -2.9116 -2.3981
  419MOL0     H56551   7.744   5.360   3.813 -0.5588 -0.7029  0.4106
  419MOL0     H56552   8.003   5.304   3.852 -1.2886  1.4460 -0.2677
  419MOL0     H56553   8.327   5.243   4.111  1.8780  2.6182 -2.5688
  419MOL0     H56554   8.556   5.216   4.138  1.7118 -0.3014 -1.3242
  419MOL0     H56555   8.763   5.113   4.197  0.9265 -0.7974  1.1251
  419MOL0     H56556   8.709   4.950   4.200 -3.0189  0.7582 -1.0870
  419MOL0     H56557   8.975   5.053   4.096 -2.4314  2.4103 -1.4309
  419MOL0     H56558   8.909   4.889   4.058  0.7549  1.4848 -1.8818
  419MOL0     H56559   8.936   4.835   4.315  3.3106 -0.9618  1.5030
  419MOL0     H56560   8.988   5.005   4.335  0.5891 -0.2399 -0.3000
  419MOL0     H56561   9.174   4.869   4.336  0.3719  2.6446 -0.3712
  419MOL0     H56562   9.177   4.963   4.183  2.1753 -0.8938  0.1145
  419MOL0     H56563   9.144   4.569   4.031  0.5850 -2.7044  2.7645
  419MOL0     H56564   8.570   4.920   3.833 -2.1599 -1.9538 -0.3069
  419MOL0     H56565   8.326   4.923   3.809 -2.0301 -1.3051  1.2748
  420MOL0     O56566   7.990   8.316   3.227 -0.2231 -0.2945  0.1947
  420MOL0     C56567   8.001   8.231   3.138  0.5831 -1.0345 -0.3438
  420MOL0     O56568   7.897   8.158   3.082  0.5495 -0.0914  0.2701
  420MOL0     C56569   7.762   8.174   3.110  0.4165 -0.5339 -0.7302
  420MOL0     C56570   7.708   8.303   3.152 -0.1978 -0.6619  0.7326
  420MOL0     C56571   7.569   8.310   3.175  0.6029 -1.1144 -0.6974
  420MOL0     C56572   7.473   8.212   3.149  0.1577  0.2246 -0.5906
  420MOL0     O56573   7.338   8.228   3.156 -0.6519  0.0698 -0.6930
  420MOL0     C56574   7.287   8.370   3.146 -0.1471 -0.0588 -0.1078
  420MOL0     C56575   7.136   8.374   3.117 -0.1918 -0.7168  0.0130
  420MOL0     C56576   7.057   8.373   3.250 -0.0972  0.0762 -0.8992
  420MOL0     C56577   7.096   8.488   3.350  0.4940  0.0667 -0.1850
  420MOL0     C56578   6.979   8.534   3.447  0.0257  1.1318 -0.2155
  420MOL0     C56579   6.993   8.681   3.495 -0.1591 -0.7600 -0.4945
  420MOL0     C56580   6.947   8.695   3.637 -0.6687  0.2007  0.2920
  420MOL0     C56581   6.797   8.674   3.638 -0.3540  0.0777  0.1579
  420MOL0     N56582   6.743   8.664   3.775  0.1824 -0.0317 -0.7224
  420MOL0     C56583   6.733   8.771   3.858 -0.8632  0.9266 -0.2493
  420MOL0     C56584   6.665   8.730   3.962  0.0710 -0.3152 -0.0271
  420MOL0     C56585   6.623   8.801   4.083 -0.4548  0.2214 -0.5255
  420MOL0     C56586   6.519   8.919   4.068 -0.7914 -1.0476 -0.7982
  420MOL0     C56587   6.381   8.882   4.028  0.2393  0.2206 -0.1938
  420MOL0     C56588   6.280   8.881   4.153  0.0079  1.1302 -0.0971
  420MOL0     O56589   6.162   8.821   4.100  0.5080 -0.3427 -0.3311
  420MOL0     C56590   6.085   8.742   4.179 -0.5434 -0.8321 -0.1838
  420MOL0     C56591   6.077   8.760   4.320  0.1454  0.5296 -0.1090
  420MOL0     C56592   5.981   8.688   4.394 -0.5020 -0.0830 -0.8605
  420MOL0     C56593   5.972   8.704   4.545 -0.3355  0.2187 -0.0665
  420MOL0     C56594   5.908   8.585   4.324  0.1554  0.5538 -0.4818
  420MOL0     C56595   5.801   8.505   4.392  0.1616  0.5697 -0.0225
  420MOL0     O56596   5.782   8.382   4.336  0.7032  0.4132 -0.3410
  420MOL0     C56597   5.705   8.284   4.401  0.1392  0.2314 -0.3401
  420MOL0     C56598   5.613   8.219   4.329  0.3147 -1.1122 -0.3812
  420MOL0     C56599   5.542   8.111   4.389 -0.8493 -0.2656 -0.1882
  420MOL0     C56600   5.567   8.081   4.522 -0.6418 -0.2281  0.6308
  420MOL0     O56601   5.478   8.001   4.599  0.6234  0.5642  0.4840
  420MOL0     C56602   5.385   8.065   4.679 -0.1050 -0.3013 -0.0397
  420MOL0     C56603   5.253   8.069   4.622 -0.2695 -0.0180 -0.6317
  420MOL0     C56604   5.189   7.929   4.584 -0.0101  0.2510  0.3414
  420MOL0     C56605   5.184   7.822   4.700 -0.4862 -0.6212  0.1708
  420MOL0     C56606   5.107   7.706   4.644 -0.3054 -0.2671 -0.4070
  420MOL0     C56607   5.159   7.632   4.515  0.1888  0.3538 -0.8077
  420MOL0     C56608   5.304   7.587   4.522 -0.1075  0.7100 -0.2131
  420MOL0     C56609   5.357   7.517   4.646 -0.3974  0.5252 -0.1265
  420MOL0    Cl56610   5.251   7.374   4.689 -0.2118  0.4017 -0.1147
  420MOL0     C56611   5.670   8.144   4.593  0.3635 -0.2611  0.4440
  420MOL0     C56612   5.734   8.256   4.532  0.4174  0.3981  0.4217
  420MOL0     O56613   5.740   8.545   4.487  0.4466 -1.0219  0.2190
  420MOL0     C56614   5.923   8.569   4.185 -1.0215  0.2181  0.3165
  420MOL0     C56615   6.012   8.645   4.114  1.2606 -0.1234 -0.6536
  420MOL0     N56616   6.623   8.594   3.941 -0.1326 -0.4714 -0.8021
  420MOL0     N56617   6.678   8.555   3.828 -0.0388 -0.6816  0.4017
  420MOL0     C56618   7.525   8.097   3.096 -0.3980 -0.5470 -0.4699
  420MOL0     C56619   7.659   8.079   3.061 -0.0017  0.1615 -0.3180
  420MOL0     C56620   8.134   8.203   3.089 -0.1186  0.3314 -1.2270
  420MOL0     C56621   8.246   8.257   3.153 -0.3557 -0.3469 -0.0039
  420MOL0     C56622   8.373   8.246   3.086 -0.4683  0.1657 -0.4369
  420MOL0     C56623   8.381   8.181   2.962  0.4012 -0.8798 -0.5746
  420MOL0     O56624   8.508   8.182   2.895 -0.0049 -0.4432  0.2730
  420MOL0     C56625   8.513   8.150   2.753 -0.7356 -0.2558  0.4144
  420MOL0     C56626   8.661   8.147   2.724 -0.1515 -0.2616 -0.1392
  420MOL0     C56627   8.721   8.011   2.770 -0.5569 -0.2515  1.2734
  420MOL0     C56628   8.871   7.988   2.748 -0.9747 -0.1620  0.8098
  420MOL0     C56629   8.914   7.959   2.610  0.3805 -0.0700 -0.4322
  420MOL0     C56630   8.934   7.939   2.497  0.4164  0.7363 -0.5607
  420MOL0     C56631   8.274   8.106   2.913  0.8123 -0.0298  1.5014
  420MOL0     C56632   8.150   8.120   2.972  0.9380  0.9523 -0.6031
  420MOL0     H56633   7.777   8.387   3.145 -0.2909 -0.5255  1.4014
  420MOL0     H56634   7.545   8.400   3.231  1.9919 -2.3062  2.0092
  420MOL0     H56635   7.308   8.428   3.237  1.9761 -1.2897  0.2601
  420MOL0     H56636   7.347   8.426   3.073  0.1237  0.6412  0.6262
  420MOL0     H56637   7.100   8.454   3.052 -0.4006 -1.1792 -0.4502
  420MOL0     H56638   7.108   8.276   3.076  2.6545 -0.6134 -2.5214
  420MOL0     H56639   6.949   8.367   3.238 -0.1787 -2.7381  0.2705
  420MOL0     H56640   7.086   8.274   3.286  1.6198  0.9142  0.1568
  420MOL0     H56641   7.183   8.481   3.417 -0.3538  1.7280  1.1634
  420MOL0     H56642   7.113   8.578   3.289  2.9767 -0.7490 -0.8568
  420MOL0     H56643   6.885   8.525   3.394 -0.1445 -0.2509  0.2816
  420MOL0     H56644   6.984   8.463   3.530 -1.5631  1.4281  0.1561
  420MOL0     H56645   7.092   8.725   3.484 -1.4484  2.4727 -0.3422
  420MOL0     H56646   6.931   8.746   3.432 -1.3180 -1.0367  0.3358
  420MOL0     H56647   7.005   8.618   3.689  0.2627 -1.1420 -2.5342
  420MOL0     H56648   6.968   8.791   3.685 -0.6670  0.6894 -0.6616
  420MOL0     H56649   6.771   8.581   3.586 -2.6964  0.7850 -0.0604
  420MOL0     H56650   6.747   8.748   3.575  0.2857 -1.7311 -2.6750
  420MOL0     H56651   6.778   8.868   3.840 -2.0363  1.3175 -1.2213
  420MOL0     H56652   6.593   8.727   4.157  1.2070  0.9496  0.9725
  420MOL0     H56653   6.712   8.846   4.128 -0.6385  0.2456 -0.1805
  420MOL0     H56654   6.563   8.988   3.996 -1.7925  2.3032  1.5400
  420MOL0     H56655   6.507   8.966   4.166  0.3475  1.7817 -1.9216
  420MOL0     H56656   6.390   8.786   3.976  2.0315 -1.9010  3.5995
  420MOL0     H56657   6.342   8.952   3.954 -1.2893  0.0335  0.3859
  420MOL0     H56658   6.267   8.985   4.186  0.3861 -0.3690  5.6759
  420MOL0     H56659   6.330   8.829   4.235  2.4934  0.7619 -1.7238
  420MOL0     H56660   6.142   8.832   4.368 -0.4548 -0.6367  2.6235
  420MOL0     H56661   5.966   8.612   4.605 -2.7543 -0.8694 -1.8163
  420MOL0     H56662   6.059   8.764   4.572  0.5339 -1.5285  1.2239
  420MOL0     H56663   5.880   8.761   4.556 -0.3281  0.3160 -0.5107
  420MOL0     H56664   5.594   8.255   4.228  0.0238 -1.8449 -0.5902
  420MOL0     H56665   5.465   8.063   4.330 -3.0513  1.3796  1.1875
  420MOL0     H56666   5.383   8.001   4.768  0.5349  0.6458  0.6728
  420MOL0     H56667   5.414   8.164   4.713 -0.5603 -0.4884  0.9184
  420MOL0     H56668   5.189   8.118   4.696  1.0621 -0.7518  1.0698
  420MOL0     H56669   5.248   8.137   4.537 -3.9537  3.1706  1.7879
  420MOL0     H56670   5.233   7.891   4.491  0.2184  0.6208  0.2965
  420MOL0     H56671   5.083   7.952   4.569  0.1800  1.4658  0.7898
  420MOL0     H56672   5.286   7.785   4.717  0.4138  1.9263  0.7272
  420MOL0     H56673   5.142   7.864   4.792  3.0463  0.3917  1.4923
  420MOL0     H56674   5.001   7.736   4.639 -0.6511 -0.2127  3.8412
  420MOL0     H56675   5.094   7.632   4.723 -2.3858  1.9930  1.5224
  420MOL0     H56676   5.091   7.548   4.495  0.2820  0.1138 -0.1416
  420MOL0     H56677   5.154   7.703   4.432  1.9297  0.0859 -1.1837
  420MOL0     H56678   5.367   7.671   4.492 -1.2751  1.4797 -0.5886
  420MOL0     H56679   5.321   7.515   4.441 -1.4986 -0.7670  0.7511
  420MOL0     H56680   5.346   7.580   4.735  0.9825  0.1016  0.3683
  420MOL0     H56681   5.462   7.489   4.637  0.1833  2.2531  0.7164
  420MOL0     H56682   5.676   8.122   4.699  2.9410 -2.3364 -0.0186
  420MOL0     H56683   5.799   8.318   4.594 -0.2183 -2.2521  4.0069
  420MOL0     H56684   5.869   8.486   4.140  1.4126 -0.3750 -1.7516
  420MOL0     H56685   6.023   8.631   4.007  1.1016 -0.3546 -0.6403
  420MOL0     H56686   7.451   8.020   3.072 -1.1579  0.1287 -0.3347
  420MOL0     H56687   7.697   7.992   3.009  3.0260  1.4608 -0.4891
  420MOL0     H56688   8.245   8.329   3.234 -3.4381 -0.1167 -0.1021
  420MOL0     H56689   8.463   8.296   3.121 -0.5322 -0.6879  1.0530
  420MOL0     H56690   8.458   8.063   2.714 -3.0753  2.3478 -2.6317
  420MOL0     H56691   8.473   8.229   2.690 -0.5847 -0.9660 -0.6072
  420MOL0     H56692   8.702   8.230   2.784 -0.4435  0.2596 -0.6518
  420MOL0     H56693   8.672   8.175   2.619 -0.8094 -1.5093 -0.5523
  420MOL0     H56694   8.657   7.933   2.727 -2.6365  3.1417 -2.5045
  420MOL0     H56695   8.713   8.004   2.879  2.0924  0.6591  1.5960
  420MOL0     H56696   8.891   7.896   2.805 -2.5363 -1.7245 -1.0369
  420MOL0     H56697   8.936   8.068   2.786  2.5314 -3.0244  1.4104
  420MOL0     H56698   8.965   7.923   2.396 -1.2529 -0.8565 -0.8642
  420MOL0     H56699   8.272   8.038   2.829 -1.1855 -1.9042  2.9628
  420MOL0     H56700   8.061   8.080   2.924  1.1502 -0.2125 -0.0545
  421MOL0     O56701   4.842   9.109   4.986  0.2746 -0.0056  0.3180
  421MOL0     C56702   4.860   9.058   5.092 -0.8629  0.3146 -0.4332
  421MOL0     O56703   4.783   8.959   5.144 -0.0810  0.3818 -0.0203
  421MOL0     C56704   4.741   8.870   5.045 -0.5805  0.7038  0.6859
  421MOL0     C56705   4.830   8.804   4.958  0.5324  0.0972 -0.0609
  421MOL0     C56706   4.776   8.695   4.883 -0.6213  0.3073  0.6160
  421MOL0     C56707   4.642   8.655   4.887 -0.0359 -0.5207 -0.4580
  421MOL0     O56708   4.585   8.559   4.810  0.0856  0.3948  0.6368
  421MOL0     C56709   4.666   8.494   4.708 -0.0330  0.0853 -0.1442
  421MOL0     C56710   4.723   8.373   4.782  0.7030  0.1274 -1.0552
  421MOL0     C56711   4.826   8.288   4.701 -0.6973 -0.4761  0.5361
  421MOL0     C56712   4.797   8.133   4.707  0.0786  0.5646 -0.4997
  421MOL0     C56713   4.823   8.066   4.842  0.1753  0.7464  0.3609
  421MOL0     C56714   4.788   7.921   4.833  0.2944  0.4296 -0.7315
  421MOL0     C56715   4.839   7.835   4.957  0.1201  0.1662 -0.7075
  421MOL0     C56716   4.812   7.902   5.088 -0.6463 -0.6625  0.2295
  421MOL0     N56717   4.671   7.931   5.104 -0.6399 -0.6244  0.3861
  421MOL0     C56718   4.611   8.051   5.129  0.6332  0.3426  0.1091
  421MOL0     C56719   4.480   8.029   5.130 -0.6130  0.2902  1.0560
  421MOL0     C56720   4.390   8.147   5.109 -0.1350  0.0619  0.7025
  421MOL0     C56721   4.384   8.242   5.228 -0.2319  0.5876  0.1541
  421MOL0     C56722   4.309   8.366   5.195  0.0425 -0.3412  0.3006
  421MOL0     C56723   4.320   8.490   5.288  0.8006  0.0095 -0.4987
  421MOL0     O56724   4.265   8.607   5.238  0.0476 -0.5978 -0.3550
  421MOL0     C56725   4.127   8.633   5.246 -0.7905 -0.2362  0.4075
  421MOL0     C56726   4.089   8.761   5.199 -0.7728  0.5302 -0.4781
  421MOL0     C56727   3.962   8.810   5.206 -0.3768 -0.7982 -0.4283
  421MOL0     C56728   3.926   8.944   5.149  0.1741 -0.0905  0.1561
  421MOL0     C56729   3.859   8.726   5.271  0.2797  0.3333 -0.2328
  421MOL0     C56730   3.714   8.766   5.301  0.0031 -0.4753 -0.4548
  421MOL0     O56731   3.621   8.661   5.327 -0.2090 -0.5359  0.1997
  421MOL0     C56732   3.480   8.684   5.348  0.2960 -0.5282 -1.0163
  421MOL0     C56733   3.405   8.780   5.271 -0.5976  0.2549  0.1530
  421MOL0     C56734   3.269   8.768   5.280  0.4546 -0.1936  0.6712
  421MOL0     C56735   3.206   8.673   5.357 -0.4847  0.1605 -0.5275
  421MOL0     O56736   3.073   8.670   5.344  0.3145 -0.2178 -0.7345
  421MOL0     C56737   3.000   8.593   5.438 -0.6972  0.4344 -0.6659
  421MOL0     C56738   2.856   8.608   5.397  0.7073 -0.4734  0.8668
  421MOL0     C56739   2.770   8.521   5.485  0.4435 -0.6380 -0.3373
  421MOL0     C56740   2.622   8.559   5.459 -0.6720  0.2876 -0.9609
  421MOL0     C56741   2.530   8.471   5.542  0.7256  0.2787 -0.1082
  421MOL0     C56742   2.383   8.521   5.534  0.0520  0.9209 -0.3840
  421MOL0     C56743   2.327   8.514   5.387 -0.5006 -0.3016 -0.1638
  421MOL0     C56744   2.183   8.477   5.385  0.9981 -0.0521 -0.2456
  421MOL0    Cl56745   2.131   8.440   5.212 -0.2215  0.3063  0.3371
  421MOL0     C56746   3.278   8.581   5.434  0.0526 -0.8458 -0.8792
  421MOL0     C56747   3.414   8.586   5.431  0.1882 -0.0847 -0.4291
  421MOL0     O56748   3.692   8.885   5.305  0.4441 -0.8394  0.2640
  421MOL0     C56749   3.898   8.591   5.308 -0.1502 -0.4501  0.3786
  421MOL0     C56750   4.032   8.555   5.310  0.1727  0.2198  0.5659
  421MOL0     N56751   4.458   7.892   5.114  0.5153 -0.3811 -0.3177
  421MOL0     N56752   4.575   7.836   5.113 -0.1298 -0.2231  0.9537
  421MOL0     C56753   4.560   8.725   4.981 -0.1583  0.6097  0.8865
  421MOL0     C56754   4.609   8.830   5.061 -0.0713 -0.3362  0.2082
  421MOL0     C56755   4.965   9.120   5.174 -0.6799  0.1063  0.1492
  421MOL0     C56756   5.028   9.244   5.139  0.2192 -0.3009  1.5692
  421MOL0     C56757   5.104   9.311   5.231  0.2287  0.3046  0.0083
  421MOL0     C56758   5.131   9.256   5.356  0.2573 -0.4017 -0.4813
  421MOL0     O56759   5.226   9.310   5.440  0.7512 -0.0640  0.3100
  421MOL0     C56760   5.301   9.428   5.409 -0.3031  0.5692 -0.7298
  421MOL0     C56761   5.383   9.474   5.527  0.3452 -0.2262 -0.1063
  421MOL0     C56762   5.489   9.370   5.567  0.5096  0.3056  0.4555
  421MOL0     C56763   5.565   9.311   5.445 -0.1647 -0.5065 -0.8616
  421MOL0     C56764   5.651   9.409   5.379 -0.0548 -0.8885 -0.3193
  421MOL0     C56765   5.722   9.483   5.315 -0.0604 -0.5699  0.0790
  421MOL0     C56766   5.095   9.127   5.384 -0.3017  0.3063 -0.2313
  421MOL0     C56767   5.011   9.054   5.295  0.8848  0.5005 -0.5849
  421MOL0     H56768   4.937   8.822   4.969  0.2832  1.6566  0.0381
  421MOL0     H56769   4.851   8.638   4.829 -1.5475 -1.4893  1.1392
  421MOL0     H56770   4.604   8.470   4.621  0.2978  1.5995 -0.8304
  421MOL0     H56771   4.737   8.568   4.671 -0.0097  0.3153  0.3599
  421MOL0     H56772   4.767   8.395   4.879  1.5163  0.5589 -1.5118
  421MOL0     H56773   4.637   8.310   4.807  1.5369 -0.5959  0.0871
  421MOL0     H56774   4.831   8.318   4.596 -0.0822  1.1096  0.9951
  421MOL0     H56775   4.924   8.309   4.745 -0.8664  4.7072 -0.9733
  421MOL0     H56776   4.691   8.117   4.683 -0.3331 -2.0234  2.3903
  421MOL0     H56777   4.852   8.076   4.631 -2.3974 -0.5547 -1.5898
  421MOL0     H56778   4.927   8.083   4.873  0.4536  0.5154 -0.4379
  421MOL0     H56779   4.761   8.116   4.917  0.8081 -1.1006  2.2145
  421MOL0     H56780   4.679   7.918   4.824  0.1724  3.2360 -0.9791
  421MOL0     H56781   4.828   7.889   4.736 -1.0093  2.3773 -1.9882
  421MOL0     H56782   4.783   7.741   4.961 -4.3820  2.6234  0.5885
  421MOL0     H56783   4.946   7.816   4.942  0.4505  1.4767 -0.1173
  421MOL0     H56784   4.869   7.995   5.092  3.0471 -2.5862 -2.3133
  421MOL0     H56785   4.850   7.837   5.167  1.5946  0.2418 -0.0408
  421MOL0     H56786   4.658   8.149   5.133 -0.8583  1.0722  3.4222
  421MOL0     H56787   4.427   8.201   5.022 -1.9980  0.6302  0.2070
  421MOL0     H56788   4.292   8.109   5.078  0.4496 -2.1387  1.4026
  421MOL0     H56789   4.489   8.267   5.248  0.4827 -0.9612 -1.3633
  421MOL0     H56790   4.346   8.188   5.315  1.0754  1.8735  1.5851
  421MOL0     H56791   4.207   8.331   5.182  1.0074 -2.0466 -5.4350
  421MOL0     H56792   4.346   8.405   5.100  1.2029 -0.5731  0.6336
  421MOL0     H56793   4.428   8.506   5.303  1.1788  0.1088 -2.8328
  421MOL0     H56794   4.273   8.468   5.384 -1.7228 -0.6868 -1.8325
  421MOL0     H56795   4.164   8.826   5.155  0.0401 -0.3975 -0.4912
  421MOL0     H56796   3.922   9.011   5.236  2.8875 -1.5112  1.5163
  421MOL0     H56797   4.001   8.980   5.078  2.5713 -0.3699  2.3950
  421MOL0     H56798   3.827   8.936   5.105  0.0179 -4.1155  0.8911
  421MOL0     H56799   3.462   8.846   5.207  2.4975 -1.2936  1.1416
  421MOL0     H56800   3.209   8.842   5.228 -0.8942 -1.0221  0.9827
  421MOL0     H56801   3.028   8.489   5.421  2.6071  1.3187 -1.4308
  421MOL0     H56802   3.020   8.626   5.541  2.1283 -2.9286  0.0429
  421MOL0     H56803   2.830   8.713   5.416 -1.4557 -0.3490 -1.9990
  421MOL0     H56804   2.848   8.588   5.289  1.8875 -1.5719  0.9671
  421MOL0     H56805   2.796   8.519   5.591  1.0208  1.2953 -0.4103
  421MOL0     H56806   2.778   8.418   5.447 -0.0686 -0.7480 -0.1616
  421MOL0     H56807   2.597   8.662   5.486 -1.1483 -0.2259  0.6399
  421MOL0     H56808   2.604   8.542   5.352  1.0504  0.1732 -1.2585
  421MOL0     H56809   2.562   8.464   5.647 -0.1113  1.5878  0.2564
  421MOL0     H56810   2.531   8.370   5.501  3.8812  0.8465 -1.7942
  421MOL0     H56811   2.323   8.458   5.600 -1.8547  0.0457 -2.7943
  421MOL0     H56812   2.373   8.624   5.571  1.9164  0.4827  1.5512
  421MOL0     H56813   2.371   8.435   5.325  3.6570  0.5876  1.3041
  421MOL0     H56814   2.348   8.610   5.339  0.0300  0.6318  1.8154
  421MOL0     H56815   2.116   8.558   5.416 -2.4485 -1.0573 -4.0373
  421MOL0     H56816   2.165   8.385   5.442  1.2162 -0.2388 -0.4727
  421MOL0     H56817   3.232   8.498   5.486  0.4312  0.6304  2.0152
  421MOL0     H56818   3.483   8.523   5.487  0.5646  0.7859  0.1161
  421MOL0     H56819   3.821   8.526   5.349 -1.2246  0.6512  0.1582
  421MOL0     H56820   4.043   8.452   5.342 -3.5393 -0.1416  1.0937
  421MOL0     H56821   4.457   8.697   5.004 -0.1307  2.3257  3.5706
  421MOL0     H56822   4.547   8.883   5.132  1.7673 -0.8723  2.3441
  421MOL0     H56823   4.999   9.296   5.048  0.1100 -2.3426  0.3875
  421MOL0     H56824   5.150   9.404   5.202 -0.6144  1.2866  1.6606
  421MOL0     H56825   5.363   9.415   5.319 -1.0188 -0.2092 -1.1178
  421MOL0     H56826   5.222   9.498   5.380 -2.4093 -2.2161 -2.1874
  421MOL0     H56827   5.314   9.497   5.609  0.2725 -0.4434 -0.1067
  421MOL0     H56828   5.424   9.572   5.502 -2.2953  1.2394  0.8649
  421MOL0     H56829   5.453   9.294   5.637  0.8914  0.1867  0.5231
  421MOL0     H56830   5.562   9.423   5.628  1.9274 -0.8434 -0.2031
  421MOL0     H56831   5.501   9.258   5.373  1.1894  0.3509 -2.8078
  421MOL0     H56832   5.644   9.244   5.478  0.6308  1.0782  0.5873
  421MOL0     H56833   5.781   9.557   5.266 -0.5778  0.3169  0.7592
  421MOL0     H56834   5.133   9.084   5.476  0.7390 -2.9263 -2.0129
  421MOL0     H56835   4.976   8.953   5.317 -1.6734  1.2069 -1.1254
  422MOL0     O56836   3.783   0.370   9.773  0.5935  0.0649  0.0414
  422MOL0     C56837   3.893   0.370   9.720 -0.3027  0.3141 -0.1922
  422MOL0     O56838   3.923   0.417   9.597 -0.1114  0.8371 -0.0977
  422MOL0     C56839   3.833   0.438   9.495  0.4523  0.3776  0.0447
  422MOL0     C56840   3.705   0.391   9.495 -0.2202 -0.6158 -0.6272
  422MOL0     C56841   3.624   0.419   9.388 -0.5301  0.6734  0.6225
  422MOL0     C56842   3.672   0.485   9.278 -1.0277  0.4834 -0.1923
  422MOL0     O56843   3.580   0.522   9.185  0.2029 -0.0051  0.3872
  422MOL0     C56844   3.605   0.633   9.099  0.1681 -0.6438  0.3400
  422MOL0     C56845   3.464   0.692   9.066 -0.8425 -0.3078 -1.0790
  422MOL0     C56846   3.376   0.722   9.195  0.3637  0.8339  0.0692
  422MOL0     C56847   3.275   0.836   9.181 -0.8074  0.6644 -0.5950
  422MOL0     C56848   3.193   0.875   9.298 -0.2057  0.1675 -0.4389
  422MOL0     C56849   3.097   0.996   9.270  0.2071  1.0752  0.4626
  422MOL0     C56850   2.976   0.963   9.355 -0.1421  0.8777 -0.6262
  422MOL0     C56851   2.867   1.065   9.341 -0.1413  0.4066 -0.1951
  422MOL0     N56852   2.756   1.042   9.436 -0.8823  0.2231 -0.2744
  422MOL0     C56853   2.624   1.012   9.410 -0.0060 -0.8547  0.2477
  422MOL0     C56854   2.554   1.046   9.529 -0.7853  0.3547  0.2582
  422MOL0     C56855   2.416   1.064   9.569 -0.0676  0.2310  0.2509
  422MOL0     C56856   2.384   1.017   9.713 -0.0623  0.3862 -0.2555
  422MOL0     C56857   2.240   0.981   9.721 -0.6809  1.1814  0.3596
  422MOL0     C56858   2.180   0.955   9.853  0.2156 -0.4899  0.3385
  422MOL0     O56859   2.040   0.921   9.825  0.1302 -0.4368 -0.1435
  422MOL0     C56860   1.960   0.896   9.933  0.4100  0.2300 -0.6125
  422MOL0     C56861   1.823   0.884   9.906 -0.6735  0.5784  0.8282
  422MOL0     C56862   1.726   0.876  10.011  0.5303  0.1918 -0.0687
  422MOL0     C56863   1.578   0.881   9.977  0.6510 -0.2802 -0.7062
  422MOL0     C56864   1.767   0.870  10.150 -0.4989  0.6823 -0.0060
  422MOL0     C56865   1.674   0.857  10.266  1.0807 -0.1876  0.1778
  422MOL0     O56866   1.552   0.933  10.264 -0.3273 -0.2996  0.0462
  422MOL0     C56867   1.473   0.913  10.371  0.8802 -0.0850  0.6783
  422MOL0     C56868   1.358   0.827  10.359 -0.0624 -0.2385 -0.1600
  422MOL0     C56869   1.272   0.797  10.469 -0.0255 -0.8739 -0.4000
  422MOL0     C56870   1.307   0.861  10.595  0.1954 -0.2922 -0.1616
  422MOL0     O56871   1.244   0.848  10.715  0.0651 -0.1093 -0.2076
  422MOL0     C56872   1.161   0.733  10.740  0.1320  0.2330 -0.8030
  422MOL0     C56873   1.106   0.751  10.887  0.7508  0.6070  0.4530
  422MOL0     C56874   1.022   0.630  10.923  0.3111  0.4844  0.3555
  422MOL0     C56875   0.981   0.631  11.074 -0.4051 -0.3364 -0.2673
  422MOL0     C56876   0.928   0.498  11.111  0.5115  0.7004  0.0213
  422MOL0     C56877   0.778   0.484  11.083 -0.3004 -0.1461 -0.0466
  422MOL0     C56878   0.733   0.356  11.031 -0.1868  0.7430  0.1526
  422MOL0     C56879   0.619   0.374  10.930  0.5427 -0.1131 -0.0265
  422MOL0    Cl56880   0.475   0.453  11.015 -0.0261  0.2514 -0.2830
  422MOL0     C56881   1.425   0.938  10.596  1.5949  0.1671  0.0759
  422MOL0     C56882   1.504   0.966  10.493 -0.2861  0.0012  0.5146
  422MOL0     O56883   1.711   0.778  10.351  0.1908 -0.3617 -0.3105
  422MOL0     C56884   1.907   0.863  10.177  0.1935  0.5278 -0.0319
  422MOL0     C56885   2.003   0.887  10.071  0.5784  0.3280  0.2096
  422MOL0     N56886   2.653   1.105   9.608  0.4732  0.5925 -0.2213
  422MOL0     N56887   2.768   1.093   9.558 -0.3651  0.2476  0.1314
  422MOL0     C56888   3.809   0.517   9.271  0.4432  0.2977 -0.1159
  422MOL0     C56889   3.888   0.503   9.383  0.3124  0.6391 -0.6667
  422MOL0     C56890   4.007   0.322   9.808 -0.0974  0.2077  0.4399
  422MOL0     C56891   4.137   0.374   9.780  0.2992  1.1002 -0.3922
  422MOL0     C56892   4.246   0.326   9.859 -0.0602  0.0238 -0.4374
  422MOL0     C56893   4.229   0.234   9.959 -0.6333  0.3941  0.4623
  422MOL0     O56894   4.330   0.179  10.030 -0.3527 -0.5351 -0.0845
  422MOL0     C56895   4.464   0.201   9.996  1.0624 -0.7420 -0.1417
  422MOL0     C56896   4.551   0.095  10.057  0.7938 -0.0733  1.1307
  422MOL0     C56897   4.498  -0.043  10.011 -0.2471 -0.1860  0.2683
  422MOL0     C56898   4.576  -0.153  10.086 -0.3111 -0.0005 -0.0566
  422MOL0     C56899   4.609  -0.259   9.990  0.1917 -0.3816 -0.0907
  422MOL0     C56900   4.640  -0.349   9.916  0.0575 -0.5738  1.1078
  422MOL0     C56901   4.098   0.183   9.986 -0.2207  0.6832 -0.3705
  422MOL0     C56902   3.982   0.233   9.910 -0.2059  0.7270  1.3073
  422MOL0     H56903   3.669   0.329   9.577 -2.8129  1.3903 -0.0832
  422MOL0     H56904   3.517   0.401   9.391 -0.6770  1.0436 -1.1570
  422MOL0     H56905   3.656   0.715   9.150 -0.3559 -0.8615  1.2508
  422MOL0     H56906   3.661   0.605   9.010 -0.3883 -0.7410  0.0104
  422MOL0     H56907   3.483   0.788   9.017 -3.6841 -0.3137 -2.4384
  422MOL0     H56908   3.408   0.621   9.004 -0.4852 -4.0291  2.4457
  422MOL0     H56909   3.319   0.631   9.213  0.4499  0.6857 -0.3960
  422MOL0     H56910   3.436   0.750   9.282  0.0471  0.4010  0.4304
  422MOL0     H56911   3.335   0.922   9.151  0.9646 -0.4395 -0.3622
  422MOL0     H56912   3.218   0.818   9.089 -2.3852 -1.9633  0.7569
  422MOL0     H56913   3.135   0.790   9.336 -0.5221  0.1071 -1.0438
  422MOL0     H56914   3.257   0.912   9.378  0.2731  0.2033 -0.8354
  422MOL0     H56915   3.152   1.089   9.289  2.9833 -0.6752  1.5204
  422MOL0     H56916   3.073   0.996   9.164 -2.8136  0.4829  1.0621
  422MOL0     H56917   2.926   0.872   9.321  0.5783  0.9916 -2.0366
  422MOL0     H56918   3.009   0.945   9.458 -0.4482  1.5538 -0.4088
  422MOL0     H56919   2.821   1.069   9.242 -1.1607  0.6510  0.2786
  422MOL0     H56920   2.921   1.158   9.362  3.2955 -1.1147 -1.4952
  422MOL0     H56921   2.586   0.982   9.313  1.7539  0.7853 -1.0319
  422MOL0     H56922   2.389   1.170   9.562  1.5962  0.5800 -1.5854
  422MOL0     H56923   2.371   0.998   9.495 -0.0744 -1.5386  1.7478
  422MOL0     H56924   2.413   1.090   9.789  2.2235 -1.4860  0.7774
  422MOL0     H56925   2.436   0.923   9.731 -2.9087 -1.4967 -1.2134
  422MOL0     H56926   2.241   0.892   9.658  0.0832  1.9125 -0.6929
  422MOL0     H56927   2.177   1.059   9.677 -3.8320 -1.4101 -0.0715
  422MOL0     H56928   2.191   1.049   9.906  1.5212  0.0497 -0.8276
  422MOL0     H56929   2.231   0.875   9.907 -3.1661 -2.2347  1.2480
  422MOL0     H56930   1.801   0.913   9.804  1.2149  1.9240  0.7474
  422MOL0     H56931   1.558   0.817   9.891 -2.7111  0.4544 -0.5908
  422MOL0     H56932   1.519   0.842  10.060  0.4131  1.4131 -0.0374
  422MOL0     H56933   1.552   0.984   9.951  1.5286 -0.0396 -0.6592
  422MOL0     H56934   1.335   0.802  10.256 -2.6147  1.5787 -0.1307
  422MOL0     H56935   1.184   0.734  10.463 -1.1373  0.7536 -2.0463
  422MOL0     H56936   1.078   0.747  10.671  1.8275 -1.8114 -3.5250
  422MOL0     H56937   1.194   0.632  10.714 -5.0920 -2.3207  1.0488
  422MOL0     H56938   1.197   0.748  10.947  2.3406 -1.0347 -1.8576
  422MOL0     H56939   1.058   0.848  10.900 -1.6012 -0.5743  1.1232
  422MOL0     H56940   1.075   0.539  10.893 -1.5957 -1.8323  3.4218
  422MOL0     H56941   0.929   0.631  10.865 -0.3559 -4.3006  0.9534
  422MOL0     H56942   1.075   0.653  11.127 -1.0543  1.9519  0.0469
  422MOL0     H56943   0.908   0.709  11.095  1.3511  1.0630  1.0052
  422MOL0     H56944   0.953   0.486  11.216 -2.2579 -1.4206  0.5744
  422MOL0     H56945   0.991   0.432  11.050  2.0068  0.8235  1.3708
  422MOL0     H56946   0.732   0.512  11.178  3.0173  2.9462  0.8933
  422MOL0     H56947   0.755   0.562  11.010  1.4587  1.3143  0.8804
  422MOL0     H56948   0.702   0.288  11.110  0.2516  1.2417  0.7657
  422MOL0     H56949   0.805   0.298  10.972 -2.0926 -1.8825  0.2113
  422MOL0     H56950   0.595   0.274  10.894  1.9069 -1.9177  3.6150
  422MOL0     H56951   0.656   0.443  10.853  1.9640 -2.3942 -1.5080
  422MOL0     H56952   1.444   0.990  10.690 -0.8416 -0.7491  1.1537
  422MOL0     H56953   1.585   1.036  10.513 -1.3152  1.2749  0.4020
  422MOL0     H56954   1.955   0.837  10.271  0.9792  1.2633 -0.2147
  422MOL0     H56955   2.104   0.907  10.106  0.3703  0.2266  0.8887
  422MOL0     H56956   3.842   0.560   9.177 -4.2543 -1.8325 -3.0673
  422MOL0     H56957   3.991   0.536   9.376  0.3507  0.6617 -0.0883
  422MOL0     H56958   4.146   0.447   9.700 -2.4171  0.1373 -1.7026
  422MOL0     H56959   4.338   0.378   9.833  0.7943  0.2121  2.5756
  422MOL0     H56960   4.474   0.210   9.888 -1.6138 -0.6630 -0.4454
  422MOL0     H56961   4.501   0.298  10.032  2.0295 -1.0918 -0.1520
  422MOL0     H56962   4.546   0.084  10.166  0.8430 -0.7054  1.0713
  422MOL0     H56963   4.655   0.109  10.025  0.6643  1.1527  1.1876
  422MOL0     H56964   4.522  -0.043   9.904  1.5274  1.5252  0.6067
  422MOL0     H56965   4.395  -0.049  10.045 -0.3804  0.4694  0.0005
  422MOL0     H56966   4.516  -0.185  10.172  2.7179 -0.3410  2.0966
  422MOL0     H56967   4.665  -0.119  10.138 -0.6661 -0.7508  1.0739
  422MOL0     H56968   4.674  -0.427   9.851  0.2706  2.4982 -2.8952
  422MOL0     H56969   4.085   0.109  10.063  0.9352  2.2795  1.4434
  422MOL0     H56970   3.882   0.203   9.941 -1.1456  0.7927 -1.4238
  423MOL0     O56971   1.839  10.784   5.338  0.2956 -0.5790 -0.3486
  423MOL0     C56972   1.900  10.875   5.388 -0.0083  0.1942  0.6487
  423MOL0     O56973   1.879  11.004   5.362  0.1952  0.6278 -0.7498
  423MOL0     C56974   1.797  11.044   5.257 -0.2533 -0.9036  0.1850
  423MOL0     C56975   1.785  10.987   5.133 -0.8326  0.0213  1.1476
  423MOL0     C56976   1.705  11.035   5.030  0.3484 -1.2171 -0.1095
  423MOL0     C56977   1.636  11.160   5.055  0.3725 -0.1255 -0.3347
  423MOL0     O56978   1.552  11.222   4.967  0.4667 -0.0113 -0.0941
  423MOL0     C56979   1.486  11.148   4.858  0.0930  0.0971  0.4477
  423MOL0     C56980   1.374  11.221   4.790  0.8841 -0.0336 -0.0783
  423MOL0     C56981   1.269  11.263   4.900 -0.0936  1.1869 -1.6733
  423MOL0     C56982   1.141  11.335   4.858 -0.0824  0.0643 -1.1842
  423MOL0     C56983   1.076  11.281   4.723 -0.0978 -0.0813  0.5390
  423MOL0     C56984   0.948  11.367   4.697 -0.2023  0.3590  0.5406
  423MOL0     C56985   0.846  11.297   4.605  0.0716  0.6644  0.1938
  423MOL0     C56986   0.880  11.291   4.449  0.2211 -0.2112  0.0796
  423MOL0     N56987   0.758  11.283   4.367  0.3062 -0.0246  0.3962
  423MOL0     C56988   0.657  11.384   4.355 -0.7842  0.0570  0.4934
  423MOL0     C56989   0.574  11.348   4.254 -0.1517  0.2996 -0.9881
  423MOL0     C56990   0.445  11.402   4.209  0.2606 -0.9980 -0.7954
  423MOL0     C56991   0.325  11.319   4.269 -0.4373  1.2127 -0.3156
  423MOL0     C56992   0.197  11.396   4.235  0.4561  0.7523  0.3693
  423MOL0     C56993   0.076  11.342   4.313 -0.7651  0.1762  0.2122
  423MOL0     O56994   0.007  11.279   4.207  0.5138 -0.0165  0.5255
  423MOL0     C56995  -0.134  11.278   4.210 -1.4312 -0.1430  0.3772
  423MOL0     C56996  -0.194  11.261   4.086 -0.0347 -0.1196  0.5429
  423MOL0     C56997  -0.335  11.260   4.072 -0.5192  0.3280 -0.0558
  423MOL0     C56998  -0.390  11.265   3.927 -0.2043 -0.3098  0.0665
  423MOL0     C56999  -0.421  11.267   4.188  0.6922  0.2087 -0.0406
  423MOL0     C57000  -0.570  11.279   4.193 -0.3326 -0.1118  0.9043
  423MOL0     O57001  -0.627  11.323   4.083  0.1380 -0.8136 -0.3398
  423MOL0     C57002  -0.764  11.314   4.052  0.2669  0.5704 -0.2527
  423MOL0     C57003  -0.858  11.243   4.135  0.5027  0.2430 -0.4495
  423MOL0     C57004  -0.990  11.232   4.093  0.7485 -0.5958  0.1240
  423MOL0     C57005  -1.019  11.269   3.964  0.1099  0.2179  0.0449
  423MOL0     O57006  -1.151  11.249   3.907  0.1964  0.3645 -0.2304
  423MOL0     C57007  -1.256  11.231   3.995 -1.0055 -0.6248 -0.7907
  423MOL0     C57008  -1.394  11.250   3.923  0.0038 -0.1066 -0.6832
  423MOL0     C57009  -1.504  11.190   4.006  0.0332  0.6262  0.0296
  423MOL0     C57010  -1.646  11.226   3.954  0.1209 -0.3685  0.4484
  423MOL0     C57011  -1.763  11.164   4.047 -0.4484 -0.2026  0.7347
  423MOL0     C57012  -1.877  11.220   3.977  0.5590  0.2158  0.2219
  423MOL0     C57013  -2.004  11.177   4.047 -0.0688 -1.0192  0.3869
  423MOL0     C57014  -2.119  11.194   3.952  0.3708 -1.1549 -0.0650
  423MOL0    Cl57015  -2.285  11.178   4.019  0.0592  0.4342  0.1688
  423MOL0     C57016  -0.929  11.333   3.877 -0.2714 -0.0979 -0.3142
  423MOL0     C57017  -0.805  11.357   3.927 -0.3969  0.3781  0.7215
  423MOL0     O57018  -0.623  11.240   4.294  0.1324  0.3635  0.0429
  423MOL0     C57019  -0.360  11.260   4.310 -0.2759 -1.1446 -0.2436
  423MOL0     C57020  -0.218  11.278   4.320  0.1377  0.4683 -0.1114
  423MOL0     N57021   0.637  11.238   4.189  0.2413  0.8196  0.0528
  423MOL0     N57022   0.746  11.205   4.249 -0.2981 -0.1712 -0.4802
  423MOL0     C57023   1.650  11.223   5.178  0.3741  0.4258 -0.2711
  423MOL0     C57024   1.732  11.166   5.278 -0.9751  0.2236 -0.0457
  423MOL0     C57025   2.010  10.846   5.480  0.5559 -1.3845 -0.5567
  423MOL0     C57026   2.032  10.714   5.533  0.7829 -1.7763 -0.2097
  423MOL0     C57027   2.142  10.689   5.617  0.5585  0.3131  0.3052
  423MOL0     C57028   2.232  10.780   5.655  0.5861  0.2270 -0.4175
  423MOL0     O57029   2.322  10.732   5.750 -0.6373 -0.1567 -1.0801
  423MOL0     C57030   2.425  10.821   5.796  0.2132  0.1420 -0.1310
  423MOL0     C57031   2.512  10.764   5.912 -0.6207  0.1865 -0.8667
  423MOL0     C57032   2.574  10.620   5.896 -0.8692 -0.5138  0.7043
  423MOL0     C57033   2.632  10.588   5.758  0.5826  0.1031 -0.1072
  423MOL0     C57034   2.737  10.684   5.723 -0.1822  0.3477 -0.3126
  423MOL0     C57035   2.807  10.779   5.701 -0.4181  0.0088 -0.6104
  423MOL0     C57036   2.215  10.906   5.604  0.4077  0.6717  0.9831
  423MOL0     C57037   2.107  10.939   5.510 -1.1096 -0.4082 -0.1770
  423MOL0     H57038   1.830  10.889   5.125 -0.6032  0.1775  0.4948
  423MOL0     H57039   1.696  10.989   4.932  0.7865  0.6775 -1.0841
  423MOL0     H57040   1.561  11.121   4.784 -0.5981  1.7381 -0.9149
  423MOL0     H57041   1.452  11.048   4.890  1.4205 -0.1819  1.0403
  423MOL0     H57042   1.401  11.317   4.744  2.5828 -0.5478 -0.2200
  423MOL0     H57043   1.319  11.160   4.718 -3.1370  1.0488  1.8366
  423MOL0     H57044   1.234  11.170   4.944  0.2164  2.1577  0.7862
  423MOL0     H57045   1.315  11.319   4.982  0.7219 -0.6684 -0.8215
  423MOL0     H57046   1.065  11.323   4.936  1.8423 -0.5968  0.7181
  423MOL0     H57047   1.157  11.443   4.860  0.0948  0.1110  2.4190
  423MOL0     H57048   1.144  11.291   4.637  0.2582  0.4922  0.8844
  423MOL0     H57049   1.052  11.175   4.736 -0.1590 -0.5145 -2.2828
  423MOL0     H57050   0.900  11.387   4.794 -0.5907  1.5036  0.1270
  423MOL0     H57051   0.973  11.464   4.652  0.1516 -0.1559 -0.3912
  423MOL0     H57052   0.845  11.194   4.641  0.0006  1.5876  3.1155
  423MOL0     H57053   0.744  11.335   4.617  1.1312  3.5911  0.6563
  423MOL0     H57054   0.944  11.205   4.430 -1.2551 -1.1328 -0.8780
  423MOL0     H57055   0.933  11.385   4.429  1.9767 -1.0973  0.3665
  423MOL0     H57056   0.645  11.466   4.425 -0.7546  2.2289 -1.9156
  423MOL0     H57057   0.434  11.505   4.242  0.8672 -0.7292 -1.4109
  423MOL0     H57058   0.436  11.411   4.100 -1.2415  1.6104 -0.5400
  423MOL0     H57059   0.343  11.310   4.376 -1.6816  0.5692 -0.1338
  423MOL0     H57060   0.328  11.224   4.215 -1.6354  1.2056 -0.4103
  423MOL0     H57061   0.181  11.404   4.127  2.2378  0.1580  0.0223
  423MOL0     H57062   0.216  11.498   4.270 -0.9125  0.3595  2.3872
  423MOL0     H57063   0.020  11.424   4.358 -0.5525  1.1728 -1.2772
  423MOL0     H57064   0.107  11.268   4.387 -0.8937  0.0773  0.1686
  423MOL0     H57065  -0.133  11.243   3.998  0.2301  2.6968  0.0600
  423MOL0     H57066  -0.316  11.266   3.846  0.9703 -1.8435  1.0449
  423MOL0     H57067  -0.447  11.175   3.905 -2.6077  1.4690 -1.3988
  423MOL0     H57068  -0.454  11.351   3.905 -0.3537 -0.3510  0.3280
  423MOL0     H57069  -0.833  11.209   4.235  0.7197  2.4407  0.3044
  423MOL0     H57070  -1.065  11.185   4.156  0.4162 -1.5562 -0.9600
  423MOL0     H57071  -1.238  11.129   4.032  0.5938  0.1100  0.5640
  423MOL0     H57072  -1.248  11.304   4.075 -0.7271 -0.1042 -1.2880
  423MOL0     H57073  -1.401  11.359   3.914 -0.6066 -0.0655  0.2485
  423MOL0     H57074  -1.392  11.199   3.826 -1.9155 -1.7664  0.0856
  423MOL0     H57075  -1.489  11.218   4.111  3.7897 -2.2957  0.4941
  423MOL0     H57076  -1.495  11.081   4.008  0.1446  0.6224 -0.5203
  423MOL0     H57077  -1.646  11.335   3.944  2.0429 -0.1741  1.9106
  423MOL0     H57078  -1.658  11.187   3.853  2.1237  0.2234 -0.0548
  423MOL0     H57079  -1.768  11.212   4.145  0.6435  1.3236  0.0789
  423MOL0     H57080  -1.762  11.054   4.051 -1.3032 -0.2278  0.4543
  423MOL0     H57081  -1.868  11.329   3.976  0.5337  0.2153 -0.6944
  423MOL0     H57082  -1.875  11.180   3.875  0.0111  0.3751  0.1506
  423MOL0     H57083  -2.028  11.245   4.130 -1.2345 -1.7406  0.6613
  423MOL0     H57084  -1.994  11.076   4.088  0.9206  0.5622  4.5669
  423MOL0     H57085  -2.104  11.116   3.877  0.2390 -0.2078 -1.1166
  423MOL0     H57086  -2.116  11.294   3.907  1.0830  0.1223  2.6096
  423MOL0     H57087  -0.952  11.360   3.775 -0.2601 -0.2813 -0.3658
  423MOL0     H57088  -0.727  11.405   3.868  1.4932 -0.9225  2.0210
  423MOL0     H57089  -0.409  11.248   4.406 -0.4259  1.6669  0.1178
  423MOL0     H57090  -0.180  11.276   4.422 -0.7887 -1.6493  0.2443
  423MOL0     H57091   1.596  11.316   5.192  2.2452  1.8730 -2.1106
  423MOL0     H57092   1.745  11.213   5.375 -0.4505  0.2699 -0.1345
  423MOL0     H57093   1.964  10.632   5.514  2.2668 -3.2994  0.7524
  423MOL0     H57094   2.150  10.582   5.635 -1.5224 -0.1505 -1.1256
  423MOL0     H57095   2.483  10.867   5.716 -0.3197 -0.4245 -0.8604
  423MOL0     H57096   2.364  10.906   5.830 -0.1568  0.2342 -1.0033
  423MOL0     H57097   2.453  10.775   6.003 -0.5056 -2.0528 -0.4674
  423MOL0     H57098   2.595  10.835   5.922 -1.0201  0.6469 -0.8055
  423MOL0     H57099   2.496  10.549   5.923 -2.4027  0.8774  0.1478
  423MOL0     H57100   2.657  10.615   5.967  0.2219 -4.7864 -0.5688
  423MOL0     H57101   2.551  10.585   5.683  1.9876  1.4463 -1.7753
  423MOL0     H57102   2.677  10.490   5.770  1.3035  0.5974  1.5266
  423MOL0     H57103   2.874  10.860   5.677 -2.1346  1.1128 -1.9258
  423MOL0     H57104   2.284  10.988   5.622  1.3631 -0.3643  2.3263
  423MOL0     H57105   2.098  11.042   5.474  0.2136  1.4629  4.2466
  424MOL0     O57106  11.129  10.904   6.834  1.0174  0.0170  0.3165
  424MOL0     C57107  11.183  11.006   6.803 -0.1441  0.5949  1.1680
  424MOL0     O57108  11.125  11.127   6.788  0.5394  0.1252 -0.3709
  424MOL0     C57109  10.998  11.148   6.830  0.9327  0.2040  0.2158
  424MOL0     C57110  10.902  11.197   6.733 -0.3918  0.2066 -0.5491
  424MOL0     C57111  10.769  11.233   6.776 -0.0018  0.3340 -0.3243
  424MOL0     C57112  10.736  11.219   6.907 -0.1412 -0.7623 -1.1975
  424MOL0     O57113  10.614  11.271   6.960  0.6965  0.0127  0.5135
  424MOL0     C57114  10.543  11.194   7.054 -0.2892  0.0724 -0.4394
  424MOL0     C57115  10.398  11.238   7.068  0.4138 -0.0711 -0.1076
  424MOL0     C57116  10.388  11.384   7.113 -0.6353 -0.2659  0.0098
  424MOL0     C57117  10.248  11.436   7.105 -0.2271 -0.3817 -0.1791
  424MOL0     C57118  10.167  11.396   7.226  1.0413 -0.6760  0.2205
  424MOL0     C57119  10.078  11.508   7.287  0.0146  0.0550 -0.1345
  424MOL0     C57120   9.985  11.587   7.188 -0.3009 -0.2378  0.7370
  424MOL0     C57121   9.892  11.498   7.099 -0.4426  0.1540 -0.0194
  424MOL0     N57122   9.782  11.429   7.164 -0.5001  0.4785 -0.6605
  424MOL0     C57123   9.653  11.466   7.193  0.1585 -0.0919  0.0786
  424MOL0     C57124   9.608  11.371   7.269 -0.2022  0.0634 -0.1342
  424MOL0     C57125   9.476  11.383   7.341 -0.4323  0.4876  0.3103
  424MOL0     C57126   9.348  11.406   7.251  0.5685  0.6077 -0.0136
  424MOL0     C57127   9.255  11.492   7.330  0.3006  0.6158  0.8351
  424MOL0     C57128   9.124  11.522   7.252  0.0129  0.5785 -0.4797
  424MOL0     O57129   9.064  11.403   7.198 -0.3727  0.1532  0.5743
  424MOL0     C57130   8.934  11.399   7.168  0.5159 -0.4868  0.5738
  424MOL0     C57131   8.872  11.278   7.144  0.1007  1.1574  0.1085
  424MOL0     C57132   8.736  11.267   7.096 -0.0625  0.0247 -0.3002
  424MOL0     C57133   8.681  11.129   7.101 -0.2327 -0.4318 -0.1445
  424MOL0     C57134   8.658  11.388   7.084 -0.1391  0.7608  0.7700
  424MOL0     C57135   8.520  11.394   7.031 -0.9122  0.4809  0.6505
  424MOL0     O57136   8.452  11.517   7.025 -0.1648  0.4788  0.3334
  424MOL0     C57137   8.323  11.514   6.971 -0.5355 -0.4696  0.0342
  424MOL0     C57138   8.306  11.611   6.878  0.0235 -0.1246  0.0550
  424MOL0     C57139   8.180  11.615   6.810 -0.1362  0.1474 -0.9764
  424MOL0     C57140   8.074  11.525   6.836 -0.5724  0.6353 -0.3731
  424MOL0     O57141   7.951  11.538   6.776  0.6281  0.2741  0.1053
  424MOL0     C57142   7.862  11.425   6.752 -0.2610  0.2372  0.4108
  424MOL0     C57143   7.723  11.479   6.713 -0.2105 -0.9918  0.0395
  424MOL0     C57144   7.637  11.513   6.829  0.5869 -0.2238 -0.6543
  424MOL0     C57145   7.488  11.510   6.785 -0.9542  0.6653 -0.3514
  424MOL0     C57146   7.391  11.515   6.904  0.9908 -0.0607  0.2676
  424MOL0     C57147   7.241  11.514   6.861  0.1904  0.5267 -0.3180
  424MOL0     C57148   7.147  11.542   6.983 -0.2124 -0.0735 -0.6198
  424MOL0     C57149   6.998  11.542   6.967 -0.4020 -0.2107 -0.0967
  424MOL0    Cl57150   6.949  11.380   6.883 -0.5501 -0.1161  0.2865
  424MOL0     C57151   8.097  11.432   6.939  0.0725  0.0514  0.2415
  424MOL0     C57152   8.219  11.430   7.001 -0.3521 -0.2570 -1.1715
  424MOL0     O57153   8.469  11.288   6.989 -0.1804 -0.3036  0.1065
  424MOL0     C57154   8.721  11.509   7.114 -0.0889  0.4498 -0.4157
  424MOL0     C57155   8.854  11.513   7.156  0.9387  0.1234 -0.2324
  424MOL0     N57156   9.696  11.274   7.284  0.0309  0.7023 -0.5655
  424MOL0     N57157   9.802  11.308   7.225 -0.5152 -0.0100  0.4173
  424MOL0     C57158  10.824  11.160   6.992  0.3682 -0.4002  0.6993
  424MOL0     C57159  10.951  11.123   6.954  0.5698  1.6744 -1.1193
  424MOL0     C57160  11.328  11.004   6.768  0.4521  0.8490 -0.6647
  424MOL0     C57161  11.390  10.878   6.757 -0.8442 -1.0036 -0.2164
  424MOL0     C57162  11.525  10.875   6.724 -0.5964 -0.4408  0.2834
  424MOL0     C57163  11.609  10.995   6.702  0.0850  0.3259 -1.0244
  424MOL0     O57164  11.748  10.994   6.684  0.0809  0.8570 -0.1113
  424MOL0     C57165  11.820  10.867   6.673 -0.1941 -0.0958 -0.5603
  424MOL0     C57166  11.801  10.796   6.533 -0.6299 -0.7865  1.2360
  424MOL0     C57167  11.874  10.661   6.512  0.0028 -0.2375  0.7650
  424MOL0     C57168  11.874  10.608   6.375 -0.2884 -0.2844  0.2788
  424MOL0     C57169  11.733  10.582   6.338 -0.7565  0.2400  0.0700
  424MOL0     C57170  11.611  10.572   6.323 -0.6333 -0.4567 -0.2198
  424MOL0     C57171  11.541  11.119   6.704 -1.1439  0.5055  0.2203
  424MOL0     C57172  11.404  11.119   6.740  0.3811 -0.1191 -0.3591
  424MOL0     H57173  10.935  11.219   6.632 -1.6821  2.2907 -0.5688
  424MOL0     H57174  10.704  11.274   6.699 -0.1854  1.1847  0.2814
  424MOL0     H57175  10.543  11.087   7.032  0.1390 -0.2720  1.1159
  424MOL0     H57176  10.587  11.218   7.151 -0.6135  2.6184 -0.8481
  424MOL0     H57177  10.334  11.218   6.981 -0.5387 -3.0876  1.1519
  424MOL0     H57178  10.359  11.181   7.153  2.6358 -4.8885 -1.9491
  424MOL0     H57179  10.439  11.386   7.210 -0.0297 -0.5846 -0.2916
  424MOL0     H57180  10.455  11.448   7.055 -1.1991  2.6334  2.3416
  424MOL0     H57181  10.252  11.543   7.081 -0.4709 -0.1231  0.8663
  424MOL0     H57182  10.196  11.398   7.016 -0.3731  0.6932 -0.5655
  424MOL0     H57183  10.101  11.310   7.208 -0.9810  0.7827  0.2338
  424MOL0     H57184  10.227  11.363   7.311  0.6376 -0.2383  0.6849
  424MOL0     H57185  10.017  11.477   7.372 -0.9455  1.1889 -0.3819
  424MOL0     H57186  10.153  11.579   7.322 -0.6918  0.3067  0.9251
  424MOL0     H57187   9.913  11.648   7.242 -2.8372 -0.4166 -2.1132
  424MOL0     H57188  10.053  11.647   7.127  0.4192 -1.0196  0.7408
  424MOL0     H57189   9.958  11.435   7.040  2.2486  2.8425 -0.0967
  424MOL0     H57190   9.854  11.568   7.024  1.4937  1.1069 -0.1580
  424MOL0     H57191   9.613  11.565   7.176 -0.4509 -0.0081  1.8502
  424MOL0     H57192   9.469  11.297   7.408 -0.1122 -0.1519 -0.4551
  424MOL0     H57193   9.492  11.464   7.413  4.7711  1.8371 -1.9267
  424MOL0     H57194   9.304  11.308   7.229  1.9977 -0.0729  0.0138
  424MOL0     H57195   9.371  11.444   7.151  1.5573 -1.8323 -0.7889
  424MOL0     H57196   9.309  11.580   7.365 -0.9772  0.8880  2.2437
  424MOL0     H57197   9.222  11.439   7.420 -1.3429 -0.5894 -0.4053
  424MOL0     H57198   9.160  11.583   7.168  2.0533  2.6280  1.7268
  424MOL0     H57199   9.061  11.573   7.325  0.9612 -2.5489  2.7691
  424MOL0     H57200   8.938  11.196   7.169 -0.6991  0.7742  1.0298
  424MOL0     H57201   8.672  11.100   6.996 -0.0456  1.2714 -0.6558
  424MOL0     H57202   8.745  11.063   7.162  0.4785  0.5095  0.1564
  424MOL0     H57203   8.586  11.116   7.154  0.6017 -1.4895  1.1632
  424MOL0     H57204   8.392  11.677   6.871 -0.2113  0.4206  1.8243
  424MOL0     H57205   8.144  11.680   6.731 -2.9768 -0.0774  0.0050
  424MOL0     H57206   7.907  11.371   6.669 -0.0051  2.0674 -0.7085
  424MOL0     H57207   7.850  11.364   6.842  0.1154  0.3426  0.5324
  424MOL0     H57208   7.728  11.559   6.638 -1.6683  0.5503  1.5188
  424MOL0     H57209   7.682  11.388   6.666 -0.3633 -1.6116  1.3301
  424MOL0     H57210   7.661  11.608   6.877  3.8728 -1.6464  0.8167
  424MOL0     H57211   7.655  11.436   6.904 -0.4227 -0.6293 -0.8146
  424MOL0     H57212   7.465  11.600   6.728  3.1504  1.7837 -0.5420
  424MOL0     H57213   7.468  11.419   6.726  3.1715 -0.5879 -0.1453
  424MOL0     H57214   7.406  11.602   6.968 -1.9356  0.1544  0.7964
  424MOL0     H57215   7.412  11.426   6.965 -1.0044 -3.7843 -3.8912
  424MOL0     H57216   7.226  11.597   6.791 -0.1760  1.4553  0.8314
  424MOL0     H57217   7.219  11.421   6.807  1.0088  0.9861 -1.4790
  424MOL0     H57218   7.179  11.639   7.023 -1.0036  0.2125 -0.6632
  424MOL0     H57219   7.176  11.477   7.066  1.7564  0.6586 -0.6828
  424MOL0     H57220   6.969  11.619   6.895 -2.0695 -1.1246 -0.4710
  424MOL0     H57221   6.958  11.555   7.068  3.3265 -1.3823  1.7323
  424MOL0     H57222   8.026  11.359   6.975  1.5170 -1.9528 -0.7397
  424MOL0     H57223   8.224  11.362   7.086 -0.5170  1.2529  0.1009
  424MOL0     H57224   8.669  11.602   7.094 -2.2165 -0.8734 -1.2645
  424MOL0     H57225   8.902  11.611   7.161  1.0853  0.1510 -1.7401
  424MOL0     H57226  10.792  11.154   7.096  0.7283 -1.7514  0.7639
  424MOL0     H57227  11.025  11.074   7.017  1.4234  3.2962 -0.7993
  424MOL0     H57228  11.327  10.791   6.772 -1.1463 -0.8151 -0.3832
  424MOL0     H57229  11.579  10.781   6.722 -0.4445 -0.4750  2.8104
  424MOL0     H57230  11.925  10.891   6.690 -0.9288  1.7265  2.0866
  424MOL0     H57231  11.784  10.799   6.751 -0.9621 -1.1673 -1.8027
  424MOL0     H57232  11.836  10.868   6.459 -1.9539 -0.8254  0.5431
  424MOL0     H57233  11.694  10.782   6.519 -0.1765 -3.9336  0.1310
  424MOL0     H57234  11.826  10.589   6.578 -2.0286 -1.8244 -2.1870
  424MOL0     H57235  11.978  10.676   6.540  1.2929 -2.6856 -2.1459
  424MOL0     H57236  11.916  10.507   6.372  1.5698  0.3634 -3.9108
  424MOL0     H57237  11.930  10.675   6.308 -0.7537  2.4107  2.3928
  424MOL0     H57238  11.505  10.562   6.326 -0.6492 -0.4045 -0.5771
  424MOL0     H57239  11.597  11.207   6.673 -1.7574  0.4834 -1.0061
  424MOL0     H57240  11.353  11.213   6.754 -1.5176 -1.2298  0.5554
  425MOL0     O57241   3.053   8.465   4.466  0.0597 -1.3583 -0.0675
  425MOL0     C57242   3.101   8.544   4.379  0.3977 -0.1551 -0.4183
  425MOL0     O57243   3.029   8.632   4.298  0.2108  0.0788  0.5236
  425MOL0     C57244   2.899   8.661   4.328  0.0519  0.3319 -0.1489
  425MOL0     C57245   2.860   8.780   4.391 -0.2381 -0.3259  1.5851
  425MOL0     C57246   2.727   8.803   4.434  0.4193  0.7345 -0.3362
  425MOL0     C57247   2.631   8.703   4.413  0.6437 -0.7484 -0.3903
  425MOL0     O57248   2.496   8.713   4.444  0.1989  0.1595 -0.6679
  425MOL0     C57249   2.449   8.847   4.447 -0.6549  0.9088  0.4684
  425MOL0     C57250   2.292   8.840   4.458 -0.1956 -0.5438  0.1929
  425MOL0     C57251   2.253   8.793   4.598  0.8650 -0.0563  0.4227
  425MOL0     C57252   2.109   8.747   4.600  0.5808 -0.1076 -0.3802
  425MOL0     C57253   2.073   8.681   4.737  0.2290  0.1754 -0.2800
  425MOL0     C57254   2.055   8.788   4.852 -0.2546 -0.0279  0.2614
  425MOL0     C57255   2.029   8.702   4.979  0.1171  0.5107 -0.2430
  425MOL0     C57256   2.018   8.779   5.109 -0.5733 -0.1888  0.2435
  425MOL0     N57257   1.908   8.878   5.100  0.4505 -0.4140 -0.2448
  425MOL0     C57258   1.922   9.012   5.137 -0.1003 -0.3675 -0.9324
  425MOL0     C57259   1.795   9.065   5.124  0.0910  0.1077  0.7295
  425MOL0     C57260   1.779   9.213   5.132  0.0306 -0.8044 -0.6605
  425MOL0     C57261   1.628   9.265   5.126  0.3808  0.2019 -0.3007
  425MOL0     C57262   1.540   9.223   5.254  0.0795  0.7246 -0.1963
  425MOL0     C57263   1.397   9.252   5.220  0.0842 -0.7762  0.1208
  425MOL0     O57264   1.363   9.397   5.224  0.0213  0.1900  0.2546
  425MOL0     C57265   1.234   9.444   5.195 -0.0994  0.0042  0.6618
  425MOL0     C57266   1.224   9.579   5.189  0.9216 -0.1285 -0.3917
  425MOL0     C57267   1.106   9.647   5.155 -0.1551 -0.0714 -0.1778
  425MOL0     C57268   1.115   9.803   5.148  0.8180  1.0622 -0.2621
  425MOL0     C57269   0.995   9.572   5.109  0.5041  0.3003 -0.7362
  425MOL0     C57270   0.859   9.626   5.073  0.1917 -0.5221 -0.1698
  425MOL0     O57271   0.769   9.528   5.049  0.0401  0.1961 -0.2368
  425MOL0     C57272   0.646   9.562   5.018  0.9927  0.3260  0.4198
  425MOL0     C57273   0.533   9.573   5.109  0.6866  0.2866  0.8135
  425MOL0     C57274   0.402   9.607   5.067  0.0755 -0.9586  0.3518
  425MOL0     C57275   0.372   9.636   4.937  0.4508 -0.5473 -0.3526
  425MOL0     O57276   0.244   9.685   4.907  0.1167  0.3627  0.1772
  425MOL0     C57277   0.209   9.745   4.777  0.2203 -0.8756 -0.6234
  425MOL0     C57278   0.094   9.841   4.782 -0.4285 -0.3064  0.3447
  425MOL0     C57279  -0.048   9.773   4.812 -1.1374 -0.0343  0.6074
  425MOL0     C57280  -0.164   9.874   4.822 -0.7712 -0.0706 -0.9279
  425MOL0     C57281  -0.278   9.804   4.899  0.8768  0.0552 -0.2498
  425MOL0     C57282  -0.398   9.896   4.934  0.1093 -1.1939 -0.3270
  425MOL0     C57283  -0.514   9.820   4.981  0.4545 -0.7398  0.5727
  425MOL0     C57284  -0.626   9.913   5.019  0.3604  0.0959 -0.0757
  425MOL0    Cl57285  -0.776   9.822   5.051  0.3840 -0.3307  0.1481
  425MOL0     C57286   0.480   9.632   4.841  1.0463 -0.8708 -0.3789
  425MOL0     C57287   0.609   9.589   4.883  0.1088 -0.7503  0.2372
  425MOL0     O57288   0.829   9.746   5.065 -0.6676 -0.1461  0.0690
  425MOL0     C57289   1.012   9.423   5.109 -0.9015 -0.2427 -0.0292
  425MOL0     C57290   1.133   9.366   5.151  0.6911  0.9338  0.9279
  425MOL0     N57291   1.706   8.958   5.094  0.3827 -0.4045 -0.6277
  425MOL0     N57292   1.774   8.849   5.082  0.1960  0.4003  0.1178
  425MOL0     C57293   2.664   8.581   4.357  0.5708  0.5483  0.3060
  425MOL0     C57294   2.798   8.556   4.320 -0.0163 -0.4386  0.0379
  425MOL0     C57295   3.250   8.540   4.378  0.2591 -0.2150  0.8861
  425MOL0     C57296   3.317   8.442   4.454 -0.6504 -0.0927 -0.7339
  425MOL0     C57297   3.455   8.456   4.465 -0.9894 -0.0640 -0.5140
  425MOL0     C57298   3.523   8.565   4.414  0.6853  0.2096 -0.1269
  425MOL0     O57299   3.655   8.580   4.450 -0.0865  0.7031 -0.4513
  425MOL0     C57300   3.748   8.476   4.413  0.3927  0.2244 -0.7678
  425MOL0     C57301   3.860   8.546   4.340 -0.6094 -0.3959  0.2932
  425MOL0     C57302   3.947   8.440   4.268 -0.7751 -0.2101 -0.0839
  425MOL0     C57303   4.085   8.484   4.247  0.1641 -0.0252 -0.3081
  425MOL0     C57304   4.139   8.462   4.105  0.2043  0.4158 -0.3738
  425MOL0     C57305   4.194   8.442   4.004  0.5784  0.3257 -0.9322
  425MOL0     C57306   3.459   8.647   4.322  0.0234 -0.3282 -0.1332
  425MOL0     C57307   3.324   8.634   4.305 -0.4262 -0.0734 -0.1852
  425MOL0     H57308   2.935   8.855   4.415 -0.7005 -0.1751  2.6001
  425MOL0     H57309   2.705   8.893   4.490  3.0770  1.9405 -1.0525
  425MOL0     H57310   2.486   8.910   4.529 -0.5525  1.6584 -0.1439
  425MOL0     H57311   2.472   8.892   4.350  1.0158  1.6689  1.1723
  425MOL0     H57312   2.242   8.935   4.436 -0.1732 -0.6534 -0.3516
  425MOL0     H57313   2.266   8.763   4.385  1.9859 -1.8020  0.6523
  425MOL0     H57314   2.312   8.703   4.620 -0.1468 -0.5568  1.1779
  425MOL0     H57315   2.269   8.865   4.679 -1.6419  1.5813 -0.4414
  425MOL0     H57316   2.044   8.834   4.584  0.3045 -0.1935  0.2386
  425MOL0     H57317   2.098   8.674   4.519  0.5093 -1.1393  0.5386
  425MOL0     H57318   1.981   8.624   4.731  1.1154 -1.1779 -1.6484
  425MOL0     H57319   2.154   8.614   4.768 -1.5325 -0.8782  2.3790
  425MOL0     H57320   2.152   8.834   4.874  0.1773 -0.4112 -0.8033
  425MOL0     H57321   1.976   8.858   4.823  1.0347  0.3117 -2.7237
  425MOL0     H57322   1.933   8.650   4.968 -0.7001  2.2693 -2.2221
  425MOL0     H57323   2.111   8.630   4.988  1.2849  1.3791 -2.9014
  425MOL0     H57324   2.111   8.834   5.127 -1.0970  0.8210 -0.0509
  425MOL0     H57325   2.017   8.713   5.197  0.0959  1.7732  1.7929
  425MOL0     H57326   2.013   9.065   5.164 -1.9403  1.6668  1.8744
  425MOL0     H57327   1.834   9.249   5.220  1.3131  0.4794 -1.9310
  425MOL0     H57328   1.835   9.267   5.055  1.2939  1.2401  1.5756
  425MOL0     H57329   1.577   9.231   5.036  1.0775  1.8400 -1.3558
  425MOL0     H57330   1.606   9.370   5.106 -2.7154 -0.1377  0.8292
  425MOL0     H57331   1.583   9.273   5.341  1.7997 -1.6875  0.4315
  425MOL0     H57332   1.549   9.116   5.274 -0.6060  0.2607 -2.1688
  425MOL0     H57333   1.336   9.198   5.292  2.3516 -1.2116  1.7985
  425MOL0     H57334   1.361   9.230   5.119  0.7024  0.7823 -0.4844
  425MOL0     H57335   1.306   9.637   5.231  0.8942 -1.7056  1.9991
  425MOL0     H57336   1.019   9.849   5.173  1.0432  1.3865 -0.0062
  425MOL0     H57337   1.183   9.845   5.222 -0.2873 -1.4723  2.4261
  425MOL0     H57338   1.140   9.829   5.045 -0.0948 -1.7186 -1.2873
  425MOL0     H57339   0.557   9.543   5.210  0.2027  0.2910  0.9311
  425MOL0     H57340   0.322   9.612   5.140 -0.1040  0.9243  0.0795
  425MOL0     H57341   0.288   9.818   4.754 -1.1379  0.0948 -2.4796
  425MOL0     H57342   0.211   9.665   4.703  3.7414  0.3371 -2.0674
  425MOL0     H57343   0.121   9.906   4.866  0.1699 -3.4677  2.7579
  425MOL0     H57344   0.092   9.896   4.687  0.3289 -0.9124 -0.0235
  425MOL0     H57345  -0.041   9.731   4.914 -0.7318 -0.2488  0.4942
  425MOL0     H57346  -0.065   9.686   4.747 -1.2947 -0.7909  1.6231
  425MOL0     H57347  -0.127   9.968   4.864 -2.7718 -0.0778  1.0227
  425MOL0     H57348  -0.207   9.902   4.725  1.2686  2.0000 -1.3116
  425MOL0     H57349  -0.249   9.749   4.989  0.7647 -1.3048 -1.0273
  425MOL0     H57350  -0.324   9.729   4.835  3.9668 -1.1496 -1.2835
  425MOL0     H57351  -0.362   9.971   5.006 -1.9809  1.1413 -1.5586
  425MOL0     H57352  -0.440   9.944   4.845 -0.3741 -0.6309  0.1951
  425MOL0     H57353  -0.486   9.747   5.057  1.4913 -0.9428  0.0231
  425MOL0     H57354  -0.551   9.763   4.895 -0.2505 -0.2244  0.5290
  425MOL0     H57355  -0.650   9.962   4.925 -1.2222 -1.4925 -0.5392
  425MOL0     H57356  -0.607   9.974   5.108 -1.0933  1.3493 -0.5862
  425MOL0     H57357   0.462   9.653   4.736 -1.3176  0.0079  0.1416
  425MOL0     H57358   0.687   9.578   4.808 -1.5005  1.4647 -1.9222
  425MOL0     H57359   0.937   9.352   5.075  0.8683 -2.1650 -0.1123
  425MOL0     H57360   1.131   9.257   5.159  0.2769  0.5320 -2.7517
  425MOL0     H57361   2.588   8.504   4.344 -2.5192  3.5450 -0.7378
  425MOL0     H57362   2.844   8.467   4.280  1.1229  0.3230 -0.3954
  425MOL0     H57363   3.262   8.357   4.494  2.5311 -2.1870 -0.5006
  425MOL0     H57364   3.512   8.384   4.522 -2.8616 -1.8130 -0.7265
  425MOL0     H57365   3.790   8.434   4.505  0.5576  0.0433 -0.9258
  425MOL0     H57366   3.700   8.407   4.343 -0.6749 -0.5892  0.7182
  425MOL0     H57367   3.911   8.617   4.405  0.8454 -0.1838 -1.0334
  425MOL0     H57368   3.808   8.608   4.266  0.5181 -1.5402 -1.5255
  425MOL0     H57369   3.900   8.417   4.172 -0.9678 -0.9794  0.1854
  425MOL0     H57370   3.956   8.342   4.317  2.4646 -0.9952 -1.9295
  425MOL0     H57371   4.155   8.431   4.312 -1.9361  0.3551  2.4397
  425MOL0     H57372   4.093   8.591   4.268 -0.7096  0.5186 -2.4674
  425MOL0     H57373   4.266   8.434   3.924  0.7299  2.1828 -1.0206
  425MOL0     H57374   3.510   8.734   4.280 -0.0899 -0.7313 -1.1316
  425MOL0     H57375   3.265   8.706   4.248  0.6601  0.8074 -0.2498
  426MOL0     O57376   8.054   4.330   1.055  0.2910  0.1414  0.0550
  426MOL0     C57377   7.949   4.280   1.027  0.8653  1.2522 -0.9720
  426MOL0     O57378   7.854   4.222   1.117 -0.3415  0.4857  0.1478
  426MOL0     C57379   7.855   4.231   1.256 -0.4453 -0.2927  0.4370
  426MOL0     C57380   7.913   4.329   1.331 -0.1658 -0.7295 -0.2344
  426MOL0     C57381   7.905   4.319   1.471 -0.8252 -1.2405 -0.0204
  426MOL0     C57382   7.835   4.209   1.534 -0.0022 -0.4670  0.2275
  426MOL0     O57383   7.831   4.186   1.666 -1.1477  0.2690 -0.5746
  426MOL0     C57384   7.821   4.295   1.758 -0.6429  1.2146  1.0017
  426MOL0     C57385   7.705   4.384   1.733  0.3284 -0.5325 -0.2981
  426MOL0     C57386   7.574   4.323   1.688 -0.9524 -0.4771 -0.1936
  426MOL0     C57387   7.468   4.426   1.729  0.5225 -0.7364 -0.2514
  426MOL0     C57388   7.335   4.407   1.637  0.7313  0.3554 -1.0771
  426MOL0     C57389   7.238   4.522   1.657  0.6162  0.1726  0.2018
  426MOL0     C57390   7.102   4.505   1.584 -0.4200 -0.1879  0.8815
  426MOL0     C57391   6.991   4.604   1.594  0.4262 -0.2744 -0.9149
  426MOL0     N57392   7.031   4.715   1.511  0.0659  0.8531 -0.3204
  426MOL0     C57393   7.014   4.748   1.373 -0.1224  0.0250  0.1221
  426MOL0     C57394   7.064   4.877   1.367  0.1053  0.4547 -0.2194
  426MOL0     C57395   7.095   4.962   1.249  0.1479 -0.5850  0.4309
  426MOL0     C57396   6.979   5.054   1.206  0.4523  0.8851  0.9211
  426MOL0     C57397   6.846   4.977   1.166 -0.7164 -0.2107 -0.1761
  426MOL0     C57398   6.737   5.063   1.105 -0.2378  0.5101  0.3587
  426MOL0     O57399   6.658   5.121   1.204 -0.6511 -0.3471 -0.2623
  426MOL0     C57400   6.542   5.192   1.171 -0.7461 -0.1247  0.2857
  426MOL0     C57401   6.453   5.222   1.273 -0.3585 -0.1934  0.1705
  426MOL0     C57402   6.336   5.304   1.250 -0.3332 -0.0550 -0.0537
  426MOL0     C57403   6.247   5.329   1.374 -0.0317  0.2694 -0.5325
  426MOL0     C57404   6.312   5.365   1.118  0.6790 -0.0281  0.3704
  426MOL0     C57405   6.194   5.453   1.080 -0.6386 -0.1443  0.1360
  426MOL0     O57406   6.201   5.485   0.940  0.3605  0.6077 -0.0235
  426MOL0     C57407   6.083   5.504   0.874  0.1270 -0.0005 -0.2034
  426MOL0     C57408   5.968   5.424   0.902 -0.5975 -0.5385  0.4337
  426MOL0     C57409   5.856   5.443   0.824  0.8542 -0.7396  0.7514
  426MOL0     C57410   5.841   5.541   0.728  0.1316  0.0619  0.4080
  426MOL0     O57411   5.725   5.573   0.668  0.1733 -0.6541  0.0656
  426MOL0     C57412   5.623   5.480   0.640  0.4903  0.3801  0.1279
  426MOL0     C57413   5.607   5.459   0.485 -0.3811 -0.1710  0.0163
  426MOL0     C57414   5.473   5.402   0.441 -0.5323  0.4550  0.4912
  426MOL0     C57415   5.354   5.503   0.468 -0.1956  0.6842 -0.6191
  426MOL0     C57416   5.232   5.466   0.384 -0.0644 -0.4638 -0.0614
  426MOL0     C57417   5.178   5.325   0.400 -0.7678  0.3083 -0.3276
  426MOL0     C57418   5.085   5.310   0.285  0.5659 -0.0021  0.5784
  426MOL0     C57419   5.020   5.172   0.285 -0.1696 -0.0070  0.0328
  426MOL0    Cl57420   4.897   5.150   0.409 -0.0612 -0.5538  0.2474
  426MOL0     C57421   5.954   5.614   0.694  0.3754 -0.1282  0.0388
  426MOL0     C57422   6.075   5.598   0.768 -0.0686 -0.1111  0.0577
  426MOL0     O57423   6.111   5.480   1.164  0.3370 -1.1931  0.3329
  426MOL0     C57424   6.406   5.323   1.020  0.9566  0.6746 -0.3338
  426MOL0     C57425   6.517   5.245   1.050  0.2671  0.4614 -0.1121
  426MOL0     N57426   7.114   4.906   1.492 -0.9168 -0.4459  0.1085
  426MOL0     N57427   7.104   4.814   1.576  0.4190 -0.0492  0.0825
  426MOL0     C57428   7.781   4.108   1.453 -0.1834  0.1471  0.2044
  426MOL0     C57429   7.789   4.124   1.310  0.3067 -0.2776 -0.0459
  426MOL0     C57430   7.909   4.263   0.882  0.3616 -0.2505  0.1441
  426MOL0     C57431   7.995   4.310   0.780 -1.1945 -0.0973  0.2541
  426MOL0     C57432   7.974   4.290   0.646  0.6459 -0.0174  0.1957
  426MOL0     C57433   7.860   4.219   0.605  0.3045 -0.4051 -0.5406
  426MOL0     O57434   7.813   4.199   0.478 -0.3714  0.3684  0.0455
  426MOL0     C57435   7.854   4.292   0.372 -0.2361  0.1224  0.0786
  426MOL0     C57436   7.928   4.214   0.254  0.5718  0.0834 -0.1730
  426MOL0     C57437   8.060   4.144   0.300 -0.4260  0.0788 -0.0995
  426MOL0     C57438   8.039   3.993   0.305  0.1192 -0.2979 -0.1115
  426MOL0     C57439   8.157   3.924   0.354 -0.6172  0.1442  0.5841
  426MOL0     C57440   8.263   3.867   0.379 -0.3878 -0.0791  0.3720
  426MOL0     C57441   7.774   4.177   0.705  0.8654  0.3161 -0.0262
  426MOL0     C57442   7.793   4.199   0.842 -0.4171 -1.2446 -0.2087
  426MOL0     H57443   7.953   4.416   1.280 -2.0359 -1.2504 -2.8026
  426MOL0     H57444   7.943   4.402   1.529  0.3818 -2.9676  1.7953
  426MOL0     H57445   7.811   4.257   1.860 -4.9411 -1.3265 -0.1204
  426MOL0     H57446   7.917   4.346   1.750  0.4775 -0.5269  2.4918
  426MOL0     H57447   7.685   4.430   1.830  0.2206  1.1006 -1.0660
  426MOL0     H57448   7.728   4.458   1.655 -3.3233  0.5436 -0.5746
  426MOL0     H57449   7.573   4.303   1.581 -1.3478  2.3300 -0.7663
  426MOL0     H57450   7.562   4.231   1.747 -1.3257 -1.0495 -1.1339
  426MOL0     H57451   7.448   4.425   1.836 -1.2487  2.2947 -0.4558
  426MOL0     H57452   7.500   4.528   1.704 -0.4366 -0.9526 -2.6785
  426MOL0     H57453   7.363   4.406   1.531 -0.1733 -0.3830 -1.3166
  426MOL0     H57454   7.287   4.314   1.668  0.1756  1.1286  0.5156
  426MOL0     H57455   7.225   4.556   1.761 -0.6915 -0.8356  0.3869
  426MOL0     H57456   7.283   4.610   1.609  0.1786  0.6203  0.5957
  426MOL0     H57457   7.115   4.480   1.478 -0.2878 -0.7490  1.0264
  426MOL0     H57458   7.051   4.423   1.636 -1.0006  0.1370  0.8327
  426MOL0     H57459   6.982   4.630   1.700  2.9220 -0.4019 -0.6075
  426MOL0     H57460   6.895   4.564   1.559  0.2239  0.4356 -1.1870
  426MOL0     H57461   6.986   4.679   1.294 -1.5363 -1.2224  1.6503
  426MOL0     H57462   7.182   5.025   1.268 -0.8394  0.1979  2.8454
  426MOL0     H57463   7.130   4.911   1.160 -0.1398  1.7328 -1.0981
  426MOL0     H57464   7.016   5.121   1.128  1.3947  2.0611  2.3200
  426MOL0     H57465   6.958   5.122   1.290  1.3639  0.4816  1.4868
  426MOL0     H57466   6.811   4.938   1.262  3.0388  1.4835  2.0950
  426MOL0     H57467   6.871   4.902   1.091 -0.0231 -0.8227  0.6423
  426MOL0     H57468   6.664   5.003   1.050 -1.6085  1.5910  0.9433
  426MOL0     H57469   6.782   5.135   1.036 -1.4664  0.4054 -0.5816
  426MOL0     H57470   6.465   5.181   1.373  2.8848 -0.6664 -0.2794
  426MOL0     H57471   6.260   5.432   1.409  2.3543 -0.6295  1.5390
  426MOL0     H57472   6.144   5.314   1.341 -0.9084  1.0862  1.6577
  426MOL0     H57473   6.260   5.264   1.461 -0.3078  1.0247  0.0823
  426MOL0     H57474   5.970   5.340   0.970  0.6033 -1.7754 -1.0756
  426MOL0     H57475   5.778   5.377   0.859  1.9087 -1.7768  1.2175
  426MOL0     H57476   5.649   5.381   0.679  2.7703  0.5685 -0.7595
  426MOL0     H57477   5.536   5.520   0.691  1.0940  2.0534 -0.0804
  426MOL0     H57478   5.614   5.558   0.439  2.2343  0.4525  1.5459
  426MOL0     H57479   5.693   5.398   0.453  1.3723  0.9571  2.2667
  426MOL0     H57480   5.446   5.307   0.488  0.2903  0.5246  1.1262
  426MOL0     H57481   5.487   5.364   0.340 -0.9069 -0.8629  0.9152
  426MOL0     H57482   5.341   5.515   0.576  0.2433  0.7643 -0.5700
  426MOL0     H57483   5.383   5.601   0.428  0.7709  1.8155  2.5580
  426MOL0     H57484   5.265   5.486   0.282  0.8844  0.5354  0.4237
  426MOL0     H57485   5.153   5.540   0.404 -0.7724 -1.4451  0.8799
  426MOL0     H57486   5.261   5.254   0.402 -2.0345 -1.2407 -0.4179
  426MOL0     H57487   5.118   5.314   0.491 -0.7884 -0.5829 -0.4450
  426MOL0     H57488   5.141   5.323   0.192  4.0785  0.0238  2.5231
  426MOL0     H57489   5.000   5.378   0.286  1.6138  1.4406 -1.3951
  426MOL0     H57490   5.092   5.090   0.302  1.4029  1.1349 -0.8721
  426MOL0     H57491   4.984   5.163   0.182  3.1671  1.8437 -1.4680
  426MOL0     H57492   5.943   5.674   0.604 -2.4092 -2.5900 -1.4523
  426MOL0     H57493   6.158   5.659   0.734 -0.1030 -1.2311 -2.2479
  426MOL0     H57494   6.404   5.362   0.919  2.0815 -1.8092 -1.3901
  426MOL0     H57495   6.593   5.230   0.974  2.4635 -0.1030  2.1023
  426MOL0     H57496   7.736   4.025   1.508  2.3242 -2.1980 -1.0119
  426MOL0     H57497   7.741   4.044   1.255 -0.9995 -1.2976  2.4390
  426MOL0     H57498   8.090   4.351   0.810 -2.3912  2.2341  1.1186
  426MOL0     H57499   8.050   4.328   0.578  0.8217 -0.3026  0.2324
  426MOL0     H57500   7.771   4.344   0.323 -2.8361 -2.2136  1.7063
  426MOL0     H57501   7.919   4.373   0.406 -0.3372  0.8397 -1.3610
  426MOL0     H57502   7.952   4.289   0.177 -1.7754 -0.5934 -1.6699
  426MOL0     H57503   7.852   4.149   0.208 -1.8825  2.3031  0.5143
  426MOL0     H57504   8.085   4.179   0.401  0.6154  2.6574 -1.1740
  426MOL0     H57505   8.141   4.174   0.235 -1.2096  1.5609 -0.4278
  426MOL0     H57506   8.000   3.967   0.206 -0.4290  3.3266 -1.0145
  426MOL0     H57507   7.959   3.958   0.371 -3.4749  1.5500 -3.0590
  426MOL0     H57508   8.360   3.837   0.415  0.2508 -0.2321 -1.4044
  426MOL0     H57509   7.675   4.145   0.673  1.8780  0.8380 -4.1700
  426MOL0     H57510   7.718   4.156   0.908 -0.3947 -0.5188  0.3090
  427MOL0     O57511   0.819   8.817   5.835  1.1444  0.3356 -0.1971
  427MOL0     C57512   0.903   8.890   5.882  0.0394  0.0419 -0.0893
  427MOL0     O57513   0.880   9.006   5.963 -0.2239  0.3990  0.8462
  427MOL0     C57514   0.758   9.076   5.969 -0.6681  0.3064  0.4883
  427MOL0     C57515   0.662   9.061   5.869  0.9657  0.2814  0.2731
  427MOL0     C57516   0.538   9.126   5.884  0.5695  0.1097 -0.8708
  427MOL0     C57517   0.521   9.221   5.991 -0.2240  0.6497  0.1050
  427MOL0     O57518   0.409   9.296   5.978  0.3282  0.0045 -0.4066
  427MOL0     C57519   0.435   9.433   6.005  0.0424 -0.4025  0.0649
  427MOL0     C57520   0.344   9.533   5.928  0.0329  0.1558  0.6678
  427MOL0     C57521   0.201   9.527   5.962  0.7890  0.7391 -0.2505
  427MOL0     C57522   0.185   9.568   6.101 -0.2643 -0.0934 -0.5171
  427MOL0     C57523   0.034   9.603   6.134  0.1567 -0.0227 -0.4762
  427MOL0     C57524   0.023   9.694   6.263  0.2523 -0.0133 -0.0448
  427MOL0     C57525   0.067   9.839   6.223  0.5998  0.0130  0.3056
  427MOL0     C57526   0.054   9.930   6.347  0.1764  0.8892  0.1065
  427MOL0     N57527  -0.082   9.947   6.393  0.2310 -0.5574  0.4236
  427MOL0     C57528  -0.122   9.887   6.504  0.6711  0.1571 -0.4503
  427MOL0     C57529  -0.245   9.931   6.517 -0.3889  0.3736 -0.9559
  427MOL0     C57530  -0.342   9.891   6.625  0.9093 -0.2138 -0.4083
  427MOL0     C57531  -0.359   9.744   6.629 -0.2634  0.7347 -0.2844
  427MOL0     C57532  -0.442   9.683   6.740  0.9677 -0.1486  0.5886
  427MOL0     C57533  -0.592   9.710   6.733 -0.3635 -0.1060 -0.5173
  427MOL0     O57534  -0.654   9.657   6.861 -0.7406 -0.1565 -0.4423
  427MOL0     C57535  -0.779   9.694   6.898 -0.1405  0.1382 -0.4193
  427MOL0     C57536  -0.865   9.775   6.827  0.5718  0.9954  0.1512
  427MOL0     C57537  -0.994   9.807   6.871  0.1360 -0.9061 -0.3953
  427MOL0     C57538  -1.091   9.883   6.785  0.4155 -0.6204  0.1247
  427MOL0     C57539  -1.024   9.774   6.999  0.1406  0.0153  1.0268
  427MOL0     C57540  -1.153   9.807   7.056 -0.0631  0.1677 -1.1936
  427MOL0     O57541  -1.179   9.942   7.074 -0.2631  0.1302  0.5784
  427MOL0     C57542  -1.300   9.965   7.134 -0.3011  0.2314 -0.9429
  427MOL0     C57543  -1.412  10.023   7.067 -0.4631 -0.4208 -0.1706
  427MOL0     C57544  -1.538  10.043   7.115  0.6012  0.0227 -0.5773
  427MOL0     C57545  -1.561  10.011   7.248 -0.4257 -0.1083  0.6727
  427MOL0     O57546  -1.680  10.033   7.304  0.0920  0.2923  0.5370
  427MOL0     C57547  -1.789   9.979   7.223  0.3180  0.2794  0.4419
  427MOL0     C57548  -1.909   9.931   7.313  0.2947  0.2017 -0.3855
  427MOL0     C57549  -1.970  10.042   7.404  0.0259  0.2044 -0.6849
  427MOL0     C57550  -2.106   9.992   7.467 -1.9221  0.3263  0.3756
  427MOL0     C57551  -2.187  10.096   7.544  0.0531  0.1018  0.3988
  427MOL0     C57552  -2.334  10.045   7.564  0.4099  0.2247  0.3679
  427MOL0     C57553  -2.395  10.119   7.689 -0.3911 -0.8129 -0.2225
  427MOL0     C57554  -2.543  10.095   7.722 -0.5765 -0.0965 -0.9221
  427MOL0    Cl57555  -2.658  10.121   7.588 -0.2122 -0.4199 -0.0785
  427MOL0     C57556  -1.458   9.964   7.319 -0.1116  0.8005  0.0861
  427MOL0     C57557  -1.322   9.945   7.268  0.2450 -0.1608  0.2365
  427MOL0     O57558  -1.218   9.712   7.100 -0.1418 -0.3108  0.3797
  427MOL0     C57559  -0.942   9.690   7.074 -0.2881 -0.5075 -0.4017
  427MOL0     C57560  -0.821   9.646   7.013  0.0808  0.5462 -0.1666
  427MOL0     N57561  -0.268  10.030   6.426 -0.0799 -0.5697  0.0540
  427MOL0     N57562  -0.164  10.042   6.349 -0.1189 -0.7646 -0.2234
  427MOL0     C57563   0.622   9.231   6.087  0.1680  0.4454 -0.8486
  427MOL0     C57564   0.737   9.154   6.080  0.2716 -1.1457 -0.4107
  427MOL0     C57565   1.048   8.857   5.867  1.2418  1.1918 -0.4672
  427MOL0     C57566   1.090   8.743   5.793  0.3271 -0.7328  0.7190
  427MOL0     C57567   1.222   8.708   5.794 -0.1087  0.3076 -0.6809
  427MOL0     C57568   1.320   8.775   5.874  0.1070  0.1682 -0.1638
  427MOL0     O57569   1.450   8.735   5.896  0.7961  0.0438 -0.1768
  427MOL0     C57570   1.510   8.690   5.778  0.8525  0.3066 -0.8951
  427MOL0     C57571   1.664   8.709   5.788 -0.0580 -0.7044  0.1317
  427MOL0     C57572   1.733   8.603   5.699 -0.2760 -0.9198 -0.1878
  427MOL0     C57573   1.736   8.621   5.541  0.0032  0.2637 -0.8789
  427MOL0     C57574   1.802   8.507   5.466 -0.4913  0.2794  0.6792
  427MOL0     C57575   1.863   8.417   5.407  0.4230 -0.0697 -0.6960
  427MOL0     C57576   1.278   8.892   5.949 -0.2053  0.0511  0.1615
  427MOL0     C57577   1.138   8.932   5.939 -0.1187  0.0276 -0.0846
  427MOL0     H57578   0.669   8.995   5.783  0.3471  0.0660  0.3827
  427MOL0     H57579   0.461   9.098   5.814  1.4358 -0.6804 -1.5155
  427MOL0     H57580   0.430   9.454   6.113 -1.2443 -0.7679  0.0988
  427MOL0     H57581   0.538   9.452   5.975  0.1065 -1.6936 -0.5889
  427MOL0     H57582   0.380   9.635   5.947  0.9827  0.1553 -0.9142
  427MOL0     H57583   0.361   9.510   5.822 -1.6047  2.6168 -0.2226
  427MOL0     H57584   0.148   9.597   5.898  1.1887  3.9850  2.6904
  427MOL0     H57585   0.160   9.426   5.955 -0.0434  0.7317  3.0469
  427MOL0     H57586   0.220   9.496   6.175  2.3299  0.1683 -1.3900
  427MOL0     H57587   0.242   9.657   6.130  0.5793 -0.1069 -2.0108
  427MOL0     H57588  -0.023   9.648   6.052  1.5058  1.9673 -0.4039
  427MOL0     H57589  -0.005   9.503   6.154  0.4789  0.0992  0.8873
  427MOL0     H57590  -0.083   9.697   6.288  0.5400 -0.8298  1.3982
  427MOL0     H57591   0.079   9.653   6.348  1.0336  0.9525 -0.0735
  427MOL0     H57592   0.172   9.825   6.198  0.3109 -1.2678 -0.2488
  427MOL0     H57593   0.014   9.878   6.135  1.1524  0.3790  0.1315
  427MOL0     H57594   0.090  10.031   6.328  0.9198  0.8402  1.1870
  427MOL0     H57595   0.115   9.877   6.420 -0.2216 -0.5744 -0.5851
  427MOL0     H57596  -0.095   9.795   6.555 -2.5885 -0.0833  1.0709
  427MOL0     H57597  -0.311   9.931   6.722 -2.5745 -1.1091  1.2353
  427MOL0     H57598  -0.441   9.929   6.598 -0.2909 -3.2778 -0.7183
  427MOL0     H57599  -0.258   9.701   6.633 -0.4562 -0.8336 -5.3464
  427MOL0     H57600  -0.386   9.706   6.530  0.6476  1.3062 -0.7664
  427MOL0     H57601  -0.406   9.720   6.836 -1.7502  0.3915  1.4769
  427MOL0     H57602  -0.434   9.575   6.722  0.9719  0.0705 -0.8803
  427MOL0     H57603  -0.634   9.646   6.655  2.3425 -4.8124  1.4042
  427MOL0     H57604  -0.615   9.816   6.729  0.1406  0.1585  1.8518
  427MOL0     H57605  -0.836   9.827   6.736 -0.2603  0.5998 -0.3507
  427MOL0     H57606  -1.089   9.844   6.683 -0.8925  0.6964 -0.4456
  427MOL0     H57607  -1.197   9.874   6.808 -1.1079  3.6834 -3.5857
  427MOL0     H57608  -1.068   9.990   6.787 -1.3334 -0.2373  0.5263
  427MOL0     H57609  -1.396  10.055   6.964  0.1699  1.4798  0.4809
  427MOL0     H57610  -1.614  10.099   7.062  0.4680 -1.2939 -1.8211
  427MOL0     H57611  -1.814  10.056   7.149 -0.1416 -0.7019 -0.4558
  427MOL0     H57612  -1.759   9.887   7.172 -3.8488  0.4842 -2.9160
  427MOL0     H57613  -1.992   9.892   7.254  0.4896 -3.9781  1.7301
  427MOL0     H57614  -1.873   9.853   7.379 -0.1785  0.7805  0.5754
  427MOL0     H57615  -1.981  10.129   7.339 -1.1720  0.4697 -0.1422
  427MOL0     H57616  -1.897  10.068   7.482  0.5931 -0.0346 -1.1241
  427MOL0     H57617  -2.176   9.960   7.388  0.1321 -1.4171 -0.8748
  427MOL0     H57618  -2.077   9.910   7.533 -1.3556  0.3287  0.1314
  427MOL0     H57619  -2.183  10.184   7.479 -0.0830 -0.1467  0.0476
  427MOL0     H57620  -2.149  10.114   7.645 -1.7231  0.1476  1.1030
  427MOL0     H57621  -2.377  10.046   7.464  1.1272 -3.2859 -0.0963
  427MOL0     H57622  -2.333   9.941   7.597 -1.5263 -1.1823 -3.5026
  427MOL0     H57623  -2.370  10.224   7.674 -2.8982  0.0590  1.1517
  427MOL0     H57624  -2.337  10.101   7.780  0.4347 -0.8298 -0.7411
  427MOL0     H57625  -2.570  10.164   7.803  0.6188  0.9345 -1.3805
  427MOL0     H57626  -2.535   9.994   7.762  2.0830  1.1602  2.2473
  427MOL0     H57627  -1.481   9.931   7.420  0.3762  0.0928 -0.0226
  427MOL0     H57628  -1.245   9.902   7.332  1.7020  0.1697 -1.2173
  427MOL0     H57629  -0.975   9.657   7.171 -1.3585  1.7607  0.0644
  427MOL0     H57630  -0.757   9.583   7.074 -2.2184 -0.4226  1.4067
  427MOL0     H57631   0.608   9.291   6.176  1.8310 -0.1673 -0.1429
  427MOL0     H57632   0.813   9.164   6.158 -0.1344 -0.4075 -0.0953
  427MOL0     H57633   1.017   8.696   5.727  0.4293 -1.3239  1.0258
  427MOL0     H57634   1.249   8.622   5.733  0.7254 -0.4492  0.7160
  427MOL0     H57635   1.498   8.582   5.765  2.0655  0.1089 -0.4896
  427MOL0     H57636   1.476   8.733   5.684 -1.5303 -1.3242 -0.8643
  427MOL0     H57637   1.710   8.729   5.886 -1.1163  2.0054  0.1654
  427MOL0     H57638   1.680   8.808   5.746 -1.8690 -0.0872  0.8007
  427MOL0     H57639   1.678   8.511   5.724 -1.4066 -0.3342 -0.4616
  427MOL0     H57640   1.835   8.590   5.737  0.9527  3.7700 -1.3096
  427MOL0     H57641   1.787   8.716   5.524  0.2768  0.6109  1.5235
  427MOL0     H57642   1.635   8.628   5.498  0.1940  0.9268 -1.2330
  427MOL0     H57643   1.897   8.328   5.358  1.0150 -0.0816 -0.2819
  427MOL0     H57644   1.343   8.954   6.009  1.2055  0.6178 -1.8702
  427MOL0     H57645   1.116   9.020   5.999  3.1173  0.7300  0.2534
  428MOL0     O57646   6.038   7.088   4.460 -0.0372  0.2987  0.5380
  428MOL0     C57647   6.145   7.047   4.412  0.7745 -1.0846 -0.3735
  428MOL0     O57648   6.157   6.954   4.319 -0.3046 -0.6525 -0.2362
  428MOL0     C57649   6.047   6.889   4.266  0.5539  0.1447  1.1164
  428MOL0     C57650   6.020   6.887   4.130 -0.5808 -0.6419  0.2604
  428MOL0     C57651   5.908   6.839   4.064  0.4158  0.6656 -0.1648
  428MOL0     C57652   5.827   6.759   4.136 -0.4333  0.2814  1.2440
  428MOL0     O57653   5.735   6.683   4.061  0.7128  0.6353  0.0496
  428MOL0     C57654   5.712   6.542   4.101  0.0729  0.6265  0.5112
  428MOL0     C57655   5.640   6.464   3.981 -0.5992 -0.4380 -0.8609
  428MOL0     C57656   5.530   6.544   3.908 -0.0560  0.2539  0.2597
  428MOL0     C57657   5.435   6.594   4.016 -0.2046  0.3324  0.9275
  428MOL0     C57658   5.300   6.657   3.961 -1.0697  0.1729  0.5134
  428MOL0     C57659   5.212   6.665   4.081  0.6998 -0.1375  0.0943
  428MOL0     C57660   5.087   6.747   4.043 -0.2994  0.2990  0.3328
  428MOL0     C57661   5.003   6.791   4.161  0.0233  0.9286 -0.0069
  428MOL0     N57662   4.883   6.868   4.127 -0.4776  0.7129 -0.3389
  428MOL0     C57663   4.832   6.971   4.201 -0.4685 -0.3942  0.8822
  428MOL0     C57664   4.710   6.987   4.143  0.6803 -0.5049  0.5306
  428MOL0     C57665   4.616   7.109   4.168  0.2560  0.2980 -0.0697
  428MOL0     C57666   4.545   7.093   4.302  0.0448  0.7392 -0.2138
  428MOL0     C57667   4.446   7.207   4.303 -0.8507  0.1209 -0.2179
  428MOL0     C57668   4.384   7.215   4.440  1.4051 -0.2472 -0.4850
  428MOL0     O57669   4.291   7.329   4.456 -0.4093  0.3979 -0.2483
  428MOL0     C57670   4.208   7.334   4.563 -0.2065 -0.2492  0.3666
  428MOL0     C57671   4.240   7.289   4.689  0.3647  0.6699  0.6473
  428MOL0     C57672   4.152   7.291   4.795 -0.1903  0.5870  0.0493
  428MOL0     C57673   4.203   7.252   4.921 -0.4645  0.5381 -0.8166
  428MOL0     C57674   4.014   7.319   4.768 -0.6118  0.1773 -0.4689
  428MOL0     C57675   3.906   7.314   4.872 -0.4382  0.0165  0.1651
  428MOL0     O57676   3.800   7.390   4.844 -0.4850 -0.0099  0.8615
  428MOL0     C57677   3.704   7.403   4.941 -0.1418 -0.1030  0.6017
  428MOL0     C57678   3.567   7.385   4.908  0.4402 -0.8523  1.0687
  428MOL0     C57679   3.471   7.412   4.998 -0.6636 -0.0908  0.3378
  428MOL0     C57680   3.503   7.452   5.131 -0.0705 -0.1818  0.5225
  428MOL0     O57681   3.401   7.465   5.226  0.2305 -0.2052 -0.1034
  428MOL0     C57682   3.451   7.465   5.363  0.5494 -0.4345  1.3403
  428MOL0     C57683   3.319   7.433   5.435 -0.4262  0.2333 -0.0032
  428MOL0     C57684   3.344   7.392   5.583  0.2676  0.1601 -0.2034
  428MOL0     C57685   3.231   7.443   5.677 -0.2117 -0.1920  0.0740
  428MOL0     C57686   3.088   7.371   5.652 -0.2670 -1.0476 -0.3187
  428MOL0     C57687   2.983   7.425   5.750  0.1773  0.3035  0.1173
  428MOL0     C57688   2.861   7.339   5.742 -0.2592 -1.0551  0.3676
  428MOL0     C57689   2.739   7.383   5.822  0.2543  0.2821 -0.8591
  428MOL0    Cl57690   2.686   7.559   5.791  0.1897  0.1356 -0.2219
  428MOL0     C57691   3.634   7.487   5.153  0.1459  0.4540  0.0096
  428MOL0     C57692   3.740   7.455   5.068 -0.0670 -0.1202  0.7090
  428MOL0     O57693   3.924   7.247   4.975 -0.1497 -0.3150 -0.6037
  428MOL0     C57694   3.978   7.348   4.637  0.3957  1.1987 -0.0393
  428MOL0     C57695   4.072   7.352   4.536 -0.4382 -0.4763  0.5524
  428MOL0     N57696   4.698   6.903   4.037  0.0437 -0.5494  0.0549
  428MOL0     N57697   4.804   6.831   4.027  0.0552 -0.1658  0.6909
  428MOL0     C57698   5.854   6.748   4.270  0.3231  0.1715  0.5163
  428MOL0     C57699   5.959   6.809   4.342  0.6143 -0.7716  1.1352
  428MOL0     C57700   6.283   7.102   4.457  0.3908 -0.4271  0.1155
  428MOL0     C57701   6.284   7.208   4.545 -0.8308 -0.1581  0.1735
  428MOL0     C57702   6.409   7.252   4.596  0.1146 -0.2721 -0.0350
  428MOL0     C57703   6.529   7.204   4.541 -0.2029  0.4240 -0.3708
  428MOL0     O57704   6.651   7.252   4.590  0.2677  0.3673 -0.0880
  428MOL0     C57705   6.750   7.164   4.623 -0.0538  0.0807 -0.9875
  428MOL0     C57706   6.821   7.232   4.732 -0.3594 -0.5528 -0.1430
  428MOL0     C57707   6.757   7.226   4.872 -0.2146 -0.4481  0.2164
  428MOL0     C57708   6.833   7.316   4.975 -0.1701  0.6535 -0.4973
  428MOL0     C57709   6.812   7.450   4.921  0.3307  0.1193 -0.5303
  428MOL0     C57710   6.788   7.566   4.881  0.1419 -0.0135 -0.2679
  428MOL0     C57711   6.521   7.105   4.447 -0.1172 -0.2633 -0.1405
  428MOL0     C57712   6.403   7.043   4.410  1.0176 -0.3738  0.5200
  428MOL0     H57713   6.084   6.945   4.065 -2.6210 -1.0884 -2.2961
  428MOL0     H57714   5.896   6.859   3.958  3.1887  3.1486 -0.1431
  428MOL0     H57715   5.806   6.487   4.117  0.9462  1.0058 -2.6685
  428MOL0     H57716   5.642   6.524   4.183  0.8574 -1.9215  0.7165
  428MOL0     H57717   5.726   6.445   3.917  1.3778  2.0936  0.8157
  428MOL0     H57718   5.596   6.371   4.019 -2.2841  0.0337 -1.5523
  428MOL0     H57719   5.572   6.629   3.853  0.0941  1.4077  2.0640
  428MOL0     H57720   5.490   6.472   3.837  0.3677  1.1315 -0.8994
  428MOL0     H57721   5.404   6.511   4.081 -0.6278  1.3347  2.0343
  428MOL0     H57722   5.480   6.671   4.080  1.1554  0.2310  0.1135
  428MOL0     H57723   5.324   6.757   3.925  2.6644 -0.3821  1.0429
  428MOL0     H57724   5.257   6.592   3.884 -1.7930 -0.0074  1.0554
  428MOL0     H57725   5.184   6.564   4.113  1.2202 -1.3822 -3.0182
  428MOL0     H57726   5.263   6.716   4.164  0.7700 -0.1590  0.0650
  428MOL0     H57727   5.114   6.836   3.985 -3.7131  0.9783 -0.4475
  428MOL0     H57728   5.024   6.701   3.966 -2.5506  1.8845  1.1264
  428MOL0     H57729   5.070   6.844   4.230  0.7000  1.4657 -1.0593
  428MOL0     H57730   4.978   6.699   4.216 -0.5191  2.2593  2.1200
  428MOL0     H57731   4.877   7.029   4.281 -0.2821 -1.5698  1.6661
  428MOL0     H57732   4.689   7.191   4.175  2.3677 -1.5513  0.9596
  428MOL0     H57733   4.549   7.109   4.082 -0.6460 -1.7640  0.5779
  428MOL0     H57734   4.602   7.092   4.396 -2.3392 -0.6794  1.3136
  428MOL0     H57735   4.493   6.998   4.304  0.3141  0.4963  3.4833
  428MOL0     H57736   4.364   7.196   4.231 -1.6782  0.5868  0.6351
  428MOL0     H57737   4.492   7.306   4.294 -0.7500  0.0555 -0.4286
  428MOL0     H57738   4.463   7.230   4.514  3.2286  0.1741 -2.4271
  428MOL0     H57739   4.328   7.123   4.455  1.9552 -0.5589 -0.2948
  428MOL0     H57740   4.343   7.270   4.717 -0.3853 -1.7273  2.0701
  428MOL0     H57741   4.312   7.244   4.916 -0.3242  0.2229  1.5942
  428MOL0     H57742   4.168   7.322   4.997 -2.3694  0.0650 -1.2066
  428MOL0     H57743   4.172   7.149   4.940  1.0658  0.3360  0.8444
  428MOL0     H57744   3.531   7.354   4.811  0.2540 -3.8910  2.0102
  428MOL0     H57745   3.370   7.380   4.977 -0.3327 -2.5328  2.0280
  428MOL0     H57746   3.520   7.386   5.391  1.6841  0.7125  1.8835
  428MOL0     H57747   3.492   7.560   5.398  0.1968  1.0960 -2.0275
  428MOL0     H57748   3.246   7.515   5.433 -4.3587 -2.9045 -3.0950
  428MOL0     H57749   3.262   7.356   5.382 -1.0118  0.7131 -0.0805
  428MOL0     H57750   3.442   7.432   5.610  0.6437 -0.3908 -0.7192
  428MOL0     H57751   3.352   7.283   5.590  0.8448  0.2081 -0.0442
  428MOL0     H57752   3.283   7.432   5.773  2.1956  0.8401 -1.0401
  428MOL0     H57753   3.226   7.552   5.674  2.1235 -0.0403 -0.0505
  428MOL0     H57754   3.105   7.266   5.678  1.1892 -0.2406  2.3069
  428MOL0     H57755   3.053   7.393   5.550  1.2293  1.6966 -0.3091
  428MOL0     H57756   3.019   7.419   5.853  0.4757  0.1260  0.0034
  428MOL0     H57757   2.961   7.531   5.739  1.0417  0.4825  0.0847
  428MOL0     H57758   2.892   7.238   5.770  3.1450 -0.8522 -2.0852
  428MOL0     H57759   2.836   7.333   5.636  1.0942 -1.3053  0.0403
  428MOL0     H57760   2.753   7.359   5.928  2.7095  0.1772 -1.1506
  428MOL0     H57761   2.653   7.321   5.794  0.8958 -1.7379  1.3413
  428MOL0     H57762   3.664   7.540   5.243  2.0330  2.6514 -1.7868
  428MOL0     H57763   3.842   7.477   5.097  0.6306 -2.1445 -0.0821
  428MOL0     H57764   3.880   7.368   4.595 -0.7458 -0.3087  1.7392
  428MOL0     H57765   4.031   7.387   4.442 -0.3899  1.0930  1.0973
  428MOL0     H57766   5.793   6.673   4.320  1.1101 -1.4451 -0.8223
  428MOL0     H57767   5.968   6.801   4.450 -0.5283  2.0494  1.5412
  428MOL0     H57768   6.194   7.255   4.583 -1.0932  0.0291 -0.6562
  428MOL0     H57769   6.416   7.323   4.678 -0.2129 -1.9064  1.4634
  428MOL0     H57770   6.707   7.071   4.662  3.5128 -0.8881  1.1208
  428MOL0     H57771   6.809   7.143   4.533 -0.7532 -3.7730 -0.7421
  428MOL0     H57772   6.836   7.334   4.696 -0.1721 -0.6967 -0.4818
  428MOL0     H57773   6.918   7.183   4.738 -0.3924 -0.5025  0.8837
  428MOL0     H57774   6.773   7.120   4.895  0.1983 -0.2738  0.7489
  428MOL0     H57775   6.649   7.244   4.870 -0.2349 -0.4431 -2.7090
  428MOL0     H57776   6.938   7.286   4.974 -0.6514 -1.1781  0.3066
  428MOL0     H57777   6.801   7.312   5.079  0.3885  0.8423 -0.3084
  428MOL0     H57778   6.780   7.665   4.842 -0.9454 -0.3570 -0.9524
  428MOL0     H57779   6.613   7.068   4.403 -0.4552  0.7135 -1.7946
  428MOL0     H57780   6.388   6.960   4.342 -1.8397 -0.9035  1.6528
  429MOL0     O57781   1.969   6.502   5.367 -0.2129  0.5709 -0.2028
  429MOL0     C57782   1.945   6.380   5.359  0.2110  0.8374 -1.0479
  429MOL0     O57783   1.860   6.317   5.441  0.1595  0.3045  0.4202
  429MOL0     C57784   1.749   6.385   5.489 -0.7345 -0.3874  0.3832
  429MOL0     C57785   1.706   6.352   5.618 -0.9524 -0.2050  0.4298
  429MOL0     C57786   1.604   6.423   5.686 -0.7402  0.5117  0.4090
  429MOL0     C57787   1.531   6.517   5.613 -0.0070  0.5814  0.2176
  429MOL0     O57788   1.429   6.593   5.665  0.2718  0.1743  0.3586
  429MOL0     C57789   1.305   6.526   5.699 -0.8483 -0.2888  0.2548
  429MOL0     C57790   1.196   6.634   5.712  0.0516  0.6903 -0.7139
  429MOL0     C57791   1.047   6.583   5.685  1.0835 -0.0512 -0.5470
  429MOL0     C57792   0.946   6.691   5.726  0.6124  0.2382  0.3814
  429MOL0     C57793   0.813   6.621   5.758  0.3742 -0.2318  0.2084
  429MOL0     C57794   0.714   6.726   5.802 -0.1793 -0.5205 -0.6824
  429MOL0     C57795   0.588   6.659   5.863  0.4742 -0.0458 -0.5039
  429MOL0     C57796   0.486   6.749   5.928 -0.2292  0.0286  1.0924
  429MOL0     N57797   0.420   6.830   5.818 -0.0407  0.1031 -0.5951
  429MOL0     C57798   0.363   6.958   5.814  0.9320 -0.5296 -0.2733
  429MOL0     C57799   0.278   6.964   5.716  0.0670  0.6980  1.0166
  429MOL0     C57800   0.176   7.068   5.699 -0.0604  0.1343 -0.2061
  429MOL0     C57801   0.038   7.008   5.693 -0.8735 -0.4458  0.4861
  429MOL0     C57802  -0.060   7.123   5.708 -1.3324 -0.2899 -1.0318
  429MOL0     C57803  -0.198   7.071   5.695  0.1135 -0.2461 -0.0296
  429MOL0     O57804  -0.299   7.173   5.708 -0.0893 -0.6423 -0.1657
  429MOL0     C57805  -0.435   7.141   5.728 -0.9278 -1.0328  0.1168
  429MOL0     C57806  -0.525   7.249   5.728  0.3008  0.2632  0.3093
  429MOL0     C57807  -0.667   7.224   5.710  0.1469 -0.4594  0.3087
  429MOL0     C57808  -0.766   7.346   5.698 -0.7665 -0.6435  0.2109
  429MOL0     C57809  -0.715   7.088   5.697 -0.6672 -0.2218  0.3696
  429MOL0     C57810  -0.854   7.046   5.666 -0.2474  0.1792  0.3551
  429MOL0     O57811  -0.878   6.916   5.680 -0.0994  0.2434 -0.4618
  429MOL0     C57812  -0.994   6.850   5.661  0.4090  0.3756 -0.1338
  429MOL0     C57813  -1.120   6.912   5.664  0.0757  0.7646  0.1824
  429MOL0     C57814  -1.238   6.835   5.651  0.0590 -0.0088  0.4368
  429MOL0     C57815  -1.237   6.691   5.633 -0.5572 -0.3452 -0.7176
  429MOL0     O57816  -1.350   6.628   5.613 -0.1788  0.5186 -0.0446
  429MOL0     C57817  -1.350   6.484   5.623 -0.2890  0.0271  0.0185
  429MOL0     C57818  -1.491   6.448   5.561  0.0105 -0.8239 -0.3069
  429MOL0     C57819  -1.524   6.302   5.587  1.1779  0.0372 -0.1561
  429MOL0     C57820  -1.679   6.293   5.605  0.4654  0.6373 -0.7521
  429MOL0     C57821  -1.713   6.310   5.760 -0.5301 -0.1296  0.6547
  429MOL0     C57822  -1.853   6.363   5.777  1.1511 -0.7551 -0.5671
  429MOL0     C57823  -1.915   6.354   5.916 -0.0323 -0.1216  0.4908
  429MOL0     C57824  -1.958   6.211   5.938 -0.8721  0.6272 -0.0824
  429MOL0    Cl57825  -2.005   6.203   6.112  0.0596 -0.2561  0.2114
  429MOL0     C57826  -1.103   6.633   5.628  1.5692 -0.5269 -0.3757
  429MOL0     C57827  -0.992   6.709   5.639  0.6805 -0.4188  1.6011
  429MOL0     O57828  -0.933   7.128   5.623  0.0661 -0.2119 -0.0153
  429MOL0     C57829  -0.624   6.983   5.712  0.2457  0.1023 -0.3184
  429MOL0     C57830  -0.487   7.011   5.716  0.6480 -0.2039  1.2687
  429MOL0     N57831   0.284   6.847   5.645 -0.4024 -0.3080 -0.5764
  429MOL0     N57832   0.371   6.773   5.700  0.1256  0.9673 -0.4414
  429MOL0     C57833   1.554   6.540   5.475  0.5723 -0.4988  0.1661
  429MOL0     C57834   1.664   6.477   5.414  0.3141  0.0021 -0.3065
  429MOL0     C57835   2.032   6.291   5.278  0.2297 -0.3069  0.1432
  429MOL0     C57836   2.030   6.153   5.298 -1.2024 -0.5298 -0.3424
  429MOL0     C57837   2.099   6.058   5.223  0.0138 -0.7130  0.1902
  429MOL0     C57838   2.178   6.099   5.118  1.2427  0.4234  0.3452
  429MOL0     O57839   2.220   5.993   5.039  0.0893  0.0278  0.4610
  429MOL0     C57840   2.333   6.005   4.951  0.0482  0.0432 -0.0566
  429MOL0     C57841   2.472   6.004   5.018 -0.6156 -0.2519  0.6709
  429MOL0     C57842   2.513   5.859   5.049 -0.8960  0.1653  0.0776
  429MOL0     C57843   2.425   5.769   5.141 -0.0481  0.2322  0.3080
  429MOL0     C57844   2.499   5.662   5.197 -0.3157  0.2407 -1.0619
  429MOL0     C57845   2.573   5.585   5.252  0.4585  0.1337 -0.0586
  429MOL0     C57846   2.188   6.238   5.096 -0.1843  0.3173  0.3579
  429MOL0     C57847   2.121   6.336   5.181  0.7315  0.8671  0.8071
  429MOL0     H57848   1.777   6.288   5.669  1.8952 -0.5912 -3.5710
  429MOL0     H57849   1.586   6.409   5.792  2.1253 -0.0449  0.9032
  429MOL0     H57850   1.284   6.457   5.617  1.5297  0.8548 -1.4571
  429MOL0     H57851   1.325   6.471   5.791  0.0888  2.2218  1.6532
  429MOL0     H57852   1.205   6.683   5.809 -1.4162  0.6374 -0.5210
  429MOL0     H57853   1.216   6.711   5.636  2.7240  1.6050  0.8202
  429MOL0     H57854   1.021   6.549   5.584  0.5947 -1.0442 -0.1053
  429MOL0     H57855   1.033   6.500   5.755  3.0234 -3.2045 -3.5574
  429MOL0     H57856   0.979   6.751   5.812 -1.0904  0.9537  0.5832
  429MOL0     H57857   0.937   6.759   5.640  0.2393 -1.5044 -1.0056
  429MOL0     H57858   0.779   6.566   5.669 -2.2403  0.4235  0.7053
  429MOL0     H57859   0.831   6.551   5.840  0.8498 -0.8212 -0.3831
  429MOL0     H57860   0.764   6.774   5.887  0.9351 -1.8242 -0.5697
  429MOL0     H57861   0.684   6.799   5.727 -3.4475  0.2966  1.2391
  429MOL0     H57862   0.540   6.596   5.787  0.1467  0.8099 -1.0244
  429MOL0     H57863   0.631   6.594   5.939 -1.4317  0.5401  1.1374
  429MOL0     H57864   0.534   6.820   5.996  0.7928  0.6420 -0.2284
  429MOL0     H57865   0.414   6.681   5.975  1.1257 -2.8598 -0.7530
  429MOL0     H57866   0.375   7.024   5.900 -0.0795  1.0174 -1.2729
  429MOL0     H57867   0.187   7.128   5.790  0.9881  0.1344 -0.3194
  429MOL0     H57868   0.196   7.126   5.608  4.3809 -0.2235  0.3190
  429MOL0     H57869   0.016   6.932   5.768  1.4720 -0.0332  1.6850
  429MOL0     H57870   0.029   6.952   5.599  1.2172 -1.1376  0.6532
  429MOL0     H57871  -0.053   7.200   5.631  0.4253  0.5579 -0.0706
  429MOL0     H57872  -0.050   7.161   5.810 -1.7099 -0.0303 -1.0929
  429MOL0     H57873  -0.215   6.990   5.766  2.7030  0.1574  1.1439
  429MOL0     H57874  -0.212   7.035   5.592 -0.7123  1.7764 -0.6786
  429MOL0     H57875  -0.483   7.349   5.733  0.3997  0.1745  2.3319
  429MOL0     H57876  -0.866   7.336   5.742 -1.0547  3.7355  0.9552
  429MOL0     H57877  -0.724   7.428   5.758 -2.2518  0.1683  0.1786
  429MOL0     H57878  -0.772   7.367   5.591  1.1740 -1.2215 -0.0529
  429MOL0     H57879  -1.132   7.018   5.685  1.8037  0.0997  6.4715
  429MOL0     H57880  -1.340   6.872   5.642 -0.8521 -1.8797  2.1706
  429MOL0     H57881  -1.276   6.430   5.563 -1.3837 -2.9099  1.1583
  429MOL0     H57882  -1.348   6.442   5.724 -2.0880 -0.2506 -0.0236
  429MOL0     H57883  -1.573   6.505   5.605  1.5241  1.4624 -0.3039
  429MOL0     H57884  -1.493   6.474   5.455 -0.9053 -1.8388 -0.5625
  429MOL0     H57885  -1.480   6.277   5.684 -1.0186  0.0827  0.9399
  429MOL0     H57886  -1.483   6.237   5.510  0.8203 -1.1085  0.5956
  429MOL0     H57887  -1.725   6.367   5.538 -0.1901  0.5687 -0.3914
  429MOL0     H57888  -1.710   6.190   5.588 -2.0167  0.2971  4.0763
  429MOL0     H57889  -1.639   6.379   5.803 -2.6218  0.4398  3.6989
  429MOL0     H57890  -1.710   6.215   5.814 -0.4567  0.0502  0.9706
  429MOL0     H57891  -1.856   6.469   5.747 -1.8188 -0.3129  0.9451
  429MOL0     H57892  -1.923   6.308   5.714 -1.2207  2.6301 -1.1933
  429MOL0     H57893  -2.002   6.421   5.913 -0.5084 -0.7357 -2.5286
  429MOL0     H57894  -1.844   6.388   5.992 -1.4989  0.7725  1.5193
  429MOL0     H57895  -1.872   6.144   5.935  0.2090  1.8639  1.7817
  429MOL0     H57896  -2.042   6.178   5.876 -2.3580 -1.8372  2.9778
  429MOL0     H57897  -1.089   6.527   5.607 -1.1129 -1.2678  1.1232
  429MOL0     H57898  -0.897   6.658   5.628 -0.1740 -2.2237  2.2740
  429MOL0     H57899  -0.645   6.880   5.688  0.3540 -0.8032  3.0723
  429MOL0     H57900  -0.421   6.926   5.710  0.4679 -0.3255  1.0171
  429MOL0     H57901   1.500   6.614   5.418  1.4923  0.1657  0.1261
  429MOL0     H57902   1.675   6.514   5.312  0.0727  1.2214  0.0965
  429MOL0     H57903   1.977   6.116   5.385  0.0854  2.0238  1.7048
  429MOL0     H57904   2.082   5.951   5.234  0.3509 -0.5161  3.5102
  429MOL0     H57905   2.333   5.923   4.879  1.4286  0.1984 -0.2495
  429MOL0     H57906   2.325   6.099   4.895  3.4304 -0.2460 -1.2412
  429MOL0     H57907   2.463   6.068   5.106  1.2757  0.2253  0.5516
  429MOL0     H57908   2.550   6.051   4.958 -0.1542 -0.0361  1.4347
  429MOL0     H57909   2.609   5.865   5.101 -0.8795  0.1817  0.0457
  429MOL0     H57910   2.529   5.809   4.953  2.3120  0.8945  0.1069
  429MOL0     H57911   2.339   5.742   5.079  0.2018  1.1702 -0.4758
  429MOL0     H57912   2.393   5.826   5.228  2.9401  1.1721  0.9138
  429MOL0     H57913   2.635   5.515   5.305 -3.5278 -1.8689  2.4125
  429MOL0     H57914   2.228   6.276   5.002 -1.8000  3.4129  0.7830
  429MOL0     H57915   2.130   6.435   5.139  2.4630  0.6595  0.6106
  430MOL0     O57916   6.483   0.924   1.456 -0.5429  0.4600 -0.1268
  430MOL0     C57917   6.505   0.834   1.539 -0.1911 -0.5545  0.6241
  430MOL0     O57918   6.414   0.798   1.632 -0.5359  0.0252  0.4734
  430MOL0     C57919   6.305   0.877   1.667 -0.0211  0.7381  0.9728
  430MOL0     C57920   6.336   0.984   1.745 -0.8437 -0.3839 -0.3779
  430MOL0     C57921   6.235   1.065   1.804 -0.6424 -0.5893  0.5944
  430MOL0     C57922   6.105   1.040   1.761  0.6822  0.5192 -0.6295
  430MOL0     O57923   6.009   1.121   1.806  0.3237 -0.4704 -0.4983
  430MOL0     C57924   5.915   1.151   1.704 -0.0070  0.3986  0.0226
  430MOL0     C57925   5.818   1.272   1.744  0.1598 -0.0296  0.1694
  430MOL0     C57926   5.706   1.310   1.641 -0.7122  0.4187 -0.6104
  430MOL0     C57927   5.636   1.435   1.673  0.7746  0.2627  0.5984
  430MOL0     C57928   5.517   1.469   1.574 -0.0873 -0.1702  0.4544
  430MOL0     C57929   5.386   1.419   1.626 -0.1657 -0.8865 -0.2117
  430MOL0     C57930   5.270   1.485   1.545 -1.0490 -0.3843 -0.4070
  430MOL0     C57931   5.269   1.433   1.401 -0.4642  0.7718 -0.2043
  430MOL0     N57932   5.146   1.457   1.337  0.2839 -0.0542 -0.4374
  430MOL0     C57933   5.083   1.577   1.326  0.0979 -0.3033  1.5673
  430MOL0     C57934   4.981   1.553   1.237 -0.0345  0.4213 -0.1924
  430MOL0     C57935   4.903   1.664   1.164  0.0868 -0.1554 -0.1948
  430MOL0     C57936   4.798   1.735   1.262 -0.0662  0.1717 -1.0477
  430MOL0     C57937   4.661   1.679   1.233  0.0153 -0.1640 -0.9541
  430MOL0     C57938   4.565   1.769   1.317  0.0671 -0.2612 -0.3058
  430MOL0     O57939   4.526   1.886   1.246 -0.7545  0.1241 -0.2977
  430MOL0     C57940   4.389   1.916   1.256 -0.3117  0.0888 -0.5877
  430MOL0     C57941   4.332   1.968   1.373  0.3718  0.9789 -0.7837
  430MOL0     C57942   4.201   2.003   1.370  0.7951  0.3511  0.2489
  430MOL0     C57943   4.146   2.061   1.500 -0.5893  0.6221  0.4643
  430MOL0     C57944   4.113   1.963   1.263 -0.2082 -0.3386  0.2664
  430MOL0     C57945   3.963   1.979   1.258 -0.5412 -0.1951  0.5502
  430MOL0     O57946   3.899   1.895   1.163 -0.2495  0.4842  1.2267
  430MOL0     C57947   3.766   1.917   1.140  1.0424 -0.3467 -0.0890
  430MOL0     C57948   3.718   2.020   1.057  0.0295 -0.5314 -0.8223
  430MOL0     C57949   3.578   2.045   1.044  0.0056 -0.9215 -0.7232
  430MOL0     C57950   3.482   1.962   1.110 -0.3160 -0.0116  0.4253
  430MOL0     O57951   3.344   1.974   1.081  0.1936 -0.5648  0.3233
  430MOL0     C57952   3.246   1.886   1.139  0.2780  1.0481 -0.8231
  430MOL0     C57953   3.097   1.927   1.136 -0.4064 -0.1618 -0.0524
  430MOL0     C57954   3.025   1.876   1.005  0.4271 -0.1984 -0.2151
  430MOL0     C57955   2.898   1.953   0.983  0.3381 -0.2632  0.2789
  430MOL0     C57956   2.824   1.920   0.850  0.1499  0.5680 -0.8193
  430MOL0     C57957   2.688   2.000   0.850  0.4174  0.3014  0.2179
  430MOL0     C57958   2.593   1.976   0.736 -0.7782  1.3296  0.9046
  430MOL0     C57959   2.487   2.081   0.717  0.3726  0.4928  0.1362
  430MOL0    Cl57960   2.368   2.095   0.850  0.3591  0.0213  0.2902
  430MOL0     C57961   3.532   1.854   1.189  0.0370  0.4190 -0.7310
  430MOL0     C57962   3.671   1.836   1.200  0.1777 -0.9112 -0.8543
  430MOL0     O57963   3.911   2.047   1.348  0.5302  0.3739 -0.1420
  430MOL0     C57964   4.169   1.905   1.150  1.1772  0.1408 -0.2983
  430MOL0     C57965   4.309   1.891   1.140 -0.3268  0.4031 -0.7113
  430MOL0     N57966   4.966   1.420   1.227 -0.3089  0.6492 -0.4670
  430MOL0     N57967   5.071   1.372   1.270 -0.0053 -0.1718 -0.8259
  430MOL0     C57968   6.079   0.928   1.668  0.3534  0.4443 -0.4369
  430MOL0     C57969   6.180   0.847   1.624 -0.8673  0.3464  0.1453
  430MOL0     C57970   6.637   0.769   1.536 -0.7192 -1.0501 -0.4086
  430MOL0     C57971   6.708   0.734   1.649 -0.6478  0.2886  0.6758
  430MOL0     C57972   6.826   0.663   1.634 -0.2052 -0.2008 -0.2668
  430MOL0     C57973   6.878   0.624   1.511  0.5472 -1.2546 -0.4372
  430MOL0     O57974   6.991   0.560   1.482 -0.3545 -0.6213  0.0520
  430MOL0     C57975   7.090   0.548   1.589  0.5045  0.1056 -0.3154
  430MOL0     C57976   7.171   0.669   1.606  0.2418  0.1177 -0.5007
  430MOL0     C57977   7.256   0.701   1.480 -0.1003 -0.2106  0.4108
  430MOL0     C57978   7.298   0.847   1.480  0.2879  0.1459  0.5014
  430MOL0     C57979   7.404   0.880   1.579  0.4220  1.2101  0.5245
  430MOL0     C57980   7.479   0.905   1.678  0.1864  0.1382  0.4838
  430MOL0     C57981   6.814   0.670   1.397  0.0409  0.0001 -0.6483
  430MOL0     C57982   6.695   0.742   1.411  0.8516 -0.3527  0.6312
  430MOL0     H57983   6.443   1.000   1.759 -1.3003  1.8170  1.1329
  430MOL0     H57984   6.251   1.142   1.879 -2.4958 -0.3984  0.8573
  430MOL0     H57985   5.968   1.172   1.611 -0.2292  1.2427  0.0800
  430MOL0     H57986   5.850   1.065   1.687 -2.5021  2.2125 -0.0673
  430MOL0     H57987   5.776   1.242   1.841 -1.6958  2.6542  0.2949
  430MOL0     H57988   5.863   1.366   1.778  0.9993  0.0417 -1.0887
  430MOL0     H57989   5.739   1.330   1.539 -1.3806  2.0526 -0.5312
  430MOL0     H57990   5.626   1.236   1.645 -2.9751  2.7809  1.5219
  430MOL0     H57991   5.605   1.425   1.778  2.2783 -0.6221  0.9843
  430MOL0     H57992   5.714   1.512   1.673 -0.6010  1.7353  1.1643
  430MOL0     H57993   5.523   1.577   1.560  1.8769 -0.2633  0.2950
  430MOL0     H57994   5.525   1.412   1.481 -0.5877 -1.0347  0.9281
  430MOL0     H57995   5.387   1.309   1.626  2.8406 -0.9556  1.2228
  430MOL0     H57996   5.368   1.436   1.732  0.9905 -0.9316  0.0063
  430MOL0     H57997   5.174   1.458   1.588 -1.2835 -0.2003 -0.8101
  430MOL0     H57998   5.287   1.593   1.547  1.1427 -0.6065  3.8906
  430MOL0     H57999   5.278   1.324   1.408 -0.8838  0.8374  1.9644
  430MOL0     H58000   5.351   1.472   1.339 -1.0275  2.3241 -0.0071
  430MOL0     H58001   5.123   1.675   1.351 -0.5072  0.4333 -0.2041
  430MOL0     H58002   4.980   1.738   1.140  0.9178  0.1995  3.1803
  430MOL0     H58003   4.856   1.626   1.072  0.4028  0.8635 -0.7973
  430MOL0     H58004   4.816   1.843   1.255  1.1886 -0.0107 -0.9022
  430MOL0     H58005   4.825   1.709   1.365 -2.4082 -2.1393 -0.9170
  430MOL0     H58006   4.649   1.573   1.260 -1.1702 -0.6301 -3.1118
  430MOL0     H58007   4.634   1.696   1.129 -2.6154 -1.0995 -0.5017
  430MOL0     H58008   4.615   1.799   1.409 -1.2418 -0.6742  0.5635
  430MOL0     H58009   4.475   1.711   1.337  0.0751 -0.0486  0.3574
  430MOL0     H58010   4.402   1.984   1.454 -1.0421  4.0938 -0.0679
  430MOL0     H58011   4.227   2.090   1.568 -2.0281 -0.1452  2.6136
  430MOL0     H58012   4.086   2.151   1.491  2.6253  3.1899  2.3331
  430MOL0     H58013   4.078   1.991   1.550  0.2754 -0.6714 -0.0911
  430MOL0     H58014   3.786   2.089   1.008 -0.2955 -1.7496 -3.1345
  430MOL0     H58015   3.541   2.123   0.978 -1.5848 -1.5634 -0.6158
  430MOL0     H58016   3.243   1.789   1.087  1.2882  0.8375 -0.5168
  430MOL0     H58017   3.274   1.869   1.244 -1.3374  0.4411 -0.4586
  430MOL0     H58018   3.047   1.873   1.217 -1.1595 -2.1443 -1.7598
  430MOL0     H58019   3.100   2.036   1.139 -0.1024 -0.1520 -0.5478
  430MOL0     H58020   3.000   1.769   1.005  0.7593 -0.2807  0.2327
  430MOL0     H58021   3.086   1.887   0.915 -0.9622 -1.8008 -1.4474
  430MOL0     H58022   2.831   1.928   1.066  2.1640 -0.0452  1.8785
  430MOL0     H58023   2.923   2.059   0.988 -0.1002 -0.0095 -1.7212
  430MOL0     H58024   2.809   1.812   0.842  2.2276  0.3358 -2.4547
  430MOL0     H58025   2.882   1.961   0.766  2.8714 -0.5686  0.3839
  430MOL0     H58026   2.628   1.964   0.934 -2.1734  3.1671 -0.2339
  430MOL0     H58027   2.707   2.107   0.860 -1.3638  0.7201 -0.5638
  430MOL0     H58028   2.551   1.878   0.761 -1.2348  1.3758  0.3450
  430MOL0     H58029   2.641   1.969   0.638  0.8500  1.1835  1.6791
  430MOL0     H58030   2.430   2.052   0.628  0.4858 -0.2238  0.2854
  430MOL0     H58031   2.538   2.174   0.691  2.0083  0.1267  1.8190
  430MOL0     H58032   3.462   1.784   1.231  1.5590 -0.6233  0.1722
  430MOL0     H58033   3.710   1.754   1.260  1.1464 -0.2918 -0.6149
  430MOL0     H58034   4.103   1.878   1.068 -0.4326  2.1664  0.2583
  430MOL0     H58035   4.349   1.851   1.048 -2.6889 -1.1617 -1.1683
  430MOL0     H58036   5.978   0.895   1.648 -0.4830  2.4638  0.1979
  430MOL0     H58037   6.164   0.756   1.567  0.6159 -1.0031  1.7759
  430MOL0     H58038   6.693   0.761   1.753 -2.4666 -2.7152  1.3090
  430MOL0     H58039   6.872   0.644   1.730  1.4397 -0.2000 -1.0189
  430MOL0     H58040   7.035   0.530   1.682  0.8859 -0.8221 -0.2613
  430MOL0     H58041   7.168   0.473   1.572  1.9896  1.2235  1.2344
  430MOL0     H58042   7.234   0.683   1.694 -2.4679  2.7424  1.2066
  430MOL0     H58043   7.094   0.744   1.623 -0.1889 -0.4597  0.1720
  430MOL0     H58044   7.199   0.690   1.387  0.6345 -0.2379 -0.0524
  430MOL0     H58045   7.342   0.634   1.479  0.5821  0.6260  1.1755
  430MOL0     H58046   7.213   0.912   1.497 -1.9878 -2.3718 -0.4998
  430MOL0     H58047   7.347   0.858   1.383  0.3036 -1.4240  0.3003
  430MOL0     H58048   7.538   0.945   1.757  0.6516 -0.5520  0.4912
  430MOL0     H58049   6.857   0.651   1.300 -1.3819 -1.5458 -1.0211
  430MOL0     H58050   6.647   0.777   1.320  0.0808  0.7454  1.4208
  431MOL0     O58051   3.707   1.468  10.278 -0.0714 -0.5463  0.1539
  431MOL0     C58052   3.685   1.554  10.370  0.8813  0.0872 -0.0338
  431MOL0     O58053   3.775   1.641  10.412 -0.3973 -0.2794  0.3468
  431MOL0     C58054   3.891   1.629  10.337 -0.3395 -0.5913  0.4431
  431MOL0     C58055   3.917   1.708  10.224 -0.9515 -0.0524  0.1562
  431MOL0     C58056   4.035   1.699  10.149 -0.3756  0.9360 -0.3474
  431MOL0     C58057   4.126   1.601  10.182  0.9097  0.4334 -0.4706
  431MOL0     O58058   4.226   1.578  10.087 -0.3706  0.2957  0.3179
  431MOL0     C58059   4.359   1.568  10.146 -0.3557  1.1346  0.0316
  431MOL0     C58060   4.456   1.589  10.043 -0.0211 -0.2649  0.2017
  431MOL0     C58061   4.593   1.535  10.089  0.1536 -0.4925  0.9629
  431MOL0     C58062   4.695   1.509   9.974  0.3609 -0.6885  0.2655
  431MOL0     C58063   4.841   1.523  10.021  0.6164  0.3778  0.6100
  431MOL0     C58064   4.939   1.534   9.903 -0.4656 -0.1625  0.2066
  431MOL0     C58065   5.078   1.578   9.964  0.1101 -1.0388 -0.7422
  431MOL0     C58066   5.198   1.555   9.881 -0.0445 -0.0067 -0.7144
  431MOL0     N58067   5.216   1.417   9.838 -0.1423 -0.6437  0.7983
  431MOL0     C58068   5.146   1.352   9.735 -1.4421 -0.2166 -0.4481
  431MOL0     C58069   5.192   1.224   9.741  0.4967  0.5270 -0.0938
  431MOL0     C58070   5.172   1.138   9.620  0.3927 -0.2911  0.7052
  431MOL0     C58071   5.031   1.068   9.614  0.3901 -0.0201  0.3948
  431MOL0     C58072   5.014   0.952   9.724  0.2337 -0.4426  0.1030
  431MOL0     C58073   4.872   0.897   9.717  0.5183 -0.2749  0.3410
  431MOL0     O58074   4.769   0.984   9.748  0.2044  0.2446 -0.4717
  431MOL0     C58075   4.650   0.936   9.727  0.2661  0.1322  0.5622
  431MOL0     C58076   4.589   0.853   9.814  0.8498  0.1352  0.3799
  431MOL0     C58077   4.458   0.807   9.800  0.0989  0.0174  0.3592
  431MOL0     C58078   4.396   0.714   9.908  0.0829  0.2651  0.4395
  431MOL0     C58079   4.389   0.840   9.680  0.3768  0.0474  0.3431
  431MOL0     C58080   4.252   0.809   9.653 -0.2714 -0.4413  0.0007
  431MOL0     O58081   4.167   0.915   9.668  0.3508  0.4431 -0.0026
  431MOL0     C58082   4.035   0.888   9.681  0.5545 -0.5102  1.1767
  431MOL0     C58083   3.966   0.860   9.563 -0.8078 -0.2985  0.0248
  431MOL0     C58084   3.831   0.817   9.562 -0.7032 -0.4947 -0.3591
  431MOL0     C58085   3.759   0.818   9.688  0.0244  0.4440 -0.4939
  431MOL0     O58086   3.628   0.788   9.700  0.8914 -0.5405  0.4014
  431MOL0     C58087   3.589   0.654   9.666 -0.3393 -0.5201  0.4027
  431MOL0     C58088   3.489   0.594   9.769 -0.3931  0.2777 -0.5903
  431MOL0     C58089   3.373   0.698   9.812  0.1488  0.4754 -0.0866
  431MOL0     C58090   3.294   0.730   9.682  0.2785  0.1348  0.2792
  431MOL0     C58091   3.182   0.835   9.709 -0.0344  0.8420 -0.4656
  431MOL0     C58092   3.053   0.775   9.766  0.1492  0.1330 -0.0983
  431MOL0     C58093   2.952   0.881   9.785  0.5773 -0.2403 -0.5760
  431MOL0     C58094   2.880   0.841   9.914  0.3746 -0.7533  0.3905
  431MOL0    Cl58095   2.991   0.881  10.048 -0.1120 -0.7259 -0.0567
  431MOL0     C58096   3.826   0.833   9.810  0.0839 -0.5782 -0.1514
  431MOL0     C58097   3.963   0.868   9.805  0.6233  0.2227  0.7089
  431MOL0     O58098   4.230   0.694   9.631  0.0665 -1.2164  0.3024
  431MOL0     C58099   4.455   0.927   9.587 -0.1729  0.4747  0.5522
  431MOL0     C58100   4.581   0.976   9.615  0.8492 -0.2798  0.6192
  431MOL0     N58101   5.284   1.211   9.842  0.2714  0.0866 -0.1008
  431MOL0     N58102   5.294   1.324   9.895 -0.7493 -0.6186 -0.3420
  431MOL0     C58103   4.106   1.531  10.302 -0.6376 -0.8988 -0.0447
  431MOL0     C58104   3.993   1.541  10.377 -0.0343 -0.4731  0.2843
  431MOL0     C58105   3.557   1.561  10.442  0.1285  0.2213 -0.5878
  431MOL0     C58106   3.448   1.473  10.421 -0.4848  0.2922 -0.8655
  431MOL0     C58107   3.322   1.496  10.479  0.0049  0.8268  0.2391
  431MOL0     C58108   3.310   1.584  10.587  0.4616 -0.6743  0.8781
  431MOL0     O58109   3.178   1.606  10.624 -0.1574 -0.0859 -0.0999
  431MOL0     C58110   3.161   1.676  10.745 -0.6273 -0.5008 -0.1240
  431MOL0     C58111   3.013   1.668  10.779 -0.1308 -0.7002 -0.3700
  431MOL0     C58112   2.931   1.776  10.706  0.4379 -0.0421  0.1435
  431MOL0     C58113   2.789   1.776  10.748 -0.0237  0.2578 -0.5036
  431MOL0     C58114   2.711   1.880  10.690 -0.4975  0.1960 -0.2585
  431MOL0     C58115   2.651   1.968  10.629  0.7739 -0.1138  0.5524
  431MOL0     C58116   3.423   1.664  10.615 -0.3074  0.0120  0.3241
  431MOL0     C58117   3.538   1.657  10.542  0.7182  0.0207  0.3224
  431MOL0     H58118   3.851   1.790  10.196  1.1802  0.9011 -2.4836
  431MOL0     H58119   4.052   1.760  10.060  1.2980 -0.2124 -0.8718
  431MOL0     H58120   4.382   1.643  10.223  2.2811 -0.8831  1.3716
  431MOL0     H58121   4.379   1.467  10.183 -0.0940  1.4786  0.8738
  431MOL0     H58122   4.436   1.521   9.960  2.5330 -3.6888  2.1167
  431MOL0     H58123   4.462   1.691  10.004  2.9501 -1.4832 -3.1563
  431MOL0     H58124   4.630   1.608  10.161 -1.4251  1.5464 -0.2067
  431MOL0     H58125   4.582   1.440  10.142  0.8858  1.4002  4.8766
  431MOL0     H58126   4.676   1.420   9.913  2.6871 -1.2963  0.3311
  431MOL0     H58127   4.681   1.591   9.903  0.3706 -1.4936 -0.6932
  431MOL0     H58128   4.848   1.598  10.099  2.1869  0.3653  0.5129
  431MOL0     H58129   4.865   1.429  10.072 -1.8282 -0.8571 -0.3309
  431MOL0     H58130   4.941   1.430   9.869 -3.3560 -0.8096  1.6729
  431MOL0     H58131   4.901   1.606   9.830 -2.2234  0.5275  1.7240
  431MOL0     H58132   5.081   1.686   9.984  0.3065 -1.0709 -0.6029
  431MOL0     H58133   5.082   1.520  10.056  1.0809  0.6253  0.3195
  431MOL0     H58134   5.283   1.590   9.940  0.3177  0.4547 -1.4997
  431MOL0     H58135   5.175   1.614   9.792 -0.0983  1.3271  0.1544
  431MOL0     H58136   5.085   1.410   9.667 -1.2922 -0.1538 -0.5301
  431MOL0     H58137   5.183   1.207   9.535  0.8859 -0.3761  0.7009
  431MOL0     H58138   5.253   1.066   9.609  3.7918  3.2899  0.1928
  431MOL0     H58139   5.012   1.017   9.519  1.1810 -3.3896  1.8752
  431MOL0     H58140   4.957   1.145   9.638 -0.5490 -0.5667 -0.6326
  431MOL0     H58141   5.031   0.985   9.827 -0.5750 -0.1608  0.1526
  431MOL0     H58142   5.066   0.860   9.696  3.0265  0.9216  0.4378
  431MOL0     H58143   4.863   0.815   9.789  1.6050 -1.2314 -0.5792
  431MOL0     H58144   4.858   0.866   9.613  0.3901  0.8534  0.0061
  431MOL0     H58145   4.633   0.833   9.911  0.0303  1.2288  0.9957
  431MOL0     H58146   4.425   0.610   9.891  1.2361  0.6439 -0.0239
  431MOL0     H58147   4.437   0.741  10.006  2.8220  3.1592 -1.2759
  431MOL0     H58148   4.288   0.728   9.915 -0.2924 -2.0606  0.0702
  431MOL0     H58149   4.017   0.870   9.467  1.3783  1.9361  1.3099
  431MOL0     H58150   3.784   0.801   9.466  2.0312  0.6118 -1.9860
  431MOL0     H58151   3.534   0.651   9.571 -1.2597  0.1670  0.9038
  431MOL0     H58152   3.675   0.588   9.649 -1.3566 -1.3699 -1.9391
  431MOL0     H58153   3.454   0.496   9.735  2.0939 -0.0427 -2.4791
  431MOL0     H58154   3.535   0.573   9.866  0.1978  1.3375 -0.6229
  431MOL0     H58155   3.430   0.786   9.844 -0.5893 -0.2883  3.8606
  431MOL0     H58156   3.304   0.667   9.891 -0.2826 -1.3476 -1.1281
  431MOL0     H58157   3.356   0.763   9.598 -0.8102  1.3923 -0.0762
  431MOL0     H58158   3.236   0.642   9.652 -4.2003  1.1360  4.6743
  431MOL0     H58159   3.144   0.878   9.616 -2.5749 -0.1645  0.0183
  431MOL0     H58160   3.220   0.916   9.772 -3.1523  3.3751 -1.5922
  431MOL0     H58161   3.009   0.701   9.699  0.5828  0.9970 -1.3729
  431MOL0     H58162   3.070   0.711   9.853  0.4048  0.0380 -0.2158
  431MOL0     H58163   2.882   0.886   9.700 -1.5185  0.5651  1.1065
  431MOL0     H58164   3.007   0.975   9.791  2.7376 -1.4251 -0.9501
  431MOL0     H58165   2.845   0.738   9.901 -1.5885 -0.0146 -0.5453
  431MOL0     H58166   2.790   0.903   9.922  1.0856  0.5941 -1.3673
  431MOL0     H58167   3.778   0.807   9.904 -1.6701  0.3667 -0.7286
  431MOL0     H58168   4.019   0.882   9.897 -1.1309  2.1179  1.5696
  431MOL0     H58169   4.411   0.964   9.495  2.7003  1.1670 -0.6228
  431MOL0     H58170   4.632   1.044   9.548 -0.5530  0.4413  0.2254
  431MOL0     H58171   4.182   1.454  10.309  2.4083  1.6599 -2.2035
  431MOL0     H58172   3.993   1.472  10.462  1.1176  2.9046  3.2787
  431MOL0     H58173   3.455   1.413  10.331  2.0173 -1.7668  0.5442
  431MOL0     H58174   3.234   1.447  10.440  1.3813 -2.9473  1.4353
  431MOL0     H58175   3.213   1.633  10.832 -3.9038 -2.7066  0.9333
  431MOL0     H58176   3.189   1.781  10.729 -1.7447 -0.5002 -2.5615
  431MOL0     H58177   2.998   1.688  10.886 -0.5680  0.6225 -0.6688
  431MOL0     H58178   2.971   1.569  10.757  1.3932 -0.7650 -3.4276
  431MOL0     H58179   2.935   1.765  10.597  4.0392  1.1829  0.0046
  431MOL0     H58180   2.969   1.878  10.721 -1.4934  1.0540 -1.7943
  431MOL0     H58181   2.794   1.781  10.857  0.6627 -0.5048 -0.4859
  431MOL0     H58182   2.750   1.679  10.715 -3.1627  1.1677  0.2307
  431MOL0     H58183   2.583   2.039  10.588  2.1218  0.3359 -1.0236
  431MOL0     H58184   3.410   1.744  10.688 -0.2704 -0.6578  1.0827
  431MOL0     H58185   3.611   1.729  10.576  1.3543  0.3109 -1.5569
  432MOL0     O58186   2.933  10.246  10.439 -0.0287 -0.1950  0.6400
  432MOL0     C58187   3.034  10.254  10.508  0.3300 -0.2801 -0.4245
  432MOL0     O58188   3.035  10.227  10.644  0.2929  0.6862  1.0327
  432MOL0     C58189   2.926  10.161  10.693  0.7314 -0.0300  0.5044
  432MOL0     C58190   2.853  10.057  10.630  0.6353  0.0298  0.0136
  432MOL0     C58191   2.741  10.015  10.689  0.0859  0.2881 -0.8828
  432MOL0     C58192   2.691  10.077  10.813 -0.4765  0.3576 -0.2488
  432MOL0     O58193   2.573  10.050  10.876  0.8072  0.4695  0.0856
  432MOL0     C58194   2.503   9.929  10.834  2.0936 -0.6884  0.4978
  432MOL0     C58195   2.370   9.926  10.908 -0.3473  0.5003 -0.3302
  432MOL0     C58196   2.293   9.796  10.873 -0.6380  0.2685 -0.7757
  432MOL0     C58197   2.156   9.806  10.944 -0.4594 -0.4441 -0.3872
  432MOL0     C58198   2.097   9.669  10.976 -0.4880 -0.8185 -0.3647
  432MOL0     C58199   1.965   9.676  11.041  0.6008  0.3110 -1.0470
  432MOL0     C58200   1.964   9.692  11.202 -0.1364  0.1598  0.8817
  432MOL0     C58201   1.829   9.661  11.262 -0.7521  0.3096  0.1099
  432MOL0     N58202   1.728   9.763  11.226  0.0815  0.0172  0.8831
  432MOL0     C58203   1.656   9.751  11.111  0.1192 -0.6009 -0.2774
  432MOL0     C58204   1.558   9.848  11.122  0.2205  0.5297  0.2198
  432MOL0     C58205   1.461   9.876  11.012  0.4103 -0.8597 -0.2875
  432MOL0     C58206   1.319   9.874  11.067 -0.0162  0.3346  0.3123
  432MOL0     C58207   1.291  10.012  11.144 -0.3918 -0.2198  0.4051
  432MOL0     C58208   1.148  10.044  11.170  0.3115 -0.6710  0.2458
  432MOL0     O58209   1.055  10.022  11.065  1.4061  0.1310 -0.5554
  432MOL0     C58210   0.924  10.067  11.091  0.4406 -0.1934  0.3605
  432MOL0     C58211   0.842  10.062  10.979  0.1759  0.3329 -0.4751
  432MOL0     C58212   0.712  10.112  10.971  0.7423  0.2333 -0.0910
  432MOL0     C58213   0.634  10.113  10.841 -0.2357 -0.2369 -0.8503
  432MOL0     C58214   0.658  10.141  11.100  0.3262 -0.8145 -0.5717
  432MOL0     C58215   0.509  10.156  11.128 -0.1025  0.9824 -0.0402
  432MOL0     O58216   0.464  10.163  11.253 -0.2043 -0.1214 -0.1392
  432MOL0     C58217   0.331  10.151  11.289 -0.3691  0.4551 -0.6752
  432MOL0     C58218   0.316  10.095  11.417  0.5190 -0.1947 -0.6465
  432MOL0     C58219   0.194  10.072  11.477  0.1386 -0.3162 -0.4671
  432MOL0     C58220   0.081  10.107  11.408 -0.6386  0.1657  0.7715
  432MOL0     O58221  -0.029  10.077  11.482  0.0789 -0.2404 -0.0515
  432MOL0     C58222  -0.149  10.084  11.403  0.6459  0.9054 -0.6755
  432MOL0     C58223  -0.240  10.000  11.491  0.8090 -0.1839  0.6962
  432MOL0     C58224  -0.378   9.980  11.421  0.3762  0.3160  0.6194
  432MOL0     C58225  -0.481   9.912  11.512 -0.3816  0.0849 -0.0874
  432MOL0     C58226  -0.610   9.879  11.435  0.4102  0.6110  0.1296
  432MOL0     C58227  -0.706   9.812  11.540  0.4154 -0.2742  1.0842
  432MOL0     C58228  -0.844   9.810  11.482 -1.1649  0.5863 -0.8670
  432MOL0     C58229  -0.935   9.713  11.558  0.7612  0.1226  0.0033
  432MOL0    Cl58230  -0.982   9.789  11.718  0.1930 -0.0170 -0.4704
  432MOL0     C58231   0.089  10.169  11.282 -0.2051 -0.8257 -0.5585
  432MOL0     C58232   0.212  10.182  11.217 -0.2448  0.1679  0.4996
  432MOL0     O58233   0.438  10.138  11.032 -0.0535 -0.0500 -0.4682
  432MOL0     C58234   0.736  10.151  11.215  0.2316 -1.1348 -1.0359
  432MOL0     C58235   0.869  10.111  11.214  0.1106  0.2342  0.8939
  432MOL0     N58236   1.575   9.908  11.247 -0.0686  0.5750 -0.2491
  432MOL0     N58237   1.680   9.857  11.308  0.7758 -0.1851 -0.7348
  432MOL0     C58238   2.770  10.172  10.872  0.3069 -0.1742  0.2301
  432MOL0     C58239   2.884  10.208  10.817  0.6124 -0.3407 -0.3313
  432MOL0     C58240   3.166  10.276  10.445 -0.2877 -0.4448  0.6699
  432MOL0     C58241   3.178  10.322  10.312  0.4432  0.6020 -0.0950
  432MOL0     C58242   3.294  10.337  10.250 -0.0147  0.5912  0.2915
  432MOL0     C58243   3.415  10.310  10.315 -0.5485  0.2216 -0.5570
  432MOL0     O58244   3.534  10.324  10.247  0.6332  0.3113 -0.3205
  432MOL0     C58245   3.656  10.279  10.307  0.3000 -0.3592 -0.4732
  432MOL0     C58246   3.658  10.125  10.294  0.2468 -0.1769 -0.2937
  432MOL0     C58247   3.789  10.064  10.340  0.0305  0.8039 -0.3889
  432MOL0     C58248   3.782   9.920  10.401  0.6357  0.3324 -0.4882
  432MOL0     C58249   3.684   9.911  10.512 -0.2107 -0.2552  0.3788
  432MOL0     C58250   3.593   9.909  10.592 -0.1775  0.8084 -0.1470
  432MOL0     C58251   3.406  10.261  10.449  0.2163 -0.3957 -0.3016
  432MOL0     C58252   3.283  10.239  10.510 -0.4540 -0.0472 -0.0341
  432MOL0     H58253   2.891  10.014  10.538 -1.5512  0.5397 -1.1921
  432MOL0     H58254   2.696   9.929  10.641  1.8123 -2.3590  1.8238
  432MOL0     H58255   2.466   9.931  10.732 -0.3514 -0.3145  1.3243
  432MOL0     H58256   2.558   9.837  10.853  0.2708 -2.1577 -1.0121
  432MOL0     H58257   2.387   9.921  11.016  0.5997  1.6707 -0.4187
  432MOL0     H58258   2.315  10.015  10.878 -1.2495  0.0272 -0.1341
  432MOL0     H58259   2.270   9.770  10.769 -2.3746 -1.0227 -0.1206
  432MOL0     H58260   2.343   9.706  10.910 -2.5221  0.0038  1.2998
  432MOL0     H58261   2.169   9.874  11.029 -0.0436  1.3694 -1.8409
  432MOL0     H58262   2.079   9.849  10.879 -1.3027  2.3129  2.2351
  432MOL0     H58263   2.081   9.626  10.877  0.9382  0.9629 -1.4309
  432MOL0     H58264   2.178   9.622  11.033 -1.2636 -0.0936  1.3933
  432MOL0     H58265   1.908   9.762  11.006 -0.6654  0.5664  1.4270
  432MOL0     H58266   1.908   9.586  11.016 -0.3868  0.7655 -0.5045
  432MOL0     H58267   2.037   9.617  11.236  1.3063  1.3533  0.5141
  432MOL0     H58268   1.993   9.795  11.223  1.0792  0.2604 -1.0669
  432MOL0     H58269   1.832   9.662  11.371 -2.1243 -0.7650  0.1849
  432MOL0     H58270   1.785   9.566  11.229  0.5369  0.1497 -1.2879
  432MOL0     H58271   1.683   9.683  11.030 -3.3521  1.7034 -3.7400
  432MOL0     H58272   1.484   9.972  10.965  0.8665 -1.6046 -1.6497
  432MOL0     H58273   1.468   9.806  10.928  1.1668  2.0829 -2.8593
  432MOL0     H58274   1.311   9.782  11.125  0.0471  2.7931  4.6792
  432MOL0     H58275   1.250   9.865  10.982 -0.2405 -0.4258  0.5693
  432MOL0     H58276   1.340  10.097  11.096  2.4755 -2.3484 -0.6809
  432MOL0     H58277   1.329  10.009  11.247 -1.8518 -1.2395  0.9534
  432MOL0     H58278   1.149  10.152  11.187  0.2387 -0.7567  0.8384
  432MOL0     H58279   1.122   9.988  11.261  0.3963 -0.8021  0.1898
  432MOL0     H58280   0.889  10.043  10.884 -1.1437  2.3566 -1.6138
  432MOL0     H58281   0.696  10.070  10.762  0.0940 -2.5055  0.5564
  432MOL0     H58282   0.540  10.056  10.849 -1.1919  1.1517 -1.7139
  432MOL0     H58283   0.610  10.217  10.816  0.0153 -0.4236 -1.9320
  432MOL0     H58284   0.403  10.086  11.481 -0.9245 -2.1707  1.1550
  432MOL0     H58285   0.189  10.028  11.575  0.3298  2.2341  0.7678
  432MOL0     H58286  -0.192  10.184  11.390 -1.4358  0.4227  1.6531
  432MOL0     H58287  -0.147  10.039  11.304  0.5113 -0.7851  0.0633
  432MOL0     H58288  -0.200   9.898  11.495  1.7078  0.1040 -0.4098
  432MOL0     H58289  -0.245  10.043  11.591 -3.5960 -0.6053  0.8669
  432MOL0     H58290  -0.352   9.908  11.342 -0.1431 -1.1402  1.7308
  432MOL0     H58291  -0.406  10.073  11.370  1.8005  0.2704 -0.2927
  432MOL0     H58292  -0.431   9.824  11.554 -0.8407  0.1988  0.7101
  432MOL0     H58293  -0.502   9.971  11.602 -1.3643 -1.3624  0.6765
  432MOL0     H58294  -0.598   9.812  11.349  0.9111  0.0111  0.6547
  432MOL0     H58295  -0.661   9.969  11.401 -1.7930 -1.1940 -1.6376
  432MOL0     H58296  -0.664   9.711  11.549  0.0519 -0.7813 -1.9235
  432MOL0     H58297  -0.702   9.866  11.635  2.8170  2.2565 -0.3324
  432MOL0     H58298  -0.839   9.768  11.381  1.8932 -2.7887  0.4555
  432MOL0     H58299  -0.895   9.906  11.485  0.8025  1.6802 -0.3554
  432MOL0     H58300  -0.885   9.619  11.583 -1.6323 -0.4497  3.2233
  432MOL0     H58301  -1.023   9.698  11.495  2.6318  1.4856 -3.1714
  432MOL0     H58302   0.002  10.197  11.224 -0.7820 -1.9387 -0.2509
  432MOL0     H58303   0.206  10.216  11.114  0.1835 -2.3475 -0.4344
  432MOL0     H58304   0.699  10.177  11.314  3.3234  0.3164 -0.1651
  432MOL0     H58305   0.928  10.116  11.305  1.5340 -3.1031  0.3120
  432MOL0     H58306   2.726  10.232  10.951  0.8137  1.3707 -0.6039
  432MOL0     H58307   2.944  10.285  10.864 -1.1491  0.6565  0.3922
  432MOL0     H58308   3.087  10.356  10.265 -0.1826 -0.8657 -0.0198
  432MOL0     H58309   3.302  10.371  10.147  1.2568  1.5744  0.6814
  432MOL0     H58310   3.739  10.319  10.248  1.0141 -0.5636  0.3702
  432MOL0     H58311   3.672  10.303  10.412  0.5817 -1.3919 -0.2681
  432MOL0     H58312   3.634  10.105  10.189 -5.3299  1.6738  0.3303
  432MOL0     H58313   3.571  10.082  10.344  0.8867 -1.1398  0.0162
  432MOL0     H58314   3.839  10.120  10.420  0.5288  1.5723 -1.2128
  432MOL0     H58315   3.871  10.063  10.267  0.8486 -1.0874  0.4777
  432MOL0     H58316   3.880   9.893  10.441  1.5786  0.7630 -2.3783
  432MOL0     H58317   3.746   9.843  10.331 -3.0563  3.2404 -2.1289
  432MOL0     H58318   3.510   9.931  10.655  0.1910  4.4071 -0.7368
  432MOL0     H58319   3.490  10.239  10.513 -1.0680  4.4688  3.6351
  432MOL0     H58320   3.282  10.204  10.613  0.2664  1.2014  0.4127
  433MOL0     O58321   5.499   8.952   0.639 -0.5899  0.4616 -0.6126
  433MOL0     C58322   5.574   8.940   0.739 -0.2633 -0.0884  0.8795
  433MOL0     O58323   5.552   8.849   0.844 -0.1729 -0.5516 -0.5002
  433MOL0     C58324   5.433   8.781   0.860  0.5677 -0.1632  0.1723
  433MOL0     C58325   5.357   8.803   0.979 -0.1456  0.3776  0.2733
  433MOL0     C58326   5.237   8.731   0.993  0.0472 -0.3822  0.5150
  433MOL0     C58327   5.194   8.638   0.899  0.3490 -0.4036 -0.4260
  433MOL0     O58328   5.077   8.568   0.919  0.7028  1.0527  0.0102
  433MOL0     C58329   4.977   8.604   1.018 -0.3300  0.6090 -0.5180
  433MOL0     C58330   4.854   8.520   1.000  0.4544 -0.2327 -0.2183
  433MOL0     C58331   4.874   8.373   1.032  0.4408  0.2200 -0.3944
  433MOL0     C58332   4.738   8.305   1.027  0.0675 -0.1088  0.1205
  433MOL0     C58333   4.753   8.158   1.036 -0.4315 -0.1930  0.2059
  433MOL0     C58334   4.621   8.081   1.062  0.3987 -0.3363  0.0952
  433MOL0     C58335   4.590   8.080   1.218  0.1948 -0.0088  0.4579
  433MOL0     C58336   4.453   8.020   1.262  0.4231 -0.2609  0.9296
  433MOL0     N58337   4.410   7.919   1.167 -0.1218  0.1848  0.3082
  433MOL0     C58338   4.321   7.932   1.061 -1.7733 -0.3430 -0.4730
  433MOL0     C58339   4.300   7.812   1.006 -0.1913 -0.6695 -0.1065
  433MOL0     C58340   4.210   7.781   0.899  0.2198 -0.6919  0.6358
  433MOL0     C58341   4.066   7.791   0.958  0.1102 -0.5581 -0.4883
  433MOL0     C58342   3.964   7.711   0.877  0.8084  0.1586  0.0417
  433MOL0     C58343   3.834   7.678   0.945 -0.6026 -0.5665 -0.3730
  433MOL0     O58344   3.763   7.605   0.858 -0.0659 -0.5069  0.0544
  433MOL0     C58345   3.625   7.599   0.871  0.2987 -0.0363 -0.2881
  433MOL0     C58346   3.549   7.634   0.985 -0.1487  0.4428 -0.2527
  433MOL0     C58347   3.411   7.621   1.005 -0.2558 -1.0845  0.5368
  433MOL0     C58348   3.367   7.670   1.143 -0.8394  0.5082  0.3550
  433MOL0     C58349   3.335   7.559   0.896 -1.0023  0.5777 -0.7740
  433MOL0     C58350   3.186   7.525   0.901  0.2313 -0.8479 -0.0739
  433MOL0     O58351   3.137   7.459   0.792 -0.5642  0.8124 -0.0075
  433MOL0     C58352   3.003   7.451   0.797  0.1103 -0.1912  0.3894
  433MOL0     C58353   2.936   7.340   0.838  0.1892 -0.4190 -0.3196
  433MOL0     C58354   2.795   7.335   0.830 -0.9335  1.3837 -1.0910
  433MOL0     C58355   2.719   7.435   0.782  0.3149  0.4476  0.3405
  433MOL0     O58356   2.585   7.437   0.752 -0.0750  0.6473 -0.0355
  433MOL0     C58357   2.525   7.311   0.799  0.3224 -0.6672 -0.2897
  433MOL0     C58358   2.379   7.326   0.760  0.0580  0.3226  0.2239
  433MOL0     C58359   2.298   7.407   0.861  0.3949 -0.2209  0.2179
  433MOL0     C58360   2.230   7.318   0.963 -0.0696 -0.5371 -0.8841
  433MOL0     C58361   2.110   7.389   1.035 -0.6864 -0.7327 -0.9781
  433MOL0     C58362   2.041   7.298   1.137  0.2666 -0.4268 -0.7251
  433MOL0     C58363   1.917   7.382   1.201 -0.3367  0.1741 -0.3535
  433MOL0     C58364   1.832   7.295   1.294  0.0805  0.1764  0.4794
  433MOL0    Cl58365   1.702   7.402   1.358  0.1086 -0.1048  0.6675
  433MOL0     C58366   2.785   7.556   0.750  0.8749  0.2717  0.0527
  433MOL0     C58367   2.925   7.555   0.753 -0.1581  0.3214 -0.3729
  433MOL0     O58368   3.130   7.562   1.004 -0.1028  0.1062 -0.0329
  433MOL0     C58369   3.413   7.511   0.785  0.0851  0.2925  0.1600
  433MOL0     C58370   3.552   7.543   0.773 -0.0756  1.2640 -0.1514
  433MOL0     N58371   4.383   7.721   1.082 -0.2828  0.1267  0.6179
  433MOL0     N58372   4.458   7.790   1.164 -0.6516 -0.6418 -0.0617
  433MOL0     C58373   5.262   8.622   0.779 -0.9282 -0.3974 -0.1096
  433MOL0     C58374   5.386   8.692   0.758  0.0165 -0.3943 -0.0198
  433MOL0     C58375   5.692   9.027   0.737  0.4383  0.0660 -0.0999
  433MOL0     C58376   5.749   9.054   0.866 -0.5134  1.1569  0.0283
  433MOL0     C58377   5.862   9.135   0.870 -0.4008  0.1087 -0.4843
  433MOL0     C58378   5.928   9.194   0.764 -0.0866  0.0206  1.6804
  433MOL0     O58379   6.036   9.276   0.778 -0.0769 -0.0749  0.0812
  433MOL0     C58380   6.116   9.276   0.898 -0.1509 -0.0756 -0.2620
  433MOL0     C58381   6.226   9.380   0.886 -0.9264 -0.1694 -0.5661
  433MOL0     C58382   6.343   9.343   0.807 -0.3128  0.5320  0.3167
  433MOL0     C58383   6.452   9.452   0.830  0.5357  0.6760  0.2135
  433MOL0     C58384   6.576   9.426   0.765 -0.0087 -0.2603 -0.8840
  433MOL0     C58385   6.677   9.422   0.699 -0.0596  0.2503 -0.4555
  433MOL0     C58386   5.870   9.178   0.635  0.6263  0.8184 -0.8541
  433MOL0     C58387   5.752   9.105   0.629  0.2665  1.1061  0.4246
  433MOL0     H58388   5.401   8.874   1.048  4.5494 -0.1946 -1.7432
  433MOL0     H58389   5.180   8.767   1.078  0.1991  1.4907 -0.1370
  433MOL0     H58390   5.017   8.583   1.118  0.5289 -1.1317 -1.2025
  433MOL0     H58391   4.943   8.708   1.007 -2.9716 -0.0150  0.9141
  433MOL0     H58392   4.781   8.564   1.068  1.0240  0.0296  0.2299
  433MOL0     H58393   4.816   8.516   0.897  0.5143 -2.5402 -0.2071
  433MOL0     H58394   4.930   8.330   0.948  0.4408 -0.6412  0.0354
  433MOL0     H58395   4.929   8.348   1.123 -0.6992 -0.4982  0.1188
  433MOL0     H58396   4.694   8.340   1.121 -0.6756  1.2057 -0.6795
  433MOL0     H58397   4.672   8.334   0.945 -0.3349 -0.6374  0.2487
  433MOL0     H58398   4.807   8.121   0.949  0.4530 -1.1267  1.1244
  433MOL0     H58399   4.820   8.137   1.120  1.5125  2.4937 -0.5337
  433MOL0     H58400   4.540   8.117   0.998 -0.2275 -1.0551  0.4716
  433MOL0     H58401   4.645   7.977   1.039 -2.8391 -0.7570 -2.0715
  433MOL0     H58402   4.675   8.023   1.256  1.1519  0.7707 -0.4473
  433MOL0     H58403   4.603   8.183   1.253 -0.4484  0.7101 -1.2993
  433MOL0     H58404   4.378   8.100   1.261 -1.3518 -1.6583 -3.1878
  433MOL0     H58405   4.464   7.973   1.360 -1.6688 -2.2179  0.3264
  433MOL0     H58406   4.275   8.025   1.032  0.5603  0.7619 -0.8585
  433MOL0     H58407   4.232   7.849   0.816  0.6328 -0.4922  0.9006
  433MOL0     H58408   4.235   7.684   0.857  1.7794  1.6345 -4.6071
  433MOL0     H58409   4.042   7.898   0.963  0.1224 -0.5868  0.4087
  433MOL0     H58410   4.057   7.743   1.056 -0.1621  3.1200  1.4595
  433MOL0     H58411   4.016   7.617   0.860  0.2784 -0.2120  0.4495
  433MOL0     H58412   3.942   7.756   0.780 -0.9209 -1.4746 -0.3728
  433MOL0     H58413   3.782   7.773   0.962  0.6600  0.0554  0.1072
  433MOL0     H58414   3.847   7.617   1.035  1.2047  0.9293  0.4223
  433MOL0     H58415   3.616   7.659   1.066  1.2852 -3.2880 -0.0810
  433MOL0     H58416   3.282   7.738   1.128 -1.0322  0.3627  0.7784
  433MOL0     H58417   3.343   7.579   1.198  1.1887  0.1800  0.7571
  433MOL0     H58418   3.443   7.739   1.182 -0.1689  1.0090 -1.6896
  433MOL0     H58419   2.992   7.250   0.860 -3.3853 -2.7147  0.3999
  433MOL0     H58420   2.745   7.245   0.863 -0.8338  0.8375 -2.3886
  433MOL0     H58421   2.564   7.224   0.745  0.7882  0.5313 -1.9921
  433MOL0     H58422   2.532   7.301   0.907 -0.5636 -4.0680 -0.4434
  433MOL0     H58423   2.374   7.362   0.657 -1.4851  1.6491  0.7179
  433MOL0     H58424   2.339   7.224   0.755  0.5175 -0.0294  2.5005
  433MOL0     H58425   2.227   7.468   0.805  0.6010 -1.9394 -2.0401
  433MOL0     H58426   2.357   7.482   0.914 -1.7951  1.8917 -0.1660
  433MOL0     H58427   2.170   7.239   0.916 -3.4806 -1.1920  3.8486
  433MOL0     H58428   2.299   7.266   1.030 -3.9587 -2.6224  1.8966
  433MOL0     H58429   2.034   7.424   0.966 -1.9768  0.2122  0.8242
  433MOL0     H58430   2.155   7.479   1.080  1.3477 -1.4441 -1.4786
  433MOL0     H58431   1.998   7.209   1.091 -1.7194 -0.7503  1.5514
  433MOL0     H58432   2.106   7.276   1.222 -2.4662  3.6049  2.8581
  433MOL0     H58433   1.857   7.420   1.118 -1.1069  0.6795  0.4255
  433MOL0     H58434   1.959   7.469   1.252 -0.8268  0.9455 -1.2310
  433MOL0     H58435   1.894   7.257   1.376  0.5841  0.5766  0.2880
  433MOL0     H58436   1.803   7.197   1.256  1.0691 -1.5670  3.8315
  433MOL0     H58437   2.736   7.646   0.715  0.9484 -0.2259 -1.3932
  433MOL0     H58438   2.963   7.652   0.724  0.2420  0.1002 -0.6034
  433MOL0     H58439   3.372   7.459   0.698 -0.8226  1.2358 -0.0012
  433MOL0     H58440   3.605   7.495   0.691  1.1457 -1.6213  2.1481
  433MOL0     H58441   5.237   8.550   0.701  3.3157 -1.3184 -0.8409
  433MOL0     H58442   5.453   8.685   0.673  2.9309 -0.3453  2.1301
  433MOL0     H58443   5.699   9.009   0.950 -0.9193 -0.0553 -0.8441
  433MOL0     H58444   5.901   9.147   0.971 -3.3998 -1.5863  1.0443
  433MOL0     H58445   6.050   9.290   0.984 -0.9738 -1.8893 -0.5293
  433MOL0     H58446   6.157   9.179   0.929 -1.3065  0.1383  2.2075
  433MOL0     H58447   6.263   9.404   0.986 -1.5881  3.7523 -1.1312
  433MOL0     H58448   6.190   9.477   0.853  0.2836  1.1097  1.6505
  433MOL0     H58449   6.315   9.357   0.703  2.0206 -1.1886 -0.6348
  433MOL0     H58450   6.374   9.239   0.823 -0.5278  0.9494  5.0727
  433MOL0     H58451   6.471   9.447   0.938 -1.5702 -0.7557  0.5789
  433MOL0     H58452   6.418   9.550   0.797 -1.9461 -0.0267  0.4432
  433MOL0     H58453   6.755   9.419   0.626 -0.9361 -1.5233 -1.3778
  433MOL0     H58454   5.907   9.229   0.547  0.8025  0.6622 -0.8697
  433MOL0     H58455   5.703   9.093   0.533  2.2454  1.1639 -0.6496
  434MOL0     O58456   7.253   8.693   2.909  0.4759 -0.1821  0.4320
  434MOL0     C58457   7.290   8.720   3.021 -0.0804 -0.3270  0.7332
  434MOL0     O58458   7.214   8.786   3.114  0.1179 -0.5766 -0.1677
  434MOL0     C58459   7.093   8.843   3.074 -0.3024 -0.1076 -0.2178
  434MOL0     C58460   6.972   8.791   3.114  0.3232 -0.3191 -0.2902
  434MOL0     C58461   6.861   8.867   3.073  0.3896 -0.1074  0.4937
  434MOL0     C58462   6.870   8.974   2.984  0.2757  0.1515  0.4546
  434MOL0     O58463   6.756   9.035   2.939 -1.1317 -0.3346  0.0833
  434MOL0     C58464   6.745   9.167   2.990 -0.2909  0.4603 -0.4776
  434MOL0     C58465   6.629   9.224   2.922 -0.6975  0.7790  0.4523
  434MOL0     C58466   6.496   9.158   2.945 -0.9659  0.0390  0.3698
  434MOL0     C58467   6.432   9.174   3.081 -0.0209  1.1615 -0.1376
  434MOL0     C58468   6.310   9.081   3.108 -0.6081 -0.1066 -0.3907
  434MOL0     C58469   6.238   9.119   3.237 -0.0074  0.4745 -0.3152
  434MOL0     C58470   6.107   9.040   3.262 -0.7158  0.9474 -0.5267
  434MOL0     C58471   6.126   8.901   3.317  0.3008 -0.5615 -0.3247
  434MOL0     N58472   6.005   8.827   3.338 -0.3460  0.1318 -0.0488
  434MOL0     C58473   5.878   8.860   3.298  0.3205 -0.9226  0.1365
  434MOL0     C58474   5.806   8.755   3.334  0.2807  0.4379 -0.6577
  434MOL0     C58475   5.658   8.758   3.329 -0.6237  0.8207 -0.3367
  434MOL0     C58476   5.610   8.863   3.429 -0.4501 -0.5786  0.5346
  434MOL0     C58477   5.481   8.819   3.494  0.0038 -0.7438 -0.4906
  434MOL0     C58478   5.358   8.787   3.403  0.2864  0.2444  0.3132
  434MOL0     O58479   5.318   8.901   3.330 -0.5936  0.3977  0.1043
  434MOL0     C58480   5.200   8.894   3.269 -0.0446 -0.2458  0.3601
  434MOL0     C58481   5.145   8.775   3.226 -0.6717 -0.3479  0.3344
  434MOL0     C58482   5.024   8.761   3.155 -1.1592 -0.4541  0.2986
  434MOL0     C58483   4.966   8.629   3.116  0.6621  0.9802  0.0536
  434MOL0     C58484   4.959   8.887   3.123 -0.3153  0.2784  0.5045
  434MOL0     C58485   4.830   8.891   3.061 -0.1987  0.8018 -0.3716
  434MOL0     O58486   4.738   8.811   3.115  0.3839 -0.3356  0.3506
  434MOL0     C58487   4.602   8.842   3.124  0.8286 -0.4095 -0.8084
  434MOL0     C58488   4.522   8.741   3.177 -0.1213 -0.6399 -0.1253
  434MOL0     C58489   4.385   8.778   3.212 -0.8720  0.8380  0.0099
  434MOL0     C58490   4.331   8.902   3.191  1.3405  0.3936 -0.2311
  434MOL0     O58491   4.195   8.932   3.217  0.0654  0.1432 -0.1062
  434MOL0     C58492   4.128   8.853   3.304  0.3110 -0.5182  0.2950
  434MOL0     C58493   4.012   8.932   3.368  0.1353 -0.4177  0.1697
  434MOL0     C58494   3.904   8.845   3.439  0.2389 -0.0566  0.5237
  434MOL0     C58495   3.779   8.922   3.467  0.5309 -0.9533 -0.4315
  434MOL0     C58496   3.651   8.835   3.484 -0.5214  0.7145 -0.0546
  434MOL0     C58497   3.531   8.907   3.444 -0.2416  0.5119 -0.0321
  434MOL0     C58498   3.483   9.035   3.518  0.6691  0.4211 -0.9496
  434MOL0     C58499   3.407   9.007   3.648 -0.7150 -0.5658 -0.0457
  434MOL0    Cl58500   3.403   9.160   3.730 -0.3010  0.1180 -0.2159
  434MOL0     C58501   4.413   8.998   3.138  0.2228 -0.1320  0.1466
  434MOL0     C58502   4.549   8.974   3.111  0.1535  0.0759  0.4400
  434MOL0     O58503   4.808   8.982   2.986 -0.3859 -0.2965  0.2334
  434MOL0     C58504   5.018   9.008   3.160 -0.7522  1.0432 -0.6700
  434MOL0     C58505   5.136   9.013   3.234 -0.3139  0.0105 -1.0702
  434MOL0     N58506   5.885   8.663   3.409  0.4553  0.0946  0.3090
  434MOL0     N58507   6.000   8.710   3.404  0.4693  0.3778  0.2909
  434MOL0     C58508   6.992   9.010   2.944  0.3186 -0.0705  0.3359
  434MOL0     C58509   7.110   8.952   2.984  0.3994 -0.6979  0.3922
  434MOL0     C58510   7.439   8.696   3.049  0.7108  0.4143 -0.3835
  434MOL0     C58511   7.533   8.669   2.952  0.0873 -0.4610  0.1723
  434MOL0     C58512   7.670   8.671   2.978  0.4479  0.8204 -0.1605
  434MOL0     C58513   7.714   8.692   3.108  0.3757  0.3659  0.0771
  434MOL0     O58514   7.842   8.678   3.142  0.5676 -0.5261 -0.6455
  434MOL0     C58515   7.935   8.644   3.040 -0.5514 -0.0243 -0.2592
  434MOL0     C58516   8.077   8.613   3.105 -0.0218  0.7804 -0.0627
  434MOL0     C58517   8.184   8.570   3.005 -0.0812  0.9695  0.7185
  434MOL0     C58518   8.201   8.658   2.875  0.6627  0.4262  0.1939
  434MOL0     C58519   8.092   8.646   2.777 -0.0784 -0.1332 -1.0312
  434MOL0     C58520   7.999   8.631   2.708 -0.2870  0.8906 -0.5772
  434MOL0     C58521   7.626   8.717   3.204  0.2343 -0.4430  0.7115
  434MOL0     C58522   7.484   8.717   3.176 -0.0747 -0.8909 -0.2724
  434MOL0     H58523   6.944   8.707   3.176  1.3410 -1.1151 -0.8940
  434MOL0     H58524   6.760   8.834   3.097  0.5085 -2.3267 -1.6043
  434MOL0     H58525   6.737   9.171   3.099  0.0302 -0.7217 -0.3933
  434MOL0     H58526   6.835   9.225   2.967 -1.5596  3.2089  1.0207
  434MOL0     H58527   6.620   9.327   2.958  1.2892  2.8136 -4.0850
  434MOL0     H58528   6.644   9.236   2.814 -0.7216 -0.3441  0.3073
  434MOL0     H58529   6.425   9.201   2.874 -0.9574  0.8190  0.8311
  434MOL0     H58530   6.496   9.049   2.930 -1.7966  0.1742 -0.6643
  434MOL0     H58531   6.502   9.151   3.162  1.0195  2.4796 -0.6202
  434MOL0     H58532   6.400   9.278   3.094 -0.6036  1.2325 -1.9225
  434MOL0     H58533   6.238   9.084   3.025 -2.6113 -4.5167  0.8612
  434MOL0     H58534   6.350   8.979   3.102 -1.4592 -0.6792  2.2744
  434MOL0     H58535   6.301   9.120   3.326  3.7951  1.3318 -2.7840
  434MOL0     H58536   6.203   9.222   3.230  0.3953  0.9031  2.6616
  434MOL0     H58537   6.047   9.092   3.337  0.8590  2.1773 -0.0889
  434MOL0     H58538   6.045   9.040   3.171 -3.0737  2.0944  0.9698
  434MOL0     H58539   6.169   8.916   3.416  0.4192 -0.0812 -0.4477
  434MOL0     H58540   6.205   8.843   3.267 -0.4903 -3.2169  1.2549
  434MOL0     H58541   5.844   8.960   3.273  0.8085  0.0580  3.1208
  434MOL0     H58542   5.625   8.783   3.228 -1.0498 -0.0979 -0.4398
  434MOL0     H58543   5.623   8.656   3.349  2.2072  0.0218  1.1328
  434MOL0     H58544   5.587   8.962   3.389 -0.3979  0.1286  2.1800
  434MOL0     H58545   5.683   8.882   3.508 -1.7419  1.4992  1.3295
  434MOL0     H58546   5.450   8.892   3.569  0.5460  0.8732 -1.7861
  434MOL0     H58547   5.511   8.725   3.542  2.9825  0.5580  0.4535
  434MOL0     H58548   5.282   8.753   3.474  0.8470  1.2657  1.4457
  434MOL0     H58549   5.387   8.706   3.336 -0.6883  1.4156 -1.6088
  434MOL0     H58550   5.198   8.683   3.249  1.8455  1.3979  2.0907
  434MOL0     H58551   4.892   8.640   3.036 -0.4531  1.0056  1.0487
  434MOL0     H58552   5.045   8.560   3.085  0.7604  2.0030 -2.1709
  434MOL0     H58553   4.912   8.581   3.199 -0.5979 -0.7299 -1.6628
  434MOL0     H58554   4.544   8.638   3.204 -2.5142 -2.0651 -3.0132
  434MOL0     H58555   4.328   8.692   3.247 -0.9137  1.5614  1.8056
  434MOL0     H58556   4.089   8.767   3.249 -0.1598 -1.2805  1.7730
  434MOL0     H58557   4.182   8.814   3.391 -1.1245  2.2059  2.5438
  434MOL0     H58558   4.051   9.005   3.440 -2.7939  0.9589  0.4949
  434MOL0     H58559   3.983   8.986   3.278  2.5839 -0.0061 -0.4454
  434MOL0     H58560   3.945   8.800   3.529 -1.2649 -2.8882 -0.1057
  434MOL0     H58561   3.879   8.762   3.372 -0.8064  1.4846 -1.0835
  434MOL0     H58562   3.796   8.988   3.553 -1.9598 -0.9163  0.1207
  434MOL0     H58563   3.753   8.971   3.373  0.8307 -0.7842 -0.4282
  434MOL0     H58564   3.639   8.810   3.590  1.3046 -3.4865 -0.6198
  434MOL0     H58565   3.659   8.753   3.412  0.6544  1.1820 -0.4880
  434MOL0     H58566   3.544   8.935   3.339 -1.7470  1.2278 -0.0565
  434MOL0     H58567   3.450   8.834   3.435 -0.0554  0.4622 -1.6698
  434MOL0     H58568   3.414   9.083   3.448 -1.5084  1.3473  1.6878
  434MOL0     H58569   3.570   9.100   3.531  0.5551  0.2316  1.1397
  434MOL0     H58570   3.458   8.939   3.717  1.9035  2.1643  0.9546
  434MOL0     H58571   3.310   8.961   3.630 -1.0806  0.1069  0.1686
  434MOL0     H58572   4.375   9.097   3.112  1.1494  0.1163 -0.2814
  434MOL0     H58573   4.616   9.052   3.077 -1.4042  0.5177 -1.9176
  434MOL0     H58574   4.964   9.099   3.137 -1.7168  0.8509  0.7259
  434MOL0     H58575   5.181   9.106   3.264 -0.1576 -1.1322  2.7022
  434MOL0     H58576   7.019   9.103   2.896  1.3918 -0.4709  0.1319
  434MOL0     H58577   7.201   8.995   2.944 -1.4694  0.7785 -2.6075
  434MOL0     H58578   7.508   8.653   2.847  3.9113 -0.6264 -0.8902
  434MOL0     H58579   7.730   8.639   2.894 -0.7192  1.3025 -1.2066
  434MOL0     H58580   7.907   8.552   2.988  0.3320 -0.6804  0.3804
  434MOL0     H58581   7.951   8.728   2.972 -1.5891  1.5003  1.2858
  434MOL0     H58582   8.075   8.539   3.185  1.1392 -1.5378 -2.0434
  434MOL0     H58583   8.110   8.707   3.151 -0.5251  0.1635  1.6253
  434MOL0     H58584   8.170   8.463   2.990 -4.0238  1.4070  0.3348
  434MOL0     H58585   8.275   8.570   3.066  0.2442  0.3872  0.2455
  434MOL0     H58586   8.294   8.633   2.823 -1.8216 -1.7015 -3.6829
  434MOL0     H58587   8.214   8.763   2.906 -0.1308  1.0793 -1.5717
  434MOL0     H58588   7.915   8.603   2.647  0.9107 -2.6917 -0.8381
  434MOL0     H58589   7.659   8.725   3.307  2.2955 -0.4442  0.0872
  434MOL0     H58590   7.412   8.746   3.252  1.4282  2.8396 -0.0385
  435MOL0     O58591   6.840   6.684   5.314  0.1028  0.0303 -0.0877
  435MOL0     C58592   6.829   6.614   5.418 -0.7122 -0.0391 -0.3354
  435MOL0     O58593   6.748   6.501   5.431 -0.0665 -0.4173  0.3697
  435MOL0     C58594   6.700   6.454   5.310 -0.5299 -0.0239  0.3452
  435MOL0     C58595   6.598   6.532   5.244  0.3157  0.1776 -0.6971
  435MOL0     C58596   6.539   6.485   5.132  0.9602 -0.3630 -0.2215
  435MOL0     C58597   6.583   6.369   5.065 -0.5688 -1.1355  0.3886
  435MOL0     O58598   6.543   6.312   4.953 -0.2227  0.4129  0.0230
  435MOL0     C58599   6.491   6.410   4.857 -0.2779 -0.3923  0.0642
  435MOL0     C58600   6.343   6.438   4.854  0.3489 -0.8342  0.0065
  435MOL0     C58601   6.261   6.313   4.826  0.6104 -0.0541  0.3438
  435MOL0     C58602   6.118   6.326   4.855 -0.3993 -0.3386 -0.0909
  435MOL0     C58603   6.034   6.223   4.776 -0.8322  0.1880 -1.2137
  435MOL0     C58604   5.887   6.199   4.825 -0.5193  0.0874 -0.5271
  435MOL0     C58605   5.894   6.151   4.974  0.3087 -0.8349  0.1888
  435MOL0     C58606   5.758   6.106   5.018  0.9815  0.0354 -0.4390
  435MOL0     N58607   5.727   5.964   4.989  0.2558  0.0816  0.0947
  435MOL0     C58608   5.673   5.929   4.864 -0.2280 -0.0983 -0.6131
  435MOL0     C58609   5.669   5.799   4.869 -0.2321  0.3361  0.2115
  435MOL0     C58610   5.595   5.707   4.774 -0.3420  0.5489 -0.2096
  435MOL0     C58611   5.444   5.757   4.781  0.7019  0.4471 -0.0301
  435MOL0     C58612   5.393   5.733   4.918 -0.4929 -0.3161  0.1996
  435MOL0     C58613   5.241   5.722   4.933  0.2785 -0.2911 -0.0709
  435MOL0     O58614   5.209   5.723   5.074  0.4713 -0.0721  0.8930
  435MOL0     C58615   5.080   5.707   5.103  0.0960 -0.4083  0.1374
  435MOL0     C58616   4.983   5.680   5.011 -0.2907 -0.1587 -0.3464
  435MOL0     C58617   4.846   5.668   5.049 -0.4895 -0.4597 -0.2202
  435MOL0     C58618   4.749   5.616   4.940  0.6105  0.1353  0.5396
  435MOL0     C58619   4.807   5.696   5.179  0.1056 -1.0935  0.3896
  435MOL0     C58620   4.658   5.687   5.218  0.0273  0.1746  0.7248
  435MOL0     O58621   4.567   5.742   5.138  0.3847  0.4302  0.3622
  435MOL0     C58622   4.430   5.724   5.144 -0.1836 -0.4022  0.0437
  435MOL0     C58623   4.362   5.664   5.040  0.3883 -0.6705  0.4477
  435MOL0     C58624   4.224   5.664   5.030  0.5926 -0.2440 -0.5936
  435MOL0     C58625   4.154   5.727   5.138  0.4424 -0.7652 -0.1505
  435MOL0     O58626   4.017   5.732   5.137  0.0800  0.1318 -0.0499
  435MOL0     C58627   3.975   5.802   5.023  0.7126 -0.3828  0.5218
  435MOL0     C58628   3.847   5.879   5.058  0.0784  0.0134 -0.0826
  435MOL0     C58629   3.727   5.792   5.102  0.5336 -0.8415 -0.4871
  435MOL0     C58630   3.599   5.881   5.115 -0.8631  0.0727 -0.6667
  435MOL0     C58631   3.477   5.813   5.175 -0.9272 -0.6516  0.0418
  435MOL0     C58632   3.363   5.918   5.179 -0.4387  0.0167  0.2248
  435MOL0     C58633   3.237   5.845   5.226 -0.1956 -0.0049  0.2034
  435MOL0     C58634   3.122   5.935   5.207  0.8607 -0.3224  0.7606
  435MOL0    Cl58635   2.960   5.856   5.219 -0.2230  0.0216  0.0449
  435MOL0     C58636   4.216   5.777   5.248  0.4371  0.6209 -0.2255
  435MOL0     C58637   4.357   5.779   5.247 -0.2095 -0.5524  0.4314
  435MOL0     O58638   4.636   5.647   5.333 -0.8533 -0.6526  0.3064
  435MOL0     C58639   4.908   5.717   5.274  0.1911  0.4308 -0.6817
  435MOL0     C58640   5.041   5.731   5.238 -0.0827 -0.6077  0.0979
  435MOL0     N58641   5.725   5.755   4.989 -0.0200  0.2237 -1.0554
  435MOL0     N58642   5.760   5.858   5.061 -0.0396  0.3492 -0.3731
  435MOL0     C58643   6.662   6.286   5.140  0.1562  0.1985  0.4435
  435MOL0     C58644   6.724   6.330   5.262 -0.8609  0.6729  0.5453
  435MOL0     C58645   6.900   6.651   5.546 -0.8188  0.4209  0.3882
  435MOL0     C58646   6.996   6.752   5.535  0.8250  0.3150 -0.0116
  435MOL0     C58647   7.070   6.793   5.648 -0.1728  0.6695 -0.2297
  435MOL0     C58648   7.036   6.742   5.778 -0.2892  0.3274 -0.3103
  435MOL0     O58649   7.108   6.766   5.885  0.3332 -0.4883 -0.8118
  435MOL0     C58650   7.120   6.914   5.909 -0.0711  0.1876 -0.4174
  435MOL0     C58651   6.991   7.002   5.905  0.1311 -0.0241  0.3413
  435MOL0     C58652   7.015   7.146   5.948  0.0920  0.5638  0.3646
  435MOL0     C58653   6.885   7.229   5.971 -0.7625  0.0022 -0.0283
  435MOL0     C58654   6.918   7.367   5.965 -0.2634 -0.2220  1.0236
  435MOL0     C58655   6.928   7.486   5.972  0.5378 -0.3207 -0.2012
  435MOL0     C58656   6.949   6.634   5.780  0.3726  0.1191  0.4131
  435MOL0     C58657   6.885   6.591   5.666 -0.3871  0.0980  0.0944
  435MOL0     H58658   6.556   6.623   5.287  0.1967  0.4610 -1.3924
  435MOL0     H58659   6.460   6.541   5.083  0.5343  0.7986  1.7007
  435MOL0     H58660   6.547   6.502   4.874 -0.9558 -0.2016  1.4227
  435MOL0     H58661   6.511   6.376   4.755 -1.2826  4.2987 -1.9336
  435MOL0     H58662   6.323   6.483   4.951 -0.0859  0.3218 -0.6002
  435MOL0     H58663   6.321   6.517   4.781  0.3860  0.5495  1.4303
  435MOL0     H58664   6.264   6.294   4.718 -1.3392 -0.1184  0.2571
  435MOL0     H58665   6.307   6.228   4.876  0.1478 -1.9225 -2.2103
  435MOL0     H58666   6.112   6.323   4.964  2.3152 -1.5366  0.1041
  435MOL0     H58667   6.095   6.428   4.825  1.5364  0.4163  0.8615
  435MOL0     H58668   6.037   6.252   4.670 -0.0788  3.2831 -0.4339
  435MOL0     H58669   6.089   6.129   4.771 -1.2610 -0.0539 -1.4751
  435MOL0     H58670   5.837   6.296   4.812 -0.8376 -0.0857 -0.5932
  435MOL0     H58671   5.847   6.121   4.760  0.5219 -0.5538 -0.4265
  435MOL0     H58672   5.968   6.072   4.991 -0.5791 -1.7497 -0.0359
  435MOL0     H58673   5.917   6.234   5.041  1.0605 -0.9170  0.0429
  435MOL0     H58674   5.679   6.173   4.986  1.3845  1.0811  0.6881
  435MOL0     H58675   5.751   6.117   5.127 -5.0710  4.3094 -0.7922
  435MOL0     H58676   5.642   6.004   4.792  0.2628  1.2688  0.5452
  435MOL0     H58677   5.637   5.712   4.673  3.3437  1.2891  1.1859
  435MOL0     H58678   5.609   5.603   4.805 -1.7532  0.5232  0.4195
  435MOL0     H58679   5.382   5.708   4.705  2.1854 -0.0188 -0.9912
  435MOL0     H58680   5.444   5.861   4.747 -0.9639 -0.5095 -3.4124
  435MOL0     H58681   5.419   5.816   4.985 -1.5940  0.7648 -0.6754
  435MOL0     H58682   5.435   5.641   4.960  1.5146 -0.9244 -2.8452
  435MOL0     H58683   5.217   5.627   4.885  0.5904  0.4295 -1.7386
  435MOL0     H58684   5.195   5.799   4.871 -0.7381 -0.9843 -0.1944
  435MOL0     H58685   5.007   5.659   4.907 -1.4121 -0.8698 -0.4843
  435MOL0     H58686   4.792   5.547   4.867  3.2348  1.7397  0.4419
  435MOL0     H58687   4.671   5.557   4.990  0.2575 -1.7398 -2.0330
  435MOL0     H58688   4.706   5.705   4.892  1.7109  0.9904  1.1015
  435MOL0     H58689   4.418   5.620   4.959  2.0277  0.0717  1.1192
  435MOL0     H58690   4.179   5.624   4.940  1.1566  1.0214 -1.4829
  435MOL0     H58691   4.057   5.867   4.989  1.4754 -1.1918  0.7827
  435MOL0     H58692   3.951   5.728   4.947  3.2671 -0.0725 -0.7128
  435MOL0     H58693   3.880   5.941   5.141  0.6867 -1.8751  1.1493
  435MOL0     H58694   3.813   5.942   4.976 -1.2999  0.8215  1.0623
  435MOL0     H58695   3.747   5.735   5.193  1.8225 -1.9941 -1.4441
  435MOL0     H58696   3.703   5.722   5.021 -1.6267  0.8903 -1.4523
  435MOL0     H58697   3.620   5.967   5.179  2.6070 -2.7399  2.3664
  435MOL0     H58698   3.571   5.928   5.020 -2.8436  1.8297  0.6955
  435MOL0     H58699   3.502   5.773   5.274  1.2120 -1.3756 -0.7302
  435MOL0     H58700   3.440   5.728   5.116 -2.4969 -1.1778  1.6872
  435MOL0     H58701   3.388   5.997   5.250 -0.0170  0.2063 -0.1342
  435MOL0     H58702   3.344   5.972   5.086 -0.6988 -2.7400 -1.4508
  435MOL0     H58703   3.251   5.812   5.330  1.2576  0.4162  0.1612
  435MOL0     H58704   3.221   5.756   5.164  0.8230 -0.6033  0.7770
  435MOL0     H58705   3.133   5.966   5.103  1.2250 -2.6094  0.0551
  435MOL0     H58706   3.128   6.026   5.267 -0.0443  0.5826 -0.4816
  435MOL0     H58707   4.157   5.815   5.331  0.3153 -0.3964  0.1822
  435MOL0     H58708   4.409   5.824   5.331  0.8577  0.5592 -0.7582
  435MOL0     H58709   4.887   5.736   5.378  2.8419 -0.7347  0.1739
  435MOL0     H58710   5.121   5.747   5.309  1.9325 -0.1367 -2.1577
  435MOL0     H58711   6.662   6.182   5.110  0.0652  0.2495  0.2667
  435MOL0     H58712   6.784   6.258   5.317 -0.1345 -1.0691 -2.2838
  435MOL0     H58713   7.029   6.797   5.442 -0.9040 -1.0132 -1.3426
  435MOL0     H58714   7.139   6.877   5.647 -0.1448  0.8307  3.1050
  435MOL0     H58715   7.173   6.920   6.004  1.5503 -2.3946 -1.0291
  435MOL0     H58716   7.189   6.952   5.833 -0.8818 -1.7829 -2.2416
  435MOL0     H58717   6.912   6.957   5.967 -0.1823  1.8186  1.3357
  435MOL0     H58718   6.947   7.006   5.805 -1.5242  2.3347  1.0854
  435MOL0     H58719   7.075   7.197   5.872  0.1013  1.1343  0.7502
  435MOL0     H58720   7.064   7.144   6.046  1.3620 -0.0489 -0.2677
  435MOL0     H58721   6.841   7.206   6.069 -0.7137 -2.9230 -0.5880
  435MOL0     H58722   6.812   7.195   5.898  0.3786  0.0335 -1.2149
  435MOL0     H58723   6.936   7.590   5.992  2.4862 -0.7365  1.4880
  435MOL0     H58724   6.938   6.567   5.865  0.9343 -0.8545 -0.2669
  435MOL0     H58725   6.826   6.500   5.668 -1.9998  0.9743 -2.4100
  436MOL0     O58726  10.951   9.160   3.955 -0.0973 -0.1619 -0.7040
  436MOL0     C58727  10.955   9.065   3.877  0.9518  0.0151 -0.1787
  436MOL0     O58728  10.846   9.000   3.828 -0.0638  0.0641 -0.1163
  436MOL0     C58729  10.725   9.062   3.844  0.2874 -0.3641 -0.0836
  436MOL0     C58730  10.649   9.036   3.962  0.6589 -0.4157 -0.1949
  436MOL0     C58731  10.528   9.094   3.978 -0.2127 -0.4290 -0.1915
  436MOL0     C58732  10.490   9.208   3.907  0.2692 -0.0365  0.9822
  436MOL0     O58733  10.365   9.264   3.930 -0.7170  0.1766 -0.3252
  436MOL0     C58734  10.324   9.374   3.861  0.4394 -0.6649 -1.1698
  436MOL0     C58735  10.207   9.438   3.933  0.4454  0.2386  0.9934
  436MOL0     C58736  10.149   9.560   3.861  0.0735  0.2877 -0.0600
  436MOL0     C58737  10.010   9.583   3.896 -0.1370  0.2756  0.0975
  436MOL0     C58738   9.972   9.720   3.836  0.0564  0.8204 -0.2960
  436MOL0     C58739   9.830   9.756   3.867  0.8165  0.3672  0.4299
  436MOL0     C58740   9.719   9.668   3.788 -0.4595 -0.2203 -0.5446
  436MOL0     C58741   9.582   9.700   3.848 -0.4178  0.1496 -0.4395
  436MOL0     N58742   9.486   9.618   3.775  0.3940 -0.1920  0.1706
  436MOL0     C58743   9.384   9.672   3.709  0.2575 -0.3080 -0.5081
  436MOL0     C58744   9.307   9.570   3.669 -0.0668  0.7992 -0.2923
  436MOL0     C58745   9.190   9.572   3.577  0.3233 -0.9062  0.7728
  436MOL0     C58746   9.134   9.714   3.542 -0.4145 -0.9871 -0.3321
  436MOL0     C58747   9.022   9.716   3.438 -0.2491 -0.1766 -0.7575
  436MOL0     C58748   8.883   9.719   3.488 -0.1335  0.5670 -0.4176
  436MOL0     O58749   8.863   9.605   3.575  0.1621  0.2344 -0.3422
  436MOL0     C58750   8.832   9.482   3.525 -0.9360  0.6735 -0.9166
  436MOL0     C58751   8.852   9.377   3.607 -0.6915 -0.1992 -0.4991
  436MOL0     C58752   8.830   9.241   3.568  0.2031  0.1108  0.3575
  436MOL0     C58753   8.848   9.132   3.675 -0.2498  0.1538 -0.5099
  436MOL0     C58754   8.788   9.219   3.432 -0.1002  0.5364  0.5204
  436MOL0     C58755   8.736   9.093   3.390 -0.3519  0.0019 -0.7586
  436MOL0     O58756   8.756   9.057   3.267  1.0583  0.3387 -0.2462
  436MOL0     C58757   8.711   8.940   3.211 -0.3510  0.3689 -0.2720
  436MOL0     C58758   8.790   8.888   3.107  0.0902  0.5158 -0.0454
  436MOL0     C58759   8.755   8.771   3.039  0.9237  0.3859  0.7872
  436MOL0     C58760   8.635   8.702   3.073  0.2376  0.7642 -1.5182
  436MOL0     O58761   8.582   8.591   3.009 -0.1812 -0.9797  0.3299
  436MOL0     C58762   8.685   8.497   2.981 -0.3786  0.2232 -0.4763
  436MOL0     C58763   8.756   8.431   3.103 -0.4661 -0.0504 -0.1631
  436MOL0     C58764   8.860   8.337   3.038 -0.2385 -0.0556  0.6055
  436MOL0     C58765   8.943   8.274   3.148  0.5639 -0.4152  0.1382
  436MOL0     C58766   9.030   8.156   3.091  0.0605  0.2084 -0.5801
  436MOL0     C58767   9.125   8.105   3.210 -0.2241 -0.0175 -0.7585
  436MOL0     C58768   9.218   7.989   3.165 -0.3019 -0.1196  0.1871
  436MOL0     C58769   9.356   8.061   3.146  0.6131  0.5075 -0.0523
  436MOL0    Cl58770   9.482   7.944   3.095 -0.4053 -0.3247 -0.5927
  436MOL0     C58771   8.560   8.751   3.179  0.9074  0.6610 -0.9760
  436MOL0     C58772   8.593   8.866   3.246 -0.3295  0.1302 -0.3860
  436MOL0     O58773   8.681   9.025   3.472  0.8483  0.5126 -0.2341
  436MOL0     C58774   8.761   9.334   3.349 -0.6068 -0.3246  0.4712
  436MOL0     C58775   8.780   9.459   3.400 -0.7768  0.5804  1.3497
  436MOL0     N58776   9.372   9.456   3.711  1.4294 -0.5085  0.6628
  436MOL0     N58777   9.483   9.488   3.776 -0.1816 -0.6710  0.7397
  436MOL0     C58778  10.578   9.260   3.815 -0.7333  0.0141 -0.1255
  436MOL0     C58779  10.697   9.187   3.778  0.7272  0.4331  0.0336
  436MOL0     C58780  11.087   9.007   3.865 -0.5573 -0.1843 -0.6823
  436MOL0     C58781  11.106   8.896   3.776  0.6083 -0.2013  0.6274
  436MOL0     C58782  11.225   8.840   3.761 -0.1026  0.0317 -0.2142
  436MOL0     C58783  11.342   8.900   3.823  0.1794  0.2350 -0.8857
  436MOL0     O58784  11.470   8.856   3.817  0.3029 -0.1048  0.4605
  436MOL0     C58785  11.497   8.732   3.746 -0.2290 -0.0790 -0.7239
  436MOL0     C58786  11.647   8.717   3.770 -0.2831 -1.0092  0.3847
  436MOL0     C58787  11.677   8.655   3.908  0.2269  0.3732  0.1575
  436MOL0     C58788  11.836   8.649   3.927 -0.3498 -0.4227 -0.4833
  436MOL0     C58789  11.866   8.611   4.074 -2.0551  0.6792 -0.6211
  436MOL0     C58790  11.902   8.566   4.182 -0.6155 -0.3506  0.6044
  436MOL0     C58791  11.327   9.010   3.903 -1.0430  0.2255 -0.1545
  436MOL0     C58792  11.198   9.067   3.918  0.1949 -0.1306 -0.7744
  436MOL0     H58793  10.686   8.965   4.035  1.9779  1.3699  0.9835
  436MOL0     H58794  10.470   9.063   4.064  2.1209  3.1113  2.9670
  436MOL0     H58795  10.396   9.456   3.862  0.7145 -0.9066  0.0084
  436MOL0     H58796  10.303   9.350   3.756  2.4356  2.4495 -2.4293
  436MOL0     H58797  10.130   9.361   3.931  0.8664 -0.2366 -2.3159
  436MOL0     H58798  10.240   9.470   4.032  1.7476  0.5235  0.4938
  436MOL0     H58799  10.218   9.643   3.877  0.6605 -0.0809 -0.6558
  436MOL0     H58800  10.152   9.544   3.753 -0.6273  1.0563 -0.2008
  436MOL0     H58801   9.948   9.503   3.855  0.2067  0.4638 -0.8053
  436MOL0     H58802  10.007   9.604   4.003 -0.7283  0.1555  0.1105
  436MOL0     H58803  10.038   9.795   3.879  0.0406  0.9692 -0.5274
  436MOL0     H58804   9.977   9.722   3.726  2.4402  0.3072 -0.2447
  436MOL0     H58805   9.812   9.750   3.975  0.0001  3.4346  0.5604
  436MOL0     H58806   9.818   9.859   3.833 -1.5783  0.2164  0.6135
  436MOL0     H58807   9.713   9.695   3.683  0.2037  0.8513 -0.3149
  436MOL0     H58808   9.742   9.561   3.786  1.5130  0.1700 -0.5564
  436MOL0     H58809   9.555   9.802   3.820 -1.6877  0.6262  2.2181
  436MOL0     H58810   9.581   9.680   3.956  1.5687 -0.3243 -0.4728
  436MOL0     H58811   9.361   9.777   3.699  0.6115 -0.2840 -1.1397
  436MOL0     H58812   9.220   9.520   3.486 -0.8354 -0.7555  0.2830
  436MOL0     H58813   9.111   9.512   3.624 -0.7457  0.1258  0.3400
  436MOL0     H58814   9.217   9.767   3.496 -0.3068 -0.9872 -0.1375
  436MOL0     H58815   9.109   9.762   3.637  4.3462 -0.3859  0.8464
  436MOL0     H58816   9.041   9.630   3.373  0.1878 -0.0424 -0.8120
  436MOL0     H58817   9.027   9.806   3.375 -2.6077 -0.6971 -1.7920
  436MOL0     H58818   8.811   9.725   3.406  0.1543  3.7651 -0.5479
  436MOL0     H58819   8.862   9.806   3.550 -0.3188 -1.0318  1.9014
  436MOL0     H58820   8.875   9.404   3.709 -3.4054  0.6472 -0.0312
  436MOL0     H58821   8.756   9.100   3.725  0.8580 -0.7248  1.0452
  436MOL0     H58822   8.894   9.039   3.641 -1.6001 -1.5922  2.1281
  436MOL0     H58823   8.915   9.169   3.753  0.2689 -5.4256  2.1723
  436MOL0     H58824   8.876   8.945   3.071  0.6365  1.4320  2.4748
  436MOL0     H58825   8.819   8.728   2.962 -0.4898  0.6991 -0.6196
  436MOL0     H58826   8.630   8.418   2.928  0.3710  0.7437 -2.0848
  436MOL0     H58827   8.767   8.531   2.917 -1.9818  0.1268 -2.7042
  436MOL0     H58828   8.805   8.507   3.164  2.9991 -0.8783 -1.7223
  436MOL0     H58829   8.688   8.369   3.163  1.1483  1.5188  3.6134
  436MOL0     H58830   8.919   8.399   2.971 -0.6669  0.2356  0.4952
  436MOL0     H58831   8.808   8.263   2.976  0.6396 -0.6995  0.6190
  436MOL0     H58832   9.003   8.350   3.199 -0.8467  1.1934 -0.4899
  436MOL0     H58833   8.877   8.235   3.226 -0.7619 -0.8875 -1.1679
  436MOL0     H58834   9.089   8.188   3.004 -0.2117 -1.4540 -1.4235
  436MOL0     H58835   8.959   8.082   3.053  1.2381 -0.4953 -1.5048
  436MOL0     H58836   9.182   8.192   3.246 -0.1554  0.2025 -1.3853
  436MOL0     H58837   9.065   8.078   3.297 -0.1678  0.9222 -0.4151
  436MOL0     H58838   9.186   7.931   3.078 -1.4482  0.4147  0.2324
  436MOL0     H58839   9.228   7.915   3.246 -2.1325 -0.7894 -0.1470
  436MOL0     H58840   9.398   8.108   3.235  0.2276  2.4213 -0.8224
  436MOL0     H58841   9.364   8.143   3.073  1.0117  1.0150  0.5481
  436MOL0     H58842   8.468   8.698   3.202  0.6991  0.7991 -1.4700
  436MOL0     H58843   8.522   8.912   3.314 -0.3047  0.6967 -0.7403
  436MOL0     H58844   8.705   9.315   3.257  0.1441 -0.0814 -0.0474
  436MOL0     H58845   8.742   9.533   3.331 -2.9289 -1.4374  0.1985
  436MOL0     H58846  10.560   9.352   3.760 -1.0459  0.3971  0.6023
  436MOL0     H58847  10.772   9.226   3.709  1.2698  3.6959  2.2476
  436MOL0     H58848  11.030   8.845   3.718  3.0064 -2.2286 -0.9162
  436MOL0     H58849  11.252   8.757   3.697  0.5221  1.4757 -1.9108
  436MOL0     H58850  11.437   8.644   3.770  0.7680 -0.1822  1.7268
  436MOL0     H58851  11.478   8.746   3.639  1.6193 -1.2776 -1.2614
  436MOL0     H58852  11.694   8.813   3.748 -4.0674  0.5737 -1.7085
  436MOL0     H58853  11.681   8.640   3.700 -1.2555 -1.0914 -0.0094
  436MOL0     H58854  11.628   8.557   3.913  0.3440  0.3384  0.7854
  436MOL0     H58855  11.623   8.714   3.983 -2.0095  1.4920 -2.2010
  436MOL0     H58856  11.876   8.747   3.901  1.2139 -1.5427 -2.6175
  436MOL0     H58857  11.896   8.575   3.873  0.6545 -1.9862  2.5082
  436MOL0     H58858  11.943   8.530   4.274 -1.2891 -1.4747  0.4898
  436MOL0     H58859  11.411   9.043   3.962 -1.8265  0.6693  0.7506
  436MOL0     H58860  11.197   9.149   3.989 -1.4214 -1.3667  0.6955
  437MOL0     O58861  10.468   4.822   8.461  0.6711  0.0734 -0.0836
  437MOL0     C58862  10.562   4.759   8.409 -0.1384 -0.4007  0.6983
  437MOL0     O58863  10.563   4.627   8.378 -0.0861 -0.1638 -0.2043
  437MOL0     C58864  10.445   4.559   8.388  0.5619 -0.3546 -0.0275
  437MOL0     C58865  10.405   4.500   8.264 -0.3487 -0.8776  0.1775
  437MOL0     C58866  10.283   4.435   8.247  0.0170 -0.4111 -0.6615
  437MOL0     C58867  10.206   4.417   8.363 -1.3676 -0.8022 -0.3315
  437MOL0     O58868  10.076   4.362   8.367  0.6191 -0.3640  0.7513
  437MOL0     C58869   9.995   4.344   8.248  0.6789 -0.1225  0.2503
  437MOL0     C58870   9.850   4.315   8.290 -0.5652  0.1252 -1.1215
  437MOL0     C58871   9.781   4.426   8.368 -0.5693 -0.5866 -0.8506
  437MOL0     C58872   9.627   4.397   8.388 -0.1779 -0.1495 -0.3266
  437MOL0     C58873   9.565   4.539   8.421 -0.3468  0.3086  0.4594
  437MOL0     C58874   9.416   4.524   8.425 -0.1297  0.3053  1.2253
  437MOL0     C58875   9.348   4.659   8.464 -0.0776 -0.4475 -0.5141
  437MOL0     C58876   9.208   4.637   8.491  0.6150  0.5121  0.3687
  437MOL0     N58877   9.149   4.744   8.586  0.1229 -0.5079 -0.1750
  437MOL0     C58878   9.079   4.858   8.548  0.6275  1.1552 -0.6673
  437MOL0     C58879   9.021   4.898   8.666 -0.4777  0.7914  0.0696
  437MOL0     C58880   8.930   5.010   8.694  0.4441  0.6990 -0.3126
  437MOL0     C58881   8.782   4.978   8.656  0.3113 -0.0961  0.1871
  437MOL0     C58882   8.693   5.082   8.737 -0.3558  0.0157  0.2107
  437MOL0     C58883   8.545   5.040   8.719 -0.7173  0.4002 -0.2075
  437MOL0     O58884   8.465   5.147   8.774  0.1217  0.0372 -0.5122
  437MOL0     C58885   8.327   5.132   8.777 -0.3240  0.7846  0.0945
  437MOL0     C58886   8.252   5.248   8.783  0.4038  0.2441 -0.5599
  437MOL0     C58887   8.116   5.244   8.786 -0.9212  0.2973  0.1399
  437MOL0     C58888   8.043   5.378   8.791  0.7903 -0.3366 -0.0716
  437MOL0     C58889   8.046   5.117   8.785 -0.6725  0.1370  0.1709
  437MOL0     C58890   7.899   5.102   8.804 -0.2874 -0.3240 -0.2035
  437MOL0     O58891   7.845   5.178   8.903  1.3413 -0.5808  0.5078
  437MOL0     C58892   7.705   5.187   8.908 -0.3718  0.9739  0.2336
  437MOL0     C58893   7.641   5.144   9.017  0.5305 -0.2937  0.3252
  437MOL0     C58894   7.498   5.155   9.027 -0.0877 -0.1448  0.2299
  437MOL0     C58895   7.432   5.235   8.932 -0.5034 -0.1497  0.7715
  437MOL0     O58896   7.295   5.239   8.926 -0.7622 -0.5434 -0.3472
  437MOL0     C58897   7.233   5.157   8.838  0.1985 -0.1777 -0.2110
  437MOL0     C58898   7.077   5.168   8.867 -0.5357 -1.0031  0.0003
  437MOL0     C58899   7.012   5.069   8.760 -0.1419 -0.1202  0.4694
  437MOL0     C58900   6.861   5.077   8.751  0.4323  0.1067 -0.4397
  437MOL0     C58901   6.791   5.029   8.876 -0.5325 -0.3400 -0.3959
  437MOL0     C58902   6.717   4.896   8.854 -1.0733 -0.8219  0.0910
  437MOL0     C58903   6.591   4.916   8.778 -0.1590 -0.6890 -0.0056
  437MOL0     C58904   6.506   4.792   8.774 -0.3692 -0.0072  0.3294
  437MOL0    Cl58905   6.351   4.831   8.705 -0.5375 -0.6906  0.3722
  437MOL0     C58906   7.499   5.292   8.828  0.4617 -1.1717 -0.2685
  437MOL0     C58907   7.632   5.264   8.822  0.8809 -0.0387  0.2033
  437MOL0     O58908   7.842   5.022   8.736  0.3485  0.1921  0.5594
  437MOL0     C58909   8.121   5.003   8.761  0.1839 -0.6027  0.0435
  437MOL0     C58910   8.261   5.009   8.756 -0.0375  0.7080 -0.7568
  437MOL0     N58911   9.053   4.815   8.774 -0.0915 -0.1363  0.5430
  437MOL0     N58912   9.142   4.728   8.718  0.0394  0.7244 -0.7447
  437MOL0     C58913  10.250   4.465   8.490  0.6229 -0.7900  0.0558
  437MOL0     C58914  10.372   4.535   8.502 -1.1350  0.4019  0.1926
  437MOL0     C58915  10.682   4.834   8.389 -0.2626  0.2833 -0.1284
  437MOL0     C58916  10.794   4.768   8.336 -0.4853 -0.4144  0.5462
  437MOL0     C58917  10.908   4.848   8.308  0.8332 -0.4736  0.3243
  437MOL0     C58918  10.921   4.979   8.342  0.7743  0.0798  0.0797
  437MOL0     O58919  11.026   5.056   8.312 -0.0826  0.5371 -0.1549
  437MOL0     C58920  11.153   4.994   8.283 -0.1743 -0.5729 -0.4099
  437MOL0     C58921  11.285   5.079   8.303 -0.5970 -1.1562  0.7564
  437MOL0     C58922  11.399   4.991   8.346 -0.1380  0.0391  0.1077
  437MOL0     C58923  11.534   5.064   8.351  0.7618  0.2613  0.2411
  437MOL0     C58924  11.592   5.070   8.490 -0.7410 -0.2151  0.3620
  437MOL0     C58925  11.661   5.054   8.585 -0.4326 -0.3286  0.5446
  437MOL0     C58926  10.808   5.043   8.396  0.3847 -0.4143  0.4266
  437MOL0     C58927  10.689   4.971   8.421 -0.6254 -0.2302 -0.4954
  437MOL0     H58928  10.462   4.521   8.174 -2.8496  2.0543 -0.8929
  437MOL0     H58929  10.260   4.405   8.145  0.1998  1.0330 -1.1570
  437MOL0     H58930   9.996   4.434   8.187  0.9107  0.3059  0.8736
  437MOL0     H58931  10.018   4.254   8.190  1.0026  1.0390 -1.4635
  437MOL0     H58932   9.801   4.289   8.196 -1.1875 -0.5855 -0.6134
  437MOL0     H58933   9.842   4.229   8.357  0.9213  1.9420  1.5799
  437MOL0     H58934   9.838   4.439   8.461  0.1490  0.0589 -1.3746
  437MOL0     H58935   9.787   4.517   8.308  0.1976 -0.4887 -0.6348
  437MOL0     H58936   9.583   4.352   8.299  0.8821  0.1968 -1.0521
  437MOL0     H58937   9.614   4.326   8.470 -0.3642  1.2778  0.9218
  437MOL0     H58938   9.615   4.583   8.509  0.7549 -1.2333  0.6443
  437MOL0     H58939   9.596   4.612   8.345  1.1541  1.7234  2.3186
  437MOL0     H58940   9.396   4.494   8.322 -0.2472  0.2905  1.2518
  437MOL0     H58941   9.377   4.442   8.486 -0.2787 -1.1938 -0.7911
  437MOL0     H58942   9.385   4.686   8.563 -1.3740 -2.5155  0.5990
  437MOL0     H58943   9.368   4.738   8.391  0.7429 -0.2493 -0.0833
  437MOL0     H58944   9.185   4.539   8.531 -1.4780  0.6246 -0.4188
  437MOL0     H58945   9.159   4.637   8.393  1.9400  1.0992 -0.3234
  437MOL0     H58946   9.075   4.912   8.454  1.4544  0.8846 -0.8684
  437MOL0     H58947   8.930   5.039   8.800 -0.9713 -0.7856  0.1332
  437MOL0     H58948   8.962   5.098   8.637 -0.6831  0.9394 -0.6036
  437MOL0     H58949   8.768   4.876   8.692 -0.3134  1.4117  4.8748
  437MOL0     H58950   8.765   4.987   8.548 -1.6213 -2.0702  0.2627
  437MOL0     H58951   8.710   5.186   8.707  0.2321 -0.2271 -0.3131
  437MOL0     H58952   8.719   5.080   8.843  1.6731  2.0917 -0.1533
  437MOL0     H58953   8.539   4.936   8.750 -0.6743  0.0823 -1.2289
  437MOL0     H58954   8.531   5.041   8.611  0.4499  0.7168 -0.3761
  437MOL0     H58955   8.300   5.344   8.801  0.2684  0.2242 -0.0832
  437MOL0     H58956   8.113   5.461   8.804 -0.1433  0.4681 -0.0642
  437MOL0     H58957   7.975   5.401   8.709  1.1399  2.6393  0.3796
  437MOL0     H58958   7.985   5.373   8.884 -1.6021 -2.9872 -1.5413
  437MOL0     H58959   7.690   5.087   9.095 -3.5350 -2.5341  1.4889
  437MOL0     H58960   7.444   5.105   9.107 -0.0694  1.0183  0.9897
  437MOL0     H58961   7.245   5.178   8.731 -3.9821  0.7297 -0.6645
  437MOL0     H58962   7.265   5.055   8.864  0.6423 -0.1147 -0.5069
  437MOL0     H58963   7.049   5.133   8.967 -0.8907  0.9794  0.6349
  437MOL0     H58964   7.057   5.273   8.846 -1.6187 -0.5928  2.7271
  437MOL0     H58965   7.042   4.967   8.787 -0.9346 -0.2625  0.8508
  437MOL0     H58966   7.044   5.090   8.658 -1.8713 -0.1447 -0.1209
  437MOL0     H58967   6.832   5.181   8.738 -2.9524 -0.7835 -0.8514
  437MOL0     H58968   6.832   5.019   8.663 -2.2320 -1.0295  1.0685
  437MOL0     H58969   6.729   5.104   8.925 -0.0971 -1.1137  1.4238
  437MOL0     H58970   6.867   4.993   8.946  1.4587  0.0688 -2.2280
  437MOL0     H58971   6.783   4.822   8.809  2.7149  1.5647  1.2638
  437MOL0     H58972   6.689   4.859   8.953 -1.0322  1.0413  0.8507
  437MOL0     H58973   6.612   4.953   8.678 -1.5162 -0.7829 -0.3431
  437MOL0     H58974   6.528   4.996   8.818 -1.7443 -1.6838 -0.4185
  437MOL0     H58975   6.499   4.746   8.873 -1.0253  0.3463  0.4523
  437MOL0     H58976   6.543   4.720   8.702 -2.4210  2.2996 -3.3555
  437MOL0     H58977   7.450   5.353   8.753  0.1122 -0.6861  0.3348
  437MOL0     H58978   7.701   5.302   8.747  2.1573 -2.3944  0.0817
  437MOL0     H58979   8.071   4.907   8.751 -1.7037  0.2129  1.1014
  437MOL0     H58980   8.324   4.921   8.753  2.4010  2.2613  1.2243
  437MOL0     H58981  10.183   4.455   8.575 -2.8281  1.2693 -2.1695
  437MOL0     H58982  10.402   4.580   8.596  2.0291  0.9839 -0.9801
  437MOL0     H58983  10.794   4.665   8.299 -1.5496  0.8945 -3.7037
  437MOL0     H58984  10.997   4.801   8.268  0.4901 -1.7199  0.9856
  437MOL0     H58985  11.160   4.910   8.353 -3.8021 -0.7128 -0.0363
  437MOL0     H58986  11.148   4.961   8.179  0.7555  0.6211 -0.8589
  437MOL0     H58987  11.269   5.152   8.383 -0.0899  0.0473 -0.2040
  437MOL0     H58988  11.309   5.139   8.215 -3.0405 -0.9807  0.1279
  437MOL0     H58989  11.408   4.907   8.277 -1.3413  0.6591 -0.8370
  437MOL0     H58990  11.377   4.944   8.443  2.5275 -2.4271 -0.3532
  437MOL0     H58991  11.526   5.164   8.306 -0.9987 -0.0346 -0.1794
  437MOL0     H58992  11.604   5.011   8.286  0.3862  0.0689 -0.0090
  437MOL0     H58993  11.712   5.048   8.679  3.4110  0.7579 -1.3057
  437MOL0     H58994  10.820   5.148   8.421  0.7651 -0.8931  2.4516
  437MOL0     H58995  10.607   5.029   8.461 -1.2608 -0.5183 -1.3402
  438MOL0     O58996   4.061   0.892   7.300  0.4423 -0.3675 -0.5470
  438MOL0     C58997   3.979   0.931   7.382 -0.4615 -0.6855 -0.5510
  438MOL0     O58998   4.006   1.034   7.474 -0.4035 -0.3479  0.0120
  438MOL0     C58999   4.125   1.095   7.469  0.1682  0.4221 -0.8954
  438MOL0     C59000   4.202   1.092   7.583  1.0720 -0.7446  0.4032
  438MOL0     C59001   4.325   1.163   7.574  0.2566  0.4751  0.0835
  438MOL0     C59002   4.363   1.235   7.460  0.0876  0.0301  0.1622
  438MOL0     O59003   4.483   1.294   7.470 -0.2423 -0.0204 -0.0851
  438MOL0     C59004   4.504   1.418   7.392 -0.6656  0.6158 -0.0818
  438MOL0     C59005   4.604   1.511   7.460 -0.1932  0.1014  0.6991
  438MOL0     C59006   4.542   1.603   7.577 -0.2415  0.4662 -0.1716
  438MOL0     C59007   4.502   1.510   7.691 -0.0379  0.2695  0.4154
  438MOL0     C59008   4.453   1.588   7.808 -0.5694  0.4389  0.2322
  438MOL0     C59009   4.317   1.663   7.796  0.2453  0.0269  0.0956
  438MOL0     C59010   4.205   1.551   7.809  0.0075 -0.0314  0.4329
  438MOL0     C59011   4.074   1.632   7.798 -0.8416 -0.2486 -0.1179
  438MOL0     N59012   3.961   1.540   7.823  0.6585 -0.1257  0.2614
  438MOL0     C59013   3.928   1.433   7.743  0.4863  0.0732  0.5570
  438MOL0     C59014   3.825   1.375   7.809  0.1591  0.2486  0.6744
  438MOL0     C59015   3.771   1.242   7.760 -0.5213 -0.6356 -0.3643
  438MOL0     C59016   3.651   1.197   7.837  0.0402  0.2885  0.6668
  438MOL0     C59017   3.616   1.050   7.809  0.2193 -0.9038  0.2940
  438MOL0     C59018   3.526   1.031   7.683  0.2943  0.5409  0.5407
  438MOL0     O59019   3.406   1.117   7.697  0.8923 -0.6777  0.0173
  438MOL0     C59020   3.301   1.082   7.615 -0.3118  0.2141 -0.0252
  438MOL0     C59021   3.291   1.012   7.494 -0.2530  0.1002  0.3187
  438MOL0     C59022   3.169   0.991   7.427  0.4333  0.3401 -0.6487
  438MOL0     C59023   3.186   0.903   7.307 -0.0879  0.2513 -0.5847
  438MOL0     C59024   3.048   1.050   7.481 -0.9352  0.0171  0.6951
  438MOL0     C59025   2.922   1.054   7.416 -0.3863  0.3560  0.3626
  438MOL0     O59026   2.826   1.135   7.472  0.3280 -0.2633  0.3813
  438MOL0     C59027   2.694   1.118   7.438  0.6598 -0.7616  0.0337
  438MOL0     C59028   2.631   0.992   7.404 -0.8648  0.7749  0.1622
  438MOL0     C59029   2.493   0.987   7.381  0.7131  0.6172  1.0573
  438MOL0     C59030   2.416   1.108   7.391  0.6674  0.0482  0.9875
  438MOL0     O59031   2.286   1.107   7.368  0.2475 -0.5213  0.4978
  438MOL0     C59032   2.207   1.014   7.447  0.1891  0.7822 -0.4022
  438MOL0     C59033   2.061   1.032   7.438  0.3387  0.7604 -0.3675
  438MOL0     C59034   2.017   1.028   7.296  0.6082  0.1760  1.0491
  438MOL0     C59035   2.029   0.885   7.232 -0.5941  0.0874  0.1508
  438MOL0     C59036   1.954   0.891   7.095  0.0122  0.0002  0.5540
  438MOL0     C59037   1.947   0.759   7.025  0.4145 -0.5564 -0.5439
  438MOL0     C59038   1.885   0.753   6.889 -0.5264  0.7503  0.1833
  438MOL0     C59039   1.743   0.803   6.876  0.1770 -0.5177 -0.5946
  438MOL0    Cl59040   1.639   0.681   6.921 -0.1679  0.4074  0.1824
  438MOL0     C59041   2.479   1.230   7.429  0.4198 -1.0571  0.9851
  438MOL0     C59042   2.616   1.234   7.449 -0.6564 -0.3929 -0.4271
  438MOL0     O59043   2.900   0.985   7.319 -0.1929  0.5532 -0.5429
  438MOL0     C59044   3.064   1.136   7.591 -0.0736 -0.1043  0.2659
  438MOL0     C59045   3.187   1.148   7.661  0.1539 -0.0527  0.3643
  438MOL0     N59046   3.793   1.446   7.928 -0.2200  0.1069 -0.0767
  438MOL0     N59047   3.883   1.535   7.936 -0.4890  0.8918  0.2934
  438MOL0     C59048   4.281   1.236   7.346  0.5390  0.4346  0.1776
  438MOL0     C59049   4.160   1.156   7.347  0.3758 -0.3775 -0.3632
  438MOL0     C59050   3.859   0.850   7.390  0.5857 -0.1694  0.3127
  438MOL0     C59051   3.816   0.774   7.280 -0.0526  0.1684  0.1942
  438MOL0     C59052   3.700   0.689   7.286  0.3365 -0.1988  0.2172
  438MOL0     C59053   3.627   0.689   7.407  0.6546  0.3017 -0.1271
  438MOL0     O59054   3.501   0.636   7.392 -0.5633 -0.5563  0.0722
  438MOL0     C59055   3.407   0.630   7.501  0.0581 -0.7214  0.8676
  438MOL0     C59056   3.419   0.495   7.563 -0.6591 -1.1387 -0.3580
  438MOL0     C59057   3.373   0.367   7.488 -0.3664  0.2791  0.3635
  438MOL0     C59058   3.228   0.325   7.505 -0.8576 -0.4180 -0.2133
  438MOL0     C59059   3.204   0.220   7.397 -0.2248 -0.3097  0.2856
  438MOL0     C59060   3.174   0.156   7.299 -0.4750 -0.4445  0.6268
  438MOL0     C59061   3.676   0.757   7.521 -0.0961 -0.2357  0.0458
  438MOL0     C59062   3.789   0.847   7.505  0.1737 -0.6039  0.3166
  438MOL0     H59063   4.170   1.043   7.674  0.1571 -0.7128  0.1096
  438MOL0     H59064   4.388   1.149   7.661  1.0089 -0.6095 -0.6130
  438MOL0     H59065   4.533   1.396   7.289 -1.9626  2.3770 -0.8711
  438MOL0     H59066   4.418   1.485   7.387  0.2937  1.7988 -2.2296
  438MOL0     H59067   4.683   1.448   7.503  1.6163  1.6547 -0.1846
  438MOL0     H59068   4.643   1.579   7.384 -2.2317 -0.6806 -1.1671
  438MOL0     H59069   4.611   1.675   7.622 -0.2767  1.0452 -1.0315
  438MOL0     H59070   4.458   1.661   7.537 -2.3306 -1.9194  0.5297
  438MOL0     H59071   4.431   1.432   7.661  1.2548 -1.5518  1.8446
  438MOL0     H59072   4.589   1.454   7.727 -2.2784 -2.3494  2.2061
  438MOL0     H59073   4.449   1.526   7.897 -0.1057  0.0207 -0.0349
  438MOL0     H59074   4.529   1.658   7.845 -0.1483 -0.2253  0.6428
  438MOL0     H59075   4.299   1.746   7.864  2.2535 -1.4121  2.5573
  438MOL0     H59076   4.310   1.706   7.696 -0.3913 -2.3311 -0.9416
  438MOL0     H59077   4.209   1.482   7.724  1.2407  1.3488 -0.6835
  438MOL0     H59078   4.217   1.509   7.910 -0.0685 -0.3467  0.3128
  438MOL0     H59079   4.073   1.669   7.695 -0.9388 -1.5625 -0.6066
  438MOL0     H59080   4.080   1.711   7.874  0.9623  1.0427 -1.5121
  438MOL0     H59081   3.970   1.396   7.650  0.0652  1.1940 -0.0911
  438MOL0     H59082   3.750   1.239   7.653  0.5357 -0.9524 -0.5732
  438MOL0     H59083   3.853   1.170   7.771  0.6434  0.1646 -2.9789
  438MOL0     H59084   3.567   1.259   7.807 -1.0629  0.4838  3.7918
  438MOL0     H59085   3.663   1.208   7.945  1.4662  1.0584  0.4556
  438MOL0     H59086   3.557   1.014   7.893 -1.4455  2.0962  0.5355
  438MOL0     H59087   3.708   0.992   7.813  2.6981  2.7012  0.3124
  438MOL0     H59088   3.490   0.928   7.683  0.7415  0.3844  0.8541
  438MOL0     H59089   3.581   1.065   7.594 -3.3266 -0.8157 -2.4991
  438MOL0     H59090   3.378   0.952   7.470 -0.2657 -0.9671  2.5986
  438MOL0     H59091   3.287   0.870   7.279 -1.3566 -2.5093 -2.2913
  438MOL0     H59092   3.144   0.803   7.321  2.2270 -1.0044 -1.9145
  438MOL0     H59093   3.147   0.949   7.216  1.6796  3.7373  0.2644
  438MOL0     H59094   2.688   0.900   7.410  0.4229  1.5090 -0.4995
  438MOL0     H59095   2.445   0.893   7.354 -0.9439  1.5342  0.6633
  438MOL0     H59096   2.230   0.913   7.414 -1.9575 -0.4128  1.4366
  438MOL0     H59097   2.246   1.015   7.550  1.4600 -0.0506 -0.8555
  438MOL0     H59098   2.001   0.964   7.499  2.6873 -1.0077  0.0850
  438MOL0     H59099   2.050   1.135   7.476  0.0844  0.5470  0.1482
  438MOL0     H59100   2.056   1.099   7.223 -1.5425 -1.5088 -1.9811
  438MOL0     H59101   1.911   1.052   7.303  0.9680  2.7151 -0.8015
  438MOL0     H59102   2.133   0.862   7.207 -1.1956 -0.5953 -1.8844
  438MOL0     H59103   1.975   0.813   7.294 -2.0420  0.4033 -0.7015
  438MOL0     H59104   2.002   0.958   7.023  0.2949 -1.0554 -0.2655
  438MOL0     H59105   1.854   0.935   7.104 -0.1834 -0.0115 -1.2152
  438MOL0     H59106   2.050   0.724   7.010  0.7422  0.9856 -2.3278
  438MOL0     H59107   1.890   0.691   7.088 -0.7879  1.7128  0.9406
  438MOL0     H59108   1.883   0.648   6.859 -2.2992  0.2876  1.7365
  438MOL0     H59109   1.953   0.807   6.823 -1.9038  2.3214 -0.0226
  438MOL0     H59110   1.726   0.842   6.775 -0.2818  1.7485  0.2800
  438MOL0     H59111   1.725   0.899   6.926 -1.3460  0.1314 -2.2593
  438MOL0     H59112   2.424   1.323   7.438 -0.3278 -1.0087 -2.5868
  438MOL0     H59113   2.661   1.329   7.478  1.2688 -1.5423  0.5352
  438MOL0     H59114   2.977   1.184   7.633 -1.1161 -1.8638  0.2219
  438MOL0     H59115   3.189   1.202   7.755 -1.3557 -0.8277  0.8852
  438MOL0     H59116   4.301   1.267   7.244 -1.8620  1.2297 -0.1287
  438MOL0     H59117   4.091   1.137   7.266 -1.8435 -1.1725  1.5951
  438MOL0     H59118   3.857   0.784   7.180  1.5265  1.3372  0.9043
  438MOL0     H59119   3.647   0.642   7.204 -0.3657 -0.2701  0.6990
  438MOL0     H59120   3.423   0.717   7.566 -1.2101  0.0364  0.2073
  438MOL0     H59121   3.308   0.645   7.457 -0.1737 -0.8194  1.3462
  438MOL0     H59122   3.359   0.506   7.654  3.2238  4.7552  2.1196
  438MOL0     H59123   3.519   0.479   7.604 -2.1015 -0.8477  3.6929
  438MOL0     H59124   3.426   0.280   7.529 -0.6384  0.5000  1.2013
  438MOL0     H59125   3.396   0.382   7.382 -1.9426  0.5314  0.0402
  438MOL0     H59126   3.169   0.416   7.492  1.9354  1.2640 -1.8756
  438MOL0     H59127   3.216   0.281   7.605 -1.9497 -0.0140 -0.1487
  438MOL0     H59128   3.152   0.119   7.201 -2.8243 -0.0614  0.9562
  438MOL0     H59129   3.615   0.767   7.610 -1.6969 -0.1013 -1.0423
  438MOL0     H59130   3.826   0.909   7.585 -1.2733  3.1724 -1.6577
  439MOL0     O59131   6.319   5.684   5.540  0.2851 -0.1947 -0.4460
  439MOL0     C59132   6.314   5.762   5.632 -0.5103 -0.2048 -0.1086
  439MOL0     O59133   6.234   5.760   5.735  0.7335 -0.8086  0.4004
  439MOL0     C59134   6.141   5.655   5.758 -0.3900  0.2988 -0.4606
  439MOL0     C59135   6.168   5.517   5.737  0.2574 -0.2907 -0.7001
  439MOL0     C59136   6.066   5.421   5.753  0.1003 -0.0534 -0.4531
  439MOL0     C59137   5.938   5.470   5.791 -0.3997  0.8589 -1.1023
  439MOL0     O59138   5.839   5.386   5.815  0.6609 -0.0921  0.1796
  439MOL0     C59139   5.754   5.414   5.926 -0.0050  0.2117 -0.5100
  439MOL0     C59140   5.663   5.294   5.962 -0.4519 -0.1072  0.5777
  439MOL0     C59141   5.555   5.297   5.852 -1.1509  0.7867  0.5146
  439MOL0     C59142   5.490   5.155   5.855 -0.0811 -0.3224 -0.2954
  439MOL0     C59143   5.363   5.143   5.931 -0.2748  0.2930  0.4716
  439MOL0     C59144   5.309   4.998   5.906 -0.5586 -0.8894 -0.1968
  439MOL0     C59145   5.189   4.962   6.000 -0.5277  0.4946 -0.3426
  439MOL0     C59146   5.124   4.832   5.970 -0.5361 -0.0881  0.6568
  439MOL0     N59147   5.026   4.782   6.066  0.0672  0.8488  0.4169
  439MOL0     C59148   4.906   4.841   6.100  0.3937  0.2624 -0.7298
  439MOL0     C59149   4.856   4.758   6.200  0.7061  0.4121 -0.4511
  439MOL0     C59150   4.735   4.778   6.290 -0.8050  0.0019 -0.6100
  439MOL0     C59151   4.611   4.697   6.244 -0.3690 -0.6510  0.1812
  439MOL0     C59152   4.492   4.695   6.335  0.3163 -0.2228  0.2292
  439MOL0     C59153   4.365   4.637   6.271  0.3221  0.6314 -0.0128
  439MOL0     O59154   4.366   4.493   6.282 -0.7158 -1.0181  0.2573
  439MOL0     C59155   4.251   4.425   6.240  0.9811 -0.1266  0.0901
  439MOL0     C59156   4.115   4.472   6.249  0.5952 -0.9330 -0.3212
  439MOL0     C59157   4.005   4.391   6.210 -0.6521 -0.5470  0.0987
  439MOL0     C59158   3.863   4.454   6.214 -0.6057  0.1362  0.0720
  439MOL0     C59159   4.029   4.265   6.158  0.1562  0.0657 -0.2785
  439MOL0     C59160   3.923   4.169   6.113  0.5811 -0.0053 -0.5527
  439MOL0     O59161   3.965   4.056   6.049 -0.3569 -0.4273  0.1422
  439MOL0     C59162   3.881   3.951   6.035 -0.5153 -1.0381 -0.0365
  439MOL0     C59163   3.778   3.914   6.113 -1.1825  0.3772 -0.0864
  439MOL0     C59164   3.716   3.790   6.097 -1.1142 -0.1108  0.2419
  439MOL0     C59165   3.746   3.708   5.993 -0.2067  0.2090 -0.0357
  439MOL0     O59166   3.675   3.589   5.985  0.1543 -0.4579  0.4877
  439MOL0     C59167   3.600   3.565   5.868 -0.5869 -0.2767 -0.2214
  439MOL0     C59168   3.493   3.674   5.840  0.4988 -0.5815 -0.9111
  439MOL0     C59169   3.403   3.702   5.964  0.4243 -0.7131  0.4406
  439MOL0     C59170   3.270   3.777   5.922 -0.6384 -0.7678  0.1218
  439MOL0     C59171   3.201   3.839   6.048  0.3105 -0.4609  0.3147
  439MOL0     C59172   3.131   3.971   6.017 -0.3977  0.6402 -0.0229
  439MOL0     C59173   3.055   4.025   6.151 -0.6317  0.0993  0.5480
  439MOL0     C59174   3.148   4.116   6.227 -0.5029  0.0412  0.5476
  439MOL0    Cl59175   3.057   4.189   6.373 -0.4392  0.4998 -0.0641
  439MOL0     C59176   3.842   3.755   5.906 -0.1630 -0.0815  0.6448
  439MOL0     C59177   3.922   3.870   5.929  0.1302 -0.1954 -0.7796
  439MOL0     O59178   3.806   4.190   6.134  0.2790  0.1001  0.3985
  439MOL0     C59179   4.163   4.218   6.152  0.4054 -0.0281 -0.6426
  439MOL0     C59180   4.272   4.297   6.192  0.2895  0.2443 -0.4922
  439MOL0     N59181   4.941   4.647   6.208  0.4630  0.5382 -0.6941
  439MOL0     N59182   5.044   4.666   6.137  0.2816  0.1632 -0.1047
  439MOL0     C59183   5.913   5.608   5.813  0.1937  0.4810  0.3244
  439MOL0     C59184   6.015   5.694   5.787  0.1183 -0.2209 -0.0781
  439MOL0     C59185   6.409   5.876   5.647  0.0129  0.2775  0.7715
  439MOL0     C59186   6.388   5.960   5.756  0.6600 -0.5528  0.5000
  439MOL0     C59187   6.475   6.068   5.772 -0.2781  0.2783 -0.1490
  439MOL0     C59188   6.575   6.093   5.678 -1.2218 -0.3262  0.8393
  439MOL0     O59189   6.665   6.187   5.703  0.6646 -0.2270 -0.0507
  439MOL0     C59190   6.749   6.171   5.814  0.1507  0.2549 -0.6398
  439MOL0     C59191   6.892   6.197   5.777 -0.7100  0.1516 -0.3030
  439MOL0     C59192   6.978   6.178   5.906 -0.4477  0.0512  0.1688
  439MOL0     C59193   7.130   6.210   5.885  0.1103 -0.9110 -0.0828
  439MOL0     C59194   7.159   6.345   5.924 -0.1022  0.0227  0.3421
  439MOL0     C59195   7.198   6.453   5.951  0.1037 -0.6163 -0.7340
  439MOL0     C59196   6.583   6.012   5.558  0.1866  0.2191  0.2888
  439MOL0     C59197   6.492   5.913   5.541  0.6267  0.9736 -0.5140
  439MOL0     H59198   6.270   5.492   5.712  0.5580  1.8912 -1.8535
  439MOL0     H59199   6.077   5.314   5.738 -2.8241 -0.7234  1.4215
  439MOL0     H59200   5.817   5.432   6.014 -0.1005  2.0174 -0.7733
  439MOL0     H59201   5.695   5.505   5.914 -0.1616  0.2911  0.7169
  439MOL0     H59202   5.718   5.201   5.944 -0.2805  0.1749 -0.4459
  439MOL0     H59203   5.627   5.306   6.064 -0.4865  0.2765  0.5236
  439MOL0     H59204   5.479   5.375   5.866 -0.9684  0.6279  2.8836
  439MOL0     H59205   5.597   5.294   5.752  0.1107 -0.4610  1.0517
  439MOL0     H59206   5.459   5.126   5.754 -2.2771 -0.8225  0.4657
  439MOL0     H59207   5.560   5.073   5.875  1.5104  0.3370 -2.8095
  439MOL0     H59208   5.395   5.156   6.035  1.4936 -0.0959  0.0081
  439MOL0     H59209   5.290   5.220   5.906 -1.8331 -2.1719 -3.4625
  439MOL0     H59210   5.282   4.979   5.802 -2.1785  0.3268 -0.0367
  439MOL0     H59211   5.393   4.928   5.916  0.3707  0.0806 -0.9084
  439MOL0     H59212   5.222   4.947   6.103  1.5667  0.1147 -1.0049
  439MOL0     H59213   5.117   5.044   6.002  0.7101  1.6537  2.3612
  439MOL0     H59214   5.207   4.762   5.984 -0.2570  0.3038  0.9870
  439MOL0     H59215   5.092   4.831   5.865 -0.7392 -0.8781  0.7228
  439MOL0     H59216   4.863   4.935   6.067  0.3089 -0.3250 -2.4025
  439MOL0     H59217   4.760   4.741   6.390 -0.9484  2.1286  0.2634
  439MOL0     H59218   4.710   4.880   6.321 -1.1307 -0.8160  2.1637
  439MOL0     H59219   4.649   4.594   6.238 -0.2145 -0.6021  0.3188
  439MOL0     H59220   4.580   4.743   6.150 -0.1011 -0.8676 -0.0170
  439MOL0     H59221   4.467   4.790   6.382 -0.2552 -1.1163  1.8209
  439MOL0     H59222   4.512   4.633   6.423  2.3592 -1.5250 -1.0851
  439MOL0     H59223   4.357   4.667   6.166 -0.1953  2.7060  0.5614
  439MOL0     H59224   4.276   4.672   6.325 -1.7304 -1.0361 -2.0907
  439MOL0     H59225   4.091   4.569   6.293 -2.4102 -2.0278  0.6674
  439MOL0     H59226   3.798   4.422   6.296 -0.2979 -1.8614 -0.4008
  439MOL0     H59227   3.889   4.557   6.239  1.0899 -0.1387 -0.4303
  439MOL0     H59228   3.816   4.455   6.115  0.7748 -3.1132 -0.7612
  439MOL0     H59229   3.727   3.969   6.192 -2.7502 -0.6556 -0.3411
  439MOL0     H59230   3.640   3.765   6.171 -0.8197  1.4729  1.1455
  439MOL0     H59231   3.672   3.549   5.788 -0.9531 -0.8050 -0.4529
  439MOL0     H59232   3.548   3.469   5.873 -0.2909 -0.5021 -1.3627
  439MOL0     H59233   3.547   3.760   5.801  2.6278 -0.6460  1.5469
  439MOL0     H59234   3.424   3.639   5.763  2.0358  0.4589 -2.8517
  439MOL0     H59235   3.461   3.772   6.025 -0.5179 -0.1736  0.7350
  439MOL0     H59236   3.380   3.609   6.016 -3.8808 -0.6206 -0.8808
  439MOL0     H59237   3.299   3.863   5.862 -2.7024  1.5478  2.2332
  439MOL0     H59238   3.200   3.721   5.859 -2.0762  4.0920 -3.1382
  439MOL0     H59239   3.274   3.850   6.129 -1.5170  0.4499  1.9048
  439MOL0     H59240   3.131   3.766   6.090  2.2994 -2.5929  0.1091
  439MOL0     H59241   3.198   4.048   5.977 -0.0308  1.0239  1.2876
  439MOL0     H59242   3.060   3.941   5.940 -0.5788  1.8599 -0.3489
  439MOL0     H59243   3.022   3.941   6.213 -0.9184 -0.9935 -1.0295
  439MOL0     H59244   2.969   4.087   6.125  1.6646  2.4462 -2.3031
  439MOL0     H59245   3.178   4.188   6.150  0.0042 -0.7710 -0.0239
  439MOL0     H59246   3.239   4.065   6.261 -0.5714 -0.7857 -0.4903
  439MOL0     H59247   3.872   3.688   5.826 -2.8962 -1.5039  0.6771
  439MOL0     H59248   4.009   3.880   5.865  0.5594  0.2941 -0.1347
  439MOL0     H59249   4.195   4.118   6.123  0.3084  0.2148 -1.6324
  439MOL0     H59250   4.377   4.271   6.181  0.0651  0.1498 -2.9319
  439MOL0     H59251   5.814   5.653   5.818  0.3948  1.0614 -0.6440
  439MOL0     H59252   5.997   5.800   5.799 -0.6118 -0.2479 -0.8619
  439MOL0     H59253   6.303   5.943   5.821  0.7882 -4.4931 -0.1047
  439MOL0     H59254   6.471   6.134   5.858  1.0403 -0.6614  0.6687
  439MOL0     H59255   6.708   6.250   5.877 -0.4853  0.4110 -1.2419
  439MOL0     H59256   6.733   6.070   5.853 -1.7833  1.3930  1.7824
  439MOL0     H59257   6.911   6.301   5.750 -3.8146  1.2615  1.2254
  439MOL0     H59258   6.923   6.132   5.695  1.4935 -0.6474  1.0938
  439MOL0     H59259   6.967   6.073   5.935  1.2218 -0.3943 -0.6906
  439MOL0     H59260   6.936   6.232   5.991  0.3890  0.2154  0.4898
  439MOL0     H59261   7.156   6.209   5.779 -3.6550  0.4508 -1.1737
  439MOL0     H59262   7.181   6.137   5.949  2.1392 -2.1992 -2.9551
  439MOL0     H59263   7.238   6.550   5.972  2.1077 -2.2014  4.2063
  439MOL0     H59264   6.655   6.029   5.478  1.0337  0.9917  1.1864
  439MOL0     H59265   6.496   5.867   5.442  2.0708  3.2683 -1.6183
  440MOL0     O59266   5.653   8.083   5.444  0.5424 -0.0363 -0.0580
  440MOL0     C59267   5.757   8.023   5.412 -0.1799  0.8334 -0.7312
  440MOL0     O59268   5.786   7.886   5.437  0.2473 -0.5569  0.1770
  440MOL0     C59269   5.702   7.805   5.499  0.4349  0.9816 -1.3623
  440MOL0     C59270   5.616   7.719   5.433  0.6042 -1.1135 -0.5032
  440MOL0     C59271   5.525   7.639   5.503 -0.1373  0.0522  0.1306
  440MOL0     C59272   5.517   7.648   5.643  1.9673 -0.9785 -0.0857
  440MOL0     O59273   5.439   7.566   5.719 -0.3410 -0.2367 -0.5897
  440MOL0     C59274   5.383   7.456   5.660 -0.7533  0.0950  0.7983
  440MOL0     C59275   5.281   7.408   5.764 -0.4113 -0.5339  0.6147
  440MOL0     C59276   5.336   7.336   5.883 -0.3574 -0.1840 -0.5289
  440MOL0     C59277   5.433   7.215   5.846 -0.0901 -0.2358 -0.2562
  440MOL0     C59278   5.363   7.085   5.805 -1.0947 -0.1423  0.1993
  440MOL0     C59279   5.480   6.998   5.756 -0.3368  0.4367  0.5139
  440MOL0     C59280   5.433   6.887   5.657  0.0150 -0.4806 -0.0592
  440MOL0     C59281   5.369   6.941   5.530 -0.5709  0.3185  0.1089
  440MOL0     N59282   5.443   7.051   5.477  0.0620 -0.5246  0.0405
  440MOL0     C59283   5.574   7.041   5.438  0.3352  0.9168 -0.0857
  440MOL0     C59284   5.624   7.170   5.425  0.3544 -0.1024  0.4316
  440MOL0     C59285   5.769   7.186   5.402  0.1963  0.1623 -0.5987
  440MOL0     C59286   5.821   7.324   5.407 -0.1754 -0.0138  0.2864
  440MOL0     C59287   5.788   7.401   5.269  0.1938 -0.2678 -0.1216
  440MOL0     C59288   5.877   7.516   5.241  0.5022 -0.2703 -1.0083
  440MOL0     O59289   6.016   7.469   5.222  0.1094 -0.2146 -0.8288
  440MOL0     C59290   6.098   7.552   5.153 -0.3047 -0.8544  0.2228
  440MOL0     C59291   6.223   7.504   5.138 -0.3664  1.1342  0.3202
  440MOL0     C59292   6.326   7.561   5.069  0.3622 -0.0104 -0.8068
  440MOL0     C59293   6.454   7.491   5.058  0.3157  0.7724 -0.6516
  440MOL0     C59294   6.304   7.702   5.036  0.8620  0.1367 -0.5512
  440MOL0     C59295   6.390   7.790   4.955 -0.0108  0.1503  0.2124
  440MOL0     O59296   6.333   7.911   4.900  0.2048  0.1090 -0.0747
  440MOL0     C59297   6.406   7.985   4.809 -0.0271  0.6127  0.7054
  440MOL0     C59298   6.541   8.023   4.821  0.3080 -0.9932  0.2424
  440MOL0     C59299   6.610   8.082   4.714 -0.4252  0.8619  0.1427
  440MOL0     C59300   6.543   8.123   4.603 -1.2334  0.1401  0.4406
  440MOL0     O59301   6.596   8.199   4.503 -0.4371  0.4450  0.6889
  440MOL0     C59302   6.722   8.266   4.511  0.5513 -0.3650  0.2420
  440MOL0     C59303   6.714   8.360   4.389  0.6891  0.6194  0.6962
  440MOL0     C59304   6.840   8.442   4.356  0.0444  0.4445 -0.1124
  440MOL0     C59305   6.808   8.569   4.272 -1.0719  0.2172  0.2003
  440MOL0     C59306   6.940   8.640   4.215  0.5814  0.2802  0.5421
  440MOL0     C59307   7.003   8.559   4.096  0.9440  0.7850  0.9692
  440MOL0     C59308   7.142   8.600   4.070 -0.7315  0.0424  0.4786
  440MOL0     C59309   7.202   8.544   3.950  0.3809 -0.1119 -1.2074
  440MOL0    Cl59310   7.355   8.622   3.922  0.0357 -0.7835 -0.3540
  440MOL0     C59311   6.413   8.090   4.593  1.0660 -0.5417  0.0393
  440MOL0     C59312   6.341   8.022   4.694  0.0346  0.2008 -0.3736
  440MOL0     O59313   6.498   7.746   4.917  0.7827 -0.3294  0.9721
  440MOL0     C59314   6.174   7.759   5.059 -0.4411  0.2865  0.8852
  440MOL0     C59315   6.083   7.686   5.127 -0.3675  0.8299 -0.7395
  440MOL0     N59316   5.532   7.262   5.456 -0.0720 -0.5720 -1.2926
  440MOL0     N59317   5.420   7.193   5.474  1.5126  0.4945  0.4984
  440MOL0     C59318   5.603   7.733   5.707 -0.1109  0.3709 -0.3675
  440MOL0     C59319   5.698   7.808   5.635 -0.8969  1.1426  0.0347
  440MOL0     C59320   5.868   8.098   5.341  0.5879 -0.3236  0.8988
  440MOL0     C59321   5.985   8.037   5.308 -1.3223  0.5454 -0.3073
  440MOL0     C59322   6.081   8.106   5.233  0.4798  0.1133 -0.4094
  440MOL0     C59323   6.072   8.237   5.199 -1.1663  0.0981 -0.1884
  440MOL0     O59324   6.158   8.307   5.126 -0.4561  0.7851  0.0724
  440MOL0     C59325   6.282   8.234   5.086 -1.4825 -0.1463  0.2238
  440MOL0     C59326   6.392   8.318   5.010 -0.5917  0.5190  0.3340
  440MOL0     C59327   6.474   8.406   5.092 -0.2909 -0.9835 -0.4501
  440MOL0     C59328   6.438   8.557   5.083  0.5991  0.1334 -0.4111
  440MOL0     C59329   6.449   8.607   4.950 -0.6087 -0.0128  0.2231
  440MOL0     C59330   6.458   8.619   4.827 -0.4824  0.5126  0.0553
  440MOL0     C59331   5.951   8.307   5.233 -0.5927  0.5668 -0.3579
  440MOL0     C59332   5.850   8.233   5.291  0.1156 -0.5959 -0.7213
  440MOL0     H59333   5.620   7.717   5.325  1.7229  0.0633 -0.5201
  440MOL0     H59334   5.464   7.578   5.437 -0.7607 -0.2437  0.9676
  440MOL0     H59335   5.344   7.468   5.559  0.8370  0.6232  0.2044
  440MOL0     H59336   5.477   7.401   5.653  0.5623  2.2882 -0.2147
  440MOL0     H59337   5.212   7.489   5.787 -1.7614 -0.9595 -1.6341
  440MOL0     H59338   5.208   7.340   5.721  2.2149 -1.8789 -2.1396
  440MOL0     H59339   5.393   7.409   5.941  0.2455 -2.4545  1.9071
  440MOL0     H59340   5.260   7.315   5.959  0.5555  3.7777  1.7481
  440MOL0     H59341   5.514   7.240   5.778 -1.3011  2.0363 -0.9913
  440MOL0     H59342   5.478   7.201   5.945  1.7191  1.2105 -0.8230
  440MOL0     H59343   5.301   7.038   5.882 -2.9170  1.8023 -0.0050
  440MOL0     H59344   5.299   7.107   5.720  0.5780  4.4245 -0.1432
  440MOL0     H59345   5.554   7.060   5.704 -3.1952  0.5566 -4.0440
  440MOL0     H59346   5.524   6.950   5.843 -1.1022 -5.1931 -1.7677
  440MOL0     H59347   5.517   6.829   5.618 -2.0014 -0.7349 -4.6569
  440MOL0     H59348   5.361   6.820   5.704  0.8946 -0.8644  0.7725
  440MOL0     H59349   5.269   6.981   5.546 -0.6359 -0.8483  3.3278
  440MOL0     H59350   5.361   6.860   5.457 -2.1933  1.1220 -0.6533
  440MOL0     H59351   5.637   6.957   5.413  1.1624  2.0084 -1.8588
  440MOL0     H59352   5.810   7.139   5.492  1.0811 -1.8725 -1.9818
  440MOL0     H59353   5.802   7.134   5.312 -1.4057 -2.0245 -0.0213
  440MOL0     H59354   5.928   7.324   5.428 -0.0851 -1.0734 -0.1027
  440MOL0     H59355   5.775   7.376   5.492 -0.0847  0.0295  0.3086
  440MOL0     H59356   5.683   7.431   5.273  0.9870  2.7347  0.6701
  440MOL0     H59357   5.795   7.331   5.185  2.7781  1.2230 -1.2717
  440MOL0     H59358   5.878   7.585   5.326  1.5545 -2.4156  0.8058
  440MOL0     H59359   5.840   7.567   5.151 -0.7625  2.1497  0.7600
  440MOL0     H59360   6.234   7.402   5.174 -0.7716  0.8095 -0.4635
  440MOL0     H59361   6.526   7.526   5.132  1.8831  0.1304 -1.8147
  440MOL0     H59362   6.447   7.385   5.082  2.7082  1.1352  2.2147
  440MOL0     H59363   6.505   7.495   4.961  0.8844  0.1342 -0.3853
  440MOL0     H59364   6.593   8.007   4.915 -1.0626  0.5866  1.3447
  440MOL0     H59365   6.717   8.099   4.724  0.1301 -2.2616  0.3535
  440MOL0     H59366   6.730   8.324   4.603 -1.4629 -1.0716  0.9088
  440MOL0     H59367   6.794   8.184   4.514 -0.9221 -1.7749 -0.8273
  440MOL0     H59368   6.700   8.308   4.295 -0.8913  0.5060  0.9771
  440MOL0     H59369   6.623   8.417   4.408  0.5776  1.0915 -1.0812
  440MOL0     H59370   6.898   8.374   4.292 -3.1721 -2.1783 -0.5362
  440MOL0     H59371   6.891   8.459   4.451  0.5319  0.6111 -0.3998
  440MOL0     H59372   6.759   8.541   4.179  0.2505 -0.5319 -0.2979
  440MOL0     H59373   6.746   8.638   4.330 -0.0033 -0.1095  1.8194
  440MOL0     H59374   7.016   8.645   4.294  0.4781 -2.6158  0.9408
  440MOL0     H59375   6.918   8.743   4.186  0.7780  1.0884  3.0388
  440MOL0     H59376   6.996   8.451   4.114 -0.2209  1.1543  3.0692
  440MOL0     H59377   6.935   8.557   4.011  0.9916  0.8563  0.9299
  440MOL0     H59378   7.199   8.565   4.157  0.0405  0.9553  0.3553
  440MOL0     H59379   7.151   8.708   4.052 -1.3790 -0.4380 -3.5741
  440MOL0     H59380   7.137   8.566   3.865  0.2605  1.0039 -0.8395
  440MOL0     H59381   7.211   8.437   3.972 -2.8640 -0.4434 -0.9428
  440MOL0     H59382   6.367   8.120   4.500  0.4565 -0.7599  0.2659
  440MOL0     H59383   6.242   7.981   4.675  0.7546  0.0109 -4.5699
  440MOL0     H59384   6.146   7.860   5.030 -1.5519 -0.7460 -2.0180
  440MOL0     H59385   5.982   7.723   5.145 -0.7993 -1.1302  1.3301
  440MOL0     H59386   5.623   7.736   5.814  4.0548 -1.5421 -0.8893
  440MOL0     H59387   5.773   7.865   5.689  0.2618  0.7599 -1.1069
  440MOL0     H59388   6.016   7.936   5.330  1.6599  1.6591  1.1572
  440MOL0     H59389   6.172   8.053   5.204  1.0391  1.3415 -0.9705
  440MOL0     H59390   6.333   8.190   5.172  0.0318  0.1659 -0.4869
  440MOL0     H59391   6.245   8.156   5.017 -0.5115  0.6798 -1.2879
  440MOL0     H59392   6.338   8.370   4.930  1.1581 -1.8833 -2.6509
  440MOL0     H59393   6.460   8.256   4.951 -1.3274  0.1305 -0.1251
  440MOL0     H59394   6.578   8.401   5.061 -0.2756  3.0080 -1.5577
  440MOL0     H59395   6.470   8.374   5.197  2.4202  0.0328  0.0340
  440MOL0     H59396   6.506   8.616   5.146  0.4000  0.3635 -0.4082
  440MOL0     H59397   6.336   8.578   5.117  0.9640 -1.0167  1.5655
  440MOL0     H59398   6.469   8.630   4.721 -2.4928  2.3638 -0.0267
  440MOL0     H59399   5.945   8.411   5.202  0.9158 -0.0529 -3.0280
  440MOL0     H59400   5.763   8.298   5.300 -1.4418 -2.4980 -1.4233
  441MOL0     O59401   8.219   6.571  10.705 -0.0629  0.0470 -0.3020
  441MOL0     C59402   8.120   6.532  10.770 -0.4876  0.7775 -0.3729
  441MOL0     O59403   8.120   6.418  10.856 -0.1342 -0.0102 -1.0983
  441MOL0     C59404   8.241   6.386  10.904  0.1063  0.1648  0.1071
  441MOL0     C59405   8.277   6.431  11.035 -0.2571  0.4942  0.1800
  441MOL0     C59406   8.398   6.401  11.106  0.1639 -0.8662  0.3322
  441MOL0     C59407   8.490   6.327  11.032  0.4476  0.6150  0.1929
  441MOL0     O59408   8.607   6.299  11.091  0.0007 -0.5524 -0.5915
  441MOL0     C59409   8.725   6.362  11.037  0.3527 -0.0069 -0.5674
  441MOL0     C59410   8.794   6.425  11.161  0.3541 -0.1232 -0.0115
  441MOL0     C59411   8.922   6.489  11.108  0.3086  0.4580 -0.4937
  441MOL0     C59412   9.022   6.383  11.069  0.1826 -0.5847  0.1973
  441MOL0     C59413   9.168   6.452  11.049  0.5721 -0.2992 -0.0309
  441MOL0     C59414   9.269   6.357  10.983 -0.4869 -0.5141 -0.0850
  441MOL0     C59415   9.398   6.437  10.938 -0.1980  0.2120 -0.5433
  441MOL0     C59416   9.397   6.499  10.799 -0.1574  0.6130 -0.2879
  441MOL0     N59417   9.308   6.602  10.770 -0.6111  0.4946 -0.3830
  441MOL0     C59418   9.184   6.584  10.718  0.0950 -0.7626  0.2124
  441MOL0     C59419   9.137   6.709  10.705 -0.1480  0.1511 -0.1064
  441MOL0     C59420   8.994   6.732  10.665  0.2277 -0.2471 -0.2699
  441MOL0     C59421   8.910   6.729  10.796 -0.1423  1.0466 -0.1186
  441MOL0     C59422   8.923   6.856  10.889  0.0311  0.1026  0.3256
  441MOL0     C59423   8.822   6.875  11.000  0.5075 -0.1629 -0.2814
  441MOL0     O59424   8.686   6.887  10.943  0.3532 -0.2573 -0.1006
  441MOL0     C59425   8.575   6.862  11.019 -0.9787 -1.2326 -0.3652
  441MOL0     C59426   8.566   6.816  11.153  0.0031 -0.6282 -0.1130
  441MOL0     C59427   8.447   6.786  11.213 -0.8267  0.9993  0.1772
  441MOL0     C59428   8.450   6.725  11.355  0.4456 -0.5744  0.4262
  441MOL0     C59429   8.328   6.799  11.137 -0.9514  0.2308 -0.1365
  441MOL0     C59430   8.189   6.765  11.193  0.4213  0.8490  0.7604
  441MOL0     O59431   8.097   6.707  11.107  0.8056  0.6397  0.5305
  441MOL0     C59432   7.978   6.646  11.147  0.7937  0.1902 -1.0035
  441MOL0     C59433   7.985   6.555  11.252  0.0380  0.5599  0.4878
  441MOL0     C59434   7.865   6.492  11.293  0.2459 -0.3861 -0.1308
  441MOL0     C59435   7.737   6.528  11.235 -0.3046 -0.4644 -0.7343
  441MOL0     O59436   7.616   6.489  11.295  0.3217 -0.1053 -0.8383
  441MOL0     C59437   7.604   6.383  11.386  0.4953 -0.1881 -0.4872
  441MOL0     C59438   7.449   6.359  11.428 -0.5618  0.8024 -1.1901
  441MOL0     C59439   7.363   6.478  11.479 -1.0987  0.0302 -0.7539
  441MOL0     C59440   7.398   6.499  11.621 -0.3948 -0.4320  0.3485
  441MOL0     C59441   7.323   6.614  11.695  0.0635  0.3533 -0.0828
  441MOL0     C59442   7.189   6.566  11.739  0.1185  0.1063  0.0395
  441MOL0     C59443   7.106   6.679  11.814 -1.3153 -0.5969 -0.6486
  441MOL0     C59444   6.966   6.636  11.840 -1.0060 -0.3485  0.3890
  441MOL0    Cl59445   6.878   6.619  11.685 -0.0371  0.3539 -0.3565
  441MOL0     C59446   7.741   6.618  11.126  0.2872 -0.1635  0.0831
  441MOL0     C59447   7.858   6.677  11.084  0.1732 -0.2358  0.4875
  441MOL0     O59448   8.167   6.791  11.308  0.0930  0.1906  0.3503
  441MOL0     C59449   8.335   6.840  11.002  0.4685 -1.2112 -0.4379
  441MOL0     C59450   8.454   6.875  10.946  0.1146  0.5057  0.8497
  441MOL0     N59451   9.222   6.803  10.759  0.5054  0.7724  0.2247
  441MOL0     N59452   9.324   6.735  10.803 -0.2262  0.3538  0.1989
  441MOL0     C59453   8.459   6.275  10.902 -0.6006  0.2724 -0.0180
  441MOL0     C59454   8.339   6.311  10.835  0.4771  0.5966 -0.8445
  441MOL0     C59455   7.996   6.585  10.734  1.0025  0.1087 -0.9305
  441MOL0     C59456   7.881   6.504  10.730  0.1819 -0.5070  0.2834
  441MOL0     C59457   7.765   6.565  10.692  0.4688 -0.7474  0.2949
  441MOL0     C59458   7.755   6.697  10.654  0.3498  0.2965  0.5233
  441MOL0     O59459   7.642   6.754  10.611 -0.3112  1.0136  0.0601
  441MOL0     C59460   7.628   6.752  10.473 -0.4230  0.8838  0.2555
  441MOL0     C59461   7.542   6.872  10.416 -0.2341  0.5512  0.6479
  441MOL0     C59462   7.417   6.903  10.496 -0.9246  0.2829  0.6473
  441MOL0     C59463   7.326   6.787  10.506 -0.2671 -0.5261 -0.5078
  441MOL0     C59464   7.212   6.862  10.557  0.5007  0.0683  0.1508
  441MOL0     C59465   7.112   6.909  10.610  0.1106  1.0901  0.6148
  441MOL0     C59466   7.869   6.775  10.661 -0.0059  0.4477 -0.1174
  441MOL0     C59467   7.989   6.717  10.703 -0.4974  0.3259  0.4835
  441MOL0     H59468   8.208   6.502  11.080 -0.3212 -1.0529  2.7455
  441MOL0     H59469   8.425   6.440  11.203  0.5921  0.1208 -0.1693
  441MOL0     H59470   8.783   6.280  10.992 -0.7922 -1.3105  0.2479
  441MOL0     H59471   8.703   6.438  10.961 -0.9640 -0.0347 -0.2281
  441MOL0     H59472   8.729   6.506  11.195  0.8315 -0.0073  0.6521
  441MOL0     H59473   8.820   6.363  11.247  1.2044  0.7419  0.3777
  441MOL0     H59474   8.905   6.567  11.033  1.1295 -0.8199 -2.0621
  441MOL0     H59475   8.964   6.541  11.195  0.2562  1.1272 -0.8669
  441MOL0     H59476   9.022   6.297  11.137 -1.3119 -2.1378 -1.5980
  441MOL0     H59477   8.996   6.322  10.981  0.1267 -1.9417  1.1216
  441MOL0     H59478   9.147   6.534  10.980 -1.0908 -1.2764 -0.7481
  441MOL0     H59479   9.212   6.494  11.140 -2.4504  1.0004  0.9946
  441MOL0     H59480   9.295   6.283  11.060  4.1350  0.9605  0.0537
  441MOL0     H59481   9.216   6.310  10.900 -4.5666  3.2213  0.0485
  441MOL0     H59482   9.422   6.521  11.003  1.8302 -1.0872  0.5026
  441MOL0     H59483   9.483   6.368  10.944 -0.2734  0.2334  2.7418
  441MOL0     H59484   9.385   6.429  10.716  3.3467  0.4421 -0.7975
  441MOL0     H59485   9.493   6.552  10.801 -1.4103  3.0225 -0.1767
  441MOL0     H59486   9.134   6.492  10.688  1.9712 -0.8699 -3.1487
  441MOL0     H59487   8.983   6.823  10.604  0.1920  0.5413  0.8848
  441MOL0     H59488   8.963   6.649  10.601  1.7541 -0.2711 -1.0275
  441MOL0     H59489   8.943   6.637  10.846 -0.8570  0.4893 -0.6602
  441MOL0     H59490   8.807   6.706  10.769  0.2535 -1.1864  0.1098
  441MOL0     H59491   8.920   6.936  10.815  1.3229 -1.4401 -1.5054
  441MOL0     H59492   9.028   6.864  10.920  1.4886 -2.5551 -3.1930
  441MOL0     H59493   8.851   6.964  11.056  2.9336 -0.9538 -0.1796
  441MOL0     H59494   8.835   6.793  11.071  1.2169  0.1828 -0.0021
  441MOL0     H59495   8.656   6.811  11.213  0.5004  1.8020 -0.5440
  441MOL0     H59496   8.549   6.717  11.399  0.8780 -1.7783 -0.7183
  441MOL0     H59497   8.385   6.784  11.420  1.1628 -0.5739  1.1520
  441MOL0     H59498   8.417   6.622  11.340  3.5990 -1.4096 -1.9281
  441MOL0     H59499   8.082   6.532  11.295  1.2869 -1.5710 -3.0840
  441MOL0     H59500   7.850   6.423  11.376 -1.6108  0.3369  0.1845
  441MOL0     H59501   7.635   6.284  11.351  1.8656 -0.1560  0.5778
  441MOL0     H59502   7.661   6.405  11.476 -0.3924 -1.5556  0.4306
  441MOL0     H59503   7.400   6.328  11.335 -0.6792  1.8984 -1.5044
  441MOL0     H59504   7.439   6.277  11.499  0.7125  1.1295 -0.6015
  441MOL0     H59505   7.255   6.466  11.472 -0.9579 -0.2656 -3.4313
  441MOL0     H59506   7.397   6.558  11.412 -1.9103  1.4739  0.4743
  441MOL0     H59507   7.371   6.408  11.676  0.9532 -0.3249  1.2590
  441MOL0     H59508   7.507   6.511  11.626 -0.5260  0.4552  1.5014
  441MOL0     H59509   7.316   6.702  11.631  1.0591  0.6887  0.2587
  441MOL0     H59510   7.387   6.645  11.778  2.1127  0.1186 -1.4981
  441MOL0     H59511   7.139   6.550  11.643  2.6093  0.9357 -1.4946
  441MOL0     H59512   7.194   6.473  11.796 -1.8744 -0.2909 -0.3516
  441MOL0     H59513   7.107   6.764  11.745 -0.9219 -1.1282 -1.3021
  441MOL0     H59514   7.163   6.705  11.904 -3.0060  3.0209 -0.4581
  441MOL0     H59515   6.916   6.710  11.904 -1.2285  2.9101 -3.1947
  441MOL0     H59516   6.971   6.537  11.885  1.9487 -0.9681 -1.0568
  441MOL0     H59517   7.648   6.657  11.088 -0.7403  0.9574  3.3770
  441MOL0     H59518   7.868   6.764  11.019 -2.9833 -0.8906 -1.1052
  441MOL0     H59519   8.247   6.848  10.940 -0.9048  0.2016  1.5981
  441MOL0     H59520   8.461   6.904  10.841 -1.5758 -2.7942 -0.3262
  441MOL0     H59521   8.523   6.209  10.844 -0.9297 -2.8220  2.7932
  441MOL0     H59522   8.317   6.282  10.733  0.3897  3.2775 -1.6809
  441MOL0     H59523   7.894   6.399  10.751  0.5604 -0.4960  0.1230
  441MOL0     H59524   7.673   6.508  10.689  2.1507 -3.6609  0.1858
  441MOL0     H59525   7.725   6.754  10.423 -1.6086  1.5214 -2.1832
  441MOL0     H59526   7.571   6.661  10.451  0.7445 -0.2737  1.7984
  441MOL0     H59527   7.516   6.846  10.313  0.9704  3.3374 -0.4541
  441MOL0     H59528   7.599   6.963  10.399 -1.7800  1.2253 -1.3211
  441MOL0     H59529   7.374   6.981  10.433 -0.7080  0.5824  0.8701
  441MOL0     H59530   7.450   6.943  10.592  1.5621  0.0826 -0.0393
  441MOL0     H59531   7.353   6.714  10.583 -1.5214 -0.4479  0.0196
  441MOL0     H59532   7.309   6.743  10.406 -1.6987 -0.5038 -0.2950
  441MOL0     H59533   7.026   6.942  10.665 -0.9474  1.0883 -0.9498
  441MOL0     H59534   7.852   6.877  10.628 -0.9393 -0.3603 -2.3784
  441MOL0     H59535   8.077   6.781  10.707 -0.9695  0.9506  2.4797
  442MOL0     O59536   1.589   6.862   8.772  0.3226 -0.0798 -0.5906
  442MOL0     C59537   1.614   6.765   8.695  0.1616 -0.7036 -0.2119
  442MOL0     O59538   1.569   6.757   8.567  0.7487 -0.6337  0.0561
  442MOL0     C59539   1.472   6.831   8.504 -0.4949  0.2910 -0.7436
  442MOL0     C59540   1.422   6.953   8.555  0.0246  0.2225 -0.3888
  442MOL0     C59541   1.309   7.000   8.501 -0.4120  0.2278  0.5348
  442MOL0     C59542   1.248   6.943   8.391  0.4491  0.2187 -0.0670
  442MOL0     O59543   1.132   7.001   8.339 -0.4958  0.7726 -0.6503
  442MOL0     C59544   1.104   6.993   8.200 -0.5465  0.3023  0.3474
  442MOL0     C59545   0.987   7.080   8.167 -0.1005  0.3896  0.7639
  442MOL0     C59546   0.951   7.080   8.025  0.4642 -0.0007 -0.0751
  442MOL0     C59547   0.821   7.171   8.007  0.4565  0.7888 -0.4500
  442MOL0     C59548   0.767   7.151   7.865 -0.2180 -0.3469 -0.4785
  442MOL0     C59549   0.708   7.270   7.797  0.2461 -0.2896  0.4542
  442MOL0     C59550   0.578   7.318   7.863  0.5015 -0.2529 -0.2583
  442MOL0     C59551   0.444   7.253   7.838  0.4323  0.5186 -0.6222
  442MOL0     N59552   0.360   7.303   7.730 -0.1014  0.9714 -0.2616
  442MOL0     C59553   0.382   7.281   7.594 -0.5237  0.5925 -0.0513
  442MOL0     C59554   0.281   7.349   7.533 -0.6353 -1.7435 -0.0447
  442MOL0     C59555   0.257   7.372   7.385  0.0125  0.2987  0.4466
  442MOL0     C59556   0.375   7.430   7.296 -0.3631 -0.4464 -0.1994
  442MOL0     C59557   0.347   7.441   7.141 -0.1457  0.0945 -0.5786
  442MOL0     C59558   0.233   7.547   7.119  0.6737  0.2800  0.2397
  442MOL0     O59559   0.163   7.507   7.005 -0.4926 -0.2993  0.1189
  442MOL0     C59560   0.116   7.602   6.915  0.4459 -0.1155  0.3482
  442MOL0     C59561   0.178   7.725   6.889  0.2437 -0.3749 -0.1696
  442MOL0     C59562   0.118   7.809   6.792  0.1410  0.1503  0.3445
  442MOL0     C59563   0.190   7.944   6.763  0.4449  1.0754 -0.1906
  442MOL0     C59564   0.003   7.770   6.718 -0.6909 -0.1192 -0.3847
  442MOL0     C59565  -0.068   7.840   6.604 -0.0692 -1.3074 -0.2311
  442MOL0     O59566  -0.202   7.829   6.595  0.2525 -0.7414  0.1815
  442MOL0     C59567  -0.259   7.864   6.472  0.5321 -0.2955 -0.3460
  442MOL0     C59568  -0.221   7.809   6.354 -0.2303 -0.2789 -1.0109
  442MOL0     C59569  -0.306   7.818   6.241  0.4852  0.8405 -0.2626
  442MOL0     C59570  -0.413   7.896   6.239  0.3255 -0.2904  0.9908
  442MOL0     O59571  -0.482   7.894   6.118  0.0139  0.0080  0.1004
  442MOL0     C59572  -0.597   7.991   6.099 -0.6214 -0.7842  0.0001
  442MOL0     C59573  -0.665   7.955   5.964 -0.0041 -0.0261  0.0255
  442MOL0     C59574  -0.775   7.850   5.989  0.4912  1.1389 -0.4805
  442MOL0     C59575  -0.867   7.807   5.865 -0.0813  0.3416  0.3183
  442MOL0     C59576  -0.941   7.673   5.885  0.5648  0.5702 -0.1291
  442MOL0     C59577  -1.033   7.654   5.762 -0.2701 -0.6705 -0.3304
  442MOL0     C59578  -1.120   7.522   5.777  0.6586 -0.6373  0.4205
  442MOL0     C59579  -1.263   7.551   5.732 -0.2205  0.4373 -0.4556
  442MOL0    Cl59580  -1.358   7.400   5.737  0.1803  0.3105  0.5196
  442MOL0     C59581  -0.460   7.947   6.359 -0.5924 -0.0363 -0.1560
  442MOL0     C59582  -0.380   7.936   6.477  0.5744  0.4878 -0.8745
  442MOL0     O59583   0.005   7.900   6.527  0.1988 -0.0381  0.5927
  442MOL0     C59584  -0.047   7.643   6.744  0.2382  0.4074  0.3528
  442MOL0     C59585  -0.001   7.563   6.853 -0.3569 -0.1809  0.0731
  442MOL0     N59586   0.211   7.422   7.632  0.0920  0.2901 -0.4182
  442MOL0     N59587   0.258   7.388   7.747 -1.0754  0.3472  0.3800
  442MOL0     C59588   1.307   6.833   8.330 -0.9628 -0.2679 -0.7371
  442MOL0     C59589   1.421   6.776   8.392 -0.1623  0.3202  0.4634
  442MOL0     C59590   1.725   6.689   8.730 -0.7513 -0.5696 -0.3568
  442MOL0     C59591   1.762   6.666   8.865 -0.1472 -0.4479  1.4323
  442MOL0     C59592   1.866   6.592   8.911 -0.4893  0.0495  0.1719
  442MOL0     C59593   1.954   6.537   8.822  0.6752 -0.4581 -0.0694
  442MOL0     O59594   2.057   6.456   8.860 -0.1824 -0.2785  0.5612
  442MOL0     C59595   2.155   6.422   8.757 -0.3457  0.0361  0.1481
  442MOL0     C59596   2.260   6.325   8.838  0.2192 -0.6206 -0.1592
  442MOL0     C59597   2.335   6.401   8.955 -0.1323 -0.3704 -0.5475
  442MOL0     C59598   2.354   6.552   8.934  0.5294 -0.0210  0.2163
  442MOL0     C59599   2.414   6.619   9.048 -0.3584 -0.0712 -0.1872
  442MOL0     C59600   2.444   6.688   9.146  0.4882 -0.1473  0.7156
  442MOL0     C59601   1.919   6.552   8.685 -0.1879  0.0974 -0.1235
  442MOL0     C59602   1.798   6.619   8.634 -1.2841 -0.5891  0.4664
  442MOL0     H59603   1.461   7.009   8.639 -0.7106  0.8366 -0.4470
  442MOL0     H59604   1.259   7.084   8.549 -2.0007  1.1231 -2.4813
  442MOL0     H59605   1.187   7.029   8.139 -0.7953 -0.7332 -0.6319
  442MOL0     H59606   1.093   6.887   8.173 -0.3198 -0.0250  1.4611
  442MOL0     H59607   0.894   7.061   8.221 -1.4686  2.2743 -0.7774
  442MOL0     H59608   1.004   7.185   8.192  0.4826  0.2401  1.0071
  442MOL0     H59609   1.034   7.112   7.961  1.0388 -0.6489  0.3302
  442MOL0     H59610   0.920   6.978   8.000 -3.4541  0.6594  1.3307
  442MOL0     H59611   0.748   7.138   8.080 -1.2144  0.9521 -1.9785
  442MOL0     H59612   0.849   7.277   8.017 -1.7430  1.3422  0.2728
  442MOL0     H59613   0.848   7.120   7.798 -2.0578 -1.4213 -2.3130
  442MOL0     H59614   0.684   7.079   7.867 -0.0244 -0.5661 -0.1299
  442MOL0     H59615   0.787   7.344   7.780 -0.1430 -0.1652 -1.0185
  442MOL0     H59616   0.672   7.266   7.693 -0.4813 -0.0481  0.6935
  442MOL0     H59617   0.589   7.326   7.971  0.5411  1.3115 -0.3545
  442MOL0     H59618   0.574   7.420   7.824 -2.1324 -0.4925 -0.7964
  442MOL0     H59619   0.389   7.276   7.929 -1.5081 -0.7445 -1.4227
  442MOL0     H59620   0.460   7.145   7.825 -0.5733  0.3749 -0.6817
  442MOL0     H59621   0.464   7.233   7.541 -0.3857  0.9360 -0.1534
  442MOL0     H59622   0.223   7.273   7.354  0.0488 -0.3837  2.4606
  442MOL0     H59623   0.164   7.429   7.372 -0.9842 -1.7652 -2.7537
  442MOL0     H59624   0.460   7.362   7.304  0.4544  0.7069  1.4861
  442MOL0     H59625   0.407   7.528   7.332 -1.6357  0.1021 -0.4922
  442MOL0     H59626   0.328   7.340   7.105  2.4838  0.1189 -2.2095
  442MOL0     H59627   0.430   7.476   7.079  0.4379  0.3802  0.3368
  442MOL0     H59628   0.275   7.648   7.125 -0.7727  1.0378 -1.6281
  442MOL0     H59629   0.156   7.548   7.196 -1.1117  2.6886 -1.4466
  442MOL0     H59630   0.272   7.747   6.939 -0.4809 -1.3538  1.7345
  442MOL0     H59631   0.251   7.945   6.672 -1.6854  1.1236 -1.6975
  442MOL0     H59632   0.114   8.023   6.755  0.9320  1.5567 -0.1268
  442MOL0     H59633   0.264   7.961   6.841  1.5501 -0.2824 -0.9030
  442MOL0     H59634  -0.137   7.741   6.342 -2.2668 -2.7902 -2.1897
  442MOL0     H59635  -0.290   7.767   6.146  1.4363  2.0221 -0.7633
  442MOL0     H59636  -0.658   7.978   6.188  1.4546 -0.2935  1.5881
  442MOL0     H59637  -0.576   8.099   6.094 -3.0690  0.0030  3.2184
  442MOL0     H59638  -0.723   8.039   5.925 -0.5190 -0.8909 -1.1604
  442MOL0     H59639  -0.588   7.935   5.888 -0.0830 -1.2381  0.2444
  442MOL0     H59640  -0.857   7.882   6.054 -1.9221 -2.8259 -1.1981
  442MOL0     H59641  -0.731   7.755   6.020 -2.2568  0.2770  1.1671
  442MOL0     H59642  -0.944   7.884   5.850  0.8285  1.1564 -0.3631
  442MOL0     H59643  -0.811   7.812   5.771 -1.9440 -0.2752 -0.9074
  442MOL0     H59644  -1.004   7.670   5.974 -0.2206 -2.9419 -0.6545
  442MOL0     H59645  -0.874   7.587   5.887  2.1573  1.7631  1.1125
  442MOL0     H59646  -1.103   7.736   5.749 -0.5668 -1.0633 -1.3267
  442MOL0     H59647  -0.973   7.646   5.671  1.6626  1.3350  0.6850
  442MOL0     H59648  -1.128   7.485   5.879 -0.4975 -1.8366 -0.0667
  442MOL0     H59649  -1.080   7.442   5.714 -2.6281 -1.8560 -0.3342
  442MOL0     H59650  -1.257   7.598   5.633 -3.1629  1.7433 -0.1172
  442MOL0     H59651  -1.308   7.628   5.796  0.8347 -0.6188  1.6681
  442MOL0     H59652  -0.555   8.001   6.361 -1.9319 -2.1728 -1.6166
  442MOL0     H59653  -0.414   7.973   6.573  0.0496 -0.1628 -0.8012
  442MOL0     H59654  -0.136   7.603   6.698  0.3456  0.9112 -0.3053
  442MOL0     H59655  -0.051   7.470   6.878  1.7361 -2.0368 -2.1443
  442MOL0     H59656   1.271   6.775   8.245  1.9348  0.1746 -2.3811
  442MOL0     H59657   1.464   6.691   8.342  0.2918  1.8576 -1.9273
  442MOL0     H59658   1.704   6.723   8.938  0.8418  1.0350  1.0961
  442MOL0     H59659   1.870   6.595   9.020 -2.6074 -0.7045  0.2986
  442MOL0     H59660   2.123   6.368   8.667  0.4662 -1.2047  0.5709
  442MOL0     H59661   2.191   6.514   8.711 -3.4278  1.2155 -0.1023
  442MOL0     H59662   2.331   6.274   8.771 -0.6174  0.0389 -1.5987
  442MOL0     H59663   2.200   6.244   8.880 -2.0063  0.3716 -1.2701
  442MOL0     H59664   2.438   6.365   8.953  0.9512  2.4906 -0.7825
  442MOL0     H59665   2.295   6.368   9.051  0.0432 -0.5198 -0.5258
  442MOL0     H59666   2.260   6.603   8.914 -0.2965 -1.6470 -0.2514
  442MOL0     H59667   2.413   6.554   8.842 -1.4940 -2.0077 -1.2401
  442MOL0     H59668   2.470   6.736   9.238 -0.0921 -0.7987  1.2295
  442MOL0     H59669   1.986   6.510   8.611 -2.9775 -0.8690 -2.2713
  442MOL0     H59670   1.773   6.637   8.530  1.3035 -4.6538 -1.1151
  443MOL0     O59671   3.746  10.446   2.444  0.1025  0.4604 -0.2144
  443MOL0     C59672   3.831  10.414   2.530  0.1578  0.1196 -0.3756
  443MOL0     O59673   3.798  10.365   2.657 -0.6223  0.7266 -0.1581
  443MOL0     C59674   3.665  10.357   2.701  0.5373 -0.0622  0.3367
  443MOL0     C59675   3.638  10.388   2.844 -0.1117 -0.2608 -0.3453
  443MOL0     C59676   3.508  10.413   2.892 -0.5638 -1.5730 -0.4842
  443MOL0     C59677   3.394  10.400   2.811  0.4720 -0.3611  0.6467
  443MOL0     O59678   3.263  10.410   2.850 -0.6284  0.4205  0.2019
  443MOL0     C59679   3.247  10.490   2.962  0.0126 -0.2403  0.1843
  443MOL0     C59680   3.091  10.478   2.993  0.4254 -0.6246  0.1280
  443MOL0     C59681   3.028  10.589   3.064 -0.6569 -0.3004 -0.0312
  443MOL0     C59682   2.878  10.610   3.051  0.0407  0.8596  0.2686
  443MOL0     C59683   2.830  10.699   3.169 -0.1024 -0.8604  0.0689
  443MOL0     C59684   2.681  10.725   3.156 -0.5035  0.3701  0.1103
  443MOL0     C59685   2.621  10.811   3.257 -0.0587 -0.1651 -0.1494
  443MOL0     C59686   2.480  10.750   3.305 -0.6529  0.1560  0.3576
  443MOL0     N59687   2.362  10.798   3.226  0.0936 -0.1281  0.7306
  443MOL0     C59688   2.268  10.878   3.279 -0.0343  0.9040 -0.5972
  443MOL0     C59689   2.156  10.855   3.203  0.6082 -0.7357  0.0223
  443MOL0     C59690   2.024  10.902   3.244 -0.1562  0.0781  0.8226
  443MOL0     C59691   1.962  11.011   3.156  0.1039  0.0591 -0.2394
  443MOL0     C59692   1.903  10.953   3.025  0.6743 -0.2991 -0.8000
  443MOL0     C59693   1.835  11.052   2.936  0.6104 -0.1131 -0.2790
  443MOL0     O59694   1.711  11.110   2.997  0.0422 -1.0985  0.1835
  443MOL0     C59695   1.588  11.053   2.968  0.1573 -0.8730  0.1198
  443MOL0     C59696   1.472  11.127   3.006 -0.6887 -0.5743 -0.6427
  443MOL0     C59697   1.336  11.083   2.983  0.8944  0.1630  0.8065
  443MOL0     C59698   1.233  11.179   3.029  0.7388 -0.4389  0.6063
  443MOL0     C59699   1.323  10.946   2.950  0.3316 -1.2109 -0.6186
  443MOL0     C59700   1.197  10.878   2.941  0.4061 -0.9422 -1.3574
  443MOL0     O59701   1.204  10.741   2.935  0.6768 -0.8760 -0.8110
  443MOL0     C59702   1.092  10.671   2.963  0.4460 -0.1106 -0.2305
  443MOL0     C59703   1.028  10.668   3.094 -0.5337  0.2440  0.5046
  443MOL0     C59704   0.932  10.573   3.132  0.3811 -0.6277  0.1896
  443MOL0     C59705   0.876  10.489   3.040 -0.0972 -0.0839  0.1788
  443MOL0     O59706   0.787  10.388   3.065  0.1186 -0.5586  0.4189
  443MOL0     C59707   0.702  10.406   3.173 -0.3288 -0.2635 -0.9256
  443MOL0     C59708   0.562  10.350   3.163  0.1075 -0.2895 -0.3935
  443MOL0     C59709   0.496  10.388   3.034 -0.5361  0.2308 -0.4205
  443MOL0     C59710   0.370  10.291   3.030  0.0015 -0.3676  0.1907
  443MOL0     C59711   0.266  10.325   2.919 -1.0686  0.1703 -0.2696
  443MOL0     C59712   0.130  10.245   2.938  0.1618  1.1204 -0.9110
  443MOL0     C59713   0.058  10.305   3.061  0.2110  0.4507 -0.4880
  443MOL0     C59714  -0.090  10.301   3.038 -0.2509  0.0912  0.3899
  443MOL0    Cl59715  -0.146  10.135   2.998  0.0048 -0.3040  0.2939
  443MOL0     C59716   0.931  10.501   2.915  1.2284 -0.2927 -0.2918
  443MOL0     C59717   1.035  10.580   2.876  0.4400 -0.5187 -0.1504
  443MOL0     O59718   1.088  10.945   2.944  0.1057  0.0415 -0.8626
  443MOL0     C59719   1.441  10.876   2.910 -0.3831  0.2504  0.0937
  443MOL0     C59720   1.571  10.925   2.921 -0.1309 -0.1195 -0.4858
  443MOL0     N59721   2.181  10.764   3.101  0.5465 -0.3415 -0.0055
  443MOL0     N59722   2.303  10.732   3.111 -0.9687 -0.0468  0.0316
  443MOL0     C59723   3.420  10.365   2.678  0.1770  0.5045 -0.1142
  443MOL0     C59724   3.544  10.341   2.619 -0.6780 -0.3257 -0.4750
  443MOL0     C59725   3.975  10.431   2.486 -0.7316  1.0020 -0.5176
  443MOL0     C59726   4.007  10.519   2.382 -0.8838 -0.1196  0.9008
  443MOL0     C59727   4.136  10.519   2.336  0.3606  0.4283 -0.9153
  443MOL0     C59728   4.242  10.453   2.397  0.5123 -0.2380 -0.3030
  443MOL0     O59729   4.363  10.466   2.336  0.1886  0.2953  0.1132
  443MOL0     C59730   4.465  10.406   2.407 -0.2698  0.0221  0.4240
  443MOL0     C59731   4.602  10.446   2.352  0.4882 -0.4374  0.4732
  443MOL0     C59732   4.625  10.409   2.195 -0.2895  1.5568  0.0925
  443MOL0     C59733   4.661  10.253   2.163  0.0714  0.4173 -0.0990
  443MOL0     C59734   4.551  10.168   2.200 -0.8679  0.1138  0.7869
  443MOL0     C59735   4.454  10.102   2.225  0.0175  0.3692  0.5186
  443MOL0     C59736   4.210  10.362   2.500 -0.2743  0.2307 -0.5643
  443MOL0     C59737   4.077  10.347   2.543 -0.6463 -0.0542 -0.1549
  443MOL0     H59738   3.714  10.408   2.919  0.8153  0.7041 -1.5057
  443MOL0     H59739   3.496  10.440   2.996  2.1173 -0.2131 -0.4393
  443MOL0     H59740   3.291  10.450   3.054 -3.4836  0.7600  2.4636
  443MOL0     H59741   3.277  10.593   2.943 -0.6726 -0.1780 -0.5445
  443MOL0     H59742   3.043  10.479   2.895 -0.3949  0.2111  0.5219
  443MOL0     H59743   3.068  10.389   3.052 -0.9637  1.0830  2.3205
  443MOL0     H59744   3.048  10.558   3.167 -0.1315  3.7431  1.2564
  443MOL0     H59745   3.095  10.673   3.043  1.2355 -1.8176 -0.3840
  443MOL0     H59746   2.841  10.640   2.953  0.9666  0.9688 -0.0592
  443MOL0     H59747   2.824  10.516   3.066  1.0845  0.6204  3.3325
  443MOL0     H59748   2.856  10.650   3.263  1.3606 -2.8077 -1.2718
  443MOL0     H59749   2.880  10.795   3.168 -0.1061 -0.8360  1.0343
  443MOL0     H59750   2.656  10.765   3.057 -0.0243 -0.0981 -0.2066
  443MOL0     H59751   2.637  10.625   3.156  0.1178  0.0421  2.7986
  443MOL0     H59752   2.675  10.834   3.350  0.1061 -0.0759 -0.2658
  443MOL0     H59753   2.595  10.906   3.209 -1.0522 -0.4436 -0.1822
  443MOL0     H59754   2.470  10.772   3.412 -0.3726 -0.0405  0.4225
  443MOL0     H59755   2.493  10.643   3.289  0.3089  0.2026  0.7527
  443MOL0     H59756   2.279  10.925   3.375  2.1764 -0.4368 -0.1240
  443MOL0     H59757   1.954  10.820   3.226 -2.3299  2.2614 -1.4958
  443MOL0     H59758   2.023  10.930   3.350  0.2203  0.8542  0.6284
  443MOL0     H59759   2.036  11.087   3.132 -0.4634  0.8002  0.3164
  443MOL0     H59760   1.883  11.064   3.209  0.4917 -0.6789  1.1275
  443MOL0     H59761   1.824  10.881   3.048  0.6033 -0.1082 -0.4183
  443MOL0     H59762   1.983  10.900   2.974 -0.2895 -0.2336 -2.4334
  443MOL0     H59763   1.805  11.007   2.841 -2.6521 -1.4133  1.2056
  443MOL0     H59764   1.914  11.126   2.923  0.9975 -0.4504  0.1326
  443MOL0     H59765   1.497  11.226   3.041  1.3874 -0.3984 -2.4686
  443MOL0     H59766   1.184  11.124   3.110  0.7134 -0.9975  0.2222
  443MOL0     H59767   1.277  11.274   3.060  3.0564 -0.8878 -1.0493
  443MOL0     H59768   1.155  11.203   2.956 -1.8321 -0.5847  3.1238
  443MOL0     H59769   1.066  10.735   3.171  1.1644  0.0502 -0.1163
  443MOL0     H59770   0.905  10.572   3.237 -2.4620  1.2829 -0.4057
  443MOL0     H59771   0.756  10.356   3.254  0.0908  1.2092 -0.2545
  443MOL0     H59772   0.685  10.513   3.193 -1.3309 -0.1077 -2.4400
  443MOL0     H59773   0.571  10.241   3.165  1.8313 -0.2026  2.3638
  443MOL0     H59774   0.503  10.379   3.251 -0.6836 -1.0455 -0.6621
  443MOL0     H59775   0.575  10.360   2.963 -2.3770 -1.1433 -2.0366
  443MOL0     H59776   0.475  10.495   3.023  3.7331  1.2129 -0.9064
  443MOL0     H59777   0.412  10.191   3.010 -0.9845 -0.4711 -1.4895
  443MOL0     H59778   0.319  10.288   3.127  0.2366  1.8916  0.4411
  443MOL0     H59779   0.313  10.302   2.823  1.1566 -1.6774  1.1665
  443MOL0     H59780   0.252  10.433   2.928 -0.8921  0.0817  1.3188
  443MOL0     H59781   0.078  10.254   2.843  2.2762 -2.1978 -2.5939
  443MOL0     H59782   0.144  10.139   2.961  0.8613  1.4032  0.0661
  443MOL0     H59783   0.096  10.405   3.084  1.5185  0.2876 -1.8292
  443MOL0     H59784   0.079  10.254   3.156  2.3225  1.6363 -0.2568
  443MOL0     H59785  -0.106  10.364   2.950  0.8838  2.1547  1.5987
  443MOL0     H59786  -0.140  10.355   3.119  2.3006  2.7832  0.3336
  443MOL0     H59787   0.903  10.428   2.840 -2.5840  1.6987 -1.0249
  443MOL0     H59788   1.089  10.581   2.782 -0.6886  1.2363 -0.8434
  443MOL0     H59789   1.441  10.776   2.867  0.4719 -0.0343  0.7365
  443MOL0     H59790   1.653  10.859   2.896  0.0988  0.6251 -1.8231
  443MOL0     H59791   3.327  10.345   2.624  0.5057 -1.0843 -0.1410
  443MOL0     H59792   3.541  10.317   2.513 -1.0867 -1.2334 -0.2688
  443MOL0     H59793   3.938  10.582   2.328  1.3801  0.3896 -1.6087
  443MOL0     H59794   4.154  10.584   2.251  0.8727 -0.1559 -1.2548
  443MOL0     H59795   4.453  10.435   2.512 -3.3702 -2.4417  0.9168
  443MOL0     H59796   4.454  10.297   2.395 -2.8492  0.0727  1.7730
  443MOL0     H59797   4.685  10.409   2.413  1.6924  1.4015  0.0279
  443MOL0     H59798   4.605  10.555   2.342 -1.6937 -0.4219 -0.6037
  443MOL0     H59799   4.715  10.462   2.165  0.5554  0.1574  0.0744
  443MOL0     H59800   4.533  10.438   2.143  0.5343  0.0511 -2.3726
  443MOL0     H59801   4.749  10.219   2.219  2.7917 -0.6252 -4.4647
  443MOL0     H59802   4.670  10.244   2.054 -1.5958 -0.6862 -0.1717
  443MOL0     H59803   4.377  10.031   2.249 -0.9505  0.4165 -2.1102
  443MOL0     H59804   4.293  10.316   2.551  0.4182  2.0052 -0.0103
  443MOL0     H59805   4.054  10.273   2.619 -0.2565  0.9566  0.9825
  444MOL0     O59806  10.600   4.855  11.116  0.4228 -0.6512  0.0755
  444MOL0     C59807  10.611   4.812  11.229  0.1640  0.1686 -0.6633
  444MOL0     O59808  10.506   4.767  11.303 -0.2101  0.0069  0.1599
  444MOL0     C59809  10.383   4.764  11.254  0.0215 -0.1224  0.0656
  444MOL0     C59810  10.365   4.687  11.134  0.1077  0.3047  0.3871
  444MOL0     C59811  10.242   4.686  11.077  0.1235  0.5851 -0.0467
  444MOL0     C59812  10.132   4.751  11.129  0.0949 -0.1628  0.2524
  444MOL0     O59813  10.006   4.727  11.075 -0.3216  0.1945  0.3589
  444MOL0     C59814   9.898   4.798  11.138  0.2803  0.6734  0.0863
  444MOL0     C59815   9.781   4.775  11.045 -0.0912 -0.1163 -0.9124
  444MOL0     C59816   9.652   4.836  11.089  0.2398  0.1378 -0.1449
  444MOL0     C59817   9.539   4.789  10.999  0.0674 -0.1597 -0.0025
  444MOL0     C59818   9.401   4.830  11.046  0.2264  0.0818 -0.4068
  444MOL0     C59819   9.379   4.974  11.034 -0.5826 -0.3425  0.1368
  444MOL0     C59820   9.232   5.017  11.059  0.1609 -0.0709 -0.4602
  444MOL0     C59821   9.217   5.168  11.028  0.0126  0.1091 -0.0218
  444MOL0     N59822   9.107   5.220  11.106  0.3077 -1.3049  0.6409
  444MOL0     C59823   8.971   5.195  11.081  0.5790  0.1340 -0.6366
  444MOL0     C59824   8.898   5.260  11.173  0.8000 -0.0247  0.2757
  444MOL0     C59825   8.746   5.246  11.192  0.5011 -0.0255  0.7427
  444MOL0     C59826   8.658   5.331  11.100 -0.3304  0.2064 -0.1535
  444MOL0     C59827   8.648   5.484  11.129  0.2816 -0.2553 -0.4850
  444MOL0     C59828   8.557   5.520  11.247  0.5789  0.4439  0.5089
  444MOL0     O59829   8.423   5.496  11.215 -0.1896  0.0623  0.2458
  444MOL0     C59830   8.354   5.574  11.124  0.3650  0.0939 -0.5955
  444MOL0     C59831   8.397   5.697  11.069  0.4706  0.2483 -0.6418
  444MOL0     C59832   8.307   5.768  10.984  0.6261 -0.0112 -0.1447
  444MOL0     C59833   8.349   5.912  10.960 -1.0395  0.0044 -0.8688
  444MOL0     C59834   8.189   5.709  10.930 -0.2355 -0.0466 -0.2773
  444MOL0     C59835   8.096   5.779  10.823  0.0358 -0.4768 -0.6584
  444MOL0     O59836   8.123   5.908  10.788 -0.4044 -0.9947 -0.4177
  444MOL0     C59837   8.028   5.979  10.715  0.1937 -0.4433  0.1709
  444MOL0     C59838   7.889   5.986  10.750  0.0905  0.7960  0.5150
  444MOL0     C59839   7.811   6.077  10.676 -0.0370 -0.9726 -0.0600
  444MOL0     C59840   7.859   6.177  10.589  0.0145  0.2982  0.7194
  444MOL0     O59841   7.779   6.271  10.530 -0.2177  0.6085  0.1450
  444MOL0     C59842   7.641   6.243  10.529  0.7370  0.5491  0.1540
  444MOL0     C59843   7.563   6.332  10.435  0.5976 -1.1298  0.7809
  444MOL0     C59844   7.411   6.297  10.457 -0.0638  0.6734  0.3248
  444MOL0     C59845   7.317   6.410  10.417 -0.5739 -0.4141  0.0653
  444MOL0     C59846   7.171   6.375  10.406 -0.4481  0.6160  0.1623
  444MOL0     C59847   7.098   6.475  10.326  0.7428  0.5278  0.0027
  444MOL0     C59848   6.960   6.502  10.392  0.4733  0.6432  0.3870
  444MOL0     C59849   6.890   6.594  10.287 -0.0878  0.4345  0.2728
  444MOL0    Cl59850   6.843   6.506  10.142 -0.1366  0.2129  0.2734
  444MOL0     C59851   7.998   6.171  10.556 -0.3139  0.4621 -0.0252
  444MOL0     C59852   8.081   6.073  10.620  0.0778 -0.3148 -0.7555
  444MOL0     O59853   7.996   5.716  10.784  0.0544  0.4525 -0.3707
  444MOL0     C59854   8.160   5.580  10.982  0.0995 -0.3505 -1.2255
  444MOL0     C59855   8.237   5.510  11.073 -0.6206  0.0324  0.9084
  444MOL0     N59856   8.981   5.342  11.245  0.3699 -0.2051 -0.0456
  444MOL0     N59857   9.100   5.302  11.220 -0.2242  1.1872 -0.0235
  444MOL0     C59858  10.149   4.830  11.247  0.0359 -0.3529 -0.0380
  444MOL0     C59859  10.277   4.838  11.309  0.0432 -0.0985  0.2796
  444MOL0     C59860  10.723   4.846  11.319  1.0604  0.3433  0.6836
  444MOL0     C59861  10.709   4.830  11.458 -1.0476  0.5652  0.5623
  444MOL0     C59862  10.815   4.879  11.537 -0.0320 -0.1091  0.4838
  444MOL0     C59863  10.933   4.940  11.479  0.1331  1.0460 -1.0562
  444MOL0     O59864  11.040   4.983  11.559  0.0302  0.0845  0.6761
  444MOL0     C59865  11.006   5.036  11.686  0.6024 -0.5679 -0.2199
  444MOL0     C59866  11.116   5.139  11.736  0.3871  0.3323  0.0519
  444MOL0     C59867  11.103   5.269  11.648 -0.2618  0.7416 -0.0929
  444MOL0     C59868  11.140   5.394  11.730  0.4219 -0.1007 -0.9614
  444MOL0     C59869  11.023   5.451  11.783 -0.0250 -0.7179 -0.4578
  444MOL0     C59870  10.923   5.500  11.834 -0.4833 -0.2858  0.0684
  444MOL0     C59871  10.938   4.955  11.347 -0.3620 -0.3729  1.0928
  444MOL0     C59872  10.833   4.915  11.265 -0.9837 -0.1395  0.0379
  444MOL0     H59873  10.448   4.631  11.091  2.2471  1.8796  2.2697
  444MOL0     H59874  10.225   4.616  10.996 -2.1272 -0.8087  1.5164
  444MOL0     H59875   9.886   4.751  11.236  0.7610 -0.4994 -0.3942
  444MOL0     H59876   9.921   4.904  11.147  1.4808  0.4227  0.1410
  444MOL0     H59877   9.821   4.787  10.944  1.9341  0.3442 -0.1210
  444MOL0     H59878   9.753   4.670  11.054 -1.6266  0.1167 -2.5805
  444MOL0     H59879   9.644   4.797  11.190 -0.1350 -0.8310 -0.5439
  444MOL0     H59880   9.657   4.946  11.086 -1.1607  0.2331 -3.2902
  444MOL0     H59881   9.559   4.822  10.897 -0.8558  0.7651  0.1019
  444MOL0     H59882   9.537   4.679  10.995 -0.8872 -0.1695  0.3840
  444MOL0     H59883   9.325   4.787  10.980 -0.8230  1.0890  0.1075
  444MOL0     H59884   9.377   4.800  11.148  2.1152  2.8091  0.9662
  444MOL0     H59885   9.435   5.032  11.108 -3.0374  2.7003 -0.1728
  444MOL0     H59886   9.414   4.996  10.933  0.4486  1.4255  0.8311
  444MOL0     H59887   9.157   4.952  11.013  0.2699 -3.0388  3.0835
  444MOL0     H59888   9.211   4.996  11.165 -1.3929  0.9655 -0.5348
  444MOL0     H59889   9.204   5.173  10.919 -0.1477  0.9778  0.0311
  444MOL0     H59890   9.317   5.205  11.056  0.5875 -1.2219 -0.2442
  444MOL0     H59891   8.927   5.133  11.004  0.7486 -0.1208 -0.5324
  444MOL0     H59892   8.714   5.144  11.170  1.7879 -0.4482  0.7969
  444MOL0     H59893   8.719   5.284  11.292  3.5215  0.0912  1.6050
  444MOL0     H59894   8.557   5.291  11.097 -1.9629  3.8519  0.7758
  444MOL0     H59895   8.700   5.323  10.999 -2.2806 -2.9636 -0.8439
  444MOL0     H59896   8.620   5.530  11.034  2.9136  3.3221  0.2718
  444MOL0     H59897   8.749   5.520  11.150  0.5877 -2.1886  1.9013
  444MOL0     H59898   8.574   5.626  11.271  0.1389 -0.1263  3.7991
  444MOL0     H59899   8.577   5.464  11.338 -0.1277  1.0457  1.0518
  444MOL0     H59900   8.488   5.746  11.102 -0.4124  1.4226  0.1458
  444MOL0     H59901   8.266   5.983  10.964  0.2776  1.7753 -2.9024
  444MOL0     H59902   8.416   5.953  11.036 -1.0825 -1.2414 -0.1256
  444MOL0     H59903   8.396   5.923  10.862 -1.5112  3.4381 -0.8379
  444MOL0     H59904   7.836   5.933  10.828 -1.8409  1.8905  0.0185
  444MOL0     H59905   7.711   6.071  10.719  0.4804  2.2875  1.8951
  444MOL0     H59906   7.611   6.141  10.504 -1.7248  0.6231  2.3774
  444MOL0     H59907   7.601   6.259  10.630  1.1140 -1.9576  0.7675
  444MOL0     H59908   7.569   6.439  10.456 -0.3152 -0.4931 -1.7800
  444MOL0     H59909   7.605   6.309  10.337 -0.2822 -1.0805  0.3798
  444MOL0     H59910   7.392   6.273  10.562  1.0407 -2.7536 -0.1646
  444MOL0     H59911   7.386   6.215  10.389  3.5293  0.9862 -1.5925
  444MOL0     H59912   7.325   6.482  10.499 -2.2502  3.4865 -2.8621
  444MOL0     H59913   7.346   6.450  10.319 -0.2924 -1.3903 -0.2553
  444MOL0     H59914   7.131   6.374  10.507 -1.5096  2.4816 -0.2070
  444MOL0     H59915   7.169   6.274  10.363  1.1308  0.4463  0.4072
  444MOL0     H59916   7.156   6.568  10.321  0.4451  0.7037 -0.2332
  444MOL0     H59917   7.083   6.441  10.223 -1.1836  0.2288  0.3415
  444MOL0     H59918   6.978   6.545  10.491 -0.2031 -0.1984  0.8934
  444MOL0     H59919   6.899   6.413  10.414  1.4258  0.0944  0.8771
  444MOL0     H59920   6.953   6.679  10.261  1.8722 -1.5762 -2.1291
  444MOL0     H59921   6.801   6.644  10.325  1.2131  2.4283  0.8457
  444MOL0     H59922   8.040   6.234  10.478  3.0233 -2.5364 -0.9102
  444MOL0     H59923   8.184   6.061  10.588  0.0168 -0.2269 -0.9869
  444MOL0     H59924   8.069   5.524  10.959 -2.0371 -0.3696  5.3570
  444MOL0     H59925   8.213   5.409  11.105  0.3756 -0.7206 -0.6080
  444MOL0     H59926  10.072   4.894  11.289  0.1567  0.1720 -0.6026
  444MOL0     H59927  10.307   4.895  11.396  6.6912 -1.4259 -0.5631
  444MOL0     H59928  10.625   4.787  11.512 -0.3874  0.1699  1.2969
  444MOL0     H59929  10.800   4.875  11.644  1.1869  0.3756  0.6908
  444MOL0     H59930  10.904   5.074  11.692  0.4905 -0.5043 -1.9799
  444MOL0     H59931  11.006   4.954  11.758 -0.4244  0.8256  1.4466
  444MOL0     H59932  11.214   5.092  11.733 -0.4266 -1.3966 -0.4141
  444MOL0     H59933  11.102   5.170  11.840 -0.6989 -2.1693  0.7123
  444MOL0     H59934  11.003   5.286  11.607 -0.2881  1.3343  0.2035
  444MOL0     H59935  11.177   5.265  11.567  1.6520  1.9505  1.4938
  444MOL0     H59936  11.195   5.461  11.664  0.3867 -1.0031 -1.9381
  444MOL0     H59937  11.208   5.371  11.813  3.1714  1.2549 -2.6761
  444MOL0     H59938  10.832   5.532  11.881 -0.0358  0.9849  0.1318
  444MOL0     H59939  11.017   5.015  11.300 -4.3752  3.4780 -1.5360
  444MOL0     H59940  10.841   4.928  11.157 -1.1573 -0.3673 -0.0049
  445MOL0     O59941   7.320   4.729   6.177  0.3693  0.7441 -0.2859
  445MOL0     C59942   7.214   4.685   6.130 -0.5012  0.8097  0.1335
  445MOL0     O59943   7.103   4.653   6.204 -0.4346  0.2818 -0.5865
  445MOL0     C59944   7.095   4.664   6.343 -0.1874 -0.5787 -0.5812
  445MOL0     C59945   6.967   4.710   6.386 -0.3297  0.0897  0.5673
  445MOL0     C59946   6.940   4.749   6.516 -0.4527  1.2238  0.0322
  445MOL0     C59947   7.036   4.718   6.612 -0.3609 -0.0131 -0.7128
  445MOL0     O59948   6.987   4.735   6.743 -0.2161 -0.3981  0.4487
  445MOL0     C59949   7.077   4.704   6.848  0.2942 -0.7438  0.9205
  445MOL0     C59950   7.024   4.740   6.988  1.2506 -0.1354 -0.0950
  445MOL0     C59951   6.887   4.670   7.024  0.0377 -0.3381  0.7818
  445MOL0     C59952   6.837   4.715   7.158 -0.4929  0.0148  0.0956
  445MOL0     C59953   6.702   4.650   7.195 -0.5962 -0.1053 -0.2573
  445MOL0     C59954   6.666   4.710   7.331  0.0607 -0.0925  0.6987
  445MOL0     C59955   6.522   4.680   7.367 -0.1010  0.6056  0.0980
  445MOL0     C59956   6.416   4.768   7.298 -0.2935  0.5901  0.5484
  445MOL0     N59957   6.283   4.709   7.333 -0.5017 -1.2335 -0.0286
  445MOL0     C59958   6.216   4.727   7.449  0.9241 -0.8449 -0.6718
  445MOL0     C59959   6.101   4.658   7.438 -0.3942  0.0444 -0.6027
  445MOL0     C59960   6.009   4.644   7.557  0.4353  0.0541 -0.3374
  445MOL0     C59961   5.864   4.700   7.527  0.7411 -0.1105 -0.0444
  445MOL0     C59962   5.764   4.654   7.631  0.6359 -0.0836 -0.0466
  445MOL0     C59963   5.638   4.725   7.635  0.6179 -0.2869 -0.5211
  445MOL0     O59964   5.577   4.697   7.511 -0.6339  0.3441  0.8016
  445MOL0     C59965   5.462   4.617   7.519  0.0488  0.5377 -0.4574
  445MOL0     C59966   5.447   4.494   7.451  0.2050 -0.7612 -0.0122
  445MOL0     C59967   5.335   4.419   7.446  0.6236  0.4561 -0.5085
  445MOL0     C59968   5.349   4.291   7.367  0.3309  1.1490 -0.2184
  445MOL0     C59969   5.218   4.459   7.522 -0.7061 -0.0100  0.6704
  445MOL0     C59970   5.092   4.388   7.529 -0.2022  0.5541  0.0394
  445MOL0     O59971   4.984   4.461   7.570  0.2993 -0.2542 -0.7879
  445MOL0     C59972   4.866   4.398   7.558  0.6405  0.5591  0.2368
  445MOL0     C59973   4.818   4.372   7.427 -1.0205 -0.2831 -0.2667
  445MOL0     C59974   4.699   4.303   7.410 -0.1699 -0.3925  0.2180
  445MOL0     C59975   4.624   4.264   7.524  0.7419  0.0969 -0.2006
  445MOL0     O59976   4.503   4.201   7.497 -0.3488  0.7366 -0.4131
  445MOL0     C59977   4.460   4.104   7.600 -0.4695  1.1099 -0.8855
  445MOL0     C59978   4.326   4.047   7.542  0.0303 -0.5943 -0.5332
  445MOL0     C59979   4.256   3.952   7.639  0.6980 -0.3410 -0.2022
  445MOL0     C59980   4.130   3.889   7.583  0.5289 -0.2486 -0.3508
  445MOL0     C59981   4.089   3.771   7.671  0.7387 -0.1784 -0.1261
  445MOL0     C59982   3.991   3.685   7.600  0.2763  0.5692 -0.3949
  445MOL0     C59983   4.063   3.589   7.505  0.2723  0.8355 -0.2424
  445MOL0     C59984   3.956   3.514   7.419  0.4077 -0.1528 -0.1048
  445MOL0    Cl59985   4.045   3.418   7.301  0.2165  0.1028 -0.0596
  445MOL0     C59986   4.672   4.292   7.652  0.5735 -0.0800 -0.9540
  445MOL0     C59987   4.788   4.359   7.674 -0.7552 -0.8471  1.2200
  445MOL0     O59988   5.097   4.269   7.504  0.5156  1.1529  0.2598
  445MOL0     C59989   5.232   4.579   7.592  1.0644 -0.9938 -0.0754
  445MOL0     C59990   5.347   4.659   7.589 -0.0646  0.4116  0.1025
  445MOL0     N59991   6.090   4.607   7.309 -0.2637 -0.1543 -1.0924
  445MOL0     N59992   6.203   4.636   7.248  0.0975 -0.4666 -1.0588
  445MOL0     C59993   7.169   4.680   6.578  0.5185  0.0899 -0.8633
  445MOL0     C59994   7.201   4.655   6.442 -0.4401 -0.9489  0.1015
  445MOL0     C59995   7.216   4.647   5.988  0.3064  0.4534 -0.1347
  445MOL0     C59996   7.120   4.555   5.941 -0.9711  0.3781 -0.2355
  445MOL0     C59997   7.134   4.516   5.811 -0.2416 -0.4671  0.2667
  445MOL0     C59998   7.238   4.552   5.731 -0.6421 -0.0517  0.5276
  445MOL0     O59999   7.236   4.502   5.602  0.0053 -0.3971 -0.7053
  445MOL0     C60000   7.357   4.521   5.520  0.6159 -0.6369 -0.2733
  445MOL0     C60001   7.482   4.441   5.560 -0.5916 -0.5372 -0.8124
  445MOL0     C60002   7.590   4.477   5.458  0.3651  0.6465 -0.6829
  445MOL0     C60003   7.731   4.439   5.485  0.7220  0.0937 -0.2472
  445MOL0     C60004   7.739   4.304   5.543  0.1968 -1.0132  0.6137
  445MOL0     C60005   7.773   4.188   5.580  0.2755  0.0981 -0.4017
  445MOL0     C60006   7.338   4.645   5.776 -0.0155 -0.4336  0.2889
  445MOL0     C60007   7.322   4.696   5.902  0.1704  0.3798 -0.2469
  445MOL0     H60008   6.892   4.709   6.308  1.8994 -1.6875 -1.7238
  445MOL0     H60009   6.845   4.790   6.549  0.1603  0.6425  2.8342
  445MOL0     H60010   7.087   4.596   6.834 -1.6948 -0.6063 -2.6256
  445MOL0     H60011   7.177   4.749   6.843  1.0100 -2.2347  1.2891
  445MOL0     H60012   7.095   4.714   7.067  1.7248 -0.6445 -0.6724
  445MOL0     H60013   7.004   4.848   6.983 -0.6856 -0.4725 -4.1535
  445MOL0     H60014   6.820   4.697   6.942 -1.3581 -2.4577  1.1604
  445MOL0     H60015   6.894   4.561   7.028 -0.5058 -0.6042 -2.5640
  445MOL0     H60016   6.912   4.684   7.232 -2.9754  0.3497  2.9341
  445MOL0     H60017   6.816   4.822   7.162  0.3734  0.1612  2.9195
  445MOL0     H60018   6.631   4.680   7.118  1.4943  0.0929 -2.2263
  445MOL0     H60019   6.702   4.541   7.195 -2.2799 -0.1229 -0.2801
  445MOL0     H60020   6.733   4.673   7.409  0.2285  0.9802  1.0757
  445MOL0     H60021   6.687   4.817   7.325 -1.4843  0.3026  1.8537
  445MOL0     H60022   6.497   4.575   7.355  0.6862  0.4562 -0.2600
  445MOL0     H60023   6.505   4.696   7.474 -0.8522  1.2252 -0.1055
  445MOL0     H60024   6.439   4.751   7.192 -1.9667 -0.1336  0.2591
  445MOL0     H60025   6.434   4.873   7.323  1.0159  0.8880 -1.3920
  445MOL0     H60026   6.259   4.769   7.539 -2.0700 -1.6855  1.2733
  445MOL0     H60027   6.001   4.536   7.574 -1.7506  0.2057 -0.0689
  445MOL0     H60028   6.035   4.686   7.654 -0.6949 -0.7213  0.3301
  445MOL0     H60029   5.822   4.672   7.430 -3.4263  2.1519  0.8696
  445MOL0     H60030   5.866   4.810   7.534  1.5045 -0.2578  3.5350
  445MOL0     H60031   5.813   4.677   7.726 -1.3554 -0.3791  1.0901
  445MOL0     H60032   5.747   4.546   7.622 -3.4738  0.3900  0.4520
  445MOL0     H60033   5.656   4.832   7.645  2.4763 -0.5698 -0.5358
  445MOL0     H60034   5.582   4.701   7.726  2.0070  2.9674  1.3689
  445MOL0     H60035   5.533   4.467   7.392  1.5304  1.2220  0.8943
  445MOL0     H60036   5.333   4.199   7.423  3.2783 -2.0314 -3.9606
  445MOL0     H60037   5.284   4.289   7.279 -1.7092  0.9525  1.2418
  445MOL0     H60038   5.454   4.285   7.337  0.7013  1.2514  1.0000
  445MOL0     H60039   4.890   4.406   7.354  0.4433  3.0293  2.4512
  445MOL0     H60040   4.659   4.285   7.311  1.2714  1.4553 -0.7774
  445MOL0     H60041   4.534   4.024   7.595  0.0389  1.6387 -2.6822
  445MOL0     H60042   4.441   4.147   7.699  2.4416  2.2192 -0.6831
  445MOL0     H60043   4.260   4.132   7.523 -0.0007  0.0117  1.9815
  445MOL0     H60044   4.346   4.003   7.444 -2.9114 -0.0731 -1.4821
  445MOL0     H60045   4.241   4.004   7.734  2.6902 -1.9972  1.0980
  445MOL0     H60046   4.334   3.877   7.649  0.5561 -0.5660 -0.7486
  445MOL0     H60047   4.050   3.964   7.587 -0.8465 -1.6050 -1.2438
  445MOL0     H60048   4.155   3.865   7.479  1.3998  0.0998 -0.2284
  445MOL0     H60049   4.038   3.803   7.762  0.2740  1.8885 -1.0539
  445MOL0     H60050   4.179   3.713   7.693  0.7927 -0.2435 -0.5102
  445MOL0     H60051   3.928   3.631   7.672  1.5401  1.6335  1.6167
  445MOL0     H60052   3.935   3.749   7.531  0.3220 -0.1470 -1.1105
  445MOL0     H60053   4.117   3.510   7.558 -1.9013 -0.1723  0.5940
  445MOL0     H60054   4.137   3.643   7.445  3.8037 -0.9969  2.1058
  445MOL0     H60055   3.888   3.575   7.359 -1.3840 -1.5826  0.3551
  445MOL0     H60056   3.904   3.460   7.499  0.6079  1.0479  0.8590
  445MOL0     H60057   4.620   4.262   7.742  2.0459  1.7432  0.5949
  445MOL0     H60058   4.828   4.372   7.774  2.4031 -0.3091  0.0046
  445MOL0     H60059   5.147   4.613   7.651  1.1541 -1.2212  0.1837
  445MOL0     H60060   5.336   4.755   7.639  0.5030  0.4354  0.1792
  445MOL0     H60061   7.239   4.655   6.656 -1.1852  0.5308  0.8952
  445MOL0     H60062   7.303   4.625   6.418 -0.6931 -1.1718 -0.7130
  445MOL0     H60063   7.044   4.522   6.011  0.4154 -0.4174  0.9584
  445MOL0     H60064   7.057   4.462   5.755  0.6532 -0.7370 -0.7359
  445MOL0     H60065   7.326   4.499   5.417  2.4301  0.2466 -1.0588
  445MOL0     H60066   7.385   4.626   5.525  0.9626 -0.7799  1.1871
  445MOL0     H60067   7.462   4.334   5.562  0.6846 -0.7858  1.2964
  445MOL0     H60068   7.514   4.478   5.658 -1.4672  0.4711 -0.8862
  445MOL0     H60069   7.583   4.586   5.443 -0.8367  0.7092  0.1944
  445MOL0     H60070   7.555   4.435   5.363 -2.7354  2.8428 -0.6801
  445MOL0     H60071   7.781   4.507   5.554  0.9931 -1.7823  1.4848
  445MOL0     H60072   7.800   4.438   5.400  1.7283 -1.1922  0.5442
  445MOL0     H60073   7.798   4.091   5.618  0.3405  0.9069  1.7721
  445MOL0     H60074   7.428   4.675   5.725  0.4826  1.2926  2.0449
  445MOL0     H60075   7.390   4.775   5.932 -1.0193  1.3899 -0.1853
  446MOL0     O60076  11.044  10.598   2.811  0.4450  0.2556  0.3714
  446MOL0     C60077  11.086  10.514   2.729 -0.1946  0.6753 -0.2456
  446MOL0     O60078  11.014  10.421   2.670  0.5543 -0.4801 -0.0890
  446MOL0     C60079  10.879  10.407   2.694  0.1730  0.5892  1.1512
  446MOL0     C60080  10.792  10.405   2.586  1.2491  0.7959 -1.2381
  446MOL0     C60081  10.655  10.370   2.613 -0.3101  0.2442  0.3641
  446MOL0     C60082  10.612  10.336   2.740 -0.2915  0.6261  1.0689
  446MOL0     O60083  10.476  10.300   2.760  0.0883 -0.7084 -0.1126
  446MOL0     C60084  10.391  10.272   2.646  0.5251 -0.1570 -0.6503
  446MOL0     C60085  10.258  10.203   2.673 -0.0631 -0.6574 -0.1049
  446MOL0     C60086  10.140  10.302   2.695  0.0704 -0.4686  0.3079
  446MOL0     C60087  10.013  10.230   2.723 -0.0599  0.3264 -0.1195
  446MOL0     C60088   9.897  10.328   2.719  0.1593 -0.1063  0.3843
  446MOL0     C60089   9.904  10.429   2.830 -0.4724  0.0912 -0.6929
  446MOL0     C60090   9.768  10.481   2.871 -0.5898 -0.1520  0.0397
  446MOL0     C60091   9.687  10.539   2.755  0.7837 -0.3026 -0.1683
  446MOL0     N60092   9.537  10.532   2.776 -0.1381 -0.5618 -0.4697
  446MOL0     C60093   9.464  10.416   2.772  1.6547  0.6792 -0.3331
  446MOL0     C60094   9.335  10.455   2.797  0.1514 -0.4286 -0.0290
  446MOL0     C60095   9.209  10.377   2.826  0.3055  0.0181  0.9868
  446MOL0     C60096   9.145  10.348   2.679  0.3956 -0.3079  0.7040
  446MOL0     C60097   9.057  10.469   2.643 -0.0006  0.0728  0.7292
  446MOL0     C60098   8.925  10.413   2.589  0.4455 -0.8126  0.0899
  446MOL0     O60099   8.845  10.535   2.550  0.2132 -0.1063 -0.6413
  446MOL0     C60100   8.742  10.524   2.464  1.3479 -0.0282 -0.3792
  446MOL0     C60101   8.711  10.626   2.381 -1.1819 -0.3649  0.1895
  446MOL0     C60102   8.604  10.620   2.291  0.4875  0.2758 -0.2985
  446MOL0     C60103   8.583  10.733   2.194 -0.0322 -0.2571 -0.4439
  446MOL0     C60104   8.516  10.506   2.297  0.0233 -0.2899  0.0666
  446MOL0     C60105   8.383  10.490   2.228  0.5492  0.6057 -0.1325
  446MOL0     O60106   8.295  10.426   2.310  0.3053  1.0452 -0.4110
  446MOL0     C60107   8.158  10.407   2.286  0.0287  0.0932  0.0128
  446MOL0     C60108   8.096  10.290   2.339 -0.5902  0.1779  0.6978
  446MOL0     C60109   7.965  10.264   2.310  0.5009 -0.1269  0.4267
  446MOL0     C60110   7.892  10.354   2.229  0.3039  0.7866 -0.4398
  446MOL0     O60111   7.766  10.312   2.205 -0.1584 -0.1006 -0.0983
  446MOL0     C60112   7.685  10.405   2.122  0.2578  0.5138  0.2210
  446MOL0     C60113   7.547  10.356   2.125  0.3092  0.0291  0.4109
  446MOL0     C60114   7.473  10.387   2.258  0.2594  0.4654 -0.0282
  446MOL0     C60115   7.328  10.341   2.255  0.3942  0.5438  0.3441
  446MOL0     C60116   7.231  10.400   2.367  0.5201  0.5113 -0.1823
  446MOL0     C60117   7.124  10.311   2.425  0.2492 -0.0253 -0.9015
  446MOL0     C60118   7.064  10.358   2.559  0.0940  0.1050 -0.0904
  446MOL0     C60119   6.953  10.263   2.590  0.5677  0.2982 -0.1166
  446MOL0    Cl60120   7.002  10.099   2.641  0.1019  0.2196 -0.4367
  446MOL0     C60121   7.950  10.473   2.186  0.2844 -0.2869 -0.5502
  446MOL0     C60122   8.080  10.504   2.222  0.2989 -0.5404  0.5667
  446MOL0     O60123   8.354  10.548   2.124 -0.4469 -0.0518  0.3210
  446MOL0     C60124   8.545  10.412   2.389 -0.4583  0.1639 -0.0290
  446MOL0     C60125   8.655  10.411   2.477  0.9854 -0.2018  0.2206
  446MOL0     N60126   9.337  10.591   2.821 -0.0638 -0.3348  0.1821
  446MOL0     N60127   9.452  10.635   2.811  0.2228  0.2895 -0.1600
  446MOL0     C60128  10.695  10.356   2.854  0.3187 -0.1474  0.2076
  446MOL0     C60129  10.836  10.384   2.827  0.8994 -0.4029  0.3197
  446MOL0     C60130  11.232  10.502   2.691 -0.4851  0.0708  0.8411
  446MOL0     C60131  11.279  10.411   2.593 -0.6569  0.1272 -0.0446
  446MOL0     C60132  11.417  10.415   2.558 -0.2853 -1.1134 -0.1956
  446MOL0     C60133  11.503  10.508   2.618 -0.1381  0.5126 -0.4183
  446MOL0     O60134  11.625  10.518   2.569  0.0646 -0.3052 -0.6701
  446MOL0     C60135  11.715  10.631   2.604 -0.4253  0.1918 -0.3808
  446MOL0     C60136  11.844  10.572   2.683 -0.0648  0.2392 -0.6081
  446MOL0     C60137  11.911  10.472   2.583 -0.1253  0.3396 -0.0020
  446MOL0     C60138  12.056  10.437   2.631  0.4789 -0.4444 -0.0906
  446MOL0     C60139  12.146  10.542   2.584  0.9883  0.3311  0.2081
  446MOL0     C60140  12.231  10.629   2.551 -0.7759 -0.3471 -0.0350
  446MOL0     C60141  11.459  10.579   2.728  0.5306 -0.6754  0.2561
  446MOL0     C60142  11.330  10.580   2.763  0.8414 -1.0591  0.3305
  446MOL0     H60143  10.827  10.426   2.485 -0.0037  1.1878 -1.6180
  446MOL0     H60144  10.586  10.367   2.530  0.7240 -0.2499 -0.5094
  446MOL0     H60145  10.363  10.366   2.597 -0.8443 -0.8192 -1.2049
  446MOL0     H60146  10.434  10.197   2.579 -0.0662  0.0817 -1.3221
  446MOL0     H60147  10.223  10.157   2.580  2.6848 -1.9964 -0.5513
  446MOL0     H60148  10.268  10.131   2.755 -2.2366 -0.9622 -0.0350
  446MOL0     H60149  10.167  10.368   2.779  0.8366  0.7214 -0.8352
  446MOL0     H60150  10.130  10.366   2.607 -2.3673  0.0813  0.9026
  446MOL0     H60151  10.003  10.150   2.649 -1.1927  0.1375  0.2219
  446MOL0     H60152  10.019  10.190   2.824  3.0770 -0.2263 -0.4480
  446MOL0     H60153   9.906  10.383   2.625 -0.1819 -2.2756 -1.0046
  446MOL0     H60154   9.809  10.264   2.730 -0.9349  1.4505  0.9524
  446MOL0     H60155   9.951  10.390   2.921 -2.0004  2.0492  1.0451
  446MOL0     H60156   9.961  10.518   2.803 -1.7174  1.4718  0.9729
  446MOL0     H60157   9.710  10.400   2.915 -1.9601  0.8407  0.1533
  446MOL0     H60158   9.777  10.553   2.953 -0.6180 -1.0959  0.8902
  446MOL0     H60159   9.708  10.489   2.660  2.9101  1.1333 -0.5312
  446MOL0     H60160   9.710  10.646   2.742  0.9022 -0.2033  0.7962
  446MOL0     H60161   9.503  10.315   2.767 -0.3904 -0.2502  0.9153
  446MOL0     H60162   9.238  10.282   2.871 -2.3131 -2.2980 -1.7279
  446MOL0     H60163   9.138  10.427   2.892 -1.9192  0.5979 -1.6373
  446MOL0     H60164   9.092  10.253   2.689 -1.3972  0.3295 -1.7404
  446MOL0     H60165   9.222  10.339   2.602 -0.5831 -0.5720 -0.2742
  446MOL0     H60166   9.107  10.543   2.580  1.9999 -1.0930  0.8827
  446MOL0     H60167   9.035  10.531   2.731  1.2538  1.6254 -0.0020
  446MOL0     H60168   8.867  10.370   2.671 -0.9986 -0.9040 -0.9577
  446MOL0     H60169   8.935  10.340   2.509 -1.3550 -1.1310  0.1132
  446MOL0     H60170   8.788  10.702   2.386  0.1912 -1.7610  1.7183
  446MOL0     H60171   8.514  10.812   2.224  3.8792  2.3422  2.8367
  446MOL0     H60172   8.682  10.774   2.170 -0.4528  0.8458 -0.3415
  446MOL0     H60173   8.547  10.700   2.096 -2.3569  2.2298 -0.5505
  446MOL0     H60174   8.161  10.216   2.385  1.1590  1.2831  0.0835
  446MOL0     H60175   7.932  10.162   2.324 -0.0718 -0.0170 -0.0332
  446MOL0     H60176   7.685  10.510   2.152 -4.2475  0.6762  0.3725
  446MOL0     H60177   7.721  10.393   2.019  1.6144  0.4986  0.6822
  446MOL0     H60178   7.486  10.396   2.043 -1.1536 -0.3527  1.2883
  446MOL0     H60179   7.543  10.247   2.116 -0.0957 -0.0736  1.6815
  446MOL0     H60180   7.466  10.492   2.288 -2.8370  0.0238  1.2266
  446MOL0     H60181   7.525  10.338   2.340  0.2446 -2.3982 -1.6243
  446MOL0     H60182   7.285  10.363   2.157  0.9155  3.5723  0.6898
  446MOL0     H60183   7.318  10.232   2.257  0.2481  0.5314 -0.6181
  446MOL0     H60184   7.198  10.493   2.319  1.7149  0.5869 -0.8937
  446MOL0     H60185   7.286  10.440   2.453 -0.8506 -3.0283  2.5801
  446MOL0     H60186   7.058  10.301   2.338  1.9818  0.3323 -2.3042
  446MOL0     H60187   7.153  10.208   2.451  1.1106  0.5254  0.3939
  446MOL0     H60188   7.013  10.454   2.553 -0.2740  0.0181  1.3166
  446MOL0     H60189   7.137  10.361   2.641  0.7963  0.3582 -0.7084
  446MOL0     H60190   6.892  10.253   2.500 -0.1403 -2.2265  0.5740
  446MOL0     H60191   6.889  10.309   2.667 -1.6762 -0.4034 -1.4640
  446MOL0     H60192   7.892  10.536   2.119  0.4085 -1.3918 -1.7252
  446MOL0     H60193   8.112  10.598   2.179  1.1935 -0.2114  1.8835
  446MOL0     H60194   8.484  10.322   2.398  2.8890 -2.4666 -1.6661
  446MOL0     H60195   8.673  10.335   2.553  0.7911 -0.8986 -0.4250
  446MOL0     H60196  10.673  10.331   2.958  0.5151  0.2502  0.3450
  446MOL0     H60197  10.902  10.383   2.912 -1.2562 -0.6558  2.0842
  446MOL0     H60198  11.213  10.338   2.548 -1.7331  0.5198  0.8794
  446MOL0     H60199  11.460  10.342   2.490  0.5725 -2.0226  1.2624
  446MOL0     H60200  11.755  10.683   2.517  0.5696  1.5764  0.8535
  446MOL0     H60201  11.672  10.712   2.665  0.7190  0.1939  0.4528
  446MOL0     H60202  11.821  10.525   2.779  2.3471 -0.4899 -0.3156
  446MOL0     H60203  11.911  10.655   2.705 -0.5692  0.4465  0.1864
  446MOL0     H60204  11.912  10.524   2.487  0.6616 -1.3151 -0.9477
  446MOL0     H60205  11.840  10.389   2.596  1.0670 -1.1691 -2.3650
  446MOL0     H60206  12.092  10.339   2.597 -1.5327 -1.3326  0.1800
  446MOL0     H60207  12.069  10.428   2.740  2.8143  2.8907  0.0329
  446MOL0     H60208  12.286  10.718   2.528 -2.9505  0.5782 -2.1118
  446MOL0     H60209  11.523  10.647   2.784  0.4590 -1.6620  1.5821
  446MOL0     H60210  11.299  10.650   2.840  0.8552 -1.1563  0.4254
  447MOL0     O60211   4.653   8.954   8.827 -0.0750  0.3347  0.5798
  447MOL0     C60212   4.730   8.882   8.757  0.1564 -0.5156 -0.1720
  447MOL0     O60213   4.686   8.807   8.646 -0.2240  0.3963 -0.1574
  447MOL0     C60214   4.552   8.768   8.625  0.5863  0.7667  0.1253
  447MOL0     C60215   4.446   8.766   8.718  0.5742 -0.0401 -0.2833
  447MOL0     C60216   4.326   8.704   8.682  1.2349 -0.5791 -0.7929
  447MOL0     C60217   4.300   8.645   8.556 -0.6096  0.4164 -0.0997
  447MOL0     O60218   4.182   8.592   8.530 -0.1004 -0.3559 -0.8766
  447MOL0     C60219   4.149   8.567   8.399 -0.4349 -0.4056  0.1797
  447MOL0     C60220   4.017   8.489   8.385 -0.2320 -0.6333  0.4822
  447MOL0     C60221   3.947   8.522   8.253  0.8703 -0.0088 -0.0525
  447MOL0     C60222   3.830   8.425   8.241 -0.4608  0.1865 -0.2436
  447MOL0     C60223   3.765   8.448   8.100 -0.3268  0.4114  0.0555
  447MOL0     C60224   3.654   8.358   8.063  0.3915 -1.6330  0.0633
  447MOL0     C60225   3.523   8.384   8.149 -0.3762 -0.2587 -0.2356
  447MOL0     C60226   3.410   8.311   8.078  0.1426 -0.5780 -0.4924
  447MOL0     N60227   3.279   8.336   8.144  0.2976  0.6388  0.1015
  447MOL0     C60228   3.232   8.270   8.257 -1.2703  0.0563  0.3310
  447MOL0     C60229   3.102   8.311   8.257 -0.1920 -0.3686 -1.5588
  447MOL0     C60230   2.993   8.276   8.362  1.0333 -0.2491 -0.0348
  447MOL0     C60231   2.910   8.145   8.333 -0.0765  0.2857 -0.6998
  447MOL0     C60232   2.849   8.160   8.197 -0.1657 -0.7865 -0.6150
  447MOL0     C60233   2.747   8.050   8.172 -0.0261 -0.1529 -0.4827
  447MOL0     O60234   2.689   8.082   8.043  0.8005 -0.6199  0.4536
  447MOL0     C60235   2.579   8.158   8.040 -0.0829  0.4147 -0.2329
  447MOL0     C60236   2.510   8.224   8.144 -0.5424 -0.8010 -0.6297
  447MOL0     C60237   2.398   8.302   8.123 -0.3299 -0.0932  0.0549
  447MOL0     C60238   2.335   8.359   8.247 -0.1909  0.0928 -0.0368
  447MOL0     C60239   2.358   8.317   7.988  0.2599 -0.2188  0.0283
  447MOL0     C60240   2.234   8.394   7.961  0.3271  0.4896  0.7223
  447MOL0     O60241   2.150   8.337   7.867  0.3075  0.3250 -0.2229
  447MOL0     C60242   2.032   8.384   7.821  0.0062  0.3211 -0.4172
  447MOL0     C60243   1.952   8.476   7.886  0.4115  0.3315  0.0357
  447MOL0     C60244   1.829   8.519   7.835 -0.2837  0.2077 -0.0462
  447MOL0     C60245   1.782   8.456   7.716 -0.4674  0.2553 -0.2594
  447MOL0     O60246   1.675   8.490   7.647  0.4743 -0.3249  0.6258
  447MOL0     C60247   1.672   8.619   7.592 -0.0395 -1.2135 -0.8674
  447MOL0     C60248   1.540   8.634   7.515  0.4862  0.2401  0.6935
  447MOL0     C60249   1.514   8.774   7.457 -1.0152  1.4233 -0.2600
  447MOL0     C60250   1.451   8.887   7.547 -0.8316 -0.0896 -0.5705
  447MOL0     C60251   1.439   9.017   7.467  0.1632 -0.0010 -0.4853
  447MOL0     C60252   1.339   9.107   7.536 -0.7172 -0.2389  0.6166
  447MOL0     C60253   1.348   9.243   7.465 -0.7685 -0.4103  0.1889
  447MOL0     C60254   1.222   9.327   7.492  0.6630 -0.1955 -0.4229
  447MOL0    Cl60255   1.095   9.257   7.379  0.2508  0.2792  0.1642
  447MOL0     C60256   1.859   8.348   7.656 -0.1932 -0.3534  0.0927
  447MOL0     C60257   1.984   8.313   7.713  1.2097 -0.1461 -0.3079
  447MOL0     O60258   2.210   8.500   8.017  0.8122  0.0916  0.5215
  447MOL0     C60259   2.418   8.246   7.881 -0.2894 -0.4409 -0.2389
  447MOL0     C60260   2.527   8.165   7.914 -0.1527  0.2065  0.0239
  447MOL0     N60261   3.061   8.388   8.148 -0.1733 -0.2665  0.1112
  447MOL0     N60262   3.176   8.398   8.081  0.1455  0.3507  1.3152
  447MOL0     C60263   4.401   8.675   8.461 -0.9212  0.2223  0.1584
  447MOL0     C60264   4.522   8.730   8.495 -0.4834 -0.6949  1.2433
  447MOL0     C60265   4.879   8.887   8.798  0.6268  1.3086  0.2269
  447MOL0     C60266   4.977   8.813   8.726  0.6565 -0.1341  0.1813
  447MOL0     C60267   5.113   8.819   8.770  1.1178  0.8057  0.3329
  447MOL0     C60268   5.151   8.901   8.878 -0.9610  0.0951 -0.5095
  447MOL0     O60269   5.283   8.928   8.887  0.0224  0.5670 -0.4556
  447MOL0     C60270   5.329   9.038   8.968  0.2951 -0.1926  0.5944
  447MOL0     C60271   5.437   8.982   9.067  0.1384 -0.0761 -0.1423
  447MOL0     C60272   5.553   8.904   8.999 -0.7857  0.8255 -0.3665
  447MOL0     C60273   5.674   8.981   8.954  0.3511 -0.7833 -0.0682
  447MOL0     C60274   5.781   8.898   8.925 -0.7090  0.0046  0.5125
  447MOL0     C60275   5.880   8.846   8.884 -0.3574  0.2123 -0.0520
  447MOL0     C60276   5.049   8.959   8.953 -0.2597 -0.2613 -0.3956
  447MOL0     C60277   4.921   8.959   8.908  0.1179 -0.3515 -0.9033
  447MOL0     H60278   4.472   8.780   8.823  2.8454 -1.8358 -0.5344
  447MOL0     H60279   4.237   8.703   8.745  0.1391 -1.2170 -2.2778
  447MOL0     H60280   4.138   8.662   8.346  1.7166  0.9711  2.0215
  447MOL0     H60281   4.226   8.506   8.351 -2.2921 -2.3338 -0.5039
  447MOL0     H60282   4.051   8.385   8.386 -1.2736 -0.9836  0.9808
  447MOL0     H60283   3.948   8.511   8.467 -1.9089 -1.9532 -0.4909
  447MOL0     H60284   3.921   8.628   8.260  1.0219  0.0823 -0.8416
  447MOL0     H60285   4.016   8.519   8.168 -0.5348  2.0565 -1.3441
  447MOL0     H60286   3.853   8.321   8.265 -4.5187 -2.0892 -4.4239
  447MOL0     H60287   3.760   8.444   8.323  0.7470 -2.4753  1.5199
  447MOL0     H60288   3.742   8.554   8.087 -0.6333  0.4533  0.8716
  447MOL0     H60289   3.845   8.428   8.028  0.4637  1.0473  0.7251
  447MOL0     H60290   3.624   8.381   7.961  0.2534  5.6387  1.2281
  447MOL0     H60291   3.677   8.251   8.070  1.0486 -1.3997  5.2358
  447MOL0     H60292   3.526   8.343   8.251 -1.6355 -0.8307 -0.4125
  447MOL0     H60293   3.508   8.492   8.152 -1.8014 -0.4223 -0.7892
  447MOL0     H60294   3.423   8.202   8.079 -2.3189 -0.9424 -0.6813
  447MOL0     H60295   3.412   8.339   7.972  3.0193  0.0222 -0.3399
  447MOL0     H60296   3.276   8.197   8.323 -0.5600  1.2088  1.1742
  447MOL0     H60297   3.033   8.275   8.464  1.3430  0.0937 -0.1506
  447MOL0     H60298   2.922   8.359   8.366  0.7732 -0.4960  0.5315
  447MOL0     H60299   2.830   8.139   8.407  0.8759  0.0297  0.3502
  447MOL0     H60300   2.980   8.061   8.342  0.9004  1.3077  2.7971
  447MOL0     H60301   2.932   8.159   8.125 -1.0914 -0.2398 -1.7214
  447MOL0     H60302   2.814   8.263   8.190  0.6984 -0.5798 -5.0201
  447MOL0     H60303   2.680   8.040   8.258  1.8260 -0.3908  0.9817
  447MOL0     H60304   2.784   7.948   8.167 -1.5945 -0.6943 -1.9402
  447MOL0     H60305   2.550   8.212   8.244 -0.2440 -0.2908 -0.6864
  447MOL0     H60306   2.226   8.350   8.248 -0.0827 -1.7591  1.8858
  447MOL0     H60307   2.367   8.300   8.334 -3.1665  1.0842  1.8916
  447MOL0     H60308   2.373   8.462   8.253  1.1813 -0.3359 -0.9547
  447MOL0     H60309   1.992   8.514   7.980  0.0728 -0.1587  0.3864
  447MOL0     H60310   1.763   8.582   7.894 -2.7389 -2.0699 -0.1899
  447MOL0     H60311   1.669   8.692   7.674  1.5670 -3.4605  1.3535
  447MOL0     H60312   1.755   8.637   7.523  1.6468 -2.4778  0.7291
  447MOL0     H60313   1.528   8.556   7.440 -0.5324 -0.9636  2.0439
  447MOL0     H60314   1.461   8.607   7.587  1.0185 -2.2355  0.4457
  447MOL0     H60315   1.444   8.768   7.374 -1.4998  0.8005  0.1796
  447MOL0     H60316   1.607   8.816   7.417 -2.9026  4.6239 -1.5917
  447MOL0     H60317   1.358   8.847   7.589 -1.1909  1.3035  0.0041
  447MOL0     H60318   1.518   8.908   7.631 -0.2724  0.8832 -1.2387
  447MOL0     H60319   1.389   9.000   7.371 -0.2894  1.8613 -0.6284
  447MOL0     H60320   1.532   9.074   7.473 -0.2912  0.9608 -1.8976
  447MOL0     H60321   1.234   9.079   7.527 -0.9858  1.1785 -1.1862
  447MOL0     H60322   1.370   9.122   7.640  2.4207 -1.1675 -0.0684
  447MOL0     H60323   1.361   9.226   7.357 -0.3020  0.4091  0.1093
  447MOL0     H60324   1.435   9.306   7.487  0.6860 -0.6040 -4.0485
  447MOL0     H60325   1.241   9.432   7.471  1.5762 -0.3358 -0.3215
  447MOL0     H60326   1.194   9.312   7.597 -0.8593  0.8010 -0.6493
  447MOL0     H60327   1.833   8.308   7.559  1.7584 -4.2102  0.9446
  447MOL0     H60328   2.037   8.229   7.670  1.4705  0.1644 -0.5994
  447MOL0     H60329   2.377   8.254   7.781  0.7091  0.9783 -0.5689
  447MOL0     H60330   2.572   8.105   7.836  1.1072 -0.7090  1.4142
  447MOL0     H60331   4.393   8.652   8.355 -3.8613  0.3369  0.2876
  447MOL0     H60332   4.608   8.765   8.438  0.7893  0.3847  3.6577
  447MOL0     H60333   4.943   8.747   8.648 -0.7907 -3.3952  3.3028
  447MOL0     H60334   5.192   8.766   8.719  0.1909 -0.0282 -0.2747
  447MOL0     H60335   5.366   9.118   8.904 -0.2484  0.0484  0.5766
  447MOL0     H60336   5.253   9.096   9.022 -1.7014 -0.5053 -1.6661
  447MOL0     H60337   5.384   8.919   9.138 -3.0957  0.0236 -2.2657
  447MOL0     H60338   5.484   9.064   9.123 -1.9131  0.7212  0.4911
  447MOL0     H60339   5.513   8.836   8.923  1.1189 -1.8873  0.9106
  447MOL0     H60340   5.603   8.844   9.075  2.4328  1.7244 -1.6284
  447MOL0     H60341   5.694   9.055   9.031  0.6080 -1.3582  0.4262
  447MOL0     H60342   5.648   9.034   8.862  2.8776  2.8882  1.1206
  447MOL0     H60343   5.974   8.798   8.865  0.0335 -0.0725  2.2179
  447MOL0     H60344   5.074   8.999   9.051  0.0730 -1.6585  0.1126
  447MOL0     H60345   4.853   9.018   8.969  0.9878  1.2504 -1.4197
  448MOL0     O60346  10.198   3.220   1.500 -0.0115  0.2310 -0.2979
  448MOL0     C60347  10.126   3.123   1.513  0.5219  1.3264 -0.9638
  448MOL0     O60348  10.176   2.996   1.541 -0.2061 -0.0242  0.2696
  448MOL0     C60349  10.318   2.998   1.549  0.6903 -0.4716  0.6381
  448MOL0     C60350  10.376   2.943   1.659 -0.1215  0.2871 -0.0379
  448MOL0     C60351  10.514   2.925   1.672  0.0857  0.2044 -0.2705
  448MOL0     C60352  10.596   2.981   1.576 -0.9909 -0.2694 -0.5515
  448MOL0     O60353  10.729   2.977   1.599  0.2251  0.5788  0.1096
  448MOL0     C60354  10.783   3.082   1.682 -0.0320 -0.2343 -0.6781
  448MOL0     C60355  10.907   3.045   1.758 -0.3910  0.2331  0.4116
  448MOL0     C60356  10.885   2.936   1.853 -0.4543  0.0550  0.0797
  448MOL0     C60357  11.025   2.905   1.917 -0.2000 -0.0107  0.2466
  448MOL0     C60358  11.042   2.766   1.968  0.2804  0.2061  0.7901
  448MOL0     C60359  10.949   2.730   2.080 -0.3233 -0.3466 -0.9782
  448MOL0     C60360  10.924   2.835   2.191 -0.1293 -0.6763  0.5085
  448MOL0     C60361  10.802   2.800   2.277 -0.3173 -0.4239  0.4057
  448MOL0     N60362  10.828   2.684   2.350 -0.0746 -0.2634 -0.1148
  448MOL0     C60363  10.770   2.564   2.328  0.3224  0.3578  0.2444
  448MOL0     C60364  10.800   2.484   2.434 -0.2736  0.3732  0.0783
  448MOL0     C60365  10.754   2.338   2.470  0.5166  0.1742  0.3343
  448MOL0     C60366  10.831   2.234   2.386 -0.5506 -0.4494 -0.3522
  448MOL0     C60367  10.759   2.094   2.397 -0.1070 -0.4930  0.1486
  448MOL0     C60368  10.624   2.079   2.323 -0.2237 -0.0840 -0.2013
  448MOL0     O60369  10.620   1.959   2.246 -0.1378 -0.0388 -0.6320
  448MOL0     C60370  10.500   1.921   2.187 -0.1540 -0.0757 -0.2237
  448MOL0     C60371  10.500   1.801   2.111 -0.4568 -0.7253  0.0144
  448MOL0     C60372  10.395   1.760   2.038  0.7482  0.8744  1.5770
  448MOL0     C60373  10.402   1.620   1.974 -0.2798  0.2603  0.3992
  448MOL0     C60374  10.275   1.838   2.032 -0.1450 -1.0654  0.0853
  448MOL0     C60375  10.162   1.812   1.945  0.7143 -0.5049  0.3306
  448MOL0     O60376  10.049   1.878   1.975  0.1119 -0.2986  0.0694
  448MOL0     C60377   9.956   1.898   1.874 -1.1217 -0.5523  0.0834
  448MOL0     C60378   9.828   1.842   1.892  0.0378 -0.3240  1.2436
  448MOL0     C60379   9.731   1.869   1.794 -0.6399 -0.3702  0.0401
  448MOL0     C60380   9.756   1.974   1.700 -0.1391  0.1440  0.2417
  448MOL0     O60381   9.659   2.002   1.615  0.2509 -0.9839 -0.0206
  448MOL0     C60382   9.602   2.133   1.596  0.0783 -0.2725 -0.6418
  448MOL0     C60383   9.572   2.146   1.449 -0.6142 -1.1506 -0.5279
  448MOL0     C60384   9.493   2.275   1.416  0.4068  0.1409  0.0293
  448MOL0     C60385   9.419   2.262   1.279  0.3703  0.2504  0.7018
  448MOL0     C60386   9.320   2.374   1.244 -0.6650  0.1810  0.1170
  448MOL0     C60387   9.390   2.497   1.188 -0.6035 -0.2425  0.1598
  448MOL0     C60388   9.336   2.630   1.241 -0.0722  0.4205 -0.7793
  448MOL0     C60389   9.191   2.673   1.194 -1.2730 -0.3314 -0.2548
  448MOL0    Cl60390   9.184   2.850   1.225  0.2389 -0.7569 -0.0948
  448MOL0     C60391   9.882   2.033   1.696 -0.4340  0.0565  0.3021
  448MOL0     C60392   9.980   2.003   1.781 -0.4134 -0.3408 -0.4430
  448MOL0     O60393  10.171   1.748   1.837  0.3218  0.0704 -0.2911
  448MOL0     C60394  10.271   1.960   2.108  1.5485 -0.4739 -0.1742
  448MOL0     C60395  10.382   1.998   2.181  0.4283 -0.2805  0.1151
  448MOL0     N60396  10.868   2.563   2.523 -0.8575 -0.0471  0.2763
  448MOL0     N60397  10.883   2.678   2.476 -0.2469 -0.4776 -0.5044
  448MOL0     C60398  10.542   3.057   1.467 -0.3114 -0.0813  0.4526
  448MOL0     C60399  10.401   3.056   1.451 -0.3923 -0.2350 -0.2588
  448MOL0     C60400   9.988   3.128   1.464  0.1040  0.1369  0.2426
  448MOL0     C60401   9.919   3.012   1.440  0.4616  0.2059 -0.0819
  448MOL0     C60402   9.785   3.010   1.396 -0.1394  0.0536 -0.0376
  448MOL0     C60403   9.710   3.125   1.391  0.6305  0.2047  0.1138
  448MOL0     O60404   9.574   3.120   1.352 -0.0842  0.8040  0.4797
  448MOL0     C60405   9.504   3.242   1.340 -0.4427  0.5164 -0.0793
  448MOL0     C60406   9.361   3.186   1.334  0.5844  0.7838 -0.1901
  448MOL0     C60407   9.259   3.294   1.370  0.1458 -0.3045  0.3146
  448MOL0     C60408   9.113   3.256   1.368 -0.1853  0.8889 -0.4939
  448MOL0     C60409   9.040   3.344   1.464 -0.6654  0.0850 -0.4439
  448MOL0     C60410   8.979   3.411   1.543 -0.3881  0.0057 -0.1261
  448MOL0     C60411   9.783   3.245   1.408  0.3629 -0.3974  0.2463
  448MOL0     C60412   9.918   3.249   1.458 -0.1871  0.0789  0.1179
  448MOL0     H60413  10.311   2.906   1.738  1.9788 -0.6110  1.3387
  448MOL0     H60414  10.544   2.875   1.763 -0.1349  0.8053  0.1392
  448MOL0     H60415  10.813   3.168   1.621  3.9426 -1.0414 -0.1290
  448MOL0     H60416  10.709   3.124   1.750  0.8056  1.2738 -0.6688
  448MOL0     H60417  10.989   3.016   1.692  0.2727  1.4607  0.6816
  448MOL0     H60418  10.940   3.134   1.812  1.1085  1.4281 -2.2705
  448MOL0     H60419  10.807   2.962   1.925 -0.1252 -0.4294  0.6242
  448MOL0     H60420  10.855   2.844   1.803 -0.4222 -0.1029  0.3490
  448MOL0     H60421  11.103   2.908   1.840 -0.7145  1.1866 -0.2695
  448MOL0     H60422  11.063   2.976   1.991  0.9893 -1.9551  1.5746
  448MOL0     H60423  11.047   2.687   1.892  1.4502 -1.8495  2.8491
  448MOL0     H60424  11.141   2.749   2.012 -0.0334 -2.2900  0.7002
  448MOL0     H60425  10.846   2.713   2.048 -1.2237 -1.8664  2.3104
  448MOL0     H60426  10.981   2.638   2.129  1.9650 -0.5031 -2.5879
  448MOL0     H60427  11.007   2.849   2.261 -0.1326  0.7494  0.2674
  448MOL0     H60428  10.921   2.932   2.141  0.4133  0.2073  2.1341
  448MOL0     H60429  10.718   2.783   2.209 -1.7481  0.2753  1.9282
  448MOL0     H60430  10.780   2.881   2.347  1.0096  0.4009 -0.0904
  448MOL0     H60431  10.707   2.544   2.241  3.1294 -0.2868 -1.7942
  448MOL0     H60432  10.769   2.316   2.576  2.4926 -2.1634 -0.3492
  448MOL0     H60433  10.649   2.348   2.442 -0.5093 -0.8917  3.4918
  448MOL0     H60434  10.934   2.234   2.423  0.0213  0.3087 -1.8513
  448MOL0     H60435  10.829   2.269   2.282 -0.9260  0.7672  0.0470
  448MOL0     H60436  10.755   2.057   2.499 -0.1984 -2.0251 -0.3798
  448MOL0     H60437  10.834   2.024   2.359  1.5422  1.7548 -1.0134
  448MOL0     H60438  10.609   2.156   2.246 -0.9132 -0.9488 -0.9667
  448MOL0     H60439  10.550   2.087   2.403 -0.9952  0.2712 -0.9218
  448MOL0     H60440  10.594   1.748   2.127  1.2088  2.1234  0.3599
  448MOL0     H60441  10.318   1.554   1.996 -1.0689  0.8140 -0.8337
  448MOL0     H60442  10.398   1.622   1.864  0.4890 -0.2673  0.3524
  448MOL0     H60443  10.500   1.577   1.998  0.9464  3.0746  0.8220
  448MOL0     H60444   9.805   1.769   1.969  0.3530  0.3066  1.9627
  448MOL0     H60445   9.629   1.834   1.777 -1.7309  2.2728  0.5991
  448MOL0     H60446   9.511   2.135   1.656  0.7524  2.0711  0.3928
  448MOL0     H60447   9.665   2.215   1.632  0.2203 -0.4034 -0.5875
  448MOL0     H60448   9.669   2.150   1.400 -0.2311  2.2797  0.2468
  448MOL0     H60449   9.513   2.058   1.421 -0.0733 -0.9637 -2.3806
  448MOL0     H60450   9.554   2.365   1.426 -2.9591  2.5218  0.9457
  448MOL0     H60451   9.410   2.292   1.486  1.7230 -0.6263  1.8399
  448MOL0     H60452   9.489   2.255   1.195 -0.5748  0.4274 -0.1174
  448MOL0     H60453   9.378   2.161   1.281 -0.8967  0.7480  1.0567
  448MOL0     H60454   9.259   2.401   1.330  0.3291  1.6297  0.3851
  448MOL0     H60455   9.245   2.339   1.172 -0.3636 -1.8342  0.7190
  448MOL0     H60456   9.498   2.492   1.204 -0.3933  1.7074 -0.4002
  448MOL0     H60457   9.381   2.499   1.079 -0.0411  0.6391  0.1271
  448MOL0     H60458   9.412   2.701   1.209  1.1234  0.4271  1.8361
  448MOL0     H60459   9.344   2.632   1.350  1.4977 -0.2653 -0.8596
  448MOL0     H60460   9.123   2.617   1.259 -1.7898  0.9304  0.3315
  448MOL0     H60461   9.184   2.643   1.089 -0.8927  0.0476 -0.3941
  448MOL0     H60462   9.897   2.112   1.623  0.2671 -0.9498 -0.7019
  448MOL0     H60463  10.079   2.049   1.784 -0.3007 -0.6286  1.2291
  448MOL0     H60464  10.186   2.026   2.121  0.5711 -1.7164 -0.1239
  448MOL0     H60465  10.384   2.092   2.236 -0.5286  0.5590 -1.2279
  448MOL0     H60466  10.610   3.103   1.397  1.1325 -1.8830  0.6025
  448MOL0     H60467  10.364   3.099   1.359  0.8516 -2.6692 -2.0016
  448MOL0     H60468   9.960   2.913   1.459 -2.4347 -0.8803  0.9938
  448MOL0     H60469   9.738   2.915   1.373 -0.0470  0.2321 -1.0312
  448MOL0     H60470   9.517   3.300   1.432  2.1293  0.7628 -0.5290
  448MOL0     H60471   9.535   3.303   1.254  1.1768 -0.5968 -0.3323
  448MOL0     H60472   9.361   3.115   1.417  0.0638 -0.8743 -1.5401
  448MOL0     H60473   9.341   3.118   1.250 -4.6232 -1.1771  2.2301
  448MOL0     H60474   9.256   3.381   1.303 -2.2548 -0.9680 -0.5419
  448MOL0     H60475   9.273   3.329   1.473 -2.1309  1.0188  0.2631
  448MOL0     H60476   9.098   3.151   1.396 -0.7365  1.0238 -0.2687
  448MOL0     H60477   9.068   3.264   1.268  0.0448  0.0949 -0.6669
  448MOL0     H60478   8.956   3.483   1.619  2.5626  0.2723  0.6490
  448MOL0     H60479   9.741   3.344   1.393  1.5871  0.0645 -0.2896
  448MOL0     H60480   9.966   3.341   1.491 -0.7397  0.4311 -0.0301
  449MOL0     O60481   2.570   9.140   1.942 -0.4626 -0.6576  0.3274
  449MOL0     C60482   2.604   9.030   1.903 -0.3745  0.1206  0.1592
  449MOL0     O60483   2.527   8.907   1.912  1.1249  0.1147  0.4497
  449MOL0     C60484   2.400   8.923   1.954  0.3458  1.1144  0.7148
  449MOL0     C60485   2.373   8.965   2.084 -0.4414  0.1296  0.9345
  449MOL0     C60486   2.244   9.002   2.125 -0.3983 -0.6655  0.2287
  449MOL0     C60487   2.139   8.993   2.035 -0.5239 -0.1438 -1.3316
  449MOL0     O60488   2.015   9.037   2.071 -0.6128  0.1827  0.4567
  449MOL0     C60489   1.971   9.061   2.202 -0.0165  0.0867 -0.0229
  449MOL0     C60490   1.824   9.109   2.215 -0.3842  0.0201 -0.4563
  449MOL0     C60491   1.717   9.008   2.178  0.3788  0.5291  0.9235
  449MOL0     C60492   1.732   8.882   2.261 -0.3352  0.4288 -0.5170
  449MOL0     C60493   1.611   8.788   2.281  0.0260  0.6508  0.2470
  449MOL0     C60494   1.569   8.728   2.141 -0.0953  0.3906  0.0237
  449MOL0     C60495   1.427   8.676   2.152  0.0912 -0.0272 -0.5663
  449MOL0     C60496   1.326   8.788   2.126  0.3492  0.7244 -0.3283
  449MOL0     N60497   1.187   8.745   2.148 -0.4715 -0.4411 -0.2260
  449MOL0     C60498   1.137   8.612   2.137 -0.3490 -0.5457  0.4066
  449MOL0     C60499   1.012   8.627   2.181 -0.1412  1.6670  0.2605
  449MOL0     C60500   0.910   8.511   2.192 -0.2094  0.4182  0.3807
  449MOL0     C60501   0.908   8.446   2.332  0.3327 -0.0882  0.4553
  449MOL0     C60502   0.869   8.531   2.456  0.5003  0.6046  1.0256
  449MOL0     C60503   0.723   8.588   2.445  0.2789 -0.5969 -0.1320
  449MOL0     O60504   0.620   8.491   2.428 -0.2603  0.1877 -0.0868
  449MOL0     C60505   0.493   8.534   2.401 -0.0643  0.8445 -0.5589
  449MOL0     C60506   0.453   8.663   2.413 -0.4920  0.2455  0.6360
  449MOL0     C60507   0.315   8.701   2.392 -0.7115  0.3375  0.3262
  449MOL0     C60508   0.277   8.847   2.376  0.8046  0.2208  0.1713
  449MOL0     C60509   0.219   8.595   2.352 -0.9977  1.1305  0.4880
  449MOL0     C60510   0.086   8.609   2.295 -0.5161 -0.7463  0.3423
  449MOL0     O60511   0.050   8.726   2.235  0.2256  0.2110 -0.3540
  449MOL0     C60512  -0.069   8.752   2.180 -0.3590  0.1751  0.1225
  449MOL0     C60513  -0.162   8.662   2.140  0.2847 -0.7059  0.2661
  449MOL0     C60514  -0.287   8.708   2.088  0.1515 -0.3990  0.3999
  449MOL0     C60515  -0.310   8.846   2.071 -0.7305 -0.1859  0.8678
  449MOL0     O60516  -0.428   8.886   2.022  0.0813 -0.1368  0.3198
  449MOL0     C60517  -0.496   8.971   2.110  0.1955 -0.1096 -0.4542
  449MOL0     C60518  -0.597   9.048   2.031  0.6252 -0.4644  0.3298
  449MOL0     C60519  -0.663   9.162   2.112 -0.2548  0.0224  0.0367
  449MOL0     C60520  -0.757   9.247   2.020 -0.2873 -0.2206  0.7486
  449MOL0     C60521  -0.821   9.364   2.102 -0.4365  0.0137 -0.1312
  449MOL0     C60522  -0.910   9.443   2.007 -0.7879 -0.7804 -0.1628
  449MOL0     C60523  -0.950   9.579   2.065  0.4149  0.3394  0.8701
  449MOL0     C60524  -0.833   9.672   2.112  0.6617 -0.1406  0.0000
  449MOL0    Cl60525  -0.881   9.839   2.155 -0.2871  0.0934  0.1847
  449MOL0     C60526  -0.203   8.938   2.085  0.5979  0.0632 -0.1507
  449MOL0     C60527  -0.082   8.888   2.140  0.4883 -0.4006 -0.4259
  449MOL0     O60528   0.010   8.512   2.302 -0.1732  0.3352  0.1791
  449MOL0     C60529   0.269   8.459   2.355  0.6886 -0.8006 -0.1845
  449MOL0     C60530   0.404   8.430   2.363 -1.2000  0.1737 -0.6936
  449MOL0     N60531   0.991   8.753   2.235 -0.5335  0.3088 -0.1306
  449MOL0     N60532   1.095   8.820   2.213  0.0999 -0.3999 -0.3597
  449MOL0     C60533   2.169   8.958   1.909 -0.4197 -0.6613  0.0636
  449MOL0     C60534   2.293   8.913   1.867 -0.5107  0.1285 -0.3220
  449MOL0     C60535   2.735   9.015   1.844 -0.2229 -0.4794 -0.0470
  449MOL0     C60536   2.769   8.890   1.789 -0.3072 -0.0766 -0.5717
  449MOL0     C60537   2.901   8.868   1.740  0.6826  0.4611 -0.1691
  449MOL0     C60538   2.997   8.962   1.757  0.4277 -0.6766 -0.0490
  449MOL0     O60539   3.119   8.942   1.709  0.0976 -0.0305  0.2390
  449MOL0     C60540   3.145   8.890   1.583 -0.7384  0.2650  0.2481
  449MOL0     C60541   3.295   8.867   1.562 -0.6956  0.3607  0.1782
  449MOL0     C60542   3.344   8.876   1.419  0.6738  0.0189 -0.6749
  449MOL0     C60543   3.498   8.899   1.432  0.3758  0.8239 -0.3565
  449MOL0     C60544   3.562   8.922   1.297  0.3724 -0.1315 -0.0435
  449MOL0     C60545   3.612   8.943   1.183 -0.0487  0.4033 -0.8472
  449MOL0     C60546   2.967   9.082   1.821 -0.1158  1.0910 -0.1506
  449MOL0     C60547   2.838   9.115   1.861  0.0830 -0.0391 -0.0280
  449MOL0     H60548   2.454   8.960   2.157  0.2098 -1.3516  0.1416
  449MOL0     H60549   2.216   9.025   2.228 -0.2765  0.7214 -0.0275
  449MOL0     H60550   1.986   8.968   2.258  2.2931  0.3552 -0.0661
  449MOL0     H60551   2.034   9.138   2.249 -1.3534  1.4868 -0.4669
  449MOL0     H60552   1.797   9.140   2.316 -1.5477 -3.2423  0.3502
  449MOL0     H60553   1.810   9.199   2.155  1.7090  0.3686 -0.4960
  449MOL0     H60554   1.617   9.048   2.194  0.2314  0.9529 -0.9157
  449MOL0     H60555   1.721   8.982   2.072 -0.6260  0.1176  0.9799
  449MOL0     H60556   1.819   8.817   2.245 -0.1988  0.1478  1.2324
  449MOL0     H60557   1.749   8.919   2.362 -0.8218  2.4848 -1.1451
  449MOL0     H60558   1.641   8.704   2.343  2.3625 -0.6446 -2.4358
  449MOL0     H60559   1.532   8.842   2.334  1.9134  3.6652  0.2293
  449MOL0     H60560   1.569   8.810   2.068 -1.7910 -0.8427 -1.4423
  449MOL0     H60561   1.641   8.657   2.100  3.2279  3.0061  0.8921
  449MOL0     H60562   1.422   8.600   2.073 -0.2330 -0.8877  0.2560
  449MOL0     H60563   1.417   8.631   2.251 -1.1988  0.3324 -0.5219
  449MOL0     H60564   1.335   8.835   2.028  0.1204  2.4335  0.4344
  449MOL0     H60565   1.339   8.870   2.198 -2.2600  0.6553  0.3437
  449MOL0     H60566   1.186   8.523   2.099  2.1705  0.8240  0.2625
  449MOL0     H60567   0.815   8.561   2.168  0.2545  1.7947  1.3259
  449MOL0     H60568   0.939   8.435   2.119  1.6057  0.1212  1.3727
  449MOL0     H60569   1.002   8.397   2.360  0.5256  0.7667  1.3383
  449MOL0     H60570   0.830   8.371   2.319 -1.9984  1.6942  3.0843
  449MOL0     H60571   0.943   8.610   2.472 -0.4080  1.2241  2.4425
  449MOL0     H60572   0.876   8.461   2.540 -1.5111 -1.8693 -0.6994
  449MOL0     H60573   0.719   8.657   2.359  0.6838  2.5097  2.1712
  449MOL0     H60574   0.707   8.655   2.530 -1.6872 -0.7725 -0.3227
  449MOL0     H60575   0.523   8.743   2.438  0.9185 -0.5817 -0.5268
  449MOL0     H60576   0.353   8.916   2.413  0.4203  1.0229 -0.5034
  449MOL0     H60577   0.241   8.867   2.275 -1.7998 -0.5707  0.8573
  449MOL0     H60578   0.194   8.864   2.446  0.2191  2.1096 -0.9177
  449MOL0     H60579  -0.169   8.553   2.146  2.6505 -0.9624 -0.5821
  449MOL0     H60580  -0.370   8.642   2.067 -2.1773  2.1431  0.9674
  449MOL0     H60581  -0.545   8.926   2.197  0.5574  2.3825  1.1509
  449MOL0     H60582  -0.432   9.053   2.144 -0.9419  1.8345 -2.7648
  449MOL0     H60583  -0.553   9.090   1.940  1.0713  0.4851  0.9642
  449MOL0     H60584  -0.675   8.979   1.998  0.7636 -0.8147  0.7263
  449MOL0     H60585  -0.595   9.234   2.159 -0.7015 -0.6306  1.7856
  449MOL0     H60586  -0.727   9.127   2.194  0.9044  0.3190  1.1075
  449MOL0     H60587  -0.698   9.277   1.934  0.3964 -0.0107  1.2851
  449MOL0     H60588  -0.846   9.189   1.995 -0.5932  0.9632 -1.0957
  449MOL0     H60589  -0.739   9.429   2.134  1.9469 -1.8343 -2.0115
  449MOL0     H60590  -0.877   9.321   2.185 -1.4222  1.2044 -0.1604
  449MOL0     H60591  -0.871   9.459   1.906  1.5671 -0.1621  0.7775
  449MOL0     H60592  -0.998   9.378   2.013 -0.5175 -1.1455 -0.1622
  449MOL0     H60593  -1.007   9.547   2.153  0.1221  0.5687  0.7638
  449MOL0     H60594  -1.019   9.640   2.006 -1.0474  1.0228  3.1721
  449MOL0     H60595  -0.767   9.677   2.026 -1.7458 -3.8396 -2.3209
  449MOL0     H60596  -0.784   9.628   2.199  0.7536  0.5786  0.3187
  449MOL0     H60597  -0.215   9.044   2.064  0.5643  1.0022  3.8050
  449MOL0     H60598   0.004   8.950   2.165  0.4757 -0.5564  0.0170
  449MOL0     H60599   0.210   8.371   2.335  0.2283 -0.3412 -0.9096
  449MOL0     H60600   0.443   8.329   2.352  0.7922  0.2161  3.9132
  449MOL0     H60601   2.085   8.941   1.843 -1.7695 -0.0237  1.5310
  449MOL0     H60602   2.311   8.894   1.762  1.2150  0.1111 -0.0634
  449MOL0     H60603   2.703   8.805   1.778 -0.3633 -0.2080  0.6426
  449MOL0     H60604   2.918   8.769   1.699 -1.7054 -0.1956  0.2528
  449MOL0     H60605   3.097   8.792   1.576  0.8453 -0.4873 -0.6027
  449MOL0     H60606   3.096   8.949   1.505  1.0366  1.4287 -0.0608
  449MOL0     H60607   3.314   8.771   1.611 -2.0850  0.0507  0.1588
  449MOL0     H60608   3.342   8.943   1.626  1.4788 -0.2850 -0.5808
  449MOL0     H60609   3.298   8.958   1.364  1.1199  1.4164  0.9439
  449MOL0     H60610   3.332   8.783   1.364  0.0942 -0.4968  0.2905
  449MOL0     H60611   3.540   8.812   1.483 -1.3733 -0.3267 -0.7767
  449MOL0     H60612   3.513   8.986   1.496  1.0595  0.8557 -0.5551
  449MOL0     H60613   3.660   8.967   1.091  4.0001  1.0100  1.1855
  449MOL0     H60614   3.038   9.161   1.842  1.1244 -0.2995  1.1247
  449MOL0     H60615   2.816   9.212   1.903 -1.2521  0.3726 -1.6038
  450MOL0     O60616   9.345   7.500   4.306 -0.2520  0.7441  0.0944
  450MOL0     C60617   9.397   7.482   4.416 -0.2201 -0.7924  0.1572
  450MOL0     O60618   9.344   7.519   4.536 -0.4270  0.3292  0.2793
  450MOL0     C60619   9.232   7.595   4.536 -0.0189 -0.0130 -0.3511
  450MOL0     C60620   9.244   7.726   4.595  0.8302 -0.1200 -0.8514
  450MOL0     C60621   9.123   7.802   4.620 -0.7153  0.1123  1.2147
  450MOL0     C60622   8.996   7.753   4.580  0.2616 -0.4693  0.0348
  450MOL0     O60623   8.879   7.823   4.617 -0.1957  0.1294 -0.2043
  450MOL0     C60624   8.897   7.915   4.727 -0.3005  0.2525 -0.3248
  450MOL0     C60625   8.759   7.951   4.786 -0.3803 -0.3790  0.7432
  450MOL0     C60626   8.778   8.045   4.903  0.8085 -1.0006  0.2448
  450MOL0     C60627   8.639   8.073   4.963  0.5476 -0.0340 -0.1480
  450MOL0     C60628   8.536   8.132   4.870  0.6963 -0.6815 -1.3120
  450MOL0     C60629   8.426   8.202   4.949 -0.2472  0.0557 -0.6296
  450MOL0     C60630   8.311   8.257   4.867  0.5791 -0.9760 -0.3655
  450MOL0     C60631   8.215   8.339   4.951  0.2560  0.0805 -0.4367
  450MOL0     N60632   8.109   8.407   4.861 -0.0951 -0.2453  0.0184
  450MOL0     C60633   7.987   8.433   4.914  0.4632 -0.6185 -0.4306
  450MOL0     C60634   7.914   8.490   4.813 -0.4693  0.3616 -0.3152
  450MOL0     C60635   7.791   8.564   4.820 -0.6314 -0.6296  1.0840
  450MOL0     C60636   7.673   8.481   4.853 -0.7024 -0.0577 -0.1630
  450MOL0     C60637   7.547   8.571   4.849  0.6839  0.3725 -0.5761
  450MOL0     C60638   7.410   8.494   4.853 -0.8355  0.3667  0.1264
  450MOL0     O60639   7.373   8.437   4.979 -0.3209 -0.0951  0.1725
  450MOL0     C60640   7.243   8.387   4.988 -0.0300 -0.1046 -1.3348
  450MOL0     C60641   7.148   8.371   4.890 -0.4264 -1.0798  0.0371
  450MOL0     C60642   7.026   8.315   4.911  0.7425  0.2197  0.2769
  450MOL0     C60643   6.936   8.311   4.789  0.4282  0.1775 -0.6705
  450MOL0     C60644   7.001   8.253   5.040  0.3690  0.3662  0.5831
  450MOL0     C60645   6.864   8.207   5.078  0.6968 -0.2803 -0.1178
  450MOL0     O60646   6.847   8.153   5.200 -0.3971 -0.6285  0.2146
  450MOL0     C60647   6.726   8.097   5.239 -0.0687 -0.2269  0.3321
  450MOL0     C60648   6.693   7.977   5.185  0.0688 -0.5105 -0.8389
  450MOL0     C60649   6.574   7.915   5.223  0.6520  0.0739  0.5525
  450MOL0     C60650   6.494   7.969   5.321  0.2937 -0.0968  0.1480
  450MOL0     O60651   6.387   7.893   5.353  0.6204  0.2751  0.1431
  450MOL0     C60652   6.330   7.923   5.481 -0.2452  0.4998 -0.4976
  450MOL0     C60653   6.240   7.802   5.512  0.2845  0.2129 -0.5839
  450MOL0     C60654   6.187   7.813   5.657 -0.1278  0.0917 -0.4403
  450MOL0     C60655   6.071   7.715   5.666  0.1761 -0.1363 -0.2580
  450MOL0     C60656   6.005   7.689   5.806 -0.2043 -0.3410  0.5349
  450MOL0     C60657   5.904   7.582   5.797  0.0717  0.7285  0.3171
  450MOL0     C60658   5.850   7.537   5.936  0.3495 -0.6994 -0.0695
  450MOL0     C60659   5.746   7.426   5.923 -0.0729 -0.5977 -0.0950
  450MOL0    Cl60660   5.822   7.281   5.847  0.1384  0.1213 -0.1042
  450MOL0     C60661   6.518   8.101   5.372 -0.1522  0.3185 -0.1296
  450MOL0     C60662   6.642   8.160   5.340  0.7471  0.3254  0.2534
  450MOL0     O60663   6.769   8.219   4.996  0.0722  0.0980 -0.0406
  450MOL0     C60664   7.094   8.264   5.138 -0.9675 -0.4148  0.0618
  450MOL0     C60665   7.208   8.341   5.114 -0.5559 -0.8176 -0.2198
  450MOL0     N60666   7.997   8.486   4.701 -0.0946  0.2219 -0.7886
  450MOL0     N60667   8.110   8.439   4.729 -0.7922  0.0480 -0.0135
  450MOL0     C60668   8.986   7.631   4.514 -0.1573 -0.0209 -0.6866
  450MOL0     C60669   9.104   7.561   4.492  0.1324 -0.3819  1.0073
  450MOL0     C60670   9.537   7.409   4.415 -0.4438  0.6153 -0.2346
  450MOL0     C60671   9.596   7.374   4.294 -0.5145 -0.8293  0.5220
  450MOL0     C60672   9.732   7.345   4.298 -0.4513 -0.7998  0.0659
  450MOL0     C60673   9.805   7.327   4.417  0.1345 -0.2653  0.2811
  450MOL0     O60674   9.936   7.293   4.395 -0.1334  0.3128  0.0321
  450MOL0     C60675  10.003   7.242   4.505  0.2233  0.3459 -0.5794
  450MOL0     C60676  10.143   7.206   4.454 -0.2449  0.0662 -0.0736
  450MOL0     C60677  10.152   7.072   4.371  0.0411  0.4373  0.7500
  450MOL0     C60678  10.233   7.088   4.246  0.2298 -0.0398 -0.8434
  450MOL0     C60679  10.172   7.180   4.140  0.5519 -0.1707  0.2051
  450MOL0     C60680  10.096   7.240   4.063 -0.0884  0.2412 -0.0733
  450MOL0     C60681   9.742   7.336   4.537  0.9004  0.2227  0.3294
  450MOL0     C60682   9.612   7.389   4.534 -0.3165  0.2114  0.5199
  450MOL0     H60683   9.342   7.764   4.624  0.9871 -1.5668  0.6344
  450MOL0     H60684   9.144   7.900   4.662  2.8611  0.2995 -0.6092
  450MOL0     H60685   8.959   7.867   4.804 -1.3337 -0.2786  0.1966
  450MOL0     H60686   8.950   8.007   4.698  0.3523 -0.4624 -1.4625
  450MOL0     H60687   8.694   7.990   4.707  2.2484 -0.1741 -1.4251
  450MOL0     H60688   8.702   7.863   4.820 -0.1055 -0.6130  0.6008
  450MOL0     H60689   8.853   8.014   4.977  1.6537  0.9071  0.2258
  450MOL0     H60690   8.811   8.143   4.867 -1.3180  0.2188  1.4187
  450MOL0     H60691   8.604   7.979   5.006 -1.5486  0.0353 -1.5210
  450MOL0     H60692   8.652   8.145   5.044 -0.8362  1.0881 -0.8720
  450MOL0     H60693   8.586   8.191   4.793  0.2874  2.3676  0.6150
  450MOL0     H60694   8.478   8.057   4.815  0.4199 -0.6043 -1.1318
  450MOL0     H60695   8.385   8.128   5.019  0.9172  1.1553  1.2988
  450MOL0     H60696   8.474   8.277   5.013  1.4481 -2.7026  1.5956
  450MOL0     H60697   8.357   8.316   4.787 -0.0700 -1.4800 -1.1276
  450MOL0     H60698   8.260   8.178   4.811  0.2429 -0.4269 -0.8450
  450MOL0     H60699   8.276   8.412   5.003  3.6465 -1.5128 -1.8871
  450MOL0     H60700   8.169   8.274   5.026 -0.0770  0.0807 -0.6349
  450MOL0     H60701   7.952   8.442   5.016 -1.0869  1.9359 -1.1006
  450MOL0     H60702   7.806   8.643   4.894  2.6711 -0.4095  0.3351
  450MOL0     H60703   7.775   8.606   4.719  2.4980 -2.8650 -0.5011
  450MOL0     H60704   7.680   8.445   4.956 -0.3538  1.4672  0.3798
  450MOL0     H60705   7.656   8.388   4.799 -1.0063 -0.7736  1.1447
  450MOL0     H60706   7.544   8.618   4.750 -1.0433 -0.2632 -0.8739
  450MOL0     H60707   7.551   8.645   4.929 -1.0925  1.9908 -1.8854
  450MOL0     H60708   7.414   8.422   4.770  2.1211 -0.6370  1.0108
  450MOL0     H60709   7.335   8.570   4.827 -1.9988  0.2895  2.8966
  450MOL0     H60710   7.192   8.403   4.796 -0.8661  0.2185  0.2548
  450MOL0     H60711   6.893   8.211   4.774 -3.5268  1.3701  1.1330
  450MOL0     H60712   6.852   8.379   4.807 -1.0471 -1.1963 -2.1058
  450MOL0     H60713   6.992   8.344   4.701  0.2586 -0.4002 -0.9996
  450MOL0     H60714   6.758   7.932   5.110 -0.3248 -1.2848 -0.7259
  450MOL0     H60715   6.565   7.812   5.191  3.3257 -0.3383  0.8617
  450MOL0     H60716   6.408   7.914   5.557 -1.7005 -1.1267  0.8934
  450MOL0     H60717   6.282   8.021   5.492  0.7326  0.8090  1.3575
  450MOL0     H60718   6.161   7.796   5.437 -0.6281 -1.3061  0.4361
  450MOL0     H60719   6.300   7.712   5.502  0.1274  0.2454 -2.0236
  450MOL0     H60720   6.149   7.913   5.680  1.4533  0.2815  1.6824
  450MOL0     H60721   6.263   7.794   5.733 -0.1052  2.4503  0.2031
  450MOL0     H60722   5.994   7.755   5.599  0.2239 -1.9959 -1.5024
  450MOL0     H60723   6.099   7.619   5.621 -0.7348  0.4972 -2.3114
  450MOL0     H60724   5.960   7.786   5.830  0.1685  0.0705 -0.4180
  450MOL0     H60725   6.087   7.656   5.871  1.2230 -2.4381 -2.1516
  450MOL0     H60726   5.815   7.590   5.733 -1.9080  0.5378  2.8774
  450MOL0     H60727   5.961   7.499   5.754  0.4485  0.8816  0.5229
  450MOL0     H60728   5.817   7.626   5.991  0.1516 -0.3832 -0.6904
  450MOL0     H60729   5.932   7.497   5.997  0.2861 -0.5760  0.1000
  450MOL0     H60730   5.662   7.457   5.861  0.0858  0.4970  0.2106
  450MOL0     H60731   5.711   7.392   6.021  0.3841 -0.8586 -0.0180
  450MOL0     H60732   6.458   8.165   5.436  1.3936  1.7321 -0.0404
  450MOL0     H60733   6.654   8.262   5.374 -0.6073  0.8855 -0.8412
  450MOL0     H60734   7.093   8.227   5.239 -2.1700  1.0588  0.6313
  450MOL0     H60735   7.268   8.350   5.203 -1.9586  0.1479  0.6749
  450MOL0     H60736   8.890   7.583   4.495  1.2404 -3.3159 -0.1652
  450MOL0     H60737   9.105   7.467   4.437  0.3099  0.0741  0.2239
  450MOL0     H60738   9.552   7.384   4.195 -0.3718  0.9549  0.5918
  450MOL0     H60739   9.771   7.335   4.197 -1.0843  0.8203 -0.3780
  450MOL0     H60740  10.019   7.322   4.578  1.0950  0.7283 -1.1695
  450MOL0     H60741   9.945   7.166   4.558 -1.3534  2.9380  1.7159
  450MOL0     H60742  10.201   7.186   4.544  2.4936  0.7487 -1.5560
  450MOL0     H60743  10.190   7.293   4.406  1.4669 -0.2120  1.0083
  450MOL0     H60744  10.050   7.042   4.345 -0.4127  1.4545  1.3474
  450MOL0     H60745  10.198   6.999   4.438 -2.8838 -1.3412  1.0088
  450MOL0     H60746  10.264   6.988   4.214  0.3334 -0.9558  1.8947
  450MOL0     H60747  10.330   7.126   4.280  1.7642 -3.3389 -1.0857
  450MOL0     H60748  10.032   7.272   3.983  1.8841  1.6203 -1.2064
  450MOL0     H60749   9.800   7.313   4.626  3.4117 -1.9271 -1.6978
  450MOL0     H60750   9.570   7.422   4.628  0.0520  3.1301 -0.2318
  451MOL0     O60751   4.256   1.404   4.836 -0.9426 -0.0542  1.1006
  451MOL0     C60752   4.302   1.498   4.898  0.0510 -0.4590 -0.3528
  451MOL0     O60753   4.242   1.548   5.019  0.0762 -0.6656  0.5987
  451MOL0     C60754   4.129   1.487   5.069  0.6549 -0.3943  1.0611
  451MOL0     C60755   4.115   1.350   5.079 -0.1019 -0.6018 -0.8980
  451MOL0     C60756   3.999   1.292   5.133  0.6066  0.3810  0.9505
  451MOL0     C60757   3.909   1.371   5.204  0.1719 -0.3703 -0.2608
  451MOL0     O60758   3.799   1.318   5.268 -0.3194  0.2479 -0.3770
  451MOL0     C60759   3.733   1.200   5.215  0.0085 -0.8894 -0.1440
  451MOL0     C60760   3.593   1.189   5.260 -0.7912  0.1271  0.3115
  451MOL0     C60761   3.570   1.159   5.405 -0.4283  0.5753  0.3298
  451MOL0     C60762   3.585   1.011   5.434 -0.5646  0.6949 -0.2691
  451MOL0     C60763   3.563   1.009   5.589 -1.0096  0.4103 -0.2036
  451MOL0     C60764   3.553   0.859   5.639 -0.2379 -0.2891 -0.2758
  451MOL0     C60765   3.536   0.844   5.795 -0.3718  0.0402  0.2453
  451MOL0     C60766   3.561   0.700   5.839 -0.9860 -0.0811  0.7722
  451MOL0     N60767   3.475   0.609   5.753  0.1261  0.1451  0.2933
  451MOL0     C60768   3.345   0.584   5.789 -0.0205  0.1468 -0.3866
  451MOL0     C60769   3.296   0.507   5.688  0.4347  0.5130 -0.0840
  451MOL0     C60770   3.153   0.475   5.668 -0.0740 -0.1947 -0.6278
  451MOL0     C60771   3.080   0.563   5.561 -0.7327 -1.7128  0.7827
  451MOL0     C60772   2.957   0.642   5.617  0.4158 -0.2301  0.3180
  451MOL0     C60773   2.871   0.701   5.505 -0.6702 -0.4700 -0.3389
  451MOL0     O60774   2.779   0.801   5.555 -0.6666  0.3576 -0.0685
  451MOL0     C60775   2.650   0.760   5.557  0.6062  0.5293  0.5990
  451MOL0     C60776   2.600   0.638   5.600  0.0023 -0.4354  0.0224
  451MOL0     C60777   2.467   0.611   5.615 -0.0507  0.9050  0.5224
  451MOL0     C60778   2.413   0.474   5.662  0.0902  0.3039  0.3652
  451MOL0     C60779   2.374   0.717   5.594  1.1646  0.6211  0.4857
  451MOL0     C60780   2.221   0.702   5.598 -0.2883  1.0313 -0.1203
  451MOL0     O60781   2.151   0.651   5.498 -0.3097  0.5878  0.1446
  451MOL0     C60782   2.027   0.592   5.525 -0.6590 -0.0571  0.7238
  451MOL0     C60783   1.926   0.618   5.428 -0.1626  0.1224 -0.0000
  451MOL0     C60784   1.798   0.574   5.459  0.1539 -0.4364  0.1895
  451MOL0     C60785   1.776   0.497   5.571 -0.8530 -0.5727  0.3771
  451MOL0     O60786   1.648   0.463   5.601 -0.1028  0.3495  0.0793
  451MOL0     C60787   1.597   0.541   5.709 -0.6698  0.2960 -0.4283
  451MOL0     C60788   1.448   0.568   5.703 -0.5039  0.4452 -0.3344
  451MOL0     C60789   1.354   0.443   5.709  0.5527 -0.3352  0.0042
  451MOL0     C60790   1.356   0.358   5.583 -1.1209  0.1126  0.1360
  451MOL0     C60791   1.278   0.225   5.595  0.3925 -0.2922  0.5773
  451MOL0     C60792   1.123   0.227   5.586  0.0218 -0.0279 -0.2906
  451MOL0     C60793   1.045   0.111   5.663 -0.5051  0.1618  0.4542
  451MOL0     C60794   0.903   0.146   5.687  0.5102 -0.6295 -0.5554
  451MOL0    Cl60795   0.823   0.154   5.535 -0.1634  0.6451 -0.2312
  451MOL0     C60796   1.877   0.460   5.657 -1.0233  0.5395  0.1262
  451MOL0     C60797   2.006   0.500   5.632 -0.3885 -0.3097  0.3492
  451MOL0     O60798   2.172   0.748   5.699  0.0999 -0.1291 -0.1440
  451MOL0     C60799   2.424   0.832   5.552 -0.9258  0.1370  0.1491
  451MOL0     C60800   2.564   0.858   5.537 -0.1375 -1.3379 -0.2484
  451MOL0     N60801   3.396   0.485   5.591 -0.4862  0.0474 -0.2224
  451MOL0     N60802   3.502   0.551   5.637  0.1560  0.5987  0.4696
  451MOL0     C60803   3.924   1.509   5.195  0.7559  0.4279  0.0639
  451MOL0     C60804   4.030   1.568   5.128  0.2707  0.9583  0.1124
  451MOL0     C60805   4.412   1.583   4.856 -0.0590 -0.3532  0.1015
  451MOL0     C60806   4.464   1.560   4.726  0.3711  0.6676  0.0820
  451MOL0     C60807   4.572   1.643   4.685 -0.4116  0.3952 -0.6906
  451MOL0     C60808   4.621   1.745   4.768 -0.8455  0.0416  0.1532
  451MOL0     O60809   4.731   1.809   4.717  0.0021 -0.1557 -0.6090
  451MOL0     C60810   4.853   1.741   4.737  0.3114  0.6355  1.0991
  451MOL0     C60811   4.961   1.831   4.793 -0.3957  0.8017 -0.1287
  451MOL0     C60812   4.943   1.873   4.941  0.2477  0.1467  0.1354
  451MOL0     C60813   5.068   1.911   5.004  0.9180 -0.0066 -0.1582
  451MOL0     C60814   5.116   2.029   4.930  0.3144  0.5828 -1.0973
  451MOL0     C60815   5.180   2.112   4.872 -0.6515 -0.4783 -0.4611
  451MOL0     C60816   4.572   1.766   4.900 -0.0550 -0.2722  0.4235
  451MOL0     C60817   4.468   1.680   4.944 -0.1522 -0.7085  0.5921
  451MOL0     H60818   4.196   1.294   5.033 -0.1196 -0.6739 -0.8405
  451MOL0     H60819   3.986   1.184   5.122 -1.1062  0.3985  2.2921
  451MOL0     H60820   3.728   1.191   5.106  0.1640 -3.1623 -0.0235
  451MOL0     H60821   3.795   1.116   5.247  0.9818  0.1251  0.7129
  451MOL0     H60822   3.553   1.291   5.252 -3.4808 -0.7903  1.0212
  451MOL0     H60823   3.539   1.120   5.195  0.3442 -0.2972 -0.2115
  451MOL0     H60824   3.635   1.226   5.462  0.0168  1.8090 -1.5564
  451MOL0     H60825   3.465   1.181   5.422 -0.4321 -0.3959  1.7008
  451MOL0     H60826   3.500   0.950   5.401  0.5488 -1.6659  0.9420
  451MOL0     H60827   3.676   0.959   5.403  0.2914  1.9188  0.1443
  451MOL0     H60828   3.653   1.055   5.630 -0.8033 -0.3969  0.2830
  451MOL0     H60829   3.476   1.066   5.623 -1.1455  1.1724 -1.7560
  451MOL0     H60830   3.471   0.800   5.596  0.3660 -1.8415  0.6298
  451MOL0     H60831   3.644   0.806   5.609  0.6310  0.6023  0.7291
  451MOL0     H60832   3.606   0.913   5.842  0.2825 -1.5944  1.7810
  451MOL0     H60833   3.434   0.874   5.823 -0.2939 -0.3462  0.9567
  451MOL0     H60834   3.534   0.677   5.943  0.3182 -3.0726  0.5604
  451MOL0     H60835   3.664   0.672   5.814 -0.9433 -0.7615  1.6399
  451MOL0     H60836   3.299   0.606   5.885  0.6614 -3.6270  0.9861
  451MOL0     H60837   3.146   0.372   5.633  0.1376 -0.5792  0.4288
  451MOL0     H60838   3.105   0.485   5.766  3.0690  0.5434  0.9732
  451MOL0     H60839   3.048   0.497   5.480  1.0318 -2.7802  0.8801
  451MOL0     H60840   3.149   0.624   5.503 -1.8682 -1.9126 -0.8507
  451MOL0     H60841   2.995   0.728   5.673  1.5124 -0.1700 -0.4811
  451MOL0     H60842   2.899   0.577   5.684  0.2227  0.3210  0.7007
  451MOL0     H60843   2.822   0.612   5.464  3.2636 -2.3279 -1.4797
  451MOL0     H60844   2.932   0.749   5.428  0.4436  1.2831  1.5306
  451MOL0     H60845   2.666   0.553   5.611 -1.9028 -2.5472 -3.2098
  451MOL0     H60846   2.493   0.408   5.696 -0.2995  1.1566  3.1766
  451MOL0     H60847   2.335   0.481   5.738  0.1244  0.8081  0.3614
  451MOL0     H60848   2.374   0.415   5.578  0.2881 -0.9217  1.1106
  451MOL0     H60849   1.963   0.671   5.341  0.8852  0.7866  0.8365
  451MOL0     H60850   1.718   0.602   5.391  1.5267  1.0006 -0.9172
  451MOL0     H60851   1.630   0.501   5.805 -0.4293  3.0859  0.7579
  451MOL0     H60852   1.651   0.636   5.703  1.9642 -1.1773 -1.5007
  451MOL0     H60853   1.436   0.622   5.797  2.6008  0.1978  0.2876
  451MOL0     H60854   1.429   0.632   5.616 -0.7805 -0.7601 -1.1803
  451MOL0     H60855   1.251   0.469   5.733  0.4559  0.2048 -0.9751
  451MOL0     H60856   1.382   0.386   5.799 -4.8219  2.7973  4.2428
  451MOL0     H60857   1.323   0.425   5.503 -1.5104  1.6707  1.5455
  451MOL0     H60858   1.456   0.320   5.559 -1.4316 -1.1150  0.6967
  451MOL0     H60859   1.306   0.179   5.690  0.4842 -1.8352 -0.1662
  451MOL0     H60860   1.312   0.166   5.510  1.7897  0.3391  0.6573
  451MOL0     H60861   1.088   0.320   5.633 -0.3906 -0.1232 -0.4074
  451MOL0     H60862   1.094   0.233   5.481  0.1263 -1.1843 -0.3919
  451MOL0     H60863   1.097   0.086   5.756 -2.0755 -1.3235  0.9992
  451MOL0     H60864   1.032   0.019   5.605 -0.8222  0.6577 -0.2672
  451MOL0     H60865   0.897   0.245   5.733  0.2584  0.3516 -2.6121
  451MOL0     H60866   0.852   0.066   5.742 -0.4681 -0.0342 -0.5791
  451MOL0     H60867   1.854   0.384   5.731 -1.5012 -2.7358 -3.0747
  451MOL0     H60868   2.075   0.488   5.714  0.3330  2.6084  0.2776
  451MOL0     H60869   2.352   0.912   5.535 -0.9807  0.3026  1.1137
  451MOL0     H60870   2.596   0.956   5.504  0.4063 -1.4945 -0.1965
  451MOL0     H60871   3.856   1.579   5.243  1.8674  2.1385 -0.7735
  451MOL0     H60872   4.044   1.675   5.139  0.9389  0.8173  0.7210
  451MOL0     H60873   4.426   1.486   4.656  1.4757  0.5384 -0.4049
  451MOL0     H60874   4.635   1.626   4.599  1.9595  2.9872  0.3838
  451MOL0     H60875   4.854   1.654   4.804 -0.8678 -0.6804 -0.5020
  451MOL0     H60876   4.876   1.696   4.640  0.5172  0.9469  1.0025
  451MOL0     H60877   4.963   1.923   4.735 -1.5521  0.4837 -0.7080
  451MOL0     H60878   5.063   1.792   4.780 -1.3664 -1.1616 -2.6297
  451MOL0     H60879   4.905   1.787   4.997 -0.9416 -0.0333 -0.9235
  451MOL0     H60880   4.867   1.949   4.958  0.5793  0.5386 -0.1364
  451MOL0     H60881   5.141   1.830   5.001 -1.0615 -2.1120  2.9218
  451MOL0     H60882   5.048   1.937   5.109 -2.3191  1.0095 -0.9082
  451MOL0     H60883   5.234   2.184   4.814 -1.6176 -1.1271 -2.2411
  451MOL0     H60884   4.612   1.847   4.960 -2.8652  2.5043 -1.1333
  451MOL0     H60885   4.439   1.679   5.048 -0.0649 -0.4879  0.6196
  452MOL0     O60886   7.056   6.961   6.773 -0.0648 -0.2534  0.2530
  452MOL0     C60887   7.086   6.947   6.887 -1.0092  0.2019 -0.4798
  452MOL0     O60888   7.043   6.841   6.969 -0.2357  0.3098 -0.1954
  452MOL0     C60889   6.961   6.747   6.918 -0.1215  0.6489  0.3274
  452MOL0     C60890   6.869   6.702   7.014  0.3555 -0.5091  0.3354
  452MOL0     C60891   6.783   6.598   6.983 -0.0227  0.6669 -0.0165
  452MOL0     C60892   6.788   6.545   6.856 -0.0190 -0.2543  1.0205
  452MOL0     O60893   6.685   6.471   6.818  0.2907 -0.1419 -0.0183
  452MOL0     C60894   6.700   6.371   6.720 -0.8059 -0.1865 -0.4570
  452MOL0     C60895   6.577   6.373   6.633 -0.4906 -0.0403 -1.1810
  452MOL0     C60896   6.579   6.265   6.523 -0.6205  0.4056 -0.1608
  452MOL0     C60897   6.455   6.280   6.429  0.1071 -0.4698 -0.5803
  452MOL0     C60898   6.344   6.193   6.501  0.0504  0.0651 -0.1974
  452MOL0     C60899   6.215   6.191   6.422  0.3051  0.2623 -0.1141
  452MOL0     C60900   6.127   6.080   6.480 -0.4285  0.1483  0.0477
  452MOL0     C60901   5.993   6.079   6.415  0.3988  0.1525 -0.4710
  452MOL0     N60902   5.915   6.199   6.454 -0.1709  0.1887 -0.5399
  452MOL0     C60903   5.922   6.283   6.563  0.0627 -0.4734  0.0790
  452MOL0     C60904   5.814   6.366   6.556 -0.5744 -0.2657 -0.7050
  452MOL0     C60905   5.785   6.486   6.646  0.7390  0.0604  0.5605
  452MOL0     C60906   5.875   6.601   6.628 -0.1335 -0.3582  0.3869
  452MOL0     C60907   5.849   6.728   6.710 -0.1333  0.0477 -0.4744
  452MOL0     C60908   5.951   6.844   6.691  1.0835  1.0079 -0.3753
  452MOL0     O60909   5.922   6.941   6.804  0.4722  0.5534  0.0675
  452MOL0     C60910   5.992   7.059   6.793  0.0013 -0.2107  0.1452
  452MOL0     C60911   6.095   7.102   6.700  0.8481 -0.0282 -0.7964
  452MOL0     C60912   6.165   7.216   6.717 -0.9993 -0.8514 -0.1316
  452MOL0     C60913   6.268   7.259   6.618  0.6081 -0.0856  0.5899
  452MOL0     C60914   6.132   7.301   6.830  0.1171  1.0274  0.5100
  452MOL0     C60915   6.202   7.431   6.872  0.1696  0.3100  0.3291
  452MOL0     O60916   6.245   7.510   6.767 -1.3697 -0.0181  0.3672
  452MOL0     C60917   6.325   7.619   6.781 -0.0469 -0.4701  0.4090
  452MOL0     C60918   6.460   7.613   6.768  0.7381 -0.1252  0.2493
  452MOL0     C60919   6.546   7.722   6.798  0.8205  0.0996 -0.0528
  452MOL0     C60920   6.481   7.849   6.812 -0.3999 -0.1990  0.4306
  452MOL0     O60921   6.555   7.960   6.831  0.1061  0.7506  0.0252
  452MOL0     C60922   6.570   8.044   6.713  0.5193 -0.6415  0.0406
  452MOL0     C60923   6.690   8.005   6.624 -0.0708 -0.6166 -0.0769
  452MOL0     C60924   6.826   8.024   6.687  0.6703 -0.4378  0.6665
  452MOL0     C60925   6.848   8.140   6.793 -0.0719  0.4418  0.4563
  452MOL0     C60926   7.005   8.151   6.818 -0.1598 -0.0066  0.1588
  452MOL0     C60927   7.016   8.239   6.946 -0.0124  0.3658  0.5608
  452MOL0     C60928   7.155   8.298   6.941 -0.1056 -1.8737 -0.1848
  452MOL0     C60929   7.166   8.430   7.022  0.2744  0.6705 -0.4304
  452MOL0    Cl60930   7.342   8.451   7.059  0.2577  0.3691 -0.1994
  452MOL0     C60931   6.340   7.863   6.816 -1.0183 -0.0889 -1.1402
  452MOL0     C60932   6.266   7.742   6.807 -0.7787 -0.4186 -0.4510
  452MOL0     O60933   6.224   7.452   6.992 -0.0033 -0.2410  0.6121
  452MOL0     C60934   6.019   7.273   6.903  0.7578  0.7335 -0.5951
  452MOL0     C60935   5.948   7.158   6.884 -0.3585  0.6583 -0.3449
  452MOL0     N60936   5.738   6.327   6.446 -1.0049  0.0797 -0.1885
  452MOL0     N60937   5.795   6.230   6.391  0.3971 -0.1547 -0.4439
  452MOL0     C60938   6.894   6.581   6.765 -0.2898  0.7598 -0.6517
  452MOL0     C60939   6.983   6.680   6.796 -0.0063  0.4609 -0.0919
  452MOL0     C60940   7.157   7.052   6.965  0.4471 -0.1900 -0.2169
  452MOL0     C60941   7.174   7.186   6.913  0.0032 -0.4279 -0.1593
  452MOL0     C60942   7.251   7.284   6.988 -0.2888  0.2124 -0.0447
  452MOL0     C60943   7.310   7.254   7.111 -0.5065 -0.3971 -0.5532
  452MOL0     O60944   7.375   7.362   7.177 -0.6327  0.5660  0.4855
  452MOL0     C60945   7.384   7.362   7.316  0.1694  0.4629  0.2498
  452MOL0     C60946   7.440   7.495   7.351  0.5748  0.1645 -0.0127
  452MOL0     C60947   7.578   7.524   7.304 -0.0676  0.6429  0.4592
  452MOL0     C60948   7.649   7.629   7.391  0.0679  1.0660  1.2892
  452MOL0     C60949   7.765   7.677   7.324 -0.4455  0.1334 -0.0691
  452MOL0     C60950   7.864   7.723   7.270 -0.2517  0.4775 -0.7312
  452MOL0     C60951   7.293   7.122   7.160 -0.3538  1.2901 -0.4059
  452MOL0     C60952   7.214   7.028   7.091  0.1078 -0.2076  0.4977
  452MOL0     H60953   6.886   6.741   7.114  2.5429 -1.6088  0.4555
  452MOL0     H60954   6.708   6.561   7.053  0.0465 -0.5592 -0.5604
  452MOL0     H60955   6.796   6.381   6.670 -0.0162  2.9341  1.3850
  452MOL0     H60956   6.706   6.276   6.774 -1.5143  0.4458  0.7887
  452MOL0     H60957   6.498   6.359   6.708  1.3073  0.3817  0.8831
  452MOL0     H60958   6.557   6.467   6.580 -0.3845  0.0786 -1.0108
  452MOL0     H60959   6.673   6.280   6.470 -0.3763 -1.0761 -0.2027
  452MOL0     H60960   6.581   6.167   6.574 -0.8079  1.5739  2.2477
  452MOL0     H60961   6.420   6.383   6.420 -1.7782 -0.7470  2.2907
  452MOL0     H60962   6.478   6.235   6.332  0.6612 -1.7510  0.1169
  452MOL0     H60963   6.372   6.088   6.514 -2.1772 -0.8231 -1.8852
  452MOL0     H60964   6.317   6.241   6.596  0.4733  2.8756 -1.4240
  452MOL0     H60965   6.169   6.289   6.438 -3.2072 -1.2746  0.2755
  452MOL0     H60966   6.234   6.179   6.315  2.1699  1.3599  0.0643
  452MOL0     H60967   6.185   5.988   6.467 -1.7080 -0.8187  0.9327
  452MOL0     H60968   6.117   6.101   6.587 -3.4126 -0.0252 -0.0890
  452MOL0     H60969   5.949   5.986   6.452  4.3709 -1.4425  0.7921
  452MOL0     H60970   6.012   6.075   6.307  0.6208  1.4299 -0.5019
  452MOL0     H60971   6.004   6.292   6.634  1.5443 -3.2386 -1.1148
  452MOL0     H60972   5.683   6.516   6.622  0.0571 -0.8508  2.1548
  452MOL0     H60973   5.777   6.462   6.753 -1.0470  2.5609  1.0581
  452MOL0     H60974   5.863   6.629   6.523 -3.5412 -0.9402  0.5052
  452MOL0     H60975   5.978   6.569   6.647 -0.2152  0.5483  2.6475
  452MOL0     H60976   5.858   6.702   6.816  2.9651  1.8028 -0.1855
  452MOL0     H60977   5.756   6.779   6.685  0.9323  2.0775 -0.5488
  452MOL0     H60978   5.938   6.889   6.592  2.0688 -1.1500 -1.5538
  452MOL0     H60979   6.050   6.797   6.702 -0.1469 -1.5429  0.7257
  452MOL0     H60980   6.124   7.036   6.619 -3.0551  0.6895 -3.0428
  452MOL0     H60981   6.283   7.194   6.530  4.1962  2.7248 -1.1458
  452MOL0     H60982   6.240   7.357   6.578  2.0280  0.4426  0.8275
  452MOL0     H60983   6.361   7.269   6.674  0.1095 -1.9710  1.8576
  452MOL0     H60984   6.516   7.522   6.746  1.7890  0.9793 -2.1502
  452MOL0     H60985   6.653   7.713   6.786  0.7562  0.1609 -0.7569
  452MOL0     H60986   6.473   8.048   6.664  0.2206  1.4550  0.7070
  452MOL0     H60987   6.580   8.149   6.743 -0.5503 -0.4969 -0.0689
  452MOL0     H60988   6.687   7.901   6.592 -1.4191 -1.0802  1.3815
  452MOL0     H60989   6.678   8.050   6.525 -1.3812 -1.8159 -0.4891
  452MOL0     H60990   6.901   8.048   6.612 -0.0554  0.4108  0.1956
  452MOL0     H60991   6.855   7.927   6.730  1.3455  0.0141  1.2589
  452MOL0     H60992   6.825   8.241   6.759  0.4539  1.5535  3.1814
  452MOL0     H60993   6.783   8.119   6.878  0.4590  0.1797  0.8040
  452MOL0     H60994   7.053   8.198   6.732 -1.9337  0.1272 -0.8034
  452MOL0     H60995   7.046   8.051   6.833  0.3900 -0.4827 -3.6652
  452MOL0     H60996   6.941   8.318   6.952 -2.6130 -2.0368  2.2975
  452MOL0     H60997   6.994   8.180   7.036 -1.2936 -1.3540 -0.8001
  452MOL0     H60998   7.189   8.305   6.837 -0.8033 -6.0688 -0.8925
  452MOL0     H60999   7.218   8.222   6.988  1.8756  1.4596  3.1002
  452MOL0     H61000   7.118   8.421   7.119  0.9343 -2.0823 -0.2686
  452MOL0     H61001   7.125   8.515   6.968 -0.9726  0.4358  0.1172
  452MOL0     H61002   6.303   7.961   6.842 -0.1648  0.0230 -0.3071
  452MOL0     H61003   6.158   7.758   6.809 -0.4505  2.6981  2.3817
  452MOL0     H61004   5.968   7.340   6.973 -0.4511  0.4192 -1.1453
  452MOL0     H61005   5.863   7.146   6.951 -0.1868  3.3653  0.4998
  452MOL0     H61006   6.899   6.542   6.664  0.9710 -2.0435  0.4080
  452MOL0     H61007   7.042   6.725   6.717 -0.9015  1.1194 -0.4026
  452MOL0     H61008   7.137   7.218   6.817 -0.5505  1.2242  0.5681
  452MOL0     H61009   7.261   7.385   6.950 -2.4863  1.9228  3.3902
  452MOL0     H61010   7.285   7.359   7.361  1.1378  1.1474  2.6033
  452MOL0     H61011   7.449   7.288   7.365 -0.7933  1.3982  3.1631
  452MOL0     H61012   7.439   7.495   7.460 -0.8149 -1.7998  0.0112
  452MOL0     H61013   7.370   7.567   7.308  0.8745 -0.8359 -2.3413
  452MOL0     H61014   7.576   7.562   7.202 -0.8693  0.4493  0.3952
  452MOL0     H61015   7.627   7.426   7.311 -1.9087 -0.3644  0.0285
  452MOL0     H61016   7.675   7.593   7.491 -1.4044  1.1436  1.7295
  452MOL0     H61017   7.578   7.712   7.398 -2.7608 -0.7515 -2.5443
  452MOL0     H61018   7.951   7.770   7.229 -1.8775  2.2197 -2.4218
  452MOL0     H61019   7.339   7.088   7.253  2.8764 -1.7794 -2.8519
  452MOL0     H61020   7.199   6.932   7.140  1.5678 -1.5562 -1.5614
  453MOL0     O61021   7.303   3.040   2.057 -0.3304  0.1664 -0.5245
  453MOL0     C61022   7.244   3.013   1.950  0.8679  0.0266 -0.1467
  453MOL0     O61023   7.108   2.992   1.937  0.2098  0.3335  0.3735
  453MOL0     C61024   7.018   3.052   2.029  0.2880  0.1969  0.0194
  453MOL0     C61025   6.909   2.975   2.068 -0.3219 -0.6984  0.5152
  453MOL0     C61026   6.813   3.024   2.150  0.7163  0.5660 -0.0429
  453MOL0     C61027   6.819   3.159   2.202 -0.6208  0.1591 -0.1264
  453MOL0     O61028   6.716   3.190   2.291  0.7806 -0.5145  0.1254
  453MOL0     C61029   6.640   3.303   2.239 -0.2164 -0.0204  0.4364
  453MOL0     C61030   6.502   3.279   2.283 -0.0585  0.7492  0.7670
  453MOL0     C61031   6.393   3.379   2.237 -1.6067  0.4199  0.9895
  453MOL0     C61032   6.258   3.371   2.298  0.5097  0.3101 -0.2904
  453MOL0     C61033   6.165   3.480   2.247  0.3484  0.1153 -0.7176
  453MOL0     C61034   6.115   3.476   2.097  0.5435  0.3945  0.2137
  453MOL0     C61035   6.008   3.589   2.081 -0.5317  0.0123 -0.1197
  453MOL0     C61036   6.011   3.635   1.939 -0.1196 -0.1843 -0.5279
  453MOL0     N61037   5.933   3.756   1.912 -0.3408 -0.7291  0.4984
  453MOL0     C61038   5.954   3.872   1.976 -0.1721 -0.3073 -0.3526
  453MOL0     C61039   5.866   3.957   1.915 -0.3459  0.0852 -0.7376
  453MOL0     C61040   5.841   4.104   1.924 -0.1443 -0.9981 -0.5632
  453MOL0     C61041   5.694   4.128   1.975 -0.6904  0.2659  0.2527
  453MOL0     C61042   5.682   4.111   2.133 -0.7825 -0.1248  1.3842
  453MOL0     C61043   5.538   4.101   2.179  0.4813 -0.6729 -0.2601
  453MOL0     O61044   5.478   4.224   2.142 -0.3145 -0.8501  0.1617
  453MOL0     C61045   5.347   4.247   2.161  0.4389  0.3177  0.7860
  453MOL0     C61046   5.286   4.331   2.064  1.0153  0.4697 -0.4214
  453MOL0     C61047   5.152   4.377   2.085 -0.2060 -0.4638  0.3029
  453MOL0     C61048   5.086   4.468   1.989 -1.0241 -0.4580  0.0828
  453MOL0     C61049   5.081   4.337   2.202  0.5160  0.2059  0.9215
  453MOL0     C61050   4.949   4.382   2.237  0.5196  0.7322  1.2027
  453MOL0     O61051   4.918   4.411   2.366 -0.4980  0.0710 -0.1022
  453MOL0     C61052   4.780   4.437   2.392 -0.2083  0.3692 -0.0637
  453MOL0     C61053   4.695   4.321   2.402  0.6383 -0.5125 -0.8492
  453MOL0     C61054   4.566   4.354   2.439  0.3646 -0.8315 -0.3106
  453MOL0     C61055   4.519   4.481   2.485  0.4312 -1.2133  0.6435
  453MOL0     O61056   4.382   4.506   2.513  0.2427  0.6260 -0.1215
  453MOL0     C61057   4.314   4.395   2.580  0.5847 -0.4259  0.4921
  453MOL0     C61058   4.166   4.407   2.578  0.5617 -0.1018  0.0747
  453MOL0     C61059   4.105   4.508   2.671 -0.7440  0.2592  0.4095
  453MOL0     C61060   3.950   4.511   2.651  0.1938  0.1641 -0.6839
  453MOL0     C61061   3.876   4.569   2.773 -0.3982 -0.0482 -0.1984
  453MOL0     C61062   3.731   4.559   2.746 -0.6024 -0.9601  1.4696
  453MOL0     C61063   3.644   4.592   2.864  0.4551  0.3832 -0.6838
  453MOL0     C61064   3.494   4.609   2.822  0.2214  0.8161 -0.3694
  453MOL0    Cl61065   3.415   4.699   2.962 -0.3953 -0.0829  0.4820
  453MOL0     C61066   4.610   4.585   2.481 -0.6299  0.0860  0.5831
  453MOL0     C61067   4.733   4.566   2.421 -0.5448  0.1209 -0.0997
  453MOL0     O61068   4.868   4.396   2.143 -0.0218  0.5894 -0.0569
  453MOL0     C61069   5.142   4.255   2.297 -0.1575  0.2965  0.3867
  453MOL0     C61070   5.271   4.215   2.272 -0.9393  0.0380 -0.3296
  453MOL0     N61071   5.785   3.876   1.836  0.2676  0.1954  0.3431
  453MOL0     N61072   5.831   3.760   1.823 -0.1773  0.2538 -0.9921
  453MOL0     C61073   6.930   3.239   2.175 -0.2012 -0.2052 -0.6302
  453MOL0     C61074   7.023   3.187   2.082  0.5172 -0.2343  0.3804
  453MOL0     C61075   7.330   2.987   1.829 -0.3266  0.8196  0.0873
  453MOL0     C61076   7.465   2.980   1.843 -0.9522 -1.3076  0.0760
  453MOL0     C61077   7.545   2.955   1.725  0.0472  1.0463 -0.5946
  453MOL0     C61078   7.488   2.931   1.600 -0.5653  0.7190  0.2019
  453MOL0     O61079   7.577   2.903   1.499  0.4557  0.1245  0.4818
  453MOL0     C61080   7.532   2.811   1.395 -0.3020  0.8436 -0.2880
  453MOL0     C61081   7.643   2.701   1.372 -0.3197  0.0395  0.7010
  453MOL0     C61082   7.787   2.758   1.387  0.1219 -0.0842  0.3719
  453MOL0     C61083   7.834   2.845   1.276  0.1413 -0.3363  0.2623
  453MOL0     C61084   7.945   2.926   1.318  0.2011 -0.5040  0.0181
  453MOL0     C61085   8.037   2.994   1.345  0.0590 -0.2939 -0.0369
  453MOL0     C61086   7.346   2.937   1.592  0.2644  0.3764  0.2169
  453MOL0     C61087   7.266   2.966   1.704  0.7169  1.7890  0.6736
  453MOL0     H61088   6.894   2.872   2.038 -1.4009 -0.0868 -1.2021
  453MOL0     H61089   6.724   2.962   2.161  2.5380 -2.0990  0.6971
  453MOL0     H61090   6.676   3.397   2.282  0.2766  0.4892 -1.0080
  453MOL0     H61091   6.649   3.307   2.130  2.3723  2.8284  0.6184
  453MOL0     H61092   6.472   3.180   2.247  0.2898  0.8718  0.1264
  453MOL0     H61093   6.504   3.268   2.392  0.3742  2.2412  0.9242
  453MOL0     H61094   6.435   3.478   2.259  1.1723 -0.7650  1.4592
  453MOL0     H61095   6.392   3.372   2.127  3.1168  1.4124  0.6642
  453MOL0     H61096   6.216   3.272   2.279  1.8199 -0.7473  1.9687
  453MOL0     H61097   6.261   3.370   2.408  1.0457 -1.1437 -0.3021
  453MOL0     H61098   6.081   3.470   2.316  0.4159  1.0146 -0.4825
  453MOL0     H61099   6.208   3.578   2.272 -0.6177  0.3981 -0.1155
  453MOL0     H61100   6.197   3.500   2.029  4.3574 -0.3169  4.1204
  453MOL0     H61101   6.071   3.380   2.068 -0.5867  1.2798 -1.1186
  453MOL0     H61102   5.913   3.541   2.106  1.1967 -2.3838  2.6546
  453MOL0     H61103   6.035   3.670   2.149 -4.0519  0.7589  0.5908
  453MOL0     H61104   5.973   3.557   1.872  0.3200 -1.1000  0.2560
  453MOL0     H61105   6.113   3.668   1.915 -0.0562 -0.0380 -0.0675
  453MOL0     H61106   6.027   3.897   2.052 -1.4990 -2.2760  1.7205
  453MOL0     H61107   5.906   4.149   1.999 -0.4590 -1.1469 -0.1985
  453MOL0     H61108   5.850   4.153   1.827  2.5089  0.1220  0.1646
  453MOL0     H61109   5.616   4.063   1.935 -0.8006 -0.8957  2.2249
  453MOL0     H61110   5.675   4.233   1.956 -0.2469  0.0236 -1.7240
  453MOL0     H61111   5.747   4.185   2.180  2.9941 -1.2261 -1.6738
  453MOL0     H61112   5.725   4.012   2.151 -0.0224  0.0661  0.6518
  453MOL0     H61113   5.517   4.075   2.283 -1.0780 -2.5594 -0.9837
  453MOL0     H61114   5.494   4.017   2.126  0.0099  0.1806 -1.2482
  453MOL0     H61115   5.344   4.352   1.975  0.1694 -1.0993 -1.3723
  453MOL0     H61116   5.018   4.413   1.923  1.3202 -1.9889 -1.1940
  453MOL0     H61117   5.036   4.553   2.035 -1.0187  0.9756 -2.3876
  453MOL0     H61118   5.167   4.521   1.938 -0.6069 -0.7505  0.4327
  453MOL0     H61119   4.731   4.223   2.375  0.1551 -0.3574 -2.1063
  453MOL0     H61120   4.507   4.264   2.437  1.6200 -1.7040  0.4637
  453MOL0     H61121   4.326   4.295   2.536 -0.4996 -1.0919  1.6575
  453MOL0     H61122   4.348   4.397   2.684  1.8519 -1.6064  0.1443
  453MOL0     H61123   4.117   4.426   2.482 -1.6850  1.5242  1.4634
  453MOL0     H61124   4.127   4.309   2.608 -0.1418  0.2970  0.4891
  453MOL0     H61125   4.143   4.607   2.642  2.0331 -0.4921  1.1743
  453MOL0     H61126   4.145   4.480   2.769 -0.9290 -0.2000  0.3536
  453MOL0     H61127   3.919   4.565   2.562 -0.9982  0.4606 -0.1221
  453MOL0     H61128   3.903   4.413   2.638 -1.7081  1.0267 -0.5953
  453MOL0     H61129   3.912   4.671   2.794  0.2779 -0.6955  2.0524
  453MOL0     H61130   3.896   4.507   2.860 -2.4034  1.1638  1.2249
  453MOL0     H61131   3.706   4.641   2.678 -1.0303 -2.7092 -0.5552
  453MOL0     H61132   3.701   4.461   2.708 -0.7983 -0.0848 -0.7845
  453MOL0     H61133   3.696   4.679   2.906  4.0734 -2.4980  1.3978
  453MOL0     H61134   3.655   4.528   2.952 -1.0697  0.1284 -0.6567
  453MOL0     H61135   3.452   4.510   2.804 -1.1622  1.4404 -0.7857
  453MOL0     H61136   3.470   4.668   2.733 -2.3583 -0.5775 -0.6937
  453MOL0     H61137   4.572   4.680   2.517  2.4845  1.9449 -0.5969
  453MOL0     H61138   4.805   4.647   2.415 -0.0043 -0.3640 -0.2771
  453MOL0     H61139   5.084   4.228   2.384 -3.1023  1.9120 -0.9389
  453MOL0     H61140   5.327   4.166   2.351 -1.2707  1.5132  0.8648
  453MOL0     H61141   6.941   3.343   2.204 -1.4155  0.1429 -1.3709
  453MOL0     H61142   7.105   3.246   2.042 -0.1514 -0.5848 -1.5906
  453MOL0     H61143   7.506   2.997   1.941  0.5345 -2.6878 -0.2706
  453MOL0     H61144   7.651   2.936   1.735 -0.1942 -1.1994 -1.5682
  453MOL0     H61145   7.446   2.748   1.423 -0.6338  0.8082 -1.3241
  453MOL0     H61146   7.496   2.871   1.311 -5.2205  0.3633  1.1416
  453MOL0     H61147   7.633   2.666   1.268 -2.2677  2.3719  0.0119
  453MOL0     H61148   7.637   2.619   1.444 -0.4943 -3.1819 -2.6571
  453MOL0     H61149   7.863   2.682   1.402  0.5758  0.7082  2.3841
  453MOL0     H61150   7.785   2.817   1.479  0.6795 -0.7311  0.8015
  453MOL0     H61151   7.756   2.911   1.236 -1.3211 -1.5685  0.9591
  453MOL0     H61152   7.868   2.789   1.189  1.5250  0.8777 -0.0206
  453MOL0     H61153   8.124   3.049   1.376  0.0206  1.5601 -2.8159
  453MOL0     H61154   7.287   2.932   1.501 -2.2495  0.8639  1.7178
  453MOL0     H61155   7.158   2.957   1.692  0.8466  0.3659  0.3905
  454MOL0     O61156   3.459   6.477   3.288 -0.0860  0.0534  0.1726
  454MOL0     C61157   3.533   6.389   3.315 -0.6797  0.1991 -0.0500
  454MOL0     O61158   3.510   6.307   3.418 -0.2890  0.5749  0.4001
  454MOL0     C61159   3.399   6.312   3.492  0.1898  0.5005  0.8388
  454MOL0     C61160   3.266   6.312   3.437 -0.2988 -0.8770 -0.0506
  454MOL0     C61161   3.156   6.314   3.526  0.0773  0.6623 -0.3854
  454MOL0     C61162   3.176   6.303   3.663  0.3096  0.0567  0.0002
  454MOL0     O61163   3.072   6.303   3.753  0.1184 -0.1217  0.1859
  454MOL0     C61164   3.022   6.171   3.780  0.0753  0.1841  0.1239
  454MOL0     C61165   2.904   6.190   3.868  0.6004 -0.3819 -0.1387
  454MOL0     C61166   2.856   6.054   3.915 -0.1801  0.1331  0.1581
  454MOL0     C61167   2.774   5.989   3.807 -0.4097 -0.0859  0.2965
  454MOL0     C61168   2.720   5.849   3.866  0.4129  0.3003  0.0540
  454MOL0     C61169   2.617   5.765   3.777 -0.2868  0.1680 -0.0360
  454MOL0     C61170   2.682   5.744   3.641 -0.0904  0.1090  0.3431
  454MOL0     C61171   2.609   5.642   3.550 -0.7242 -0.0769 -1.2684
  454MOL0     N61172   2.463   5.679   3.539 -0.0790 -0.2784  0.0907
  454MOL0     C61173   2.356   5.611   3.597 -0.6504 -0.2022  0.2645
  454MOL0     C61174   2.254   5.693   3.580  0.3128 -0.6291  0.1211
  454MOL0     C61175   2.119   5.660   3.642  0.5244  0.1870 -0.0615
  454MOL0     C61176   2.108   5.711   3.790 -0.2153  0.4083  0.4848
  454MOL0     C61177   1.988   5.802   3.811  0.7038  0.2597  0.1239
  454MOL0     C61178   1.864   5.724   3.832  0.0456  0.0421  0.3419
  454MOL0     O61179   1.763   5.811   3.876 -0.3515 -0.1767 -0.3837
  454MOL0     C61180   1.653   5.734   3.898  0.4461 -0.4010  0.3342
  454MOL0     C61181   1.536   5.790   3.846 -0.1369  0.2190  0.3726
  454MOL0     C61182   1.409   5.734   3.865  0.2367 -0.4797 -0.0306
  454MOL0     C61183   1.293   5.806   3.789 -1.7420 -0.3715 -0.5628
  454MOL0     C61184   1.399   5.612   3.938  0.4156  0.6080  0.0370
  454MOL0     C61185   1.273   5.534   3.958  0.4562  0.4264  0.1098
  454MOL0     O61186   1.287   5.417   4.034 -0.3154 -0.5381 -0.2666
  454MOL0     C61187   1.175   5.385   4.093  0.2541 -0.2724 -0.1513
  454MOL0     C61188   1.118   5.444   4.205  0.0919 -0.2723  0.1237
  454MOL0     C61189   0.999   5.400   4.260 -0.0398  0.4045  0.1409
  454MOL0     C61190   0.933   5.301   4.200  0.2091 -0.6180 -0.4897
  454MOL0     O61191   0.814   5.244   4.242 -0.2032 -0.1094  0.1441
  454MOL0     C61192   0.763   5.270   4.375 -0.6509 -0.6231  0.7501
  454MOL0     C61193   0.700   5.413   4.378  1.0089  0.2334  0.4170
  454MOL0     C61194   0.552   5.427   4.347  0.1171  0.6427  0.4870
  454MOL0     C61195   0.534   5.408   4.195  0.2510 -0.2156 -0.2333
  454MOL0     C61196   0.392   5.449   4.147 -0.2788  0.5649  0.2985
  454MOL0     C61197   0.289   5.346   4.183  0.0686 -0.3085 -1.2175
  454MOL0     C61198   0.151   5.388   4.142 -1.0542  0.3034 -0.7097
  454MOL0     C61199   0.044   5.287   4.159  0.2263 -0.1111 -0.7421
  454MOL0    Cl61200  -0.106   5.337   4.062 -0.0469  0.5643  0.3818
  454MOL0     C61201   0.987   5.241   4.085 -0.2775 -0.5421 -0.6310
  454MOL0     C61202   1.106   5.281   4.029 -0.6626 -0.2940  0.8287
  454MOL0     O61203   1.167   5.591   3.930 -0.2731  0.0623  0.5062
  454MOL0     C61204   1.517   5.558   3.991  0.3070 -0.2885  0.3275
  454MOL0     C61205   1.646   5.618   3.973  0.4893  0.3474 -0.1520
  454MOL0     N61206   2.288   5.801   3.508 -0.4560  0.8104  0.5984
  454MOL0     N61207   2.417   5.800   3.484 -0.0840  0.2433  0.0382
  454MOL0     C61208   3.301   6.282   3.715  0.5357 -0.3350  0.3406
  454MOL0     C61209   3.416   6.286   3.627  0.4640  0.4183  0.0829
  454MOL0     C61210   3.663   6.380   3.239 -0.1265  0.8360  0.3430
  454MOL0     C61211   3.682   6.454   3.123 -0.4874 -0.4435  0.0600
  454MOL0     C61212   3.805   6.452   3.063 -0.6936  0.3881  0.5149
  454MOL0     C61213   3.919   6.376   3.112  1.4805 -0.5783 -0.6552
  454MOL0     O61214   4.030   6.380   3.039 -0.1149 -0.9399 -0.6001
  454MOL0     C61215   4.156   6.338   3.108  0.1031 -0.6383 -0.4979
  454MOL0     C61216   4.274   6.312   3.020  0.0154  0.5033 -0.0035
  454MOL0     C61217   4.235   6.177   2.947  0.5472 -0.2845  0.0286
  454MOL0     C61218   4.343   6.150   2.843  0.2381  0.1034 -0.6603
  454MOL0     C61219   4.460   6.115   2.923  0.2383  0.1988 -0.2783
  454MOL0     C61220   4.557   6.091   2.993 -0.1887 -0.1830  0.0091
  454MOL0     C61221   3.899   6.310   3.233 -1.3129  0.3303  0.6991
  454MOL0     C61222   3.771   6.312   3.289 -0.9541  0.4433  0.9680
  454MOL0     H61223   3.243   6.320   3.331 -2.1510 -1.8892  0.2337
  454MOL0     H61224   3.051   6.326   3.501 -0.6642 -1.9246  1.0920
  454MOL0     H61225   2.991   6.117   3.690  1.7847  3.6366 -2.7804
  454MOL0     H61226   3.097   6.106   3.824 -1.3681 -1.7818 -0.1640
  454MOL0     H61227   2.949   6.249   3.948  1.8701  0.6330 -1.5509
  454MOL0     H61228   2.815   6.241   3.829 -0.7756 -3.1156 -0.8579
  454MOL0     H61229   2.929   5.976   3.942 -1.1772 -1.7210 -2.1272
  454MOL0     H61230   2.796   6.066   4.006  0.7142  0.4917  0.7149
  454MOL0     H61231   2.681   6.032   3.770 -2.7729 -2.0342  3.3839
  454MOL0     H61232   2.843   5.968   3.725 -0.4030 -0.3081  0.3577
  454MOL0     H61233   2.799   5.781   3.900 -0.8798 -1.2831  0.0332
  454MOL0     H61234   2.663   5.879   3.954 -2.0707 -1.4508 -0.8238
  454MOL0     H61235   2.585   5.666   3.813  0.8959 -1.0940 -2.2320
  454MOL0     H61236   2.527   5.825   3.763 -0.8303 -0.1701  1.7574
  454MOL0     H61237   2.688   5.838   3.585 -1.0340 -0.0134  0.0215
  454MOL0     H61238   2.785   5.714   3.664  0.7269  2.5608  0.1733
  454MOL0     H61239   2.619   5.538   3.584 -0.7826  0.3523  0.0850
  454MOL0     H61240   2.648   5.645   3.448  1.2187  1.7044 -0.5449
  454MOL0     H61241   2.362   5.515   3.646  2.1712 -0.7025 -0.8894
  454MOL0     H61242   2.052   5.719   3.579 -0.0764 -1.3360 -0.9231
  454MOL0     H61243   2.092   5.554   3.638 -2.6234  0.9225 -1.0504
  454MOL0     H61244   2.202   5.760   3.815  0.6828  0.1420 -2.0509
  454MOL0     H61245   2.117   5.623   3.854  0.1368 -2.0804 -2.7252
  454MOL0     H61246   1.990   5.870   3.726 -0.4652  0.5937  0.3480
  454MOL0     H61247   2.012   5.860   3.902  4.0392 -0.5797 -0.0694
  454MOL0     H61248   1.898   5.641   3.895  0.9835 -0.7284 -1.0982
  454MOL0     H61249   1.837   5.676   3.737 -0.3676 -0.8982  0.9239
  454MOL0     H61250   1.545   5.877   3.781 -2.3485  0.2544  0.0435
  454MOL0     H61251   1.327   5.887   3.724  0.3582 -1.9293 -1.5333
  454MOL0     H61252   1.241   5.744   3.716 -2.1970  0.6458 -1.1182
  454MOL0     H61253   1.224   5.844   3.864 -0.9070  0.2307 -0.0771
  454MOL0     H61254   1.167   5.532   4.245 -0.9985 -0.0455  1.0121
  454MOL0     H61255   0.955   5.450   4.345 -1.3882 -1.5195  0.6495
  454MOL0     H61256   0.688   5.192   4.391  0.0562 -1.5473 -0.3038
  454MOL0     H61257   0.839   5.256   4.452  1.8480 -0.6449 -1.5774
  454MOL0     H61258   0.734   5.465   4.467 -0.8940  0.1560  1.2376
  454MOL0     H61259   0.748   5.471   4.298 -1.8900 -0.0291 -1.6769
  454MOL0     H61260   0.522   5.528   4.376  0.2531  1.2642 -1.4087
  454MOL0     H61261   0.485   5.359   4.400  2.0755 -1.7629  0.0643
  454MOL0     H61262   0.606   5.461   4.133 -0.8929 -1.6622 -2.9871
  454MOL0     H61263   0.547   5.302   4.171 -0.7896  0.1467 -2.7044
  454MOL0     H61264   0.394   5.459   4.039  0.0518  1.4589  0.3810
  454MOL0     H61265   0.376   5.547   4.192  0.7393  1.1150 -0.4880
  454MOL0     H61266   0.317   5.262   4.119  1.8690  0.3224 -1.3198
  454MOL0     H61267   0.294   5.311   4.286  1.3368  0.5755 -0.9591
  454MOL0     H61268   0.152   5.406   4.034  2.0918 -1.2085 -1.0591
  454MOL0     H61269   0.118   5.478   4.195 -2.3581 -0.4120 -0.2640
  454MOL0     H61270   0.019   5.291   4.266 -3.1395 -2.3189 -1.2991
  454MOL0     H61271   0.077   5.186   4.133  1.0564 -0.9075  2.7813
  454MOL0     H61272   0.921   5.174   4.031  0.3445  0.4291 -2.7075
  454MOL0     H61273   1.155   5.226   3.950 -0.9897 -1.4395  1.3973
  454MOL0     H61274   1.517   5.465   4.047 -1.2778  1.3286  3.2609
  454MOL0     H61275   1.730   5.578   4.029 -1.4742 -1.3235  1.7468
  454MOL0     H61276   3.324   6.261   3.819 -0.6382 -2.5637  0.2155
  454MOL0     H61277   3.514   6.272   3.672  0.4943  1.2292  0.2849
  454MOL0     H61278   3.604   6.501   3.065  0.6919  1.4282 -0.0830
  454MOL0     H61279   3.827   6.514   2.977  0.0978 -1.1864 -0.4594
  454MOL0     H61280   4.194   6.412   3.179 -1.2353 -1.6410  1.3690
  454MOL0     H61281   4.142   6.251   3.173 -1.1673  1.9304  2.9923
  454MOL0     H61282   4.357   6.287   3.088  0.6585  1.1355 -0.5442
  454MOL0     H61283   4.309   6.394   2.957 -1.1225  3.2382  2.6423
  454MOL0     H61284   4.148   6.198   2.883 -0.8435 -2.8609  0.9249
  454MOL0     H61285   4.205   6.087   3.002 -2.0085 -0.6628 -1.8156
  454MOL0     H61286   4.350   6.238   2.779 -1.2484  0.9703  0.3089
  454MOL0     H61287   4.320   6.069   2.774  0.0156  2.6271 -3.7921
  454MOL0     H61288   4.636   6.053   3.054  1.2236 -0.0145 -1.6592
  454MOL0     H61289   3.970   6.255   3.294  0.8178  0.1398 -1.7828
  454MOL0     H61290   3.754   6.254   3.379 -0.4212 -0.1466  0.7035
  455MOL0     O61291   7.795   4.793   3.978  0.5429  0.6718  0.0773
  455MOL0     C61292   7.856   4.786   3.868  0.4331  0.4798  0.3133
  455MOL0     O61293   7.813   4.828   3.746  0.3789 -0.1068  0.5574
  455MOL0     C61294   7.680   4.868   3.740 -0.1892 -0.6414  0.0463
  455MOL0     C61295   7.663   4.997   3.693  0.0995  0.0659 -0.6082
  455MOL0     C61296   7.535   5.060   3.695 -0.0396 -0.7456 -0.3816
  455MOL0     C61297   7.429   4.990   3.750  0.2420  0.2968  0.5647
  455MOL0     O61298   7.312   5.041   3.778 -0.3242  0.4835 -0.3973
  455MOL0     C61299   7.227   5.096   3.682  0.2089  0.3041 -0.3947
  455MOL0     C61300   7.184   4.990   3.567 -0.0717 -0.3782 -0.9712
  455MOL0     C61301   7.090   4.891   3.632  0.5258  0.2186  0.8507
  455MOL0     C61302   7.036   4.779   3.524 -0.6098  0.5442 -0.4100
  455MOL0     C61303   6.997   4.645   3.594 -0.4134 -0.3150 -0.8147
  455MOL0     C61304   6.910   4.660   3.725 -0.6810 -1.0202 -0.4706
  455MOL0     C61305   6.765   4.710   3.698 -0.4122 -0.2203 -0.7962
  455MOL0     C61306   6.719   4.783   3.825 -0.2830  0.3209  0.2386
  455MOL0     N61307   6.574   4.799   3.828 -0.2525  0.0837 -0.5276
  455MOL0     C61308   6.500   4.875   3.745 -0.2817 -0.2045  0.1174
  455MOL0     C61309   6.367   4.838   3.768 -0.6737  0.9558 -0.8352
  455MOL0     C61310   6.236   4.888   3.709 -0.4333  1.1258 -0.0638
  455MOL0     C61311   6.255   5.006   3.621  0.6806 -0.0316  0.2939
  455MOL0     C61312   6.246   4.963   3.478  0.8150  0.0249  0.2492
  455MOL0     C61313   6.258   5.073   3.377 -0.4684 -0.5812  0.0358
  455MOL0     O61314   6.379   5.069   3.299 -0.2063  0.2999  0.6254
  455MOL0     C61315   6.496   5.104   3.358 -0.9764 -0.0798  0.6707
  455MOL0     C61316   6.527   5.241   3.356 -0.0230  0.8736 -0.9082
  455MOL0     C61317   6.651   5.285   3.406 -0.6308 -0.2941 -0.4299
  455MOL0     C61318   6.681   5.436   3.420 -0.1831  0.1762 -0.2250
  455MOL0     C61319   6.748   5.189   3.454  0.9270  0.1903  0.4422
  455MOL0     C61320   6.879   5.237   3.509  0.1597  2.0814 -1.2008
  455MOL0     O61321   6.964   5.275   3.421  0.4649 -0.1457 -0.6939
  455MOL0     C61322   7.089   5.331   3.457  1.0182 -0.3857 -0.7788
  455MOL0     C61323   7.094   5.442   3.550 -0.1030  0.1277 -0.4782
  455MOL0     C61324   7.211   5.501   3.583  0.7489 -0.5695 -0.2329
  455MOL0     C61325   7.322   5.465   3.511  0.0055 -0.2741 -0.5678
  455MOL0     O61326   7.430   5.537   3.547 -0.4633 -0.3302  0.2085
  455MOL0     C61327   7.557   5.523   3.479 -1.1773  0.5030  0.5103
  455MOL0     C61328   7.675   5.563   3.566 -0.0744 -0.6751  0.6862
  455MOL0     C61329   7.686   5.711   3.570 -0.4438 -0.5029 -0.8166
  455MOL0     C61330   7.829   5.745   3.603 -0.1997  0.6708  0.7711
  455MOL0     C61331   7.815   5.901   3.642 -0.6673 -1.0925  0.4584
  455MOL0     C61332   7.948   5.939   3.699  0.5009 -0.0275  0.0524
  455MOL0     C61333   7.963   6.085   3.727  0.0787  0.7375  0.6714
  455MOL0     C61334   8.107   6.112   3.787  0.5673  0.1251  1.6171
  455MOL0    Cl61335   8.236   6.108   3.669 -0.0487  0.4740 -0.1969
  455MOL0     C61336   7.313   5.376   3.404 -0.0566  0.7242  0.3815
  455MOL0     C61337   7.193   5.306   3.376  0.0313 -0.0455  0.0615
  455MOL0     O61338   6.902   5.228   3.629 -0.4263 -0.4155  0.0033
  455MOL0     C61339   6.715   5.058   3.448  0.2883  0.3828 -0.3912
  455MOL0     C61340   6.593   5.015   3.397 -0.1984  0.1828  0.1844
  455MOL0     N61341   6.378   4.743   3.869  0.0662 -0.3725  0.4247
  455MOL0     N61342   6.499   4.718   3.906 -0.3187 -0.4764 -0.3058
  455MOL0     C61343   7.442   4.854   3.778 -0.0132  0.4199 -0.0219
  455MOL0     C61344   7.568   4.790   3.772 -0.4914 -0.5130  0.1460
  455MOL0     C61345   7.983   4.726   3.870 -0.5017 -0.6155  0.3151
  455MOL0     C61346   8.069   4.729   3.764 -0.3447 -0.5284 -0.5669
  455MOL0     C61347   8.193   4.669   3.773  0.4455  0.6776 -0.2435
  455MOL0     C61348   8.236   4.615   3.895  0.1068  0.4182 -1.0824
  455MOL0     O61349   8.357   4.570   3.935 -0.6406  0.9488  0.4210
  455MOL0     C61350   8.474   4.624   3.867  0.4813 -0.4913  0.2510
  455MOL0     C61351   8.611   4.590   3.928  0.7785  0.3259  0.4937
  455MOL0     C61352   8.636   4.666   4.059  0.7654 -0.3372 -0.0277
  455MOL0     C61353   8.771   4.628   4.119  0.3515 -0.7511  0.1932
  455MOL0     C61354   8.781   4.487   4.169  0.2748 -1.0166 -0.9858
  455MOL0     C61355   8.794   4.380   4.210 -1.0934  0.5006 -0.6153
  455MOL0     C61356   8.142   4.598   3.995  0.3825  0.3891 -0.5617
  455MOL0     C61357   8.016   4.651   3.986 -0.2240  0.4314 -0.0820
  455MOL0     H61358   7.740   5.065   3.658  2.2896 -1.8224  0.2626
  455MOL0     H61359   7.505   5.163   3.678 -2.1426 -1.1565  0.4618
  455MOL0     H61360   7.133   5.120   3.731  1.0946 -0.3619  1.7252
  455MOL0     H61361   7.266   5.189   3.641  0.3013  0.4581  0.0401
  455MOL0     H61362   7.129   5.030   3.481  0.8225 -0.0759 -1.4160
  455MOL0     H61363   7.274   4.938   3.536 -0.3147 -1.5465  0.1853
  455MOL0     H61364   7.143   4.845   3.717  0.4467 -1.1479  0.1956
  455MOL0     H61365   6.997   4.937   3.665 -0.1188  0.2137 -0.8479
  455MOL0     H61366   6.965   4.821   3.452 -2.2752 -1.4668 -0.0484
  455MOL0     H61367   7.111   4.744   3.452 -0.4703 -0.3055  0.1306
  455MOL0     H61368   6.963   4.578   3.514  0.7015  0.7541 -2.2244
  455MOL0     H61369   7.094   4.608   3.629 -0.9492 -1.5577 -0.5577
  455MOL0     H61370   6.920   4.564   3.777 -1.9150 -0.9507 -0.0915
  455MOL0     H61371   6.959   4.733   3.790 -1.3482 -1.9898  1.1612
  455MOL0     H61372   6.768   4.782   3.617 -0.9486 -0.4156 -0.9911
  455MOL0     H61373   6.702   4.622   3.681 -0.6543 -0.4756  1.1758
  455MOL0     H61374   6.763   4.883   3.835 -3.6523  1.7254  5.6143
  455MOL0     H61375   6.748   4.731   3.917  1.2348  1.3616  0.3873
  455MOL0     H61376   6.535   4.956   3.682 -1.1743  0.3820  0.3657
  455MOL0     H61377   6.188   4.805   3.656 -1.8580  2.4403 -0.9404
  455MOL0     H61378   6.179   4.921   3.796  0.1338  1.9053  0.0174
  455MOL0     H61379   6.350   5.056   3.642  1.0294  0.4913 -2.1651
  455MOL0     H61380   6.176   5.081   3.632 -0.8412 -1.7246  1.5409
  455MOL0     H61381   6.144   4.927   3.462  0.7284  0.7220 -0.8681
  455MOL0     H61382   6.315   4.885   3.447 -1.4011 -2.8042  1.9375
  455MOL0     H61383   6.259   5.177   3.413 -2.2125 -0.1152 -1.1065
  455MOL0     H61384   6.178   5.066   3.303 -0.8844  0.6164  0.3360
  455MOL0     H61385   6.460   5.320   3.325 -4.0554 -0.9374  2.1894
  455MOL0     H61386   6.778   5.463   3.375  0.1492 -0.4883  0.0824
  455MOL0     H61387   6.597   5.494   3.382  0.0611  1.5761  1.2861
  455MOL0     H61388   6.703   5.467   3.522  2.3441  0.6749 -0.8329
  455MOL0     H61389   6.994   5.470   3.581 -0.1681  0.8253 -1.2695
  455MOL0     H61390   7.231   5.563   3.671 -0.1978 -0.7062  0.0892
  455MOL0     H61391   7.568   5.418   3.451 -0.0479  0.3309  1.5438
  455MOL0     H61392   7.567   5.581   3.387 -1.6754 -2.1222 -1.3181
  455MOL0     H61393   7.641   5.525   3.663  1.1547 -4.2802 -0.1331
  455MOL0     H61394   7.770   5.512   3.548  0.4425  0.4964 -0.0807
  455MOL0     H61395   7.621   5.745   3.651  0.7466 -2.1386  0.9101
  455MOL0     H61396   7.656   5.763   3.479 -0.0007 -3.6049 -2.8736
  455MOL0     H61397   7.871   5.682   3.682 -2.1497 -1.1360  0.4563
  455MOL0     H61398   7.891   5.741   3.513 -0.2345  0.6973  0.7465
  455MOL0     H61399   7.739   5.917   3.719  0.6171 -1.9719  1.9591
  455MOL0     H61400   7.791   5.970   3.560 -0.0425  1.7445  2.5265
  455MOL0     H61401   7.951   5.890   3.796 -1.1674  0.9100  0.6182
  455MOL0     H61402   8.025   5.897   3.633  0.3237 -2.0106  1.0435
  455MOL0     H61403   7.890   6.119   3.801 -2.5333  0.8122 -1.7766
  455MOL0     H61404   7.941   6.152   3.643 -2.9904 -1.2941 -0.2800
  455MOL0     H61405   8.121   6.044   3.872 -1.7275 -0.1081  1.8912
  455MOL0     H61406   8.112   6.214   3.825  0.2791 -0.1296  2.3620
  455MOL0     H61407   7.398   5.353   3.341  2.3602  2.5715  2.7794
  455MOL0     H61408   7.177   5.230   3.300 -0.8441 -0.3852  0.5773
  455MOL0     H61409   6.786   4.980   3.471  0.5404  1.0766  1.3274
  455MOL0     H61410   6.583   4.910   3.373  1.3920  0.1646 -0.5410
  455MOL0     H61411   7.357   4.797   3.812  1.4541 -3.1261 -1.7902
  455MOL0     H61412   7.587   4.694   3.818 -0.6143 -1.0466 -0.8902
  455MOL0     H61413   8.039   4.782   3.674 -0.4035  1.4000  0.5509
  455MOL0     H61414   8.266   4.659   3.693  0.7290 -4.4981  0.3639
  455MOL0     H61415   8.479   4.591   3.763  1.0475 -0.8205  0.3753
  455MOL0     H61416   8.472   4.732   3.854  0.4037 -0.4071  0.9632
  455MOL0     H61417   8.678   4.624   3.848 -1.5586 -2.2746 -2.8551
  455MOL0     H61418   8.624   4.482   3.942 -0.1666  0.4136  2.3298
  455MOL0     H61419   8.560   4.640   4.133  0.0937  2.3404  0.3341
  455MOL0     H61420   8.643   4.773   4.040  0.2856 -0.4200 -0.6810
  455MOL0     H61421   8.790   4.698   4.202 -0.6984 -0.8454  0.5298
  455MOL0     H61422   8.864   4.654   4.066  1.1199 -0.2363  1.7165
  455MOL0     H61423   8.823   4.286   4.251  3.5458  1.2760 -1.5562
  455MOL0     H61424   8.163   4.547   4.088 -0.3160  0.0967 -0.5607
  455MOL0     H61425   7.942   4.649   4.065 -1.7709  0.2345 -1.4930
  456MOL0     O61426  10.067   2.788   4.664 -0.3079 -0.2293 -0.2911
  456MOL0     C61427  10.022   2.677   4.650 -0.6965  0.8391 -0.4816
  456MOL0     O61428   9.886   2.643   4.652 -0.0110 -0.3456  0.2735
  456MOL0     C61429   9.789   2.723   4.706  0.3776 -0.0723 -0.4750
  456MOL0     C61430   9.809   2.827   4.803  0.5022 -0.1619  0.2037
  456MOL0     C61431   9.701   2.875   4.881 -0.0398 -1.0767 -0.3944
  456MOL0     C61432   9.563   2.828   4.847 -0.6721 -0.1325 -1.1383
  456MOL0     O61433   9.468   2.872   4.929  0.4533 -0.2619  0.1984
  456MOL0     C61434   9.331   2.856   4.893 -0.0162 -0.0358  0.0271
  456MOL0     C61435   9.247   2.970   4.960  0.1689  0.1881  1.2031
  456MOL0     C61436   9.260   2.979   5.107 -0.7839  0.2356  0.4956
  456MOL0     C61437   9.216   2.856   5.188 -1.0152  0.5187 -0.6573
  456MOL0     C61438   9.152   2.910   5.316  0.3419  0.4066  0.5447
  456MOL0     C61439   9.078   2.790   5.380  0.1393 -0.7012 -0.7470
  456MOL0     C61440   8.972   2.833   5.477 -0.4127  0.2424  0.0838
  456MOL0     C61441   8.843   2.860   5.413  0.0211  0.0153  0.5534
  456MOL0     N61442   8.741   2.875   5.520 -0.2074  0.1159 -0.2778
  456MOL0     C61443   8.703   2.774   5.599  0.7779  1.3824  0.2573
  456MOL0     C61444   8.602   2.818   5.680  0.8192 -0.9170 -0.1314
  456MOL0     C61445   8.499   2.730   5.759 -0.6002 -0.0005  0.1920
  456MOL0     C61446   8.481   2.784   5.900  0.0396  0.4755 -0.4695
  456MOL0     C61447   8.369   2.717   5.977  0.1666 -0.3443 -0.3048
  456MOL0     C61448   8.343   2.751   6.123  0.1530  0.6351 -0.0221
  456MOL0     O61449   8.471   2.724   6.190  0.7545 -0.8733  0.3223
  456MOL0     C61450   8.476   2.753   6.325 -0.4439 -0.6753  0.2618
  456MOL0     C61451   8.367   2.792   6.397  0.0012 -0.5537 -0.7548
  456MOL0     C61452   8.367   2.812   6.535  0.3625  0.6038 -0.6562
  456MOL0     C61453   8.230   2.823   6.604  0.0020 -0.0082  0.1592
  456MOL0     C61454   8.492   2.799   6.607  1.0061  1.0522 -0.1802
  456MOL0     C61455   8.518   2.845   6.746 -0.6187 -0.3309 -0.3771
  456MOL0     O61456   8.624   2.790   6.804 -0.6286  0.1851  0.2571
  456MOL0     C61457   8.633   2.780   6.941 -0.3246  0.0409  0.4040
  456MOL0     C61458   8.527   2.769   7.019 -0.4444  0.0366  0.5836
  456MOL0     C61459   8.543   2.750   7.156 -0.3131 -0.6995  0.3561
  456MOL0     C61460   8.668   2.766   7.215  0.0404  0.7003 -0.5895
  456MOL0     O61461   8.693   2.749   7.347 -0.1136  0.2923  0.0233
  456MOL0     C61462   8.668   2.862   7.437 -0.1312  0.3198 -0.4928
  456MOL0     C61463   8.748   2.845   7.574  0.0918  0.5542 -1.0782
  456MOL0     C61464   8.902   2.879   7.592  0.4852 -0.7361 -0.3060
  456MOL0     C61465   8.969   2.834   7.468 -1.1354 -0.9572  0.2052
  456MOL0     C61466   9.122   2.843   7.479 -0.2687  0.6668  0.2806
  456MOL0     C61467   9.194   2.793   7.347  0.1803 -0.4215 -0.2487
  456MOL0     C61468   9.353   2.769   7.360  1.0391 -0.2820 -0.0525
  456MOL0     C61469   9.429   2.898   7.388  0.2564 -0.2126 -0.2818
  456MOL0    Cl61470   9.429   2.977   7.227 -0.4341  0.3648  0.2625
  456MOL0     C61471   8.782   2.768   7.129  0.7086  0.3861 -0.7257
  456MOL0     C61472   8.769   2.769   6.992 -0.2394  0.0075  0.3563
  456MOL0     O61473   8.438   2.927   6.793 -0.2028  0.5049  0.2022
  456MOL0     C61474   8.601   2.751   6.534  0.3903 -0.0346 -0.4299
  456MOL0     C61475   8.593   2.729   6.394  0.1113  0.2378  0.2485
  456MOL0     N61476   8.587   2.959   5.647  0.8434  0.2548 -0.2840
  456MOL0     N61477   8.670   2.983   5.554 -0.0158  0.3737  0.9618
  456MOL0     C61478   9.550   2.738   4.740  0.2949 -0.9285 -0.7530
  456MOL0     C61479   9.658   2.684   4.682 -0.6843  0.4368 -0.5351
  456MOL0     C61480  10.105   2.557   4.600  0.0109 -0.6489 -0.5625
  456MOL0     C61481  10.242   2.553   4.631  0.7575  0.0261 -1.3144
  456MOL0     C61482  10.320   2.450   4.586 -0.0603 -0.3451 -0.1404
  456MOL0     C61483  10.268   2.345   4.514  0.9105  0.3894  0.2216
  456MOL0     O61484  10.343   2.247   4.457 -0.1249  0.3512 -0.2703
  456MOL0     C61485  10.339   2.232   4.315 -0.2276 -0.2704  0.8015
  456MOL0     C61486  10.464   2.306   4.261 -0.1291 -0.5225  0.5503
  456MOL0     C61487  10.504   2.257   4.116  0.4917  0.3737 -0.3644
  456MOL0     C61488  10.635   2.299   4.066  0.7100  0.5005  0.2275
  456MOL0     C61489  10.649   2.301   3.924 -0.8805 -0.5738 -1.6265
  456MOL0     C61490  10.644   2.302   3.809 -0.0774  0.1945 -0.4089
  456MOL0     C61491  10.131   2.352   4.482 -0.1469  0.4063 -0.3053
  456MOL0     C61492  10.050   2.456   4.525  0.1800  0.1997  0.3148
  456MOL0     H61493   9.910   2.847   4.837 -0.0084 -1.9501  3.1915
  456MOL0     H61494   9.714   2.937   4.969  1.3184 -0.1750 -1.2091
  456MOL0     H61495   9.309   2.847   4.786 -2.1100  0.0071  0.3979
  456MOL0     H61496   9.286   2.765   4.935  0.8696  0.4228  2.0360
  456MOL0     H61497   9.281   3.062   4.911 -0.8334 -0.4589 -0.8264
  456MOL0     H61498   9.143   2.970   4.926  1.0544  0.7867 -1.7662
  456MOL0     H61499   9.366   3.003   5.122 -0.9871  2.4329 -1.0189
  456MOL0     H61500   9.205   3.068   5.140 -1.6191  0.6667 -1.8765
  456MOL0     H61501   9.146   2.798   5.127 -0.0121 -3.5236  1.6551
  456MOL0     H61502   9.295   2.789   5.223 -0.4917  1.9229  0.9679
  456MOL0     H61503   9.215   2.961   5.389  1.0312  1.4572 -0.7446
  456MOL0     H61504   9.069   2.971   5.280 -2.9771 -3.3351  1.1044
  456MOL0     H61505   9.036   2.715   5.312 -0.3820 -1.0392 -0.0784
  456MOL0     H61506   9.145   2.738   5.449 -0.5876  0.5028  0.9386
  456MOL0     H61507   8.961   2.738   5.529  3.1792 -0.2655  0.1474
  456MOL0     H61508   9.012   2.905   5.550 -0.5599 -2.1211  2.6939
  456MOL0     H61509   8.813   2.780   5.345 -0.1446  2.6016 -2.6901
  456MOL0     H61510   8.850   2.957   5.362 -0.2743 -0.1315  0.2270
  456MOL0     H61511   8.737   2.672   5.591 -1.2329  0.3246  3.4221
  456MOL0     H61512   8.403   2.728   5.705 -0.6638  0.9742  0.2578
  456MOL0     H61513   8.538   2.629   5.772  0.0917  0.4634  2.0481
  456MOL0     H61514   8.452   2.890   5.896  0.3296  0.5305 -1.4845
  456MOL0     H61515   8.576   2.775   5.954 -0.1766  0.4351 -0.0882
  456MOL0     H61516   8.382   2.609   5.974  1.1958 -0.4876  3.4729
  456MOL0     H61517   8.275   2.744   5.927 -0.4283 -1.6420  0.0638
  456MOL0     H61518   8.275   2.683   6.175  1.4583  0.3630  1.3995
  456MOL0     H61519   8.313   2.856   6.130 -0.6054  0.3588  1.3391
  456MOL0     H61520   8.274   2.808   6.342  2.1287  0.1224 -4.5072
  456MOL0     H61521   8.211   2.914   6.662 -3.7533  0.7952 -1.9694
  456MOL0     H61522   8.149   2.814   6.531  1.9907  0.6347 -2.2786
  456MOL0     H61523   8.230   2.737   6.672  1.0915  0.9918  1.4703
  456MOL0     H61524   8.427   2.775   6.976 -0.6582 -1.9020  0.7093
  456MOL0     H61525   8.451   2.718   7.203 -0.4187 -2.9768 -1.2150
  456MOL0     H61526   8.710   2.952   7.393 -0.7333 -0.1245 -2.0410
  456MOL0     H61527   8.560   2.867   7.456 -0.3583 -0.6028 -1.4644
  456MOL0     H61528   8.692   2.906   7.646  2.6792  1.3281  0.4067
  456MOL0     H61529   8.747   2.740   7.605 -0.7291  1.0781  0.8531
  456MOL0     H61530   8.949   2.841   7.683 -0.2857 -0.7498  0.0954
  456MOL0     H61531   8.895   2.986   7.611 -2.1272 -1.3497  3.1701
  456MOL0     H61532   8.944   2.731   7.443 -4.0199 -0.1912 -0.4368
  456MOL0     H61533   8.941   2.899   7.385  3.2448 -1.4506 -1.9478
  456MOL0     H61534   9.162   2.779   7.558 -0.0927 -0.1308 -0.4361
  456MOL0     H61535   9.160   2.945   7.492 -0.1590  0.5405  0.9525
  456MOL0     H61536   9.145   2.703   7.309 -0.7251 -0.2661  0.5241
  456MOL0     H61537   9.182   2.873   7.274  0.6139 -1.1543 -1.1396
  456MOL0     H61538   9.379   2.718   7.268 -0.6135  1.6739 -1.7184
  456MOL0     H61539   9.372   2.714   7.453  0.2081  0.3752  0.5315
  456MOL0     H61540   9.533   2.890   7.421  0.1621  1.3215  0.4955
  456MOL0     H61541   9.389   2.970   7.460  3.3788  2.9876 -1.3982
  456MOL0     H61542   8.875   2.775   7.184  1.5284  1.2298 -2.1629
  456MOL0     H61543   8.857   2.784   6.931  0.2100  0.5941  1.1229
  456MOL0     H61544   8.696   2.733   6.583  0.5501 -3.0022 -1.6283
  456MOL0     H61545   8.678   2.690   6.340 -0.3753 -0.6525  0.1021
  456MOL0     H61546   9.462   2.682   4.713  0.1593 -0.7204 -0.7423
  456MOL0     H61547   9.644   2.603   4.611  1.9142  1.1525 -1.9860
  456MOL0     H61548  10.289   2.636   4.683  0.2942  0.5687 -1.7311
  456MOL0     H61549  10.427   2.445   4.605  0.0084 -0.2547 -0.4983
  456MOL0     H61550  10.340   2.125   4.292  0.9053 -0.2287  0.5884
  456MOL0     H61551  10.249   2.264   4.262  0.3889 -0.5881 -0.4702
  456MOL0     H61552  10.541   2.305   4.339 -1.8048 -1.1317  2.2808
  456MOL0     H61553  10.435   2.411   4.252 -0.7493 -0.8524 -2.5473
  456MOL0     H61554  10.428   2.283   4.042 -1.0207 -1.7122  0.3626
  456MOL0     H61555  10.503   2.148   4.110  0.3610  0.3211  0.5110
  456MOL0     H61556  10.704   2.227   4.110  2.0358  0.4560 -1.7987
  456MOL0     H61557  10.650   2.401   4.103  0.0415  1.1707 -1.2934
  456MOL0     H61558  10.635   2.303   3.702 -2.0035 -0.3943 -0.2910
  456MOL0     H61559  10.078   2.282   4.419  1.8544 -1.3295 -0.1544
  456MOL0     H61560   9.948   2.450   4.488  0.0120 -3.1781  0.9890
  457MOL0     O61561   5.812   0.601   1.892 -0.7605 -0.0844  0.2291
  457MOL0     C61562   5.807   0.697   1.967  0.1950  0.5409  0.4316
  457MOL0     O61563   5.688   0.764   2.003  0.1480  0.4393 -0.2744
  457MOL0     C61564   5.560   0.726   1.963  0.6715 -0.3964  0.8623
  457MOL0     C61565   5.518   0.603   1.926  0.1307 -0.1248 -0.7349
  457MOL0     C61566   5.378   0.587   1.905  0.2567  0.5120  0.0511
  457MOL0     C61567   5.290   0.688   1.950 -0.2313 -0.1775 -0.0669
  457MOL0     O61568   5.159   0.649   1.945  0.0608  0.3898  0.3304
  457MOL0     C61569   5.063   0.747   1.964  0.1838 -0.1031 -0.0229
  457MOL0     C61570   4.917   0.696   1.952 -0.0314  0.1875 -0.2950
  457MOL0     C61571   4.894   0.557   2.017 -0.1030 -0.2456  0.0320
  457MOL0     C61572   4.765   0.494   1.968 -0.2752  1.0726 -0.5248
  457MOL0     C61573   4.782   0.344   1.993  0.1682 -0.1316 -0.0095
  457MOL0     C61574   4.652   0.266   1.985 -0.1656  0.7182  0.4328
  457MOL0     C61575   4.611   0.238   1.837  0.2852 -0.3768 -0.4869
  457MOL0     C61576   4.486   0.142   1.837 -0.2221  0.1051  0.9926
  457MOL0     N61577   4.369   0.208   1.877  0.0691  0.1407 -0.5035
  457MOL0     C61578   4.315   0.205   1.997  0.3786 -0.0687  0.2196
  457MOL0     C61579   4.196   0.273   1.980  0.9962  0.3630  0.4718
  457MOL0     C61580   4.084   0.280   2.082 -0.2758 -0.2983 -0.6971
  457MOL0     C61581   4.068   0.396   2.184  0.4099  0.2521 -0.0328
  457MOL0     C61582   3.974   0.350   2.297  0.1403  0.1458 -0.8150
  457MOL0     C61583   3.938   0.469   2.391  0.6021 -0.1710 -0.1931
  457MOL0     O61584   3.820   0.444   2.465  0.4126  0.0661  0.0185
  457MOL0     C61585   3.696   0.462   2.402 -0.4268 -0.0566  0.0129
  457MOL0     C61586   3.681   0.504   2.272 -0.1735 -0.9874  0.2001
  457MOL0     C61587   3.560   0.551   2.220 -0.0716 -0.6482 -0.0236
  457MOL0     C61588   3.553   0.590   2.072 -0.3504 -0.0905 -0.9092
  457MOL0     C61589   3.437   0.553   2.297  0.0681  0.3377  0.5662
  457MOL0     C61590   3.304   0.596   2.252 -0.6790  0.2740 -1.1496
  457MOL0     O61591   3.202   0.554   2.332 -0.4583  0.0108 -0.3347
  457MOL0     C61592   3.063   0.563   2.299 -0.9774  0.9731 -0.3591
  457MOL0     C61593   3.006   0.646   2.208  0.2357  0.3951  0.1908
  457MOL0     C61594   2.865   0.630   2.177  0.1413  0.5631  0.7713
  457MOL0     C61595   2.785   0.531   2.241  0.7759 -0.3730  0.3297
  457MOL0     O61596   2.649   0.509   2.207  0.3459  0.2285 -0.5165
  457MOL0     C61597   2.564   0.473   2.317  0.2895  0.2257 -0.6370
  457MOL0     C61598   2.415   0.503   2.276 -0.5236  0.0186 -0.1714
  457MOL0     C61599   2.323   0.497   2.397  0.2411 -1.0667 -0.0645
  457MOL0     C61600   2.179   0.531   2.357 -0.4377  0.1970 -0.0152
  457MOL0     C61601   2.083   0.530   2.477 -0.1790  0.9031  0.4800
  457MOL0     C61602   2.097   0.657   2.563 -0.0541 -0.2176  0.1580
  457MOL0     C61603   2.161   0.616   2.696  0.2092  0.4884 -0.8705
  457MOL0     C61604   2.060   0.539   2.781 -0.1192  0.3439 -0.1020
  457MOL0    Cl61605   2.124   0.442   2.891 -0.1887  0.1282 -1.0259
  457MOL0     C61606   2.850   0.456   2.340 -0.3173  0.4147 -0.1385
  457MOL0     C61607   2.985   0.476   2.372  0.2886  0.5541 -0.2598
  457MOL0     O61608   3.292   0.673   2.156  0.1983  0.0381  0.2967
  457MOL0     C61609   3.450   0.494   2.416  0.4896  0.4595 -0.2388
  457MOL0     C61610   3.578   0.457   2.470 -0.1337  0.0238  1.0227
  457MOL0     N61611   4.189   0.325   1.854 -0.1022  0.7183 -0.5561
  457MOL0     N61612   4.299   0.292   1.797 -0.5440  0.0927  1.2526
  457MOL0     C61613   5.337   0.809   1.989 -0.6987  0.1240 -0.6327
  457MOL0     C61614   5.471   0.828   2.002  0.1689  0.0543 -0.0568
  457MOL0     C61615   5.932   0.750   2.026 -0.1113  0.4067  0.3117
  457MOL0     C61616   5.941   0.872   2.084  0.1674  0.2888  0.2312
  457MOL0     C61617   6.062   0.920   2.136 -0.3637 -0.6164  0.2547
  457MOL0     C61618   6.180   0.839   2.129 -0.5399 -0.5421  0.3596
  457MOL0     O61619   6.302   0.887   2.173  0.8630 -0.2275  0.2013
  457MOL0     C61620   6.395   0.921   2.071  0.2264 -0.4512 -0.6415
  457MOL0     C61621   6.542   0.940   2.126 -0.0697  0.4339 -0.1285
  457MOL0     C61622   6.587   0.826   2.222 -1.6090  0.2437 -0.6096
  457MOL0     C61623   6.729   0.855   2.269  0.3962  0.2283  0.4120
  457MOL0     C61624   6.779   0.747   2.355 -0.1099 -0.0578  0.5481
  457MOL0     C61625   6.806   0.654   2.429  0.3655  0.1107 -0.4370
  457MOL0     C61626   6.170   0.715   2.077 -0.4560  0.1652 -0.0619
  457MOL0     C61627   6.046   0.672   2.023  0.1783  0.3757  0.9579
  457MOL0     H61628   5.592   0.525   1.914  0.7574  0.5551 -1.4357
  457MOL0     H61629   5.343   0.491   1.868  1.2233 -1.3363  3.4635
  457MOL0     H61630   5.075   0.792   2.063 -2.0278  2.3334 -0.7377
  457MOL0     H61631   5.076   0.821   1.885 -0.2449 -1.7632 -1.7052
  457MOL0     H61632   4.846   0.773   1.983 -1.2552 -0.1747 -2.0451
  457MOL0     H61633   4.894   0.679   1.846 -3.0741  0.6726  0.1988
  457MOL0     H61634   4.976   0.491   1.989  1.5806  0.4028  3.0222
  457MOL0     H61635   4.898   0.554   2.126  2.5452 -0.5472 -0.0013
  457MOL0     H61636   4.677   0.541   2.013 -0.6045 -1.2359  1.4189
  457MOL0     H61637   4.752   0.508   1.860  1.9186  0.8868 -0.8575
  457MOL0     H61638   4.866   0.295   1.943 -0.2769 -0.0515 -0.8653
  457MOL0     H61639   4.792   0.334   2.101 -0.5462 -1.0764 -0.0052
  457MOL0     H61640   4.678   0.173   2.036 -0.6990 -0.0854 -0.7391
  457MOL0     H61641   4.571   0.316   2.040  0.0953  0.7812  0.7635
  457MOL0     H61642   4.576   0.332   1.794  0.1038 -0.6855 -1.0148
  457MOL0     H61643   4.690   0.189   1.779 -0.8347 -0.8971 -1.6139
  457MOL0     H61644   4.510   0.063   1.908  0.9192 -1.7460 -1.3079
  457MOL0     H61645   4.482   0.100   1.736  0.5518  1.2407  0.4576
  457MOL0     H61646   4.360   0.164   2.087  0.0182 -1.2218 -0.1021
  457MOL0     H61647   3.992   0.287   2.024 -0.2439  1.0384 -0.5989
  457MOL0     H61648   4.090   0.183   2.133  3.5971 -0.6739 -1.5281
  457MOL0     H61649   4.008   0.471   2.131 -0.5126 -1.6320 -1.7968
  457MOL0     H61650   4.167   0.431   2.214  0.5595  1.1512 -1.4719
  457MOL0     H61651   4.033   0.276   2.352  2.1821  2.6790  0.6432
  457MOL0     H61652   3.882   0.312   2.253  0.3360 -2.3110  0.7121
  457MOL0     H61653   3.927   0.561   2.332  3.0862  0.2467 -0.0988
  457MOL0     H61654   4.015   0.493   2.464  0.3627 -1.5547  0.5399
  457MOL0     H61655   3.759   0.507   2.197 -1.0832  0.1151 -0.7312
  457MOL0     H61656   3.656   0.613   2.041  0.4501 -2.6756 -0.4310
  457MOL0     H61657   3.501   0.509   2.019 -3.9795  1.0329  0.6276
  457MOL0     H61658   3.494   0.681   2.058  0.1459  0.4130  0.1490
  457MOL0     H61659   3.040   0.739   2.164 -0.1763  0.6764  0.4608
  457MOL0     H61660   2.829   0.700   2.103 -1.8234 -0.4137  0.7585
  457MOL0     H61661   2.570   0.370   2.354 -1.4383  0.9927  2.0082
  457MOL0     H61662   2.592   0.528   2.408  0.1255  0.4255 -0.7076
  457MOL0     H61663   2.414   0.609   2.248 -0.1033  0.3246  0.9295
  457MOL0     H61664   2.376   0.442   2.195 -2.2117 -1.0148  1.3377
  457MOL0     H61665   2.350   0.576   2.467  0.0253  0.0793 -1.2460
  457MOL0     H61666   2.323   0.399   2.446 -2.4151 -0.3518  1.5881
  457MOL0     H61667   2.180   0.630   2.310 -4.1494 -0.2145 -1.3191
  457MOL0     H61668   2.135   0.465   2.281 -1.7831 -0.2855  1.1489
  457MOL0     H61669   2.102   0.438   2.534 -0.5725  1.2615  1.1922
  457MOL0     H61670   1.985   0.517   2.432 -0.9471 -1.8845  2.6589
  457MOL0     H61671   2.159   0.731   2.513 -2.0256  2.6647  1.6994
  457MOL0     H61672   2.000   0.702   2.587 -0.5883 -1.9253  1.4191
  457MOL0     H61673   2.201   0.704   2.746 -0.0612 -0.1247  0.4532
  457MOL0     H61674   2.239   0.543   2.674  1.1017  0.8276  1.0171
  457MOL0     H61675   2.001   0.471   2.717  2.1391 -1.4459 -0.4179
  457MOL0     H61676   1.990   0.604   2.833  0.5084 -0.4067  1.7652
  457MOL0     H61677   2.801   0.375   2.393 -2.5083  0.7839 -1.4483
  457MOL0     H61678   3.051   0.430   2.446  4.5383  2.5933 -2.3902
  457MOL0     H61679   3.366   0.479   2.483  0.4174  0.7025 -0.2750
  457MOL0     H61680   3.570   0.422   2.573  0.1090  0.6438  1.2551
  457MOL0     H61681   5.275   0.888   2.031  0.3326  0.8136 -0.3818
  457MOL0     H61682   5.510   0.920   2.044 -1.8980  0.3932  1.2506
  457MOL0     H61683   5.854   0.934   2.067 -2.2424 -2.6502  0.8615
  457MOL0     H61684   6.068   1.022   2.172 -0.8416  0.1482 -1.6970
  457MOL0     H61685   6.396   0.845   1.992 -0.8195 -1.9902  0.7711
  457MOL0     H61686   6.367   1.020   2.034  2.6197  0.4747 -0.1586
  457MOL0     H61687   6.547   1.034   2.181 -1.2718 -0.2970  1.2778
  457MOL0     H61688   6.615   0.948   2.045 -0.8024 -2.2941 -1.1647
  457MOL0     H61689   6.580   0.727   2.175  0.1778  0.5473 -1.6107
  457MOL0     H61690   6.531   0.817   2.315  1.0284 -3.8932  0.8808
  457MOL0     H61691   6.733   0.948   2.326 -0.7748  0.7187 -0.2678
  457MOL0     H61692   6.796   0.875   2.185 -2.1616 -1.4681 -2.2804
  457MOL0     H61693   6.823   0.583   2.507 -0.9704 -1.2288 -1.3043
  457MOL0     H61694   6.255   0.649   2.089 -1.4991 -1.1859  0.1710
  457MOL0     H61695   6.040   0.574   1.976 -3.4975  0.2607  1.3767
  458MOL0     O61696   3.364   2.340   9.607 -0.3696  0.1615 -1.1244
  458MOL0     C61697   3.412   2.237   9.566 -0.3866  0.1985  0.9426
  458MOL0     O61698   3.362   2.112   9.572 -0.0747 -0.0383 -0.5066
  458MOL0     C61699   3.244   2.095   9.647 -0.2400 -0.0379 -0.3378
  458MOL0     C61700   3.260   1.996   9.744 -0.6291  0.6755  0.1302
  458MOL0     C61701   3.149   1.978   9.829 -0.8563  0.4743 -0.1518
  458MOL0     C61702   3.029   2.049   9.823 -0.3120  0.1286 -0.4207
  458MOL0     O61703   2.929   2.023   9.922  0.1790 -0.0159 -0.7326
  458MOL0     C61704   2.796   2.062   9.891  0.4400 -0.4794 -0.0485
  458MOL0     C61705   2.694   1.998   9.994 -0.8221 -0.2372  0.1969
  458MOL0     C61706   2.566   2.081  10.016  0.1900  0.9027  0.4355
  458MOL0     C61707   2.457   1.999  10.085  0.5377  0.0489  0.5462
  458MOL0     C61708   2.320   2.060  10.089 -0.9640  0.3125  0.7035
  458MOL0     C61709   2.223   1.968  10.153 -0.1805  1.1741  0.6882
  458MOL0     C61710   2.155   1.874  10.056  0.1599 -0.0439  0.6137
  458MOL0     C61711   2.074   1.764  10.139 -0.5393  0.3275  0.1962
  458MOL0     N61712   1.937   1.799  10.177 -0.1577 -0.9365  0.5667
  458MOL0     C61713   1.896   1.862  10.293  0.1194 -0.6720 -0.0447
  458MOL0     C61714   1.763   1.863  10.282  0.2690  0.9006  0.0481
  458MOL0     C61715   1.665   1.919  10.379  0.3492 -0.4614  0.1076
  458MOL0     C61716   1.683   1.873  10.531  0.1884 -0.6985  0.5609
  458MOL0     C61717   1.651   1.723  10.559  0.2740 -0.4271  0.6514
  458MOL0     C61718   1.506   1.689  10.534  0.4799 -0.4165 -0.4607
  458MOL0     O61719   1.490   1.550  10.537  0.2386  0.2732 -0.3154
  458MOL0     C61720   1.360   1.493  10.546  0.4419  0.2785  0.4413
  458MOL0     C61721   1.333   1.370  10.492 -0.5067 -0.8702 -0.4255
  458MOL0     C61722   1.204   1.309  10.512 -0.2781  0.2358  0.3492
  458MOL0     C61723   1.201   1.164  10.477 -0.3984 -0.1781  0.4553
  458MOL0     C61724   1.106   1.379  10.580  0.5142 -0.4481 -1.4476
  458MOL0     C61725   0.966   1.325  10.613 -1.4826  0.4383  0.3083
  458MOL0     O61726   0.926   1.207  10.553 -0.1368 -0.5231 -0.5765
  458MOL0     C61727   0.829   1.130  10.617 -0.4789  0.1461  0.9999
  458MOL0     C61728   0.695   1.143  10.588  0.1842  0.1710  0.7274
  458MOL0     C61729   0.598   1.056  10.637 -0.2904  0.4654 -0.1369
  458MOL0     C61730   0.641   0.950  10.726  0.9965  0.0111  1.0769
  458MOL0     O61731   0.543   0.871  10.782 -0.8140  0.0328 -0.8056
  458MOL0     C61732   0.575   0.766  10.878  0.8950 -0.3489  0.3987
  458MOL0     C61733   0.613   0.819  11.015  0.4558 -0.9806  0.3633
  458MOL0     C61734   0.501   0.875  11.092  0.3210 -0.1137 -0.4999
  458MOL0     C61735   0.416   0.760  11.150  0.7509  0.1602  0.1038
  458MOL0     C61736   0.316   0.799  11.259  0.7444 -0.1753  0.8756
  458MOL0     C61737   0.228   0.914  11.216 -0.0117 -0.0107 -0.6385
  458MOL0     C61738   0.130   0.892  11.098 -0.0682 -1.1760  0.4932
  458MOL0     C61739   0.030   1.007  11.074  0.3067 -0.0002  1.7027
  458MOL0    Cl61740   0.106   1.164  11.050  0.4551  0.3618 -0.0665
  458MOL0     C61741   0.781   0.929  10.735  0.8673 -0.1712  0.4990
  458MOL0     C61742   0.873   1.013  10.683  0.4989  0.6922  0.2559
  458MOL0     O61743   0.896   1.385  10.686  0.0870 -1.1432 -0.3242
  458MOL0     C61744   1.133   1.502  10.629 -0.7852 -0.1108 -0.9239
  458MOL0     C61745   1.258   1.560  10.613  1.1557 -0.5726 -0.9917
  458MOL0     N61746   1.723   1.804  10.165 -0.7917  0.4459  0.1981
  458MOL0     N61747   1.828   1.763  10.105  0.3295 -0.1698  0.0456
  458MOL0     C61748   3.015   2.141   9.718 -0.1591 -0.1698  0.4173
  458MOL0     C61749   3.124   2.164   9.633  0.0909  0.3420  0.7554
  458MOL0     C61750   3.551   2.245   9.516  1.0214 -0.3990 -0.6777
  458MOL0     C61751   3.615   2.366   9.497  0.0924 -0.3419  0.5734
  458MOL0     C61752   3.739   2.376   9.437  0.2297  0.1439  0.9122
  458MOL0     C61753   3.812   2.257   9.402  0.7146  1.0380 -0.0662
  458MOL0     O61754   3.937   2.256   9.348 -0.5586 -0.2504 -0.0515
  458MOL0     C61755   3.947   2.330   9.229  0.7086  0.7589  0.0500
  458MOL0     C61756   4.037   2.264   9.126  0.4287 -0.0681  0.1875
  458MOL0     C61757   4.078   2.361   9.012 -0.2537 -0.1908 -0.5276
  458MOL0     C61758   4.167   2.304   8.911  0.7790 -0.1562  0.7467
  458MOL0     C61759   4.219   2.425   8.826 -0.0846 -0.3702 -0.7614
  458MOL0     C61760   4.245   2.533   8.769  0.2731  0.1336 -0.4782
  458MOL0     C61761   3.756   2.134   9.440 -0.2646  0.2267  0.6990
  458MOL0     C61762   3.624   2.128   9.484  1.0700 -0.4617  0.5080
  458MOL0     H61763   3.352   1.941   9.754  1.0893  3.2510 -0.4928
  458MOL0     H61764   3.155   1.907   9.911  1.1676  0.1944 -0.5023
  458MOL0     H61765   2.787   2.171   9.892 -3.5699 -0.5241 -3.9132
  458MOL0     H61766   2.763   2.047   9.788 -1.0504  0.9818  0.1815
  458MOL0     H61767   2.681   1.892   9.970 -0.4522  0.4688 -3.9387
  458MOL0     H61768   2.742   1.997  10.092  3.2845 -1.0064 -1.6049
  458MOL0     H61769   2.591   2.173  10.069 -0.8393  1.8925 -0.7363
  458MOL0     H61770   2.538   2.100   9.913  0.2549 -2.2288 -0.2670
  458MOL0     H61771   2.447   1.901  10.036 -1.5689  1.1331 -1.3983
  458MOL0     H61772   2.487   1.972  10.187  1.3422 -2.6842 -0.3140
  458MOL0     H61773   2.312   2.163  10.127 -0.5710  0.1981  1.1061
  458MOL0     H61774   2.288   2.085   9.988 -0.0829  0.0155  0.3442
  458MOL0     H61775   2.269   1.911  10.234  1.7133  0.9164 -0.5083
  458MOL0     H61776   2.145   2.027  10.204  0.4688  0.2905  2.8264
  458MOL0     H61777   2.069   1.915  10.002 -0.1008 -2.1754 -0.7316
  458MOL0     H61778   2.228   1.833   9.986  0.6312 -0.0776  1.1188
  458MOL0     H61779   2.132   1.742  10.229 -1.7102  3.3844  1.8349
  458MOL0     H61780   2.063   1.672  10.080 -0.2449 -1.6893  3.1128
  458MOL0     H61781   1.947   1.917  10.371 -0.4912  1.3911 -1.0242
  458MOL0     H61782   1.678   2.027  10.369  1.7482 -0.4653  1.4336
  458MOL0     H61783   1.565   1.893  10.343 -0.1550  3.0425 -1.3878
  458MOL0     H61784   1.628   1.931  10.607  0.3331 -2.5724  2.1835
  458MOL0     H61785   1.787   1.895  10.555 -0.2265  3.0176 -0.4286
  458MOL0     H61786   1.670   1.702  10.665  0.9629 -3.0120  0.0884
  458MOL0     H61787   1.717   1.662  10.497  0.2239  0.3606 -0.1928
  458MOL0     H61788   1.467   1.707  10.434 -0.9294 -4.0298 -0.7374
  458MOL0     H61789   1.444   1.736  10.611  0.7266 -1.5502  0.4737
  458MOL0     H61790   1.407   1.325  10.427 -1.9040 -3.3136 -0.4123
  458MOL0     H61791   1.207   1.101  10.566 -3.6124  0.5252  1.3250
  458MOL0     H61792   1.122   1.131  10.409  0.8622  0.6590 -1.4882
  458MOL0     H61793   1.297   1.133  10.435  1.5195  2.8114  2.2042
  458MOL0     H61794   0.665   1.221  10.520 -0.6355 -0.5622  0.2203
  458MOL0     H61795   0.493   1.067  10.611 -0.2589  2.4545  0.4109
  458MOL0     H61796   0.476   0.725  10.899 -0.2340  1.6363 -0.7947
  458MOL0     H61797   0.637   0.692  10.826  0.7827  0.1081 -0.3987
  458MOL0     H61798   0.658   0.736  11.070  0.6961  0.7592  2.9956
  458MOL0     H61799   0.688   0.898  11.012 -0.4919 -0.0763 -0.4268
  458MOL0     H61800   0.452   0.937  11.017  1.3151 -1.8568 -2.7441
  458MOL0     H61801   0.537   0.941  11.171  1.0479  2.0358 -2.5194
  458MOL0     H61802   0.362   0.709  11.070  2.8519 -3.2113  0.6477
  458MOL0     H61803   0.474   0.682  11.201  0.0122  0.5585  1.5894
  458MOL0     H61804   0.369   0.817  11.353  1.7576 -0.9381  0.4630
  458MOL0     H61805   0.255   0.709  11.271  2.2057 -1.1720  1.0232
  458MOL0     H61806   0.165   0.937  11.303  0.6683  0.6910 -0.3195
  458MOL0     H61807   0.287   1.004  11.200  1.6297 -1.0815 -0.8303
  458MOL0     H61808   0.076   0.799  11.117 -0.4756 -1.1607 -0.5124
  458MOL0     H61809   0.192   0.878  11.008  2.5365  2.4909  1.4480
  458MOL0     H61810  -0.040   1.023  11.157 -0.5419  1.7859  0.7141
  458MOL0     H61811  -0.033   0.992  10.985  0.5087  3.2334  0.8946
  458MOL0     H61812   0.822   0.846  10.791 -0.7522 -0.0837  1.8867
  458MOL0     H61813   0.976   0.989  10.710 -0.2081 -3.2860  0.0383
  458MOL0     H61814   1.058   1.554  10.689 -1.2261 -0.6849 -0.9689
  458MOL0     H61815   1.263   1.649  10.674  1.7432 -1.7625  0.7833
  458MOL0     H61816   2.927   2.199   9.695 -0.6191 -0.0457  2.3496
  458MOL0     H61817   3.109   2.228   9.546 -0.0547  1.1593  1.3714
  458MOL0     H61818   3.551   2.452   9.517 -0.6031 -0.5487 -0.7117
  458MOL0     H61819   3.787   2.472   9.422  1.2953 -0.3083  1.3562
  458MOL0     H61820   3.850   2.354   9.183 -2.0085 -1.9147  3.7865
  458MOL0     H61821   3.999   2.421   9.261 -2.1093  1.9438  1.6869
  458MOL0     H61822   3.978   2.191   9.070 -0.8723 -0.0621  1.4781
  458MOL0     H61823   4.130   2.225   9.167  0.9888 -0.5589 -1.4520
  458MOL0     H61824   4.131   2.444   9.060  0.2838 -0.5450 -0.5061
  458MOL0     H61825   3.984   2.404   8.975 -0.4474 -1.1782 -1.2039
  458MOL0     H61826   4.116   2.226   8.853  0.9900  0.2269  0.0352
  458MOL0     H61827   4.246   2.252   8.967 -0.7982 -2.1763  1.2074
  458MOL0     H61828   4.258   2.626   8.717 -0.7620  1.5666  1.6606
  458MOL0     H61829   3.807   2.045   9.404 -0.2553  0.2809  0.5757
  458MOL0     H61830   3.573   2.033   9.490  0.5676 -0.1761  0.9652
  459MOL0     O61831   3.418   6.579   2.918 -0.3525  0.0265  0.3590
  459MOL0     C61832   3.419   6.703   2.932  0.2457  0.1849  0.7072
  459MOL0     O61833   3.315   6.781   2.965 -0.5232  0.2412  0.5551
  459MOL0     C61834   3.204   6.724   3.008 -0.0385  0.5447  0.0580
  459MOL0     C61835   3.098   6.693   2.917 -0.1469 -0.1651 -0.9127
  459MOL0     C61836   2.980   6.629   2.962 -0.6327 -0.5243 -0.3830
  459MOL0     C61837   2.957   6.614   3.102 -1.1542  0.1878 -0.6654
  459MOL0     O61838   2.849   6.547   3.161  0.3104 -0.3870  0.6022
  459MOL0     C61839   2.768   6.467   3.070 -0.0552 -0.5178  0.6809
  459MOL0     C61840   2.686   6.384   3.166 -0.4991  0.5508  0.5870
  459MOL0     C61841   2.585   6.299   3.091 -0.1512  0.2831  0.4016
  459MOL0     C61842   2.633   6.145   3.099 -0.0206 -0.8611  1.0871
  459MOL0     C61843   2.542   6.048   3.017  0.7032  0.8810  0.7086
  459MOL0     C61844   2.395   6.057   3.052  0.3573  0.5635 -0.9912
  459MOL0     C61845   2.382   5.974   3.176 -0.0747  0.1804 -0.0660
  459MOL0     C61846   2.280   5.864   3.158  0.3468 -0.7388 -0.6463
  459MOL0     N61847   2.140   5.907   3.149  0.3544  0.6941 -0.2660
  459MOL0     C61848   2.080   6.002   3.229  0.2231 -1.3927 -0.0476
  459MOL0     C61849   1.950   5.972   3.201  0.3725 -0.0412 -0.7945
  459MOL0     C61850   1.828   6.050   3.257  0.6830 -0.5969  0.2724
  459MOL0     C61851   1.812   6.054   3.418 -0.4299 -0.1746 -0.2250
  459MOL0     C61852   1.787   5.927   3.500 -0.4596 -0.1115 -0.2752
  459MOL0     C61853   1.680   5.826   3.452  1.1095 -0.1067  0.0651
  459MOL0     O61854   1.552   5.896   3.440  1.1841 -0.7355  0.2945
  459MOL0     C61855   1.465   5.900   3.336  0.8425  0.0721 -0.5872
  459MOL0     C61856   1.500   5.872   3.195 -0.3913 -0.0136 -0.4127
  459MOL0     C61857   1.409   5.877   3.089 -0.2306 -0.1784  0.0445
  459MOL0     C61858   1.458   5.871   2.950 -0.1062 -0.0432 -0.2449
  459MOL0     C61859   1.275   5.910   3.120  0.1111 -0.4268 -0.4013
  459MOL0     C61860   1.175   5.931   3.020 -0.0402  1.0411  0.3033
  459MOL0     O61861   1.088   6.032   3.046 -0.0732 -1.2054 -0.1986
  459MOL0     C61862   0.954   6.009   3.013  0.9701  0.0052 -0.6438
  459MOL0     C61863   0.870   5.900   3.057  0.4254 -1.4443  0.5946
  459MOL0     C61864   0.730   5.894   3.022 -0.9142 -0.0931 -0.4984
  459MOL0     C61865   0.676   5.999   2.945 -0.3237 -0.0156  0.5508
  459MOL0     O61866   0.555   5.999   2.896  0.6242 -0.0943 -0.2605
  459MOL0     C61867   0.466   5.905   2.949  0.3171  0.2208 -0.4110
  459MOL0     C61868   0.318   5.925   2.919  0.3798 -0.4513 -0.1509
  459MOL0     C61869   0.258   6.048   3.001 -0.1294 -0.6245  0.3546
  459MOL0     C61870   0.106   6.058   2.973  0.1815 -0.4067 -0.7588
  459MOL0     C61871   0.039   6.176   3.051  0.2533 -0.1257 -0.1856
  459MOL0     C61872  -0.106   6.195   3.013  1.0435  0.3683  0.4146
  459MOL0     C61873  -0.165   6.325   3.067  0.4617  0.2308 -0.0608
  459MOL0     C61874  -0.305   6.345   3.013  0.3484 -0.0033  0.0958
  459MOL0    Cl61875  -0.369   6.495   3.087 -0.1522 -0.0570 -0.0297
  459MOL0     C61876   0.762   6.099   2.902  0.7954 -0.0310 -0.4918
  459MOL0     C61877   0.895   6.105   2.940 -0.1472 -0.2386 -0.2719
  459MOL0     O61878   1.177   5.866   2.915 -0.7768 -0.0566 -0.4678
  459MOL0     C61879   1.235   5.922   3.262  0.4780  0.4278 -0.0350
  459MOL0     C61880   1.333   5.924   3.361 -0.5626  0.1069  0.2643
  459MOL0     N61881   1.936   5.873   3.103 -0.0371 -0.1395 -1.1915
  459MOL0     N61882   2.051   5.840   3.067 -0.3584  0.4413  0.8899
  459MOL0     C61883   3.060   6.653   3.188 -0.5890 -0.5239 -0.0782
  459MOL0     C61884   3.180   6.714   3.144 -0.7707  0.3687  0.9457
  459MOL0     C61885   3.534   6.782   2.880  0.4586 -0.4886  0.4911
  459MOL0     C61886   3.650   6.719   2.844 -0.3701 -0.3826 -0.6072
  459MOL0     C61887   3.756   6.781   2.783 -0.4899 -1.4106 -0.1304
  459MOL0     C61888   3.754   6.924   2.760  0.5190  0.1773 -0.4064
  459MOL0     O61889   3.858   6.991   2.697  0.2758  0.1826  0.7247
  459MOL0     C61890   4.000   6.947   2.712 -0.5592 -0.0116  0.2286
  459MOL0     C61891   4.101   7.063   2.701 -0.1442 -0.4495 -0.8776
  459MOL0     C61892   4.049   7.200   2.762 -0.7376  0.3529 -0.2143
  459MOL0     C61893   4.018   7.304   2.663 -0.4076  0.3518 -0.1914
  459MOL0     C61894   4.149   7.369   2.637 -0.0809  0.1596 -0.3668
  459MOL0     C61895   4.258   7.413   2.605 -0.9092  0.3255  0.5220
  459MOL0     C61896   3.635   6.991   2.790  0.1743  0.1903  0.4726
  459MOL0     C61897   3.533   6.920   2.855  0.0729  0.6176 -0.0323
  459MOL0     H61898   3.132   6.715   2.816  2.5426 -0.6205 -0.2081
  459MOL0     H61899   2.903   6.603   2.889 -1.2887 -0.9276  0.4424
  459MOL0     H61900   2.690   6.527   3.022 -0.2452  1.6998  3.4972
  459MOL0     H61901   2.820   6.394   3.007  0.9615  0.4259  0.3963
  459MOL0     H61902   2.760   6.317   3.210  0.1704  0.2457 -0.9458
  459MOL0     H61903   2.632   6.446   3.238  0.3079 -0.4653  2.1134
  459MOL0     H61904   2.487   6.311   3.136 -1.4485 -1.8634 -1.6409
  459MOL0     H61905   2.578   6.329   2.985 -2.0360  0.6687  0.6054
  459MOL0     H61906   2.730   6.135   3.050 -0.1142  2.5448  0.0116
  459MOL0     H61907   2.661   6.121   3.203  2.6947  1.2023  0.9290
  459MOL0     H61908   2.545   6.093   2.918 -1.8971 -0.6381 -0.1666
  459MOL0     H61909   2.574   5.944   3.006 -0.4963  0.6140 -0.6210
  459MOL0     H61910   2.360   6.160   3.065 -0.5242  0.5553 -2.9341
  459MOL0     H61911   2.340   6.011   2.969 -0.3732  1.1555 -0.8538
  459MOL0     H61912   2.468   5.912   3.205  0.1722 -1.5075 -3.7524
  459MOL0     H61913   2.361   6.041   3.259  1.5529  0.7470 -0.0749
  459MOL0     H61914   2.276   5.795   3.243 -3.7613  0.2172  0.1476
  459MOL0     H61915   2.297   5.817   3.061 -2.5508  2.9024 -3.1901
  459MOL0     H61916   2.121   6.071   3.302  0.7659 -0.7903 -0.9177
  459MOL0     H61917   1.850   6.153   3.226  0.9364 -1.1414 -1.4882
  459MOL0     H61918   1.728   6.023   3.220  1.3584 -3.3489  0.2959
  459MOL0     H61919   1.725   6.119   3.432 -0.5701 -0.8808  2.8214
  459MOL0     H61920   1.898   6.104   3.464  0.6932 -2.5640  0.4419
  459MOL0     H61921   1.767   5.956   3.604  0.1762  0.1514 -0.2197
  459MOL0     H61922   1.879   5.869   3.508  0.2073  1.0918  1.4532
  459MOL0     H61923   1.670   5.745   3.524 -0.1356 -1.9511 -2.0401
  459MOL0     H61924   1.702   5.772   3.359 -1.3668  2.0006 -1.9245
  459MOL0     H61925   1.597   5.835   3.164 -0.9996  0.7129 -3.5435
  459MOL0     H61926   1.565   5.847   2.945 -0.3207 -0.7100 -2.6016
  459MOL0     H61927   1.399   5.799   2.893  0.4745  1.7485 -3.3390
  459MOL0     H61928   1.452   5.970   2.903 -1.9115  0.2187  0.4748
  459MOL0     H61929   0.907   5.815   3.114  0.5416 -5.6536 -4.8181
  459MOL0     H61930   0.670   5.809   3.052 -0.3468  0.3556  2.2208
  459MOL0     H61931   0.485   5.802   2.917 -2.0144 -2.0650  4.4909
  459MOL0     H61932   0.487   5.898   3.056  0.4591  2.6456 -0.2240
  459MOL0     H61933   0.313   5.944   2.811 -1.1436 -0.3551 -0.0845
  459MOL0     H61934   0.259   5.839   2.952  0.1630 -0.0065  0.6511
  459MOL0     H61935   0.310   6.140   2.971 -1.5619  0.0975 -0.0058
  459MOL0     H61936   0.277   6.042   3.108 -1.5773  2.5145  0.9031
  459MOL0     H61937   0.093   6.067   2.864  2.8616 -2.8444 -1.3931
  459MOL0     H61938   0.049   5.971   3.005  1.2305  0.1858  3.2082
  459MOL0     H61939   0.095   6.268   3.037 -3.5696  2.4593 -0.1097
  459MOL0     H61940   0.049   6.148   3.157 -3.5484 -2.4869 -0.2370
  459MOL0     H61941  -0.111   6.205   2.904  0.4122  0.3311  0.4374
  459MOL0     H61942  -0.165   6.110   3.048 -0.0455  1.2967  0.8960
  459MOL0     H61943  -0.110   6.413   3.031 -1.0488  0.5430 -1.7168
  459MOL0     H61944  -0.181   6.323   3.175 -4.9885  2.7801 -0.5241
  459MOL0     H61945  -0.367   6.256   3.028  1.1124 -1.2148 -2.9766
  459MOL0     H61946  -0.296   6.353   2.904 -2.9499  3.7619 -0.1173
  459MOL0     H61947   0.718   6.174   2.838 -1.2768 -1.1454 -0.4502
  459MOL0     H61948   0.962   6.184   2.907 -1.5318  1.5435  0.9819
  459MOL0     H61949   1.136   5.938   3.302  0.1600 -0.1483 -0.5849
  459MOL0     H61950   1.309   5.931   3.466  3.1679 -1.7797  1.4145
  459MOL0     H61951   3.065   6.637   3.295  1.3133  0.4956  0.0279
  459MOL0     H61952   3.264   6.745   3.205 -2.6646  1.6948  2.9989
  459MOL0     H61953   3.665   6.612   2.858  1.2695 -0.0625  0.2888
  459MOL0     H61954   3.838   6.716   2.756 -0.3671 -1.0134 -0.7381
  459MOL0     H61955   4.008   6.911   2.815  0.5422 -0.8618 -0.1445
  459MOL0     H61956   4.021   6.871   2.637  2.0024  1.7886 -1.0159
  459MOL0     H61957   4.126   7.084   2.597  0.7353  0.8134 -0.4352
  459MOL0     H61958   4.191   7.030   2.753 -1.0055  0.9732  1.7078
  459MOL0     H61959   4.124   7.238   2.833 -0.5205 -1.2992  0.4905
  459MOL0     H61960   3.955   7.176   2.814 -2.1963  0.1010 -2.8064
  459MOL0     H61961   3.945   7.369   2.711  0.1267 -0.8746  2.4299
  459MOL0     H61962   3.970   7.277   2.568  0.5054  1.6468 -1.0472
  459MOL0     H61963   4.356   7.445   2.575 -1.2104 -0.1725 -1.0890
  459MOL0     H61964   3.632   7.092   2.750  1.1567 -0.5246 -1.5045
  459MOL0     H61965   3.445   6.982   2.849  0.5519  1.2362 -1.0059
  460MOL0     O61966  10.625   5.729  10.769 -0.0661 -0.1066 -0.3482
  460MOL0     C61967  10.514   5.782  10.771  0.8794  0.6270  0.2135
  460MOL0     O61968  10.472   5.899  10.834  0.5172 -0.8290 -0.0018
  460MOL0     C61969  10.567   5.976  10.902 -0.5710  0.5857  0.6745
  460MOL0     C61970  10.526   6.018  11.025 -0.6803 -0.5961 -0.1594
  460MOL0     C61971  10.617   6.080  11.112  0.1081 -0.0998 -0.0777
  460MOL0     C61972  10.745   6.101  11.072 -1.1177  0.0281 -0.5858
  460MOL0     O61973  10.836   6.166  11.152 -0.0288 -0.5128 -0.0734
  460MOL0     C61974  10.961   6.097  11.178  0.1093 -0.0587 -0.0280
  460MOL0     C61975  10.999   6.095  11.327  0.4810  0.3516  0.3061
  460MOL0     C61976  11.053   6.242  11.371  0.2665  0.6233 -0.1672
  460MOL0     C61977  10.939   6.336  11.378 -0.4715 -0.3296 -0.5318
  460MOL0     C61978  10.994   6.468  11.435  0.6294  0.1560  0.1358
  460MOL0     C61979  10.879   6.557  11.470  0.3380  0.2485 -0.1174
  460MOL0     C61980  10.943   6.687  11.539 -0.6144  0.6441  1.5168
  460MOL0     C61981  10.843   6.780  11.598  0.8035 -0.4406 -0.4342
  460MOL0     N61982  10.758   6.717  11.700 -0.4335 -0.0498  0.0550
  460MOL0     C61983  10.637   6.665  11.674 -0.4979  0.3501 -0.3747
  460MOL0     C61984  10.590   6.612  11.786 -0.5273 -0.0428  0.2447
  460MOL0     C61985  10.461   6.547  11.810  0.4795  0.1821 -0.2229
  460MOL0     C61986  10.340   6.636  11.776 -0.1483  0.4214  0.2608
  460MOL0     C61987  10.211   6.579  11.844 -1.0250  0.0394  0.3404
  460MOL0     C61988  10.089   6.655  11.796  0.4148 -0.7593  0.9197
  460MOL0     O61989  10.063   6.658  11.654 -0.2454 -0.1780  0.3549
  460MOL0     C61990   9.962   6.732  11.611  0.1556 -0.1933  0.8109
  460MOL0     C61991   9.981   6.807  11.494 -0.5050  0.5290 -0.3933
  460MOL0     C61992   9.880   6.884  11.433 -0.5360  0.0225 -0.6256
  460MOL0     C61993   9.919   6.955  11.301 -0.0114 -0.1591  0.4037
  460MOL0     C61994   9.756   6.887  11.491  0.6328  0.6204  0.0798
  460MOL0     C61995   9.644   6.978  11.451  0.9543 -0.5885 -0.4621
  460MOL0     O61996   9.677   7.093  11.388 -0.5167 -0.1394  0.0311
  460MOL0     C61997   9.572   7.154  11.330  0.5982  0.5487 -0.1791
  460MOL0     C61998   9.530   7.111  11.203  0.1359  0.3658  0.1285
  460MOL0     C61999   9.419   7.168  11.137  0.2542 -1.0499 -0.0388
  460MOL0     C62000   9.356   7.277  11.203  1.2258 -0.3731  0.3464
  460MOL0     O62001   9.250   7.343  11.145 -0.2750 -0.1831 -0.3466
  460MOL0     C62002   9.192   7.299  11.028 -0.6233  0.0152  0.7242
  460MOL0     C62003   9.043   7.332  11.019  0.1012 -0.7610 -0.5810
  460MOL0     C62004   8.994   7.288  10.873 -0.6527 -0.3519 -0.5247
  460MOL0     C62005   8.846   7.272  10.871 -0.6052 -0.1611  0.0714
  460MOL0     C62006   8.785   7.227  10.739 -0.9664  0.3810 -0.0934
  460MOL0     C62007   8.641   7.188  10.740  0.4182 -0.0155  0.3270
  460MOL0     C62008   8.533   7.287  10.791  0.3846 -0.4258 -0.2895
  460MOL0     C62009   8.522   7.406  10.690 -1.0218 -0.0999  0.3920
  460MOL0    Cl62010   8.377   7.512  10.726 -0.2045  0.1366 -0.6573
  460MOL0     C62011   9.383   7.305  11.340 -1.2954 -0.5939 -0.2080
  460MOL0     C62012   9.496   7.247  11.399 -0.1508 -0.1675  0.1883
  460MOL0     O62013   9.534   6.942  11.484  0.8678 -0.6316 -0.2042
  460MOL0     C62014   9.734   6.814  11.614 -0.5306  0.8820  0.3513
  460MOL0     C62015   9.840   6.739  11.671  0.3540  0.3942 -0.1183
  460MOL0     N62016  10.687   6.632  11.881  0.0270 -0.9882 -0.5702
  460MOL0     N62017  10.793   6.681  11.827 -0.3369  0.1820  0.5188
  460MOL0     C62018  10.791   6.059  10.950  0.3035  1.2716 -0.2743
  460MOL0     C62019  10.703   5.989  10.868 -0.2212  0.5354  0.2175
  460MOL0     C62020  10.417   5.704  10.698 -0.2638  0.3669 -0.2466
  460MOL0     C62021  10.283   5.743  10.687  0.4815  0.6453  0.0270
  460MOL0     C62022  10.184   5.664  10.618  0.4297  0.5936 -0.3519
  460MOL0     C62023  10.217   5.547  10.545  0.1979  0.7915  0.2984
  460MOL0     O62024  10.119   5.480  10.478  1.1333  0.6113  0.2615
  460MOL0     C62025  10.130   5.349  10.428 -0.1191  0.7994 -0.0998
  460MOL0     C62026  10.130   5.241  10.550 -0.3021 -0.4128  0.9639
  460MOL0     C62027   9.994   5.225  10.617  1.3107  0.3293  0.2345
  460MOL0     C62028   9.893   5.159  10.530 -0.2642  0.1681 -0.3306
  460MOL0     C62029   9.774   5.123  10.596 -0.0311  0.2405  0.1992
  460MOL0     C62030   9.668   5.100  10.645  0.1219  0.6277 -1.0843
  460MOL0     C62031  10.351   5.511  10.559  0.6131  0.6168 -0.7153
  460MOL0     C62032  10.446   5.585  10.627  0.5375 -0.5584  0.4593
  460MOL0     H62033  10.428   5.986  11.061 -0.4562  0.8299  1.9021
  460MOL0     H62034  10.587   6.116  11.210  3.3780 -0.0954  1.0669
  460MOL0     H62035  10.958   5.998  11.132  0.5666  0.7603 -1.9207
  460MOL0     H62036  11.032   6.162  11.126  1.4346 -0.9165  0.6533
  460MOL0     H62037  10.909   6.071  11.385 -0.4504  0.3861 -1.0625
  460MOL0     H62038  11.063   6.012  11.357 -2.3428 -2.2665 -0.3529
  460MOL0     H62039  11.096   6.224  11.470 -0.9758  0.7757  0.4279
  460MOL0     H62040  11.126   6.289  11.305 -0.6000  0.8991 -0.9520
  460MOL0     H62041  10.896   6.351  11.279  0.5990  0.1183 -0.9484
  460MOL0     H62042  10.852   6.306  11.437 -5.4059  2.6212 -5.3709
  460MOL0     H62043  11.063   6.445  11.517  1.3408 -0.5253 -0.6299
  460MOL0     H62044  11.051   6.519  11.357 -0.7639  2.8925  0.7522
  460MOL0     H62045  10.818   6.582  11.383 -0.4971 -1.1175  0.0605
  460MOL0     H62046  10.823   6.505  11.548 -0.6614  1.5811  0.0775
  460MOL0     H62047  11.014   6.650  11.614  0.4191 -1.0809 -0.1995
  460MOL0     H62048  10.997   6.736  11.457 -1.2634 -0.9768  0.0505
  460MOL0     H62049  10.773   6.829  11.529  1.2553  2.8881  1.2718
  460MOL0     H62050  10.898   6.856  11.653 -2.1482  0.5937  1.3623
  460MOL0     H62051  10.586   6.663  11.578 -0.8763  0.2115 -0.1738
  460MOL0     H62052  10.454   6.450  11.760  0.1954  0.5828 -0.9654
  460MOL0     H62053  10.463   6.529  11.918 -0.1042  2.1821  0.1672
  460MOL0     H62054  10.331   6.640  11.667  0.5846 -0.4637  0.1447
  460MOL0     H62055  10.370   6.736  11.807 -1.1453  1.0616 -0.7856
  460MOL0     H62056  10.219   6.591  11.952 -0.7591  3.1141  0.0566
  460MOL0     H62057  10.198   6.473  11.820 -0.1469 -0.2153  0.9255
  460MOL0     H62058  10.100   6.755  11.840  2.1236 -0.0554 -0.9763
  460MOL0     H62059  10.007   6.605  11.848 -0.0029 -2.4036 -1.2001
  460MOL0     H62060  10.072   6.822  11.437 -0.2178  0.6319  0.0953
  460MOL0     H62061  10.011   6.915  11.258 -0.8445  0.5873 -2.2445
  460MOL0     H62062   9.836   6.938  11.232  0.6093 -1.7823 -0.0011
  460MOL0     H62063   9.936   7.062  11.313  0.6965 -0.0476 -1.2780
  460MOL0     H62064   9.574   7.017  11.172 -1.2244  0.4750 -2.4772
  460MOL0     H62065   9.391   7.139  11.037 -4.0546  0.8074  0.4140
  460MOL0     H62066   9.249   7.342  10.946 -1.2168 -4.1404 -2.1568
  460MOL0     H62067   9.204   7.191  11.031 -5.0627 -0.6450  1.7751
  460MOL0     H62068   8.985   7.277  11.093 -3.7671  0.5494 -2.3548
  460MOL0     H62069   9.028   7.436  11.046 -0.5465 -1.7189  3.2081
  460MOL0     H62070   9.054   7.202  10.844  2.9055  1.9294 -0.6458
  460MOL0     H62071   9.029   7.371  10.810 -0.2376  0.1006  0.2826
  460MOL0     H62072   8.845   7.192  10.945  3.0404  0.7084  1.2519
  460MOL0     H62073   8.797   7.363  10.907  2.2758  1.8306 -0.6813
  460MOL0     H62074   8.835   7.134  10.712 -0.2145  0.4645  0.9295
  460MOL0     H62075   8.807   7.298  10.659 -0.5485 -2.0252 -2.2359
  460MOL0     H62076   8.610   7.158  10.640  0.2361 -1.3105  0.7485
  460MOL0     H62077   8.635   7.103  10.809  1.4871  0.8354  1.4944
  460MOL0     H62078   8.562   7.315  10.893  0.6498 -0.0977 -0.4554
  460MOL0     H62079   8.436   7.237  10.803  0.8956 -1.3182  0.1908
  460MOL0     H62080   8.521   7.376  10.585 -1.1110 -0.3491  0.4633
  460MOL0     H62081   8.614   7.465  10.689 -0.4804 -0.8990  1.3088
  460MOL0     H62082   9.323   7.380  11.391 -0.4494 -0.9611  1.3816
  460MOL0     H62083   9.523   7.277  11.500  2.3584  0.8658 -0.7271
  460MOL0     H62084   9.641   6.812  11.670 -0.9615 -1.6086 -0.3214
  460MOL0     H62085   9.826   6.699  11.770  0.5461  1.3366  0.2985
  460MOL0     H62086  10.892   6.080  10.916  1.3590 -2.6831 -0.0850
  460MOL0     H62087  10.747   5.963  10.772  0.8808  0.9010  0.5981
  460MOL0     H62088  10.257   5.836  10.738 -0.0139 -0.5234  2.0301
  460MOL0     H62089  10.083   5.703  10.606  1.7546  3.2184 -5.3916
  460MOL0     H62090  10.039   5.326  10.372  0.1264 -2.3389  0.6011
  460MOL0     H62091  10.222   5.331  10.370  0.3299  1.3960  0.4177
  460MOL0     H62092  10.201   5.279  10.625  3.2396 -1.8684 -1.3831
  460MOL0     H62093  10.161   5.142  10.518  0.6018 -0.4196  1.7989
  460MOL0     H62094   9.949   5.319  10.651 -1.2815 -0.0702 -1.7874
  460MOL0     H62095  10.006   5.161  10.705 -2.3356  0.4878  1.0007
  460MOL0     H62096   9.939   5.069  10.488  1.1874 -0.4359  2.2672
  460MOL0     H62097   9.869   5.223  10.445  1.2439  1.1541 -0.0703
  460MOL0     H62098   9.570   5.085  10.685  0.4591  1.3375  0.0431
  460MOL0     H62099  10.374   5.433  10.488 -3.6195 -1.3424 -0.2593
  460MOL0     H62100  10.549   5.550  10.629  0.3828 -1.1842 -1.1510
  461MOL0     O62101   7.865   8.738   1.736 -0.0994  0.8264 -0.2427
  461MOL0     C62102   7.867   8.853   1.700 -0.5393 -0.4392  0.5143
  461MOL0     O62103   7.761   8.935   1.683  0.2290  0.1279 -0.4130
  461MOL0     C62104   7.640   8.870   1.681 -1.0515  0.1132  0.5707
  461MOL0     C62105   7.531   8.908   1.761 -0.0871 -0.2541 -0.7599
  461MOL0     C62106   7.403   8.835   1.759  0.1020  1.1966  0.3139
  461MOL0     C62107   7.393   8.720   1.675  1.2031 -0.1117 -0.4028
  461MOL0     O62108   7.275   8.647   1.674  0.3149  0.2997  0.2253
  461MOL0     C62109   7.157   8.708   1.711  0.4406  0.0170 -0.7175
  461MOL0     C62110   7.034   8.638   1.650  0.8651 -1.1866 -0.0522
  461MOL0     C62111   7.001   8.706   1.524  0.1566  0.0257 -0.3352
  461MOL0     C62112   6.880   8.634   1.465 -0.6046 -0.3690  0.9956
  461MOL0     C62113   6.838   8.698   1.332  0.5666 -0.5674 -0.5652
  461MOL0     C62114   6.702   8.637   1.281  0.0550  0.0286  0.5258
  461MOL0     C62115   6.623   8.733   1.181 -0.4564 -0.0316 -0.0561
  461MOL0     C62116   6.505   8.657   1.118  0.3398  0.5737  0.8349
  461MOL0     N62117   6.437   8.747   1.022  0.4973 -0.0153 -0.1393
  461MOL0     C62118   6.454   8.754   0.891  0.5130  1.2569 -0.0944
  461MOL0     C62119   6.368   8.852   0.850 -0.6039 -0.6767  0.1808
  461MOL0     C62120   6.350   8.906   0.716  0.0772  0.4456  0.0266
  461MOL0     C62121   6.254   8.809   0.638  0.1540  0.3478 -0.4806
  461MOL0     C62122   6.104   8.821   0.686 -0.2467 -0.1964  0.7589
  461MOL0     C62123   6.002   8.772   0.589  0.5416 -0.4274  0.1209
  461MOL0     O62124   6.010   8.630   0.587  0.5252  0.4023  0.2273
  461MOL0     C62125   5.917   8.554   0.652 -0.2773 -0.1499 -1.0356
  461MOL0     C62126   5.939   8.419   0.642 -0.5503  0.2034 -0.6198
  461MOL0     C62127   5.853   8.319   0.693  0.9959  0.0170  0.3362
  461MOL0     C62128   5.890   8.182   0.667  0.1583 -0.2059  0.4339
  461MOL0     C62129   5.740   8.367   0.765 -0.3449  1.5373  0.7436
  461MOL0     C62130   5.641   8.274   0.834 -1.5280  0.2881 -0.6986
  461MOL0     O62131   5.557   8.331   0.927 -0.2939  0.0372 -0.0478
  461MOL0     C62132   5.449   8.264   0.988 -0.2679 -0.2220  0.3615
  461MOL0     C62133   5.468   8.130   1.024 -0.2673 -0.8047 -0.9784
  461MOL0     C62134   5.360   8.058   1.091  1.1191 -0.1257  0.4412
  461MOL0     C62135   5.241   8.134   1.121 -0.0020  0.1255  0.5293
  461MOL0     O62136   5.124   8.076   1.164 -0.1217 -0.0747  0.5171
  461MOL0     C62137   5.115   7.927   1.166  0.1141 -0.8573 -0.8396
  461MOL0     C62138   4.980   7.882   1.235 -0.0322 -0.4268 -0.2360
  461MOL0     C62139   4.976   7.731   1.237  1.1252 -0.6415  0.6472
  461MOL0     C62140   4.834   7.678   1.275 -1.5084 -0.0877 -1.0371
  461MOL0     C62141   4.823   7.535   1.322  0.3514  1.0102 -0.1181
  461MOL0     C62142   4.898   7.437   1.226  1.6191 -0.3196 -0.1440
  461MOL0     C62143   4.864   7.286   1.240  0.5972  0.7661 -0.4798
  461MOL0     C62144   4.971   7.222   1.152  0.2923  0.2973  0.3026
  461MOL0    Cl62145   4.922   7.047   1.112  0.0507 -0.1398 -0.2386
  461MOL0     C62146   5.229   8.266   1.093  0.4034  0.3568 -0.0832
  461MOL0     C62147   5.332   8.334   1.025  0.1658  0.5476  0.6161
  461MOL0     O62148   5.632   8.154   0.795 -0.2100  0.4046 -0.5955
  461MOL0     C62149   5.721   8.509   0.777 -0.0683  0.1020 -1.1207
  461MOL0     C62150   5.804   8.596   0.718 -1.0849  0.3845 -0.5722
  461MOL0     N62151   6.297   8.892   0.955 -0.1227  0.0808 -0.1347
  461MOL0     N62152   6.344   8.839   1.063  0.2151  0.1710  0.4991
  461MOL0     C62153   7.505   8.684   1.597  0.2092  0.1651 -0.5616
  461MOL0     C62154   7.619   8.763   1.595 -0.9811 -0.1560  0.0150
  461MOL0     C62155   8.001   8.920   1.703  0.6707  0.2559  0.0914
  461MOL0     C62156   8.114   8.842   1.678 -0.3929  0.5444  0.2508
  461MOL0     C62157   8.241   8.905   1.681 -0.1033  0.8656  0.3427
  461MOL0     C62158   8.245   9.042   1.691 -0.5196 -0.2302  0.6431
  461MOL0     O62159   8.345   9.130   1.658 -0.0937  0.0746 -0.0596
  461MOL0     C62160   8.483   9.078   1.653 -1.0966  0.3649 -0.5976
  461MOL0     C62161   8.579   9.193   1.654 -0.5276 -0.5151 -0.6999
  461MOL0     C62162   8.580   9.284   1.781 -0.1147  0.2277 -0.4645
  461MOL0     C62163   8.681   9.399   1.778 -0.2657  0.4841 -0.4997
  461MOL0     C62164   8.815   9.351   1.813  0.2035  0.1105  0.3193
  461MOL0     C62165   8.920   9.306   1.856 -1.0054 -0.3493  0.1952
  461MOL0     C62166   8.137   9.117   1.722  0.0918 -0.3905 -0.4391
  461MOL0     C62167   8.009   9.060   1.724  0.2715  0.8421 -0.7595
  461MOL0     H62168   7.527   8.994   1.827 -1.2983  0.2798 -1.4921
  461MOL0     H62169   7.324   8.861   1.829 -0.0471  1.8859 -0.1020
  461MOL0     H62170   7.146   8.692   1.819 -2.5676 -0.3692 -0.9857
  461MOL0     H62171   7.155   8.816   1.691  1.8998  0.2263  0.1246
  461MOL0     H62172   7.055   8.531   1.636 -1.9124 -1.9521  0.9834
  461MOL0     H62173   6.953   8.646   1.723  0.5861 -1.2177 -0.3571
  461MOL0     H62174   6.976   8.810   1.549  1.8945  0.6142 -0.8997
  461MOL0     H62175   7.086   8.713   1.457  0.0555 -1.7212 -0.6855
  461MOL0     H62176   6.916   8.533   1.443 -1.5585 -0.2875 -1.1771
  461MOL0     H62177   6.793   8.632   1.532 -2.5255 -0.2825 -1.3418
  461MOL0     H62178   6.805   8.800   1.355  0.1001 -0.2971 -2.2629
  461MOL0     H62179   6.925   8.702   1.266  0.5036  1.8702 -0.5866
  461MOL0     H62180   6.718   8.546   1.223 -2.6859 -1.0058  1.2324
  461MOL0     H62181   6.634   8.618   1.364 -1.9881 -1.6157 -1.3817
  461MOL0     H62182   6.577   8.816   1.236  2.5755  3.4224 -2.2797
  461MOL0     H62183   6.696   8.766   1.107  2.9752 -0.7549  2.7513
  461MOL0     H62184   6.431   8.626   1.192  1.0600  0.6561  1.6049
  461MOL0     H62185   6.541   8.574   1.057 -0.3320  1.7811 -1.3354
  461MOL0     H62186   6.514   8.691   0.826 -1.5386 -0.4031 -0.5212
  461MOL0     H62187   6.332   9.013   0.726  0.9494  0.7082 -0.9738
  461MOL0     H62188   6.449   8.895   0.671  0.9066  1.4111  1.5612
  461MOL0     H62189   6.276   8.702   0.645  2.4406  0.7593 -0.7424
  461MOL0     H62190   6.247   8.835   0.532  0.1757  0.0303 -0.5607
  461MOL0     H62191   6.077   8.925   0.702  0.1902 -0.0996  0.8699
  461MOL0     H62192   6.100   8.761   0.777  2.3172  1.2597  1.9378
  461MOL0     H62193   6.035   8.806   0.491 -2.2945 -0.7245 -1.0522
  461MOL0     H62194   5.901   8.813   0.604 -0.8607 -3.9318  1.3836
  461MOL0     H62195   6.032   8.401   0.588 -0.1141 -1.3851  0.6240
  461MOL0     H62196   5.986   8.167   0.618  0.2780  0.8405  0.3110
  461MOL0     H62197   5.892   8.143   0.769 -0.6725  0.2327  0.6309
  461MOL0     H62198   5.807   8.137   0.612 -2.9528  5.1091  0.0533
  461MOL0     H62199   5.562   8.077   1.008  0.4339 -0.3937  1.4197
  461MOL0     H62200   5.378   7.954   1.115  0.0989  0.0446  2.1655
  461MOL0     H62201   5.131   7.898   1.062  1.3246  0.5025 -1.0767
  461MOL0     H62202   5.192   7.897   1.238 -0.1242  2.3633  0.9658
  461MOL0     H62203   4.957   7.922   1.334 -0.2906  1.5408 -1.0442
  461MOL0     H62204   4.901   7.916   1.167  1.7918  0.1143 -2.1976
  461MOL0     H62205   5.052   7.702   1.311  1.4696  0.7708  0.8697
  461MOL0     H62206   5.011   7.688   1.143 -0.5069  0.8291 -0.7031
  461MOL0     H62207   4.808   7.738   1.363  1.9696 -0.4142  0.3951
  461MOL0     H62208   4.777   7.698   1.184  0.4243 -0.0813 -2.2904
  461MOL0     H62209   4.721   7.501   1.337  0.3947 -0.7134 -2.9513
  461MOL0     H62210   4.875   7.536   1.418 -0.5024  0.6786  0.3497
  461MOL0     H62211   4.877   7.467   1.123 -1.1264 -4.5626 -1.1141
  461MOL0     H62212   5.006   7.449   1.233  1.4244  2.2875 -0.7140
  461MOL0     H62213   4.767   7.258   1.198  0.9746 -1.0147 -0.2436
  461MOL0     H62214   4.858   7.266   1.348  2.4532 -1.1363 -0.6687
  461MOL0     H62215   5.059   7.214   1.217  1.0583  3.1644 -0.2026
  461MOL0     H62216   5.003   7.278   1.063 -0.0655 -3.3526 -2.3174
  461MOL0     H62217   5.126   8.298   1.098 -0.4014 -1.9140 -0.9216
  461MOL0     H62218   5.322   8.437   0.992  2.1040  0.7287  0.4541
  461MOL0     H62219   5.636   8.554   0.827  2.3671  4.2687 -0.2940
  461MOL0     H62220   5.786   8.703   0.709  1.3851  0.7293 -2.4670
  461MOL0     H62221   7.496   8.589   1.546 -0.7633 -0.2727  0.3660
  461MOL0     H62222   7.699   8.739   1.524 -0.0470  2.1743  0.1956
  461MOL0     H62223   8.096   8.736   1.665 -0.8271  0.4385  1.5737
  461MOL0     H62224   8.336   8.853   1.670  0.2327  1.9686 -3.0618
  461MOL0     H62225   8.502   9.022   1.746  0.7302 -0.1553 -1.2360
  461MOL0     H62226   8.493   9.017   1.562 -1.3306  2.0736 -1.8104
  461MOL0     H62227   8.562   9.251   1.563 -2.2239 -0.0601 -0.1315
  461MOL0     H62228   8.682   9.161   1.636  0.0527  2.1454 -2.8287
  461MOL0     H62229   8.588   9.231   1.876  3.4284  2.4594  0.6995
  461MOL0     H62230   8.478   9.324   1.779 -1.2458 -2.3516  0.5123
  461MOL0     H62231   8.647   9.477   1.847  2.6301  0.0641  1.5786
  461MOL0     H62232   8.686   9.453   1.683 -0.0418  1.3660  0.0113
  461MOL0     H62233   9.010   9.259   1.891  2.0249  3.8986 -1.0603
  461MOL0     H62234   8.140   9.226   1.719  0.4439 -0.4021 -0.4716
  461MOL0     H62235   7.921   9.123   1.737  2.3379  4.3767 -2.3424
  462MOL0     O62236   4.274  10.355   7.690 -0.5220 -0.1318 -0.3309
  462MOL0     C62237   4.328  10.448   7.632  0.4470 -0.4059  0.5064
  462MOL0     O62238   4.302  10.488   7.509  0.6768  0.0667 -0.9680
  462MOL0     C62239   4.195  10.443   7.443 -0.0121 -0.6970  0.9319
  462MOL0     C62240   4.065  10.457   7.488 -0.0515 -0.0631  0.3754
  462MOL0     C62241   3.952  10.407   7.408 -1.0503 -1.1211 -0.3588
  462MOL0     C62242   3.971  10.343   7.280 -0.9574 -0.9856  0.1261
  462MOL0     O62243   3.872  10.304   7.195 -0.9896 -0.7013  0.5960
  462MOL0     C62244   3.742  10.305   7.258  0.9213  0.6835 -0.4966
  462MOL0     C62245   3.644  10.264   7.141  0.2381 -0.0080  0.6335
  462MOL0     C62246   3.500  10.244   7.192 -0.3465  0.4972  0.6626
  462MOL0     C62247   3.404  10.245   7.070  0.6698  0.1942  0.3410
  462MOL0     C62248   3.256  10.198   7.101 -0.0064  0.4393 -0.1121
  462MOL0     C62249   3.176  10.192   6.969 -0.1342 -0.0219 -0.5485
  462MOL0     C62250   3.131  10.321   6.907 -0.0517 -0.1360 -0.9844
  462MOL0     C62251   3.014  10.390   6.988  0.4356  0.5115 -1.1891
  462MOL0     N62252   2.881  10.350   6.942  1.0752 -0.1152 -0.3477
  462MOL0     C62253   2.779  10.426   6.875 -0.2490  0.7141 -0.0136
  462MOL0     C62254   2.680  10.337   6.873  0.9453  0.1225 -0.0794
  462MOL0     C62255   2.544  10.359   6.818 -0.4516 -0.3264  0.6026
  462MOL0     C62256   2.432  10.333   6.915 -0.3561 -0.4523  0.2654
  462MOL0     C62257   2.416  10.448   7.018 -0.4428 -0.3582  0.9900
  462MOL0     C62258   2.295  10.431   7.120 -0.4836  0.2884  0.3777
  462MOL0     O62259   2.258  10.562   7.165 -0.4297  0.1548  0.6291
  462MOL0     C62260   2.166  10.633   7.095  0.3158 -0.3014  0.3844
  462MOL0     C62261   2.116  10.592   6.975  0.0713 -0.4108  0.6047
  462MOL0     C62262   2.017  10.665   6.904  0.0317 -0.3729  0.5482
  462MOL0     C62263   1.955  10.598   6.772 -0.5171  0.0836 -0.0273
  462MOL0     C62264   1.961  10.790   6.955 -0.4073 -0.0978 -0.4645
  462MOL0     C62265   1.856  10.873   6.896 -0.2466 -0.2664  0.3060
  462MOL0     O62266   1.832  10.988   6.963 -0.4562 -0.4923 -0.5600
  462MOL0     C62267   1.708  11.050   6.944 -0.6030 -0.1426 -0.4024
  462MOL0     C62268   1.584  10.992   6.984  0.3121  0.5110  0.7425
  462MOL0     C62269   1.467  11.065   6.958  0.2069  0.7176  0.2955
  462MOL0     C62270   1.469  11.197   6.914  0.0294 -0.7772  0.5012
  462MOL0     O62271   1.362  11.284   6.896 -0.5019 -0.3116 -0.1814
  462MOL0     C62272   1.226  11.244   6.910  0.0024  0.3462  0.3717
  462MOL0     C62273   1.175  11.180   6.784  0.1651 -0.5726  0.3569
  462MOL0     C62274   1.064  11.243   6.704 -0.5304 -0.1462 -0.9768
  462MOL0     C62275   0.933  11.249   6.795 -0.3408  1.1057  0.5669
  462MOL0     C62276   0.817  11.312   6.725  0.1283  0.6633  0.5977
  462MOL0     C62277   0.740  11.238   6.618  0.3992  0.5261  0.2974
  462MOL0     C62278   0.612  11.318   6.583 -1.1785  0.9494  0.7945
  462MOL0     C62279   0.558  11.242   6.464  0.3161 -0.7481 -0.8369
  462MOL0    Cl62280   0.427  11.344   6.392 -0.4947  0.0520  0.0074
  462MOL0     C62281   1.594  11.254   6.876 -0.8369  0.2683 -0.5848
  462MOL0     C62282   1.711  11.188   6.897  0.2633  0.4179 -1.1248
  462MOL0     O62283   1.795  10.846   6.793 -0.9197 -0.3647  0.0198
  462MOL0     C62284   2.012  10.828   7.081 -0.0387  0.7397 -0.4245
  462MOL0     C62285   2.113  10.753   7.153  0.8272 -0.8260  0.5121
  462MOL0     N62286   2.715  10.212   6.923 -0.4658  0.7137 -0.1970
  462MOL0     N62287   2.829  10.234   6.985  0.0933  0.1295 -0.3037
  462MOL0     C62288   4.100  10.341   7.244 -0.0012 -0.0336  0.3106
  462MOL0     C62289   4.219  10.382   7.319  0.2439  0.5205 -0.1968
  462MOL0     C62290   4.454  10.509   7.685  0.1966 -0.3880 -0.6146
  462MOL0     C62291   4.526  10.458   7.789 -0.4178 -0.5475  0.2627
  462MOL0     C62292   4.641  10.526   7.839 -0.3039 -0.1837 -0.0384
  462MOL0     C62293   4.687  10.640   7.790 -0.2603  0.0342 -0.7350
  462MOL0     O62294   4.812  10.685   7.833 -1.2967  0.0137  0.2689
  462MOL0     C62295   4.867  10.814   7.780  0.6059 -0.3707 -0.5039
  462MOL0     C62296   4.993  10.860   7.843  0.1637  0.1077  0.4722
  462MOL0     C62297   5.114  10.762   7.817  0.6522 -0.2042 -0.0352
  462MOL0     C62298   5.194  10.740   7.944 -0.9607  0.5092  0.4447
  462MOL0     C62299   5.258  10.865   7.989  0.9318 -0.4604  0.5386
  462MOL0     C62300   5.325  10.963   8.018  0.6473 -0.2060 -0.0833
  462MOL0     C62301   4.616  10.697   7.677 -0.0863  0.0993 -0.5588
  462MOL0     C62302   4.502  10.630   7.634 -0.2751 -0.5467  0.6966
  462MOL0     H62303   4.048  10.503   7.584 -0.2342 -0.0738  0.3476
  462MOL0     H62304   3.855  10.428   7.452  0.0308  0.2743  1.4950
  462MOL0     H62305   3.733  10.225   7.331 -3.1167  1.0773 -0.3438
  462MOL0     H62306   3.717  10.398   7.310  2.3580  0.0407  1.4182
  462MOL0     H62307   3.647  10.330   7.055 -2.9635 -1.5700 -0.8722
  462MOL0     H62308   3.678  10.171   7.095 -0.2986  1.6860 -3.5658
  462MOL0     H62309   3.493  10.152   7.251 -3.6886 -0.7430 -1.3881
  462MOL0     H62310   3.464  10.326   7.255  0.4056  0.6119  0.9511
  462MOL0     H62311   3.398  10.341   7.020  1.3438  0.4988  0.8216
  462MOL0     H62312   3.437  10.179   6.989 -3.0141  1.0839 -2.1331
  462MOL0     H62313   3.280  10.101   7.145  0.3537 -0.1588 -1.5508
  462MOL0     H62314   3.205  10.259   7.176  2.0680  1.0041  0.9269
  462MOL0     H62315   3.244  10.147   6.896  1.5887  0.4297  0.7072
  462MOL0     H62316   3.096  10.120   6.987  1.0908 -1.2535  0.2053
  462MOL0     H62317   3.210  10.397   6.901 -1.7409  1.8604  0.3908
  462MOL0     H62318   3.091  10.307   6.806 -0.1079  3.0030 -1.5016
  462MOL0     H62319   3.024  10.499   6.991 -0.5405  0.9613 -6.2557
  462MOL0     H62320   3.025  10.365   7.094 -1.2730  2.8800 -0.3596
  462MOL0     H62321   2.763  10.533   6.866 -2.3289  0.4246 -0.0908
  462MOL0     H62322   2.547  10.455   6.766 -0.4301 -0.5441  0.1939
  462MOL0     H62323   2.531  10.287   6.736  1.4444 -1.5056  1.2637
  462MOL0     H62324   2.446  10.237   6.965 -0.0206 -0.4750  0.1317
  462MOL0     H62325   2.340  10.325   6.857 -0.5234  1.4311  0.1973
  462MOL0     H62326   2.410  10.544   6.966 -2.2992 -1.3806 -0.8083
  462MOL0     H62327   2.506  10.448   7.081 -0.8714  1.5729  1.6900
  462MOL0     H62328   2.342  10.371   7.200  1.3552  1.2858  0.1061
  462MOL0     H62329   2.214  10.372   7.078 -0.3656 -0.3303  0.9883
  462MOL0     H62330   2.149  10.506   6.917 -3.7164  0.6345 -3.6666
  462MOL0     H62331   1.941  10.665   6.686  1.3335 -0.9468 -1.2077
  462MOL0     H62332   2.011  10.514   6.731 -0.3540  0.3451 -0.3491
  462MOL0     H62333   1.855  10.558   6.791  0.0607 -1.8510 -0.8313
  462MOL0     H62334   1.582  10.890   7.020 -1.9385 -0.8139 -2.6349
  462MOL0     H62335   1.368  11.038   6.994 -1.1921  1.1874 -2.8182
  462MOL0     H62336   1.216  11.173   6.992  1.4313  1.3732  1.4874
  462MOL0     H62337   1.161  11.329   6.935 -1.7333 -1.0517  0.8054
  462MOL0     H62338   1.261  11.173   6.716 -0.4795 -3.1156 -0.3081
  462MOL0     H62339   1.139  11.078   6.796 -0.1020 -0.4760  0.3840
  462MOL0     H62340   1.043  11.173   6.623 -2.1986 -1.9059  0.8482
  462MOL0     H62341   1.101  11.338   6.665  1.3460 -0.2748  0.3524
  462MOL0     H62342   0.901  11.151   6.832  2.0817  0.1035  0.2196
  462MOL0     H62343   0.948  11.315   6.881 -1.9244 -0.1935  1.9135
  462MOL0     H62344   0.857  11.402   6.677 -1.2525 -0.2910 -2.6287
  462MOL0     H62345   0.745  11.334   6.803 -0.6381 -0.9978  0.3895
  462MOL0     H62346   0.807  11.222   6.533  1.6789 -0.1470  1.4026
  462MOL0     H62347   0.712  11.141   6.659 -1.2194  1.0518  0.5068
  462MOL0     H62348   0.633  11.421   6.554  0.2895  0.7121  0.9441
  462MOL0     H62349   0.541  11.323   6.666  1.2137  4.4017  2.8935
  462MOL0     H62350   0.503  11.152   6.496 -1.9829  1.9312  3.9337
  462MOL0     H62351   0.630  11.229   6.383 -0.3810  0.5207 -1.7035
  462MOL0     H62352   1.590  11.358   6.846 -2.1893  0.7647  1.1112
  462MOL0     H62353   1.806  11.241   6.888 -0.3946  3.3198  4.3905
  462MOL0     H62354   1.968  10.909   7.138 -0.8605  0.7840 -1.0998
  462MOL0     H62355   2.154  10.772   7.252  3.2652  0.8181 -0.7030
  462MOL0     H62356   4.117  10.287   7.151  1.2004 -3.3753  2.2861
  462MOL0     H62357   4.323  10.358   7.302  1.2433  1.2335  3.8987
  462MOL0     H62358   4.480  10.379   7.847 -0.7427 -0.2157  0.4694
  462MOL0     H62359   4.704  10.481   7.915  1.3089  0.3662 -0.9975
  462MOL0     H62360   4.876  10.816   7.671  1.8697  1.3171 -0.4015
  462MOL0     H62361   4.796  10.892   7.806  1.0028 -0.8788  2.4536
  462MOL0     H62362   4.969  10.874   7.949 -1.1329  6.5409 -0.2562
  462MOL0     H62363   5.016  10.962   7.809 -0.8192  0.3933  0.6271
  462MOL0     H62364   5.178  10.808   7.742 -0.3487  1.9109  0.3404
  462MOL0     H62365   5.080  10.667   7.773 -0.1108  1.1295 -2.5387
  462MOL0     H62366   5.273  10.667   7.925 -0.1675  1.4559  0.0274
  462MOL0     H62367   5.126  10.695   8.017  0.4924 -0.5844  1.1982
  462MOL0     H62368   5.360  11.059   8.050 -3.2447  0.9986  1.1344
  462MOL0     H62369   4.636  10.791   7.625  0.4984  0.1230 -0.2992
  462MOL0     H62370   4.450  10.680   7.553 -0.5362 -2.1695 -0.1853
  463MOL0     O62371   7.915   3.584   1.318 -0.7618  0.0683  0.3751
  463MOL0     C62372   7.936   3.700   1.286  0.2752 -0.6710  0.0255
  463MOL0     O62373   7.861   3.768   1.194  1.4122 -0.6063 -0.3064
  463MOL0     C62374   7.742   3.702   1.158 -1.0298 -1.3356 -0.1745
  463MOL0     C62375   7.735   3.589   1.079 -0.1143  0.2163 -0.0951
  463MOL0     C62376   7.618   3.524   1.047  0.1862  0.2471  0.0352
  463MOL0     C62377   7.498   3.588   1.091  0.5069  0.4886  0.3866
  463MOL0     O62378   7.378   3.527   1.041 -0.5696 -0.3436  0.0390
  463MOL0     C62379   7.249   3.582   1.063  0.1628 -0.4499  0.1543
  463MOL0     C62380   7.181   3.535   1.191  0.3151 -0.0145  1.0807
  463MOL0     C62381   7.023   3.547   1.182 -1.1654  0.2345 -0.4830
  463MOL0     C62382   6.952   3.476   1.304 -0.7963  0.0165  0.7920
  463MOL0     C62383   6.802   3.496   1.296  0.7562 -0.6487 -0.6116
  463MOL0     C62384   6.742   3.404   1.395 -0.1397  0.7527  0.3473
  463MOL0     C62385   6.591   3.438   1.417 -0.3836  0.0448 -0.4153
  463MOL0     C62386   6.560   3.567   1.500 -0.3807 -0.3090  0.0676
  463MOL0     N62387   6.427   3.567   1.562  0.1002  0.0180  1.1240
  463MOL0     C62388   6.311   3.589   1.493 -0.3879  0.0470 -0.4631
  463MOL0     C62389   6.215   3.608   1.587  0.2997 -0.9714  0.6572
  463MOL0     C62390   6.068   3.634   1.553  0.6792 -0.7440 -0.0894
  463MOL0     C62391   6.031   3.783   1.528 -0.1848 -0.2500 -0.0526
  463MOL0     C62392   5.899   3.803   1.442 -0.7357 -0.0115 -0.0134
  463MOL0     C62393   5.788   3.699   1.468  0.6978  0.1108  0.8350
  463MOL0     O62394   5.682   3.729   1.372 -0.1211  0.1580  0.4038
  463MOL0     C62395   5.553   3.721   1.405  1.3980  0.0403 -0.6812
  463MOL0     C62396   5.485   3.839   1.431 -0.0800  0.7775  0.0334
  463MOL0     C62397   5.351   3.844   1.473  0.2442  0.4769  1.0492
  463MOL0     C62398   5.279   3.974   1.503  1.4699  0.0829 -0.1924
  463MOL0     C62399   5.276   3.724   1.478  0.6694  0.4154 -0.6794
  463MOL0     C62400   5.149   3.714   1.541 -0.4370  1.0532  0.2772
  463MOL0     O62401   5.150   3.685   1.673 -0.1790  0.0052  1.3549
  463MOL0     C62402   5.029   3.680   1.741  0.3582 -0.3913  0.3617
  463MOL0     C62403   5.015   3.565   1.816  0.0585  0.5018  0.5534
  463MOL0     C62404   4.890   3.543   1.865  0.9173  0.2020 -0.2069
  463MOL0     C62405   4.789   3.641   1.864  1.0793 -0.5350 -0.3054
  463MOL0     O62406   4.671   3.611   1.930 -0.3227 -0.2187  0.2366
  463MOL0     C62407   4.553   3.679   1.890  0.6335 -0.1578 -0.1584
  463MOL0     C62408   4.425   3.650   1.985 -0.5579 -0.5718 -0.1478
  463MOL0     C62409   4.367   3.503   1.982  0.2833 -0.2454 -0.2440
  463MOL0     C62410   4.336   3.438   1.846 -0.4298 -0.5499 -0.2982
  463MOL0     C62411   4.308   3.286   1.840  0.9907 -0.0251  0.5966
  463MOL0     C62412   4.171   3.253   1.899 -0.4480 -0.7538  0.1547
  463MOL0     C62413   4.151   3.109   1.870 -0.6609 -0.4518 -0.3555
  463MOL0     C62414   4.111   3.072   1.730 -0.2404  0.1853  0.0646
  463MOL0    Cl62415   4.113   2.892   1.723  0.2013  0.0163  0.1049
  463MOL0     C62416   4.815   3.766   1.807 -0.2350  0.1534 -0.0205
  463MOL0     C62417   4.937   3.790   1.747  0.2605  0.6639  0.0730
  463MOL0     O62418   5.051   3.716   1.469 -0.1686  0.5753 -0.3774
  463MOL0     C62419   5.349   3.598   1.464 -0.8423  0.1345  0.1013
  463MOL0     C62420   5.483   3.598   1.418 -0.3578 -0.1611  0.6193
  463MOL0     N62421   6.272   3.596   1.709  0.0866  0.4917  0.1084
  463MOL0     N62422   6.401   3.574   1.697  0.5696 -0.3076  0.1580
  463MOL0     C62423   7.501   3.707   1.157 -0.4188  0.1366  0.1887
  463MOL0     C62424   7.623   3.765   1.192  0.2459  0.3885 -1.0105
  463MOL0     C62425   8.059   3.769   1.331  0.1272  0.2522 -0.1523
  463MOL0     C62426   8.144   3.709   1.425  0.0173 -0.6863 -0.4741
  463MOL0     C62427   8.246   3.785   1.483 -0.0562 -0.3309  0.2545
  463MOL0     C62428   8.275   3.912   1.436  0.4845 -1.6500 -1.1987
  463MOL0     O62429   8.364   4.003   1.496  0.4280  0.2793 -0.3027
  463MOL0     C62430   8.425   3.973   1.619  0.1850 -0.8272  0.3261
  463MOL0     C62431   8.323   3.984   1.733 -0.9690  0.5075  0.5148
  463MOL0     C62432   8.314   4.118   1.793  0.3437 -0.1543 -0.3291
  463MOL0     C62433   8.208   4.135   1.909  0.1661 -0.1870 -0.4060
  463MOL0     C62434   8.213   4.039   2.019 -0.7265 -0.7511  0.2702
  463MOL0     C62435   8.215   3.953   2.106  0.0380 -0.1952  0.2146
  463MOL0     C62436   8.199   3.963   1.334  0.4567 -0.6468  0.0903
  463MOL0     C62437   8.086   3.896   1.278 -0.1259  0.4095  0.3923
  463MOL0     H62438   7.833   3.546   1.060 -0.6747 -0.6290 -1.1459
  463MOL0     H62439   7.607   3.435   0.987 -0.8854 -0.1219  0.7372
  463MOL0     H62440   7.246   3.689   1.041 -2.0130 -0.6483 -0.7463
  463MOL0     H62441   7.194   3.535   0.981 -2.4420 -0.2944  1.7144
  463MOL0     H62442   7.211   3.434   1.220  0.4154  0.1359  1.5012
  463MOL0     H62443   7.225   3.595   1.271 -0.1564 -1.9978  2.9313
  463MOL0     H62444   6.995   3.653   1.180 -2.5006 -0.0391  1.1474
  463MOL0     H62445   6.988   3.498   1.091 -0.4547  0.6507 -0.9892
  463MOL0     H62446   6.971   3.369   1.302  0.3387  0.1727  1.8680
  463MOL0     H62447   6.989   3.522   1.396 -1.1079  2.0471 -0.0310
  463MOL0     H62448   6.785   3.603   1.311  3.6810  0.0901 -1.8353
  463MOL0     H62449   6.759   3.475   1.197  1.0907 -1.7521 -0.5342
  463MOL0     H62450   6.760   3.298   1.375  2.8911  0.9181  1.7342
  463MOL0     H62451   6.784   3.411   1.495 -0.1304 -1.2323  0.5386
  463MOL0     H62452   6.530   3.442   1.326 -1.2688 -1.7749  0.0441
  463MOL0     H62453   6.544   3.354   1.469 -0.1273  0.7506  0.9881
  463MOL0     H62454   6.570   3.656   1.438 -0.6178  0.7177  1.4458
  463MOL0     H62455   6.629   3.566   1.585 -3.4024  0.4544  2.7187
  463MOL0     H62456   6.302   3.601   1.386 -0.4114  2.6119 -0.2309
  463MOL0     H62457   6.046   3.579   1.461 -1.6920 -1.8055  1.0267
  463MOL0     H62458   6.013   3.594   1.639  2.4108  4.7339  4.1789
  463MOL0     H62459   6.115   3.837   1.483 -0.4372  1.2791  1.2144
  463MOL0     H62460   6.020   3.829   1.627 -2.1675 -2.0452  0.6314
  463MOL0     H62461   5.922   3.806   1.335 -0.5626  3.2628  0.0434
  463MOL0     H62462   5.853   3.901   1.459 -1.6961 -0.6302  1.1635
  463MOL0     H62463   5.763   3.694   1.574  0.9186 -0.7962  0.8538
  463MOL0     H62464   5.816   3.595   1.453 -1.9049 -0.7385  1.4436
  463MOL0     H62465   5.544   3.930   1.430 -1.4348  1.7032  1.1529
  463MOL0     H62466   5.178   3.973   1.461  0.6489 -1.8506  1.6482
  463MOL0     H62467   5.257   3.972   1.610 -0.9609  2.9608 -0.4991
  463MOL0     H62468   5.343   4.061   1.486  2.7745 -0.8751 -0.3466
  463MOL0     H62469   5.091   3.489   1.827  0.5681  0.9256  0.0638
  463MOL0     H62470   4.865   3.453   1.920  0.2049  2.0415  2.7398
  463MOL0     H62471   4.579   3.784   1.904 -0.2472  0.1874 -1.0489
  463MOL0     H62472   4.524   3.659   1.786  0.6410  0.4146 -0.2770
  463MOL0     H62473   4.445   3.665   2.092 -0.3980 -2.2369  0.0852
  463MOL0     H62474   4.351   3.725   1.955 -1.6252 -1.7672 -0.5784
  463MOL0     H62475   4.281   3.493   2.050 -0.5111  1.1500 -1.0008
  463MOL0     H62476   4.444   3.438   2.024 -0.4587 -0.8528  0.2209
  463MOL0     H62477   4.252   3.493   1.803 -2.0372 -2.2892  0.4228
  463MOL0     H62478   4.428   3.447   1.788 -0.4558 -3.0297 -0.8462
  463MOL0     H62479   4.384   3.220   1.883 -1.3978 -1.1757  3.4270
  463MOL0     H62480   4.308   3.251   1.736 -0.7619 -0.5798  0.7561
  463MOL0     H62481   4.176   3.271   2.007  2.4252 -1.1660  0.1663
  463MOL0     H62482   4.093   3.312   1.850  1.0287  2.2787  1.1963
  463MOL0     H62483   4.076   3.070   1.939  0.9652 -1.2374  1.0706
  463MOL0     H62484   4.245   3.058   1.896 -1.5887 -1.3658  1.3382
  463MOL0     H62485   4.176   3.104   1.647  0.0719 -2.7147 -0.9264
  463MOL0     H62486   4.007   3.103   1.718 -0.5748  0.5512  3.2334
  463MOL0     H62487   4.745   3.850   1.807 -1.2942 -0.6826 -1.5641
  463MOL0     H62488   4.947   3.877   1.682 -0.6517 -0.0124 -1.0263
  463MOL0     H62489   5.297   3.505   1.482  0.9486 -0.7391  0.9637
  463MOL0     H62490   5.521   3.498   1.398  1.2556  1.0839 -3.5108
  463MOL0     H62491   7.409   3.762   1.176 -0.2121  2.3155 -4.0009
  463MOL0     H62492   7.640   3.858   1.246 -1.7985  0.1343  0.1971
  463MOL0     H62493   8.130   3.613   1.472  3.6306 -1.6272 -1.0412
  463MOL0     H62494   8.303   3.736   1.561  1.6441 -1.3423 -1.5352
  463MOL0     H62495   8.473   3.875   1.614  0.8406 -0.4991  0.1133
  463MOL0     H62496   8.504   4.046   1.635 -0.9203  0.4492  0.1847
  463MOL0     H62497   8.346   3.905   1.806  0.1293 -0.3808 -0.7440
  463MOL0     H62498   8.230   3.947   1.689 -1.0015  2.2125 -0.9334
  463MOL0     H62499   8.288   4.195   1.720  0.9684 -0.0741 -0.4758
  463MOL0     H62500   8.411   4.152   1.832 -0.4883  0.3385  1.4199
  463MOL0     H62501   8.106   4.130   1.869 -1.2558  2.1466  2.5780
  463MOL0     H62502   8.203   4.235   1.953 -0.3931  0.4665 -1.8492
  463MOL0     H62503   8.210   3.876   2.179 -3.8127 -2.4331 -2.1082
  463MOL0     H62504   8.241   4.053   1.289 -0.6896 -0.8367 -1.4429
  463MOL0     H62505   8.028   3.933   1.193  1.5086  0.1797 -0.8738
  464MOL0     O62506   7.959   4.196   2.769 -0.6203  0.1106  0.1839
  464MOL0     C62507   7.899   4.303   2.793 -0.0349  0.1839  0.7880
  464MOL0     O62508   7.959   4.422   2.836 -0.6486  0.4405 -0.2193
  464MOL0     C62509   8.092   4.437   2.830 -0.0857 -0.1597  0.2057
  464MOL0     C62510   8.177   4.347   2.872  0.0128  0.7196  0.0462
  464MOL0     C62511   8.311   4.350   2.842  0.0619 -0.8290 -0.7942
  464MOL0     C62512   8.365   4.453   2.766 -1.2973 -0.2804  0.1619
  464MOL0     O62513   8.500   4.462   2.736  0.0725  0.2877  0.6265
  464MOL0     C62514   8.580   4.566   2.801  0.2253 -0.0466  0.1873
  464MOL0     C62515   8.694   4.501   2.882  0.4252 -0.6297  0.0622
  464MOL0     C62516   8.784   4.604   2.947  0.0190 -0.7554 -0.3253
  464MOL0     C62517   8.883   4.552   3.052  0.1491  0.2758  0.6111
  464MOL0     C62518   8.979   4.658   3.113  0.5348 -0.5043  0.0158
  464MOL0     C62519   9.094   4.589   3.188  0.1905  0.0220 -0.0681
  464MOL0     C62520   9.206   4.680   3.227 -1.1409 -0.4449 -0.5737
  464MOL0     C62521   9.179   4.772   3.340  0.4635 -0.4213 -0.0964
  464MOL0     N62522   9.175   4.703   3.466  0.5735  0.4582 -0.2468
  464MOL0     C62523   9.055   4.663   3.514  1.4607 -0.5205 -1.7839
  464MOL0     C62524   9.082   4.592   3.633 -0.6341  0.0710  0.4664
  464MOL0     C62525   9.002   4.532   3.740 -0.3904 -0.1649  0.1724
  464MOL0     C62526   8.992   4.382   3.729 -1.0554  0.7692 -0.0234
  464MOL0     C62527   8.956   4.327   3.877  0.2180 -0.0860 -0.5018
  464MOL0     C62528   8.940   4.173   3.888  0.3839  0.5216 -0.4684
  464MOL0     O62529   8.827   4.147   3.979  0.2659  1.0484  0.6464
  464MOL0     C62530   8.694   4.150   3.945 -0.2749  0.0802  0.3361
  464MOL0     C62531   8.594   4.151   4.048 -0.8187  0.3491  0.0520
  464MOL0     C62532   8.457   4.163   4.026 -0.5672 -0.0500  0.1231
  464MOL0     C62533   8.370   4.216   4.134  0.1735  0.0409  0.0350
  464MOL0     C62534   8.413   4.161   3.891  1.0684 -0.0628 -0.7880
  464MOL0     C62535   8.267   4.175   3.849  0.5432 -0.3914  0.8566
  464MOL0     O62536   8.247   4.214   3.721  0.0470  0.3236 -0.0985
  464MOL0     C62537   8.110   4.235   3.687 -1.1356 -0.3821  0.3679
  464MOL0     C62538   8.046   4.134   3.609  0.0441  0.5282  0.0332
  464MOL0     C62539   7.910   4.142   3.578  0.5551 -0.2161  0.5125
  464MOL0     C62540   7.831   4.255   3.623 -0.7513  1.1191 -0.4398
  464MOL0     O62541   7.695   4.256   3.588  0.5975  0.6325  0.4446
  464MOL0     C62542   7.606   4.344   3.655  0.7036  0.9515  0.7349
  464MOL0     C62543   7.463   4.305   3.594  0.1346 -0.1625 -0.0526
  464MOL0     C62544   7.349   4.399   3.646  0.0688 -0.2419  0.8092
  464MOL0     C62545   7.248   4.339   3.734  1.4739  0.8651  0.0608
  464MOL0     C62546   7.283   4.227   3.830 -1.0042 -0.0229 -0.8291
  464MOL0     C62547   7.162   4.187   3.915  0.3222 -0.2543  0.2140
  464MOL0     C62548   7.214   4.110   4.035  0.4521  0.9685  0.0747
  464MOL0     C62549   7.087   4.070   4.105  0.3069 -0.0757 -1.4435
  464MOL0    Cl62550   7.134   3.984   4.250  0.5067  0.6246 -0.2010
  464MOL0     C62551   7.895   4.349   3.707  0.5437  0.4082 -0.0116
  464MOL0     C62552   8.028   4.338   3.738  0.0283  0.8936  0.4654
  464MOL0     O62553   8.179   4.150   3.930 -0.2525  0.4131 -0.1957
  464MOL0     C62554   8.509   4.150   3.792 -0.1523  0.1343  0.8295
  464MOL0     C62555   8.649   4.159   3.809 -0.2753  1.1113 -0.1809
  464MOL0     N62556   9.222   4.600   3.636 -0.1140  0.4051 -0.4255
  464MOL0     N62557   9.276   4.679   3.560  0.6540 -1.1063 -0.6731
  464MOL0     C62558   8.278   4.551   2.724 -0.1154  0.0197 -0.5170
  464MOL0     C62559   8.142   4.542   2.754 -0.4196  0.1289 -1.1543
  464MOL0     C62560   7.751   4.301   2.765  0.0235 -1.1217 -0.1057
  464MOL0     C62561   7.688   4.183   2.718 -0.3418 -0.1382  0.0939
  464MOL0     C62562   7.552   4.181   2.694 -0.4356  0.5057 -0.3971
  464MOL0     C62563   7.475   4.295   2.710  0.5977 -0.8083  0.7462
  464MOL0     O62564   7.338   4.290   2.704  0.8228 -0.2602  0.3612
  464MOL0     C62565   7.263   4.166   2.714 -0.6258 -0.4921  0.3052
  464MOL0     C62566   7.137   4.188   2.786 -0.2620 -0.0906 -0.3595
  464MOL0     C62567   7.045   4.276   2.709 -0.7311 -0.0634  0.2312
  464MOL0     C62568   6.913   4.317   2.779 -0.0143  1.0443 -0.1814
  464MOL0     C62569   6.813   4.210   2.800 -0.7164  0.5839 -0.3990
  464MOL0     C62570   6.720   4.131   2.816  0.1286  0.9660 -0.4577
  464MOL0     C62571   7.535   4.411   2.745  0.2835 -0.2685 -0.8541
  464MOL0     C62572   7.671   4.415   2.780  0.2779  0.8455 -0.2484
  464MOL0     H62573   8.143   4.263   2.931  2.0872 -0.4266 -0.2964
  464MOL0     H62574   8.368   4.266   2.881  2.4752 -0.0889 -2.4956
  464MOL0     H62575   8.603   4.635   2.720 -3.7849  0.6858 -0.5386
  464MOL0     H62576   8.513   4.616   2.872 -0.0271 -2.6686  1.9579
  464MOL0     H62577   8.651   4.437   2.960 -0.9542 -0.6421 -0.6599
  464MOL0     H62578   8.742   4.435   2.810 -1.3891 -1.4101 -0.4963
  464MOL0     H62579   8.844   4.646   2.866  0.1062  1.9390  1.0418
  464MOL0     H62580   8.719   4.674   3.000 -2.0604 -3.5576  1.1555
  464MOL0     H62581   8.825   4.494   3.124 -0.8137 -0.5980 -0.8039
  464MOL0     H62582   8.932   4.477   2.988 -1.3297  1.3808 -1.9924
  464MOL0     H62583   9.025   4.718   3.034  3.0185  1.0147  2.4357
  464MOL0     H62584   8.925   4.726   3.178 -0.1685 -2.2364  1.3359
  464MOL0     H62585   9.057   4.532   3.274  0.8511 -0.1097  0.1365
  464MOL0     H62586   9.139   4.511   3.126 -1.8591  1.1452 -3.2186
  464MOL0     H62587   9.296   4.620   3.240 -2.7422 -2.4504  2.6484
  464MOL0     H62588   9.230   4.737   3.137 -1.7757  0.0791 -0.4195
  464MOL0     H62589   9.086   4.830   3.338 -0.4090 -1.6084  2.4325
  464MOL0     H62590   9.263   4.841   3.331  1.3352 -0.9672  2.9480
  464MOL0     H62591   8.956   4.692   3.482  2.1108  0.6505 -2.8063
  464MOL0     H62592   9.041   4.563   3.838  1.1219 -0.9096 -0.1612
  464MOL0     H62593   8.901   4.571   3.727 -0.1060  0.4140 -0.3964
  464MOL0     H62594   9.090   4.349   3.693 -0.7661  1.1947  0.3646
  464MOL0     H62595   8.917   4.354   3.655  0.2296 -0.2283 -0.9883
  464MOL0     H62596   8.858   4.369   3.902  0.8799  0.7084  0.8504
  464MOL0     H62597   9.036   4.365   3.940 -0.0827  1.1203 -0.8263
  464MOL0     H62598   9.036   4.126   3.910 -0.3907 -0.6982  0.4497
  464MOL0     H62599   8.916   4.124   3.793  1.2247  0.4390 -0.6404
  464MOL0     H62600   8.622   4.159   4.153 -0.9322 -0.8461  0.1944
  464MOL0     H62601   8.312   4.305   4.107 -0.2461  0.0847  1.0645
  464MOL0     H62602   8.315   4.131   4.175 -0.0400  0.0946 -0.1345
  464MOL0     H62603   8.438   4.240   4.216  1.7996 -1.1077 -0.9207
  464MOL0     H62604   8.116   4.057   3.579  0.4769  0.3334  1.4687
  464MOL0     H62605   7.859   4.063   3.524 -0.6651  0.3479  0.8042
  464MOL0     H62606   7.601   4.337   3.764 -0.1942  1.4815  0.7362
  464MOL0     H62607   7.642   4.442   3.624  2.0143 -0.3911 -2.3539
  464MOL0     H62608   7.465   4.306   3.484 -1.2429 -3.3456 -0.2011
  464MOL0     H62609   7.433   4.204   3.621 -0.5155  0.3602  1.2569
  464MOL0     H62610   7.301   4.442   3.557  0.1849 -3.2172 -0.8263
  464MOL0     H62611   7.390   4.489   3.693 -0.6683  0.5140  0.0641
  464MOL0     H62612   7.185   4.413   3.784  0.9748 -0.7706  1.9853
  464MOL0     H62613   7.178   4.285   3.669  2.1050 -0.4850  0.4669
  464MOL0     H62614   7.353   4.271   3.902  0.4940 -0.2661 -2.0660
  464MOL0     H62615   7.339   4.144   3.784  0.1369  0.1084  0.2522
  464MOL0     H62616   7.111   4.276   3.953  0.8673  0.4867 -0.7231
  464MOL0     H62617   7.095   4.127   3.853 -0.6495 -0.1084  1.0991
  464MOL0     H62618   7.275   4.167   4.106  0.5750 -1.4894  2.1163
  464MOL0     H62619   7.269   4.021   4.002  1.1128  1.8711 -1.3587
  464MOL0     H62620   7.026   4.004   4.041 -0.3889 -0.7140 -0.1505
  464MOL0     H62621   7.031   4.159   4.134 -0.4352 -0.8413 -0.4456
  464MOL0     H62622   7.837   4.434   3.740 -0.0540  2.4187 -5.3154
  464MOL0     H62623   8.074   4.413   3.802 -0.6556  1.0196  0.8181
  464MOL0     H62624   8.484   4.150   3.687  1.1475 -0.5126  0.4970
  464MOL0     H62625   8.716   4.150   3.724 -2.1026  0.3249 -1.6066
  464MOL0     H62626   8.318   4.634   2.667  0.3860 -0.0982 -0.3354
  464MOL0     H62627   8.092   4.631   2.718  0.9476  0.6452 -1.8506
  464MOL0     H62628   7.748   4.093   2.715 -0.0502  0.0153 -4.2068
  464MOL0     H62629   7.511   4.085   2.666 -0.5085  0.1449  0.8733
  464MOL0     H62630   7.244   4.124   2.614 -0.1152  1.1995 -0.5408
  464MOL0     H62631   7.321   4.098   2.776 -0.2690 -2.8868 -2.4527
  464MOL0     H62632   7.160   4.232   2.883  1.2270 -1.2706 -0.1517
  464MOL0     H62633   7.093   4.089   2.800 -1.3920 -0.2456 -3.9588
  464MOL0     H62634   7.015   4.218   2.621 -3.0716 -1.4358  1.8023
  464MOL0     H62635   7.091   4.369   2.675 -3.8709  0.3297 -3.7158
  464MOL0     H62636   6.861   4.384   2.710 -1.1597 -0.1086 -0.4698
  464MOL0     H62637   6.929   4.367   2.875  0.6263  0.7225 -0.1148
  464MOL0     H62638   6.638   4.063   2.828  0.2549  0.2768 -2.8982
  464MOL0     H62639   7.474   4.496   2.772  1.1779 -0.0984  0.7748
  464MOL0     H62640   7.704   4.510   2.819 -2.3382  2.5858 -1.8701
  465MOL0     O62641   0.797   2.289   7.609 -0.5748 -0.0980 -0.0394
  465MOL0     C62642   0.815   2.282   7.732 -0.0778 -0.4464  0.0050
  465MOL0     O62643   0.749   2.181   7.809  0.4874 -0.6396  0.4133
  465MOL0     C62644   0.641   2.116   7.741 -0.4437 -0.5607  0.2014
  465MOL0     C62645   0.524   2.183   7.707  0.1112 -0.4922  0.6389
  465MOL0     C62646   0.421   2.129   7.634 -0.0949  0.0362  1.0460
  465MOL0     C62647   0.432   1.993   7.604  0.9292 -0.4323 -0.3885
  465MOL0     O62648   0.330   1.931   7.536  0.0929  0.7301  0.3527
  465MOL0     C62649   0.265   1.817   7.601  0.1655 -0.5017  0.6534
  465MOL0     C62650   0.133   1.795   7.538 -0.4624 -0.3410  0.5868
  465MOL0     C62651   0.149   1.737   7.400 -0.3872  0.2321  0.5417
  465MOL0     C62652   0.022   1.736   7.323 -0.1800  0.1562  0.5450
  465MOL0     C62653   0.055   1.723   7.178  0.4771 -0.4964 -0.1301
  465MOL0     C62654  -0.064   1.703   7.083  0.6447  0.2736 -0.0085
  465MOL0     C62655  -0.031   1.618   6.959 -0.2394 -0.3777 -0.6534
  465MOL0     C62656  -0.150   1.607   6.858  0.1836  0.9421 -0.2693
  465MOL0     N62657  -0.245   1.506   6.908  0.0806 -0.3509  0.0227
  465MOL0     C62658  -0.358   1.530   6.974 -0.1285 -0.0453 -0.4380
  465MOL0     C62659  -0.419   1.407   6.987  0.7087 -0.2524 -0.0959
  465MOL0     C62660  -0.542   1.361   7.046  0.0556  0.8745  0.2389
  465MOL0     C62661  -0.499   1.269   7.162  0.5985 -0.3405  0.1860
  465MOL0     C62662  -0.612   1.215   7.254 -0.0439  0.4333 -0.1668
  465MOL0     C62663  -0.565   1.110   7.357 -0.0556 -0.5389 -0.1228
  465MOL0     O62664  -0.464   1.165   7.439 -0.4648  0.4164 -0.2647
  465MOL0     C62665  -0.372   1.079   7.507  0.3830  0.2041 -0.6879
  465MOL0     C62666  -0.369   0.943   7.493 -0.3071 -0.0058 -0.0119
  465MOL0     C62667  -0.277   0.868   7.551 -0.0423 -0.2245 -0.4899
  465MOL0     C62668  -0.300   0.716   7.553 -0.1719 -0.1980 -0.4849
  465MOL0     C62669  -0.151   0.930   7.597  0.5028 -0.3976  0.2275
  465MOL0     C62670  -0.023   0.865   7.628 -0.8488  0.0322 -0.1532
  465MOL0     O62671   0.076   0.947   7.675 -0.8276  0.0482  0.2391
  465MOL0     C62672   0.184   0.887   7.737  0.0783 -0.0809 -0.2000
  465MOL0     C62673   0.179   0.834   7.866  0.5730  0.1737  0.9024
  465MOL0     C62674   0.292   0.787   7.922  0.4760 -0.3210  0.2678
  465MOL0     C62675   0.414   0.781   7.862  0.1481  0.8406  0.6023
  465MOL0     O62676   0.526   0.721   7.917 -1.1718 -0.0057  0.2127
  465MOL0     C62677   0.531   0.689   8.053 -0.0371 -0.2217  0.4190
  465MOL0     C62678   0.678   0.652   8.074  0.1412 -1.3645  0.0216
  465MOL0     C62679   0.718   0.523   8.011  0.4966  0.0018  0.0695
  465MOL0     C62680   0.834   0.456   8.076 -0.3193 -0.1234  0.0147
  465MOL0     C62681   0.955   0.553   8.037  0.8076  0.4171 -0.2514
  465MOL0     C62682   1.084   0.484   8.044  0.3372  0.6657  0.2248
  465MOL0     C62683   1.105   0.394   7.921 -0.7264 -0.1284 -0.1029
  465MOL0     C62684   1.202   0.277   7.945 -0.3879 -0.1565 -0.5189
  465MOL0    Cl62685   1.226   0.170   7.803 -0.1543  0.0689 -0.0039
  465MOL0     C62686   0.418   0.837   7.733 -0.6033 -0.5957  0.0827
  465MOL0     C62687   0.305   0.884   7.660 -1.1083 -0.8346 -0.2968
  465MOL0     O62688  -0.014   0.750   7.596  0.0299  0.3193 -0.8528
  465MOL0     C62689  -0.167   1.075   7.610 -0.0865 -0.1362  0.0541
  465MOL0     C62690  -0.277   1.145   7.572 -1.4727 -0.4225 -0.9742
  465MOL0     N62691  -0.335   1.317   6.922  0.5046 -0.0645 -0.3121
  465MOL0     N62692  -0.222   1.373   6.875  0.3191 -1.0559 -0.5933
  465MOL0     C62693   0.549   1.920   7.646  0.4920  1.3325 -1.0172
  465MOL0     C62694   0.651   1.985   7.712 -0.1150 -0.0962 -0.8020
  465MOL0     C62695   0.925   2.361   7.783 -0.2245 -0.3411 -0.3322
  465MOL0     C62696   0.976   2.473   7.705 -0.1467  0.1372  0.8729
  465MOL0     C62697   1.073   2.550   7.758 -0.3789  0.0405 -0.1593
  465MOL0     C62698   1.111   2.540   7.888 -0.5287  0.3068  0.4365
  465MOL0     O62699   1.217   2.617   7.921 -0.3933  0.2848 -0.3694
  465MOL0     C62700   1.321   2.557   8.004  0.2000 -0.7370 -0.0844
  465MOL0     C62701   1.459   2.563   7.951 -1.1013 -0.1115  0.1397
  465MOL0     C62702   1.579   2.551   8.055 -0.0879 -0.4330 -0.1191
  465MOL0     C62703   1.721   2.576   7.987  0.3813  0.1775  0.5322
  465MOL0     C62704   1.811   2.483   8.043 -0.2675  0.1132  0.1322
  465MOL0     C62705   1.890   2.421   8.109 -0.0071  0.3356  0.1311
  465MOL0     C62706   1.054   2.436   7.973 -0.0375  0.3547  0.0371
  465MOL0     C62707   0.959   2.347   7.916  0.7543 -0.2962 -0.4500
  465MOL0     H62708   0.519   2.290   7.727 -1.2064 -0.1200 -1.4822
  465MOL0     H62709   0.331   2.183   7.607  1.5834  2.4795 -0.0158
  465MOL0     H62710   0.324   1.725   7.612 -1.2170 -1.5732 -0.4989
  465MOL0     H62711   0.248   1.845   7.706  1.2739 -5.2956  2.4044
  465MOL0     H62712   0.079   1.722   7.598  1.5837 -1.4985  1.1103
  465MOL0     H62713   0.075   1.888   7.542 -0.4122 -0.1666 -1.6126
  465MOL0     H62714   0.221   1.802   7.350 -1.3392  0.4651 -0.5599
  465MOL0     H62715   0.193   1.638   7.383 -2.4672 -0.7118  0.3325
  465MOL0     H62716  -0.050   1.661   7.358 -1.2406  1.0067  0.2289
  465MOL0     H62717  -0.025   1.833   7.340  0.3399  0.1994  1.8057
  465MOL0     H62718   0.107   1.813   7.143 -2.5164  1.6090  0.4348
  465MOL0     H62719   0.135   1.649   7.167 -0.7987 -1.7109 -1.9274
  465MOL0     H62720  -0.134   1.652   7.150  2.3831 -2.2365  0.0612
  465MOL0     H62721  -0.105   1.796   7.042 -0.9500 -0.6829 -0.6866
  465MOL0     H62722   0.049   1.684   6.922 -1.2412  2.9459  2.4909
  465MOL0     H62723   0.014   1.521   6.982 -1.1784 -0.3780  1.4571
  465MOL0     H62724  -0.122   1.574   6.757  1.4458  0.0012  0.3641
  465MOL0     H62725  -0.196   1.706   6.855 -1.4049  0.2760  1.0176
  465MOL0     H62726  -0.413   1.618   7.004 -3.7134 -1.4961 -2.1082
  465MOL0     H62727  -0.601   1.447   7.080 -3.3368 -0.0241 -2.7494
  465MOL0     H62728  -0.600   1.303   6.974  0.4219  0.2102  0.4770
  465MOL0     H62729  -0.443   1.329   7.234  0.7405  1.3204 -1.2765
  465MOL0     H62730  -0.421   1.202   7.125  0.4463  0.6316 -2.0086
  465MOL0     H62731  -0.687   1.170   7.188  1.1873  0.2667 -1.5031
  465MOL0     H62732  -0.659   1.300   7.305  1.0991  0.5086  0.8011
  465MOL0     H62733  -0.525   1.027   7.298 -0.2447 -0.9287  0.2925
  465MOL0     H62734  -0.640   1.072   7.427  1.4486 -2.9955  0.2718
  465MOL0     H62735  -0.449   0.890   7.442 -0.2896 -0.6188  0.5733
  465MOL0     H62736  -0.404   0.681   7.555  1.1558 -4.7364  0.9662
  465MOL0     H62737  -0.247   0.673   7.468  1.7389 -0.8560  0.9778
  465MOL0     H62738  -0.252   0.680   7.644  0.8347  2.9264  0.3437
  465MOL0     H62739   0.083   0.831   7.916 -1.1278 -3.6266 -2.0070
  465MOL0     H62740   0.271   0.745   8.019  1.5935  0.4944  0.8795
  465MOL0     H62741   0.493   0.770   8.116 -3.8805 -3.5853  2.9826
  465MOL0     H62742   0.471   0.598   8.066 -0.5244  0.0935  0.3794
  465MOL0     H62743   0.736   0.741   8.049  0.4562 -0.8110  2.4443
  465MOL0     H62744   0.691   0.646   8.183  0.3543  1.4945  0.2218
  465MOL0     H62745   0.737   0.553   7.908  1.8277  1.0815  0.5939
  465MOL0     H62746   0.630   0.458   8.010  0.8589 -0.5501 -2.7853
  465MOL0     H62747   0.817   0.444   8.183 -0.8149 -3.2778 -0.3038
  465MOL0     H62748   0.851   0.359   8.027 -1.1237 -0.6282  0.6985
  465MOL0     H62749   0.949   0.649   8.089  2.4805  0.4047  0.0088
  465MOL0     H62750   0.953   0.583   7.932 -1.3856 -0.6611 -0.5812
  465MOL0     H62751   1.156   0.567   8.047  0.2548  0.7308  0.4041
  465MOL0     H62752   1.098   0.434   8.140  0.5530 -1.0557 -0.6646
  465MOL0     H62753   1.132   0.457   7.836  0.2767 -0.0740  0.2452
  465MOL0     H62754   1.012   0.345   7.892  0.1213 -1.0206 -1.4128
  465MOL0     H62755   1.159   0.213   8.023  0.7653  0.1728  0.4110
  465MOL0     H62756   1.296   0.319   7.982 -0.0690 -0.5159 -0.9279
  465MOL0     H62757   0.523   0.837   7.706 -0.3468 -0.6433  1.0772
  465MOL0     H62758   0.314   0.927   7.561  1.6540  0.1316  0.2984
  465MOL0     H62759  -0.079   1.125   7.649 -0.1726  1.7654 -1.9551
  465MOL0     H62760  -0.278   1.251   7.596  0.4478 -0.7741  0.9532
  465MOL0     H62761   0.559   1.814   7.628  0.8731  0.4068  3.4650
  465MOL0     H62762   0.737   1.929   7.747 -2.5723 -1.5289  3.7756
  465MOL0     H62763   0.949   2.490   7.601 -0.6005 -0.7984  0.8248
  465MOL0     H62764   1.124   2.627   7.702  4.4133 -3.1480 -0.7885
  465MOL0     H62765   1.326   2.623   8.091  0.5766  0.6725 -1.1371
  465MOL0     H62766   1.304   2.455   8.038  0.2305 -0.4288  0.8963
  465MOL0     H62767   1.466   2.659   7.899 -3.0699 -0.0343 -0.0777
  465MOL0     H62768   1.468   2.483   7.877  0.2353 -1.3606  1.5753
  465MOL0     H62769   1.573   2.455   8.107 -0.4393  0.8676  2.3795
  465MOL0     H62770   1.558   2.624   8.133  2.0535  1.0744 -0.8371
  465MOL0     H62771   1.752   2.673   8.027  1.4909 -0.6796  1.8725
  465MOL0     H62772   1.704   2.560   7.880  0.6214 -1.8768  0.7501
  465MOL0     H62773   1.955   2.359   8.168 -0.6811  1.3366  1.9903
  465MOL0     H62774   1.089   2.441   8.076  0.2368  0.8969 -0.0772
  465MOL0     H62775   0.920   2.263   7.974 -0.4777  0.1212 -0.6395
  466MOL0     O62776   3.377   3.761   6.731 -0.7356 -0.2943  0.3621
  466MOL0     C62777   3.407   3.837   6.640  0.8943 -0.5014 -0.1861
  466MOL0     O62778   3.323   3.879   6.541 -0.0695  0.4612  0.0408
  466MOL0     C62779   3.210   3.813   6.516  0.9780  0.5304  0.3038
  466MOL0     C62780   3.091   3.852   6.581  0.1983 -0.7102  0.5743
  466MOL0     C62781   2.969   3.782   6.564 -0.7536 -0.6699 -0.1519
  466MOL0     C62782   2.979   3.672   6.477 -0.0909 -0.1017 -0.7368
  466MOL0     O62783   2.867   3.601   6.433  0.0665  0.4009 -0.2700
  466MOL0     C62784   2.737   3.652   6.448 -0.7112 -0.2103  0.1546
  466MOL0     C62785   2.622   3.556   6.386 -0.2509 -0.2688 -0.0936
  466MOL0     C62786   2.576   3.442   6.474  0.7012 -0.5800  0.5383
  466MOL0     C62787   2.469   3.363   6.393 -0.3959 -0.7204  0.8244
  466MOL0     C62788   2.387   3.259   6.471 -0.2598 -0.7999 -0.1378
  466MOL0     C62789   2.477   3.132   6.502 -0.0444  0.2259 -0.5381
  466MOL0     C62790   2.547   3.136   6.638  0.1449  0.5340 -0.1305
  466MOL0     C62791   2.638   3.020   6.660  1.1840  0.3530 -0.1912
  466MOL0     N62792   2.561   2.906   6.714  0.0346  0.1884  0.5028
  466MOL0     C62793   2.549   2.866   6.843 -0.2387 -0.7059 -0.2559
  466MOL0     C62794   2.481   2.747   6.838  0.3147 -0.0516 -0.3380
  466MOL0     C62795   2.446   2.660   6.957  0.3599  0.3588 -0.0057
  466MOL0     C62796   2.315   2.708   7.023 -0.5040  0.3382  0.2800
  466MOL0     C62797   2.185   2.681   6.943  0.6170 -0.2217  0.3827
  466MOL0     C62798   2.159   2.528   6.937  0.3632  0.2397  0.0096
  466MOL0     O62799   2.071   2.477   7.050  0.1132  0.0062  0.7939
  466MOL0     C62800   1.946   2.527   7.063  0.1719 -0.8053 -1.4302
  466MOL0     C62801   1.884   2.479   7.179 -0.6923  0.2360 -0.3380
  466MOL0     C62802   1.751   2.500   7.218 -0.5167 -0.3346  0.5866
  466MOL0     C62803   1.697   2.414   7.328 -0.1557 -0.5387  1.0961
  466MOL0     C62804   1.679   2.579   7.127  0.3225 -0.9588 -0.8639
  466MOL0     C62805   1.534   2.603   7.141  0.4340 -0.3288 -0.3411
  466MOL0     O62806   1.482   2.587   7.261 -0.5387 -0.1298  0.1212
  466MOL0     C62807   1.350   2.571   7.264  0.5031  0.7714  0.2273
  466MOL0     C62808   1.300   2.440   7.292  0.0220 -0.7460  0.0191
  466MOL0     C62809   1.156   2.424   7.293  0.1275 -0.4025  0.1008
  466MOL0     C62810   1.060   2.526   7.280 -0.4393 -0.9882 -0.4285
  466MOL0     O62811   0.931   2.492   7.311 -0.6743 -0.4393  0.1406
  466MOL0     C62812   0.831   2.591   7.271 -0.3626  0.2644 -0.0577
  466MOL0     C62813   0.695   2.568   7.344 -0.9774  0.0502  0.1487
  466MOL0     C62814   0.589   2.681   7.327 -0.5015  0.4930 -0.1747
  466MOL0     C62815   0.504   2.678   7.456 -0.2610 -0.2822  0.1729
  466MOL0     C62816   0.381   2.773   7.446  1.2767  0.5345  0.1915
  466MOL0     C62817   0.251   2.701   7.405  0.8175  0.5677 -0.2436
  466MOL0     C62818   0.138   2.800   7.364 -0.9886 -0.4598  0.4064
  466MOL0     C62819  -0.009   2.749   7.378  0.0632 -0.3371  0.4370
  466MOL0    Cl62820  -0.037   2.616   7.258 -0.3813 -0.0808  0.0139
  466MOL0     C62821   1.115   2.650   7.253  0.3462 -0.0596 -0.4820
  466MOL0     C62822   1.251   2.675   7.238 -0.2231 -0.6389 -0.0428
  466MOL0     O62823   1.475   2.647   7.047  0.0169 -0.4252  0.0382
  466MOL0     C62824   1.743   2.635   7.011  0.1818 -0.1060 -0.4493
  466MOL0     C62825   1.873   2.603   6.974 -0.0803 -0.4103 -0.0102
  466MOL0     N62826   2.463   2.705   6.708  0.2478  0.2121 -0.4633
  466MOL0     N62827   2.529   2.799   6.636 -0.2556  0.4644 -0.5342
  466MOL0     C62828   3.098   3.627   6.417 -0.9564  0.1677  0.0191
  466MOL0     C62829   3.209   3.700   6.439 -0.1265  0.8627 -0.5450
  466MOL0     C62830   3.539   3.916   6.647 -0.2687  0.2961  0.1695
  466MOL0     C62831   3.584   3.994   6.544 -0.0430 -0.3018  0.6979
  466MOL0     C62832   3.703   4.064   6.543  0.4220 -0.6715 -0.3998
  466MOL0     C62833   3.781   4.062   6.663 -0.6321 -0.4426  0.0538
  466MOL0     O62834   3.896   4.137   6.679  0.1477  0.1633 -0.2577
  466MOL0     C62835   3.895   4.257   6.594  0.0105  0.8612 -0.1904
  466MOL0     C62836   4.017   4.339   6.637 -0.4125  1.5050  1.0570
  466MOL0     C62837   4.160   4.278   6.617  1.8028  0.1987 -0.1457
  466MOL0     C62838   4.271   4.383   6.626 -0.3024 -0.2485 -0.3749
  466MOL0     C62839   4.283   4.462   6.749  0.0701 -0.8546 -0.6542
  466MOL0     C62840   4.292   4.526   6.852 -0.1500  0.2440  0.0587
  466MOL0     C62841   3.736   3.984   6.770 -0.3656 -0.2334  0.0547
  466MOL0     C62842   3.621   3.911   6.761  0.0529  0.2658 -0.6003
  466MOL0     H62843   3.102   3.938   6.647 -1.9649  0.8957 -1.0292
  466MOL0     H62844   2.882   3.796   6.627 -0.2246  1.7354  0.1140
  466MOL0     H62845   2.721   3.658   6.556  1.8779  3.0710  0.4976
  466MOL0     H62846   2.721   3.749   6.400 -0.5456 -1.4078 -2.5299
  466MOL0     H62847   2.540   3.625   6.364  0.2469  0.5946  0.6418
  466MOL0     H62848   2.657   3.531   6.286  2.5606  1.3848  0.3836
  466MOL0     H62849   2.650   3.372   6.515  1.5364  0.5690  1.0237
  466MOL0     H62850   2.515   3.480   6.556 -2.9983 -3.1093 -0.7564
  466MOL0     H62851   2.401   3.432   6.343  2.7769  2.7876  0.8499
  466MOL0     H62852   2.527   3.312   6.315 -0.3834  0.1418  0.2616
  466MOL0     H62853   2.355   3.296   6.570  2.3143 -0.6949  0.7245
  466MOL0     H62854   2.296   3.232   6.418 -0.2589 -2.0019  0.4486
  466MOL0     H62855   2.409   3.046   6.494 -1.0970  0.9220  0.5126
  466MOL0     H62856   2.559   3.120   6.430  1.7580  0.7898  1.3244
  466MOL0     H62857   2.594   3.231   6.667  1.9551 -1.5772  5.0887
  466MOL0     H62858   2.469   3.130   6.715 -0.0240  2.1565 -0.1370
  466MOL0     H62859   2.717   3.048   6.729  0.9908 -1.3735  0.7921
  466MOL0     H62860   2.678   2.994   6.562  1.0143 -0.9726  0.0697
  466MOL0     H62861   2.567   2.926   6.932 -0.5315  2.1621 -1.9929
  466MOL0     H62862   2.444   2.554   6.930  0.2335 -0.0194  1.3977
  466MOL0     H62863   2.522   2.664   7.035  0.0621  1.9802  0.2455
  466MOL0     H62864   2.328   2.817   7.031  1.4849  0.2106 -0.5334
  466MOL0     H62865   2.316   2.671   7.125  0.4231 -0.0498  0.1392
  466MOL0     H62866   2.179   2.722   6.842  0.6285 -0.3185  0.3435
  466MOL0     H62867   2.102   2.736   6.989  0.0715 -2.3495  2.1106
  466MOL0     H62868   2.253   2.472   6.938 -0.5224 -1.4155 -1.7114
  466MOL0     H62869   2.117   2.499   6.840  1.1292 -0.0279 -0.2501
  466MOL0     H62870   1.945   2.416   7.241 -0.8483 -0.9812 -1.3815
  466MOL0     H62871   1.611   2.353   7.299 -0.3105 -1.3245  3.0067
  466MOL0     H62872   1.776   2.346   7.361  0.8008 -0.2140 -0.4595
  466MOL0     H62873   1.664   2.485   7.405 -0.7333  2.8568 -2.0139
  466MOL0     H62874   1.365   2.361   7.331 -1.3253  0.4098  5.5059
  466MOL0     H62875   1.121   2.325   7.318  2.1760 -0.8847  1.3392
  466MOL0     H62876   0.868   2.693   7.283  1.4547 -0.4743  1.1318
  466MOL0     H62877   0.817   2.571   7.165  0.6655  0.2110 -0.1954
  466MOL0     H62878   0.650   2.472   7.318 -1.1937 -0.8458  3.3449
  466MOL0     H62879   0.719   2.566   7.451 -0.9163 -0.2673  0.1304
  466MOL0     H62880   0.529   2.658   7.239 -0.0339  0.0350 -0.3753
  466MOL0     H62881   0.632   2.781   7.313  3.7158 -1.1364 -0.2157
  466MOL0     H62882   0.470   2.575   7.470  0.0172 -0.4816 -0.5916
  466MOL0     H62883   0.575   2.700   7.536  0.9599  1.7525 -1.3777
  466MOL0     H62884   0.398   2.855   7.375  0.6256  2.0552  1.6980
  466MOL0     H62885   0.370   2.815   7.546 -1.6825 -0.9623  0.5943
  466MOL0     H62886   0.283   2.643   7.318  0.8882  1.0990 -0.5714
  466MOL0     H62887   0.225   2.632   7.486  0.7472  1.8771  0.8892
  466MOL0     H62888   0.154   2.824   7.258  0.3175 -0.1633  0.6587
  466MOL0     H62889   0.146   2.890   7.425  0.6104  0.0722 -0.5210
  466MOL0     H62890  -0.077   2.832   7.357  1.0717 -0.2640 -3.1644
  466MOL0     H62891  -0.023   2.720   7.483 -2.0941  2.2175  0.9575
  466MOL0     H62892   1.050   2.736   7.246  0.1581 -0.2601 -1.3629
  466MOL0     H62893   1.287   2.778   7.234 -0.4273 -0.3286  3.1903
  466MOL0     H62894   1.695   2.695   6.935 -0.2665  2.0070  1.3844
  466MOL0     H62895   1.920   2.627   6.879 -0.3655 -2.3491 -0.6973
  466MOL0     H62896   3.112   3.544   6.348  0.4465  1.8612 -1.8585
  466MOL0     H62897   3.305   3.656   6.414 -1.6272 -2.6999 -0.6147
  466MOL0     H62898   3.531   3.995   6.449  0.4815 -1.3861  0.3698
  466MOL0     H62899   3.745   4.104   6.452 -0.2028  0.2056 -0.3160
  466MOL0     H62900   3.899   4.250   6.485  3.7511 -2.7780 -0.0936
  466MOL0     H62901   3.807   4.315   6.625 -0.8267 -1.0416  1.1978
  466MOL0     H62902   4.009   4.368   6.742  1.3981  1.8477  1.1213
  466MOL0     H62903   4.022   4.438   6.590 -0.6676  0.9395 -0.1983
  466MOL0     H62904   4.163   4.237   6.515 -2.3417  0.4492 -0.5548
  466MOL0     H62905   4.176   4.197   6.688  1.4241 -0.1287 -0.4245
  466MOL0     H62906   4.236   4.452   6.548 -2.7158 -1.0824 -0.1151
  466MOL0     H62907   4.371   4.344   6.608 -0.0798 -0.4674  1.1918
  466MOL0     H62908   4.293   4.571   6.949 -0.1005 -0.0690  0.2048
  466MOL0     H62909   3.788   3.996   6.865 -0.6988  1.0098  0.0997
  466MOL0     H62910   3.573   3.857   6.842 -1.7237  2.2610 -0.2388
  467MOL0     O62911   1.324   7.451   5.960  0.0573 -1.4200  0.5154
  467MOL0     C62912   1.343   7.429   6.081  0.2509  0.1106  0.1123
  467MOL0     O62913   1.259   7.463   6.185  0.1284  0.7039 -0.1649
  467MOL0     C62914   1.134   7.522   6.176  0.3009  0.9528 -0.6326
  467MOL0     C62915   1.104   7.620   6.083 -0.2259  0.1714  0.4312
  467MOL0     C62916   0.974   7.663   6.072  0.0073 -0.0683 -0.7316
  467MOL0     C62917   0.877   7.623   6.165  0.2529  0.5566  0.1655
  467MOL0     O62918   0.746   7.664   6.166 -0.1260 -0.4771  0.1029
  467MOL0     C62919   0.692   7.759   6.068 -0.1178 -0.4751 -0.3242
  467MOL0     C62920   0.699   7.900   6.129  0.8577 -0.8323  0.0653
  467MOL0     C62921   0.632   7.998   6.027 -0.8325 -0.3348  0.7292
  467MOL0     C62922   0.610   8.135   6.072  0.6478 -0.6806  0.0389
  467MOL0     C62923   0.738   8.224   6.095 -0.8170  0.2250  0.1292
  467MOL0     C62924   0.697   8.364   6.137  0.1060  0.5923  0.2733
  467MOL0     C62925   0.819   8.460   6.129 -0.3526  0.4888  0.1562
  467MOL0     C62926   0.775   8.604   6.157  0.0289  0.6599  1.9116
  467MOL0     N62927   0.686   8.638   6.268  0.1252  0.6619 -0.3910
  467MOL0     C62928   0.581   8.724   6.258  0.1433  0.3292  0.0561
  467MOL0     C62929   0.549   8.743   6.390 -0.2625 -0.7166 -0.2673
  467MOL0     C62930   0.434   8.832   6.439  0.2108 -0.3684  0.5168
  467MOL0     C62931   0.310   8.757   6.489 -0.3457  0.7361 -0.1177
  467MOL0     C62932   0.337   8.669   6.627  0.0549  0.2390 -0.3849
  467MOL0     C62933   0.204   8.640   6.693  0.7829 -0.3614  0.0257
  467MOL0     O62934   0.115   8.577   6.607 -0.1442 -0.4865  0.5895
  467MOL0     C62935  -0.005   8.532   6.650  0.0599 -0.1090  0.9074
  467MOL0     C62936  -0.048   8.412   6.604  0.2167 -0.2180 -0.4923
  467MOL0     C62937  -0.174   8.357   6.650 -0.1067 -0.2905 -0.9126
  467MOL0     C62938  -0.214   8.225   6.600 -0.1635 -0.5738 -1.2097
  467MOL0     C62939  -0.261   8.435   6.741 -1.1598 -0.0323  0.0277
  467MOL0     C62940  -0.394   8.389   6.799  0.2259  0.2800  0.4757
  467MOL0     O62941  -0.439   8.451   6.912  0.1497 -0.5771  0.0867
  467MOL0     C62942  -0.572   8.454   6.943  0.4421 -0.3057 -0.8824
  467MOL0     C62943  -0.689   8.461   6.858 -0.2394  0.9152  0.5289
  467MOL0     C62944  -0.820   8.481   6.903 -0.3542  0.4158 -1.0023
  467MOL0     C62945  -0.844   8.503   7.039  0.7485 -0.0001 -0.0917
  467MOL0     O62946  -0.973   8.544   7.087  0.7552  0.1947 -0.4729
  467MOL0     C62947  -1.087   8.559   7.003 -1.2002 -0.4357 -0.1398
  467MOL0     C62948  -1.220   8.584   7.074  0.0311 -0.4748 -0.1147
  467MOL0     C62949  -1.207   8.719   7.142 -0.1696 -0.6489 -0.4609
  467MOL0     C62950  -1.282   8.829   7.061 -0.6360 -0.0079 -0.1153
  467MOL0     C62951  -1.299   8.956   7.135  0.2804  0.2970 -0.5256
  467MOL0     C62952  -1.386   8.941   7.260 -0.0078  0.3272 -0.8148
  467MOL0     C62953  -1.411   9.069   7.345 -0.4567 -0.0297  0.4561
  467MOL0     C62954  -1.558   9.106   7.337  0.9874 -0.3360  0.0824
  467MOL0    Cl62955  -1.660   8.987   7.420  0.3118  0.1465  0.0521
  467MOL0     C62956  -0.734   8.500   7.124 -0.3590  0.6282  0.7268
  467MOL0     C62957  -0.602   8.481   7.082  0.6041 -0.4529  0.0425
  467MOL0     O62958  -0.456   8.299   6.737  0.1203 -0.3112 -0.1609
  467MOL0     C62959  -0.210   8.557   6.780  0.1744 -0.9235  0.0588
  467MOL0     C62960  -0.085   8.611   6.739 -0.5151  0.1266  0.2677
  467MOL0     N62961   0.649   8.692   6.476 -0.0462  0.6171 -0.5476
  467MOL0     N62962   0.710   8.613   6.405  0.5953 -0.1639 -0.0985
  467MOL0     C62963   0.914   7.524   6.263  0.4725 -0.4924 -0.5384
  467MOL0     C62964   1.042   7.479   6.269 -0.3800  0.5061 -0.4308
  467MOL0     C62965   1.468   7.365   6.122  0.1530  0.2648 -1.2255
  467MOL0     C62966   1.516   7.369   6.260  0.1812 -0.4752 -0.3148
  467MOL0     C62967   1.639   7.322   6.294 -0.5865  0.1182  0.6205
  467MOL0     C62968   1.731   7.264   6.199  0.1411 -0.1765 -0.1377
  467MOL0     O62969   1.849   7.197   6.229  0.3727  0.1128 -0.3211
  467MOL0     C62970   1.904   7.202   6.364  0.5805  0.3031  0.6758
  467MOL0     C62971   1.857   7.084   6.458  0.2217 -1.5747  0.1845
  467MOL0     C62972   1.824   6.952   6.385  0.4380  0.3506 -0.3570
  467MOL0     C62973   1.731   6.857   6.458  0.0343  0.5162  0.3255
  467MOL0     C62974   1.803   6.806   6.577 -0.3709 -0.0872 -0.3150
  467MOL0     C62975   1.847   6.766   6.684  0.5656 -0.4677  0.2403
  467MOL0     C62976   1.681   7.249   6.069  0.6627 -0.4372  0.5426
  467MOL0     C62977   1.548   7.292   6.025 -0.1372  0.3753 -0.1293
  467MOL0     H62978   1.181   7.652   6.014  0.7996 -1.3964  0.8118
  467MOL0     H62979   0.947   7.719   5.983 -0.7437 -0.4396 -0.7526
  467MOL0     H62980   0.755   7.772   5.979  1.2734  0.7389  0.7755
  467MOL0     H62981   0.590   7.732   6.040 -1.4449  2.3594  1.3290
  467MOL0     H62982   0.652   7.903   6.227  2.2230  2.3440  0.7589
  467MOL0     H62983   0.801   7.941   6.128 -0.4897  3.0407  2.3875
  467MOL0     H62984   0.693   7.996   5.936 -0.0154 -0.7867  1.2718
  467MOL0     H62985   0.538   7.944   6.011  0.9551 -3.6853  0.4603
  467MOL0     H62986   0.545   8.182   5.999  1.5887 -0.0137 -0.3928
  467MOL0     H62987   0.563   8.130   6.170  1.2120  0.1879  0.3605
  467MOL0     H62988   0.790   8.187   6.184 -2.2560 -0.6839  0.6276
  467MOL0     H62989   0.809   8.221   6.012  0.0627  3.4635  0.6418
  467MOL0     H62990   0.613   8.398   6.076  0.7249 -1.0000 -1.5663
  467MOL0     H62991   0.661   8.365   6.241 -1.8074 -0.1209 -0.3375
  467MOL0     H62992   0.896   8.441   6.204 -1.2742  0.3791  1.0997
  467MOL0     H62993   0.867   8.449   6.031  0.1953 -2.6388  0.6755
  467MOL0     H62994   0.716   8.620   6.067 -0.0921 -1.0300  1.6615
  467MOL0     H62995   0.853   8.679   6.141 -0.0851  0.5041  0.5600
  467MOL0     H62996   0.529   8.755   6.168 -0.2192 -0.7468 -0.1168
  467MOL0     H62997   0.471   8.904   6.512  0.7921  0.8851 -0.9746
  467MOL0     H62998   0.398   8.888   6.353  0.5743  0.3112  0.8041
  467MOL0     H62999   0.289   8.684   6.409  0.2286  0.9628 -0.4809
  467MOL0     H63000   0.229   8.827   6.509 -2.2606 -1.5824  0.8280
  467MOL0     H63001   0.386   8.734   6.700 -1.0431  2.6207 -1.6339
  467MOL0     H63002   0.393   8.580   6.597  0.1004  0.0282  0.3252
  467MOL0     H63003   0.158   8.733   6.728  0.2085 -0.5302 -0.2698
  467MOL0     H63004   0.226   8.579   6.781  0.1277 -0.6023  0.0302
  467MOL0     H63005   0.024   8.353   6.547  1.2068 -0.6879  1.1543
  467MOL0     H63006  -0.314   8.230   6.557 -0.7200  1.1967  0.1553
  467MOL0     H63007  -0.139   8.186   6.530  2.1890  0.7787  0.4123
  467MOL0     H63008  -0.225   8.153   6.682  0.6509  2.1821  1.5296
  467MOL0     H63009  -0.668   8.453   6.752 -0.0215 -1.2936  0.6928
  467MOL0     H63010  -0.908   8.480   6.840 -2.7021 -1.4212  1.9797
  467MOL0     H63011  -1.061   8.644   6.939 -0.1200  1.0226  2.0919
  467MOL0     H63012  -1.099   8.473   6.936 -0.0369 -0.5751 -0.1900
  467MOL0     H63013  -1.305   8.574   7.005  1.5335 -2.3517 -1.8405
  467MOL0     H63014  -1.240   8.501   7.142 -0.6308 -1.3698 -1.3546
  467MOL0     H63015  -1.105   8.758   7.151 -0.5785  0.0986  1.5688
  467MOL0     H63016  -1.254   8.710   7.240 -0.5024  1.3836 -0.3782
  467MOL0     H63017  -1.223   8.850   6.971 -0.2848  6.6517  1.1634
  467MOL0     H63018  -1.378   8.789   7.027 -0.9896  0.9287 -0.2278
  467MOL0     H63019  -1.346   9.032   7.072 -0.2575 -0.3439 -0.9101
  467MOL0     H63020  -1.199   8.996   7.157  0.5445 -0.5850 -0.0400
  467MOL0     H63021  -1.481   8.905   7.219 -0.0039 -0.8609  0.1430
  467MOL0     H63022  -1.341   8.860   7.318  1.7569 -0.2386 -2.8308
  467MOL0     H63023  -1.346   9.152   7.313  0.3319 -0.4703  0.9087
  467MOL0     H63024  -1.390   9.057   7.451 -1.4324  0.3552  0.7031
  467MOL0     H63025  -1.578   9.099   7.230  1.6228 -3.2560  0.0509
  467MOL0     H63026  -1.589   9.201   7.381 -1.7414 -1.6846  1.2986
  467MOL0     H63027  -0.749   8.518   7.230  2.1601  1.3346  1.0177
  467MOL0     H63028  -0.519   8.495   7.150  2.4181  1.9444 -2.4840
  467MOL0     H63029  -0.271   8.615   6.848  1.2314 -1.4936  1.5336
  467MOL0     H63030  -0.040   8.702   6.776 -2.1778  1.2010 -0.2119
  467MOL0     H63031   0.842   7.486   6.335  1.3632  0.4433  0.9087
  467MOL0     H63032   1.068   7.398   6.337 -2.6812  1.2634  1.4734
  467MOL0     H63033   1.446   7.418   6.326 -0.8722 -1.7016 -0.4710
  467MOL0     H63034   1.650   7.317   6.402  2.4228  0.1809  0.3994
  467MOL0     H63035   2.012   7.210   6.350  0.3570  0.1778 -1.5777
  467MOL0     H63036   1.870   7.296   6.408  0.5106  0.3334  0.5567
  467MOL0     H63037   1.769   7.123   6.509  0.7378 -0.3729  0.1778
  467MOL0     H63038   1.944   7.067   6.522  2.3615  1.7150 -1.5659
  467MOL0     H63039   1.913   6.895   6.356 -1.2161 -1.5289 -2.0662
  467MOL0     H63040   1.770   6.960   6.290 -0.5936 -3.1018 -0.1994
  467MOL0     H63041   1.698   6.772   6.398  1.1588 -1.0077  1.7985
  467MOL0     H63042   1.651   6.919   6.501  0.9361  2.0735 -0.1510
  467MOL0     H63043   1.906   6.739   6.769 -0.3136  2.1335  1.7663
  467MOL0     H63044   1.740   7.193   5.997 -0.1484  1.7486 -2.0488
  467MOL0     H63045   1.525   7.264   5.923 -0.0549 -3.9836  0.8437
  468MOL0     O63046   7.630   2.893  10.275 -0.6912  0.2208  0.2005
  468MOL0     C63047   7.661   2.992  10.345 -0.6451 -0.4305 -0.2868
  468MOL0     O63048   7.607   3.121  10.325 -0.0595 -0.1978 -0.1761
  468MOL0     C63049   7.498   3.129  10.243 -0.0367 -0.3844 -0.4229
  468MOL0     C63050   7.391   3.034  10.252 -0.5172  0.2221 -0.6213
  468MOL0     C63051   7.278   3.049  10.163 -0.6424  0.4997  1.0077
  468MOL0     C63052   7.280   3.156  10.063 -0.1283 -0.3654 -0.3199
  468MOL0     O63053   7.178   3.177   9.971  0.2727 -0.1255  0.6023
  468MOL0     C63054   7.051   3.109   9.982  0.2478 -0.2959 -0.5740
  468MOL0     C63055   6.944   3.209  10.027  0.1844 -0.1806  0.0343
  468MOL0     C63056   6.808   3.150   9.986  0.1396 -0.5195  0.6624
  468MOL0     C63057   6.707   3.267   9.981 -0.0919 -0.0131  0.0866
  468MOL0     C63058   6.560   3.213   9.986 -0.9576 -0.1071 -0.7165
  468MOL0     C63059   6.486   3.194   9.855 -0.1359  0.1603 -0.0068
  468MOL0     C63060   6.336   3.191   9.890  0.3940  0.7119 -0.2253
  468MOL0     C63061   6.299   3.071   9.975 -0.0948  0.0485  0.2130
  468MOL0     N63062   6.158   3.022   9.968 -0.0432  0.4463  0.3056
  468MOL0     C63063   6.048   3.088   9.924 -0.0065  0.6024  0.7444
  468MOL0     C63064   5.939   3.013   9.958  0.2342  0.1959  0.4363
  468MOL0     C63065   5.803   3.042   9.918  0.7007 -0.3101 -0.7481
  468MOL0     C63066   5.703   3.089  10.029 -0.9279  1.1471 -0.1439
  468MOL0     C63067   5.695   2.981  10.134  0.4035  0.2916  0.0333
  468MOL0     C63068   5.605   3.020  10.246 -0.2771 -0.3218 -0.6172
  468MOL0     O63069   5.481   2.996  10.181  0.3640 -0.0820 -0.2075
  468MOL0     C63070   5.371   3.054  10.231  0.4643 -0.0081 -0.7662
  468MOL0     C63071   5.278   3.094  10.141  0.6872  0.7238  0.6983
  468MOL0     C63072   5.157   3.160  10.180 -0.1530 -0.2939 -1.2130
  468MOL0     C63073   5.067   3.208  10.075  0.5422  0.5186 -0.1766
  468MOL0     C63074   5.134   3.188  10.317 -0.6199  0.8237  0.2712
  468MOL0     C63075   5.001   3.230  10.371 -0.5408  0.4045 -0.0460
  468MOL0     O63076   5.001   3.288  10.494 -0.2653 -0.0001 -0.2475
  468MOL0     C63077   4.883   3.335  10.540  0.7694  0.0135 -0.3591
  468MOL0     C63078   4.808   3.259  10.631  0.5227 -0.1349 -0.0497
  468MOL0     C63079   4.688   3.311  10.695 -0.9500 -0.1090 -0.6746
  468MOL0     C63080   4.634   3.430  10.647  0.0088 -0.3598 -0.5079
  468MOL0     O63081   4.515   3.486  10.710  0.3920 -0.1008 -0.0635
  468MOL0     C63082   4.399   3.399  10.737 -0.2504 -0.0741 -0.2855
  468MOL0     C63083   4.308   3.478  10.833 -0.0051 -0.5066  0.9845
  468MOL0     C63084   4.185   3.412  10.892 -0.3093 -0.0364 -0.3302
  468MOL0     C63085   4.215   3.315  11.009  0.8043  0.0247  0.5454
  468MOL0     C63086   4.091   3.230  11.046 -0.1963  0.4834  0.0886
  468MOL0     C63087   3.980   3.317  11.102  0.0600  0.3043  0.6488
  468MOL0     C63088   3.878   3.224  11.163 -0.2191 -0.0756 -0.1137
  468MOL0     C63089   3.755   3.289  11.228  0.2101 -0.6780  0.3608
  468MOL0    Cl63090   3.656   3.351  11.100 -0.4753  0.2709 -0.2343
  468MOL0     C63091   4.697   3.492  10.544  0.2787  0.4393  0.5867
  468MOL0     C63092   4.829   3.457  10.500 -0.5114 -0.1769 -0.7466
  468MOL0     O63093   4.899   3.210  10.311 -0.0893 -0.2940  0.7241
  468MOL0     C63094   5.231   3.144  10.410  0.4399 -0.1689  0.3191
  468MOL0     C63095   5.351   3.081  10.368 -0.1323 -0.6022 -0.4324
  468MOL0     N63096   5.988   2.901  10.024  0.0070 -0.2409  0.1243
  468MOL0     N63097   6.121   2.906  10.033 -0.0959  0.2019  0.0402
  468MOL0     C63098   7.394   3.236  10.051  0.9253  0.3241  0.4186
  468MOL0     C63099   7.503   3.215  10.137  0.4796 -0.1352 -0.2740
  468MOL0     C63100   7.762   2.974  10.448  0.0540  0.0798 -0.4241
  468MOL0     C63101   7.859   2.874  10.450 -0.0600  0.6838  0.2056
  468MOL0     C63102   7.952   2.881  10.555  0.3147  0.3023 -0.5004
  468MOL0     C63103   7.954   2.974  10.660 -0.5109  0.1937 -0.6950
  468MOL0     O63104   8.063   2.982  10.733 -0.3023 -0.4322  0.6494
  468MOL0     C63105   8.079   3.090  10.829  0.4855 -0.1980  0.4312
  468MOL0     C63106   8.197   3.050  10.925  0.3560 -0.5015 -0.2970
  468MOL0     C63107   8.163   2.926  11.007 -0.5671 -0.3390 -0.2573
  468MOL0     C63108   8.059   2.959  11.121  0.0656 -0.1036  0.0899
  468MOL0     C63109   8.012   2.838  11.193 -0.7519 -0.5387  0.2463
  468MOL0     C63110   7.974   2.746  11.262  0.1756 -0.7348 -0.4098
  468MOL0     C63111   7.853   3.074  10.658 -0.0438 -0.0066 -0.2831
  468MOL0     C63112   7.763   3.073  10.555 -0.5688  0.2827 -0.1239
  468MOL0     H63113   7.389   2.955  10.326  0.4569  1.0542  0.3306
  468MOL0     H63114   7.204   2.970  10.168  0.9361 -1.2562 -1.1409
  468MOL0     H63115   7.037   3.083   9.877  2.8720 -0.8554 -0.8471
  468MOL0     H63116   7.052   3.015  10.038  1.0326 -0.6274 -1.1308
  468MOL0     H63117   6.952   3.227  10.135  1.7626 -3.8108  0.6698
  468MOL0     H63118   6.951   3.302   9.969 -0.5380  0.2912  0.6826
  468MOL0     H63119   6.814   3.099   9.889  1.9011  0.2252  0.3515
  468MOL0     H63120   6.782   3.070  10.056 -1.3070 -1.0358 -0.3998
  468MOL0     H63121   6.728   3.330  10.067 -0.7039  0.3072  0.0077
  468MOL0     H63122   6.719   3.322   9.888 -1.9833  4.4910  2.2150
  468MOL0     H63123   6.565   3.113  10.029 -0.4416  0.1359 -0.1953
  468MOL0     H63124   6.508   3.283  10.052 -1.3160 -0.2371 -0.8607
  468MOL0     H63125   6.517   3.279   9.793  1.3230  0.1392  0.6485
  468MOL0     H63126   6.519   3.106   9.800  0.5149  2.2386 -3.1930
  468MOL0     H63127   6.304   3.276   9.951  0.3572  0.8093 -0.3805
  468MOL0     H63128   6.278   3.188   9.798 -1.8944  0.3574  1.1481
  468MOL0     H63129   6.339   3.090  10.075  1.4180  0.3541 -0.4261
  468MOL0     H63130   6.358   2.988   9.935  0.6305  0.6266  0.0623
  468MOL0     H63131   6.043   3.185   9.876 -1.3580  1.8100  3.1083
  468MOL0     H63132   5.809   3.124   9.846 -0.4521  1.3322  0.9154
  468MOL0     H63133   5.756   2.956   9.870  1.0508 -0.9522  0.0260
  468MOL0     H63134   5.600   3.103   9.996 -1.3269  1.6621  1.2458
  468MOL0     H63135   5.738   3.181  10.077 -2.1962  1.8023 -0.4191
  468MOL0     H63136   5.790   2.975  10.189  0.1457  0.5921  0.5166
  468MOL0     H63137   5.679   2.881  10.093  0.4360 -0.3046  1.4224
  468MOL0     H63138   5.606   3.126  10.273  0.2790 -1.0416  2.5634
  468MOL0     H63139   5.633   2.971  10.339 -0.2707 -2.7443 -1.8384
  468MOL0     H63140   5.299   3.086  10.034 -0.6441 -1.0403  0.5146
  468MOL0     H63141   5.121   3.213   9.980  0.8540 -0.6973 -0.0792
  468MOL0     H63142   4.990   3.130  10.081  1.2476 -0.1185  1.3924
  468MOL0     H63143   5.028   3.308  10.098  0.5802  0.6223 -0.5657
  468MOL0     H63144   4.839   3.165  10.677  0.0388  0.0095  0.5866
  468MOL0     H63145   4.643   3.243  10.767  0.9010 -1.3416 -0.6265
  468MOL0     H63146   4.362   3.370  10.638  0.2184 -2.0506  0.0865
  468MOL0     H63147   4.424   3.308  10.792 -1.9075 -1.4071 -1.6371
  468MOL0     H63148   4.370   3.521  10.913  0.1251  0.9811  0.1253
  468MOL0     H63149   4.278   3.561  10.768  0.4462 -0.9555  0.1971
  468MOL0     H63150   4.138   3.349  10.816  0.7714 -0.4555 -0.6768
  468MOL0     H63151   4.117   3.490  10.927 -1.1684 -0.6174 -0.6595
  468MOL0     H63152   4.295   3.243  10.988 -1.0937 -2.5989  1.8303
  468MOL0     H63153   4.231   3.389  11.089 -1.7717  2.7366 -1.2527
  468MOL0     H63154   4.131   3.166  11.124  0.4020  1.7553  0.8631
  468MOL0     H63155   4.052   3.163  10.969  0.2283 -1.6596  1.6466
  468MOL0     H63156   4.027   3.387  11.172  0.7498 -0.5936  1.1059
  468MOL0     H63157   3.929   3.376  11.026 -0.2685 -2.5629 -1.5338
  468MOL0     H63158   3.928   3.166  11.241  0.7492 -0.5139 -1.0294
  468MOL0     H63159   3.838   3.158  11.085 -0.5724  0.4173 -0.3604
  468MOL0     H63160   3.775   3.360  11.310  2.6451 -1.0048  0.1037
  468MOL0     H63161   3.687   3.214  11.270 -2.8522  1.9907  0.6498
  468MOL0     H63162   4.650   3.586  10.518  1.3766  0.9593  0.3880
  468MOL0     H63163   4.893   3.511  10.431  0.2211 -0.7920 -0.5548
  468MOL0     H63164   5.205   3.159  10.515 -0.3254  1.6512 -0.0914
  468MOL0     H63165   5.429   3.070  10.443 -0.8438  0.6770  0.5338
  468MOL0     H63166   7.391   3.301   9.964  0.5224  0.9093  0.8578
  468MOL0     H63167   7.608   3.243  10.139  1.3408 -2.6396 -2.9466
  468MOL0     H63168   7.864   2.802  10.369  1.0508  2.1435 -1.0732
  468MOL0     H63169   8.042   2.822  10.542  0.0008 -0.3414  0.1349
  468MOL0     H63170   8.096   3.182  10.773 -0.7186 -0.2655 -0.0846
  468MOL0     H63171   7.987   3.101  10.888 -1.6693 -2.9302 -2.1308
  468MOL0     H63172   8.222   3.136  10.988  2.1885 -1.6836  0.6924
  468MOL0     H63173   8.286   3.041  10.862  2.4754  0.5179  2.3540
  468MOL0     H63174   8.258   2.893  11.049 -0.4254 -0.1336 -0.4115
  468MOL0     H63175   8.126   2.847  10.941  0.0170  0.2598 -1.3294
  468MOL0     H63176   7.975   3.008  11.071 -0.1027 -0.8915 -0.4166
  468MOL0     H63177   8.105   3.033  11.187  0.7398  1.5977 -2.1563
  468MOL0     H63178   7.934   2.666  11.321  0.6228  0.3256  1.4204
  468MOL0     H63179   7.862   3.161  10.723 -1.7563 -0.1498  0.1754
  468MOL0     H63180   7.702   3.163  10.550  0.9638  1.3722 -0.1601
  469MOL0     O63181   6.647   3.026   5.210  0.9789 -1.4410  0.0059
  469MOL0     C63182   6.656   3.094   5.112  0.4288  0.9888 -0.1651
  469MOL0     O63183   6.551   3.146   5.038 -0.5394 -0.2277  0.0882
  469MOL0     C63184   6.421   3.133   5.066 -0.4330  0.4144 -0.8563
  469MOL0     C63185   6.323   3.199   4.980 -0.0277 -0.1707  0.3360
  469MOL0     C63186   6.183   3.186   4.987 -0.0940 -0.2771  0.5689
  469MOL0     C63187   6.124   3.106   5.086 -0.0386  0.6127  0.6183
  469MOL0     O63188   5.992   3.054   5.088 -0.0914  0.5237 -0.4142
  469MOL0     C63189   5.887   3.112   5.011  0.1079  0.8558 -0.1769
  469MOL0     C63190   5.758   3.029   5.011  0.2574 -1.0517 -0.7324
  469MOL0     C63191   5.664   3.077   4.901 -0.7790  0.2046  0.4374
  469MOL0     C63192   5.594   3.205   4.928  0.2242  0.2627  0.1876
  469MOL0     C63193   5.454   3.216   4.873 -0.3886 -0.2592 -0.6367
  469MOL0     C63194   5.353   3.116   4.933  0.0119 -0.5149 -0.6483
  469MOL0     C63195   5.316   3.143   5.076 -0.1237 -0.3954  0.6327
  469MOL0     C63196   5.162   3.110   5.081  0.2839 -0.0460  0.4020
  469MOL0     N63197   5.126   2.974   5.028  0.0918 -0.0376  0.0697
  469MOL0     C63198   5.177   2.845   5.060 -0.0406 -0.5345  0.2116
  469MOL0     C63199   5.091   2.755   4.991  0.1749 -0.1869  0.1445
  469MOL0     C63200   5.104   2.608   5.008  0.2016  0.3672 -0.0443
  469MOL0     C63201   5.002   2.552   5.103 -0.4951  0.5168  0.1933
  469MOL0     C63202   5.004   2.399   5.116 -0.2188 -0.3557  0.2108
  469MOL0     C63203   4.921   2.360   5.232  1.2208 -0.5518 -0.5090
  469MOL0     O63204   4.922   2.219   5.246 -0.1810 -0.1433  0.5927
  469MOL0     C63205   4.811   2.146   5.205 -0.1974 -0.0813  0.7918
  469MOL0     C63206   4.779   2.021   5.256 -0.6911  0.8843  1.7830
  469MOL0     C63207   4.663   1.952   5.227  0.2624 -0.1149  0.1156
  469MOL0     C63208   4.641   1.814   5.294 -0.3988 -0.1633  0.8513
  469MOL0     C63209   4.556   2.027   5.157 -0.7493 -0.1713  0.3016
  469MOL0     C63210   4.418   1.972   5.142  0.3613 -0.8767 -0.5673
  469MOL0     O63211   4.345   2.032   5.055  0.3095  0.3650  0.2506
  469MOL0     C63212   4.213   1.992   5.027  1.3108  0.1232  1.0461
  469MOL0     C63213   4.105   2.031   5.103 -0.3558 -0.3688 -0.1046
  469MOL0     C63214   3.967   1.997   5.071 -0.0316  0.3959 -0.1840
  469MOL0     C63215   3.946   1.900   4.964  0.4860  0.2455  0.4881
  469MOL0     O63216   3.825   1.858   4.920  0.4687 -0.0755 -0.4760
  469MOL0     C63217   3.711   1.948   4.926 -0.6858 -0.0580 -0.4462
  469MOL0     C63218   3.598   1.898   4.836  0.4103  0.1901 -0.3068
  469MOL0     C63219   3.469   1.921   4.910  0.3133 -0.0439  1.0828
  469MOL0     C63220   3.348   1.890   4.821 -0.2627 -0.0859  0.3417
  469MOL0     C63221   3.218   1.935   4.887 -0.8063 -0.0695  0.5678
  469MOL0     C63222   3.113   1.923   4.783 -0.4465  0.3394  0.3379
  469MOL0     C63223   2.983   1.950   4.856  0.4385  0.4401  0.4307
  469MOL0     C63224   2.866   1.992   4.766  0.3760 -0.2301 -0.2691
  469MOL0    Cl63225   2.912   2.144   4.693 -0.2469  0.2030 -0.3951
  469MOL0     C63226   4.060   1.854   4.898  0.6714  0.0270  0.5236
  469MOL0     C63227   4.190   1.897   4.924 -0.6029 -0.0174 -0.1729
  469MOL0     O63228   4.383   1.878   5.209 -0.3040 -0.2641  0.5128
  469MOL0     C63229   4.579   2.153   5.108 -0.1327  0.6850  0.5076
  469MOL0     C63230   4.707   2.207   5.123  0.4324  0.0250  0.4744
  469MOL0     N63231   5.003   2.834   4.923 -0.6315  1.0893  0.1112
  469MOL0     N63232   5.017   2.959   4.949  0.2486  0.3285  0.5786
  469MOL0     C63233   6.214   3.042   5.172 -0.0653  0.4808  0.8677
  469MOL0     C63234   6.355   3.055   5.161 -0.3565  0.3153  0.2816
  469MOL0     C63235   6.793   3.143   5.081 -0.9234 -0.0861  0.6611
  469MOL0     C63236   6.900   3.131   5.174  0.2357  0.5328  0.9849
  469MOL0     C63237   7.026   3.189   5.140  0.0959  0.9711 -0.5653
  469MOL0     C63238   7.055   3.251   5.017  0.3183 -0.5343  0.3190
  469MOL0     O63239   7.189   3.301   4.999  0.3115  0.3986  0.3349
  469MOL0     C63240   7.238   3.343   4.872  0.5144 -0.0474  0.3560
  469MOL0     C63241   7.387   3.359   4.889  0.4401  0.4887  0.2754
  469MOL0     C63242   7.435   3.496   4.825 -0.5527  0.2114 -1.0549
  469MOL0     C63243   7.587   3.521   4.850 -0.1774  0.4595  0.2692
  469MOL0     C63244   7.627   3.527   4.991  0.1716 -1.1429 -0.5873
  469MOL0     C63245   7.661   3.540   5.105  1.0099  0.5164 -0.0798
  469MOL0     C63246   6.954   3.252   4.927 -0.3529 -0.0656 -0.3355
  469MOL0     C63247   6.825   3.202   4.956 -0.3890  0.1992 -0.6003
  469MOL0     H63248   6.363   3.263   4.902 -0.0888  2.9792  2.7006
  469MOL0     H63249   6.128   3.244   4.914  2.7449  4.2708  1.6009
  469MOL0     H63250   5.862   3.214   5.043 -2.1795  0.7543 -1.4421
  469MOL0     H63251   5.921   3.120   4.908 -2.3312  0.3893 -1.0944
  469MOL0     H63252   5.783   2.923   5.004  1.1316 -0.9488  0.4876
  469MOL0     H63253   5.719   3.042   5.112  2.0632  0.4594 -0.1765
  469MOL0     H63254   5.733   3.080   4.816  1.7980 -0.9199  2.3231
  469MOL0     H63255   5.587   3.001   4.883 -1.7131  1.1922  0.2013
  469MOL0     H63256   5.585   3.229   5.034 -3.3317 -1.8494  0.5328
  469MOL0     H63257   5.647   3.293   4.889  0.4328 -0.7820 -2.0230
  469MOL0     H63258   5.412   3.317   4.877 -1.6062 -0.6690 -2.1387
  469MOL0     H63259   5.456   3.201   4.765 -0.9808  3.2538 -1.2455
  469MOL0     H63260   5.263   3.128   4.872  0.2430 -1.0222 -1.0919
  469MOL0     H63261   5.390   3.014   4.919  1.4331 -0.0571 -0.3479
  469MOL0     H63262   5.373   3.089   5.152  1.4761 -0.1003 -0.2858
  469MOL0     H63263   5.339   3.247   5.101 -0.6023 -0.5134  1.6034
  469MOL0     H63264   5.108   3.178   5.015  1.2882  1.7592  1.3759
  469MOL0     H63265   5.137   3.132   5.185  1.5159  1.1616  0.4766
  469MOL0     H63266   5.267   2.831   5.120  1.4496  2.3293 -1.1605
  469MOL0     H63267   5.084   2.544   4.922  3.5431  0.1951 -0.8516
  469MOL0     H63268   5.204   2.581   5.042 -0.3227  0.4471  1.6120
  469MOL0     H63269   4.902   2.588   5.079 -0.0191  0.6610 -1.7358
  469MOL0     H63270   5.037   2.588   5.201 -0.4993 -0.4769  0.5687
  469MOL0     H63271   5.104   2.362   5.141 -0.9588 -1.9585  0.9101
  469MOL0     H63272   4.968   2.357   5.022  1.1021 -2.1092  0.4279
  469MOL0     H63273   4.823   2.408   5.231  2.1223  1.3927 -0.5313
  469MOL0     H63274   4.962   2.390   5.329 -2.1870 -0.0280  0.9274
  469MOL0     H63275   4.852   1.972   5.319  2.2247  0.1424 -1.7832
  469MOL0     H63276   4.607   1.748   5.213  4.1195 -0.1473 -1.3635
  469MOL0     H63277   4.733   1.774   5.337  0.0352  1.0055  1.0296
  469MOL0     H63278   4.567   1.826   5.373  0.3991 -0.2706  1.6300
  469MOL0     H63279   4.121   2.099   5.186  0.1068  0.5400 -0.9211
  469MOL0     H63280   3.882   2.040   5.122  1.0502  1.6350  0.6460
  469MOL0     H63281   3.671   1.935   5.027  0.9683 -0.4790  0.1936
  469MOL0     H63282   3.730   2.055   4.919 -1.2956  0.0255 -0.9970
  469MOL0     H63283   3.585   1.963   4.749  1.5885  1.6282  0.5499
  469MOL0     H63284   3.599   1.790   4.816  1.6783 -0.3444  2.2690
  469MOL0     H63285   3.456   2.026   4.936 -0.4609 -0.0119  0.5856
  469MOL0     H63286   3.460   1.871   5.008 -5.1677  1.8625  1.8894
  469MOL0     H63287   3.364   1.948   4.729 -1.4146 -1.4828 -0.7935
  469MOL0     H63288   3.352   1.785   4.789  2.4234 -1.6810  4.9702
  469MOL0     H63289   3.224   2.040   4.914 -0.8222  0.1551 -0.2696
  469MOL0     H63290   3.194   1.870   4.971 -0.3081  1.1221  1.6660
  469MOL0     H63291   3.126   1.997   4.703 -1.1439  0.2484  0.1327
  469MOL0     H63292   3.112   1.823   4.739  0.0763 -1.1413  3.4737
  469MOL0     H63293   2.978   2.025   4.936 -0.7418 -1.0882  1.8844
  469MOL0     H63294   2.946   1.862   4.910 -0.3214  0.0068 -0.7655
  469MOL0     H63295   2.781   2.011   4.831  0.8834 -0.8853  0.6088
  469MOL0     H63296   2.841   1.912   4.696 -0.2670 -0.0801 -0.2100
  469MOL0     H63297   4.050   1.775   4.825 -3.7075  0.4936  0.3259
  469MOL0     H63298   4.272   1.850   4.872 -1.1486 -1.6823  0.4110
  469MOL0     H63299   4.506   2.218   5.061 -1.6325  0.3576  2.2941
  469MOL0     H63300   4.722   2.306   5.082 -1.3646  0.8330  1.6187
  469MOL0     H63301   6.165   2.977   5.244 -0.6472  0.8854  0.8383
  469MOL0     H63302   6.410   3.002   5.238 -1.3763  0.3541  1.0740
  469MOL0     H63303   6.879   3.061   5.254 -0.9908 -1.4641 -0.9574
  469MOL0     H63304   7.118   3.172   5.196 -1.5975 -0.4822  2.0046
  469MOL0     H63305   7.217   3.285   4.782 -0.5014  0.6061  0.1481
  469MOL0     H63306   7.193   3.440   4.849 -2.2151 -2.0496 -4.1540
  469MOL0     H63307   7.440   3.282   4.833 -0.5683  1.2522 -1.8442
  469MOL0     H63308   7.410   3.352   4.996  1.5349  1.0988  0.0985
  469MOL0     H63309   7.383   3.579   4.873 -0.4698  2.0643 -3.9072
  469MOL0     H63310   7.414   3.498   4.718 -1.8170  1.4418 -0.8127
  469MOL0     H63311   7.606   3.612   4.793 -3.0895  0.8624 -0.2289
  469MOL0     H63312   7.650   3.446   4.801  0.6396  1.1801  0.1885
  469MOL0     H63313   7.675   3.565   5.208  1.5236 -0.6131  0.1425
  469MOL0     H63314   6.964   3.294   4.827 -2.2085  1.4642  0.0702
  469MOL0     H63315   6.753   3.204   4.875 -2.1155  0.4277  0.8895
  470MOL0     O63316   7.144   4.507   4.058 -0.6608 -0.1839 -0.2661
  470MOL0     C63317   7.212   4.522   4.163 -0.4769 -0.5075  0.6757
  470MOL0     O63318   7.170   4.571   4.275 -0.6295 -0.2190 -0.5178
  470MOL0     C63319   7.031   4.603   4.298 -0.8877 -0.1558 -0.6186
  470MOL0     C63320   7.014   4.713   4.390  0.0297  0.1313  0.8413
  470MOL0     C63321   6.889   4.751   4.434 -0.5046  0.4127 -0.0540
  470MOL0     C63322   6.773   4.679   4.386  0.4163  0.3244  0.3158
  470MOL0     O63323   6.646   4.704   4.436  0.1236 -0.3500  0.0898
  470MOL0     C63324   6.621   4.837   4.479 -0.1753  0.1247 -0.0427
  470MOL0     C63325   6.475   4.878   4.480  0.3857 -0.5277 -0.0429
  470MOL0     C63326   6.408   4.823   4.361 -0.2101 -0.5169 -0.3134
  470MOL0     C63327   6.261   4.884   4.340 -1.0798  0.6940  0.2285
  470MOL0     C63328   6.192   4.805   4.228 -0.6829 -0.4821  0.2995
  470MOL0     C63329   6.063   4.881   4.181  0.3173 -0.1143  0.0219
  470MOL0     C63330   5.982   4.812   4.065  0.3817  0.5718 -0.0086
  470MOL0     C63331   5.883   4.908   4.002  0.3157 -0.4867  0.1046
  470MOL0     N63332   5.775   4.946   4.087  0.5648 -0.4061  0.0808
  470MOL0     C63333   5.667   4.864   4.126 -0.2547  0.0130  0.6323
  470MOL0     C63334   5.575   4.947   4.181  0.4416  0.2527  0.4560
  470MOL0     C63335   5.429   4.919   4.231 -0.2208 -0.2439 -0.4115
  470MOL0     C63336   5.308   4.973   4.134  0.0889  0.1011 -0.4499
  470MOL0     C63337   5.298   5.123   4.148  0.1754 -0.0474 -0.5987
  470MOL0     C63338   5.241   5.171   4.281  0.1716 -0.1416 -0.5201
  470MOL0     O63339   5.121   5.099   4.317 -0.5433 -0.2733  0.4233
  470MOL0     C63340   4.996   5.135   4.297  0.0633 -0.1068  0.0100
  470MOL0     C63341   4.897   5.074   4.365  0.4000  0.1329 -0.0481
  470MOL0     C63342   4.760   5.105   4.352 -0.2297  0.7395  0.2644
  470MOL0     C63343   4.673   5.030   4.443 -0.9939  0.4609  0.0019
  470MOL0     C63344   4.720   5.196   4.250  0.0963  0.5206  0.3089
  470MOL0     C63345   4.575   5.219   4.210 -1.1044  0.0423 -0.2555
  470MOL0     O63346   4.486   5.121   4.232 -0.0007 -0.0962  0.4933
  470MOL0     C63347   4.353   5.137   4.223 -0.6194 -0.2924 -0.2948
  470MOL0     C63348   4.277   5.113   4.338 -0.1481 -0.8972  0.2355
  470MOL0     C63349   4.136   5.129   4.336  0.1072  0.4077 -0.7173
  470MOL0     C63350   4.074   5.176   4.218 -0.7300 -0.9174 -0.2550
  470MOL0     O63351   3.937   5.178   4.203 -0.0885 -0.0167 -0.0280
  470MOL0     C63352   3.861   5.126   4.315 -0.1042  0.7396 -0.7500
  470MOL0     C63353   3.704   5.116   4.272 -0.1041 -0.1417  0.3618
  470MOL0     C63354   3.620   5.119   4.398  0.4404  0.7669 -0.1842
  470MOL0     C63355   3.599   4.986   4.475 -0.0863 -0.5622  0.6514
  470MOL0     C63356   3.505   5.011   4.602 -0.4726 -0.9922  0.9416
  470MOL0     C63357   3.352   5.030   4.569 -0.4365 -0.1515  0.4455
  470MOL0     C63358   3.281   5.035   4.699 -0.3803 -0.3283  0.2681
  470MOL0     C63359   3.227   5.171   4.726 -0.8827  0.5233 -0.2727
  470MOL0    Cl63360   3.110   5.182   4.592 -0.0368 -0.4680  0.4092
  470MOL0     C63361   4.156   5.203   4.107 -0.8986  0.1931  0.7583
  470MOL0     C63362   4.292   5.178   4.109  0.0422 -0.0023  0.2500
  470MOL0     O63363   4.548   5.324   4.155  0.1211 -0.7301 -0.0043
  470MOL0     C63364   4.816   5.263   4.177 -0.8573 -0.4298 -0.0851
  470MOL0     C63365   4.954   5.230   4.199  0.0904  0.0559  0.1282
  470MOL0     N63366   5.630   5.077   4.189  0.2525  0.2556  0.7932
  470MOL0     N63367   5.741   5.067   4.131 -0.1371 -0.6734  0.2037
  470MOL0     C63368   6.787   4.583   4.288  0.7710 -0.1210  0.4780
  470MOL0     C63369   6.917   4.544   4.241  0.4532  0.3203 -0.1284
  470MOL0     C63370   7.346   4.473   4.164  0.2122 -0.5619 -0.2516
  470MOL0     C63371   7.384   4.367   4.248 -0.6058 -0.2238  0.0683
  470MOL0     C63372   7.516   4.317   4.231 -0.7819  0.6191  1.2445
  470MOL0     C63373   7.602   4.361   4.133 -0.6439  1.0968  0.3122
  470MOL0     O63374   7.725   4.297   4.125  0.2237 -0.3255 -0.7636
  470MOL0     C63375   7.844   4.377   4.139  0.0048  0.3708  0.3063
  470MOL0     C63376   7.929   4.323   4.249  0.2870 -0.1534 -0.1775
  470MOL0     C63377   7.984   4.181   4.214 -0.4593  0.3276  0.4059
  470MOL0     C63378   8.082   4.122   4.325  0.9989 -0.1187  0.1374
  470MOL0     C63379   8.018   4.082   4.448 -0.3558 -0.8108 -0.6480
  470MOL0     C63380   7.977   4.064   4.562 -0.9449 -0.6645 -1.3853
  470MOL0     C63381   7.563   4.463   4.052  0.0699  0.0141  0.1317
  470MOL0     C63382   7.436   4.520   4.061 -0.8104 -0.7123 -0.2182
  470MOL0     H63383   7.101   4.749   4.444  0.2412 -1.5575  1.7064
  470MOL0     H63384   6.882   4.812   4.523  1.1965 -2.1717  1.9802
  470MOL0     H63385   6.658   4.850   4.581  1.4009  1.8690 -0.7862
  470MOL0     H63386   6.670   4.904   4.409 -0.6572  1.0983  0.5230
  470MOL0     H63387   6.432   4.834   4.571 -2.1889  0.7269 -0.5359
  470MOL0     H63388   6.468   4.985   4.500  1.1141 -0.6418  0.8929
  470MOL0     H63389   6.465   4.832   4.268  0.9328 -1.4324  0.2723
  470MOL0     H63390   6.395   4.716   4.382  1.8614 -0.8228 -0.3518
  470MOL0     H63391   6.210   4.880   4.436 -0.1692  1.2859  0.7542
  470MOL0     H63392   6.263   4.988   4.308 -0.0062  0.2492 -1.2985
  470MOL0     H63393   6.263   4.795   4.145 -0.7813  0.3743  0.1028
  470MOL0     H63394   6.154   4.707   4.256 -1.4162 -0.6565 -1.2036
  470MOL0     H63395   5.996   4.897   4.266 -1.1966  2.8633 -1.5882
  470MOL0     H63396   6.082   4.985   4.156 -1.0551 -0.1013 -1.0444
  470MOL0     H63397   6.048   4.777   3.986  0.3746 -0.7010  0.5262
  470MOL0     H63398   5.932   4.718   4.091  2.7491 -1.2712 -1.7322
  470MOL0     H63399   5.855   4.856   3.910  2.2794  1.5654 -1.7488
  470MOL0     H63400   5.928   5.001   3.967  0.2316 -1.1824 -2.0037
  470MOL0     H63401   5.649   4.762   4.095 -1.3126  1.3454 -4.1271
  470MOL0     H63402   5.420   4.810   4.239 -3.2291 -0.0287 -0.0233
  470MOL0     H63403   5.416   4.965   4.330  1.3942 -0.2444 -0.1617
  470MOL0     H63404   5.212   4.927   4.159  0.3976 -0.9520 -1.1090
  470MOL0     H63405   5.327   4.958   4.027  0.1957 -0.2917 -0.3772
  470MOL0     H63406   5.232   5.163   4.071 -0.2298  2.5940  0.9714
  470MOL0     H63407   5.398   5.167   4.137 -0.0566  0.5324 -0.4298
  470MOL0     H63408   5.234   5.280   4.283 -0.0459 -0.1596  1.3564
  470MOL0     H63409   5.319   5.161   4.357  0.0690  3.4930  0.2742
  470MOL0     H63410   4.935   5.009   4.444 -1.2255  0.2946  0.9169
  470MOL0     H63411   4.724   4.991   4.532  0.4816  0.4008 -0.8280
  470MOL0     H63412   4.593   5.094   4.480 -0.3254  1.6898 -0.6204
  470MOL0     H63413   4.624   4.948   4.390 -0.8515 -0.6237  1.4861
  470MOL0     H63414   4.329   5.087   4.429  1.1121  1.0770  0.1434
  470MOL0     H63415   4.084   5.113   4.430 -0.8339 -4.2301 -1.7495
  470MOL0     H63416   3.894   5.028   4.348  2.2337  1.2306 -1.4416
  470MOL0     H63417   3.870   5.189   4.404  0.5215 -2.3595  1.5463
  470MOL0     H63418   3.682   5.206   4.213 -2.3189 -2.9451 -3.6195
  470MOL0     H63419   3.689   5.022   4.217 -0.3017 -0.0266  0.2187
  470MOL0     H63420   3.521   5.155   4.367  0.1909  0.1935 -0.0612
  470MOL0     H63421   3.654   5.186   4.478 -0.6422  0.8083  0.2625
  470MOL0     H63422   3.558   4.915   4.403  1.7610 -1.0503  0.0156
  470MOL0     H63423   3.691   4.933   4.502  0.7186  0.2979 -0.3570
  470MOL0     H63424   3.537   5.091   4.669 -0.4013 -3.4494  4.0262
  470MOL0     H63425   3.517   4.921   4.662 -0.5809 -0.6584  1.4714
  470MOL0     H63426   3.345   5.121   4.509  0.5714 -2.0940 -2.8832
  470MOL0     H63427   3.304   4.949   4.514 -0.2005  0.2418 -0.3506
  470MOL0     H63428   3.351   5.002   4.777 -1.0567  1.1299  1.5521
  470MOL0     H63429   3.195   4.968   4.703  0.5811 -1.6099  0.1336
  470MOL0     H63430   3.303   5.250   4.720 -1.1904  0.7529 -1.4019
  470MOL0     H63431   3.173   5.171   4.821  1.8085 -2.1194  1.4268
  470MOL0     H63432   4.116   5.243   4.014  1.7535 -0.6371 -0.8539
  470MOL0     H63433   4.350   5.190   4.018 -2.1045 -3.1055 -1.7821
  470MOL0     H63434   4.784   5.324   4.094  1.9850 -2.5033 -2.9734
  470MOL0     H63435   5.033   5.278   4.142  1.2094 -0.1364  1.4619
  470MOL0     H63436   6.699   4.540   4.241  0.1695  0.9906  0.5471
  470MOL0     H63437   6.923   4.460   4.172 -0.1479  1.2500 -1.3290
  470MOL0     H63438   7.318   4.325   4.323 -1.9854  0.7093 -0.5896
  470MOL0     H63439   7.560   4.237   4.290  0.4200 -0.2470 -0.7437
  470MOL0     H63440   7.895   4.386   4.042 -0.0261 -2.5199 -0.0783
  470MOL0     H63441   7.832   4.480   4.171  0.9412  0.5750  0.0510
  470MOL0     H63442   7.878   4.309   4.344 -0.2958 -0.7249 -0.5611
  470MOL0     H63443   8.018   4.382   4.269  0.2512 -0.7010  1.7448
  470MOL0     H63444   8.047   4.195   4.126  1.3649  1.3918  1.8111
  470MOL0     H63445   7.899   4.115   4.197 -0.5593  0.1479  1.5297
  470MOL0     H63446   8.169   4.186   4.337 -0.5112  2.4253 -1.5277
  470MOL0     H63447   8.125   4.032   4.279  0.1480 -0.8785  0.7967
  470MOL0     H63448   7.925   4.041   4.653 -0.4963 -0.4949 -1.0833
  470MOL0     H63449   7.624   4.492   3.968 -0.4474 -0.7264 -0.5130
  470MOL0     H63450   7.407   4.596   3.990  0.4959 -1.6389 -1.8082
  471MOL0     O63451   5.026   7.775  11.159 -0.6357  0.1922  0.3227
  471MOL0     C63452   4.976   7.704  11.253  0.1482 -0.6589  0.8369
  471MOL0     O63453   4.842   7.707  11.284 -0.1215 -0.1669 -0.6221
  471MOL0     C63454   4.744   7.745  11.202 -0.2207  0.6371 -0.4327
  471MOL0     C63455   4.751   7.863  11.130  0.1052  1.1865  0.5055
  471MOL0     C63456   4.634   7.897  11.071  0.2241  0.2300  1.2080
  471MOL0     C63457   4.515   7.816  11.073  0.3320 -0.4236  1.1604
  471MOL0     O63458   4.411   7.859  10.994  0.3454  0.1170 -1.1822
  471MOL0     C63459   4.292   7.775  10.987 -0.2557 -0.5860 -0.2065
  471MOL0     C63460   4.194   7.849  10.912  0.5112 -0.3866  0.2614
  471MOL0     C63461   4.051   7.799  10.909 -1.0471 -0.1809 -0.8973
  471MOL0     C63462   3.984   7.824  10.775  0.0214  1.3200  0.5825
  471MOL0     C63463   3.867   7.736  10.756  0.4711 -0.3097  0.6355
  471MOL0     C63464   3.738   7.820  10.786 -0.3558  0.0177 -0.1963
  471MOL0     C63465   3.609   7.735  10.750 -0.1935  0.9585 -0.3471
  471MOL0     C63466   3.475   7.815  10.791 -1.3415  0.4126 -0.1850
  471MOL0     N63467   3.358   7.728  10.785 -0.3100  0.0875  0.4382
  471MOL0     C63468   3.261   7.714  10.689 -0.2594  0.9427 -0.6330
  471MOL0     C63469   3.177   7.618  10.738  0.7758 -0.9335  0.0862
  471MOL0     C63470   3.068   7.551  10.660  0.3708  0.5474  0.0169
  471MOL0     C63471   2.931   7.622  10.640 -0.5336  0.1075 -0.1256
  471MOL0     C63472   2.884   7.656  10.778 -0.7468  0.4775  0.4660
  471MOL0     C63473   2.748   7.719  10.765  0.4644  0.6483 -0.3501
  471MOL0     O63474   2.720   7.815  10.871 -0.1943  0.0124 -0.6941
  471MOL0     C63475   2.595   7.871  10.885  0.2503  0.6906 -0.1110
  471MOL0     C63476   2.573   7.948  10.997 -0.7916  0.2054  0.4115
  471MOL0     C63477   2.452   8.000  11.029  0.6878 -0.0575  0.4920
  471MOL0     C63478   2.439   8.081  11.152  0.0704  0.5489 -0.8612
  471MOL0     C63479   2.343   7.994  10.927 -0.8575 -0.3579  0.1840
  471MOL0     C63480   2.209   8.060  10.949  0.9378  0.5264 -0.1735
  471MOL0     O63481   2.152   8.098  10.832 -0.2192  0.0326  0.6367
  471MOL0     C63482   2.035   8.167  10.831  0.0200  0.0954 -0.3743
  471MOL0     C63483   1.938   8.105  10.747 -0.7282  1.1763  0.4936
  471MOL0     C63484   1.810   8.166  10.747  0.6014 -0.0672 -0.5480
  471MOL0     C63485   1.783   8.286  10.809  0.3089  0.9759 -0.6726
  471MOL0     O63486   1.661   8.344  10.808  0.5483  0.0679 -0.1148
  471MOL0     C63487   1.643   8.484  10.763 -0.2593  0.5702 -0.2118
  471MOL0     C63488   1.498   8.514  10.761  0.1989 -0.7873  1.0363
  471MOL0     C63489   1.426   8.405  10.682  0.4183  0.6053 -1.0615
  471MOL0     C63490   1.271   8.423  10.684 -0.6814  1.2471  0.5084
  471MOL0     C63491   1.220   8.306  10.597 -1.2195  0.3208 -0.4277
  471MOL0     C63492   1.071   8.322  10.574  0.3468  0.6094  0.7161
  471MOL0     C63493   1.042   8.424  10.476 -0.0174 -0.9901 -0.5004
  471MOL0     C63494   0.892   8.420  10.439 -0.5364 -0.1143 -0.2188
  471MOL0    Cl63495   0.865   8.553  10.320  0.3156  0.2534 -0.2006
  471MOL0     C63496   1.879   8.338  10.892  0.6126 -0.0731 -0.7711
  471MOL0     C63497   2.005   8.280  10.899  0.9439  0.5169 -0.0384
  471MOL0     O63498   2.160   8.080  11.059  0.3755 -0.5603 -0.2907
  471MOL0     C63499   2.366   7.912  10.812 -0.2953 -0.8572  0.6316
  471MOL0     C63500   2.503   7.860  10.786  0.5846 -0.5497 -0.0315
  471MOL0     N63501   3.212   7.587  10.868 -0.0413 -0.5902  0.1836
  471MOL0     N63502   3.321   7.654  10.890 -0.2544  0.1077  0.2117
  471MOL0     C63503   4.516   7.705  11.150 -0.3319  0.0381 -0.2421
  471MOL0     C63504   4.636   7.663  11.203  0.1004  0.1005 -0.5992
  471MOL0     C63505   5.076   7.617  11.334 -0.9057  0.5159 -0.1083
  471MOL0     C63506   5.214   7.621  11.312  0.2858  0.7772 -0.2628
  471MOL0     C63507   5.298   7.551  11.399 -0.6495 -0.5583 -0.4402
  471MOL0     C63508   5.253   7.475  11.506  0.4733 -0.3803 -0.2813
  471MOL0     O63509   5.330   7.425  11.605  0.4073 -0.6380 -0.3890
  471MOL0     C63510   5.452   7.502  11.648  0.3139 -0.2990 -1.7222
  471MOL0     C63511   5.539   7.404  11.731 -1.1277 -0.6236 -0.0401
  471MOL0     C63512   5.583   7.290  11.646  0.0576 -0.3039  0.5437
  471MOL0     C63513   5.675   7.330  11.522 -0.0755  0.2196 -0.0534
  471MOL0     C63514   5.718   7.207  11.446  0.6582  0.6117 -0.3150
  471MOL0     C63515   5.780   7.130  11.382  0.1585 -0.1819  0.0777
  471MOL0     C63516   5.116   7.460  11.520 -0.3296  1.2367  0.3561
  471MOL0     C63517   5.026   7.528  11.436  1.2182 -0.2069  0.4695
  471MOL0     H63518   4.843   7.921  11.128  1.3448 -0.6970  0.0966
  471MOL0     H63519   4.647   7.993  11.022 -0.8203  1.3831  3.0861
  471MOL0     H63520   4.293   7.676  10.940 -2.8290 -1.2212  0.8975
  471MOL0     H63521   4.248   7.764  11.087  1.1911 -0.4891  0.4712
  471MOL0     H63522   4.195   7.946  10.962 -0.8038 -0.7289  1.0188
  471MOL0     H63523   4.235   7.864  10.812  0.5969 -1.7703  0.0682
  471MOL0     H63524   4.050   7.693  10.934  0.0154  0.6791  3.7766
  471MOL0     H63525   3.986   7.844  10.986 -2.5024  0.2735 -2.3335
  471MOL0     H63526   3.962   7.931  10.765 -2.8260  0.7542  0.0046
  471MOL0     H63527   4.053   7.800  10.694 -0.7841  4.1696 -1.0946
  471MOL0     H63528   3.870   7.696  10.654 -0.2410  1.2412 -0.0260
  471MOL0     H63529   3.867   7.652  10.826 -0.5957  0.7727  1.9857
  471MOL0     H63530   3.723   7.864  10.885  1.8945 -0.3913  0.3787
  471MOL0     H63531   3.750   7.898  10.710  0.8534 -0.5121 -0.5714
  471MOL0     H63532   3.607   7.711  10.644  1.2203  1.5476 -0.5205
  471MOL0     H63533   3.601   7.639  10.802  0.7029 -0.3693 -2.5528
  471MOL0     H63534   3.462   7.900  10.724 -1.0310  1.2234  0.7455
  471MOL0     H63535   3.481   7.845  10.897 -1.0074  1.7002 -0.5458
  471MOL0     H63536   3.247   7.771  10.597  0.3849  1.0181 -0.6848
  471MOL0     H63537   3.109   7.534  10.560  0.6377 -0.5809  0.2947
  471MOL0     H63538   3.054   7.459  10.718  1.2397 -0.5660 -1.4518
  471MOL0     H63539   2.859   7.568  10.578 -0.8922 -0.9341  1.1589
  471MOL0     H63540   2.941   7.717  10.588 -3.0212 -1.3055 -3.5590
  471MOL0     H63541   2.945   7.733  10.825  2.7315 -1.7069 -0.1070
  471MOL0     H63542   2.879   7.572  10.848  0.3007  0.4981  0.5664
  471MOL0     H63543   2.677   7.635  10.769 -1.9604  2.5950  2.7233
  471MOL0     H63544   2.736   7.761  10.665  3.4151 -2.1048 -2.0465
  471MOL0     H63545   2.649   7.961  11.073  0.9691  1.8537 -1.4725
  471MOL0     H63546   2.534   8.096  11.204  0.3303 -4.1130  0.3694
  471MOL0     H63547   2.390   8.178  11.135 -0.6352  0.5703  1.0560
  471MOL0     H63548   2.376   8.030  11.225  0.7052  0.0438 -0.6672
  471MOL0     H63549   1.975   8.019  10.692 -1.8539  1.2727 -0.4818
  471MOL0     H63550   1.721   8.141  10.690 -1.2929  1.3896  1.5838
  471MOL0     H63551   1.708   8.545  10.827  1.2789 -2.2328  1.0991
  471MOL0     H63552   1.681   8.496  10.661  3.3802  0.0661  0.9302
  471MOL0     H63553   1.446   8.518  10.858 -3.0134 -1.9956 -0.4893
  471MOL0     H63554   1.489   8.605  10.701 -2.0227 -3.8579 -3.9028
  471MOL0     H63555   1.446   8.311  10.734 -2.1232  1.1386  1.0566
  471MOL0     H63556   1.467   8.408  10.580  1.5900  2.6979 -0.5814
  471MOL0     H63557   1.240   8.412  10.788  3.6806 -1.1978  1.7777
  471MOL0     H63558   1.251   8.520  10.637  0.1133  0.6950 -1.0408
  471MOL0     H63559   1.238   8.213  10.653  1.1531 -0.3213 -2.0638
  471MOL0     H63560   1.278   8.297  10.504  0.1684 -0.8495  0.4915
  471MOL0     H63561   1.037   8.228  10.528  0.7102  0.7279  0.1991
  471MOL0     H63562   1.024   8.345  10.670 -0.3392 -2.2168  1.1432
  471MOL0     H63563   1.086   8.409  10.377 -1.6698  1.4785 -1.6971
  471MOL0     H63564   1.078   8.521  10.512 -1.0462 -1.0510  0.7480
  471MOL0     H63565   0.832   8.444  10.527  3.7990  2.8093  2.3078
  471MOL0     H63566   0.852   8.328  10.396  0.2490 -0.5647 -0.0047
  471MOL0     H63567   1.854   8.418  10.961  0.6509 -0.1191 -0.7047
  471MOL0     H63568   2.087   8.328  10.952 -1.3418  2.9583  1.5175
  471MOL0     H63569   2.303   7.901  10.724  0.7829  1.3581 -0.4967
  471MOL0     H63570   2.516   7.801  10.695  0.9856  0.7822 -0.8646
  471MOL0     H63571   4.430   7.642  11.172 -0.2321 -0.6010 -1.6064
  471MOL0     H63572   4.637   7.578  11.271 -0.5006  0.7952  0.2864
  471MOL0     H63573   5.254   7.665  11.221 -0.0450  2.3118  0.3066
  471MOL0     H63574   5.400   7.558  11.365 -1.1338 -0.0871 -1.8430
  471MOL0     H63575   5.504   7.537  11.558 -0.2005  1.2982 -1.4390
  471MOL0     H63576   5.431   7.591  11.708  1.3514 -0.6658 -0.7771
  471MOL0     H63577   5.482   7.371  11.818 -2.2585  1.2517 -0.0017
  471MOL0     H63578   5.628   7.450  11.776 -1.3690 -0.1644 -0.0271
  471MOL0     H63579   5.496   7.237  11.605 -1.2506  1.9262  0.3102
  471MOL0     H63580   5.633   7.226  11.720  0.3871 -0.7704 -0.0676
  471MOL0     H63581   5.759   7.391  11.556  0.5118 -0.0477 -0.9959
  471MOL0     H63582   5.626   7.384  11.441  3.0375  0.1381 -2.1635
  471MOL0     H63583   5.849   7.071  11.325  0.0527 -0.1091 -0.1236
  471MOL0     H63584   5.083   7.406  11.608 -2.2188  0.4488 -0.7788
  471MOL0     H63585   4.919   7.522  11.456  0.7207  0.0191 -1.8630
  472MOL0     O63586   2.099   2.025   1.905 -0.6655  0.0731 -0.3571
  472MOL0     C63587   2.107   1.937   1.821  0.4426  0.4535 -0.1328
  472MOL0     O63588   2.219   1.891   1.760 -0.8928 -0.5480  0.5055
  472MOL0     C63589   2.348   1.926   1.769 -0.1960 -0.3017 -0.7634
  472MOL0     C63590   2.444   1.874   1.679 -0.6799  0.6344  0.0081
  472MOL0     C63591   2.580   1.895   1.691  0.8408  0.7435  0.2792
  472MOL0     C63592   2.620   1.975   1.802  0.0553 -0.1112 -0.0339
  472MOL0     O63593   2.750   2.022   1.814 -0.2341 -0.5109 -0.1017
  472MOL0     C63594   2.854   1.933   1.787 -0.3296 -0.5785  0.6302
  472MOL0     C63595   2.985   1.971   1.848  0.0142  0.8892 -0.4894
  472MOL0     C63596   3.055   2.104   1.826 -0.1333  0.1405  0.1450
  472MOL0     C63597   3.178   2.110   1.914 -0.8553 -0.4011  0.7243
  472MOL0     C63598   3.246   2.247   1.912  0.0876 -0.5976  0.2082
  472MOL0     C63599   3.393   2.261   1.939 -0.0183 -0.4110 -0.0737
  472MOL0     C63600   3.414   2.289   2.088 -0.2178 -0.4521 -0.8058
  472MOL0     C63601   3.552   2.332   2.144 -1.1039  0.5328  0.2348
  472MOL0     N63602   3.561   2.308   2.294 -0.2002 -0.3086  0.7677
  472MOL0     C63603   3.581   2.193   2.368  0.2443  0.6276  0.3620
  472MOL0     C63604   3.572   2.223   2.495  0.6581  0.2104  0.3608
  472MOL0     C63605   3.579   2.105   2.603  0.4240  0.3433  0.9113
  472MOL0     C63606   3.452   2.017   2.610 -0.0760  0.3136 -0.0159
  472MOL0     C63607   3.338   2.090   2.672  0.3150  0.7133  0.3580
  472MOL0     C63608   3.221   1.998   2.690  0.3270  0.2099 -0.3934
  472MOL0     O63609   3.125   2.072   2.770 -0.6196 -0.4571 -0.1168
  472MOL0     C63610   2.990   2.041   2.771  0.4693  0.2019  0.1234
  472MOL0     C63611   2.899   2.135   2.815 -0.0567 -0.0171 -0.9926
  472MOL0     C63612   2.763   2.091   2.825  0.3909  0.5452 -0.8728
  472MOL0     C63613   2.673   2.206   2.883  0.4630  0.7887  0.3493
  472MOL0     C63614   2.717   1.958   2.795  0.1594  0.2065  0.3748
  472MOL0     C63615   2.581   1.911   2.827  0.0130 -0.6533  0.4266
  472MOL0     O63616   2.475   1.997   2.866 -0.5982  0.0587 -0.1580
  472MOL0     C63617   2.369   1.932   2.921 -0.0856 -0.5230 -0.7566
  472MOL0     C63618   2.245   1.986   2.894  0.0876  0.5914  0.5409
  472MOL0     C63619   2.124   1.950   2.959 -0.1297 -0.1979 -0.5171
  472MOL0     C63620   2.128   1.841   3.047 -0.3779 -0.8758  0.2523
  472MOL0     O63621   2.017   1.808   3.114  0.8116  0.2190 -0.4089
  472MOL0     C63622   2.008   1.682   3.180 -0.1187 -0.2708  0.2146
  472MOL0     C63623   1.862   1.659   3.228  0.2935 -0.1641 -0.0937
  472MOL0     C63624   1.842   1.545   3.330 -0.2499  0.1836  0.0067
  472MOL0     C63625   1.853   1.412   3.254 -0.0026  0.0952 -0.1384
  472MOL0     C63626   1.829   1.282   3.338  0.1207 -0.4016 -1.2144
  472MOL0     C63627   1.933   1.283   3.450  0.0180 -0.1259 -0.1684
  472MOL0     C63628   1.939   1.149   3.518 -0.8118 -0.1458  0.7097
  472MOL0     C63629   2.062   1.129   3.611 -0.4176  0.0828 -0.4467
  472MOL0    Cl63630   2.049   0.969   3.677 -0.1724  0.6612  0.0616
  472MOL0     C63631   2.255   1.786   3.082  0.6614  0.0544 -0.0374
  472MOL0     C63632   2.372   1.823   3.017  0.6934  0.4555  0.1599
  472MOL0     O63633   2.572   1.789   2.811  0.2996 -0.4542 -0.1073
  472MOL0     C63634   2.811   1.878   2.731 -0.0652  0.0134  0.3302
  472MOL0     C63635   2.945   1.920   2.724  0.1399  0.0567 -0.3576
  472MOL0     N63636   3.553   2.364   2.507 -0.3676  0.1633 -0.5854
  472MOL0     N63637   3.538   2.407   2.385  0.5903 -0.4201 -0.1488
  472MOL0     C63638   2.527   2.020   1.897 -0.3194  0.0677 -0.1485
  472MOL0     C63639   2.389   2.002   1.881  0.4151  1.4258  0.3873
  472MOL0     C63640   1.978   1.893   1.779 -0.4368  0.6412  0.7455
  472MOL0     C63641   1.973   1.774   1.697  0.2240  0.2740 -0.3351
  472MOL0     C63642   1.850   1.741   1.632  0.8602 -0.1426  0.0416
  472MOL0     C63643   1.739   1.821   1.642  1.1337 -0.3110  0.4557
  472MOL0     O63644   1.622   1.787   1.586 -0.3581  0.1646  0.9696
  472MOL0     C63645   1.534   1.693   1.655 -0.0557 -0.5810  0.5854
  472MOL0     C63646   1.562   1.542   1.643  0.2756  0.1978 -0.6561
  472MOL0     C63647   1.639   1.469   1.759  0.1444 -0.3117  0.6798
  472MOL0     C63648   1.701   1.337   1.706  0.1030  0.3779 -0.7008
  472MOL0     C63649   1.600   1.236   1.659 -0.3249  1.0841  0.5338
  472MOL0     C63650   1.530   1.136   1.639 -0.5629  0.6926 -0.4776
  472MOL0     C63651   1.740   1.938   1.721  0.7639  0.7608  0.5045
  472MOL0     C63652   1.858   1.970   1.796  0.3522 -0.9393  0.6818
  472MOL0     H63653   2.405   1.816   1.596 -3.3451  3.5913 -0.9719
  472MOL0     H63654   2.643   1.848   1.617 -0.7263 -3.6053  1.3502
  472MOL0     H63655   2.825   1.833   1.821  0.0244 -1.2330 -0.8804
  472MOL0     H63656   2.854   1.927   1.677 -1.2254  1.5859  0.4806
  472MOL0     H63657   2.973   1.962   1.956  1.6511  4.8199  0.2010
  472MOL0     H63658   3.062   1.906   1.807  1.6266  1.5336  1.3987
  472MOL0     H63659   3.088   2.118   1.722 -0.5232  0.2944  0.0377
  472MOL0     H63660   2.991   2.187   1.857 -0.5492 -1.2502  3.3109
  472MOL0     H63661   3.142   2.091   2.015  0.0257  0.1491  1.1586
  472MOL0     H63662   3.254   2.037   1.886 -0.1904  0.2941  0.6615
  472MOL0     H63663   3.239   2.274   1.806  1.4405  1.6644  0.6421
  472MOL0     H63664   3.187   2.323   1.964  0.5716 -1.3640  1.9403
  472MOL0     H63665   3.439   2.163   1.922  0.4441 -0.2857  0.4451
  472MOL0     H63666   3.425   2.348   1.881  1.7965 -0.1855  1.1907
  472MOL0     H63667   3.338   2.360   2.122 -0.5786 -0.6204 -1.2416
  472MOL0     H63668   3.386   2.203   2.150 -0.7589 -0.0069 -0.4311
  472MOL0     H63669   3.555   2.436   2.112 -0.8634  0.3117 -0.4981
  472MOL0     H63670   3.638   2.289   2.091 -1.0323  3.5820 -2.4071
  472MOL0     H63671   3.599   2.097   2.322  1.5853  1.0943 -0.1402
  472MOL0     H63672   3.660   2.033   2.589  0.3597  0.0843  1.7969
  472MOL0     H63673   3.601   2.153   2.699  2.2551 -0.9342  1.1866
  472MOL0     H63674   3.472   1.926   2.666 -0.4009 -0.7341 -1.5523
  472MOL0     H63675   3.429   1.980   2.510  2.1111  1.9779 -1.2334
  472MOL0     H63676   3.319   2.167   2.597 -0.6665 -0.7517 -0.9613
  472MOL0     H63677   3.350   2.128   2.774  0.3783  0.5021  0.4293
  472MOL0     H63678   3.254   1.903   2.733 -1.5319 -0.4453 -0.3452
  472MOL0     H63679   3.188   1.989   2.586 -2.4051 -0.6362  0.4784
  472MOL0     H63680   2.930   2.235   2.843 -1.2116  0.5365 -1.6050
  472MOL0     H63681   2.720   2.299   2.916  0.7497  0.1196  1.8788
  472MOL0     H63682   2.607   2.232   2.799  0.7675  0.4883  0.0153
  472MOL0     H63683   2.616   2.166   2.967 -0.0679  1.9407  0.5683
  472MOL0     H63684   2.237   2.061   2.816  2.1804  0.4615  0.1559
  472MOL0     H63685   2.027   1.996   2.940 -1.4410 -1.6476  2.0679
  472MOL0     H63686   2.049   1.611   3.107  2.4819  1.9842 -0.7063
  472MOL0     H63687   2.063   1.687   3.274 -0.7513  2.1416  0.5083
  472MOL0     H63688   1.834   1.752   3.279 -0.7213 -1.1122  1.1171
  472MOL0     H63689   1.802   1.647   3.138  1.3855  1.1026 -1.0407
  472MOL0     H63690   1.753   1.550   3.393  0.0458 -0.5563  0.4964
  472MOL0     H63691   1.930   1.535   3.395  0.0844  2.7918  0.0578
  472MOL0     H63692   1.767   1.412   3.187 -1.1466 -3.2565  1.1328
  472MOL0     H63693   1.943   1.409   3.191  0.1355  1.2869 -0.0344
  472MOL0     H63694   1.844   1.192   3.277  1.1098 -1.8452  1.0110
  472MOL0     H63695   1.723   1.277   3.366  0.0038 -2.7930 -1.8696
  472MOL0     H63696   2.029   1.297   3.401  1.5128 -1.0729  2.3100
  472MOL0     H63697   1.920   1.357   3.530  1.1104 -0.3972  0.2757
  472MOL0     H63698   1.951   1.072   3.442  2.6411 -0.5544  1.4898
  472MOL0     H63699   1.841   1.134   3.566 -1.1404  0.0085  0.0931
  472MOL0     H63700   2.046   1.191   3.699 -1.6851 -2.4744  1.2546
  472MOL0     H63701   2.162   1.139   3.568 -0.1842 -2.3504 -0.6317
  472MOL0     H63702   2.266   1.726   3.172 -2.3549  1.5462  1.4808
  472MOL0     H63703   2.468   1.791   3.056  0.7733  0.9144  0.3427
  472MOL0     H63704   2.795   1.778   2.692 -0.7878 -0.0665  0.7989
  472MOL0     H63705   3.014   1.846   2.686  0.1335 -0.5193  0.7052
  472MOL0     H63706   2.562   2.076   1.983  1.5142 -0.7059 -0.3399
  472MOL0     H63707   2.321   2.050   1.950 -1.9059  1.9769 -2.1247
  472MOL0     H63708   2.056   1.713   1.661 -1.4417 -1.4649 -1.4134
  472MOL0     H63709   1.834   1.654   1.569 -3.2504  1.7714 -1.9376
  472MOL0     H63710   1.519   1.715   1.761  1.5372  1.5462  0.4497
  472MOL0     H63711   1.435   1.708   1.610 -0.5525 -3.5372  0.4791
  472MOL0     H63712   1.610   1.516   1.548 -0.1350 -2.1348 -0.3000
  472MOL0     H63713   1.471   1.482   1.636  1.6654 -2.1295 -0.0005
  472MOL0     H63714   1.579   1.454   1.850 -0.8365  0.0617  0.1053
  472MOL0     H63715   1.719   1.533   1.799 -0.9138  0.8339  1.0375
  472MOL0     H63716   1.745   1.292   1.795  0.1791  0.4275 -0.7134
  472MOL0     H63717   1.772   1.370   1.630  1.6995 -1.3059  0.0112
  472MOL0     H63718   1.465   1.052   1.624 -2.7578  2.2599 -0.0707
  472MOL0     H63719   1.642   1.983   1.733 -1.2463 -3.4241  1.3674
  472MOL0     H63720   1.865   2.060   1.856  1.5272  0.3336 -1.2606
  473MOL0     O63721   1.000   6.250   6.816  0.1039  0.3189 -0.0547
  473MOL0     C63722   1.039   6.150   6.869  0.2301  1.6214  0.2469
  473MOL0     O63723   0.959   6.051   6.926  0.3252 -0.1335 -0.4385
  473MOL0     C63724   0.826   6.039   6.932  0.0576  0.2212  0.0559
  473MOL0     C63725   0.797   5.936   7.020 -0.5464  0.3833 -0.8180
  473MOL0     C63726   0.662   5.901   7.049 -0.2464 -0.3719 -0.3004
  473MOL0     C63727   0.564   5.973   6.989 -0.4034  0.5568 -0.3371
  473MOL0     O63728   0.434   5.954   7.018  0.7233 -0.0129  0.0875
  473MOL0     C63729   0.394   5.841   7.085  0.4910 -0.6295  0.2464
  473MOL0     C63730   0.246   5.845   7.120 -0.9926 -0.1453 -0.7635
  473MOL0     C63731   0.190   5.722   7.193 -0.2824  0.3561  0.8384
  473MOL0     C63732   0.041   5.717   7.163 -0.1307 -0.2488 -0.0249
  473MOL0     C63733  -0.033   5.824   7.241  0.7411 -1.2826  0.1781
  473MOL0     C63734  -0.185   5.802   7.240  0.0456 -0.6952  0.5160
  473MOL0     C63735  -0.252   5.829   7.109  0.3979 -0.5149  0.4234
  473MOL0     C63736  -0.408   5.831   7.119 -0.5567  0.2941  0.1495
  473MOL0     N63737  -0.454   5.696   7.150  0.3460 -0.1921 -0.7486
  473MOL0     C63738  -0.457   5.590   7.061  0.7051 -0.3243  0.0758
  473MOL0     C63739  -0.530   5.499   7.130 -0.0885 -0.4274 -0.3187
  473MOL0     C63740  -0.558   5.357   7.085 -0.1568  0.4805 -0.1297
  473MOL0     C63741  -0.683   5.341   6.991 -0.2720  0.5391  0.3328
  473MOL0     C63742  -0.809   5.376   7.068  0.8461 -0.2146 -0.3353
  473MOL0     C63743  -0.943   5.338   7.011 -0.6094 -0.1888 -0.5707
  473MOL0     O63744  -0.964   5.195   6.999 -0.7423 -0.1875 -0.1256
  473MOL0     C63745  -1.095   5.153   7.015 -0.1894 -0.4212  0.5105
  473MOL0     C63746  -1.190   5.175   6.917 -0.6995  0.0770 -0.5976
  473MOL0     C63747  -1.313   5.116   6.922 -0.2332 -1.0903  0.1296
  473MOL0     C63748  -1.402   5.134   6.804 -0.3076  0.4520  0.7218
  473MOL0     C63749  -1.363   5.060   7.039 -0.6468 -0.1054 -0.3995
  473MOL0     C63750  -1.509   5.029   7.059  0.0664  0.0245  0.3744
  473MOL0     O63751  -1.602   5.122   7.011  0.3368 -0.0688 -0.1656
  473MOL0     C63752  -1.727   5.079   6.993 -0.2011  0.4859 -0.7348
  473MOL0     C63753  -1.764   5.043   6.862 -0.0294 -0.0886  0.6169
  473MOL0     C63754  -1.896   4.996   6.840  0.7467 -0.2889 -0.2772
  473MOL0     C63755  -1.994   5.006   6.938  0.3301 -0.6692 -0.3958
  473MOL0     O63756  -2.120   4.961   6.911 -0.1755 -0.8762  0.1587
  473MOL0     C63757  -2.208   4.956   7.024  0.0750  0.2954 -0.1174
  473MOL0     C63758  -2.336   4.904   6.972 -0.4839 -0.4357 -0.3041
  473MOL0     C63759  -2.334   4.752   6.939 -0.1285 -0.0022 -0.3461
  473MOL0     C63760  -2.310   4.659   7.058  0.4241  0.0395  0.1249
  473MOL0     C63761  -2.320   4.513   7.019  0.1206 -0.5431  0.3853
  473MOL0     C63762  -2.367   4.426   7.126  0.3483  0.8657 -0.4370
  473MOL0     C63763  -2.508   4.458   7.189  0.2233  0.2277  0.0594
  473MOL0     C63764  -2.629   4.453   7.094  0.0893 -0.4469 -1.1858
  473MOL0    Cl63765  -2.762   4.360   7.165  0.1366  0.2759 -0.6422
  473MOL0     C63766  -1.952   5.056   7.056 -0.7509 -0.2952 -0.0147
  473MOL0     C63767  -1.824   5.078   7.098 -0.8652  1.1983  0.9160
  473MOL0     O63768  -1.536   4.917   7.101 -0.8900 -0.3379 -0.0123
  473MOL0     C63769  -1.274   5.057   7.148 -0.3133 -0.6509 -0.3392
  473MOL0     C63770  -1.138   5.094   7.131  0.4835  0.1936 -0.3998
  473MOL0     N63771  -0.558   5.542   7.262  0.0546 -0.5578 -0.5692
  473MOL0     N63772  -0.526   5.668   7.269 -0.4896  0.6563  0.7760
  473MOL0     C63773   0.590   6.069   6.891 -0.2566  0.8781  0.1760
  473MOL0     C63774   0.722   6.104   6.865  0.6986  0.1735 -0.3481
  473MOL0     C63775   1.184   6.128   6.873 -0.1851 -0.5568  0.1270
  473MOL0     C63776   1.252   6.052   6.973 -0.2081  0.1881 -0.0542
  473MOL0     C63777   1.388   6.057   6.984  0.2171  0.8791 -0.1011
  473MOL0     C63778   1.477   6.118   6.891  0.1636  0.0401  0.7494
  473MOL0     O63779   1.616   6.103   6.911  0.2731 -0.2704  0.6466
  473MOL0     C63780   1.705   6.179   6.836 -1.2883  0.1936 -0.6889
  473MOL0     C63781   1.847   6.154   6.888  0.1422  0.1962  0.0724
  473MOL0     C63782   1.855   6.181   7.035 -0.4388 -0.3488 -0.6809
  473MOL0     C63783   1.991   6.142   7.093  0.1261  0.8045  0.1237
  473MOL0     C63784   1.976   6.100   7.237  0.4510 -0.7033  0.0298
  473MOL0     C63785   1.958   6.075   7.354  0.2056 -0.8710 -0.1362
  473MOL0     C63786   1.416   6.192   6.790  0.1014 -0.2613 -0.4635
  473MOL0     C63787   1.274   6.199   6.785  0.3690 -0.4791  0.4185
  473MOL0     H63788   0.874   5.890   7.081 -2.0489 -0.1556  0.7160
  473MOL0     H63789   0.643   5.828   7.127  1.6889 -0.7331 -0.1099
  473MOL0     H63790   0.411   5.761   7.013 -1.1940  1.0754 -2.2185
  473MOL0     H63791   0.448   5.845   7.180  0.5468  2.8537  0.1715
  473MOL0     H63792   0.224   5.933   7.180 -1.0191 -1.5485  1.3794
  473MOL0     H63793   0.194   5.864   7.026 -0.4593  0.9471 -0.8537
  473MOL0     H63794   0.240   5.632   7.155 -2.1378 -0.1536 -0.5850
  473MOL0     H63795   0.210   5.738   7.299  0.1791  2.3916  0.4852
  473MOL0     H63796   0.018   5.718   7.056 -2.8464 -2.1253  0.4393
  473MOL0     H63797  -0.000   5.621   7.195  0.0733 -0.2126  0.3511
  473MOL0     H63798  -0.007   5.822   7.347 -2.3678 -0.9504  1.0194
  473MOL0     H63799  -0.001   5.925   7.215  1.5811 -1.3149  1.0274
  473MOL0     H63800  -0.222   5.703   7.266 -3.1862  0.6227  1.4169
  473MOL0     H63801  -0.231   5.873   7.309 -0.5536 -1.8969  1.3892
  473MOL0     H63802  -0.215   5.921   7.063  1.3004 -0.2546  1.6082
  473MOL0     H63803  -0.224   5.743   7.047  0.1468 -0.5887  0.4117
  473MOL0     H63804  -0.454   5.867   7.027 -0.4054 -2.0552 -0.9426
  473MOL0     H63805  -0.440   5.897   7.200 -2.1012  0.8850 -0.9089
  473MOL0     H63806  -0.445   5.574   6.954 -3.5962 -0.7865 -0.5407
  473MOL0     H63807  -0.473   5.314   7.033  0.5960 -0.1759  1.5743
  473MOL0     H63808  -0.579   5.293   7.171 -1.6631  2.0510  0.7645
  473MOL0     H63809  -0.700   5.245   6.942 -1.8882  1.1342 -0.3396
  473MOL0     H63810  -0.673   5.401   6.900 -0.0267 -0.8308 -0.5829
  473MOL0     H63811  -0.795   5.482   7.091  0.8319 -0.5684  1.5156
  473MOL0     H63812  -0.806   5.326   7.166  1.4180 -1.0033 -0.7484
  473MOL0     H63813  -0.952   5.393   6.917 -1.1707  4.0650  1.7094
  473MOL0     H63814  -1.029   5.376   7.068 -2.1818  0.0228 -2.9577
  473MOL0     H63815  -1.175   5.234   6.827 -1.7859 -0.8030 -1.3870
  473MOL0     H63816  -1.347   5.152   6.712 -0.0163  0.0978  0.8252
  473MOL0     H63817  -1.469   5.049   6.790  0.6012  0.1392 -2.4954
  473MOL0     H63818  -1.469   5.220   6.817 -0.0797  0.4347  2.2632
  473MOL0     H63819  -1.690   5.040   6.783 -0.0423 -1.6407  0.6311
  473MOL0     H63820  -1.901   4.962   6.737  2.0441 -1.1826 -0.0738
  473MOL0     H63821  -2.169   4.900   7.109 -0.0712  1.9493  1.0989
  473MOL0     H63822  -2.216   5.060   7.057  3.0164 -0.5728  4.0972
  473MOL0     H63823  -2.417   4.923   7.043 -2.6116  1.1569 -2.9633
  473MOL0     H63824  -2.358   4.958   6.880  4.0981 -0.8961 -1.8858
  473MOL0     H63825  -2.257   4.736   6.863 -0.1664  1.1074 -0.6446
  473MOL0     H63826  -2.429   4.722   6.893 -1.1603  1.3820  0.7559
  473MOL0     H63827  -2.214   4.673   7.109  0.1332 -2.3577  1.4823
  473MOL0     H63828  -2.394   4.681   7.124  2.7127  1.9543  2.6324
  473MOL0     H63829  -2.219   4.486   6.986  0.9866 -0.5780  2.8911
  473MOL0     H63830  -2.391   4.485   6.941  1.6388 -1.4409 -0.7302
  473MOL0     H63831  -2.370   4.327   7.079  1.0688 -0.0412  1.3130
  473MOL0     H63832  -2.290   4.427   7.203  1.0686 -2.0615 -1.0119
  473MOL0     H63833  -2.518   4.556   7.236 -1.1314  0.3380 -0.3955
  473MOL0     H63834  -2.530   4.389   7.271 -0.2387 -2.9414 -2.5199
  473MOL0     H63835  -2.602   4.395   7.005 -3.9430 -1.5293 -1.8750
  473MOL0     H63836  -2.674   4.547   7.061 -1.5516 -0.6151  0.4169
  473MOL0     H63837  -2.025   5.054   7.136  0.6531 -3.2645  1.3324
  473MOL0     H63838  -1.782   5.095   7.197  1.1968 -1.4066  0.5844
  473MOL0     H63839  -1.294   5.027   7.251  0.8315  1.4721  0.5799
  473MOL0     H63840  -1.067   5.094   7.213 -0.9742 -0.3700  0.9162
  473MOL0     H63841   0.506   6.121   6.845  0.4141  1.4274 -0.4617
  473MOL0     H63842   0.754   6.185   6.799  2.3175 -1.2091 -1.3628
  473MOL0     H63843   1.188   6.007   7.048 -2.0543  0.0987 -1.5891
  473MOL0     H63844   1.435   6.007   7.068  1.5189  4.8781  1.7971
  473MOL0     H63845   1.710   6.151   6.730 -0.2141 -1.5336 -0.2159
  473MOL0     H63846   1.694   6.287   6.848  0.0500  0.2675  0.0599
  473MOL0     H63847   1.917   6.225   6.842 -0.5807  1.6298  1.1114
  473MOL0     H63848   1.885   6.054   6.868 -1.0964 -0.1462 -0.6450
  473MOL0     H63849   1.772   6.134   7.088 -0.8974 -0.4638 -1.4823
  473MOL0     H63850   1.841   6.289   7.052 -1.4429 -0.6486  0.5882
  473MOL0     H63851   2.051   6.233   7.087 -0.6174  1.3389  0.6812
  473MOL0     H63852   2.033   6.060   7.033  1.1750  0.5353  1.2003
  473MOL0     H63853   1.936   6.058   7.457  1.8769 -1.4610  0.1542
  473MOL0     H63854   1.474   6.236   6.710 -0.6816 -0.2602 -1.0433
  473MOL0     H63855   1.230   6.249   6.699 -0.6038  0.2383  1.3017
  474MOL0     O63856   3.313   9.648   8.544 -0.9032  0.3499  0.2082
  474MOL0     C63857   3.305   9.675   8.669  0.0089 -0.6250  0.7720
  474MOL0     O63858   3.202   9.743   8.730  0.1680 -0.1907 -0.2083
  474MOL0     C63859   3.092   9.783   8.658  0.3584  0.9199  0.0294
  474MOL0     C63860   3.097   9.864   8.552 -0.9958  0.6462  0.3544
  474MOL0     C63861   2.980   9.885   8.478 -0.7401  0.7490 -0.4539
  474MOL0     C63862   2.856   9.837   8.520 -0.9279 -0.8272 -0.0306
  474MOL0     O63863   2.738   9.851   8.456  0.1249 -0.7228 -0.2889
  474MOL0     C63864   2.723   9.974   8.370 -0.7306  0.4091 -0.4686
  474MOL0     C63865   2.583   9.987   8.324 -0.0379  0.3449  0.4323
  474MOL0     C63866   2.489  10.034   8.437 -0.8476 -0.0121 -0.1621
  474MOL0     C63867   2.367  10.102   8.368  0.3082 -0.0879 -0.7467
  474MOL0     C63868   2.248  10.128   8.455  0.6060 -0.2669 -0.0373
  474MOL0     C63869   2.126  10.202   8.394 -0.2254  0.5050 -0.4212
  474MOL0     C63870   2.045  10.119   8.288 -0.1531  0.6227  0.4633
  474MOL0     C63871   1.909  10.073   8.342 -0.4249  0.7070 -0.4522
  474MOL0     N63872   1.797  10.163   8.318 -0.0720  0.0634  0.1338
  474MOL0     C63873   1.741  10.256   8.411 -0.5079 -0.3285 -0.3518
  474MOL0     C63874   1.634  10.295   8.339 -0.0190  0.2780  0.2675
  474MOL0     C63875   1.516  10.367   8.409  0.1848  0.4434  0.5034
  474MOL0     C63876   1.390  10.272   8.424  0.0097  0.3462  0.2086
  474MOL0     C63877   1.433  10.142   8.492 -1.0723  0.2697 -0.0978
  474MOL0     C63878   1.320  10.050   8.543 -1.0690  0.0004  0.8421
  474MOL0     O63879   1.227  10.115   8.642  0.3071 -0.1502  1.0211
  474MOL0     C63880   1.114  10.054   8.684  1.2794  0.3492  0.0110
  474MOL0     C63881   1.033  10.123   8.772 -0.6857 -0.4851 -0.5249
  474MOL0     C63882   0.908  10.080   8.821 -0.6975  0.1807 -0.8004
  474MOL0     C63883   0.850  10.151   8.942  0.0733  0.0773  0.9351
  474MOL0     C63884   0.852   9.961   8.770 -0.1162  0.5812 -0.7999
  474MOL0     C63885   0.723   9.912   8.822  0.5535 -0.7851 -0.5047
  474MOL0     O63886   0.724   9.778   8.809 -0.0469 -0.2444 -0.0912
  474MOL0     C63887   0.613   9.709   8.849 -0.0495  0.5322 -0.3992
  474MOL0     C63888   0.595   9.683   8.988 -0.3531 -0.2334  0.9406
  474MOL0     C63889   0.487   9.608   9.035  0.8924 -0.1038  0.4631
  474MOL0     C63890   0.391   9.562   8.942  0.4071 -0.4579 -0.0076
  474MOL0     O63891   0.284   9.483   8.985 -0.0698 -0.2162 -0.6459
  474MOL0     C63892   0.320   9.357   9.049 -0.2226 -0.8235  0.4579
  474MOL0     C63893   0.225   9.244   9.048  0.0646 -0.3181 -0.0975
  474MOL0     C63894   0.119   9.253   9.155 -0.0775  0.2262  0.6409
  474MOL0     C63895  -0.002   9.350   9.130  0.6241  0.0754 -0.4743
  474MOL0     C63896  -0.103   9.346   9.245  0.3940  0.1870  0.1324
  474MOL0     C63897  -0.192   9.231   9.230  0.8015  0.4086  1.0210
  474MOL0     C63898  -0.248   9.187   9.363  0.1406  0.0441  0.6323
  474MOL0     C63899  -0.298   9.038   9.371  0.6578 -0.5486  0.0505
  474MOL0    Cl63900  -0.350   9.004   9.546  0.5802  0.2279 -0.0737
  474MOL0     C63901   0.411   9.591   8.811 -0.4093 -0.0213 -0.1072
  474MOL0     C63902   0.517   9.659   8.765  0.3156 -0.1480 -0.2193
  474MOL0     O63903   0.637   9.973   8.889  0.1714  0.4347 -0.0478
  474MOL0     C63904   0.928   9.894   8.671 -1.3743 -0.3951 -0.1400
  474MOL0     C63905   1.056   9.933   8.623  0.2446  0.1208  0.5721
  474MOL0     N63906   1.632  10.234   8.212  0.1410  0.5310  1.3041
  474MOL0     N63907   1.729  10.158   8.205 -0.3796  0.0998 -0.0894
  474MOL0     C63908   2.849   9.755   8.627 -0.2082 -0.2102  0.2841
  474MOL0     C63909   2.966   9.722   8.687  0.0200 -0.6771 -0.2799
  474MOL0     C63910   3.413   9.620   8.745 -1.1039  1.0725 -0.0122
  474MOL0     C63911   3.391   9.580   8.876  0.1525  0.0079 -0.5017
  474MOL0     C63912   3.489   9.528   8.960 -0.0901  0.5667  0.6165
  474MOL0     C63913   3.613   9.499   8.909  0.3542 -0.4681  0.1724
  474MOL0     O63914   3.720   9.462   8.981 -0.1824  0.5688  0.0326
  474MOL0     C63915   3.713   9.469   9.117 -0.0413 -0.1375 -0.1490
  474MOL0     C63916   3.854   9.412   9.157 -1.2654  0.2964  0.5940
  474MOL0     C63917   3.836   9.301   9.264  0.1362 -0.4267 -0.2599
  474MOL0     C63918   3.972   9.235   9.289  0.0349  0.0684 -0.5988
  474MOL0     C63919   4.062   9.321   9.364 -0.2656 -0.1275 -0.4432
  474MOL0     C63920   4.145   9.397   9.417  0.7923  0.2451 -0.0842
  474MOL0     C63921   3.638   9.522   8.775  0.3406  0.2322  0.2867
  474MOL0     C63922   3.540   9.578   8.689 -0.0127  0.1509 -0.6993
  474MOL0     H63923   3.192   9.908   8.524  2.7245 -4.7536  2.8609
  474MOL0     H63924   2.983   9.931   8.379  2.1978  0.0502 -0.7795
  474MOL0     H63925   2.752  10.063   8.427  0.3112 -1.6124  2.4227
  474MOL0     H63926   2.793   9.965   8.287 -0.0205 -0.0468  0.1638
  474MOL0     H63927   2.565  10.058   8.244 -0.8102 -0.2212  0.0883
  474MOL0     H63928   2.548   9.890   8.288  1.5404  0.3852 -1.3412
  474MOL0     H63929   2.452   9.949   8.495 -3.2185  1.6519  0.8717
  474MOL0     H63930   2.539  10.098   8.510  1.4633 -0.9141 -0.8490
  474MOL0     H63931   2.400  10.200   8.331  1.7436 -0.8686 -1.5974
  474MOL0     H63932   2.329  10.039   8.287  2.9338 -1.2371 -1.1873
  474MOL0     H63933   2.220  10.031   8.496  2.1925 -1.3147 -1.2950
  474MOL0     H63934   2.279  10.186   8.543 -0.7661 -1.1018  1.0495
  474MOL0     H63935   2.055  10.227   8.474 -0.4523 -2.2260  0.3209
  474MOL0     H63936   2.145  10.289   8.330 -1.7840 -0.9253 -3.0130
  474MOL0     H63937   2.034  10.169   8.192  2.3018  0.7979  0.1882
  474MOL0     H63938   2.098  10.025   8.265 -2.0479 -0.7337  1.3703
  474MOL0     H63939   1.923  10.061   8.450 -0.5012  0.6109 -0.4531
  474MOL0     H63940   1.888   9.975   8.299 -1.4493  0.8093 -0.2097
  474MOL0     H63941   1.768  10.276   8.514 -3.6693  1.8042  0.2095
  474MOL0     H63942   1.541  10.409   8.507 -0.6323  2.0223  0.0619
  474MOL0     H63943   1.490  10.454   8.348  1.9571  0.1321 -0.7796
  474MOL0     H63944   1.346  10.256   8.325  1.1062  1.1352 -0.4385
  474MOL0     H63945   1.325  10.337   8.484  1.5085  1.4505  0.7223
  474MOL0     H63946   1.497  10.167   8.578  1.6800  0.0986 -1.9696
  474MOL0     H63947   1.502  10.083   8.432  0.7698  2.3052 -0.0874
  474MOL0     H63948   1.368   9.964   8.591  1.5282  1.8382  1.7787
  474MOL0     H63949   1.258  10.018   8.460  0.4822  2.8023 -1.5632
  474MOL0     H63950   1.062  10.223   8.803 -3.0204  0.4488 -1.0807
  474MOL0     H63951   0.901  10.242   8.974 -2.8850  2.4805 -0.6617
  474MOL0     H63952   0.749  10.176   8.906  1.7498 -0.6853 -5.3614
  474MOL0     H63953   0.857  10.089   9.032  2.7518 -0.2777  0.5577
  474MOL0     H63954   0.666   9.735   9.051 -0.3703  0.8927  0.0725
  474MOL0     H63955   0.471   9.601   9.143  2.5877  1.8558  0.9007
  474MOL0     H63956   0.416   9.325   9.007  1.4391  1.0407  2.5736
  474MOL0     H63957   0.355   9.375   9.151  1.4100  0.3149 -0.2538
  474MOL0     H63958   0.180   9.233   8.949 -2.0847 -2.2010  0.9919
  474MOL0     H63959   0.289   9.155   9.054  2.3973  1.2892  0.1627
  474MOL0     H63960   0.161   9.291   9.248 -0.5068 -0.3594  1.0759
  474MOL0     H63961   0.083   9.152   9.177 -2.9902 -0.2191 -4.5354
  474MOL0     H63962   0.024   9.455   9.112  0.2728  0.2449 -0.0416
  474MOL0     H63963  -0.038   9.307   9.037  0.0729 -3.6845  1.2818
  474MOL0     H63964  -0.169   9.433   9.250 -0.5236 -0.5604  1.7519
  474MOL0     H63965  -0.048   9.343   9.339  0.8292 -1.0675 -0.1416
  474MOL0     H63966  -0.270   9.260   9.159  0.4891 -0.4129  1.0209
  474MOL0     H63967  -0.131   9.150   9.188 -0.9957  0.7401 -2.6358
  474MOL0     H63968  -0.335   9.246   9.394 -1.4790 -1.4078 -0.8929
  474MOL0     H63969  -0.165   9.202   9.433  2.0825 -1.9481 -1.0951
  474MOL0     H63970  -0.228   8.963   9.333  0.9496  0.2300 -0.9900
  474MOL0     H63971  -0.376   9.039   9.295 -0.7842  3.5496  1.2966
  474MOL0     H63972   0.335   9.552   8.745  1.2390 -1.2540 -1.3543
  474MOL0     H63973   0.528   9.680   8.659  0.8866  1.7614  0.1782
  474MOL0     H63974   0.904   9.796   8.630  3.4039 -2.0790  0.4067
  474MOL0     H63975   1.104   9.858   8.560  1.0801  1.9803 -1.1056
  474MOL0     H63976   2.753   9.709   8.650 -1.2397  0.5598 -2.1942
  474MOL0     H63977   2.954   9.648   8.764  2.8547  0.9633  1.9132
  474MOL0     H63978   3.302   9.605   8.934  0.6116  1.8603 -0.5203
  474MOL0     H63979   3.468   9.501   9.063  0.2279 -1.0698  0.2663
  474MOL0     H63980   3.694   9.571   9.151 -1.5800 -0.4978  0.1620
  474MOL0     H63981   3.633   9.404   9.155  0.4128 -1.4372 -1.3232
  474MOL0     H63982   3.920   9.485   9.206 -2.3626 -0.4365  3.3463
  474MOL0     H63983   3.910   9.379   9.069  0.2780  1.0517  1.2443
  474MOL0     H63984   3.759   9.229   9.235 -1.9779  1.8994 -0.7181
  474MOL0     H63985   3.799   9.331   9.363  1.3000  1.4549 -0.3517
  474MOL0     H63986   4.030   9.209   9.200 -0.0363 -3.1502  0.1743
  474MOL0     H63987   3.938   9.150   9.349  0.8463 -0.5451 -0.9931
  474MOL0     H63988   4.224   9.463   9.447 -0.9696  1.9362  1.0719
  474MOL0     H63989   3.736   9.500   8.736  0.5867 -0.1023  1.0712
  474MOL0     H63990   3.573   9.588   8.586  0.9858 -0.7057 -0.4741
  475MOL0     O63991   0.544   3.502   3.542  0.1343  0.6619  0.1759
  475MOL0     C63992   0.463   3.492   3.637 -0.2737 -0.7687 -0.0263
  475MOL0     O63993   0.336   3.441   3.633  0.0667  0.3056 -0.1569
  475MOL0     C63994   0.286   3.408   3.505  0.1614  0.6573 -0.0659
  475MOL0     C63995   0.317   3.472   3.389 -0.4986 -0.2874  0.7892
  475MOL0     C63996   0.259   3.432   3.261 -0.0443 -0.8562  0.1640
  475MOL0     C63997   0.175   3.324   3.257 -0.3335 -0.1134  0.3903
  475MOL0     O63998   0.106   3.288   3.143 -0.3590  0.4404  0.3333
  475MOL0     C63999  -0.038   3.303   3.147  0.8316 -0.8112 -1.3641
  475MOL0     C64000  -0.104   3.183   3.078 -0.4321  0.4079  0.6008
  475MOL0     C64001  -0.101   3.050   3.155  0.4310  0.5682 -0.0966
  475MOL0     C64002  -0.196   2.947   3.097 -0.3849  0.6803  0.2640
  475MOL0     C64003  -0.146   2.822   3.170  0.9003  0.5607 -0.1852
  475MOL0     C64004  -0.226   2.695   3.117 -0.5886 -0.0499  0.0025
  475MOL0     C64005  -0.184   2.562   3.193  0.7771 -0.6822  0.6327
  475MOL0     C64006  -0.270   2.442   3.150 -1.0297  0.3006  0.0616
  475MOL0     N64007  -0.210   2.385   3.033  0.0259 -0.3282  1.4569
  475MOL0     C64008  -0.235   2.409   2.893 -0.1374 -0.1678  0.0202
  475MOL0     C64009  -0.152   2.331   2.826 -0.6077 -0.5475  0.5448
  475MOL0     C64010  -0.141   2.317   2.674  0.2731  0.2670 -0.6433
  475MOL0     C64011  -0.147   2.450   2.590  0.1253  0.1741 -0.7777
  475MOL0     C64012  -0.105   2.425   2.438  0.3490  0.7070  0.2886
  475MOL0     C64013  -0.125   2.556   2.363 -0.0627 -0.1945  0.6038
  475MOL0     O64014  -0.051   2.546   2.238  0.1572 -0.4230  0.2388
  475MOL0     C64015   0.022   2.658   2.196  0.0609 -0.5278  0.6955
  475MOL0     C64016  -0.024   2.790   2.224 -0.3801 -0.4504  1.1798
  475MOL0     C64017   0.052   2.905   2.189  0.3034  0.1032 -0.5387
  475MOL0     C64018  -0.012   3.037   2.209  0.0487 -0.4186  0.2446
  475MOL0     C64019   0.171   2.881   2.112  0.2972 -0.2291 -0.1155
  475MOL0     C64020   0.272   2.993   2.079  0.0598  0.3721 -0.3184
  475MOL0     O64021   0.401   2.942   2.051  0.7773 -0.2712  0.2286
  475MOL0     C64022   0.501   3.031   2.011 -0.1083 -0.2257 -0.2363
  475MOL0     C64023   0.631   3.001   2.043  0.0744  1.8285  0.5258
  475MOL0     C64024   0.743   3.071   1.997 -0.2118 -0.4661 -0.3442
  475MOL0     C64025   0.719   3.172   1.915 -0.1601 -0.2789  0.4046
  475MOL0     O64026   0.822   3.257   1.878 -0.1643 -0.2103 -0.4170
  475MOL0     C64027   0.805   3.349   1.772 -0.1738 -0.0168 -0.3053
  475MOL0     C64028   0.960   3.384   1.749  0.1197 -0.9524  0.3119
  475MOL0     C64029   0.973   3.503   1.656 -0.1805 -0.0388 -0.3204
  475MOL0     C64030   0.950   3.456   1.513 -0.0280  0.0927 -0.3255
  475MOL0     C64031   0.962   3.560   1.395 -0.3212 -0.6807  0.5701
  475MOL0     C64032   1.112   3.583   1.363  0.2452  0.0785 -0.1194
  475MOL0     C64033   1.170   3.492   1.262 -0.3315 -0.0500  0.0552
  475MOL0     C64034   1.143   3.529   1.116  0.1349 -0.1965 -0.4247
  475MOL0    Cl64035   1.251   3.426   1.023 -0.3498 -0.0811  0.5289
  475MOL0     C64036   0.586   3.213   1.884  0.0908 -0.2038  0.0458
  475MOL0     C64037   0.476   3.135   1.916 -0.0754 -0.8124  0.1159
  475MOL0     O64038   0.240   3.115   2.080  0.0556 -0.1238  0.2934
  475MOL0     C64039   0.209   2.751   2.080  0.0819  0.5435 -0.2520
  475MOL0     C64040   0.134   2.641   2.121 -0.6426  0.3767  0.2858
  475MOL0     N64041  -0.067   2.268   2.921  0.2057 -0.3086  0.1337
  475MOL0     N64042  -0.097   2.306   3.040  0.5511 -0.6459  0.8437
  475MOL0     C64043   0.145   3.251   3.375  1.4380 -0.0738  0.0139
  475MOL0     C64044   0.208   3.293   3.499  0.4452 -0.2006  0.0328
  475MOL0     C64045   0.517   3.529   3.772  0.2130  0.0932 -0.2425
  475MOL0     C64046   0.431   3.557   3.878  0.0628 -0.2039 -0.3693
  475MOL0     C64047   0.474   3.579   4.009  0.3955 -0.5173 -0.7610
  475MOL0     C64048   0.615   3.589   4.040 -0.2886 -0.4155 -0.2133
  475MOL0     O64049   0.660   3.616   4.168 -0.2031  0.4840  0.4437
  475MOL0     C64050   0.710   3.496   4.230  0.3297 -0.5267  0.1030
  475MOL0     C64051   0.860   3.526   4.259 -0.8791  1.1323  0.0972
  475MOL0     C64052   0.935   3.394   4.276  0.7253 -0.7598  0.3901
  475MOL0     C64053   1.077   3.383   4.234 -0.0682 -0.0598  0.3473
  475MOL0     C64054   1.160   3.468   4.323 -0.2467 -0.1757 -0.7363
  475MOL0     C64055   1.231   3.534   4.398 -0.2891  0.3278 -0.2415
  475MOL0     C64056   0.702   3.579   3.925 -0.2288  0.0418 -0.1468
  475MOL0     C64057   0.656   3.549   3.797  0.0274  0.3874  0.1931
  475MOL0     H64058   0.384   3.558   3.387  1.3084 -1.6003 -2.0917
  475MOL0     H64059   0.278   3.490   3.171  0.1428 -4.3372 -2.2882
  475MOL0     H64060  -0.091   3.315   3.242 -0.4911 -1.5080 -2.0004
  475MOL0     H64061  -0.052   3.396   3.091  0.1760 -0.4630 -0.6498
  475MOL0     H64062  -0.213   3.193   3.076 -0.5806 -0.8240  1.3929
  475MOL0     H64063  -0.050   3.169   2.984  3.6492 -1.3969  2.9298
  475MOL0     H64064   0.004   3.020   3.156  0.7756  1.7040  1.2854
  475MOL0     H64065  -0.134   3.062   3.258 -1.4537 -1.7145 -0.3492
  475MOL0     H64066  -0.294   2.963   3.144  0.1264  1.1046  1.2067
  475MOL0     H64067  -0.198   2.933   2.988 -2.2299 -3.4533  0.6488
  475MOL0     H64068  -0.038   2.807   3.169  0.7819 -0.5126  0.7858
  475MOL0     H64069  -0.176   2.840   3.274 -0.6579 -2.0723 -0.0799
  475MOL0     H64070  -0.334   2.710   3.127 -0.3237  1.3143  1.0433
  475MOL0     H64071  -0.208   2.689   3.009  1.1591 -1.1189  0.3125
  475MOL0     H64072  -0.078   2.548   3.172  0.9935 -0.6870  1.6608
  475MOL0     H64073  -0.191   2.579   3.301  1.7720 -3.1393  1.1337
  475MOL0     H64074  -0.372   2.474   3.128 -0.3995  0.7471 -2.4465
  475MOL0     H64075  -0.269   2.369   3.232  1.5839 -0.8129 -0.8373
  475MOL0     H64076  -0.316   2.468   2.851 -2.2765 -2.6393  0.4455
  475MOL0     H64077  -0.054   2.252   2.659 -0.2586  0.0155 -2.9758
  475MOL0     H64078  -0.223   2.256   2.635  0.9629 -0.3829 -1.1048
  475MOL0     H64079  -0.090   2.530   2.638  0.3091  1.6070 -3.1800
  475MOL0     H64080  -0.249   2.489   2.583 -0.3062 -0.3758  1.6190
  475MOL0     H64081  -0.163   2.352   2.381 -0.2688 -0.5554  2.4147
  475MOL0     H64082  -0.000   2.393   2.432  0.0800  0.0433 -1.0766
  475MOL0     H64083  -0.079   2.633   2.426  0.2064  1.2002 -1.2160
  475MOL0     H64084  -0.225   2.588   2.332  1.1234  4.2754  0.6652
  475MOL0     H64085  -0.113   2.815   2.281 -0.3991 -2.5247  2.1382
  475MOL0     H64086  -0.097   3.030   2.276  1.4771 -1.3596  2.0410
  475MOL0     H64087   0.068   3.100   2.249 -1.1673  2.1630 -1.1419
  475MOL0     H64088  -0.042   3.079   2.112 -1.4482 -1.9815 -0.0230
  475MOL0     H64089   0.652   2.921   2.113  2.1095 -0.9165 -2.8865
  475MOL0     H64090   0.843   3.051   2.034  0.2844  2.2794  0.0239
  475MOL0     H64091   0.760   3.311   1.680  0.1310  1.0035 -0.8856
  475MOL0     H64092   0.748   3.441   1.787  0.9137  1.0894 -2.5359
  475MOL0     H64093   1.021   3.407   1.837  3.9576 -2.8082 -1.5809
  475MOL0     H64094   1.013   3.301   1.702 -0.8270 -0.3147 -2.0514
  475MOL0     H64095   1.071   3.550   1.669 -1.1118  2.8249 -2.7063
  475MOL0     H64096   0.898   3.581   1.673  2.9269  2.5690  2.8739
  475MOL0     H64097   1.008   3.364   1.498 -0.8839 -0.4138 -0.5564
  475MOL0     H64098   0.845   3.428   1.508 -1.0648  3.2505  1.1924
  475MOL0     H64099   0.910   3.655   1.414  2.5318  0.8038  1.5310
  475MOL0     H64100   0.914   3.513   1.308  2.5193 -3.3641  0.2977
  475MOL0     H64101   1.122   3.684   1.323 -1.6627 -0.5065 -2.2918
  475MOL0     H64102   1.156   3.580   1.463 -0.7627  0.7011  0.3598
  475MOL0     H64103   1.142   3.390   1.288  0.3015 -0.0947  0.6011
  475MOL0     H64104   1.277   3.494   1.288 -0.8576 -0.9567  2.5628
  475MOL0     H64105   1.151   3.637   1.105 -3.0555  0.1724 -0.0564
  475MOL0     H64106   1.039   3.497   1.104  0.2399 -0.2397 -1.2495
  475MOL0     H64107   0.575   3.292   1.811  1.8054 -1.3959 -1.5887
  475MOL0     H64108   0.385   3.163   1.865 -0.3101  1.7811  1.7576
  475MOL0     H64109   0.301   2.728   2.026  1.0251 -2.0208  2.1723
  475MOL0     H64110   0.171   2.540   2.104  2.5089  1.4335  0.1220
  475MOL0     H64111   0.074   3.169   3.376 -0.8514  1.7333 -2.1006
  475MOL0     H64112   0.177   3.244   3.591  0.2860  0.8607  0.5571
  475MOL0     H64113   0.325   3.536   3.867  0.5708 -1.7407 -3.8997
  475MOL0     H64114   0.396   3.572   4.084 -0.3247 -2.0765 -1.6181
  475MOL0     H64115   0.665   3.480   4.328 -1.4154 -1.8480 -0.8401
  475MOL0     H64116   0.693   3.411   4.164 -0.7443  1.2474 -2.0641
  475MOL0     H64117   0.868   3.575   4.356 -1.2128  0.1279  0.6443
  475MOL0     H64118   0.916   3.576   4.179 -2.6983 -0.9597 -2.6967
  475MOL0     H64119   0.887   3.314   4.217 -1.3036  1.8427 -1.7873
  475MOL0     H64120   0.923   3.361   4.379 -1.7758 -0.7508  0.1708
  475MOL0     H64121   1.097   3.427   4.135 -1.4644 -0.9088 -0.3476
  475MOL0     H64122   1.107   3.278   4.239  1.3900  0.3868  2.4342
  475MOL0     H64123   1.286   3.586   4.475 -0.2007  1.1123 -0.8202
  475MOL0     H64124   0.810   3.585   3.933  0.2920  2.7572 -4.9988
  475MOL0     H64125   0.726   3.547   3.715 -1.8061  0.4595 -1.4573
  476MOL0     O64126   4.627   5.476   9.469 -0.6504  0.8031  0.3731
  476MOL0     C64127   4.691   5.394   9.546 -0.4444 -0.0864  0.6561
  476MOL0     O64128   4.640   5.264   9.569  0.5453 -0.1232  0.6869
  476MOL0     C64129   4.517   5.233   9.511 -0.0129 -0.0253  0.0546
  476MOL0     C64130   4.411   5.266   9.587  0.3328  0.3352 -0.0866
  476MOL0     C64131   4.280   5.237   9.552 -0.4736 -0.1395 -0.3491
  476MOL0     C64132   4.246   5.205   9.424  0.1046  0.1967 -0.0159
  476MOL0     O64133   4.114   5.183   9.399  0.4093  0.0933 -0.5707
  476MOL0     C64134   4.070   5.192   9.269  0.3423 -0.1678 -0.2765
  476MOL0     C64135   3.912   5.161   9.278 -0.0349  0.1189  0.5708
  476MOL0     C64136   3.837   5.277   9.358 -0.3405  0.2076  0.7270
  476MOL0     C64137   3.684   5.248   9.353 -0.2624 -0.4545  0.0242
  476MOL0     C64138   3.609   5.367   9.420 -0.8011  0.2396  0.6110
  476MOL0     C64139   3.458   5.351   9.429  0.9210  0.4662  0.0364
  476MOL0     C64140   3.375   5.328   9.303 -0.6037 -0.4229 -0.2435
  476MOL0     C64141   3.347   5.181   9.261  0.1758 -0.0782  0.7982
  476MOL0     N64142   3.262   5.107   9.351 -0.2856  0.0574 -0.0497
  476MOL0     C64143   3.122   5.129   9.379  0.4125  0.5784 -0.1566
  476MOL0     C64144   3.094   5.046   9.483  0.1492  0.3166 -0.0005
  476MOL0     C64145   2.959   5.022   9.543  0.2141  1.3022 -0.0952
  476MOL0     C64146   2.849   5.021   9.442 -0.1577  0.6825  0.5341
  476MOL0     C64147   2.717   5.023   9.520  0.1441  0.3258  0.6045
  476MOL0     C64148   2.701   4.925   9.630 -0.8777  0.9720 -0.4193
  476MOL0     O64149   2.658   4.797   9.589  0.9040 -0.1399  0.3918
  476MOL0     C64150   2.527   4.769   9.606 -0.4083  0.8748 -0.0529
  476MOL0     C64151   2.424   4.861   9.606  0.2353 -0.4274 -0.7548
  476MOL0     C64152   2.285   4.820   9.616 -0.0771 -0.5025 -0.4272
  476MOL0     C64153   2.190   4.920   9.575 -0.2802 -0.8457 -0.1508
  476MOL0     C64154   2.245   4.688   9.630 -0.0438 -0.0073 -0.0603
  476MOL0     C64155   2.105   4.643   9.650 -0.0080  0.0608 -0.7122
  476MOL0     O64156   2.026   4.733   9.718 -0.0875 -0.7710 -0.7611
  476MOL0     C64157   1.909   4.692   9.781 -0.5987 -0.1198  0.9267
  476MOL0     C64158   1.877   4.558   9.820  1.2124  0.4249  0.4159
  476MOL0     C64159   1.746   4.528   9.879  0.1284  0.2161  0.5738
  476MOL0     C64160   1.648   4.633   9.895 -1.3553  0.1537  0.4488
  476MOL0     O64161   1.532   4.595   9.960 -0.0874 -0.2810 -0.6603
  476MOL0     C64162   1.442   4.701   9.997  0.1005  1.0690  0.5765
  476MOL0     C64163   1.311   4.628  10.037  0.2314 -0.6243  0.1043
  476MOL0     C64164   1.208   4.715  10.097 -0.2466  0.2498  0.2464
  476MOL0     C64165   1.131   4.813  10.013  0.3698 -0.4090  0.1185
  476MOL0     C64166   1.037   4.897  10.100 -0.3840  0.2344 -0.0704
  476MOL0     C64167   0.921   4.956  10.018 -0.6560  0.0868  0.1858
  476MOL0     C64168   0.954   5.056   9.910  0.0963  0.6001  0.1546
  476MOL0     C64169   0.975   5.001   9.772 -0.0673  0.2799  0.4850
  476MOL0    Cl64170   0.814   4.931   9.712  0.5616  0.0918 -0.0519
  476MOL0     C64171   1.691   4.761   9.860 -0.0007  0.0258 -0.2066
  476MOL0     C64172   1.811   4.789   9.797 -0.0048 -0.4835  0.1880
  476MOL0     O64173   2.064   4.538   9.597 -0.0659 -0.8342  1.2796
  476MOL0     C64174   2.351   4.595   9.629 -0.3709 -0.0529 -0.5930
  476MOL0     C64175   2.484   4.634   9.612  0.0190  0.0768 -1.3827
  476MOL0     N64176   3.212   4.977   9.503  0.3226  0.1450 -0.2777
  476MOL0     N64177   3.310   5.008   9.429  0.7158 -0.0625  0.2482
  476MOL0     C64178   4.354   5.184   9.336 -0.4031 -0.0093 -0.2269
  476MOL0     C64179   4.492   5.192   9.382  0.7232 -0.3251  0.5762
  476MOL0     C64180   4.835   5.421   9.572  0.1894  0.0300 -0.0667
  476MOL0     C64181   4.887   5.547   9.538 -0.1209  0.2847  0.0818
  476MOL0     C64182   5.024   5.566   9.560  0.0742  0.4911 -0.7167
  476MOL0     C64183   5.111   5.463   9.607  0.1057 -0.3956 -0.3646
  476MOL0     O64184   5.241   5.505   9.635  0.5019  0.0209  0.0931
  476MOL0     C64185   5.330   5.402   9.678  0.4724 -0.9616  0.2173
  476MOL0     C64186   5.378   5.321   9.555  0.7086  0.7434  0.3118
  476MOL0     C64187   5.428   5.414   9.442 -0.0924 -0.8031 -0.9543
  476MOL0     C64188   5.494   5.343   9.325 -0.5705 -0.4257  0.2751
  476MOL0     C64189   5.523   5.440   9.220 -0.6257 -0.4928  0.1453
  476MOL0     C64190   5.541   5.504   9.120 -0.4825  0.8027  0.3015
  476MOL0     C64191   5.056   5.337   9.635 -0.3526  0.3101 -0.3579
  476MOL0     C64192   4.918   5.317   9.612 -0.7397 -0.3374 -0.2894
  476MOL0     H64193   4.420   5.302   9.689  2.3164 -1.8186  0.5863
  476MOL0     H64194   4.190   5.258   9.609 -0.0009  0.9199  0.0214
  476MOL0     H64195   4.100   5.282   9.216 -0.4437 -0.3782 -1.0961
  476MOL0     H64196   4.115   5.101   9.229 -0.2479 -0.3438 -0.5482
  476MOL0     H64197   3.881   5.143   9.175  1.9188 -1.1671  0.1327
  476MOL0     H64198   3.899   5.067   9.332 -1.2751 -0.3694 -0.5258
  476MOL0     H64199   3.863   5.277   9.464 -0.7485 -0.7771  0.8388
  476MOL0     H64200   3.857   5.375   9.314 -0.1183  0.5251  1.5274
  476MOL0     H64201   3.646   5.229   9.252 -0.5798 -2.9485  0.5576
  476MOL0     H64202   3.672   5.158   9.413  2.6894 -1.7279 -1.0620
  476MOL0     H64203   3.652   5.384   9.519 -1.8519 -0.5927  1.2256
  476MOL0     H64204   3.626   5.450   9.350 -2.4208 -1.2231 -1.6438
  476MOL0     H64205   3.428   5.272   9.498 -1.0461  1.3831  0.2870
  476MOL0     H64206   3.425   5.447   9.469 -1.0902 -0.2723  0.2398
  476MOL0     H64207   3.278   5.374   9.322  0.0677  0.3106  1.5982
  476MOL0     H64208   3.423   5.378   9.217 -0.8403  0.5778  0.1947
  476MOL0     H64209   3.440   5.127   9.240 -0.0067 -0.3283  0.6407
  476MOL0     H64210   3.300   5.191   9.163 -0.5438 -1.9049  0.9309
  476MOL0     H64211   3.053   5.192   9.324 -2.5883 -0.2020  2.4596
  476MOL0     H64212   2.964   4.918   9.577 -0.4384  0.8629 -1.2594
  476MOL0     H64213   2.951   5.088   9.630 -1.6783 -1.1808  1.7631
  476MOL0     H64214   2.852   4.933   9.376 -0.5777 -1.1957  2.8604
  476MOL0     H64215   2.852   5.110   9.380 -2.3150  0.9207  0.7057
  476MOL0     H64216   2.639   5.012   9.444  2.8060 -1.1776 -2.1082
  476MOL0     H64217   2.706   5.123   9.564 -0.1286 -1.2471  4.5186
  476MOL0     H64218   2.642   4.957   9.716  1.8387 -2.3398  3.0096
  476MOL0     H64219   2.792   4.916   9.690 -0.7877 -0.8626 -0.7446
  476MOL0     H64220   2.448   4.967   9.604 -1.1487 -0.0798 -0.1979
  476MOL0     H64221   2.225   4.996   9.505  0.3229 -0.1924  0.8222
  476MOL0     H64222   2.112   4.874   9.514  2.6384 -0.6825 -4.4461
  476MOL0     H64223   2.138   4.970   9.657 -2.2784  3.1015 -3.4915
  476MOL0     H64224   1.959   4.487   9.814  0.1575 -0.9471  1.4948
  476MOL0     H64225   1.722   4.425   9.903 -1.2783 -0.4448 -3.0032
  476MOL0     H64226   1.491   4.749  10.082 -0.7456 -1.2943  2.5406
  476MOL0     H64227   1.427   4.774   9.917 -1.1040 -0.3205 -0.5267
  476MOL0     H64228   1.273   4.572   9.951 -0.2477 -0.6101  0.3062
  476MOL0     H64229   1.341   4.551  10.108  1.2244 -0.3724 -0.0231
  476MOL0     H64230   1.250   4.776  10.178  1.8968  1.0457 -1.3880
  476MOL0     H64231   1.131   4.644  10.129 -1.3207 -0.0667 -2.7258
  476MOL0     H64232   1.197   4.885   9.964 -1.0932  0.3921 -0.7180
  476MOL0     H64233   1.074   4.768   9.931 -0.2214  1.2229 -0.3977
  476MOL0     H64234   1.085   4.980  10.152 -2.6136  2.0564 -0.7474
  476MOL0     H64235   1.002   4.830  10.179 -2.0053  0.2017 -0.7687
  476MOL0     H64236   0.870   4.867   9.979 -0.6224  0.1091  0.0907
  476MOL0     H64237   0.848   5.001  10.086 -0.7589  0.5227 -0.2167
  476MOL0     H64238   1.045   5.112   9.933  0.8251 -1.3704  2.5180
  476MOL0     H64239   0.873   5.130   9.905  1.5976  2.2273 -1.6424
  476MOL0     H64240   1.048   4.919   9.776 -0.6006 -0.4098 -2.1465
  476MOL0     H64241   1.013   5.075   9.701  0.2261  0.0339  0.3792
  476MOL0     H64242   1.616   4.837   9.876 -1.6464 -1.2500 -1.4643
  476MOL0     H64243   1.827   4.893   9.769 -0.8860  0.1788  1.9816
  476MOL0     H64244   2.325   4.491   9.644  1.8187 -0.9964 -2.6766
  476MOL0     H64245   2.551   4.549   9.607  0.4584  0.3201 -0.1178
  476MOL0     H64246   4.339   5.156   9.232  0.4121 -0.3642 -0.2585
  476MOL0     H64247   4.573   5.154   9.321  0.3935 -0.5801  0.2976
  476MOL0     H64248   4.837   5.634   9.495  2.0711  2.4426  1.6197
  476MOL0     H64249   5.073   5.656   9.524 -0.9932 -0.0281 -3.7111
  476MOL0     H64250   5.418   5.450   9.721 -1.3131  2.7196  0.1046
  476MOL0     H64251   5.286   5.338   9.756 -0.2396 -0.2973  0.3702
  476MOL0     H64252   5.308   5.245   9.520  0.3215  0.5020  1.5482
  476MOL0     H64253   5.461   5.263   9.597 -1.3786 -3.1177 -0.4240
  476MOL0     H64254   5.510   5.478   9.476  0.6784 -1.8538 -0.7584
  476MOL0     H64255   5.345   5.472   9.402 -0.6150 -1.0309 -0.2283
  476MOL0     H64256   5.425   5.267   9.287 -0.4003 -1.5970  2.1591
  476MOL0     H64257   5.587   5.290   9.348  0.3313  0.3696 -1.3625
  476MOL0     H64258   5.529   5.561   9.030 -1.3432 -0.1448 -0.2082
  476MOL0     H64259   5.092   5.246   9.682 -1.7335 -0.9805 -1.6736
  476MOL0     H64260   4.876   5.220   9.636 -3.2514  0.2970 -1.8409
  477MOL0     O64261   5.926   7.838   8.194  0.2017  0.6794 -0.4930
  477MOL0     C64262   5.989   7.940   8.215  0.1707  0.2923  0.4382
  477MOL0     O64263   5.936   8.059   8.243 -0.6008 -0.0813  0.1112
  477MOL0     C64264   5.804   8.064   8.260 -0.1812 -0.8710  0.9177
  477MOL0     C64265   5.716   8.016   8.161 -0.9334  0.3008 -0.6506
  477MOL0     C64266   5.583   8.045   8.169  0.1751 -0.7652 -0.5967
  477MOL0     C64267   5.531   8.132   8.269  0.5550  0.1172  0.3448
  477MOL0     O64268   5.400   8.159   8.286 -0.2453 -0.0702 -0.0856
  477MOL0     C64269   5.319   8.103   8.190 -0.2086  0.5736 -0.1149
  477MOL0     C64270   5.169   8.131   8.199  0.7969  0.3569 -0.4321
  477MOL0     C64271   5.110   8.079   8.061  1.1499  1.3383 -0.6179
  477MOL0     C64272   4.954   8.082   8.058 -0.9693 -0.0260 -0.6599
  477MOL0     C64273   4.911   8.012   7.921  0.7139  0.1700 -0.3530
  477MOL0     C64274   4.777   7.936   7.949  0.3700 -0.5331  0.1608
  477MOL0     C64275   4.731   7.878   7.814  0.0366 -0.6517  0.4026
  477MOL0     C64276   4.833   7.777   7.766 -0.0639  0.6252  1.1581
  477MOL0     N64277   4.851   7.668   7.862  0.2701  0.3769  0.0778
  477MOL0     C64278   4.972   7.626   7.908 -0.8565 -0.4315 -0.0030
  477MOL0     C64279   4.960   7.534   8.004  0.7333 -0.4931 -0.1151
  477MOL0     C64280   5.066   7.459   8.088  0.2355 -0.3931  1.2105
  477MOL0     C64281   5.113   7.324   8.021 -0.9040  0.0748  1.3093
  477MOL0     C64282   5.222   7.351   7.919 -0.7820 -0.2229  0.2906
  477MOL0     C64283   5.254   7.229   7.828  0.2325 -0.0413  0.2897
  477MOL0     O64284   5.358   7.258   7.739 -0.4076  0.4258 -0.4290
  477MOL0     C64285   5.488   7.233   7.767  0.4028 -0.0041 -0.0804
  477MOL0     C64286   5.545   7.208   7.892  0.3574  0.7561  0.1452
  477MOL0     C64287   5.673   7.167   7.902  0.2020 -0.4891 -0.1717
  477MOL0     C64288   5.712   7.101   8.037 -1.0537  0.5917  0.1401
  477MOL0     C64289   5.762   7.183   7.793 -0.6824 -0.7144  0.6087
  477MOL0     C64290   5.909   7.152   7.808 -1.2340 -0.1500 -0.6035
  477MOL0     O64291   5.973   7.127   7.697  1.2016  0.6356  0.2062
  477MOL0     C64292   6.099   7.084   7.707 -0.3561  0.9445 -0.0251
  477MOL0     C64293   6.195   7.179   7.680 -0.0569 -0.1786  0.2982
  477MOL0     C64294   6.334   7.142   7.707 -0.4442 -0.4514 -0.0026
  477MOL0     C64295   6.365   7.017   7.751 -0.1441  0.2048 -0.1152
  477MOL0     O64296   6.500   6.993   7.756  0.2956 -0.2331 -0.6723
  477MOL0     C64297   6.535   6.861   7.768 -0.7079 -0.0013 -0.7786
  477MOL0     C64298   6.685   6.841   7.782  0.0401 -0.1363 -0.5003
  477MOL0     C64299   6.760   6.919   7.889  0.4921  0.4334 -0.1215
  477MOL0     C64300   6.829   6.828   7.979  0.8791  1.0449  0.7097
  477MOL0     C64301   6.921   6.900   8.081  0.0212 -0.0117 -0.5682
  477MOL0     C64302   6.972   6.810   8.189  0.3355  0.6817 -0.0252
  477MOL0     C64303   7.061   6.887   8.289  0.5591 -0.3450  0.1138
  477MOL0     C64304   7.206   6.870   8.250  0.2304  0.0270 -0.3224
  477MOL0    Cl64305   7.310   6.957   8.364 -0.2298  0.6449 -0.2438
  477MOL0     C64306   6.266   6.913   7.762 -0.1451 -0.4273 -0.4055
  477MOL0     C64307   6.129   6.948   7.741 -0.2142  0.2852  0.0826
  477MOL0     O64308   5.966   7.173   7.917 -0.1158  0.2387  0.5598
  477MOL0     C64309   5.715   7.237   7.674 -0.1143  0.0484 -0.0095
  477MOL0     C64310   5.577   7.249   7.660 -0.5696 -0.6194 -0.5150
  477MOL0     N64311   4.824   7.504   8.011 -0.6789 -0.3541  0.3479
  477MOL0     N64312   4.758   7.579   7.929  0.7345 -0.8548  0.6302
  477MOL0     C64313   5.623   8.183   8.358  0.1163 -0.1737 -0.6755
  477MOL0     C64314   5.754   8.144   8.355 -0.5528 -0.0199 -0.3328
  477MOL0     C64315   6.132   7.928   8.225 -0.6540 -0.3059 -0.0520
  477MOL0     C64316   6.209   8.021   8.303 -0.3587  0.7849 -0.0547
  477MOL0     C64317   6.348   8.000   8.328  0.0274  1.1593  0.0795
  477MOL0     C64318   6.408   7.885   8.272  0.1780  0.2947  0.6344
  477MOL0     O64319   6.536   7.842   8.307 -0.1419 -0.2714  1.2450
  477MOL0     C64320   6.640   7.938   8.340  0.4553  0.4569  0.3519
  477MOL0     C64321   6.767   7.895   8.245  0.1317 -0.1559 -0.1004
  477MOL0     C64322   6.871   8.005   8.245 -0.4303 -0.0313 -1.0202
  477MOL0     C64323   6.988   7.965   8.153  0.2205  0.2623  0.5994
  477MOL0     C64324   7.064   7.853   8.219  0.5597 -0.2280  0.5383
  477MOL0     C64325   7.122   7.764   8.273 -0.2102  0.7735  0.0903
  477MOL0     C64326   6.333   7.782   8.210  1.1924 -0.1522 -1.3849
  477MOL0     C64327   6.202   7.812   8.186  0.6629  0.5660  0.4695
  477MOL0     H64328   5.754   7.959   8.077 -2.1030  0.5355 -1.3581
  477MOL0     H64329   5.525   8.002   8.088  0.0887  1.0894 -1.5706
  477MOL0     H64330   5.357   8.127   8.090 -1.4618  1.4036 -0.4210
  477MOL0     H64331   5.323   7.997   8.215  1.9627  0.1634 -1.9021
  477MOL0     H64332   5.128   8.089   8.291 -0.5831  2.9137  0.1982
  477MOL0     H64333   5.153   8.239   8.204  0.9789  0.3251  1.8760
  477MOL0     H64334   5.157   8.123   7.973 -0.6704  1.2746 -1.6514
  477MOL0     H64335   5.140   7.974   8.054 -1.7514  0.5321 -3.3336
  477MOL0     H64336   4.910   8.023   8.139 -3.7709  0.9650 -1.3522
  477MOL0     H64337   4.910   8.182   8.070 -4.0086 -1.2833 -0.5342
  477MOL0     H64338   4.891   8.094   7.852  0.3574 -0.3572 -0.8913
  477MOL0     H64339   4.988   7.944   7.884 -0.4896 -2.0748  1.0327
  477MOL0     H64340   4.790   7.848   8.013 -0.5739 -1.2846 -0.6307
  477MOL0     H64341   4.702   8.002   7.994 -1.3815 -1.4485 -1.2672
  477MOL0     H64342   4.640   7.819   7.825  1.0556 -2.2654  0.5605
  477MOL0     H64343   4.710   7.954   7.739 -2.1743  0.8496  2.4037
  477MOL0     H64344   4.928   7.820   7.733 -0.8037  1.9965  0.7231
  477MOL0     H64345   4.797   7.727   7.675  0.2862 -2.5486  2.6172
  477MOL0     H64346   5.065   7.675   7.882 -0.4243 -0.7703  0.8888
  477MOL0     H64347   5.157   7.520   8.096 -0.1514  0.2606  0.7641
  477MOL0     H64348   5.030   7.457   8.191 -0.8990  2.2499  0.9471
  477MOL0     H64349   5.032   7.279   7.962  0.8941  0.4799 -1.7010
  477MOL0     H64350   5.142   7.247   8.092  1.8970 -1.2732 -1.0687
  477MOL0     H64351   5.316   7.381   7.966 -1.4211  2.8587 -0.1869
  477MOL0     H64352   5.186   7.432   7.855 -0.3896  0.0749  0.4412
  477MOL0     H64353   5.171   7.192   7.767  2.0400 -0.6823 -1.9175
  477MOL0     H64354   5.287   7.148   7.895 -2.1733 -1.3743 -0.0110
  477MOL0     H64355   5.497   7.202   7.990  1.2601  0.8123  0.6006
  477MOL0     H64356   5.803   7.042   8.022  1.1339  4.0657 -1.5402
  477MOL0     H64357   5.723   7.171   8.120 -0.4443  0.9633 -0.2489
  477MOL0     H64358   5.638   7.023   8.059  0.5387 -1.2714 -0.7525
  477MOL0     H64359   6.167   7.282   7.659  0.4076 -0.2369 -0.6624
  477MOL0     H64360   6.411   7.218   7.708 -2.1904  1.4200  0.5747
  477MOL0     H64361   6.499   6.809   7.857 -0.2498 -0.8197 -1.0597
  477MOL0     H64362   6.493   6.805   7.683  0.8781 -3.4949  0.5723
  477MOL0     H64363   6.698   6.733   7.798 -0.5937 -0.0555  0.6459
  477MOL0     H64364   6.718   6.862   7.680  0.1352  1.9830 -0.0715
  477MOL0     H64365   6.696   6.994   7.937 -1.7310 -0.9632 -0.7828
  477MOL0     H64366   6.838   6.980   7.841 -0.4719  2.3233  0.5940
  477MOL0     H64367   6.749   6.778   8.033 -0.6285  0.5847 -1.7839
  477MOL0     H64368   6.885   6.754   7.921 -1.8568 -2.7609  2.5401
  477MOL0     H64369   6.859   6.973   8.133  2.0870  0.5375  1.2840
  477MOL0     H64370   7.006   6.950   8.034  1.2636 -1.2683  0.2653
  477MOL0     H64371   6.892   6.765   8.248 -0.0008 -0.2558 -1.1549
  477MOL0     H64372   7.010   6.721   8.138 -1.4588 -0.3967  0.4241
  477MOL0     H64373   7.056   6.851   8.392  1.1071  0.3070  0.3764
  477MOL0     H64374   7.017   6.987   8.294 -4.5269 -2.2195 -1.2624
  477MOL0     H64375   7.232   6.887   8.145  2.4651 -1.0539 -0.0014
  477MOL0     H64376   7.229   6.764   8.264 -1.5310 -0.1609  1.5995
  477MOL0     H64377   6.291   6.811   7.787  1.7228 -0.0334 -0.5467
  477MOL0     H64378   6.063   6.864   7.763  0.7528 -0.6781 -0.6194
  477MOL0     H64379   5.781   7.259   7.590 -2.6320  2.1079 -1.6280
  477MOL0     H64380   5.542   7.281   7.563  2.0816 -0.3401 -1.4729
  477MOL0     H64381   5.594   8.248   8.440 -1.1565 -1.2878 -0.2102
  477MOL0     H64382   5.819   8.187   8.430  0.5760  2.3843 -2.5171
  477MOL0     H64383   6.165   8.112   8.342  3.8001  3.0911 -0.1411
  477MOL0     H64384   6.401   8.070   8.392  0.6178 -0.8376  1.9087
  477MOL0     H64385   6.609   8.036   8.303 -2.2754  0.5577  2.6251
  477MOL0     H64386   6.654   7.940   8.448 -1.8957 -3.3463  0.9088
  477MOL0     H64387   6.732   7.877   8.143 -2.2887 -0.4709  0.7201
  477MOL0     H64388   6.800   7.797   8.281  0.9724  0.6274  1.3689
  477MOL0     H64389   6.910   8.025   8.345 -0.4358 -2.8113 -0.3701
  477MOL0     H64390   6.836   8.101   8.206 -0.8121 -0.0376 -0.6962
  477MOL0     H64391   7.053   8.051   8.141  3.9735 -2.4758 -0.5661
  477MOL0     H64392   6.954   7.931   8.055  0.9009  1.3101 -0.0071
  477MOL0     H64393   7.180   7.678   8.298  1.2375  1.3720 -0.9992
  477MOL0     H64394   6.380   7.691   8.174 -0.9907 -2.4030  1.0293
  477MOL0     H64395   6.134   7.743   8.138 -0.0985  1.9600 -0.5426
  478MOL0     O64396   2.059   6.111   8.083 -0.8236  0.2611 -0.0670
  478MOL0     C64397   2.128   6.014   8.074 -0.9517  0.4031  0.0535
  478MOL0     O64398   2.086   5.899   8.009  0.5907 -0.5004  0.2636
  478MOL0     C64399   1.955   5.892   7.970 -0.3225 -0.1287 -0.3197
  478MOL0     C64400   1.858   5.881   8.069  0.5774 -0.7183  0.1607
  478MOL0     C64401   1.723   5.864   8.033 -0.4904  0.3924 -0.8357
  478MOL0     C64402   1.685   5.844   7.901  0.9078  0.2531  0.1480
  478MOL0     O64403   1.556   5.822   7.867  0.8883  0.3180 -0.2295
  478MOL0     C64404   1.530   5.696   7.808  0.6152  0.1969  0.2344
  478MOL0     C64405   1.400   5.645   7.871  0.4519 -0.5705 -0.3380
  478MOL0     C64406   1.275   5.730   7.845  0.7186  0.2921 -0.3401
  478MOL0     C64407   1.139   5.652   7.869 -0.3134 -0.1807  0.1416
  478MOL0     C64408   1.013   5.718   7.806 -0.0428  0.0760  0.8658
  478MOL0     C64409   0.980   5.855   7.854 -0.0792  0.6002 -0.8190
  478MOL0     C64410   0.959   5.850   8.011  0.3914 -0.2204 -0.0270
  478MOL0     C64411   0.946   5.982   8.077  0.7344 -1.0760  0.0710
  478MOL0     N64412   0.813   6.046   8.053  0.4569 -0.8138 -0.2333
  478MOL0     C64413   0.709   6.074   8.148 -0.3579 -0.1271 -0.3759
  478MOL0     C64414   0.601   6.112   8.071 -0.0140 -0.2260 -0.0884
  478MOL0     C64415   0.459   6.145   8.128 -0.2169 -0.4421  0.1582
  478MOL0     C64416   0.352   6.165   8.017  0.0231  0.0127 -0.1424
  478MOL0     C64417   0.227   6.245   8.067  0.4622 -0.0090 -0.7003
  478MOL0     C64418   0.128   6.150   8.134 -0.5082  0.0666 -0.4033
  478MOL0     O64419   0.025   6.224   8.199  0.5531 -0.4370 -0.3702
  478MOL0     C64420  -0.067   6.308   8.140 -0.1389  0.9849 -0.3832
  478MOL0     C64421  -0.086   6.313   8.006 -0.1472  0.7470 -0.3272
  478MOL0     C64422  -0.180   6.395   7.951  0.7887 -0.3357  0.2432
  478MOL0     C64423  -0.202   6.377   7.805 -0.5150  0.0834 -0.4028
  478MOL0     C64424  -0.248   6.492   8.033  0.4077 -0.3866 -0.3248
  478MOL0     C64425  -0.348   6.598   7.988 -0.2344 -0.4263  0.3351
  478MOL0     O64426  -0.406   6.685   8.086 -0.3145 -0.1183  0.5402
  478MOL0     C64427  -0.520   6.767   8.057 -0.3553  0.3572  0.1220
  478MOL0     C64428  -0.606   6.740   7.951  1.0801 -0.1673  0.2701
  478MOL0     C64429  -0.726   6.815   7.935  0.4173  0.3336 -0.3959
  478MOL0     C64430  -0.773   6.898   8.033  0.7015 -0.0870  0.3521
  478MOL0     O64431  -0.893   6.969   8.018  0.1895  1.2384  0.0975
  478MOL0     C64432  -0.925   7.078   8.106 -0.1760 -0.0301 -0.0777
  478MOL0     C64433  -1.072   7.111   8.084  0.1232  0.3414  0.0473
  478MOL0     C64434  -1.121   7.233   8.159 -0.2968 -0.1345 -0.2861
  478MOL0     C64435  -1.055   7.359   8.108  0.7093  0.3125 -0.2138
  478MOL0     C64436  -1.162   7.471   8.096  0.0918  0.0843 -0.9517
  478MOL0     C64437  -1.197   7.523   8.236  0.2752 -0.2003 -0.8039
  478MOL0     C64438  -1.256   7.668   8.215 -0.0479 -0.5263  0.2732
  478MOL0     C64439  -1.152   7.773   8.182 -1.5991 -0.0788 -0.6599
  478MOL0    Cl64440  -1.001   7.762   8.284  0.1532  0.0892 -0.3709
  478MOL0     C64441  -0.694   6.922   8.144  0.1714  1.0149  0.6029
  478MOL0     C64442  -0.565   6.861   8.147 -0.0854 -0.0465 -0.9203
  478MOL0     O64443  -0.365   6.607   7.868 -0.7161 -0.1385  0.0158
  478MOL0     C64444  -0.219   6.493   8.167  0.3622  0.3378 -0.4555
  478MOL0     C64445  -0.137   6.394   8.222  0.4066 -1.0700 -0.2040
  478MOL0     N64446   0.644   6.120   7.942 -0.2565 -1.3423 -0.0568
  478MOL0     N64447   0.763   6.079   7.925 -0.2763  0.0423  0.4355
  478MOL0     C64448   1.784   5.842   7.801  0.1722  0.2411  0.0344
  478MOL0     C64449   1.920   5.861   7.839  0.3199  0.3986  0.8026
  478MOL0     C64450   2.266   6.024   8.131  0.5796 -0.3823  0.0531
  478MOL0     C64451   2.317   6.144   8.195  0.1758 -0.2238  0.6621
  478MOL0     C64452   2.456   6.153   8.246 -0.0455  0.8254  0.4089
  478MOL0     C64453   2.539   6.036   8.245  0.9367  0.5546  0.3847
  478MOL0     O64454   2.663   6.031   8.303 -0.5109 -0.3459 -0.1095
  478MOL0     C64455   2.742   6.140   8.359 -0.2848 -0.1401 -0.7781
  478MOL0     C64456   2.881   6.106   8.317 -0.1582  0.5930  0.9653
  478MOL0     C64457   2.902   6.168   8.173  0.0020 -0.7362 -0.3404
  478MOL0     C64458   2.945   6.064   8.080 -0.6984  0.5807  0.0731
  478MOL0     C64459   2.841   5.969   8.034  0.6355  0.1013  0.4732
  478MOL0     C64460   2.755   5.887   7.998 -0.0760  0.4786 -0.7177
  478MOL0     C64461   2.479   5.917   8.201 -0.4520 -1.1063  0.2651
  478MOL0     C64462   2.339   5.913   8.158 -0.4450  0.1871  0.4496
  478MOL0     H64463   1.897   5.893   8.170  0.8498  0.8414 -0.1083
  478MOL0     H64464   1.641   5.855   8.104  0.0940 -0.5112 -0.2549
  478MOL0     H64465   1.524   5.711   7.699  0.1099 -0.3699  0.1804
  478MOL0     H64466   1.607   5.620   7.826  0.4596 -0.7310 -2.5415
  478MOL0     H64467   1.383   5.546   7.828  0.4362 -0.6796 -0.0848
  478MOL0     H64468   1.409   5.644   7.980  2.7144  1.4239 -0.4420
  478MOL0     H64469   1.272   5.806   7.923 -0.5672 -0.3654  0.2916
  478MOL0     H64470   1.283   5.777   7.747 -1.2974  1.1285 -0.1546
  478MOL0     H64471   1.151   5.554   7.821  2.4817 -0.0609  0.4337
  478MOL0     H64472   1.124   5.643   7.977 -0.2320  0.1699  0.1826
  478MOL0     H64473   1.036   5.724   7.699  1.2888  3.1711  1.2252
  478MOL0     H64474   0.926   5.653   7.818  0.6421 -1.3412 -1.3052
  478MOL0     H64475   1.058   5.926   7.825 -1.3486  2.3104 -0.1590
  478MOL0     H64476   0.895   5.900   7.802  0.1774 -1.9033 -3.6938
  478MOL0     H64477   0.872   5.788   8.034 -0.0895 -0.4981 -2.3681
  478MOL0     H64478   1.050   5.809   8.056 -0.3019 -2.7158 -0.7269
  478MOL0     H64479   1.029   6.050   8.057 -0.6668  0.3073 -1.4234
  478MOL0     H64480   0.950   5.960   8.184  1.9163 -2.6193 -0.2508
  478MOL0     H64481   0.705   6.060   8.255 -0.5313  1.6606 -0.1028
  478MOL0     H64482   0.424   6.074   8.204  0.7829 -4.2385 -2.6104
  478MOL0     H64483   0.471   6.240   8.181 -2.7912  0.8771 -1.4210
  478MOL0     H64484   0.327   6.069   7.971  0.9379  0.5405 -1.8071
  478MOL0     H64485   0.384   6.225   7.932  0.1799 -2.6837 -2.1003
  478MOL0     H64486   0.175   6.293   7.983 -0.3785  0.8748  0.2964
  478MOL0     H64487   0.263   6.323   8.135  1.9714 -0.5554 -0.8473
  478MOL0     H64488   0.183   6.087   8.205 -1.2601 -3.2689 -2.5412
  478MOL0     H64489   0.075   6.089   8.060  0.0557  0.0556 -0.8019
  478MOL0     H64490  -0.031   6.237   7.951  1.0495  2.1383 -1.1125
  478MOL0     H64491  -0.145   6.446   7.743  1.5818 -1.1326  0.0863
  478MOL0     H64492  -0.191   6.272   7.774 -2.4804 -0.4479  0.4846
  478MOL0     H64493  -0.308   6.387   7.779  0.1660  0.7801 -3.2285
  478MOL0     H64494  -0.592   6.663   7.876  0.3546  0.4565 -0.5222
  478MOL0     H64495  -0.781   6.804   7.842 -2.4878  2.7581  0.8678
  478MOL0     H64496  -0.898   7.057   8.210  1.6860  1.6348 -0.1675
  478MOL0     H64497  -0.868   7.164   8.070 -1.1019 -0.6328 -3.3231
  478MOL0     H64498  -1.074   7.134   7.977  3.1972  1.1080  0.0557
  478MOL0     H64499  -1.124   7.019   8.110 -0.5927  0.9085  0.6639
  478MOL0     H64500  -1.103   7.218   8.266 -0.3201 -0.3438 -0.3114
  478MOL0     H64501  -1.230   7.233   8.149 -0.1697 -1.7355 -2.1516
  478MOL0     H64502  -0.964   7.380   8.164  1.4754 -1.3835 -0.7564
  478MOL0     H64503  -1.009   7.350   8.009  1.5940 -3.0854  0.4025
  478MOL0     H64504  -1.241   7.419   8.040 -0.4609  0.7580 -0.8129
  478MOL0     H64505  -1.119   7.553   8.038 -1.8582  0.7009 -1.6131
  478MOL0     H64506  -1.279   7.463   8.276  0.6819 -0.5780 -0.5237
  478MOL0     H64507  -1.111   7.516   8.305 -0.2378 -0.2260 -0.1579
  478MOL0     H64508  -1.296   7.704   8.310 -0.4144 -0.6697  0.1728
  478MOL0     H64509  -1.336   7.677   8.141 -1.5666 -1.8613  1.7000
  478MOL0     H64510  -1.200   7.868   8.209 -0.7199  1.0008 -2.6567
  478MOL0     H64511  -1.124   7.779   8.076 -2.7924  1.3828 -0.9303
  478MOL0     H64512  -0.716   6.997   8.220 -1.8366  2.4344 -1.2596
  478MOL0     H64513  -0.507   6.876   8.238  0.1418  1.6496 -1.3098
  478MOL0     H64514  -0.271   6.563   8.233 -0.2377 -0.4968 -0.0156
  478MOL0     H64515  -0.112   6.392   8.328  0.4678 -2.3277 -0.2307
  478MOL0     H64516   1.751   5.820   7.700 -0.3094 -1.9125  0.6140
  478MOL0     H64517   2.006   5.855   7.773  1.0893  0.1103  1.7874
  478MOL0     H64518   2.253   6.231   8.205 -2.3775 -1.9526  0.1635
  478MOL0     H64519   2.491   6.246   8.290 -1.6527  0.9003  1.6131
  478MOL0     H64520   2.719   6.244   8.333 -3.4949  0.0882  2.2827
  478MOL0     H64521   2.737   6.131   8.468  1.5328  1.3583 -0.5239
  478MOL0     H64522   2.888   5.998   8.325 -3.8598  0.3212  2.5449
  478MOL0     H64523   2.956   6.153   8.381  1.4516 -1.9061  0.9997
  478MOL0     H64524   2.959   6.261   8.167 -3.4655  1.5944  0.2494
  478MOL0     H64525   2.806   6.199   8.131 -0.9885  1.4495  3.1332
  478MOL0     H64526   3.017   6.012   8.145  0.6213  2.8475  0.5665
  478MOL0     H64527   2.999   6.100   7.992  2.3887  1.0936  1.9985
  478MOL0     H64528   2.681   5.813   7.976 -1.3983  0.7327  2.3860
  478MOL0     H64529   2.530   5.825   8.230 -1.9099 -1.0604  3.4795
  478MOL0     H64530   2.287   5.821   8.136  2.6680 -1.4083 -0.9068
  479MOL0     O64531   2.030   4.156   4.635 -0.3321 -0.6236 -0.4586
  479MOL0     C64532   2.064   4.063   4.561  0.9370  0.3380 -0.0062
  479MOL0     O64533   1.977   3.954   4.524 -0.0075 -0.3720  0.4578
  479MOL0     C64534   1.848   3.956   4.561  0.8816  0.0686 -0.4848
  479MOL0     C64535   1.788   4.006   4.682 -0.0550 -0.1702 -0.7166
  479MOL0     C64536   1.657   3.991   4.715  0.0440 -0.2426  0.0306
  479MOL0     C64537   1.561   3.940   4.624  0.0360  0.4564  0.5797
  479MOL0     O64538   1.428   3.925   4.652 -0.0636  0.1272 -0.2429
  479MOL0     C64539   1.332   3.884   4.552  0.2382  0.2916  0.3429
  479MOL0     C64540   1.199   3.921   4.601 -0.3044 -0.0099 -0.0265
  479MOL0     C64541   1.095   3.891   4.500  0.3927 -0.3353  0.0947
  479MOL0     C64542   0.956   3.925   4.546  0.0360  0.2541 -0.3529
  479MOL0     C64543   0.887   3.835   4.654 -0.5230 -0.0739 -0.4011
  479MOL0     C64544   0.865   3.688   4.611  0.6031 -0.1496  0.2795
  479MOL0     C64545   0.787   3.608   4.715  0.1071  0.1597 -0.2830
  479MOL0     C64546   0.720   3.479   4.667 -0.4042 -0.0162 -0.5675
  479MOL0     N64547   0.657   3.392   4.769 -0.1062  0.2929  0.2032
  479MOL0     C64548   0.549   3.434   4.842  1.2069 -0.2826 -0.5764
  479MOL0     C64549   0.533   3.344   4.943 -0.8870  0.5646  0.6218
  479MOL0     C64550   0.430   3.366   5.054 -0.5064 -0.1779  0.2735
  479MOL0     C64551   0.296   3.340   5.004 -0.2655 -0.3197 -0.0441
  479MOL0     C64552   0.237   3.465   4.948 -0.1560  1.2086  0.5360
  479MOL0     C64553   0.084   3.456   4.913 -0.2992  0.4220  0.0504
  479MOL0     O64554   0.016   3.389   5.015 -0.3904  0.3363 -0.1331
  479MOL0     C64555  -0.100   3.334   4.982 -0.0255  0.2820 -0.6347
  479MOL0     C64556  -0.182   3.363   4.876  0.6344  0.3593 -0.3251
  479MOL0     C64557  -0.294   3.290   4.847 -0.0969  0.0537 -0.1986
  479MOL0     C64558  -0.351   3.303   4.700 -0.6504  0.2591  0.0444
  479MOL0     C64559  -0.344   3.201   4.941 -0.3446 -1.0475 -0.3275
  479MOL0     C64560  -0.463   3.117   4.926 -0.5373 -0.1485  0.3824
  479MOL0     O64561  -0.476   3.011   5.003  0.2596  0.5541 -0.6576
  479MOL0     C64562  -0.611   2.973   5.015  0.0873 -0.2717 -0.3108
  479MOL0     C64563  -0.701   3.044   5.102  0.3082 -0.2909 -0.2818
  479MOL0     C64564  -0.828   3.003   5.126  0.5435  0.4283  0.7963
  479MOL0     C64565  -0.869   2.880   5.070 -0.5836  0.4205 -0.3581
  479MOL0     O64566  -0.999   2.845   5.108 -0.9428  0.8375 -0.2139
  479MOL0     C64567  -1.047   2.705   5.094 -1.2118 -1.0442 -0.6594
  479MOL0     C64568  -1.194   2.706   5.139 -1.1004 -0.3596 -0.5883
  479MOL0     C64569  -1.283   2.614   5.048  0.1690  0.2552 -0.4028
  479MOL0     C64570  -1.424   2.614   5.095  0.0885  0.1073  0.6760
  479MOL0     C64571  -1.508   2.524   5.011  0.0594 -0.4294 -0.6190
  479MOL0     C64572  -1.666   2.533   5.034  0.2986  0.4056  0.4709
  479MOL0     C64573  -1.737   2.415   4.958  0.0054 -0.5357 -0.0989
  479MOL0     C64574  -1.888   2.426   4.986 -0.2103 -0.2891 -0.4519
  479MOL0    Cl64575  -1.929   2.421   5.154 -0.0581 -0.0158  0.0683
  479MOL0     C64576  -0.786   2.807   4.987  0.5705  0.0704  0.5386
  479MOL0     C64577  -0.655   2.857   4.955  0.5382 -0.4012  0.5751
  479MOL0     O64578  -0.554   3.159   4.856  0.4479 -0.9995 -0.1156
  479MOL0     C64579  -0.274   3.182   5.065 -1.0327  0.3241  0.4044
  479MOL0     C64580  -0.159   3.246   5.080  1.1495 -0.1819  0.2913
  479MOL0     N64581   0.625   3.249   4.931 -0.1565  0.3208  0.4755
  479MOL0     N64582   0.701   3.278   4.828 -0.2887 -0.3572  0.0389
  479MOL0     C64583   1.622   3.893   4.497  0.1750  0.6590  0.1493
  479MOL0     C64584   1.756   3.894   4.471  0.8549 -0.8677  0.3832
  479MOL0     C64585   2.191   4.082   4.501 -0.8445 -0.0704  0.5695
  479MOL0     C64586   2.269   4.202   4.519  0.0934 -0.6967  0.9839
  479MOL0     C64587   2.392   4.212   4.449  0.8269 -0.3282 -0.9026
  479MOL0     C64588   2.437   4.115   4.355 -0.6298 -0.5484 -0.6117
  479MOL0     O64589   2.560   4.143   4.293  0.0802  0.0872  0.8921
  479MOL0     C64590   2.601   4.060   4.188  0.3322  0.3423 -0.1285
  479MOL0     C64591   2.702   3.946   4.235  0.8309 -0.3074 -0.3949
  479MOL0     C64592   2.829   4.000   4.306  0.6846 -0.0628  0.5004
  479MOL0     C64593   2.918   3.883   4.342 -0.4003 -0.2081 -0.1420
  479MOL0     C64594   3.001   3.833   4.231 -0.5203  0.2946  1.0478
  479MOL0     C64595   3.091   3.800   4.150  0.5947 -0.2054  0.2034
  479MOL0     C64596   2.363   4.001   4.337 -0.2856  0.3708  0.0586
  479MOL0     C64597   2.238   3.988   4.409 -0.3251  0.6956  1.1726
  479MOL0     H64598   1.849   4.045   4.763  0.9279 -1.8840 -0.5765
  479MOL0     H64599   1.626   4.030   4.812  4.5100  0.6957  1.3280
  479MOL0     H64600   1.356   3.944   4.464 -3.0031  1.9256  0.4333
  479MOL0     H64601   1.341   3.776   4.533 -6.8779 -1.3610  3.0972
  479MOL0     H64602   1.175   3.878   4.698  1.2712 -0.2280  0.3054
  479MOL0     H64603   1.207   4.030   4.609  0.5490  0.1109 -1.9805
  479MOL0     H64604   1.116   3.953   4.413 -0.6274 -0.0067  0.0651
  479MOL0     H64605   1.107   3.785   4.477  1.7540 -0.7963  2.5688
  479MOL0     H64606   0.959   4.030   4.578  1.8194 -0.6720  3.0403
  479MOL0     H64607   0.896   3.907   4.457  0.7010 -2.5765 -0.3274
  479MOL0     H64608   0.941   3.844   4.749  1.6483 -0.6115 -1.5066
  479MOL0     H64609   0.788   3.880   4.654 -1.8165 -2.7262 -1.2175
  479MOL0     H64610   0.806   3.680   4.519  0.0498 -0.5835  0.6628
  479MOL0     H64611   0.962   3.642   4.594 -0.1580 -1.7558  0.1256
  479MOL0     H64612   0.856   3.588   4.797 -0.2259  0.7063  0.1379
  479MOL0     H64613   0.708   3.676   4.750 -2.1160 -2.1260 -0.5300
  479MOL0     H64614   0.793   3.417   4.614 -0.1873  1.9696 -2.7302
  479MOL0     H64615   0.644   3.511   4.595  1.4805  1.5545 -1.9816
  479MOL0     H64616   0.480   3.516   4.828 -0.5615 -1.3586  1.3918
  479MOL0     H64617   0.441   3.296   5.137 -1.7172 -2.7774 -1.6113
  479MOL0     H64618   0.446   3.467   5.093 -1.2435 -1.3882  4.0556
  479MOL0     H64619   0.235   3.297   5.085  2.2967 -0.1982  2.0804
  479MOL0     H64620   0.301   3.265   4.925 -0.5883 -0.7077  0.2997
  479MOL0     H64621   0.281   3.479   4.849 -2.9365  0.1381 -0.9803
  479MOL0     H64622   0.254   3.541   5.025  2.1574  0.2100  1.0752
  479MOL0     H64623   0.072   3.402   4.818 -0.9948  1.8834 -0.7371
  479MOL0     H64624   0.052   3.559   4.895 -0.1106  0.2897 -1.1200
  479MOL0     H64625  -0.144   3.434   4.802 -0.5036 -0.2591 -1.5483
  479MOL0     H64626  -0.452   3.344   4.697  0.5702  3.5104 -0.2710
  479MOL0     H64627  -0.286   3.348   4.625 -1.0308  0.1311 -0.3657
  479MOL0     H64628  -0.362   3.202   4.660 -0.5893  1.6923 -4.0095
  479MOL0     H64629  -0.667   3.137   5.147 -4.3690  1.0797  0.9123
  479MOL0     H64630  -0.892   3.058   5.193  0.4072  0.4786  0.6259
  479MOL0     H64631  -1.032   2.662   4.995 -1.6149 -0.4136 -1.0004
  479MOL0     H64632  -0.992   2.640   5.162 -1.2094 -0.8237 -0.4482
  479MOL0     H64633  -1.176   2.660   5.236  3.1175  0.3288 -0.8629
  479MOL0     H64634  -1.230   2.809   5.145  0.8788  0.4760 -1.9749
  479MOL0     H64635  -1.240   2.514   5.045 -0.4466 -0.0104 -0.5731
  479MOL0     H64636  -1.283   2.656   4.947  0.5672 -0.6227 -0.7805
  479MOL0     H64637  -1.426   2.584   5.200 -2.7490 -2.2239  0.0949
  479MOL0     H64638  -1.465   2.713   5.076 -0.6569 -0.8251 -3.7974
  479MOL0     H64639  -1.464   2.424   5.019  1.5087  0.0498 -2.1287
  479MOL0     H64640  -1.495   2.537   4.904  1.5213  0.7661 -0.3223
  479MOL0     H64641  -1.693   2.525   5.139 -0.1120 -1.9417  0.2578
  479MOL0     H64642  -1.710   2.626   4.997 -0.6026 -0.1047  0.2255
  479MOL0     H64643  -1.695   2.320   4.990  0.7506 -0.5204 -0.9776
  479MOL0     H64644  -1.727   2.427   4.850  1.4803 -0.0539  0.0685
  479MOL0     H64645  -1.936   2.340   4.939 -0.8672 -0.8339  1.1534
  479MOL0     H64646  -1.930   2.521   4.951  1.4797  1.4647  1.9588
  479MOL0     H64647  -0.812   2.709   4.949  1.5749 -0.0088  0.0294
  479MOL0     H64648  -0.593   2.800   4.886 -1.1747 -1.4289 -0.1848
  479MOL0     H64649  -0.303   3.111   5.141  4.1013 -1.0787  1.4458
  479MOL0     H64650  -0.108   3.237   5.175  0.3627  0.8192  0.8299
  479MOL0     H64651   1.557   3.857   4.418  0.5117 -1.3360  0.7219
  479MOL0     H64652   1.796   3.844   4.383  1.4852 -1.0362  0.7608
  479MOL0     H64653   2.239   4.290   4.575 -0.2443  0.1262 -0.4464
  479MOL0     H64654   2.454   4.300   4.464 -1.7237  1.3594  0.4356
  479MOL0     H64655   2.521   4.014   4.129 -0.2919  0.3352  0.7133
  479MOL0     H64656   2.651   4.130   4.121  0.0387 -0.6786 -1.4696
  479MOL0     H64657   2.735   3.880   4.154  2.7656 -2.9061  2.2933
  479MOL0     H64658   2.651   3.884   4.310  0.4522  1.4676  0.8978
  479MOL0     H64659   2.800   4.049   4.399  1.7175 -1.1549  1.4447
  479MOL0     H64660   2.886   4.074   4.249  4.1985 -1.1622  2.2699
  479MOL0     H64661   2.851   3.808   4.383  1.2741 -2.2899 -1.0093
  479MOL0     H64662   2.988   3.914   4.420 -2.6148 -0.5791  2.1024
  479MOL0     H64663   3.151   3.785   4.063  0.0996 -3.0173  0.2338
  479MOL0     H64664   2.381   3.926   4.261  0.5986  0.1311  0.4836
  479MOL0     H64665   2.174   3.904   4.384 -3.3776  3.5699 -1.5974
  480MOL0     O64666   6.963   2.482   9.424  0.0406  0.1897  0.2925
  480MOL0     C64667   6.968   2.425   9.530  0.9396 -0.5427  0.2456
  480MOL0     O64668   6.863   2.378   9.607 -0.2519 -0.3869  0.4652
  480MOL0     C64669   6.737   2.412   9.560 -0.1851 -0.3746  0.6389
  480MOL0     C64670   6.666   2.504   9.636 -0.3450 -0.7817  0.6946
  480MOL0     C64671   6.537   2.541   9.593  0.8999  0.4128  0.6676
  480MOL0     C64672   6.479   2.488   9.481 -0.5424 -0.5902 -0.6894
  480MOL0     O64673   6.362   2.557   9.444  0.0700 -0.5793  0.5958
  480MOL0     C64674   6.298   2.521   9.321  0.5467 -0.0656 -0.3040
  480MOL0     C64675   6.211   2.399   9.342 -0.8695 -0.5092 -0.3792
  480MOL0     C64676   6.076   2.449   9.379  0.3862 -0.7787  0.1456
  480MOL0     C64677   5.985   2.342   9.429  0.1921  0.4311  0.6570
  480MOL0     C64678   5.837   2.389   9.427 -0.1133 -0.2633  0.7002
  480MOL0     C64679   5.751   2.273   9.469 -0.1431  0.8972 -0.5066
  480MOL0     C64680   5.607   2.316   9.462  0.4488  0.5007 -0.2783
  480MOL0     C64681   5.513   2.200   9.500  0.2293 -0.2237  0.4107
  480MOL0     N64682   5.371   2.241   9.505  0.6108  0.1200 -0.0881
  480MOL0     C64683   5.312   2.342   9.576  0.2444 -1.2816 -0.8322
  480MOL0     C64684   5.182   2.351   9.533 -0.6297  0.2287 -0.2724
  480MOL0     C64685   5.073   2.443   9.552 -0.2111  0.2920  0.0692
  480MOL0     C64686   4.938   2.371   9.579 -0.2372 -1.7333  0.0330
  480MOL0     C64687   4.937   2.313   9.719  0.3365  0.0955 -0.0184
  480MOL0     C64688   4.792   2.272   9.756 -0.0259  0.2041 -0.4481
  480MOL0     O64689   4.728   2.386   9.812  0.1552 -0.4069 -0.4309
  480MOL0     C64690   4.591   2.381   9.831 -0.2144 -1.0840 -0.1837
  480MOL0     C64691   4.529   2.510   9.842 -0.6384 -0.3094  0.0836
  480MOL0     C64692   4.395   2.532   9.831  0.3556  0.2114  0.4201
  480MOL0     C64693   4.350   2.676   9.815  0.4889  0.2679  0.0323
  480MOL0     C64694   4.309   2.417   9.835  0.0342  0.0398 -0.3045
  480MOL0     C64695   4.156   2.424   9.839 -0.1849 -0.5586 -0.8284
  480MOL0     O64696   4.094   2.298   9.856 -0.5313  0.1639 -0.1612
  480MOL0     C64697   3.960   2.301   9.894  0.0419  0.3634 -0.7821
  480MOL0     C64698   3.861   2.268   9.802 -0.4118  0.2043  0.5962
  480MOL0     C64699   3.724   2.265   9.836  0.2737 -1.1116  0.5181
  480MOL0     C64700   3.688   2.298   9.972  0.8048  1.0434  1.0168
  480MOL0     O64701   3.562   2.322  10.015  0.7335  0.1603  0.2609
  480MOL0     C64702   3.456   2.332   9.925  0.0456  0.0696  0.0294
  480MOL0     C64703   3.328   2.407   9.978  0.2560 -0.8229 -0.5385
  480MOL0     C64704   3.262   2.340  10.100  0.0679  0.6582 -0.3387
  480MOL0     C64705   3.135   2.409  10.140  0.1675 -0.1328  0.5893
  480MOL0     C64706   3.061   2.338  10.251  0.8303  0.4400 -0.3312
  480MOL0     C64707   3.128   2.354  10.392 -0.9603 -0.2764  0.6289
  480MOL0     C64708   3.051   2.277  10.491  0.2237 -0.9700  0.4978
  480MOL0     C64709   3.095   2.308  10.636  0.1780  0.7984 -0.5597
  480MOL0    Cl64710   3.049   2.472  10.702  0.1585  0.1748  0.2021
  480MOL0     C64711   3.792   2.330  10.056 -1.0192 -0.9199 -1.2045
  480MOL0     C64712   3.924   2.335  10.018 -0.1319  0.5107 -0.4258
  480MOL0     O64713   4.098   2.530   9.832  0.1689  0.7586 -0.6853
  480MOL0     C64714   4.375   2.287   9.820  0.7049  0.9118  0.8936
  480MOL0     C64715   4.507   2.275   9.815  0.2033 -0.3222  0.1728
  480MOL0     N64716   5.175   2.246   9.442  0.6109  0.7001 -0.0214
  480MOL0     N64717   5.276   2.178   9.423  0.2155  0.2623  0.5948
  480MOL0     C64718   6.547   2.387   9.410  0.2846  0.2412  1.3022
  480MOL0     C64719   6.683   2.356   9.444  0.6614 -0.2852  0.1857
  480MOL0     C64720   7.103   2.403   9.586  0.2910  0.7341 -0.2999
  480MOL0     C64721   7.212   2.469   9.526 -0.2674 -0.1261  0.5608
  480MOL0     C64722   7.341   2.456   9.574  0.9219 -0.6286 -0.5521
  480MOL0     C64723   7.363   2.357   9.677 -0.1175 -0.0367  1.3365
  480MOL0     O64724   7.498   2.339   9.713  0.7448 -0.0335 -0.6358
  480MOL0     C64725   7.548   2.202   9.730  1.4106  0.2492 -0.7018
  480MOL0     C64726   7.666   2.210   9.824 -0.5497  0.1160 -0.3791
  480MOL0     C64727   7.614   2.223   9.975 -0.7052  0.4542 -0.3218
  480MOL0     C64728   7.733   2.218  10.084 -0.0907 -0.5587  0.3226
  480MOL0     C64729   7.841   2.117  10.065 -0.0152  0.6760 -0.3075
  480MOL0     C64730   7.939   2.042  10.063 -0.1466  0.1937 -1.1178
  480MOL0     C64731   7.258   2.293   9.737 -0.1169 -0.1588  0.1530
  480MOL0     C64732   7.128   2.317   9.691 -0.2029  0.2965  0.5144
  480MOL0     H64733   6.710   2.553   9.722 -1.5755  2.0383 -0.1603
  480MOL0     H64734   6.491   2.622   9.648  1.0968  1.1942 -0.2800
  480MOL0     H64735   6.252   2.606   9.270 -0.8083 -1.5334 -1.5951
  480MOL0     H64736   6.379   2.495   9.252  1.9146  0.5364  1.0004
  480MOL0     H64737   6.205   2.340   9.250 -1.6265  0.9984 -1.3380
  480MOL0     H64738   6.258   2.330   9.413  3.1090  0.2724 -1.9780
  480MOL0     H64739   6.091   2.526   9.456  0.5328 -0.9335  0.2742
  480MOL0     H64740   6.033   2.488   9.287  2.1989  0.5721 -0.1752
  480MOL0     H64741   5.988   2.258   9.359  0.1351  0.5999  0.4526
  480MOL0     H64742   6.031   2.310   9.523  1.4761 -0.5125 -0.2491
  480MOL0     H64743   5.838   2.465   9.506 -2.3586 -1.0392  1.5617
  480MOL0     H64744   5.807   2.436   9.334  1.6615  0.6514  0.5350
  480MOL0     H64745   5.769   2.182   9.411 -1.0810  0.4564 -0.1248
  480MOL0     H64746   5.780   2.252   9.572 -1.0789 -0.5839 -0.5198
  480MOL0     H64747   5.596   2.391   9.542  1.7581  0.9898 -0.5324
  480MOL0     H64748   5.575   2.365   9.370 -1.1734  1.7640  0.8973
  480MOL0     H64749   5.544   2.161   9.598  1.2685  1.3567  0.7498
  480MOL0     H64750   5.528   2.111   9.437  1.6543 -0.3453  0.8644
  480MOL0     H64751   5.358   2.414   9.642 -1.9685 -1.3159  0.8726
  480MOL0     H64752   5.096   2.515   9.631  1.6422  0.1746 -0.3180
  480MOL0     H64753   5.070   2.505   9.461 -0.5094 -2.1065 -1.6383
  480MOL0     H64754   4.893   2.301   9.509 -2.3186 -1.2128  0.7576
  480MOL0     H64755   4.871   2.457   9.585  3.2161  1.2675 -0.6377
  480MOL0     H64756   4.978   2.385   9.790  0.5753 -0.3836  0.3326
  480MOL0     H64757   5.002   2.226   9.729 -0.5332 -0.4814  0.7360
  480MOL0     H64758   4.808   2.197   9.834 -2.5985 -0.7430 -0.7484
  480MOL0     H64759   4.752   2.217   9.670  2.3462 -0.3167 -1.2972
  480MOL0     H64760   4.592   2.598   9.834 -1.4392  0.2675 -0.0018
  480MOL0     H64761   4.339   2.729   9.910 -1.6338  0.5397 -0.3255
  480MOL0     H64762   4.432   2.733   9.770 -0.0186  2.2815  1.5187
  480MOL0     H64763   4.253   2.691   9.767  0.3957 -0.0429  0.1209
  480MOL0     H64764   3.891   2.244   9.701 -0.8058  0.7547  0.3443
  480MOL0     H64765   3.652   2.229   9.763  0.2343 -0.3679  0.1749
  480MOL0     H64766   3.504   2.392   9.847  1.1878  0.4648  1.0010
  480MOL0     H64767   3.419   2.234   9.895 -1.9436 -0.2417  3.0440
  480MOL0     H64768   3.371   2.502  10.012 -0.2185 -0.8382  0.1261
  480MOL0     H64769   3.259   2.429   9.897  1.3692 -1.1925 -1.6208
  480MOL0     H64770   3.329   2.341  10.186 -0.7181  1.2932  0.2795
  480MOL0     H64771   3.229   2.238  10.081  1.4973  0.2999 -1.0189
  480MOL0     H64772   3.146   2.513  10.171 -0.4711  0.2320 -0.3575
  480MOL0     H64773   3.073   2.431  10.053  1.4881  0.4491 -0.2455
  480MOL0     H64774   3.052   2.230  10.235 -0.7105  0.4081  0.6412
  480MOL0     H64775   2.959   2.376  10.250 -0.3952 -2.3315  2.7948
  480MOL0     H64776   3.227   2.307  10.391  0.1513  1.8878  0.9493
  480MOL0     H64777   3.140   2.461  10.414  1.2957 -0.1041 -1.0863
  480MOL0     H64778   3.052   2.168  10.474  0.2247 -0.7971 -0.7144
  480MOL0     H64779   2.944   2.298  10.476  0.6201  2.2025  1.4995
  480MOL0     H64780   3.200   2.284  10.652 -0.3154  0.7678  3.6720
  480MOL0     H64781   3.045   2.234  10.700 -0.1958  2.1365  0.7582
  480MOL0     H64782   3.780   2.358  10.161  3.4654 -2.1033 -0.1534
  480MOL0     H64783   4.002   2.368  10.085  2.3150 -1.3974 -2.1469
  480MOL0     H64784   4.313   2.199   9.810 -1.5931  2.6061 -1.4069
  480MOL0     H64785   4.552   2.178   9.793 -1.7544 -1.1699 -0.3774
  480MOL0     H64786   6.522   2.340   9.315  3.3085  0.9949  0.0133
  480MOL0     H64787   6.751   2.294   9.386  0.5644  0.0268 -0.2632
  480MOL0     H64788   7.203   2.543   9.446 -0.9244 -1.0755 -0.2765
  480MOL0     H64789   7.430   2.493   9.524  0.3445  0.4265 -0.8252
  480MOL0     H64790   7.466   2.136   9.761  1.7237  0.0822 -0.2245
  480MOL0     H64791   7.588   2.170   9.633  2.6312  0.6653 -0.3554
  480MOL0     H64792   7.738   2.284   9.789  0.6071 -1.6248 -1.9185
  480MOL0     H64793   7.702   2.106   9.826 -4.4207 -1.4368 -1.4202
  480MOL0     H64794   7.543   2.145  10.001 -0.0410 -0.1938 -0.4381
  480MOL0     H64795   7.558   2.317   9.988  0.7141  1.2374  0.3710
  480MOL0     H64796   7.696   2.215  10.187  1.6271 -1.0847  0.9578
  480MOL0     H64797   7.779   2.318  10.076  0.2517 -0.7356  0.0448
  480MOL0     H64798   8.019   1.972  10.059 -0.8738 -0.9041  1.2818
  480MOL0     H64799   7.267   2.229   9.823 -1.6815 -1.4358 -0.5680
  480MOL0     H64800   7.046   2.270   9.744 -1.5351  2.0998  0.1419
  481MOL0     O64801   4.059  10.648  10.725  0.7941  0.2069 -1.0492
  481MOL0     C64802   4.107  10.537  10.737  0.3163 -0.1946 -0.1037
  481MOL0     O64803   4.042  10.411  10.736  0.9674 -0.7627  0.4846
  481MOL0     C64804   3.903  10.402  10.737  0.1620  0.2085 -0.3705
  481MOL0     C64805   3.852  10.277  10.736  0.2040  0.2513 -0.7358
  481MOL0     C64806   3.715  10.249  10.753 -0.2453 -0.1868 -0.2866
  481MOL0     C64807   3.623  10.347  10.779 -0.3915 -0.1328 -0.1038
  481MOL0     O64808   3.487  10.318  10.781 -0.7111 -0.4743 -0.0808
  481MOL0     C64809   3.405  10.421  10.824  0.3133 -0.0091  0.0060
  481MOL0     C64810   3.275  10.362  10.898 -0.6972 -0.6400  1.2303
  481MOL0     C64811   3.304  10.267  11.010  0.0054  0.0958  0.9254
  481MOL0     C64812   3.173  10.241  11.080  0.0420 -0.0634 -0.2840
  481MOL0     C64813   3.186  10.149  11.195  0.6833  0.0005 -0.5173
  481MOL0     C64814   3.168  10.000  11.163  0.8379  0.1570 -0.4645
  481MOL0     C64815   3.022   9.959  11.155 -0.0537  1.0144  0.6301
  481MOL0     C64816   3.001   9.831  11.092 -0.1729  1.0420 -0.4453
  481MOL0     N64817   3.049   9.718  11.184  0.3798 -0.6351 -0.2321
  481MOL0     C64818   3.181   9.684  11.189 -0.5541  0.0496 -0.1426
  481MOL0     C64819   3.184   9.575  11.271  0.2890 -0.3124 -0.0001
  481MOL0     C64820   3.299   9.484  11.299  0.0643  0.1280  0.2280
  481MOL0     C64821   3.412   9.567  11.370  0.1577  0.2526  0.3637
  481MOL0     C64822   3.543   9.483  11.383  0.4845 -0.6742  0.5917
  481MOL0     C64823   3.652   9.555  11.469 -0.1543  0.4595  0.1889
  481MOL0     O64824   3.733   9.633  11.379  0.6178  0.2195  0.3265
  481MOL0     C64825   3.850   9.680  11.427 -0.3191 -0.1210 -0.0471
  481MOL0     C64826   3.931   9.759  11.345  0.5782 -0.4568  0.0108
  481MOL0     C64827   4.050   9.823  11.392 -0.1664 -0.3199  0.5397
  481MOL0     C64828   4.134   9.889  11.285  0.1156 -0.5931 -0.3907
  481MOL0     C64829   4.097   9.802  11.525 -0.6738 -0.8582 -0.6188
  481MOL0     C64830   4.230   9.838  11.574 -0.1172  0.2605 -0.5731
  481MOL0     O64831   4.242   9.823  11.716 -0.0270  0.1460  0.7603
  481MOL0     C64832   4.358   9.865  11.779  0.3829 -0.2811 -0.4851
  481MOL0     C64833   4.413   9.778  11.875 -1.1089 -0.3047 -0.4297
  481MOL0     C64834   4.506   9.825  11.962 -0.1206  0.4598 -0.2562
  481MOL0     C64835   4.551   9.954  11.955  0.6261  0.5365 -0.6490
  481MOL0     O64836   4.633  10.007  12.054 -0.4981  0.1645 -0.0971
  481MOL0     C64837   4.718  10.121  12.027  0.1858  1.0438  0.6899
  481MOL0     C64838   4.841  10.122  12.111  0.5727 -0.6971 -0.3330
  481MOL0     C64839   4.920   9.998  12.069  0.0521 -0.1525 -0.1390
  481MOL0     C64840   5.046   9.984  12.163  0.1474  0.5168  0.4209
  481MOL0     C64841   5.184  10.024  12.095  1.1111  0.6136  0.0107
  481MOL0     C64842   5.265  10.126  12.178 -0.6198 -0.7300 -0.0766
  481MOL0     C64843   5.416  10.127  12.137  0.5410  0.6752  0.8484
  481MOL0     C64844   5.496  10.233  12.204 -1.0739 -0.3828 -0.1506
  481MOL0    Cl64845   5.645  10.265  12.101  0.2142  0.4925 -0.0644
  481MOL0     C64846   4.491  10.051  11.867 -0.6515  0.3555 -0.4715
  481MOL0     C64847   4.391  10.002  11.775  0.5396  0.5507 -0.0705
  481MOL0     O64848   4.312   9.885  11.507 -0.4741 -0.1122  0.3911
  481MOL0     C64849   4.018   9.724  11.607  0.5748  0.5764  0.0225
  481MOL0     C64850   3.900   9.667  11.559 -0.3991  0.8170  0.9820
  481MOL0     N64851   3.053   9.547  11.321  0.0113  0.1627  0.5830
  481MOL0     N64852   2.976   9.634  11.258  1.1241  0.8766  1.0520
  481MOL0     C64853   3.668  10.476  10.779  0.4456  0.1127  0.5669
  481MOL0     C64854   3.799  10.503  10.739  0.5762 -0.0495 -0.4279
  481MOL0     C64855   4.254  10.538  10.759  0.4952  0.2882 -0.5202
  481MOL0     C64856   4.312  10.419  10.814  0.3138  0.2286  0.0662
  481MOL0     C64857   4.449  10.428  10.863 -0.0345 -0.4934  0.0678
  481MOL0     C64858   4.523  10.534  10.831 -1.5916 -0.2283 -0.4242
  481MOL0     O64859   4.653  10.531  10.865 -0.1234 -0.2681 -1.2992
  481MOL0     C64860   4.750  10.468  10.779  0.1450 -0.2100  0.5742
  481MOL0     C64861   4.890  10.491  10.836 -0.7542 -0.7619 -0.3659
  481MOL0     C64862   5.000  10.447  10.748  0.8414 -0.1129 -0.0836
  481MOL0     C64863   5.133  10.484  10.804  0.4330 -0.0617 -0.7783
  481MOL0     C64864   5.170  10.409  10.926 -0.2229 -0.4052  0.3867
  481MOL0     C64865   5.226  10.344  11.017  0.1449  0.3983  0.2359
  481MOL0     C64866   4.473  10.646  10.757 -0.9192  0.7043 -0.4615
  481MOL0     C64867   4.335  10.650  10.737 -0.0323  0.1053  0.8160
  481MOL0     H64868   3.918  10.192  10.720 -1.0122 -0.9523  0.3090
  481MOL0     H64869   3.680  10.147  10.735 -1.1114  0.3067 -1.6089
  481MOL0     H64870   3.445  10.491  10.897 -0.7083  0.6479 -0.0390
  481MOL0     H64871   3.369  10.482  10.740 -1.0196  1.1770  1.3844
  481MOL0     H64872   3.225  10.451  10.938 -1.9780  0.0069 -1.5726
  481MOL0     H64873   3.225  10.317  10.812  1.8255  0.9566 -1.2395
  481MOL0     H64874   3.351  10.174  10.975 -0.3950  0.4498 -0.6395
  481MOL0     H64875   3.376  10.311  11.079 -0.2869  2.1566 -0.0104
  481MOL0     H64876   3.141  10.341  11.111 -1.7540 -0.6051 -0.2623
  481MOL0     H64877   3.103  10.193  11.010 -0.2565 -1.3919  0.8839
  481MOL0     H64878   3.276  10.160  11.256  0.6816 -2.0997 -0.0594
  481MOL0     H64879   3.102  10.167  11.262  0.6736  1.5662 -0.9113
  481MOL0     H64880   3.223   9.974  11.072  2.5072  4.3021 -0.8428
  481MOL0     H64881   3.213   9.941  11.244  0.0124 -1.3707 -1.0717
  481MOL0     H64882   2.985   9.949  11.258  0.7629 -0.5926  0.8076
  481MOL0     H64883   2.975  10.031  11.088 -1.2732 -0.7303 -0.4803
  481MOL0     H64884   3.049   9.834  10.994 -0.7301  2.3035 -0.7060
  481MOL0     H64885   2.895   9.819  11.067  0.1272  1.4080 -1.9830
  481MOL0     H64886   3.269   9.715  11.134 -0.8551 -2.5690 -2.3786
  481MOL0     H64887   3.265   9.406  11.369 -1.0252  0.2871 -0.1128
  481MOL0     H64888   3.339   9.437  11.208 -1.5620 -3.3414  1.1082
  481MOL0     H64889   3.371   9.603  11.465  2.3540  0.1560  1.3938
  481MOL0     H64890   3.439   9.657  11.314  0.1018 -0.4346 -0.8011
  481MOL0     H64891   3.566   9.474  11.276 -1.2291 -1.9771  0.2894
  481MOL0     H64892   3.510   9.389  11.429 -0.8650  0.6881  2.5864
  481MOL0     H64893   3.710   9.472  11.510 -1.5594 -1.4368 -1.4420
  481MOL0     H64894   3.606   9.621  11.543 -3.1128  0.0617 -1.1471
  481MOL0     H64895   3.887   9.771  11.246  0.2975 -0.1828  0.1663
  481MOL0     H64896   4.071   9.912  11.199 -0.2593 -0.1385  0.0005
  481MOL0     H64897   4.176   9.986  11.314 -0.4214  0.4475 -2.8043
  481MOL0     H64898   4.212   9.817  11.258  0.4805 -1.3314  2.3119
  481MOL0     H64899   4.389   9.673  11.888 -1.7682 -0.2691 -1.2712
  481MOL0     H64900   4.550   9.765  12.041 -2.1512 -0.2430  0.3977
  481MOL0     H64901   4.750  10.113  11.923 -0.0882 -2.2757  0.7629
  481MOL0     H64902   4.670  10.219  12.036  0.7555  1.2269  1.9629
  481MOL0     H64903   4.890  10.216  12.085 -0.2861  0.1254  0.9074
  481MOL0     H64904   4.822  10.117  12.219  2.9237 -0.2650  0.1443
  481MOL0     H64905   4.948  10.002  11.963 -1.0627  1.2250 -0.4197
  481MOL0     H64906   4.864   9.906  12.088 -1.8573  0.7673 -1.0121
  481MOL0     H64907   5.027  10.034  12.258  0.3009  0.2970  0.5669
  481MOL0     H64908   5.062   9.877  12.181 -0.0410  0.6636  1.5238
  481MOL0     H64909   5.152  10.082  12.008 -1.9656 -0.1822  0.5052
  481MOL0     H64910   5.248   9.939  12.072 -1.5911 -1.6913  0.4858
  481MOL0     H64911   5.225  10.226  12.160  1.8417  0.0736 -1.5505
  481MOL0     H64912   5.263  10.098  12.283  0.4442  0.0770  0.1771
  481MOL0     H64913   5.409  10.156  12.032 -0.3945 -2.5996 -0.1332
  481MOL0     H64914   5.467  10.030  12.126  0.4053  0.8851 -3.1088
  481MOL0     H64915   5.519  10.203  12.306  0.1672  0.0404 -0.2967
  481MOL0     H64916   5.437  10.324  12.219  1.7671  1.3662  1.3592
  481MOL0     H64917   4.504  10.155  11.896  0.6771 -0.5903  2.8977
  481MOL0     H64918   4.333  10.064  11.707 -0.1895 -0.2744 -0.2249
  481MOL0     H64919   4.036   9.708  11.713 -1.8973  0.4301  0.4908
  481MOL0     H64920   3.841   9.604  11.626  1.4473  0.8173  2.6985
  481MOL0     H64921   3.605  10.563  10.796  0.4958  0.5863 -1.4713
  481MOL0     H64922   3.832  10.606  10.733 -0.5096  0.2346 -2.5863
  481MOL0     H64923   4.252  10.336  10.849 -0.5654  1.0566  0.5740
  481MOL0     H64924   4.491  10.356  10.932  0.2153  1.1175  1.6679
  481MOL0     H64925   4.730  10.362  10.760 -0.9958 -0.4362  2.7098
  481MOL0     H64926   4.745  10.513  10.679  0.6781 -1.1932  0.0862
  481MOL0     H64927   4.883  10.444  10.935 -1.1635 -0.9219 -0.4682
  481MOL0     H64928   4.904  10.599  10.849  0.4823 -1.0542  1.0162
  481MOL0     H64929   4.982  10.502  10.655  1.0958  2.3488  1.2510
  481MOL0     H64930   4.989  10.339  10.735 -0.0578 -0.0027 -0.3383
  481MOL0     H64931   5.145  10.589  10.832 -1.3444  0.1200 -0.5527
  481MOL0     H64932   5.204  10.457  10.726 -1.4157 -0.6648 -2.3449
  481MOL0     H64933   5.273  10.276  11.084 -1.7906 -3.2539 -1.7949
  481MOL0     H64934   4.533  10.727  10.717 -1.4449  0.7850 -1.0965
  481MOL0     H64935   4.297  10.739  10.689  3.6646  1.4877  0.0969
  482MOL0     O64936   5.540   2.548   0.509  0.4625  0.4584  0.2345
  482MOL0     C64937   5.528   2.590   0.625  0.6495 -0.2672  0.3101
  482MOL0     O64938   5.413   2.610   0.690 -0.4342 -0.1781 -0.1620
  482MOL0     C64939   5.288   2.599   0.636  0.2353  0.2150 -0.5616
  482MOL0     C64940   5.193   2.534   0.716  0.3180 -0.0896 -0.3556
  482MOL0     C64941   5.064   2.516   0.673 -0.0975  0.0818 -0.4849
  482MOL0     C64942   5.028   2.564   0.542  0.1909 -0.0074 -0.8697
  482MOL0     O64943   4.901   2.521   0.508 -0.4180 -0.4843 -0.2950
  482MOL0     C64944   4.843   2.608   0.409 -0.1118 -0.0327  0.1233
  482MOL0     C64945   4.690   2.622   0.443  0.5149 -0.5659 -0.8188
  482MOL0     C64946   4.624   2.481   0.456  0.3057  0.0151 -0.3566
  482MOL0     C64947   4.475   2.481   0.475 -0.7300 -0.1026  0.2043
  482MOL0     C64948   4.417   2.339   0.466  0.1640 -0.1295  0.2731
  482MOL0     C64949   4.266   2.344   0.466  1.0123  0.9723 -0.0161
  482MOL0     C64950   4.196   2.214   0.459 -0.5613  0.4194  0.1935
  482MOL0     C64951   4.236   2.111   0.569  0.5403  0.2163  0.5168
  482MOL0     N64952   4.118   2.029   0.600  0.6389 -0.3848  0.1186
  482MOL0     C64953   4.041   1.948   0.514 -0.3251  0.1299  0.8686
  482MOL0     C64954   3.939   1.904   0.590  0.8378 -0.4745  1.2731
  482MOL0     C64955   3.823   1.821   0.543 -1.0491  0.1443  0.4701
  482MOL0     C64956   3.676   1.879   0.558  0.5318  0.5347  0.7280
  482MOL0     C64957   3.631   1.905   0.707  0.6879 -0.3808 -1.4788
  482MOL0     C64958   3.531   1.798   0.750 -0.0903  0.3311  0.1844
  482MOL0     O64959   3.418   1.784   0.662 -0.3730 -0.0470 -0.5778
  482MOL0     C64960   3.329   1.885   0.653 -0.0348  0.8416 -0.1264
  482MOL0     C64961   3.319   1.991   0.748 -0.8735  0.4852  0.4737
  482MOL0     C64962   3.221   2.088   0.738 -0.7028  0.1205 -0.1476
  482MOL0     C64963   3.225   2.197   0.845 -0.2203  0.3335  0.1416
  482MOL0     C64964   3.118   2.079   0.643 -0.4220  0.0017  0.3949
  482MOL0     C64965   3.006   2.177   0.633  1.0507  0.3536  1.1440
  482MOL0     O64966   2.984   2.271   0.721 -0.6598 -1.0810  0.6753
  482MOL0     C64967   2.931   2.386   0.674 -0.1451 -0.0486 -0.1430
  482MOL0     C64968   3.007   2.479   0.599  0.0570  0.2953  0.7120
  482MOL0     C64969   2.971   2.607   0.587 -0.0956  0.6020  0.6333
  482MOL0     C64970   2.871   2.656   0.670  0.3768  0.1979  0.1749
  482MOL0     O64971   2.841   2.786   0.661  0.3463  0.6873  0.5969
  482MOL0     C64972   2.699   2.824   0.649 -0.7761  0.0216 -0.2733
  482MOL0     C64973   2.706   2.950   0.566  0.6715 -0.5318 -1.1312
  482MOL0     C64974   2.753   2.905   0.427 -0.1258  0.5368 -0.4060
  482MOL0     C64975   2.693   2.991   0.318  0.7370  1.3195  0.8766
  482MOL0     C64976   2.714   2.933   0.181 -0.1636 -0.1898  0.4252
  482MOL0     C64977   2.629   3.006   0.073 -0.2564 -0.3294 -0.1172
  482MOL0     C64978   2.482   2.948   0.085 -1.0575 -0.4839 -0.1419
  482MOL0     C64979   2.405   2.977  -0.035  0.2073  0.2131 -0.5045
  482MOL0    Cl64980   2.372   3.152  -0.044  0.5825 -0.0546 -0.3710
  482MOL0     C64981   2.795   2.575   0.756  0.1489  0.5033  0.4728
  482MOL0     C64982   2.832   2.441   0.757 -0.0371 -0.5149  0.3741
  482MOL0     O64983   2.938   2.154   0.536  0.3133  0.4153  0.3030
  482MOL0     C64984   3.139   1.969   0.549  0.0568  0.3135 -0.0091
  482MOL0     C64985   3.240   1.885   0.550 -0.7885  0.4558  0.2072
  482MOL0     N64986   3.961   1.953   0.714  0.1170 -0.9337 -0.2799
  482MOL0     N64987   4.066   2.025   0.721  0.0651 -0.2344 -1.1874
  482MOL0     C64988   5.125   2.628   0.462  0.5461 -0.4514  0.3195
  482MOL0     C64989   5.253   2.653   0.510 -0.5961  0.5477 -0.2363
  482MOL0     C64990   5.654   2.622   0.692  0.6422 -0.5796 -0.4703
  482MOL0     C64991   5.765   2.639   0.618  0.0733 -0.5247 -0.2368
  482MOL0     C64992   5.896   2.652   0.677 -0.1151  0.5747 -0.5905
  482MOL0     C64993   5.912   2.639   0.809  1.0494 -0.2433  0.0018
  482MOL0     O64994   6.038   2.646   0.857  0.5524  0.1290  0.6643
  482MOL0     C64995   6.069   2.690   0.987 -0.5488  0.1945 -0.2541
  482MOL0     C64996   6.025   2.831   1.018  0.0112 -0.4033 -0.1286
  482MOL0     C64997   6.061   2.936   0.910  0.7671  0.0223  1.0292
  482MOL0     C64998   6.001   3.068   0.969  0.5414 -0.4604  0.3241
  482MOL0     C64999   5.858   3.077   0.954  0.6205 -0.0798  0.2646
  482MOL0     C65000   5.741   3.069   0.942 -0.1363 -0.4031 -0.5769
  482MOL0     C65001   5.797   2.619   0.884 -0.1382 -0.0643  0.2417
  482MOL0     C65002   5.668   2.610   0.830  0.1183  0.3480  0.1364
  482MOL0     H65003   5.233   2.496   0.810  1.3323  1.8895  0.0701
  482MOL0     H65004   5.000   2.448   0.729  0.8016  0.0453  0.5358
  482MOL0     H65005   4.889   2.708   0.406 -0.7976  0.2796 -0.4907
  482MOL0     H65006   4.857   2.564   0.310  2.2686 -2.0054  1.2690
  482MOL0     H65007   4.675   2.666   0.542 -3.9058  1.1595 -2.0591
  482MOL0     H65008   4.638   2.678   0.365 -1.2838 -0.5535  0.3441
  482MOL0     H65009   4.649   2.429   0.363  1.4503  2.1729 -1.3186
  482MOL0     H65010   4.674   2.437   0.543 -1.1525  1.4996  1.3383
  482MOL0     H65011   4.450   2.519   0.574 -0.3397 -2.9657  1.4987
  482MOL0     H65012   4.424   2.535   0.395  1.3089 -0.8764 -1.7158
  482MOL0     H65013   4.452   2.294   0.372 -0.1649  2.1450 -1.0094
  482MOL0     H65014   4.457   2.275   0.545 -0.6209  0.1082  0.8822
  482MOL0     H65015   4.227   2.393   0.556  0.1751 -0.1448  0.2476
  482MOL0     H65016   4.227   2.406   0.385 -1.0943  1.5170  1.3443
  482MOL0     H65017   4.087   2.225   0.455 -0.3335  2.6834 -2.1674
  482MOL0     H65018   4.227   2.179   0.360  1.7094  1.6884  0.4023
  482MOL0     H65019   4.264   2.164   0.661 -0.2976 -0.4637  1.1736
  482MOL0     H65020   4.323   2.047   0.552  0.0544 -0.4775  0.5791
  482MOL0     H65021   4.064   1.931   0.409  3.8068  1.0135  1.4589
  482MOL0     H65022   3.843   1.791   0.440  2.8060 -2.1574  1.6982
  482MOL0     H65023   3.817   1.731   0.605  0.3111 -1.3784 -1.5266
  482MOL0     H65024   3.610   1.808   0.508 -0.6082  0.4506  2.2777
  482MOL0     H65025   3.662   1.974   0.505 -1.5192 -0.6681 -1.0473
  482MOL0     H65026   3.578   2.001   0.709  2.2036  0.4854  0.1546
  482MOL0     H65027   3.709   1.916   0.783 -0.9366 -0.1054  0.2037
  482MOL0     H65028   3.509   1.816   0.856  0.8561  0.3275  0.3915
  482MOL0     H65029   3.585   1.703   0.738  0.9587  0.9767 -0.3742
  482MOL0     H65030   3.386   1.998   0.833 -0.0131  0.4015 -0.1739
  482MOL0     H65031   3.311   2.182   0.910 -0.4189 -1.0502  0.1175
  482MOL0     H65032   3.232   2.297   0.802  1.1294  0.4337  0.5742
  482MOL0     H65033   3.132   2.190   0.903 -0.4064  0.3551 -0.1473
  482MOL0     H65034   3.093   2.447   0.540 -0.6948  0.4512 -0.4938
  482MOL0     H65035   3.031   2.674   0.527  0.0327 -2.4480 -2.9870
  482MOL0     H65036   2.626   2.758   0.601  0.0627  0.2813 -1.9792
  482MOL0     H65037   2.661   2.836   0.751  0.2497  0.2860  0.0991
  482MOL0     H65038   2.603   2.987   0.571  1.4195  1.6281  3.0841
  482MOL0     H65039   2.760   3.034   0.611 -1.1706  0.1485 -0.1027
  482MOL0     H65040   2.722   2.801   0.417  0.7707  0.0038  1.7293
  482MOL0     H65041   2.862   2.904   0.422 -0.0841  0.1499  0.3790
  482MOL0     H65042   2.585   2.994   0.335  0.9224  0.3301  2.4238
  482MOL0     H65043   2.731   3.092   0.336  1.3289  0.7116  3.3697
  482MOL0     H65044   2.679   2.829   0.191 -3.8454  0.6276 -1.9962
  482MOL0     H65045   2.818   2.948   0.149 -0.8507  2.7573 -0.6977
  482MOL0     H65046   2.632   3.115   0.086  0.6031 -0.4648  0.8935
  482MOL0     H65047   2.674   2.998  -0.027 -0.5377 -1.2613 -0.1773
  482MOL0     H65048   2.438   2.986   0.177 -0.6546 -1.8664  0.6492
  482MOL0     H65049   2.509   2.844   0.105  1.4545  0.0844 -0.2680
  482MOL0     H65050   2.309   2.925  -0.037  1.4392 -2.2456  0.2580
  482MOL0     H65051   2.460   2.948  -0.126  0.0440  2.1281 -1.2551
  482MOL0     H65052   2.713   2.603   0.820 -0.9075  0.3571 -0.7679
  482MOL0     H65053   2.773   2.386   0.830 -1.1130 -0.0028 -0.0815
  482MOL0     H65054   3.063   1.959   0.472  0.0279 -1.6934  0.2353
  482MOL0     H65055   3.218   1.802   0.485  1.3050  1.4052 -1.8644
  482MOL0     H65056   5.088   2.653   0.363 -0.5216  2.2634  1.3043
  482MOL0     H65057   5.325   2.696   0.442 -1.8386 -1.1998 -2.8353
  482MOL0     H65058   5.767   2.632   0.510  0.0259  0.7518 -0.3452
  482MOL0     H65059   5.981   2.651   0.610  0.1419  1.1994 -0.2797
  482MOL0     H65060   6.025   2.624   1.063 -0.8475  2.2635  1.4722
  482MOL0     H65061   6.178   2.684   0.999 -0.5375  0.0838 -0.4124
  482MOL0     H65062   6.066   2.871   1.111 -0.7461  2.1915 -0.8244
  482MOL0     H65063   5.916   2.838   1.025  0.0689  1.1387 -0.4625
  482MOL0     H65064   6.010   2.910   0.816  0.2454 -2.0423  1.8419
  482MOL0     H65065   6.165   2.947   0.881  1.2363  0.9481  2.9170
  482MOL0     H65066   6.042   3.152   0.912 -0.2886  0.7866  1.4936
  482MOL0     H65067   6.024   3.083   1.075  0.1337 -0.7527  0.4533
  482MOL0     H65068   5.635   3.056   0.941 -0.0479 -1.6286  0.9930
  482MOL0     H65069   5.812   2.606   0.991  0.5583  1.5161  0.3623
  482MOL0     H65070   5.588   2.599   0.903  1.9994  0.6178  2.3335
  483MOL0     O65071   9.484   2.840   1.986  0.2547  0.0987  0.0667
  483MOL0     C65072   9.487   2.795   2.098  0.2420 -0.5695  0.6084
  483MOL0     O65073   9.386   2.781   2.183  0.4514  0.2441  0.2248
  483MOL0     C65074   9.257   2.801   2.138 -0.1433  0.4088  1.0364
  483MOL0     C65075   9.174   2.692   2.127 -0.0078 -0.3752 -0.5989
  483MOL0     C65076   9.044   2.702   2.075  0.2550  0.0739 -0.2518
  483MOL0     C65077   8.996   2.824   2.031  1.1255 -0.1105 -0.4019
  483MOL0     O65078   8.866   2.828   1.982  0.4388  0.5460 -0.3016
  483MOL0     C65079   8.782   2.907   2.068  0.2882  0.3332 -0.1629
  483MOL0     C65080   8.648   2.889   1.997 -0.3161 -0.9666  0.5501
  483MOL0     C65081   8.539   2.982   2.038  0.2107 -0.0380  0.2794
  483MOL0     C65082   8.414   2.914   2.110  1.0786  0.0685 -0.4530
  483MOL0     C65083   8.291   3.017   2.105  0.0202  0.7338 -0.3792
  483MOL0     C65084   8.189   2.988   2.219 -0.0958 -0.3924  0.0342
  483MOL0     C65085   8.100   3.104   2.237 -0.1317 -0.0286 -0.0594
  483MOL0     C65086   7.995   3.115   2.126 -0.1136  0.3493  0.4156
  483MOL0     N65087   7.881   3.029   2.149  0.0933  0.6389  0.1624
  483MOL0     C65088   7.799   3.027   2.263  0.2937  0.2688 -1.1008
  483MOL0     C65089   7.723   2.911   2.241 -0.1911 -0.5109  0.7171
  483MOL0     C65090   7.627   2.859   2.337  0.1934  0.0909  0.4718
  483MOL0     C65091   7.487   2.926   2.334  0.4531  0.5999 -0.5595
  483MOL0     C65092   7.378   2.865   2.431 -0.2732  0.2042 -0.9028
  483MOL0     C65093   7.265   2.966   2.428 -0.7831 -0.0735 -0.0627
  483MOL0     O65094   7.308   3.097   2.473  0.5525  0.1817  0.1901
  483MOL0     C65095   7.198   3.171   2.521  0.3076 -0.7555 -0.5281
  483MOL0     C65096   7.219   3.259   2.628  0.4110 -0.8210  0.4938
  483MOL0     C65097   7.113   3.346   2.664  0.8214  1.1570  0.0349
  483MOL0     C65098   7.135   3.434   2.779  0.4926 -0.8092 -0.0371
  483MOL0     C65099   6.995   3.345   2.586  0.9855 -0.4371 -0.3800
  483MOL0     C65100   6.879   3.435   2.613  1.2700  0.0888  0.4782
  483MOL0     O65101   6.764   3.365   2.654 -0.3804  1.0508  0.3941
  483MOL0     C65102   6.638   3.413   2.645 -0.2150  0.3396  0.9055
  483MOL0     C65103   6.539   3.361   2.729 -1.0173 -0.2406 -1.1181
  483MOL0     C65104   6.408   3.392   2.713  1.4254  0.5900 -0.2589
  483MOL0     C65105   6.357   3.478   2.619 -0.0092  0.1969  0.1951
  483MOL0     O65106   6.223   3.509   2.600 -0.1613  0.3867  1.3205
  483MOL0     C65107   6.125   3.457   2.690  0.4866 -0.1955  1.4037
  483MOL0     C65108   5.982   3.516   2.653  0.1718 -0.4313  0.4818
  483MOL0     C65109   5.979   3.663   2.668 -0.5594 -0.5813  0.6186
  483MOL0     C65110   5.829   3.710   2.669 -0.5120 -0.0107  0.2910
  483MOL0     C65111   5.740   3.702   2.548  0.2345  0.2485  0.1109
  483MOL0     C65112   5.799   3.734   2.414 -0.2966 -1.2311  0.6351
  483MOL0     C65113   5.699   3.755   2.293  0.2124  0.0142 -0.4363
  483MOL0     C65114   5.574   3.669   2.314 -0.9477  0.3938 -0.2497
  483MOL0    Cl65115   5.624   3.489   2.281 -0.2603  0.1702  0.0378
  483MOL0     C65116   6.455   3.524   2.531 -0.5429 -0.1394 -0.4240
  483MOL0     C65117   6.592   3.499   2.545 -0.3776  0.0164 -0.2891
  483MOL0     O65118   6.877   3.559   2.589 -0.0692 -0.0594 -0.6823
  483MOL0     C65119   6.978   3.251   2.485 -0.5598  0.7034 -0.0292
  483MOL0     C65120   7.075   3.161   2.452 -0.3066  0.6768 -0.3083
  483MOL0     N65121   7.739   2.873   2.110 -0.4995  0.1122 -0.0237
  483MOL0     N65122   7.838   2.933   2.058  1.1370 -1.2308  0.1783
  483MOL0     C65123   9.066   2.941   2.048  0.0643 -0.6848  0.1398
  483MOL0     C65124   9.200   2.931   2.099 -0.1147 -0.6256  0.0673
  483MOL0     C65125   9.619   2.758   2.146 -0.1588 -0.2946 -0.0097
  483MOL0     C65126   9.636   2.763   2.283  0.0029 -0.0896 -0.4098
  483MOL0     C65127   9.751   2.710   2.347 -0.0474 -0.5673  0.8700
  483MOL0     C65128   9.856   2.674   2.263 -0.5723  0.1866 -0.5299
  483MOL0     O65129   9.980   2.643   2.313 -0.6235  0.3007  0.0610
  483MOL0     C65130   9.991   2.588   2.446 -0.3188  0.0720 -0.2494
  483MOL0     C65131  10.034   2.696   2.546  0.9975 -1.0326 -0.6230
  483MOL0     C65132  10.119   2.651   2.667 -0.4004 -0.4939 -0.3331
  483MOL0     C65133  10.130   2.744   2.797  0.1398  0.3810 -0.0687
  483MOL0     C65134  10.208   2.679   2.906 -0.3725 -0.2633  0.0059
  483MOL0     C65135  10.276   2.633   2.995  0.6258 -0.1818 -0.4904
  483MOL0     C65136   9.840   2.676   2.121  0.5552 -0.2946 -0.6617
  483MOL0     C65137   9.721   2.720   2.062  1.2190 -0.5504  1.0024
  483MOL0     H65138   9.211   2.595   2.159  2.0637  0.8326  0.8845
  483MOL0     H65139   8.981   2.613   2.076 -0.6952  0.7129 -0.9923
  483MOL0     H65140   8.779   2.856   2.165 -2.1207  0.1332 -0.2832
  483MOL0     H65141   8.797   3.015   2.076 -0.9008  0.4699  0.3010
  483MOL0     H65142   8.653   2.901   1.889 -1.7099 -3.0499  0.2085
  483MOL0     H65143   8.619   2.785   2.013  0.8685 -1.7382 -1.9123
  483MOL0     H65144   8.576   3.061   2.105 -1.1663  0.7605  0.1247
  483MOL0     H65145   8.505   3.037   1.950  2.7722  0.7655 -0.3050
  483MOL0     H65146   8.388   2.817   2.068  0.4658  0.0573 -0.0583
  483MOL0     H65147   8.435   2.899   2.217 -4.1054  1.4558  1.0744
  483MOL0     H65148   8.337   3.116   2.113 -0.7637  1.0201  0.7362
  483MOL0     H65149   8.246   3.013   2.005  1.7100 -3.9027 -1.2498
  483MOL0     H65150   8.122   2.904   2.198 -2.5228  0.4429  3.6085
  483MOL0     H65151   8.239   2.969   2.314  2.0166  1.0564 -0.7068
  483MOL0     H65152   8.044   3.077   2.327  1.1403 -3.1878 -0.0795
  483MOL0     H65153   8.156   3.196   2.256  1.1991 -0.9213  0.4943
  483MOL0     H65154   8.025   3.082   2.026  0.4750  0.5489  0.5283
  483MOL0     H65155   7.957   3.217   2.122  0.7332  0.8659  3.5929
  483MOL0     H65156   7.816   3.089   2.351 -2.2769  2.5088 -2.0115
  483MOL0     H65157   7.615   2.752   2.321  3.1482 -0.6052  2.2609
  483MOL0     H65158   7.675   2.871   2.434  1.2731 -0.7371  0.0523
  483MOL0     H65159   7.445   2.919   2.233 -5.3698  0.9711  1.4046
  483MOL0     H65160   7.514   3.030   2.355  1.2578  0.3415 -0.2965
  483MOL0     H65161   7.430   2.857   2.527 -2.0653 -1.4590 -0.0025
  483MOL0     H65162   7.360   2.768   2.384  1.8708 -1.8794  2.1800
  483MOL0     H65163   7.190   2.920   2.493 -0.5195 -1.1252 -0.4870
  483MOL0     H65164   7.225   2.969   2.326  0.8037  0.0907 -0.7101
  483MOL0     H65165   7.316   3.281   2.670  0.7733  0.1925 -0.7928
  483MOL0     H65166   7.090   3.533   2.765  2.4061  0.2059  0.5879
  483MOL0     H65167   7.080   3.391   2.864  1.3221 -4.1774 -1.0458
  483MOL0     H65168   7.241   3.442   2.807  0.3647  0.1927  0.1998
  483MOL0     H65169   6.577   3.290   2.802 -1.2983 -0.4098 -1.1340
  483MOL0     H65170   6.333   3.341   2.771 -0.2111  0.1997 -2.5573
  483MOL0     H65171   6.116   3.351   2.666 -1.4939  0.3487 -0.6270
  483MOL0     H65172   6.144   3.482   2.795  1.3641 -1.3879  1.5433
  483MOL0     H65173   5.946   3.481   2.556  0.2561 -1.3116  0.7550
  483MOL0     H65174   5.906   3.484   2.725  0.7470  0.0515  1.3183
  483MOL0     H65175   6.042   3.712   2.594  0.2438 -2.1585  0.2108
  483MOL0     H65176   6.024   3.705   2.759 -0.5440  1.1456 -0.1524
  483MOL0     H65177   5.774   3.657   2.747 -2.3810  0.2509 -0.7722
  483MOL0     H65178   5.830   3.817   2.689 -2.2525  0.2943 -1.0480
  483MOL0     H65179   5.649   3.762   2.552 -0.6838 -0.9841 -1.1788
  483MOL0     H65180   5.701   3.601   2.542 -2.7701  1.3785 -1.3913
  483MOL0     H65181   5.862   3.823   2.412  0.1611 -1.5669 -0.3806
  483MOL0     H65182   5.864   3.653   2.380  0.3033 -0.7505  0.6267
  483MOL0     H65183   5.743   3.715   2.201 -1.7316 -3.9305  0.1485
  483MOL0     H65184   5.674   3.861   2.294  2.3168  0.5600  1.1292
  483MOL0     H65185   5.507   3.698   2.233  0.6990  2.7598 -0.8544
  483MOL0     H65186   5.520   3.675   2.409  0.7308 -2.6059  1.0542
  483MOL0     H65187   6.421   3.586   2.448  3.2433  3.1444  0.1537
  483MOL0     H65188   6.659   3.543   2.472  0.6047 -0.1238  0.5114
  483MOL0     H65189   6.877   3.245   2.448  0.0249  2.5987 -2.1087
  483MOL0     H65190   7.057   3.082   2.380  0.3709 -0.6001  0.8789
  483MOL0     H65191   9.023   3.037   2.021  2.4747  0.5050  0.2407
  483MOL0     H65192   9.261   3.019   2.114  0.5669 -1.3504  1.8618
  483MOL0     H65193   9.556   2.796   2.348  1.5404  4.3851 -0.4940
  483MOL0     H65194   9.751   2.714   2.455 -1.2157 -1.3136  0.9171
  483MOL0     H65195   9.891   2.554   2.473 -0.5299 -1.1978 -2.4392
  483MOL0     H65196  10.060   2.503   2.449 -0.9411 -0.4398 -0.2400
  483MOL0     H65197   9.941   2.742   2.578  1.8207 -0.2916  0.7794
  483MOL0     H65198  10.087   2.773   2.488 -1.0307 -0.2636 -1.5535
  483MOL0     H65199  10.216   2.633   2.620  0.5004  2.8520 -0.0254
  483MOL0     H65200  10.090   2.554   2.710  0.9406 -0.4123  0.7980
  483MOL0     H65201  10.030   2.770   2.833  0.2983  1.7410 -0.5497
  483MOL0     H65202  10.182   2.834   2.764 -1.2142  0.7871 -1.1870
  483MOL0     H65203  10.329   2.621   3.088 -1.4338  1.8458  1.0579
  483MOL0     H65204   9.914   2.654   2.045 -0.4857  0.3091 -1.8840
  483MOL0     H65205   9.709   2.714   1.954 -1.5767  1.4421  1.0604
  484MOL0     O65206   9.690   0.503   2.289  0.5263  0.2517  0.1469
  484MOL0     C65207   9.702   0.381   2.288  0.2223  0.6584  0.0077
  484MOL0     O65208   9.602   0.290   2.277 -0.2295  0.5969  0.1012
  484MOL0     C65209   9.485   0.314   2.211  0.9377  0.1706 -0.3279
  484MOL0     C65210   9.436   0.440   2.159 -0.6833 -0.6349  0.1522
  484MOL0     C65211   9.316   0.446   2.094  0.2286 -0.5311 -0.0065
  484MOL0     C65212   9.236   0.336   2.086 -0.0626  0.5098  0.7588
  484MOL0     O65213   9.114   0.340   2.033 -0.2071  0.1917  0.7847
  484MOL0     C65214   9.038   0.457   2.067  1.2852 -0.2132  0.3551
  484MOL0     C65215   8.883   0.436   2.063 -1.1794 -0.3070  0.7200
  484MOL0     C65216   8.822   0.355   2.172 -0.8337  0.3609 -0.0645
  484MOL0     C65217   8.674   0.340   2.154  0.5663  0.2485  0.9690
  484MOL0     C65218   8.624   0.249   2.259  0.4660 -0.2084  0.0498
  484MOL0     C65219   8.474   0.235   2.246 -0.1785  0.8707  0.1530
  484MOL0     C65220   8.432   0.146   2.366  0.7609  0.2988  0.2350
  484MOL0     C65221   8.278   0.109   2.362  1.0933  0.4022 -0.2224
  484MOL0     N65222   8.259  -0.008   2.278  0.2566  0.5893 -0.2031
  484MOL0     C65223   8.224  -0.140   2.321  0.5341  0.3780 -0.4255
  484MOL0     C65224   8.204  -0.218   2.212 -0.5477  0.0459 -0.0599
  484MOL0     C65225   8.169  -0.363   2.189  0.1509 -0.6527 -0.2966
  484MOL0     C65226   8.031  -0.385   2.148  0.0177  0.0854 -0.1234
  484MOL0     C65227   7.970  -0.314   2.030 -0.1104 -0.8080  0.2283
  484MOL0     C65228   7.839  -0.392   1.980 -0.6240  0.2919  0.3658
  484MOL0     O65229   7.750  -0.436   2.087 -0.7541  0.4068  0.3280
  484MOL0     C65230   7.621  -0.400   2.076  0.2384  0.3693 -0.1752
  484MOL0     C65231   7.581  -0.275   2.127 -0.1599  0.0096  0.8070
  484MOL0     C65232   7.458  -0.212   2.107 -0.2336 -0.2091 -0.2969
  484MOL0     C65233   7.433  -0.083   2.183  0.2743  0.3411  0.3285
  484MOL0     C65234   7.362  -0.289   2.028 -0.8377 -0.1878 -0.0067
  484MOL0     C65235   7.224  -0.243   2.007 -0.5977  0.2536  0.3176
  484MOL0     O65236   7.197  -0.116   2.039  0.4009 -0.1681 -0.0643
  484MOL0     C65237   7.062  -0.087   2.052  0.2369 -0.0645 -0.1280
  484MOL0     C65238   7.001  -0.082   2.181  0.3569 -0.6779  0.2300
  484MOL0     C65239   6.857  -0.058   2.194  0.4366 -0.2535  0.9202
  484MOL0     C65240   6.773  -0.052   2.082 -0.2891  0.3072  0.0766
  484MOL0     O65241   6.634  -0.060   2.091 -0.1588  0.1217 -0.5511
  484MOL0     C65242   6.549  -0.067   1.974  0.2990 -0.6279 -1.1594
  484MOL0     C65243   6.408  -0.111   2.020 -0.2416 -1.1732  0.2532
  484MOL0     C65244   6.301  -0.110   1.912 -0.1771  0.0834  0.4730
  484MOL0     C65245   6.158  -0.152   1.966 -0.2314  0.0228  1.3916
  484MOL0     C65246   6.137  -0.312   1.951 -0.7510  0.3431  0.0397
  484MOL0     C65247   6.001  -0.363   1.992 -0.4474 -0.8641 -0.4663
  484MOL0     C65248   5.882  -0.304   1.904  0.1307 -0.0131 -0.0191
  484MOL0     C65249   5.750  -0.369   1.937 -0.1443  0.0504 -0.5084
  484MOL0    Cl65250   5.765  -0.538   1.937 -0.0109  0.1816  0.0444
  484MOL0     C65251   6.837  -0.042   1.955  0.8152  0.5448 -0.2900
  484MOL0     C65252   6.975  -0.071   1.937 -0.0299 -0.4940 -0.3182
  484MOL0     O65253   7.144  -0.324   1.966  0.6464  0.9995  0.7666
  484MOL0     C65254   7.397  -0.420   1.983  0.2993 -0.7241  0.1890
  484MOL0     C65255   7.521  -0.471   2.005 -0.6510 -0.4968  0.2869
  484MOL0     N65256   8.230  -0.135   2.099  0.8940  0.2177  0.3461
  484MOL0     N65257   8.254  -0.014   2.144  0.4334  0.3503 -0.4757
  484MOL0     C65258   9.277   0.210   2.143  0.7725  0.4494 -0.4836
  484MOL0     C65259   9.401   0.200   2.209 -0.4024  0.0083  0.4142
  484MOL0     C65260   9.831   0.331   2.318 -0.2639  0.4167  0.1926
  484MOL0     C65261   9.849   0.197   2.344 -1.0715  0.1577  0.8780
  484MOL0     C65262   9.972   0.145   2.380  0.5582 -0.1512  0.1881
  484MOL0     C65263  10.087   0.230   2.363 -0.1136  0.5830 -0.1120
  484MOL0     O65264  10.206   0.169   2.390 -0.1495 -0.1887  0.6498
  484MOL0     C65265  10.329   0.250   2.373 -1.1233  0.1731 -0.4141
  484MOL0     C65266  10.427   0.195   2.473  0.1950  0.2193 -0.3953
  484MOL0     C65267  10.404   0.237   2.616 -0.0702 -0.2841  0.3967
  484MOL0     C65268  10.527   0.231   2.705 -0.1553 -0.2336  0.4158
  484MOL0     C65269  10.629   0.321   2.650 -0.3988  0.1933 -0.3945
  484MOL0     C65270  10.727   0.395   2.625 -0.7340  0.0936 -0.1824
  484MOL0     C65271  10.078   0.355   2.316  0.2955  0.3224  0.1299
  484MOL0     C65272   9.946   0.412   2.306  0.3482 -0.0521 -0.1216
  484MOL0     H65273   9.492   0.533   2.161  0.2879 -1.1386 -1.7368
  484MOL0     H65274   9.289   0.535   2.038 -1.1312 -2.6539 -2.9878
  484MOL0     H65275   9.066   0.488   2.168  0.5037 -0.5496  0.6836
  484MOL0     H65276   9.072   0.532   1.996  0.8838  1.5695  1.9698
  484MOL0     H65277   8.821   0.526   2.054 -0.4760  0.0433 -1.1430
  484MOL0     H65278   8.863   0.386   1.968  0.6983  0.3574 -0.0801
  484MOL0     H65279   8.875   0.260   2.185 -1.8256 -0.5605 -2.2424
  484MOL0     H65280   8.837   0.406   2.267  3.3169  0.8912 -0.8211
  484MOL0     H65281   8.630   0.440   2.165  0.8524  0.3915  0.8298
  484MOL0     H65282   8.639   0.308   2.055 -1.7829  1.7204  1.2533
  484MOL0     H65283   8.667   0.150   2.244  3.0869  0.3958  2.5653
  484MOL0     H65284   8.664   0.276   2.358  1.1408 -0.8328 -0.0459
  484MOL0     H65285   8.418   0.328   2.257  1.0412  1.6340  0.0859
  484MOL0     H65286   8.453   0.205   2.143 -0.2544  0.4819  0.2773
  484MOL0     H65287   8.495   0.056   2.364  1.7315  0.9714 -0.8679
  484MOL0     H65288   8.454   0.208   2.453  4.2331  0.0260 -0.2767
  484MOL0     H65289   8.213   0.188   2.325 -0.3708 -1.1229 -1.0013
  484MOL0     H65290   8.255   0.076   2.464  1.2404 -2.0993 -0.9241
  484MOL0     H65291   8.204  -0.178   2.421 -0.3102 -2.7515 -1.6602
  484MOL0     H65292   8.234  -0.404   2.111 -1.1831 -2.7393 -0.4049
  484MOL0     H65293   8.193  -0.408   2.286  0.4999 -0.5889 -0.3531
  484MOL0     H65294   7.975  -0.351   2.236  0.5854 -0.8339  0.6216
  484MOL0     H65295   8.009  -0.492   2.151 -1.6818  0.3717 -1.3885
  484MOL0     H65296   8.041  -0.300   1.949 -0.6667 -0.7502 -0.2588
  484MOL0     H65297   7.928  -0.218   2.060  0.1941 -0.6938  0.2832
  484MOL0     H65298   7.861  -0.477   1.915 -0.2104 -0.0199  0.9028
  484MOL0     H65299   7.777  -0.316   1.931 -3.7535 -1.5403  1.2119
  484MOL0     H65300   7.659  -0.233   2.190  2.0738 -3.3424  0.5220
  484MOL0     H65301   7.521  -0.051   2.239  0.5538  0.1264  0.0183
  484MOL0     H65302   7.409   0.003   2.120  1.7371  1.8550  1.7367
  484MOL0     H65303   7.361  -0.107   2.261  0.0693  0.2351  0.1076
  484MOL0     H65304   7.063  -0.082   2.270  1.5710  0.2954 -0.5915
  484MOL0     H65305   6.827  -0.058   2.298  2.9395  0.8675  1.7112
  484MOL0     H65306   6.546   0.036   1.937 -1.6226 -0.9084 -1.9115
  484MOL0     H65307   6.590  -0.130   1.895  0.7443 -1.6094 -0.1809
  484MOL0     H65308   6.418  -0.213   2.058 -2.8246 -0.8649  1.9618
  484MOL0     H65309   6.376  -0.044   2.101  0.0190 -1.1083  0.3056
  484MOL0     H65310   6.322  -0.183   1.834 -2.0493  0.6404 -0.5938
  484MOL0     H65311   6.299  -0.010   1.868  3.7845  0.1445  0.0568
  484MOL0     H65312   6.137  -0.121   2.069 -0.3628  2.4657  0.7030
  484MOL0     H65313   6.084  -0.107   1.900  0.7688  0.6770  0.6861
  484MOL0     H65314   6.208  -0.366   2.014 -0.6183 -0.9673 -1.1878
  484MOL0     H65315   6.154  -0.338   1.846  2.4054  3.1243 -0.3288
  484MOL0     H65316   6.000  -0.471   1.981  1.5412 -1.0989  1.0118
  484MOL0     H65317   5.975  -0.352   2.098  0.6082 -3.2243  0.0994
  484MOL0     H65318   5.896  -0.316   1.796 -0.8721 -0.5382 -0.1045
  484MOL0     H65319   5.866  -0.196   1.911  2.2494  0.3394 -0.0275
  484MOL0     H65320   5.674  -0.341   1.863  1.0841  2.3667 -0.9767
  484MOL0     H65321   5.712  -0.332   2.032 -1.7319 -1.8283 -0.3310
  484MOL0     H65322   6.776  -0.035   1.865  0.9915  1.2405 -0.3608
  484MOL0     H65323   7.015  -0.068   1.837 -3.2240 -0.0583 -1.6930
  484MOL0     H65324   7.327  -0.487   1.934  2.3717 -1.8030 -1.4291
  484MOL0     H65325   7.536  -0.573   1.973  0.3958  0.4518 -2.6328
  484MOL0     H65326   9.207   0.127   2.131  2.0156 -0.7896  0.6450
  484MOL0     H65327   9.441   0.103   2.239 -1.0949 -1.1219 -2.0302
  484MOL0     H65328   9.764   0.128   2.342  0.1782 -1.4283 -1.1204
  484MOL0     H65329   9.981   0.042   2.413 -2.3244 -0.3458  0.6666
  484MOL0     H65330  10.370   0.224   2.275  1.6895  0.2536  0.6349
  484MOL0     H65331  10.326   0.359   2.374 -2.1238  0.1519  0.5130
  484MOL0     H65332  10.533   0.210   2.450  1.1825 -0.7089  3.0684
  484MOL0     H65333  10.415   0.087   2.483  0.9945  0.1621 -0.0355
  484MOL0     H65334  10.315   0.188   2.658 -3.1915  1.8182 -3.1476
  484MOL0     H65335  10.374   0.342   2.617 -0.4062 -0.3772  0.1239
  484MOL0     H65336  10.559   0.127   2.697 -2.1912 -0.9463  1.1259
  484MOL0     H65337  10.500   0.259   2.807 -0.6807 -1.2662  0.5688
  484MOL0     H65338  10.811   0.459   2.610 -0.5640 -0.4207 -1.4940
  484MOL0     H65339  10.164   0.411   2.282  0.0485  1.6282  1.5735
  484MOL0     H65340   9.929   0.516   2.283  2.2849  0.1833 -0.6037
  485MOL0     O65341   4.679   5.039   1.222 -0.3584 -0.4681  0.2795
  485MOL0     C65342   4.685   5.158   1.252  0.6115  0.7460 -0.6634
  485MOL0     O65343   4.579   5.239   1.290 -0.9536  0.1287  0.0896
  485MOL0     C65344   4.454   5.203   1.247  0.2296 -0.1090  0.6772
  485MOL0     C65345   4.353   5.200   1.330  0.3390  0.6359  0.9779
  485MOL0     C65346   4.225   5.172   1.288  0.0529 -0.2435  0.1601
  485MOL0     C65347   4.198   5.125   1.157  0.4803  0.3418 -0.8567
  485MOL0     O65348   4.082   5.073   1.114 -0.0572 -0.0025  0.6566
  485MOL0     C65349   3.971   5.054   1.204  0.1246  0.2898 -0.3892
  485MOL0     C65350   3.851   4.993   1.137  0.5686 -0.3122  0.1386
  485MOL0     C65351   3.740   4.957   1.239  0.2696 -0.2079  0.6683
  485MOL0     C65352   3.673   5.081   1.295 -0.7480 -0.0213  0.0426
  485MOL0     C65353   3.574   5.040   1.400  0.1977  1.0186  0.1014
  485MOL0     C65354   3.446   4.978   1.346 -0.6287 -0.2766  0.7760
  485MOL0     C65355   3.336   5.079   1.307  0.2644 -0.6084 -0.9793
  485MOL0     C65356   3.240   5.115   1.411  0.3330 -1.1625  0.2882
  485MOL0     N65357   3.171   4.998   1.467 -0.3436  0.0499 -0.4723
  485MOL0     C65358   3.040   4.966   1.436  0.1930 -0.1410  1.0301
  485MOL0     C65359   2.980   4.907   1.544 -0.7505  0.2366  0.5359
  485MOL0     C65360   2.835   4.854   1.551 -0.7117 -0.3802 -0.2275
  485MOL0     C65361   2.751   4.954   1.464  0.2766 -0.7523 -0.1689
  485MOL0     C65362   2.600   4.935   1.496 -0.0244 -0.5093 -0.0532
  485MOL0     C65363   2.550   4.988   1.632  0.6328  0.3806 -0.1851
  485MOL0     O65364   2.408   4.937   1.652 -0.3892  0.5557  0.6325
  485MOL0     C65365   2.314   5.034   1.677 -0.4173  0.1322 -0.0150
  485MOL0     C65366   2.256   5.026   1.809  0.5565 -0.2495  0.3234
  485MOL0     C65367   2.141   5.107   1.841 -0.3678  0.5652 -0.2766
  485MOL0     C65368   2.089   5.079   1.983 -0.8724  0.4498 -0.5586
  485MOL0     C65369   2.100   5.207   1.745  0.6808  0.1648  0.1478
  485MOL0     C65370   1.995   5.311   1.772 -0.3840 -0.2477 -0.1833
  485MOL0     O65371   2.008   5.422   1.703  0.1627  0.3461  0.6774
  485MOL0     C65372   1.925   5.531   1.730 -0.4836  0.1791 -0.3310
  485MOL0     C65373   1.976   5.650   1.783 -0.4146  0.7577  0.5079
  485MOL0     C65374   1.895   5.757   1.812  0.3461 -0.3235  0.4714
  485MOL0     C65375   1.759   5.752   1.788 -0.2662  0.2121  0.1177
  485MOL0     O65376   1.657   5.844   1.806  0.2487  0.6053 -0.0191
  485MOL0     C65377   1.696   5.977   1.808  0.4351  0.0888  0.2552
  485MOL0     C65378   1.621   6.052   1.912 -0.0902 -0.9731 -0.3179
  485MOL0     C65379   1.682   6.035   2.049 -0.9489 -0.2325 -0.8130
  485MOL0     C65380   1.819   6.093   2.074  0.4907 -0.0362  0.8600
  485MOL0     C65381   1.865   6.080   2.219  0.7037  0.5333  0.2766
  485MOL0     C65382   1.978   6.171   2.255  0.1592  0.8021  0.3360
  485MOL0     C65383   2.056   6.102   2.372 -0.4055 -0.2796 -0.0683
  485MOL0     C65384   2.169   6.174   2.439 -0.9021  0.1272  0.2645
  485MOL0    Cl65385   2.257   6.064   2.542  0.0421  0.2515  0.1264
  485MOL0     C65386   1.705   5.629   1.727 -0.1559  0.8440 -0.9408
  485MOL0     C65387   1.786   5.520   1.710  0.1746  0.1406 -1.2948
  485MOL0     O65388   1.913   5.290   1.858 -0.0153  0.3883  0.0888
  485MOL0     C65389   2.160   5.208   1.618 -0.0832  0.7338 -1.1238
  485MOL0     C65390   2.270   5.130   1.585  0.6580  0.5866 -0.1114
  485MOL0     N65391   3.071   4.910   1.651  0.2577 -0.2601  0.6190
  485MOL0     N65392   3.181   4.971   1.602  0.0927  0.7398 -1.0138
  485MOL0     C65393   4.301   5.128   1.064  0.0037  0.3157  0.2226
  485MOL0     C65394   4.426   5.175   1.111 -0.8453 -0.7911  0.3707
  485MOL0     C65395   4.824   5.211   1.273  0.6853 -0.6461  0.4485
  485MOL0     C65396   4.919   5.176   1.174  0.0471  0.3785 -0.6491
  485MOL0     C65397   5.047   5.210   1.191 -0.1360 -0.3824 -0.0108
  485MOL0     C65398   5.092   5.298   1.287 -0.6375 -0.1745 -0.6411
  485MOL0     O65399   5.228   5.323   1.295 -0.3635  0.3601 -0.3056
  485MOL0     C65400   5.271   5.396   1.408 -0.2481  0.1991 -0.3321
  485MOL0     C65401   5.419   5.442   1.377  0.2106  1.4199 -0.1629
  485MOL0     C65402   5.459   5.547   1.477 -0.7209 -0.8467  0.3423
  485MOL0     C65403   5.590   5.620   1.442 -0.3782 -0.2008  0.2254
  485MOL0     C65404   5.687   5.522   1.390 -0.9197  0.5897 -0.2656
  485MOL0     C65405   5.759   5.436   1.347  0.9751 -0.8141 -0.4264
  485MOL0     C65406   4.997   5.339   1.383 -0.8970 -0.0167  0.3092
  485MOL0     C65407   4.861   5.291   1.378 -0.3239 -0.4351  0.2689
  485MOL0     H65408   4.361   5.234   1.433 -0.6158  2.4271  0.4985
  485MOL0     H65409   4.150   5.176   1.367  0.1457  3.8158  0.2919
  485MOL0     H65410   4.007   5.004   1.294  1.4979 -0.6401 -1.4103
  485MOL0     H65411   3.944   5.156   1.234  1.2452 -0.0145  1.7990
  485MOL0     H65412   3.810   5.062   1.062 -1.8773  0.8810  2.4223
  485MOL0     H65413   3.888   4.906   1.081 -1.2904  0.9058 -3.3277
  485MOL0     H65414   3.673   4.878   1.203 -0.2521 -1.3095  3.7597
  485MOL0     H65415   3.796   4.910   1.320  0.9854 -2.4455 -1.0146
  485MOL0     H65416   3.750   5.143   1.343 -1.1022 -0.2613  0.9549
  485MOL0     H65417   3.625   5.145   1.222 -0.3817 -0.9680 -1.0605
  485MOL0     H65418   3.615   4.964   1.467 -3.6960 -0.2745  1.2714
  485MOL0     H65419   3.542   5.132   1.448 -0.2765  1.7925 -1.6220
  485MOL0     H65420   3.476   4.937   1.250 -2.4497  3.9494 -1.9121
  485MOL0     H65421   3.413   4.897   1.412 -1.4200 -0.4580  0.1649
  485MOL0     H65422   3.382   5.172   1.270 -0.3399  0.1349  0.0965
  485MOL0     H65423   3.268   5.038   1.232 -1.1053  0.2951 -0.2710
  485MOL0     H65424   3.170   5.180   1.358  3.1780 -1.6195 -4.6233
  485MOL0     H65425   3.299   5.175   1.480  0.9096  1.3303 -2.1903
  485MOL0     H65426   2.994   4.989   1.341  3.7346  1.1376 -0.5579
  485MOL0     H65427   2.836   4.754   1.506  0.5303  1.5044 -4.9244
  485MOL0     H65428   2.806   4.841   1.656  4.0479  1.3962  1.6057
  485MOL0     H65429   2.781   4.937   1.360  0.1474 -2.9358  0.1051
  485MOL0     H65430   2.773   5.058   1.490  1.7965 -1.0600 -0.1271
  485MOL0     H65431   2.574   4.828   1.494 -2.0105 -0.1995  2.9218
  485MOL0     H65432   2.538   4.980   1.418  2.4370  0.7581 -1.3830
  485MOL0     H65433   2.535   5.096   1.629 -1.4909  0.1335 -2.5956
  485MOL0     H65434   2.608   4.959   1.720 -2.6785 -0.1691  2.0095
  485MOL0     H65435   2.298   4.950   1.875  2.7794 -0.4374 -1.2144
  485MOL0     H65436   2.087   5.170   2.045  0.9063  1.2401 -1.5953
  485MOL0     H65437   1.989   5.035   1.980 -0.7990  0.3476 -1.7876
  485MOL0     H65438   2.148   5.014   2.049 -1.6709  0.4161  0.1484
  485MOL0     H65439   2.082   5.658   1.807 -0.6730  3.0597  1.1159
  485MOL0     H65440   1.941   5.847   1.851 -0.1227  0.2246 -0.2217
  485MOL0     H65441   1.803   5.995   1.822  0.7613 -1.3211 -0.2752
  485MOL0     H65442   1.670   6.024   1.712  0.3098 -1.0643 -0.2872
  485MOL0     H65443   1.620   6.160   1.896 -3.8086 -0.7721  0.5271
  485MOL0     H65444   1.517   6.018   1.920 -0.6246  0.6407 -0.1069
  485MOL0     H65445   1.676   5.933   2.089 -2.4121  0.6847  1.5146
  485MOL0     H65446   1.612   6.103   2.099 -3.2266 -2.7195 -0.4035
  485MOL0     H65447   1.895   6.043   2.013  0.6197 -1.1336  1.8714
  485MOL0     H65448   1.819   6.198   2.043  0.0544  0.0388  1.1112
  485MOL0     H65449   1.885   5.976   2.247  0.4559  0.6136  0.7713
  485MOL0     H65450   1.777   6.099   2.281  1.7323 -1.7578  2.6310
  485MOL0     H65451   2.046   6.164   2.170 -0.5755 -0.2329 -0.1870
  485MOL0     H65452   1.952   6.277   2.269 -0.2802  0.7344  0.0308
  485MOL0     H65453   2.087   6.002   2.338 -1.9225 -1.1784  1.0726
  485MOL0     H65454   1.998   6.085   2.463 -0.7356  1.3921  0.0491
  485MOL0     H65455   2.138   6.271   2.477 -0.4911  0.8925 -1.2890
  485MOL0     H65456   2.242   6.202   2.361  0.3700  0.5216  1.5523
  485MOL0     H65457   1.599   5.628   1.700 -0.8645 -3.8303  1.1458
  485MOL0     H65458   1.746   5.428   1.667 -0.7321 -0.9316  1.5770
  485MOL0     H65459   2.117   5.270   1.541  0.1381  2.2099 -0.0890
  485MOL0     H65460   2.305   5.127   1.482  2.8752 -1.9005  0.5907
  485MOL0     H65461   4.275   5.097   0.963 -5.1173 -1.7729  1.8408
  485MOL0     H65462   4.503   5.201   1.039 -0.3339  2.6491  1.9242
  485MOL0     H65463   4.886   5.113   1.091  1.8220 -3.2942  1.1596
  485MOL0     H65464   5.125   5.178   1.122  1.7282 -0.4854  2.0372
  485MOL0     H65465   5.207   5.482   1.426 -0.4480  0.0058 -0.1085
  485MOL0     H65466   5.267   5.332   1.496 -2.2908  0.1065 -0.4521
  485MOL0     H65467   5.431   5.490   1.279 -1.3753  1.3093 -0.4333
  485MOL0     H65468   5.492   5.361   1.384 -1.7607 -0.3870  0.6994
  485MOL0     H65469   5.460   5.511   1.580  0.2905 -0.7058  0.3862
  485MOL0     H65470   5.381   5.624   1.470 -1.5234 -1.4381  2.1546
  485MOL0     H65471   5.619   5.678   1.529  0.5451  0.0726 -0.2522
  485MOL0     H65472   5.582   5.686   1.355  1.4502 -0.0335  0.1468
  485MOL0     H65473   5.836   5.368   1.318 -1.0805 -1.6702 -4.6560
  485MOL0     H65474   5.019   5.406   1.466 -0.5936  4.6093 -3.1099
  485MOL0     H65475   4.779   5.313   1.446 -0.3285  0.7657 -0.1104
  486MOL0     O65476   9.189   2.035   4.216  0.3464 -0.3037 -0.2544
  486MOL0     C65477   9.198   2.144   4.153 -0.6033 -0.2662 -0.3424
  486MOL0     O65478   9.092   2.228   4.141 -0.7149  0.3423  0.2395
  486MOL0     C65479   8.974   2.168   4.110  1.0181 -0.1972 -0.4275
  486MOL0     C65480   8.960   2.067   4.007 -0.4455 -0.0289 -1.0267
  486MOL0     C65481   8.832   2.020   3.984  0.4728  0.1216 -0.9854
  486MOL0     C65482   8.720   2.065   4.064 -0.3870  0.7941 -0.0226
  486MOL0     O65483   8.600   2.005   4.052  0.9462 -0.5596  0.2967
  486MOL0     C65484   8.507   2.095   3.990 -0.5312 -0.3029 -0.1795
  486MOL0     C65485   8.368   2.053   4.024 -0.6825 -0.3718  0.3572
  486MOL0     C65486   8.261   2.120   3.944 -0.0957 -0.0823 -0.6700
  486MOL0     C65487   8.126   2.039   3.963  0.6451  0.0620  0.3766
  486MOL0     C65488   8.024   2.099   3.866  0.0295 -0.0550 -0.0392
  486MOL0     C65489   7.887   2.023   3.874 -0.4471  0.2535 -0.0446
  486MOL0     C65490   7.800   2.093   3.981  0.4045 -0.4122 -0.4989
  486MOL0     C65491   7.656   2.043   3.996 -0.4327  0.1178 -0.3124
  486MOL0     N65492   7.577   2.063   3.874  0.4096  0.6226  0.9464
  486MOL0     C65493   7.604   2.144   3.768  0.2202 -0.0969  0.5540
  486MOL0     C65494   7.490   2.144   3.692  0.5957 -0.1773  0.2323
  486MOL0     C65495   7.465   2.227   3.564  0.4184  0.1897  0.6035
  486MOL0     C65496   7.363   2.341   3.588  0.4975 -0.1842  0.3410
  486MOL0     C65497   7.324   2.420   3.463 -0.1280  0.4412 -0.1074
  486MOL0     C65498   7.204   2.507   3.486 -0.0463  1.3351  0.6446
  486MOL0     O65499   7.190   2.597   3.374 -0.9193 -0.9110 -0.5620
  486MOL0     C65500   7.070   2.641   3.341  0.3944 -0.2339 -0.2738
  486MOL0     C65501   7.047   2.674   3.205  0.4274  0.0891  0.6157
  486MOL0     C65502   6.928   2.723   3.155  0.1705 -1.1361 -0.0884
  486MOL0     C65503   6.922   2.774   3.011  0.6674 -0.7164  0.2497
  486MOL0     C65504   6.817   2.736   3.239 -0.1306  0.0294 -0.1915
  486MOL0     C65505   6.675   2.760   3.202 -0.6443  0.4154  0.5331
  486MOL0     O65506   6.595   2.800   3.311  0.1119  0.1893 -0.4771
  486MOL0     C65507   6.470   2.816   3.277 -0.0729 -0.7092  0.4180
  486MOL0     C65508   6.422   2.948   3.279 -0.0269 -0.0772 -0.4237
  486MOL0     C65509   6.294   2.977   3.257  0.3055 -0.5424  0.3624
  486MOL0     C65510   6.200   2.885   3.228 -0.2061  1.2528 -0.1041
  486MOL0     O65511   6.065   2.924   3.210  0.2719 -1.3336  0.1203
  486MOL0     C65512   5.968   2.814   3.181 -0.2103 -0.2765 -0.3701
  486MOL0     C65513   5.831   2.882   3.176 -0.5945 -0.1350 -0.9703
  486MOL0     C65514   5.709   2.786   3.183  0.6311  0.0058  0.9157
  486MOL0     C65515   5.607   2.847   3.270  0.3101 -0.5208  0.6142
  486MOL0     C65516   5.477   2.766   3.249  1.2903  0.9547  0.0219
  486MOL0     C65517   5.367   2.816   3.352  0.2794  0.0261 -0.3543
  486MOL0     C65518   5.220   2.759   3.334  0.6943 -0.4924  0.1071
  486MOL0     C65519   5.172   2.690   3.462 -0.3103 -0.2152 -0.1184
  486MOL0    Cl65520   5.014   2.624   3.404  0.1519 -0.3780 -0.8000
  486MOL0     C65521   6.246   2.746   3.222  0.4419 -0.0668  0.2375
  486MOL0     C65522   6.382   2.714   3.239 -0.2878 -0.2310 -1.0796
  486MOL0     O65523   6.644   2.752   3.085  0.0506 -0.3329  0.6106
  486MOL0     C65524   6.838   2.707   3.379  0.1891 -1.5528 -1.1815
  486MOL0     C65525   6.965   2.665   3.431  0.7430  0.1690 -0.0442
  486MOL0     N65526   7.396   2.063   3.760  0.1903 -0.3336  0.2233
  486MOL0     N65527   7.455   2.008   3.854 -0.5838 -0.0608 -0.3455
  486MOL0     C65528   8.744   2.151   4.177 -0.0928  0.4020  0.0855
  486MOL0     C65529   8.866   2.213   4.189  0.1010 -0.0085 -0.0702
  486MOL0     C65530   9.333   2.195   4.126 -0.2725 -0.1206 -0.1869
  486MOL0     C65531   9.444   2.117   4.160 -1.3411 -0.9642 -0.4698
  486MOL0     C65532   9.574   2.162   4.132  0.3293  0.5071  0.3373
  486MOL0     C65533   9.595   2.286   4.083 -0.4263  0.4398 -0.3847
  486MOL0     O65534   9.720   2.341   4.074  0.2610  0.2693 -0.6381
  486MOL0     C65535   9.770   2.389   4.198  0.6844 -0.4929  1.3072
  486MOL0     C65536   9.888   2.480   4.190  0.3803  0.2529  0.3248
  486MOL0     C65537  10.015   2.428   4.121  0.1756  0.0543 -0.3376
  486MOL0     C65538  10.039   2.482   3.975  0.8605  0.2479  0.4029
  486MOL0     C65539  10.184   2.488   3.960 -0.2027 -0.2042  0.0788
  486MOL0     C65540  10.305   2.494   3.942  0.1406 -0.1846  0.0896
  486MOL0     C65541   9.487   2.361   4.047  0.2695 -0.7383 -0.2404
  486MOL0     C65542   9.355   2.318   4.063  0.2791 -1.3462 -0.1232
  486MOL0     H65543   9.053   2.034   3.961 -0.2646  0.8305 -1.2892
  486MOL0     H65544   8.818   1.954   3.899 -2.4534 -0.7409  0.0597
  486MOL0     H65545   8.525   2.193   4.034  0.9880 -0.0735 -1.2425
  486MOL0     H65546   8.523   2.103   3.882  1.7573  0.1519  0.1562
  486MOL0     H65547   8.357   1.945   4.012  0.4851 -0.8216  2.8068
  486MOL0     H65548   8.351   2.077   4.130 -0.0566 -1.9268  0.8411
  486MOL0     H65549   8.251   2.225   3.973  0.4287  0.7660 -3.2546
  486MOL0     H65550   8.288   2.120   3.837  0.5109  0.2458 -0.5234
  486MOL0     H65551   8.140   1.935   3.932  2.7431  0.7898 -1.4250
  486MOL0     H65552   8.069   2.046   4.056 -1.3865 -0.2622 -0.7689
  486MOL0     H65553   7.996   2.205   3.870 -4.8440 -1.0256 -1.6242
  486MOL0     H65554   8.066   2.090   3.766  1.0032 -0.1556  0.3678
  486MOL0     H65555   7.840   2.035   3.776 -0.7658 -1.5626 -0.1454
  486MOL0     H65556   7.913   1.917   3.887 -0.4651  0.4801  2.2019
  486MOL0     H65557   7.850   2.079   4.077  0.0659  0.8001 -0.1230
  486MOL0     H65558   7.791   2.202   3.969 -1.0837  0.0503  3.2646
  486MOL0     H65559   7.604   2.090   4.079 -1.5492 -2.7272  0.7501
  486MOL0     H65560   7.655   1.939   4.031  0.0582  0.5530  1.0720
  486MOL0     H65561   7.681   2.212   3.735  1.1585 -2.6855 -3.2047
  486MOL0     H65562   7.562   2.268   3.532  1.0052 -2.4086 -1.2450
  486MOL0     H65563   7.433   2.159   3.485  1.8378  0.5684 -0.3423
  486MOL0     H65564   7.409   2.409   3.660 -0.3260  0.2970  0.4197
  486MOL0     H65565   7.272   2.302   3.636 -0.0768 -2.6251 -2.4355
  486MOL0     H65566   7.297   2.360   3.376 -1.6476  0.5157  0.2792
  486MOL0     H65567   7.418   2.469   3.437 -0.7687  1.5315 -0.4849
  486MOL0     H65568   7.220   2.546   3.587  2.3044 -2.3528  1.9027
  486MOL0     H65569   7.115   2.445   3.497 -0.6305  2.1811  0.8299
  486MOL0     H65570   7.137   2.664   3.145  0.2899 -1.5459  0.6539
  486MOL0     H65571   6.869   2.701   2.948  0.2273 -1.8522  1.8914
  486MOL0     H65572   6.865   2.866   2.997  0.3919 -1.2899 -3.7015
  486MOL0     H65573   7.023   2.791   2.972  0.5055  1.9386  0.8267
  486MOL0     H65574   6.493   3.023   3.313  2.7041 -2.3141 -0.8852
  486MOL0     H65575   6.262   3.081   3.265  0.0661 -0.3945 -1.8797
  486MOL0     H65576   6.000   2.765   3.088  1.6920  0.5820 -0.2223
  486MOL0     H65577   5.976   2.739   3.261 -0.6838  2.7047  2.6739
  486MOL0     H65578   5.835   2.954   3.258 -0.3786  1.3068 -2.2117
  486MOL0     H65579   5.818   2.945   3.088 -0.4088 -1.6258 -2.1200
  486MOL0     H65580   5.732   2.681   3.202  2.4733  0.0331 -0.8675
  486MOL0     H65581   5.675   2.781   3.079 -2.4041 -1.2308  1.8366
  486MOL0     H65582   5.628   2.836   3.376 -0.5812  2.6561  1.2375
  486MOL0     H65583   5.586   2.951   3.243 -2.3553 -1.1801 -0.1793
  486MOL0     H65584   5.484   2.663   3.286 -1.7505  0.1874 -1.1780
  486MOL0     H65585   5.436   2.771   3.148 -2.0387  1.8740  1.2756
  486MOL0     H65586   5.407   2.809   3.453  1.1779  0.9247 -0.6311
  486MOL0     H65587   5.360   2.925   3.339 -1.2420  0.0863  0.7095
  486MOL0     H65588   5.208   2.680   3.260 -1.4413  0.7213 -0.9138
  486MOL0     H65589   5.151   2.840   3.310  0.2035  0.2932  3.6144
  486MOL0     H65590   5.174   2.748   3.555 -1.0489 -1.4119  0.6810
  486MOL0     H65591   5.244   2.611   3.485 -0.5198 -0.6753 -0.9995
  486MOL0     H65592   6.175   2.665   3.213 -1.5573  1.5124  1.0113
  486MOL0     H65593   6.402   2.607   3.240 -2.2677 -0.6520 -0.4918
  486MOL0     H65594   6.761   2.743   3.446  0.7793 -0.3342 -1.1331
  486MOL0     H65595   6.967   2.654   3.539 -0.5170 -1.3351 -0.1329
  486MOL0     H65596   8.650   2.171   4.226 -1.2979  0.4875 -2.1122
  486MOL0     H65597   8.879   2.285   4.269  1.3992 -0.4741  0.1618
  486MOL0     H65598   9.445   2.022   4.214 -0.2067 -1.3116 -1.0706
  486MOL0     H65599   9.653   2.092   4.158 -2.2963 -2.2619  1.4026
  486MOL0     H65600   9.692   2.436   4.257  0.8579  1.0280  0.3789
  486MOL0     H65601   9.804   2.300   4.253  0.8474 -1.9158 -0.9458
  486MOL0     H65602   9.916   2.513   4.290 -0.4141 -0.1047  0.6731
  486MOL0     H65603   9.847   2.565   4.134  0.5377 -0.1085 -0.3448
  486MOL0     H65604  10.038   2.321   4.122  3.4512  0.6405  1.3905
  486MOL0     H65605  10.092   2.466   4.189  0.9779 -2.9623  0.6008
  486MOL0     H65606   9.991   2.578   3.954 -0.9769 -0.7616 -0.2854
  486MOL0     H65607  10.005   2.406   3.904  2.8097 -1.0381  0.7637
  486MOL0     H65608  10.402   2.494   3.897 -1.3358 -2.8150 -3.5577
  486MOL0     H65609   9.503   2.463   4.013 -4.0398  0.3001  0.1797
  486MOL0     H65610   9.279   2.380   4.016  0.7791  0.1402  0.9567
  487MOL0     O65611   6.814   9.079   3.929 -0.0238  0.5070  0.5694
  487MOL0     C65612   6.881   9.144   4.015  0.2683  0.3336  0.6340
  487MOL0     O65613   6.828   9.236   4.107  0.6248  0.2225 -0.0466
  487MOL0     C65614   6.688   9.236   4.116 -0.5386 -0.8056  0.1635
  487MOL0     C65615   6.612   9.262   4.007 -0.8533 -0.5557  0.2775
  487MOL0     C65616   6.477   9.270   4.015 -0.6608  0.3777 -0.6986
  487MOL0     C65617   6.411   9.270   4.142  0.8985  0.4373  0.6790
  487MOL0     O65618   6.270   9.264   4.153 -0.1151 -0.4737 -0.4725
  487MOL0     C65619   6.183   9.238   4.042  0.0073  0.5751  0.3044
  487MOL0     C65620   6.043   9.232   4.109  0.0551 -0.1826 -0.1785
  487MOL0     C65621   5.929   9.210   4.016  0.4617  0.4599  0.6667
  487MOL0     C65622   5.794   9.252   4.079 -0.0550 -0.3507  0.0492
  487MOL0     C65623   5.684   9.198   3.988 -1.7695 -1.0641 -0.0558
  487MOL0     C65624   5.546   9.246   4.010  0.2480 -0.6170 -0.3059
  487MOL0     C65625   5.439   9.146   3.959  0.4884 -0.9635 -0.5553
  487MOL0     C65626   5.452   9.096   3.816 -0.3851 -0.9216 -0.3123
  487MOL0     N65627   5.338   9.015   3.783  0.7606 -0.5060  0.9320
  487MOL0     C65628   5.248   9.052   3.684 -0.3532 -0.5037 -1.0126
  487MOL0     C65629   5.154   8.955   3.684 -0.1807  0.7358  0.1922
  487MOL0     C65630   5.023   8.967   3.614  0.1536  0.4345 -0.1339
  487MOL0     C65631   4.952   8.834   3.602  1.3542 -0.3425  0.9004
  487MOL0     C65632   4.834   8.859   3.510  0.8290  0.0567  0.6491
  487MOL0     C65633   4.762   8.730   3.470 -0.7951  0.2195 -0.0116
  487MOL0     O65634   4.722   8.661   3.593  0.2476 -0.4350  1.0779
  487MOL0     C65635   4.595   8.681   3.635  0.2113 -0.2335 -0.3657
  487MOL0     C65636   4.585   8.726   3.765  0.9989  0.9346 -0.2552
  487MOL0     C65637   4.454   8.753   3.817 -1.0702 -0.7179  0.4135
  487MOL0     C65638   4.447   8.819   3.957  0.3525 -0.0621  1.3701
  487MOL0     C65639   4.334   8.721   3.742 -0.3242 -0.1050 -0.5031
  487MOL0     C65640   4.194   8.748   3.787  0.2543  0.4574  0.9679
  487MOL0     O65641   4.162   8.786   3.919  0.3000 -0.2771  0.0256
  487MOL0     C65642   4.034   8.817   3.950  0.2505  0.5048 -0.1231
  487MOL0     C65643   4.011   8.815   4.092 -0.3068  0.1941  0.7762
  487MOL0     C65644   3.885   8.845   4.147  0.3152  0.1298  0.3209
  487MOL0     C65645   3.781   8.890   4.063 -0.3760 -0.2380  0.1212
  487MOL0     O65646   3.646   8.908   4.108  0.1058  0.1474  0.4432
  487MOL0     C65647   3.591   9.032   4.085  0.0782 -1.1808  0.3310
  487MOL0     C65648   3.579   9.107   4.223  0.6953 -0.8915  0.0836
  487MOL0     C65649   3.714   9.106   4.298  0.4320  0.4314  0.2840
  487MOL0     C65650   3.710   9.164   4.436 -0.2047  0.2868  0.4607
  487MOL0     C65651   3.854   9.184   4.496  0.6381 -0.6122 -0.7602
  487MOL0     C65652   3.881   9.339   4.502  0.0589 -0.3393  0.1676
  487MOL0     C65653   4.026   9.380   4.548  0.9147 -0.3359 -0.3189
  487MOL0     C65654   4.141   9.321   4.469  0.5433  0.9158  0.2839
  487MOL0    Cl65655   4.289   9.412   4.518 -0.8066 -0.2480  0.1718
  487MOL0     C65656   3.808   8.909   3.923  0.4174 -0.2157 -0.0687
  487MOL0     C65657   3.929   8.873   3.867  1.4198 -0.1559  0.4229
  487MOL0     O65658   4.112   8.731   3.696 -0.2518 -0.4248 -0.5898
  487MOL0     C65659   4.357   8.669   3.610  0.3129  0.9032  0.5492
  487MOL0     C65660   4.487   8.644   3.555  0.0394  0.3433  0.6422
  487MOL0     N65661   5.182   8.861   3.785  0.1755 -0.0051  0.4704
  487MOL0     N65662   5.292   8.899   3.835 -0.1993 -1.0696  0.8961
  487MOL0     C65663   6.486   9.239   4.254  0.8402  0.1284 -0.2349
  487MOL0     C65664   6.626   9.230   4.240 -0.0709 -0.4198  0.3743
  487MOL0     C65665   7.031   9.145   4.008  1.0642 -0.4255  0.3997
  487MOL0     C65666   7.098   9.025   3.976  0.0070  0.8812  0.2419
  487MOL0     C65667   7.235   9.040   3.957  0.7634  0.3481 -0.3736
  487MOL0     C65668   7.303   9.157   3.986 -0.0078 -0.6640  0.1214
  487MOL0     O65669   7.434   9.185   3.974 -0.5735  0.4275  0.0378
  487MOL0     C65670   7.533   9.074   3.962  0.2015  1.3953  0.0665
  487MOL0     C65671   7.683   9.128   3.956  0.3993  0.0739 -0.0681
  487MOL0     C65672   7.693   9.223   3.835  0.0245 -0.2198  0.3388
  487MOL0     C65673   7.740   9.145   3.705  0.1916 -0.0081 -0.5475
  487MOL0     C65674   7.885   9.129   3.717  0.2230  0.3119 -0.3069
  487MOL0     C65675   8.002   9.118   3.749  0.0222 -0.4804 -0.0431
  487MOL0     C65676   7.229   9.262   4.044 -0.3689 -0.4764  0.4290
  487MOL0     C65677   7.093   9.261   4.049  0.2065 -0.5348  0.4273
  487MOL0     H65678   6.662   9.281   3.912 -0.8476 -3.9287 -0.5109
  487MOL0     H65679   6.422   9.285   3.923 -0.2132  1.3695 -0.8191
  487MOL0     H65680   6.196   9.318   3.968  4.3754 -1.0984 -1.0322
  487MOL0     H65681   6.204   9.142   3.993 -0.2088  0.7377 -0.1143
  487MOL0     H65682   6.043   9.153   4.184 -0.2048 -0.9009 -0.9183
  487MOL0     H65683   6.033   9.322   4.169 -4.9953 -1.5450  1.4847
  487MOL0     H65684   5.956   9.263   3.924  1.7913 -0.7373  0.3429
  487MOL0     H65685   5.918   9.104   3.993 -0.7639  0.9910 -1.4510
  487MOL0     H65686   5.778   9.198   4.173 -0.3077 -0.5573 -0.1109
  487MOL0     H65687   5.780   9.359   4.097  0.5339  0.0448 -1.6345
  487MOL0     H65688   5.717   9.219   3.886 -0.5207 -2.8387 -0.0762
  487MOL0     H65689   5.676   9.089   3.989  1.0016 -1.3893  2.9999
  487MOL0     H65690   5.525   9.278   4.112 -0.6048 -1.1986 -0.2839
  487MOL0     H65691   5.530   9.339   3.955  0.8342 -1.2899 -1.6539
  487MOL0     H65692   5.441   9.056   4.021  0.7601 -0.7390 -0.2327
  487MOL0     H65693   5.342   9.190   3.980  1.6080  0.0590  3.1908
  487MOL0     H65694   5.544   9.039   3.797  0.5376  0.4589 -0.1321
  487MOL0     H65695   5.456   9.186   3.754  0.7780  0.2177  1.3194
  487MOL0     H65696   5.232   9.144   3.629 -0.3616  0.4554  0.5439
  487MOL0     H65697   4.957   9.034   3.668  0.2842  0.6057 -0.1853
  487MOL0     H65698   5.039   9.013   3.516 -1.5847 -1.4082 -1.3836
  487MOL0     H65699   4.911   8.803   3.699  0.6249  1.9561  1.3735
  487MOL0     H65700   5.017   8.750   3.575 -0.6970 -1.9805  0.7433
  487MOL0     H65701   4.871   8.913   3.422  1.0817 -0.0778  0.6711
  487MOL0     H65702   4.759   8.921   3.561  0.8917  1.0590 -0.4239
  487MOL0     H65703   4.836   8.666   3.421 -0.0370  0.9551  0.1383
  487MOL0     H65704   4.676   8.754   3.408 -1.3040  0.9623  0.9549
  487MOL0     H65705   4.672   8.746   3.826  0.7299  1.1049  0.0734
  487MOL0     H65706   4.401   8.918   3.958  1.7084  0.5874  1.0608
  487MOL0     H65707   4.386   8.754   4.020 -1.5579  2.3868  2.2215
  487MOL0     H65708   4.547   8.837   3.996  1.3698 -0.7797 -0.7245
  487MOL0     H65709   4.089   8.786   4.161  1.8021 -1.8930 -2.2350
  487MOL0     H65710   3.875   8.830   4.254 -2.1824 -0.3336  0.0873
  487MOL0     H65711   3.667   9.091   4.032  0.0874  2.1389  3.6143
  487MOL0     H65712   3.496   9.024   4.032 -0.3456 -1.7883  1.1484
  487MOL0     H65713   3.541   9.209   4.214 -0.9869 -1.6290 -3.2629
  487MOL0     H65714   3.499   9.055   4.277 -0.2857 -1.0993 -1.4716
  487MOL0     H65715   3.800   9.152   4.250  1.2654  1.2164  2.3785
  487MOL0     H65716   3.746   9.004   4.321  3.2681  0.6373 -2.1388
  487MOL0     H65717   3.655   9.258   4.444  0.0482  0.7891 -2.4067
  487MOL0     H65718   3.649   9.098   4.499  0.6664  0.1053  1.1212
  487MOL0     H65719   3.933   9.132   4.440  0.2600 -3.5678  1.2432
  487MOL0     H65720   3.850   9.149   4.599 -1.1050  1.0144 -0.2257
  487MOL0     H65721   3.868   9.386   4.404  1.7986  0.4539  0.2804
  487MOL0     H65722   3.812   9.389   4.569 -0.0916 -1.9367  1.2557
  487MOL0     H65723   4.043   9.360   4.654  0.8108  1.5793  0.1032
  487MOL0     H65724   4.030   9.488   4.530 -0.0154 -0.2360  0.0461
  487MOL0     H65725   4.117   9.336   4.364  0.2911 -2.8015 -0.3334
  487MOL0     H65726   4.152   9.214   4.492  1.4944  1.1871  1.1375
  487MOL0     H65727   3.729   8.946   3.858  1.3363  4.2182  0.9905
  487MOL0     H65728   3.934   8.889   3.760 -0.7540 -0.4975  0.2321
  487MOL0     H65729   4.277   8.641   3.543 -0.4961  1.5865  1.2062
  487MOL0     H65730   4.505   8.620   3.451  0.5273  2.8291  0.0705
  487MOL0     H65731   6.445   9.213   4.351 -2.2322  0.4684 -1.3264
  487MOL0     H65732   6.697   9.216   4.321  1.6699  1.3055 -0.7609
  487MOL0     H65733   7.057   8.928   3.955  0.7385  0.6555 -0.1993
  487MOL0     H65734   7.285   8.947   3.931  0.7369  0.1687  0.2099
  487MOL0     H65735   7.515   9.005   4.044 -1.7240 -0.8706 -2.1236
  487MOL0     H65736   7.504   9.012   3.877  0.1902 -0.1791  1.1815
  487MOL0     H65737   7.759   9.050   3.941 -2.5234 -2.5362 -2.8803
  487MOL0     H65738   7.704   9.180   4.050 -1.9577  0.7217  0.1797
  487MOL0     H65739   7.768   9.302   3.850  0.0178 -0.2127  0.3352
  487MOL0     H65740   7.595   9.266   3.815 -0.0802 -0.6558 -0.1003
  487MOL0     H65741   7.705   9.200   3.617  0.4412 -0.9923 -1.2855
  487MOL0     H65742   7.701   9.043   3.708  0.3974 -0.2714 -3.6655
  487MOL0     H65743   8.109   9.121   3.761  0.1368 -1.2606 -0.7755
  487MOL0     H65744   7.278   9.354   4.075 -0.7534  0.0859 -0.5879
  487MOL0     H65745   7.046   9.347   4.096 -0.5210 -0.1087 -1.0086
  488MOL0     O65746   7.470   2.433   1.325 -0.4430 -0.1001 -0.8156
  488MOL0     C65747   7.463   2.312   1.343 -0.2675  0.6652 -0.9259
  488MOL0     O65748   7.569   2.232   1.389 -0.2947 -0.2598 -0.3098
  488MOL0     C65749   7.697   2.288   1.379  0.4968  0.5623 -0.4661
  488MOL0     C65750   7.769   2.329   1.495  0.0454  0.4343 -0.5138
  488MOL0     C65751   7.900   2.373   1.487  0.6628  0.0045  0.4737
  488MOL0     C65752   7.947   2.423   1.367 -1.1886 -0.1827  1.0628
  488MOL0     O65753   8.071   2.484   1.365  0.3150 -0.1113 -0.5019
  488MOL0     C65754   8.116   2.562   1.255  0.7514 -0.8259 -0.4913
  488MOL0     C65755   8.241   2.650   1.295 -0.5860 -0.0492 -0.1436
  488MOL0     C65756   8.261   2.753   1.190  0.5675  0.6912  0.2497
  488MOL0     C65757   8.396   2.826   1.216 -0.0996 -0.4683  0.2969
  488MOL0     C65758   8.442   2.915   1.101  0.2853  0.0786 -0.0459
  488MOL0     C65759   8.576   2.986   1.134  0.3453 -0.8711  1.1733
  488MOL0     C65760   8.636   3.071   1.020 -1.1914 -0.1061 -0.3947
  488MOL0     C65761   8.559   3.206   1.010 -0.2138  0.4248  0.4373
  488MOL0     N65762   8.598   3.293   0.893  0.7922  0.8309 -0.3691
  488MOL0     C65763   8.533   3.411   0.861  0.3966 -0.2443 -0.4160
  488MOL0     C65764   8.580   3.452   0.748 -0.3681 -0.9600  0.5150
  488MOL0     C65765   8.537   3.582   0.681 -0.9238 -0.3922 -0.3144
  488MOL0     C65766   8.390   3.575   0.633 -0.5499  0.7007  0.0844
  488MOL0     C65767   8.357   3.463   0.531 -0.3423  0.3054 -0.3413
  488MOL0     C65768   8.215   3.475   0.476  0.0284 -0.9916  0.4150
  488MOL0     O65769   8.184   3.365   0.385  0.6300 -0.8412  0.1996
  488MOL0     C65770   8.052   3.358   0.351  0.1252 -0.0926 -0.0264
  488MOL0     C65771   8.014   3.244   0.284 -0.0265  0.5355 -0.1419
  488MOL0     C65772   7.877   3.215   0.248 -1.2726  0.2389  0.7289
  488MOL0     C65773   7.849   3.080   0.177 -0.1536 -0.4935 -0.4685
  488MOL0     C65774   7.782   3.315   0.279  0.2339  0.9668  0.7755
  488MOL0     C65775   7.649   3.322   0.220  0.6154  1.0157  1.3117
  488MOL0     O65776   7.609   3.428   0.152  0.1297  0.0088  0.1418
  488MOL0     C65777   7.483   3.440   0.096  0.6821  0.0993 -0.3345
  488MOL0     C65778   7.452   3.372  -0.017  0.1350  0.1847 -0.3608
  488MOL0     C65779   7.318   3.371  -0.056 -1.0820  0.1298  0.1384
  488MOL0     C65780   7.218   3.451  -0.003 -0.3565 -0.2326  0.0916
  488MOL0     O65781   7.105   3.470  -0.084 -0.0557  0.1302  0.0230
  488MOL0     C65782   7.007   3.557  -0.020 -0.1602 -0.9730 -0.0363
  488MOL0     C65783   6.878   3.553  -0.103 -0.1378  1.1964  0.1661
  488MOL0     C65784   6.825   3.408  -0.118 -0.5542 -0.0906 -0.1870
  488MOL0     C65785   6.672   3.417  -0.132 -0.0782  0.4193  0.6893
  488MOL0     C65786   6.618   3.306  -0.220 -0.2918 -0.4192 -0.5631
  488MOL0     C65787   6.655   3.160  -0.191  0.0478 -0.1518  0.0747
  488MOL0     C65788   6.544   3.073  -0.246 -0.0315 -0.5116 -0.6420
  488MOL0     C65789   6.425   3.072  -0.150 -0.0732 -0.9102  0.4045
  488MOL0    Cl65790   6.314   2.946  -0.191 -0.2152  0.2596 -0.3550
  488MOL0     C65791   7.255   3.527   0.113 -0.1510  0.7188 -0.8866
  488MOL0     C65792   7.385   3.521   0.159  0.6249  0.0797 -0.4422
  488MOL0     O65793   7.588   3.212   0.233  1.2663  0.3347  0.4168
  488MOL0     C65794   7.823   3.437   0.332  0.7187  0.4931 -0.0679
  488MOL0     C65795   7.954   3.456   0.375 -0.1516 -0.2684 -0.3997
  488MOL0     N65796   8.673   3.346   0.704  0.4456 -1.0683  0.6605
  488MOL0     N65797   8.684   3.256   0.794 -0.3714  0.1003  0.4241
  488MOL0     C65798   7.876   2.382   1.247 -0.2688  0.2232 -0.3680
  488MOL0     C65799   7.746   2.324   1.255 -0.0527  0.1068 -0.0770
  488MOL0     C65800   7.335   2.240   1.299 -0.2914 -0.3406  0.1274
  488MOL0     C65801   7.215   2.319   1.294 -0.5693 -0.2188 -0.3715
  488MOL0     C65802   7.100   2.255   1.253  0.6094 -0.4087 -0.6261
  488MOL0     C65803   7.092   2.122   1.222 -0.5392  0.4867  0.4380
  488MOL0     O65804   6.976   2.053   1.192 -0.0785  0.8870 -0.2623
  488MOL0     C65805   6.851   2.099   1.239  0.0616 -0.1935 -0.8020
  488MOL0     C65806   6.779   1.978   1.286  0.7471 -0.1187  1.4090
  488MOL0     C65807   6.622   1.991   1.291 -0.1943 -0.2830  0.4258
  488MOL0     C65808   6.565   1.868   1.360 -0.2096  0.3761 -1.0296
  488MOL0     C65809   6.425   1.854   1.334 -0.1831  0.6538 -0.4747
  488MOL0     C65810   6.312   1.832   1.300  0.1669 -0.6348  0.3511
  488MOL0     C65811   7.202   2.049   1.223 -0.5762  0.4102 -0.1941
  488MOL0     C65812   7.330   2.102   1.265 -0.4627  0.6935 -1.1297
  488MOL0     H65813   7.729   2.301   1.592  0.9307 -1.4223 -0.6241
  488MOL0     H65814   7.975   2.371   1.566  1.8313  0.0292 -0.5880
  488MOL0     H65815   8.138   2.502   1.167 -1.2039 -1.7947 -0.3552
  488MOL0     H65816   8.031   2.621   1.220  0.4858 -1.6916 -1.3466
  488MOL0     H65817   8.228   2.698   1.393 -2.1769  0.1312 -0.4216
  488MOL0     H65818   8.318   2.572   1.299 -1.7984 -1.4605 -2.6599
  488MOL0     H65819   8.274   2.709   1.091  2.9166  2.5578 -0.3535
  488MOL0     H65820   8.185   2.832   1.194  0.7765  1.0974 -2.2274
  488MOL0     H65821   8.381   2.883   1.308 -1.6645 -1.5453  0.7383
  488MOL0     H65822   8.469   2.748   1.239 -0.7020 -0.6683  1.5755
  488MOL0     H65823   8.453   2.853   1.012  1.6221  0.5185 -0.2121
  488MOL0     H65824   8.356   2.982   1.088 -0.7998 -0.7501  2.3548
  488MOL0     H65825   8.563   3.057   1.216 -0.7038  0.3138  0.0283
  488MOL0     H65826   8.649   2.908   1.160  0.5209 -1.0120  0.2993
  488MOL0     H65827   8.740   3.092   1.047 -0.5583 -1.6453 -1.4626
  488MOL0     H65828   8.641   3.024   0.921  1.7174  2.3638 -1.5770
  488MOL0     H65829   8.595   3.260   1.098  1.9717 -0.3466  0.0797
  488MOL0     H65830   8.452   3.190   1.021 -0.0101 -0.6194  0.9505
  488MOL0     H65831   8.464   3.467   0.924  2.9915  1.6092  0.9567
  488MOL0     H65832   8.552   3.674   0.739  1.3269 -1.7852  1.5330
  488MOL0     H65833   8.599   3.594   0.591 -0.2873  1.7845  0.3511
  488MOL0     H65834   8.370   3.669   0.580 -3.0363  0.2302  0.0423
  488MOL0     H65835   8.324   3.571   0.720  0.9404  0.0277  1.2274
  488MOL0     H65836   8.361   3.365   0.581  1.6736  0.5873  0.1236
  488MOL0     H65837   8.426   3.470   0.448 -1.3617  1.4685 -1.1192
  488MOL0     H65838   8.210   3.573   0.427  0.0487 -1.7852 -1.2669
  488MOL0     H65839   8.149   3.482   0.563  3.5582  3.2493  3.1830
  488MOL0     H65840   8.085   3.164   0.260  0.8584  0.8985  1.1855
  488MOL0     H65841   7.794   3.010   0.241 -0.1578 -0.9231 -0.9325
  488MOL0     H65842   7.779   3.085   0.094 -0.7132 -3.3022 -0.2548
  488MOL0     H65843   7.940   3.034   0.138  1.7737  1.9258  0.8394
  488MOL0     H65844   7.523   3.308  -0.069  0.6555  0.8891 -0.5268
  488MOL0     H65845   7.290   3.310  -0.142  0.5188  3.1206 -2.7359
  488MOL0     H65846   6.977   3.524   0.079  0.7376 -0.4781  0.4058
  488MOL0     H65847   7.039   3.661  -0.015 -0.2464 -1.0205  1.8666
  488MOL0     H65848   6.800   3.606  -0.047  2.1880  0.4633  4.5487
  488MOL0     H65849   6.896   3.595  -0.203 -2.3600  0.8751 -0.4355
  488MOL0     H65850   6.847   3.344  -0.032  0.9078  1.6065  0.7791
  488MOL0     H65851   6.878   3.372  -0.206  0.3674 -0.0935  0.3603
  488MOL0     H65852   6.604   3.420  -0.047  1.3524 -1.8127  2.0047
  488MOL0     H65853   6.643   3.507  -0.187 -2.4948 -1.5283 -1.4922
  488MOL0     H65854   6.669   3.326  -0.315 -2.0087 -0.6878 -1.5873
  488MOL0     H65855   6.511   3.322  -0.234 -0.7068 -1.7574  0.9375
  488MOL0     H65856   6.753   3.144  -0.237 -0.3229 -1.8882 -0.1854
  488MOL0     H65857   6.673   3.147  -0.084 -2.9365 -2.0385  0.4613
  488MOL0     H65858   6.589   2.974  -0.259 -0.1586 -1.0654  2.4565
  488MOL0     H65859   6.513   3.098  -0.348 -1.0466 -1.0572 -0.4838
  488MOL0     H65860   6.361   3.157  -0.174 -0.0748 -1.2638 -0.8872
  488MOL0     H65861   6.461   3.063  -0.047 -0.4826 -0.1644  0.6192
  488MOL0     H65862   7.184   3.596   0.159  0.3286  0.9106 -0.4296
  488MOL0     H65863   7.405   3.572   0.253  3.7277 -0.7187 -0.5636
  488MOL0     H65864   7.744   3.509   0.352 -1.7641 -2.8369  3.6996
  488MOL0     H65865   7.966   3.549   0.430 -0.3010 -1.3127  1.4878
  488MOL0     H65866   7.918   2.400   1.148 -1.1988  0.8659 -0.6621
  488MOL0     H65867   7.691   2.320   1.162 -0.0771 -0.3028 -0.0454
  488MOL0     H65868   7.224   2.423   1.322  0.0289  0.0283 -1.4005
  488MOL0     H65869   7.009   2.310   1.234  1.9033  1.8408 -0.6176
  488MOL0     H65870   6.856   2.162   1.329  1.0177 -1.7564  0.2864
  488MOL0     H65871   6.804   2.148   1.153  0.2798 -1.1651 -1.4956
  488MOL0     H65872   6.816   1.946   1.384 -0.2927 -0.3228  1.7496
  488MOL0     H65873   6.789   1.901   1.209 -0.8064 -1.1170  2.1555
  488MOL0     H65874   6.579   2.000   1.190  0.6601  2.6890  0.2301
  488MOL0     H65875   6.584   2.079   1.343 -1.7725 -0.5642 -0.1897
  488MOL0     H65876   6.578   1.877   1.468  2.3706 -1.7923 -1.0404
  488MOL0     H65877   6.618   1.775   1.339  1.8773  0.8838  1.5765
  488MOL0     H65878   6.217   1.810   1.255  0.5315 -1.5396 -0.0065
  488MOL0     H65879   7.197   1.941   1.220 -0.3793  0.4053 -0.3447
  488MOL0     H65880   7.411   2.034   1.288 -1.8967 -0.4644  0.8245
  489MOL0     O65881   8.424  10.861  10.610  0.4379 -0.2584 -0.3063
  489MOL0     C65882   8.482  10.871  10.717  0.1110  0.0941 -0.6693
  489MOL0     O65883   8.424  10.870  10.846 -0.6128 -0.0982  0.2616
  489MOL0     C65884   8.290  10.867  10.861  1.1864 -0.2876 -0.6497
  489MOL0     C65885   8.260  10.841  10.988 -1.0213 -0.2012  0.7763
  489MOL0     C65886   8.130  10.838  11.036 -0.3321 -0.5049 -0.5672
  489MOL0     C65887   8.018  10.868  10.951  0.5429  0.6016  0.3171
  489MOL0     O65888   7.896  10.860  11.012 -0.3274 -0.0831 -0.3017
  489MOL0     C65889   7.772  10.878  10.939  0.3058 -0.1510  0.6414
  489MOL0     C65890   7.662  10.836  11.036  0.0269 -0.7502  0.0046
  489MOL0     C65891   7.521  10.861  10.976 -0.2583  0.3366  1.0110
  489MOL0     C65892   7.408  10.847  11.081  0.0918  0.6290  0.1589
  489MOL0     C65893   7.271  10.886  11.018 -0.0099  0.1188  0.2478
  489MOL0     C65894   7.146  10.896  11.112 -0.8808  0.3264  0.2081
  489MOL0     C65895   7.014  10.922  11.039 -0.3054  0.1306  0.2643
  489MOL0     C65896   6.890  10.906  11.130  1.0276  0.5753 -0.4072
  489MOL0     N65897   6.773  10.978  11.081 -0.2192 -0.3799  0.4701
  489MOL0     C65898   6.651  10.992  11.151 -0.0487  0.2146 -0.0219
  489MOL0     C65899   6.567  11.048  11.057 -0.5202  0.1183 -0.1684
  489MOL0     C65900   6.425  11.081  11.085  0.8498 -0.0682 -0.7162
  489MOL0     C65901   6.412  11.235  11.121 -0.2997  0.5004 -0.1782
  489MOL0     C65902   6.283  11.264  11.192  1.1064 -0.2286 -0.6913
  489MOL0     C65903   6.266  11.413  11.222  0.5943  0.5255 -0.1023
  489MOL0     O65904   6.143  11.440  11.294 -0.2666  0.3667  0.0713
  489MOL0     C65905   6.036  11.410  11.216 -0.1350  0.6256  0.1885
  489MOL0     C65906   5.951  11.298  11.238  0.9272  0.4189  0.1234
  489MOL0     C65907   5.835  11.292  11.159 -0.3906  0.0307 -0.3684
  489MOL0     C65908   5.732  11.185  11.187 -0.5969  0.1262  0.7391
  489MOL0     C65909   5.809  11.387  11.054 -0.2512 -0.3451  0.5543
  489MOL0     C65910   5.686  11.393  10.967 -0.1188  0.8440  0.1025
  489MOL0     O65911   5.633  11.518  10.934  0.1282 -0.8976 -0.2341
  489MOL0     C65912   5.518  11.526  10.872  0.7749  0.3851  0.1807
  489MOL0     C65913   5.505  11.508  10.734  0.5509 -0.0315  0.8861
  489MOL0     C65914   5.382  11.527  10.670  0.7856  0.7346  0.8758
  489MOL0     C65915   5.272  11.562  10.746  0.6915  0.3732 -0.9125
  489MOL0     O65916   5.159  11.579  10.678 -0.0173 -0.0357  0.4028
  489MOL0     C65917   5.130  11.494  10.564 -0.0317 -0.3189  0.4937
  489MOL0     C65918   4.980  11.485  10.551  0.4695  0.5661  0.3467
  489MOL0     C65919   4.890  11.479  10.672 -0.1253 -0.8459 -0.2387
  489MOL0     C65920   4.877  11.325  10.712 -0.6176 -0.5161  0.4803
  489MOL0     C65921   4.749  11.314  10.797  0.3607  0.4415 -0.4151
  489MOL0     C65922   4.743  11.189  10.888 -0.3668  0.4124 -0.7336
  489MOL0     C65923   4.704  11.084  10.794 -0.5263  1.0766  0.1751
  489MOL0     C65924   4.734  10.945  10.859 -0.1662  0.3263 -0.2000
  489MOL0    Cl65925   4.909  10.894  10.859  0.1572 -0.3332  0.4236
  489MOL0     C65926   5.277  11.562  10.893 -1.0689 -0.3057  0.2137
  489MOL0     C65927   5.405  11.545  10.950  0.3496  0.7821 -0.5604
  489MOL0     O65928   5.637  11.281  10.935 -0.4672 -0.2825  0.0371
  489MOL0     C65929   5.907  11.487  11.023  0.7542  0.4152 -0.7560
  489MOL0     C65930   6.023  11.488  11.102  0.0911  0.3646  0.0599
  489MOL0     N65931   6.637  11.049  10.935 -0.5801 -0.6212  0.2446
  489MOL0     N65932   6.765  11.029  10.955 -0.2003 -0.5361  0.2746
  489MOL0     C65933   8.042  10.886  10.812  0.4407 -0.7406  0.3060
  489MOL0     C65934   8.178  10.898  10.771 -0.3754  0.5482 -0.8223
  489MOL0     C65935   8.624  10.854  10.717 -0.2614  0.2704  0.1208
  489MOL0     C65936   8.701  10.924  10.623  0.1440 -1.1342 -0.2458
  489MOL0     C65937   8.834  10.922  10.630 -0.8635  0.2562 -0.0568
  489MOL0     C65938   8.908  10.846  10.720 -1.2705 -0.6989 -0.3383
  489MOL0     O65939   9.046  10.843  10.737  0.0552  0.0911 -0.6196
  489MOL0     C65940   9.125  10.938  10.655 -0.2459  0.1343  0.7100
  489MOL0     C65941   9.214  10.866  10.553 -0.6639  0.0066 -0.7478
  489MOL0     C65942   9.304  10.973  10.484  0.0601  0.1333 -0.4277
  489MOL0     C65943   9.402  10.905  10.387 -0.0520 -0.3633  0.5433
  489MOL0     C65944   9.497  10.823  10.466  0.6668 -0.3383  0.3948
  489MOL0     C65945   9.572  10.755  10.536 -0.1626 -0.0930 -0.2411
  489MOL0     C65946   8.834  10.781  10.819 -0.0147  0.0013 -0.5033
  489MOL0     C65947   8.691  10.783  10.813  0.4411  0.2397 -0.6814
  489MOL0     H65948   8.333  10.820  11.066 -2.2768 -2.4982  1.4314
  489MOL0     H65949   8.114  10.817  11.142 -3.2368 -0.7342 -0.9746
  489MOL0     H65950   7.755  10.982  10.910  0.6463 -0.3406 -0.2717
  489MOL0     H65951   7.764  10.807  10.856 -1.6334  0.3030  0.4014
  489MOL0     H65952   7.663  10.736  11.082 -0.1567  0.3744  2.6325
  489MOL0     H65953   7.681  10.905  11.119 -0.6839 -1.1270  0.4908
  489MOL0     H65954   7.517  10.961  10.933 -0.5447 -0.4757 -0.9863
  489MOL0     H65955   7.506  10.800  10.886  2.1552  0.7517  0.2562
  489MOL0     H65956   7.410  10.744  11.118  0.1224 -0.0552 -1.6412
  489MOL0     H65957   7.430  10.901  11.173  4.1282 -1.1507  0.4558
  489MOL0     H65958   7.287  10.977  10.960  0.6506  0.3267  0.7442
  489MOL0     H65959   7.242  10.815  10.941 -1.5851  0.4652  0.4917
  489MOL0     H65960   7.144  10.797  11.159 -2.8737  0.4088  0.3721
  489MOL0     H65961   7.167  10.971  11.189 -2.1244  3.4816 -2.2853
  489MOL0     H65962   7.017  11.020  10.990 -1.0430 -0.0793 -0.2154
  489MOL0     H65963   6.999  10.850  10.958 -2.6286 -2.0620  2.4761
  489MOL0     H65964   6.906  10.937  11.234 -1.3544 -1.1202  0.5542
  489MOL0     H65965   6.873  10.798  11.128  0.7872  0.5788  0.9113
  489MOL0     H65966   6.626  10.970  11.254 -0.2843  0.1662 -0.0893
  489MOL0     H65967   6.363  11.068  10.995 -1.2620 -0.9677  0.7898
  489MOL0     H65968   6.393  11.029  11.175  0.6659 -1.9134 -1.7937
  489MOL0     H65969   6.406  11.298  11.031 -3.1331 -0.4066 -0.7144
  489MOL0     H65970   6.501  11.251  11.182  0.0582  1.7187 -0.9800
  489MOL0     H65971   6.268  11.212  11.287 -0.9340  1.1586 -0.2000
  489MOL0     H65972   6.197  11.229  11.133  0.3891  1.3243 -0.5994
  489MOL0     H65973   6.278  11.473  11.131  1.4353  2.1838  1.0605
  489MOL0     H65974   6.357  11.444  11.274  0.4042  0.0426  0.5290
  489MOL0     H65975   5.972  11.224  11.315  3.0344 -2.0959 -2.6225
  489MOL0     H65976   5.634  11.233  11.188 -0.3899  0.7462 -2.1806
  489MOL0     H65977   5.730  11.106  11.112  1.6633  1.0945 -0.4411
  489MOL0     H65978   5.755  11.134  11.282  0.5623 -0.3329  0.2365
  489MOL0     H65979   5.589  11.486  10.670 -0.5905  2.4088 -1.6488
  489MOL0     H65980   5.383  11.537  10.562 -1.3306  1.4203  0.8695
  489MOL0     H65981   5.163  11.543  10.472  0.0342 -0.0981  0.6342
  489MOL0     H65982   5.174  11.394  10.567 -0.0415 -0.3054  1.0612
  489MOL0     H65983   4.949  11.569  10.489  1.9386  0.9584  0.1054
  489MOL0     H65984   4.963  11.394  10.492  4.9770 -0.4941  0.3405
  489MOL0     H65985   4.789  11.502  10.637 -0.0337 -0.2056 -0.0913
  489MOL0     H65986   4.917  11.537  10.760 -1.6464 -1.2293  0.5178
  489MOL0     H65987   4.862  11.260  10.626 -0.0744  1.1167 -0.9215
  489MOL0     H65988   4.953  11.295  10.784 -1.7951 -0.5903  1.7146
  489MOL0     H65989   4.664  11.324  10.730  0.3051 -0.6380 -0.5309
  489MOL0     H65990   4.744  11.402  10.862 -0.5924 -0.8525  1.3662
  489MOL0     H65991   4.828  11.157  10.950  0.7030  0.1229 -2.2859
  489MOL0     H65992   4.664  11.211  10.960 -1.4231  1.3095 -2.1018
  489MOL0     H65993   4.768  11.092  10.705 -0.6873 -0.2175 -0.0755
  489MOL0     H65994   4.597  11.097  10.774 -0.8601 -0.1642  1.0358
  489MOL0     H65995   4.679  10.876  10.794 -1.2024  1.9003 -1.0527
  489MOL0     H65996   4.683  10.938  10.955 -0.5179  1.1658 -0.3254
  489MOL0     H65997   5.193  11.597  10.952  0.1780  0.4674  1.5984
  489MOL0     H65998   5.429  11.541  11.055 -0.3437  2.0384 -0.3323
  489MOL0     H65999   5.896  11.554  10.939 -2.2902 -1.0588 -1.7015
  489MOL0     H66000   6.105  11.559  11.087 -1.0455  1.3583 -1.7858
  489MOL0     H66001   7.956  10.888  10.746  0.2372  0.1169  0.5845
  489MOL0     H66002   8.212  10.926  10.672  0.0456  1.7413 -0.3698
  489MOL0     H66003   8.651  10.985  10.547 -1.8367  0.8196  2.4382
  489MOL0     H66004   8.881  10.982  10.553  0.1900 -0.2751  0.1545
  489MOL0     H66005   9.065  11.013  10.603 -0.2608  0.4033  1.1127
  489MOL0     H66006   9.194  10.994  10.719  0.6706  1.2058 -1.1096
  489MOL0     H66007   9.167  10.800  10.479  1.6212 -0.9786 -1.3896
  489MOL0     H66008   9.280  10.801  10.609 -1.2300 -0.9091 -1.1261
  489MOL0     H66009   9.361  11.020  10.565 -1.8888 -0.5941  1.4797
  489MOL0     H66010   9.242  11.048  10.434  0.8227  0.5050 -0.8321
  489MOL0     H66011   9.465  10.972  10.327  2.0074 -2.7170 -0.1045
  489MOL0     H66012   9.350  10.830  10.327 -0.7374 -0.4740  1.2567
  489MOL0     H66013   9.637  10.689  10.590  0.5126  0.3496 -0.4989
  489MOL0     H66014   8.871  10.722  10.903  0.8160  1.4706  0.1936
  489MOL0     H66015   8.632  10.741  10.894 -1.2364  3.3705 -0.1143
  490MOL0     O66016   4.256   3.404  10.364  0.2167  0.4659 -0.4204
  490MOL0     C66017   4.310   3.512  10.359  0.0955 -1.0134 -0.3664
  490MOL0     O66018   4.255   3.636  10.395 -0.5981  0.6522 -0.4273
  490MOL0     C66019   4.134   3.645  10.453 -0.1444  0.1268 -0.9733
  490MOL0     C66020   4.087   3.567  10.559  0.1517  0.8110 -0.1342
  490MOL0     C66021   3.955   3.576  10.611  0.0705 -0.7210 -0.2166
  490MOL0     C66022   3.875   3.677  10.556 -0.6730 -0.6702  0.2271
  490MOL0     O66023   3.748   3.693  10.601  0.6345  0.2379  0.3381
  490MOL0     C66024   3.691   3.602  10.698  0.3415 -1.0080  0.1197
  490MOL0     C66025   3.540   3.641  10.694 -0.5032  0.7157 -0.8406
  490MOL0     C66026   3.455   3.549  10.785 -0.1762  0.8297 -0.0733
  490MOL0     C66027   3.305   3.573  10.788 -0.0046 -0.3362  0.6320
  490MOL0     C66028   3.234   3.475  10.892 -0.6433  0.7353  0.2922
  490MOL0     C66029   3.080   3.461  10.869  0.1411  0.9736  0.5923
  490MOL0     C66030   3.009   3.597  10.908  0.8299  0.1034  0.8316
  490MOL0     C66031   2.863   3.578  10.877 -0.2113 -0.4244 -0.0115
  490MOL0     N66032   2.819   3.640  10.751  0.1895  0.2493 -0.6424
  490MOL0     C66033   2.887   3.641  10.638  1.1195 -0.5848 -0.4226
  490MOL0     C66034   2.800   3.664  10.539 -0.0791  0.2731  0.0273
  490MOL0     C66035   2.840   3.690  10.397 -0.5189  0.3618 -0.0894
  490MOL0     C66036   2.740   3.660  10.281  0.2138 -0.0720 -0.5254
  490MOL0     C66037   2.611   3.754  10.282 -0.4834 -0.0906 -0.1814
  490MOL0     C66038   2.484   3.672  10.311 -0.8027  0.3415 -0.0426
  490MOL0     O66039   2.375   3.765  10.317  0.6872 -0.5739  0.8171
  490MOL0     C66040   2.250   3.708  10.292 -0.2189  0.3285 -0.1392
  490MOL0     C66041   2.153   3.779  10.217 -0.1092  0.0797 -0.5230
  490MOL0     C66042   2.025   3.726  10.193 -0.1199  0.0766 -0.2177
  490MOL0     C66043   1.933   3.817  10.104 -0.6798  0.1872 -0.6014
  490MOL0     C66044   1.990   3.599  10.241  1.2108  0.6457 -1.3269
  490MOL0     C66045   1.856   3.535  10.229  0.4922 -0.7329 -0.5682
  490MOL0     O66046   1.853   3.410  10.264  0.2266  0.1622 -0.5623
  490MOL0     C66047   1.732   3.348  10.274  0.1025 -0.4886  0.0515
  490MOL0     C66048   1.722   3.213  10.235  0.0734 -0.2254  0.7777
  490MOL0     C66049   1.598   3.138  10.238 -0.3424 -0.5441  0.0622
  490MOL0     C66050   1.489   3.205  10.303  0.3597  0.3556  0.2353
  490MOL0     O66051   1.367   3.133  10.321  0.0464 -0.6251 -0.1601
  490MOL0     C66052   1.288   3.125  10.207 -0.1117  1.2850 -0.8433
  490MOL0     C66053   1.139   3.154  10.250 -0.5994  0.3350  0.1025
  490MOL0     C66054   1.058   3.154  10.123  0.6479 -0.7853 -0.4821
  490MOL0     C66055   0.917   3.203  10.156  0.8041  0.0346 -0.1500
  490MOL0     C66056   0.825   3.203  10.034 -0.7553 -0.4518 -0.3073
  490MOL0     C66057   0.810   3.075   9.955 -0.5429 -0.1838  0.3501
  490MOL0     C66058   0.684   3.084   9.864 -0.4885 -0.5578  0.3917
  490MOL0     C66059   0.672   2.971   9.773 -0.4757  0.4459 -0.2492
  490MOL0    Cl66060   0.782   2.981   9.630  0.0836 -0.1812  0.3169
  490MOL0     C66061   1.503   3.332  10.358  0.1269  0.9197  0.3522
  490MOL0     C66062   1.617   3.410  10.332  0.1012 -0.4685 -0.3986
  490MOL0     O66063   1.756   3.608  10.192 -0.1262  0.6455  0.3046
  490MOL0     C66064   2.087   3.521  10.312 -0.8102  0.0176  0.0356
  490MOL0     C66065   2.217   3.573  10.323  0.2930  1.0558 -0.7798
  490MOL0     N66066   2.676   3.678  10.597 -0.2447  0.4839  0.0291
  490MOL0     N66067   2.684   3.653  10.721 -0.0510  0.1134 -0.1206
  490MOL0     C66068   3.920   3.761  10.452 -0.2850 -0.2042 -0.3340
  490MOL0     C66069   4.048   3.743  10.405 -0.7575 -0.1248  0.5845
  490MOL0     C66070   4.440   3.519  10.283  0.0178  0.2105 -0.2756
  490MOL0     C66071   4.536   3.423  10.277 -0.3682  0.4101  0.0823
  490MOL0     C66072   4.651   3.432  10.193 -0.2483  0.2789 -0.5241
  490MOL0     C66073   4.674   3.540  10.117  0.3308 -0.3779  0.1829
  490MOL0     O66074   4.790   3.546  10.043  1.3563 -0.3826  0.7068
  490MOL0     C66075   4.805   3.661   9.948  0.4444  0.5524  0.1451
  490MOL0     C66076   4.942   3.637   9.880  0.2094 -0.4098  0.8650
  490MOL0     C66077   5.058   3.683   9.971  0.9393 -0.4467  0.4739
  490MOL0     C66078   5.185   3.724   9.892  0.3991 -0.2665  0.7892
  490MOL0     C66079   5.230   3.645   9.775 -0.5382 -0.2808 -0.1365
  490MOL0     C66080   5.272   3.607   9.666  0.6634  0.2519 -0.1562
  490MOL0     C66081   4.575   3.642  10.123 -0.3515  0.0780  0.0306
  490MOL0     C66082   4.457   3.628  10.199 -0.7063 -0.4189 -0.4779
  490MOL0     H66083   4.151   3.483  10.585 -0.2231 -0.5869 -3.3110
  490MOL0     H66084   3.929   3.514  10.696  0.7462  2.9549  2.9413
  490MOL0     H66085   3.704   3.500  10.662 -0.9926 -0.5197 -1.9101
  490MOL0     H66086   3.733   3.620  10.797 -2.2443  6.7212  0.4660
  490MOL0     H66087   3.535   3.746  10.724  3.2175  1.7347 -3.1384
  490MOL0     H66088   3.515   3.619  10.590  2.7655 -3.5410 -1.0289
  490MOL0     H66089   3.475   3.442  10.774  1.6470  0.6717  3.3789
  490MOL0     H66090   3.485   3.563  10.889  0.1900 -2.4762  0.3710
  490MOL0     H66091   3.287   3.676  10.819  2.3226  0.3372 -0.1264
  490MOL0     H66092   3.268   3.567  10.685 -0.0640  0.9658  0.5651
  490MOL0     H66093   3.280   3.376  10.885 -0.9246  0.0517  5.1597
  490MOL0     H66094   3.255   3.502  10.996 -1.1015 -1.5489  1.0330
  490MOL0     H66095   3.066   3.443  10.762 -0.8210  0.5176  0.7825
  490MOL0     H66096   3.042   3.381  10.933 -0.6592  0.0670 -0.9424
  490MOL0     H66097   3.023   3.604  11.017  1.8351  0.4486  0.6920
  490MOL0     H66098   3.053   3.685  10.861  0.7743  0.2591  1.0729
  490MOL0     H66099   2.813   3.637  10.955 -0.2748 -0.7185  0.1739
  490MOL0     H66100   2.820   3.478  10.884  1.1777 -1.0754 -0.5085
  490MOL0     H66101   2.993   3.624  10.622  1.3562 -3.2556  2.9088
  490MOL0     H66102   2.868   3.796  10.392  1.7680 -0.1833 -0.0760
  490MOL0     H66103   2.927   3.627  10.376 -0.5773 -0.0406  0.8142
  490MOL0     H66104   2.706   3.556  10.284  0.7863 -0.2724  2.6167
  490MOL0     H66105   2.799   3.671  10.190  1.4664 -1.9944 -0.0071
  490MOL0     H66106   2.613   3.798  10.182  4.6080 -3.0871 -1.7522
  490MOL0     H66107   2.631   3.833  10.355  1.3053  1.8159 -2.5753
  490MOL0     H66108   2.489   3.630  10.412 -1.9251 -0.7218 -0.4144
  490MOL0     H66109   2.475   3.589  10.240 -0.3819 -0.0384  0.3440
  490MOL0     H66110   2.174   3.880  10.184  3.4025 -0.1182  0.7160
  490MOL0     H66111   2.002   3.874  10.041 -0.8700  0.4790 -0.5480
  490MOL0     H66112   1.866   3.766  10.034  0.4770  0.4577 -1.9452
  490MOL0     H66113   1.874   3.885  10.166  1.5998  3.0027 -1.2999
  490MOL0     H66114   1.817   3.175  10.198  2.0775  4.1315  0.7065
  490MOL0     H66115   1.574   3.040  10.197 -0.3212 -0.2178 -0.7595
  490MOL0     H66116   1.311   3.200  10.130  1.5470  2.7578  0.9964
  490MOL0     H66117   1.291   3.025  10.163  1.5363  1.8035 -2.0147
  490MOL0     H66118   1.114   3.071  10.318  1.0119 -1.6916 -1.6279
  490MOL0     H66119   1.128   3.251  10.300 -1.0604  1.6675 -2.4404
  490MOL0     H66120   1.048   3.055  10.079 -0.1219 -0.8306 -0.2347
  490MOL0     H66121   1.102   3.226  10.054 -1.1285  2.2202  1.2999
  490MOL0     H66122   0.881   3.143  10.240 -2.2468  0.9064 -0.7109
  490MOL0     H66123   0.920   3.305  10.195 -3.3866 -0.2624  1.4392
  490MOL0     H66124   0.857   3.289   9.975  1.9936  1.3444  3.3818
  490MOL0     H66125   0.726   3.234  10.068  0.0806 -0.3358  2.2043
  490MOL0     H66126   0.894   3.050   9.890  0.3784 -0.7366  1.7154
  490MOL0     H66127   0.797   2.985  10.017  0.0050  0.3834  1.3179
  490MOL0     H66128   0.688   3.172   9.799 -1.3980 -1.0773 -0.3887
  490MOL0     H66129   0.596   3.099   9.927  0.9691  0.4536  2.3216
  490MOL0     H66130   0.575   2.980   9.723 -1.7514 -2.7385  1.4010
  490MOL0     H66131   0.687   2.875   9.822  0.8954  0.9610  0.4019
  490MOL0     H66132   1.415   3.373  10.409 -0.7516 -1.2811  0.7289
  490MOL0     H66133   1.615   3.514  10.362  1.7069 -0.6830  0.5861
  490MOL0     H66134   2.066   3.420  10.346  0.9835  0.2110  1.9593
  490MOL0     H66135   2.297   3.518  10.373  0.6367  0.7678 -1.6317
  490MOL0     H66136   3.835   3.814  10.409 -2.1820 -1.7488  1.3381
  490MOL0     H66137   4.098   3.811  10.337 -1.0776  0.2628  0.7304
  490MOL0     H66138   4.521   3.334  10.337  0.8395  2.3042  3.4656
  490MOL0     H66139   4.724   3.352  10.197 -0.2973  0.2919  1.5605
  490MOL0     H66140   4.727   3.652   9.871  2.4377 -1.0058 -1.8125
  490MOL0     H66141   4.796   3.760   9.991 -3.0701  0.4340 -0.0272
  490MOL0     H66142   4.940   3.703   9.794 -0.0829 -0.7027  0.6434
  490MOL0     H66143   4.957   3.531   9.857  2.6865  0.3648 -1.6524
  490MOL0     H66144   5.089   3.595  10.028 -1.8202  0.1219  3.1256
  490MOL0     H66145   5.030   3.757  10.047  1.1768 -2.0916  2.2490
  490MOL0     H66146   5.269   3.736   9.961  1.6385  3.2336 -1.0923
  490MOL0     H66147   5.174   3.825   9.854  1.1247 -0.1460  0.8842
  490MOL0     H66148   5.298   3.563   9.572 -0.9940 -0.6458 -0.2452
  490MOL0     H66149   4.591   3.735  10.070  1.2976 -1.4487 -2.4020
  490MOL0     H66150   4.395   3.716  10.210 -2.1722 -1.4292 -0.3986
  491MOL0     O66151   0.901   1.350   7.550 -0.5982  0.1387 -0.3748
  491MOL0     C66152   1.011   1.312   7.506 -0.3762 -0.0660 -0.2603
  491MOL0     O66153   1.035   1.279   7.379  0.1451  0.4506  0.2695
  491MOL0     C66154   0.939   1.271   7.286  1.1946  0.1558 -0.3473
  491MOL0     C66155   0.822   1.204   7.316  0.9877 -0.4900  0.8918
  491MOL0     C66156   0.723   1.191   7.210 -0.5252 -0.4304  0.0887
  491MOL0     C66157   0.744   1.255   7.083  1.0296  0.5943 -0.9013
  491MOL0     O66158   0.660   1.235   6.977 -0.3633  0.8974  0.2643
  491MOL0     C66159   0.522   1.201   6.991  0.4578  0.1733  0.3880
  491MOL0     C66160   0.463   1.191   6.849 -0.4213  0.0090 -0.7790
  491MOL0     C66161   0.312   1.177   6.854  0.5390 -0.0030  0.2191
  491MOL0     C66162   0.232   1.296   6.905 -0.2305  0.7427 -0.0603
  491MOL0     C66163   0.176   1.264   7.051 -0.9923  0.2669  0.2818
  491MOL0     C66164   0.071   1.154   7.055 -0.4165 -0.7506 -0.0438
  491MOL0     C66165  -0.020   1.151   7.180 -0.1222  0.3800 -0.6299
  491MOL0     C66166   0.045   1.114   7.309  0.8920 -0.7410 -0.5778
  491MOL0     N66167   0.144   1.008   7.308 -0.2669  0.1935  0.6872
  491MOL0     C66168   0.104   0.880   7.326  0.5429  0.8842  0.5979
  491MOL0     C66169   0.213   0.798   7.311 -0.1025 -0.2575 -0.0676
  491MOL0     C66170   0.206   0.650   7.314  0.3165 -0.3743 -0.0221
  491MOL0     C66171   0.319   0.600   7.221  0.9456 -0.0835 -0.6042
  491MOL0     C66172   0.287   0.450   7.199  0.0735  0.2701 -0.1894
  491MOL0     C66173   0.393   0.388   7.109  0.0590  0.2523  0.3858
  491MOL0     O66174   0.369   0.250   7.122 -0.0234 -0.3408 -0.6865
  491MOL0     C66175   0.295   0.199   7.016 -0.5406 -0.6631  0.4479
  491MOL0     C66176   0.160   0.188   7.038 -0.6374  0.1773  0.6426
  491MOL0     C66177   0.069   0.172   6.932  0.3493  1.1528  0.0187
  491MOL0     C66178  -0.074   0.160   6.982  1.0919 -1.0654  0.1172
  491MOL0     C66179   0.108   0.157   6.796 -0.2752  0.2932  0.1398
  491MOL0     C66180   0.014   0.124   6.687 -0.6673  0.1372 -0.5551
  491MOL0     O66181   0.069   0.064   6.582 -0.0065 -0.4050 -0.4893
  491MOL0     C66182  -0.005   0.023   6.476 -0.7379  0.4110 -0.0950
  491MOL0     C66183  -0.134  -0.038   6.480  0.9801 -0.5790 -0.6623
  491MOL0     C66184  -0.199  -0.084   6.365 -0.6811  0.0763  0.1111
  491MOL0     C66185  -0.139  -0.074   6.240  0.5917 -0.8177  0.4252
  491MOL0     O66186  -0.201  -0.107   6.126  0.0165  0.0605 -0.2283
  491MOL0     C66187  -0.335  -0.058   6.117  0.2933  0.3397 -1.4467
  491MOL0     C66188  -0.381  -0.078   5.970  0.2808 -0.4109 -0.4426
  491MOL0     C66189  -0.532  -0.060   5.957 -0.0782  0.0110 -0.2353
  491MOL0     C66190  -0.594  -0.125   5.831 -0.4577  0.0697  0.5302
  491MOL0     C66191  -0.732  -0.096   5.793 -0.1907  0.1579  1.1372
  491MOL0     C66192  -0.762   0.051   5.792 -0.7298  0.2586 -0.8932
  491MOL0     C66193  -0.907   0.081   5.746 -0.2367  0.5336  0.1095
  491MOL0     C66194  -0.943   0.230   5.745  0.3822  0.3654  0.5986
  491MOL0    Cl66195  -1.105   0.253   5.661  0.0793  0.0458 -0.0669
  491MOL0     C66196  -0.010  -0.020   6.239 -0.1896 -0.6788 -0.3610
  491MOL0     C66197   0.063   0.019   6.357 -0.2643  0.0687 -0.1987
  491MOL0     O66198  -0.111   0.147   6.706 -0.9108 -0.4945  0.0104
  491MOL0     C66199   0.249   0.172   6.775 -0.4848  0.4791 -0.7291
  491MOL0     C66200   0.337   0.187   6.886 -0.4880  0.5616 -0.0359
  491MOL0     N66201   0.320   0.888   7.309  0.1530  0.5861  0.0554
  491MOL0     N66202   0.283   1.012   7.303 -0.4672  0.4446 -0.0060
  491MOL0     C66203   0.868   1.302   7.050  0.2246 -0.3845 -0.2809
  491MOL0     C66204   0.962   1.314   7.155  0.8659  0.2734  0.6515
  491MOL0     C66205   1.130   1.300   7.590  0.4769 -0.1242  0.3584
  491MOL0     C66206   1.257   1.310   7.534 -0.0365  0.4228 -0.3711
  491MOL0     C66207   1.368   1.298   7.626 -0.5465 -0.0404 -0.5134
  491MOL0     C66208   1.347   1.287   7.761  0.0058 -1.6053 -0.3457
  491MOL0     O66209   1.465   1.276   7.834 -0.2567 -0.2733  0.1589
  491MOL0     C66210   1.447   1.270   7.974  0.0550  0.1201 -0.8712
  491MOL0     C66211   1.586   1.250   8.041 -0.2177  0.1839 -0.1441
  491MOL0     C66212   1.684   1.369   8.014 -0.4973  0.5145 -0.8891
  491MOL0     C66213   1.828   1.359   8.075 -0.6279  0.3064 -0.7219
  491MOL0     C66214   1.821   1.391   8.221 -0.3771 -0.2026 -0.4431
  491MOL0     C66215   1.807   1.425   8.336 -0.5112 -0.5887 -0.4077
  491MOL0     C66216   1.218   1.273   7.807 -0.6637 -0.6587 -0.4097
  491MOL0     C66217   1.111   1.284   7.729 -0.3807 -0.7456  0.1104
  491MOL0     H66218   0.793   1.164   7.413 -0.6074 -1.1360  0.1913
  491MOL0     H66219   0.633   1.136   7.237  0.8454 -0.4004  5.9428
  491MOL0     H66220   0.504   1.115   7.056  0.3519  1.5117  2.2176
  491MOL0     H66221   0.466   1.288   7.028 -1.6184 -1.0334  0.1844
  491MOL0     H66222   0.499   1.278   6.794  2.6302 -0.8872 -0.3839
  491MOL0     H66223   0.509   1.103   6.802 -0.8847  0.1511 -1.5084
  491MOL0     H66224   0.279   1.160   6.751 -0.5610 -0.4898  0.6317
  491MOL0     H66225   0.278   1.081   6.895  0.0113 -0.8874 -2.0922
  491MOL0     H66226   0.302   1.379   6.916 -0.2629  0.7256  0.2781
  491MOL0     H66227   0.159   1.311   6.825 -1.0102 -1.2887  0.2020
  491MOL0     H66228   0.254   1.243   7.125  0.0305 -0.2171 -0.8960
  491MOL0     H66229   0.117   1.354   7.070 -2.4133 -0.3366 -1.0243
  491MOL0     H66230   0.006   1.171   6.969 -2.5056 -0.2290  1.5744
  491MOL0     H66231   0.114   1.053   7.046 -0.8780 -0.7851 -2.6012
  491MOL0     H66232  -0.082   1.240   7.194 -1.8690 -1.3088  4.9578
  491MOL0     H66233  -0.094   1.075   7.153  1.5233 -0.5829 -2.6537
  491MOL0     H66234  -0.037   1.096   7.379  0.1142 -0.1316 -1.3167
  491MOL0     H66235   0.099   1.196   7.357 -2.3472  0.2489  1.7020
  491MOL0     H66236  -0.003   0.861   7.326  0.6518  0.1578 -0.9556
  491MOL0     H66237   0.221   0.617   7.418  0.2140  1.6012  0.6486
  491MOL0     H66238   0.111   0.607   7.280  0.1227  0.1331 -0.1302
  491MOL0     H66239   0.422   0.623   7.251  0.7838 -1.0840  0.8051
  491MOL0     H66240   0.301   0.661   7.132 -1.7672  1.7893  1.0676
  491MOL0     H66241   0.184   0.434   7.168  0.6119 -1.0627 -1.4106
  491MOL0     H66242   0.296   0.403   7.298 -0.7685  2.8481  1.2245
  491MOL0     H66243   0.494   0.407   7.147  0.7327  0.5188 -1.4256
  491MOL0     H66244   0.399   0.412   7.003  1.2625  2.0292  0.8037
  491MOL0     H66245   0.115   0.199   7.136 -1.4864 -0.2065  0.3040
  491MOL0     H66246  -0.075   0.144   7.091  0.0262 -0.9703  0.1356
  491MOL0     H66247  -0.132   0.247   6.952  1.1379 -1.9737 -2.9054
  491MOL0     H66248  -0.116   0.068   6.941  1.4793 -2.1646  2.0549
  491MOL0     H66249  -0.182  -0.057   6.576  0.4133 -0.1809 -0.8625
  491MOL0     H66250  -0.296  -0.132   6.373 -0.0718 -1.1304  0.5312
  491MOL0     H66251  -0.405  -0.111   6.183 -0.0199  3.2802  0.7927
  491MOL0     H66252  -0.354   0.046   6.143 -2.7703 -1.0795  3.6111
  491MOL0     H66253  -0.337  -0.000   5.907 -1.5850  2.3306  1.4045
  491MOL0     H66254  -0.362  -0.181   5.937  0.9401  0.1230 -1.7988
  491MOL0     H66255  -0.561   0.045   5.947 -2.0405 -0.6261 -2.0169
  491MOL0     H66256  -0.576  -0.097   6.050  0.5727  1.0732  0.5186
  491MOL0     H66257  -0.533  -0.101   5.743 -2.3232  0.8911 -0.6040
  491MOL0     H66258  -0.587  -0.234   5.830 -2.6370 -0.1164 -0.2572
  491MOL0     H66259  -0.794  -0.147   5.867  2.0672 -1.9682  1.6876
  491MOL0     H66260  -0.756  -0.131   5.692 -0.1423 -1.5443  1.6905
  491MOL0     H66261  -0.769   0.091   5.894 -3.3670  2.9884 -1.9744
  491MOL0     H66262  -0.686   0.107   5.737  0.2712  0.7540  0.9219
  491MOL0     H66263  -0.976   0.026   5.810 -1.7163 -1.3740 -2.9193
  491MOL0     H66264  -0.925   0.029   5.652  1.0500 -0.4858  0.3899
  491MOL0     H66265  -0.860   0.289   5.705  1.3830 -0.2701  1.6756
  491MOL0     H66266  -0.956   0.272   5.845 -0.6487  3.5973 -0.7787
  491MOL0     H66267   0.040  -0.003   6.144  1.3100  1.5055  0.7383
  491MOL0     H66268   0.165   0.057   6.363  0.0625 -0.6629 -0.9191
  491MOL0     H66269   0.291   0.167   6.675 -1.6158  1.5381 -1.2873
  491MOL0     H66270   0.440   0.214   6.865 -0.7724  2.0609  0.4304
  491MOL0     H66271   0.898   1.340   6.953  1.3495 -0.6405 -0.0473
  491MOL0     H66272   1.060   1.353   7.129  0.3955  0.7265 -0.4923
  491MOL0     H66273   1.268   1.311   7.426  1.1539 -1.9438 -0.3415
  491MOL0     H66274   1.472   1.290   7.596  0.8224 -3.6031  4.0903
  491MOL0     H66275   1.417   1.368   8.012  1.6633  0.7188 -1.0891
  491MOL0     H66276   1.379   1.185   7.986 -0.1658  0.2653 -1.1039
  491MOL0     H66277   1.627   1.154   8.008  1.0370 -0.2168  2.3135
  491MOL0     H66278   1.577   1.235   8.149 -2.7445  1.3146 -0.1279
  491MOL0     H66279   1.640   1.465   8.042 -0.7757  0.6201 -1.6575
  491MOL0     H66280   1.698   1.372   7.905  1.3502 -0.3175 -0.7132
  491MOL0     H66281   1.885   1.431   8.015 -0.4247  2.0372  1.4356
  491MOL0     H66282   1.869   1.259   8.059  0.1655  0.6000 -0.5500
  491MOL0     H66283   1.799   1.445   8.441 -1.2235 -0.3771 -0.4966
  491MOL0     H66284   1.194   1.249   7.910 -0.9429  0.3456 -0.2303
  491MOL0     H66285   1.015   1.279   7.780 -0.4314 -1.7875 -0.0526
  492MOL0     O66286   9.201  10.459   3.221 -0.1990  0.2202 -0.5344
  492MOL0     C66287   9.250  10.547   3.294  0.7275  0.2702  0.7975
  492MOL0     O66288   9.189  10.615   3.386  0.6289 -0.0270  0.3974
  492MOL0     C66289   9.054  10.601   3.421  0.2338 -0.0189  0.4636
  492MOL0     C66290   8.996  10.719   3.462  0.8468 -0.1711 -0.6015
  492MOL0     C66291   8.857  10.727   3.476  0.8983  0.8468  0.2448
  492MOL0     C66292   8.775  10.609   3.468 -0.9180 -0.1174  0.3423
  492MOL0     O66293   8.638  10.589   3.483 -0.2537 -0.3382 -0.3503
  492MOL0     C66294   8.562  10.701   3.436  0.9954 -0.3631  0.3539
  492MOL0     C66295   8.418  10.647   3.401 -0.7609  0.4819  0.0461
  492MOL0     C66296   8.422  10.558   3.279  0.5670 -0.8595 -0.1256
  492MOL0     C66297   8.302  10.467   3.257  0.4744 -0.4470 -0.1970
  492MOL0     C66298   8.326  10.377   3.130  0.0892 -0.1091 -0.2199
  492MOL0     C66299   8.226  10.255   3.131 -0.8671 -0.1479 -0.6425
  492MOL0     C66300   8.080  10.292   3.151  0.0162 -0.6272  0.4630
  492MOL0     C66301   7.990  10.200   3.073  0.3101  0.6437 -0.9034
  492MOL0     N66302   7.848  10.238   3.084  1.3212  0.8413  0.7001
  492MOL0     C66303   7.737  10.159   3.052  0.7829  0.0396 -0.1841
  492MOL0     C66304   7.634  10.238   3.097  0.7554  0.7522 -0.5424
  492MOL0     C66305   7.494  10.191   3.127  0.0826 -0.2099  0.2929
  492MOL0     C66306   7.389  10.222   3.016  0.9415  0.5072  0.3103
  492MOL0     C66307   7.265  10.144   3.037  0.2881  0.1583 -1.0512
  492MOL0     C66308   7.141  10.224   2.990 -0.0977  0.3407  0.2823
  492MOL0     O66309   7.023  10.140   3.016  0.2317  0.1646 -0.1951
  492MOL0     C66310   6.896  10.189   3.007 -0.8789  0.0259  0.1388
  492MOL0     C66311   6.859  10.318   2.975 -1.2171 -0.5022  0.1462
  492MOL0     C66312   6.736  10.370   2.994  0.8833 -0.4136  0.6127
  492MOL0     C66313   6.703  10.516   2.968  0.2365  0.2663 -0.4761
  492MOL0     C66314   6.638  10.281   3.025  0.4596  0.6216  0.6858
  492MOL0     C66315   6.496  10.318   3.014  0.7034 -0.8712 -0.1819
  492MOL0     O66316   6.409  10.219   2.981  0.0845  0.4106  0.2689
  492MOL0     C66317   6.286  10.233   3.019  0.7305  0.1603  0.6211
  492MOL0     C66318   6.182  10.216   2.928 -0.3408  0.1792 -0.5923
  492MOL0     C66319   6.044  10.221   2.973 -0.0274  0.7894 -0.9684
  492MOL0     C66320   6.015  10.248   3.109  0.9025 -0.6204  0.2222
  492MOL0     O66321   5.881  10.262   3.145 -0.0926  0.1096 -0.0151
  492MOL0     C66322   5.850  10.271   3.286 -0.1463  0.5226 -0.4971
  492MOL0     C66323   5.830  10.418   3.307  0.6339 -0.4582 -0.3578
  492MOL0     C66324   5.726  10.495   3.226  0.5572  0.9036  0.7150
  492MOL0     C66325   5.703  10.623   3.298 -0.2679 -0.3943  0.0244
  492MOL0     C66326   5.651  10.737   3.203 -0.4939 -0.7312 -0.8967
  492MOL0     C66327   5.603  10.856   3.276 -0.4478 -0.1390  0.1825
  492MOL0     C66328   5.727  10.941   3.306  0.7805 -0.0880 -0.1410
  492MOL0     C66329   5.687  11.081   3.345 -0.1562 -0.3301 -0.1554
  492MOL0    Cl66330   5.584  11.105   3.499 -0.1335 -0.0944  0.0325
  492MOL0     C66331   6.125  10.254   3.199 -0.4743 -0.0400 -0.7472
  492MOL0     C66332   6.259  10.249   3.156  0.4493  0.5977 -0.7365
  492MOL0     O66333   6.460  10.430   3.059 -0.2953 -0.3818  1.3644
  492MOL0     C66334   6.667  10.146   3.050  0.1277 -0.1705 -0.2026
  492MOL0     C66335   6.795  10.102   3.053  0.2771 -0.2776 -0.2965
  492MOL0     N66336   7.679  10.364   3.136 -0.3149  0.3763 -0.9674
  492MOL0     N66337   7.804  10.361   3.121 -0.4661  0.5551  0.1214
  492MOL0     C66338   8.845  10.491   3.451  0.4342 -0.1398 -0.0977
  492MOL0     C66339   8.985  10.481   3.421  0.0450  0.1442  0.5551
  492MOL0     C66340   9.402  10.549   3.277  0.4653  0.8865 -0.0946
  492MOL0     C66341   9.467  10.451   3.205  0.1478 -0.5565 -0.5072
  492MOL0     C66342   9.615  10.447   3.203 -0.7394  0.1135  0.2259
  492MOL0     C66343   9.694  10.523   3.289  0.0271  0.2565 -0.3344
  492MOL0     O66344   9.828  10.493   3.290 -0.5270  0.0979  0.1654
  492MOL0     C66345   9.920  10.574   3.358  0.6880  0.2985 -0.3354
  492MOL0     C66346  10.049  10.547   3.285 -0.3579 -0.0737 -0.4403
  492MOL0     C66347  10.086  10.405   3.246 -0.7014 -0.4533 -0.5755
  492MOL0     C66348  10.161  10.331   3.362 -0.0953 -0.2662  0.3338
  492MOL0     C66349  10.259  10.415   3.427 -1.0772 -0.2325 -0.4331
  492MOL0     C66350  10.358  10.472   3.479 -0.6203  0.1801  0.6989
  492MOL0     C66351   9.625  10.617   3.366 -0.3132 -0.3389  0.2554
  492MOL0     C66352   9.482  10.634   3.355  0.1085  0.2180  0.3444
  492MOL0     H66353   9.062  10.804   3.470  2.3239 -1.2168 -1.1307
  492MOL0     H66354   8.798  10.817   3.489 -1.0083 -0.1643 -1.0585
  492MOL0     H66355   8.566  10.786   3.505 -1.1092  0.6623 -0.6950
  492MOL0     H66356   8.603  10.728   3.338  0.7348 -1.4047 -0.0546
  492MOL0     H66357   8.365  10.599   3.484 -0.6994  0.0211 -0.1786
  492MOL0     H66358   8.351  10.724   3.362  0.2451  1.0194 -0.6681
  492MOL0     H66359   8.427  10.620   3.189 -1.2268 -1.0949 -0.4332
  492MOL0     H66360   8.513  10.497   3.281  0.9314 -0.3207  1.9436
  492MOL0     H66361   8.293  10.400   3.343  2.2910 -1.1727 -0.5352
  492MOL0     H66362   8.214  10.530   3.241 -0.9039 -2.8380 -2.9871
  492MOL0     H66363   8.307  10.441   3.044  1.0326  3.9859  2.3371
  492MOL0     H66364   8.427  10.337   3.117  0.7112  0.2229  2.8232
  492MOL0     H66365   8.249  10.209   3.034 -2.5609  0.4013 -1.3552
  492MOL0     H66366   8.260  10.187   3.210  2.4464  3.1548  1.0451
  492MOL0     H66367   8.051  10.297   3.256  2.4601 -0.0599  1.1590
  492MOL0     H66368   8.056  10.392   3.114 -0.3394  0.0871  2.4783
  492MOL0     H66369   8.000  10.096   3.104 -0.6230  0.9585  0.5704
  492MOL0     H66370   8.022  10.205   2.969  0.8271  0.0658 -0.7806
  492MOL0     H66371   7.735  10.052   3.031  0.4705 -0.9099  3.8522
  492MOL0     H66372   7.493  10.081   3.133  1.5265 -0.2584  0.0460
  492MOL0     H66373   7.461  10.229   3.224  0.9205  1.8784 -0.1975
  492MOL0     H66374   7.424  10.195   2.916  2.1860  0.7435  0.6734
  492MOL0     H66375   7.364  10.328   3.008 -1.6790 -0.1846 -2.7737
  492MOL0     H66376   7.259  10.129   3.145 -1.4392  0.5416 -1.0559
  492MOL0     H66377   7.269  10.045   2.992  4.7400 -0.3238 -0.0108
  492MOL0     H66378   7.142  10.268   2.889  2.1294  1.4905  0.7379
  492MOL0     H66379   7.128  10.306   3.061  1.9722 -0.6865  1.9570
  492MOL0     H66380   6.936  10.388   2.944  0.3668 -1.3164  2.0076
  492MOL0     H66381   6.676  10.558   3.066  0.5660  1.3008 -0.8191
  492MOL0     H66382   6.796  10.563   2.936  0.4379  0.3060  0.1369
  492MOL0     H66383   6.623  10.530   2.896  0.5312  0.0191 -0.8588
  492MOL0     H66384   6.201  10.207   2.822 -0.1623  2.4773 -0.8032
  492MOL0     H66385   5.975  10.221   2.889  0.3713  0.8353 -1.2994
  492MOL0     H66386   5.757  10.219   3.308  0.0122  0.4440 -0.0006
  492MOL0     H66387   5.929  10.236   3.353 -1.3582 -2.0179 -0.2878
  492MOL0     H66388   5.799  10.421   3.412  2.2892 -0.6356  0.1569
  492MOL0     H66389   5.922  10.475   3.293 -1.2724  2.6634 -1.3239
  492MOL0     H66390   5.630  10.444   3.218  0.8266  0.3895  0.7476
  492MOL0     H66391   5.773  10.513   3.128  1.7639  0.3592  1.1644
  492MOL0     H66392   5.628  10.612   3.377  0.5547 -3.1416  0.5262
  492MOL0     H66393   5.791  10.655   3.353 -1.5148  1.9010  0.8303
  492MOL0     H66394   5.569  10.697   3.142 -2.5809 -2.2311  2.6188
  492MOL0     H66395   5.737  10.762   3.141 -0.9565  0.1170 -1.2146
  492MOL0     H66396   5.547  10.922   3.209  2.5895  2.7415  0.2001
  492MOL0     H66397   5.544  10.842   3.367  0.4371  0.7425  0.9190
  492MOL0     H66398   5.796  10.942   3.221 -0.2819 -0.9143 -1.0393
  492MOL0     H66399   5.788  10.898   3.386  3.4040  2.3026 -0.7192
  492MOL0     H66400   5.634  11.123   3.259  0.1478  1.2261  0.3949
  492MOL0     H66401   5.775  11.145   3.353 -0.1850 -0.5347  2.6256
  492MOL0     H66402   6.118  10.266   3.306 -1.6587 -1.7266 -0.5968
  492MOL0     H66403   6.338  10.247   3.231 -1.4438 -2.9586  1.4349
  492MOL0     H66404   6.588  10.072   3.052 -3.0129  2.7474 -2.4876
  492MOL0     H66405   6.837  10.009   3.092  0.0991 -0.4228 -0.4485
  492MOL0     H66406   8.782  10.403   3.445  1.1183 -0.6026 -0.6051
  492MOL0     H66407   9.028  10.382   3.416  1.5601  0.7316  1.0516
  492MOL0     H66408   9.410  10.379   3.147  1.8027 -1.4363 -1.1086
  492MOL0     H66409   9.655  10.365   3.145 -3.4196 -0.6714 -0.6255
  492MOL0     H66410   9.898  10.681   3.351  2.1723  0.6223 -0.3788
  492MOL0     H66411   9.923  10.550   3.465 -2.4289  1.8963  0.2326
  492MOL0     H66412  10.129  10.605   3.333 -1.0831  2.0597 -1.6814
  492MOL0     H66413  10.045  10.595   3.187  0.3102 -0.0135 -0.4451
  492MOL0     H66414  10.160  10.408   3.166  0.5596 -0.4321  0.5628
  492MOL0     H66415   9.998  10.353   3.206 -1.3825  2.1651 -2.8076
  492MOL0     H66416  10.206  10.239   3.322  0.7923  1.0172 -1.7514
  492MOL0     H66417  10.084  10.300   3.434 -2.0094 -0.4498 -1.7087
  492MOL0     H66418  10.442  10.519   3.527  0.6528 -1.5283  0.2306
  492MOL0     H66419   9.682  10.674   3.439 -0.0289 -0.8550  0.4392
  492MOL0     H66420   9.445  10.710   3.423 -1.5413 -2.4314  2.6482
  493MOL0     O66421   0.556  11.224   9.820 -0.1897  0.3386  0.0194
  493MOL0     C66422   0.492  11.212   9.924  0.4362  0.8094 -0.0958
  493MOL0     O66423   0.365  11.138   9.940 -0.1541  0.2232 -0.1019
  493MOL0     C66424   0.314  11.064   9.834 -0.4855  0.3118 -0.1681
  493MOL0     C66425   0.386  10.978   9.755  0.5563  0.2686 -0.3564
  493MOL0     C66426   0.319  10.898   9.659 -0.5683  0.3347 -0.6952
  493MOL0     C66427   0.177  10.908   9.635  1.0537 -0.5095 -0.5142
  493MOL0     O66428   0.118  10.839   9.529  0.1582  0.1329 -0.7691
  493MOL0     C66429  -0.004  10.880   9.480  0.4658 -0.0414 -0.1757
  493MOL0     C66430  -0.124  10.821   9.553 -0.1861  0.6894  0.7310
  493MOL0     C66431  -0.258  10.890   9.523  0.2995 -1.4102 -0.6751
  493MOL0     C66432  -0.381  10.803   9.548  0.7995 -0.2056 -0.0167
  493MOL0     C66433  -0.502  10.890   9.561 -0.6258  0.2464  0.2082
  493MOL0     C66434  -0.633  10.835   9.622  0.2343 -0.0800  0.4594
  493MOL0     C66435  -0.707  10.730   9.543  0.3314  0.3444 -0.3293
  493MOL0     C66436  -0.838  10.695   9.600 -0.6671 -0.3175  0.1101
  493MOL0     N66437  -0.836  10.610   9.718  0.0818  0.0052  0.8865
  493MOL0     C66438  -0.880  10.481   9.719  0.8141 -0.5663 -0.4135
  493MOL0     C66439  -0.874  10.440   9.845  0.8222 -0.4545 -0.4063
  493MOL0     C66440  -0.884  10.302   9.892 -0.4510 -0.7691 -0.3134
  493MOL0     C66441  -0.996  10.229   9.819 -0.6461  0.0736 -0.1450
  493MOL0     C66442  -0.959  10.072   9.831  0.3506  0.4254  0.2635
  493MOL0     C66443  -1.081   9.978   9.828  0.0438  0.0176  0.6933
  493MOL0     O66444  -1.171  10.018   9.729 -0.2901  0.3994  0.7389
  493MOL0     C66445  -1.294   9.960   9.715  0.3769  0.0750  0.3864
  493MOL0     C66446  -1.376  10.000   9.606  0.5100  0.1817  0.0724
  493MOL0     C66447  -1.496   9.931   9.573  0.1921 -0.0828 -0.3782
  493MOL0     C66448  -1.562   9.955   9.446 -0.4723  0.2136  1.4737
  493MOL0     C66449  -1.544   9.822   9.655 -0.2043 -0.3096  0.1771
  493MOL0     C66450  -1.668   9.745   9.634 -0.0498  0.5324  0.2996
  493MOL0     O66451  -1.650   9.614   9.661 -0.2311  0.4309 -0.2473
  493MOL0     C66452  -1.757   9.523   9.658 -0.4263  0.8380  0.1227
  493MOL0     C66453  -1.861   9.532   9.754  0.0457  0.3654 -0.3231
  493MOL0     C66454  -1.975   9.457   9.741 -0.1500  0.3652  0.3160
  493MOL0     C66455  -1.992   9.362   9.633 -0.1110 -0.4021 -0.1287
  493MOL0     O66456  -2.103   9.280   9.615 -0.3374  0.0920  0.9209
  493MOL0     C66457  -2.094   9.161   9.698  0.7511 -0.3224  0.3649
  493MOL0     C66458  -2.194   9.170   9.805 -0.2576  0.4582  0.0812
  493MOL0     C66459  -2.340   9.194   9.774  0.2870  0.2169 -0.4659
  493MOL0     C66460  -2.429   9.184   9.900 -0.1429 -0.6690  0.1974
  493MOL0     C66461  -2.587   9.195   9.876  0.3141  0.1202  0.5822
  493MOL0     C66462  -2.654   9.077   9.821  0.7645  0.6234  0.0124
  493MOL0     C66463  -2.812   9.127   9.792  0.7165 -0.5569  0.6762
  493MOL0     C66464  -2.889   9.004   9.730  0.9176  0.0707  0.2183
  493MOL0    Cl66465  -2.913   8.875   9.853 -0.1927  0.0514  0.2951
  493MOL0     C66466  -1.885   9.345   9.543  0.1635  0.0170  0.3505
  493MOL0     C66467  -1.769   9.426   9.556 -0.3609 -0.1786 -0.5857
  493MOL0     O66468  -1.773   9.796   9.606  0.4701 -0.7623  0.8744
  493MOL0     C66469  -1.458   9.786   9.755  0.4921  0.4115  0.7605
  493MOL0     C66470  -1.343   9.855   9.793 -0.0844  0.5435  0.0418
  493MOL0     N66471  -0.858  10.560   9.926  0.4926 -0.1870 -0.1636
  493MOL0     N66472  -0.828  10.651   9.841  0.1449  0.1548 -0.6407
  493MOL0     C66473   0.110  10.994   9.719  1.1626  0.6934 -0.3505
  493MOL0     C66474   0.177  11.075   9.810  0.0428 -0.1334 -0.3414
  493MOL0     C66475   0.545  11.289  10.044  0.4477  0.0191  0.2795
  493MOL0     C66476   0.650  11.385  10.020  0.0539  0.1553 -0.0057
  493MOL0     C66477   0.705  11.449  10.138  0.1488 -0.5859  0.4194
  493MOL0     C66478   0.648  11.426  10.266  0.2476 -0.8369 -1.0491
  493MOL0     O66479   0.688  11.477  10.394 -0.5742 -0.4834  0.5718
  493MOL0     C66480   0.811  11.545  10.392  0.8497 -0.3755 -0.1670
  493MOL0     C66481   0.774  11.689  10.401  0.0500 -0.0802 -0.1989
  493MOL0     C66482   0.749  11.739  10.546 -0.4603 -0.2836  0.3181
  493MOL0     C66483   0.864  11.838  10.585  0.0000 -0.5243 -0.4261
  493MOL0     C66484   0.997  11.778  10.570 -0.1895 -0.5517 -0.5652
  493MOL0     C66485   1.105  11.725  10.551 -0.5257 -0.2899 -0.0764
  493MOL0     C66486   0.539  11.338  10.278  1.1712 -0.6073  0.8312
  493MOL0     C66487   0.480  11.272  10.168 -0.7203 -0.2300  0.4851
  493MOL0     H66488   0.491  10.979   9.782  0.2856  2.3341  0.8730
  493MOL0     H66489   0.384  10.829   9.606  1.2932 -2.3311  4.3507
  493MOL0     H66490  -0.002  10.989   9.494  1.4625 -0.3868  3.4053
  493MOL0     H66491  -0.023  10.855   9.375  0.0279  0.4382 -0.2209
  493MOL0     H66492  -0.124  10.723   9.505  0.9787  0.6190  0.8386
  493MOL0     H66493  -0.113  10.813   9.662  3.6733 -0.2803  0.4179
  493MOL0     H66494  -0.258  10.981   9.584  2.3417 -2.2207  0.6568
  493MOL0     H66495  -0.262  10.911   9.416 -2.5672 -0.6318 -0.4787
  493MOL0     H66496  -0.395  10.725   9.473 -0.5381 -0.7176  0.7434
  493MOL0     H66497  -0.372  10.753   9.645  0.4009 -0.5278 -0.1484
  493MOL0     H66498  -0.482  10.983   9.616 -2.5831  1.2772 -0.7003
  493MOL0     H66499  -0.525  10.935   9.464 -4.0492 -1.7788 -0.1075
  493MOL0     H66500  -0.619  10.796   9.723 -2.0952 -0.2013  0.7818
  493MOL0     H66501  -0.701  10.919   9.636  0.3338 -0.1073  1.1590
  493MOL0     H66502  -0.714  10.749   9.435  1.1474  1.4939 -0.1921
  493MOL0     H66503  -0.649  10.637   9.542  2.6353  1.7170 -1.1357
  493MOL0     H66504  -0.881  10.633   9.521 -0.7913 -0.5507  0.3640
  493MOL0     H66505  -0.904  10.781   9.614  1.3452  1.5839 -1.2509
  493MOL0     H66506  -0.892  10.422   9.629  1.4539  0.2528 -1.0558
  493MOL0     H66507  -0.787  10.254   9.879  0.8743  1.3978  0.9913
  493MOL0     H66508  -0.904  10.303   9.999  0.6930 -0.9247 -0.0878
  493MOL0     H66509  -0.998  10.262   9.715 -0.2726  3.1480  0.7304
  493MOL0     H66510  -1.086  10.248   9.880 -0.7423  0.1930 -0.3246
  493MOL0     H66511  -0.918  10.048   9.930 -0.5174  0.2642  0.5959
  493MOL0     H66512  -0.879  10.049   9.760  0.1115  0.1276  0.0897
  493MOL0     H66513  -1.123   9.979   9.928  0.7912  2.0290  1.0266
  493MOL0     H66514  -1.052   9.876   9.800 -1.9938  0.3988 -3.6830
  493MOL0     H66515  -1.331  10.073   9.540 -2.1464  0.2037 -1.8694
  493MOL0     H66516  -1.562   9.868   9.379 -0.5117  0.3940  1.2374
  493MOL0     H66517  -1.666   9.986   9.452 -0.8252  0.0456 -2.0035
  493MOL0     H66518  -1.519  10.043   9.398 -1.6662 -0.0514 -0.1718
  493MOL0     H66519  -1.859   9.606   9.833 -1.7001  1.2183 -1.0309
  493MOL0     H66520  -2.051   9.473   9.817 -2.0927 -0.9795 -1.2218
  493MOL0     H66521  -2.113   9.075   9.633  0.1619  0.8286 -1.0618
  493MOL0     H66522  -2.000   9.143   9.751 -0.7283 -2.4395  2.4602
  493MOL0     H66523  -2.194   9.086   9.875  1.2731 -0.7081 -1.2400
  493MOL0     H66524  -2.159   9.253   9.867  2.6314 -0.2099 -0.5099
  493MOL0     H66525  -2.382   9.132   9.694  0.3439 -0.7750  0.2542
  493MOL0     H66526  -2.352   9.296   9.737  1.3830  0.4678 -0.1688
  493MOL0     H66527  -2.411   9.089   9.950  0.5200  0.5454  2.3642
  493MOL0     H66528  -2.396   9.265   9.966 -0.2546  2.8531 -3.6564
  493MOL0     H66529  -2.596   9.277   9.804 -0.3007 -0.9159 -0.5431
  493MOL0     H66530  -2.632   9.221   9.973 -1.3394 -1.4563  0.2824
  493MOL0     H66531  -2.598   9.039   9.735  1.4824 -1.3633  1.2662
  493MOL0     H66532  -2.651   8.999   9.898 -0.6491 -1.6508 -2.0731
  493MOL0     H66533  -2.802   9.210   9.722 -0.0955  1.2622  2.5895
  493MOL0     H66534  -2.859   9.173   9.879  1.6049  2.6661 -0.4085
  493MOL0     H66535  -2.844   8.958   9.642  1.3296 -0.1390  0.5317
  493MOL0     H66536  -2.991   9.034   9.704 -0.8308 -2.7525  2.9591
  493MOL0     H66537  -1.892   9.269   9.466 -2.5880 -1.0743  1.5551
  493MOL0     H66538  -1.692   9.409   9.481 -1.3296  1.7278 -2.1175
  493MOL0     H66539  -1.485   9.697   9.811  0.3270  0.2462  0.4150
  493MOL0     H66540  -1.287   9.823   9.880  1.1652  3.5577  0.4768
  493MOL0     H66541   0.005  11.001   9.694  1.0568 -0.2871 -0.2346
  493MOL0     H66542   0.122  11.140   9.878  0.2136 -0.4387  0.0921
  493MOL0     H66543   0.694  11.405   9.923  1.8131 -0.6626  0.5922
  493MOL0     H66544   0.786  11.519  10.122 -0.4574  0.1657  0.6092
  493MOL0     H66545   0.869  11.524  10.482  1.0315 -2.3837 -0.7042
  493MOL0     H66546   0.875  11.529  10.305  2.9532 -0.5896  1.3424
  493MOL0     H66547   0.673  11.699  10.359  0.4205 -0.9438 -1.3551
  493MOL0     H66548   0.842  11.752  10.343  1.5352 -0.9272  0.5657
  493MOL0     H66549   0.751  11.662  10.624 -3.9201  2.2586  3.2237
  493MOL0     H66550   0.657  11.798  10.549 -0.7262 -0.7337  1.2596
  493MOL0     H66551   0.862  11.870  10.690 -0.3189 -0.0015 -0.5909
  493MOL0     H66552   0.857  11.929  10.526  0.1430  0.5063  1.0920
  493MOL0     H66553   1.190  11.662  10.532 -0.2796 -0.1012  0.3965
  493MOL0     H66554   0.485  11.331  10.372 -2.9457  1.6543 -1.0935
  493MOL0     H66555   0.397  11.203  10.176 -0.7247  0.0131  3.1264
  494MOL0     O66556   4.027   0.208   4.564  0.3158 -0.0304 -0.2366
  494MOL0     C66557   4.017   0.182   4.447  0.3128 -0.2943  0.3112
  494MOL0     O66558   3.919   0.229   4.364 -0.4118  0.3043 -0.6413
  494MOL0     C66559   3.818   0.304   4.412 -0.1786  0.8490 -0.5659
  494MOL0     C66560   3.811   0.444   4.403  0.1777 -0.5984 -0.1644
  494MOL0     C66561   3.712   0.521   4.469  0.5274  0.2805 -0.1054
  494MOL0     C66562   3.600   0.458   4.519  0.0243 -0.7109  0.2454
  494MOL0     O66563   3.477   0.520   4.548  0.2291  0.0686 -0.7922
  494MOL0     C66564   3.484   0.662   4.574  0.2126 -0.9312 -0.6386
  494MOL0     C66565   3.343   0.729   4.605 -0.8873 -0.7804  0.0697
  494MOL0     C66566   3.240   0.684   4.502 -0.5358 -0.5548  0.1196
  494MOL0     C66567   3.096   0.722   4.529 -0.1727 -0.1455 -0.2142
  494MOL0     C66568   3.029   0.662   4.406  0.0505  0.1339 -0.3130
  494MOL0     C66569   2.873   0.669   4.430 -0.0929 -0.0119  1.1657
  494MOL0     C66570   2.820   0.587   4.548 -0.1432 -0.2980  0.3580
  494MOL0     C66571   2.683   0.509   4.523  0.8213  0.3834 -0.5000
  494MOL0     N66572   2.563   0.596   4.512  0.9201 -0.0325  0.6060
  494MOL0     C66573   2.544   0.723   4.571  0.1946  0.3690  0.9110
  494MOL0     C66574   2.433   0.770   4.502  0.1990 -0.2159 -0.0290
  494MOL0     C66575   2.339   0.887   4.540 -0.0916 -0.1391 -0.9123
  494MOL0     C66576   2.206   0.896   4.482 -0.9510  0.0800  0.7900
  494MOL0     C66577   2.140   1.017   4.532 -1.2380 -0.2974  0.3739
  494MOL0     C66578   2.022   0.992   4.620  0.6450  0.7082 -0.1516
  494MOL0     O66579   1.908   0.915   4.560  0.1794  0.7689 -1.4240
  494MOL0     C66580   1.785   0.961   4.600  1.2052 -0.7050 -0.4966
  494MOL0     C66581   1.757   0.981   4.738 -0.0624  0.4072  0.2346
  494MOL0     C66582   1.637   1.057   4.772 -0.6370 -0.2324 -0.6559
  494MOL0     C66583   1.615   1.098   4.913  0.4538 -0.6433  0.3429
  494MOL0     C66584   1.550   1.104   4.672 -0.2344  0.0922  0.0419
  494MOL0     C66585   1.416   1.186   4.683 -0.6546  0.6611 -0.1660
  494MOL0     O66586   1.356   1.207   4.568  0.3865 -0.6916  0.2910
  494MOL0     C66587   1.222   1.258   4.566 -0.0795  0.4256  0.0511
  494MOL0     C66588   1.119   1.191   4.507  0.4106  0.7335  0.4943
  494MOL0     C66589   0.993   1.239   4.512  0.0424  1.4329 -0.7163
  494MOL0     C66590   0.964   1.370   4.555  0.3085  0.0616 -0.6407
  494MOL0     O66591   0.837   1.426   4.571  0.2106  0.4535 -0.4527
  494MOL0     C66592   0.750   1.385   4.467  0.1802 -0.5680 -0.0757
  494MOL0     C66593   0.609   1.429   4.490  0.3215 -0.1581  0.2136
  494MOL0     C66594   0.529   1.310   4.558 -0.8979  0.3494 -0.0901
  494MOL0     C66595   0.427   1.370   4.647 -0.0296 -0.1595 -0.4682
  494MOL0     C66596   0.316   1.446   4.570 -0.4910 -0.2383 -1.1054
  494MOL0     C66597   0.240   1.540   4.671  0.1108  0.2407 -0.2428
  494MOL0     C66598   0.141   1.618   4.593 -0.1846  0.1203  0.9953
  494MOL0     C66599   0.030   1.664   4.678 -0.5443 -0.3971 -0.3328
  494MOL0    Cl66600  -0.091   1.771   4.588  0.0568  0.4123  0.0770
  494MOL0     C66601   1.068   1.444   4.608 -0.8340  0.6316 -0.8696
  494MOL0     C66602   1.199   1.389   4.605  0.0897 -0.1150 -0.3349
  494MOL0     O66603   1.373   1.225   4.794  0.7066  0.1023  0.3838
  494MOL0     C66604   1.580   1.062   4.542  0.2930  1.0550  0.4797
  494MOL0     C66605   1.690   0.986   4.497 -1.0217 -0.6659 -0.3803
  494MOL0     N66606   2.397   0.675   4.408  0.5322 -0.0922 -0.5308
  494MOL0     N66607   2.469   0.566   4.420 -0.4223 -0.1142  0.4383
  494MOL0     C66608   3.603   0.322   4.518  0.2022  0.0372  0.8049
  494MOL0     C66609   3.708   0.243   4.472 -0.3065  0.5884  0.2599
  494MOL0     C66610   4.126   0.103   4.383  0.3640 -0.2631  0.6902
  494MOL0     C66611   4.161   0.118   4.245  0.1018 -1.1839 -0.4591
  494MOL0     C66612   4.252   0.040   4.181 -0.2156  0.6881  0.0587
  494MOL0     C66613   4.325  -0.059   4.256 -0.2825  0.7115  0.5240
  494MOL0     O66614   4.430  -0.125   4.209  0.1206 -0.1862  0.3611
  494MOL0     C66615   4.475  -0.116   4.072 -0.0228 -0.0652  0.9875
  494MOL0     C66616   4.561  -0.232   4.026  0.1291  0.3341  0.3405
  494MOL0     C66617   4.685  -0.251   4.120 -0.3924 -0.1307  0.6091
  494MOL0     C66618   4.723  -0.398   4.151 -0.3631  0.2938  0.8358
  494MOL0     C66619   4.839  -0.393   4.236 -0.4204  0.5255  0.0114
  494MOL0     C66620   4.937  -0.387   4.307  0.2295 -0.3002 -0.3906
  494MOL0     C66621   4.313  -0.063   4.397  0.1148 -0.5863  0.4217
  494MOL0     C66622   4.214   0.019   4.452 -0.2905 -0.3751 -0.2015
  494MOL0     H66623   3.895   0.500   4.363 -0.0295 -0.9518 -1.1104
  494MOL0     H66624   3.728   0.628   4.475  0.4630  0.2057  3.2906
  494MOL0     H66625   3.547   0.683   4.660  0.2400 -0.6836 -0.7187
  494MOL0     H66626   3.508   0.719   4.483 -3.8577  2.3433 -0.0026
  494MOL0     H66627   3.317   0.700   4.708  1.1797  0.7178  1.0787
  494MOL0     H66628   3.350   0.838   4.596 -2.5602 -0.6662 -0.1976
  494MOL0     H66629   3.279   0.731   4.412  3.0010 -1.9544  0.7812
  494MOL0     H66630   3.243   0.577   4.482  0.0567 -1.0280  2.4804
  494MOL0     H66631   3.057   0.680   4.622  0.2349  0.5486  0.2822
  494MOL0     H66632   3.077   0.830   4.529 -3.0568 -0.5860  0.8771
  494MOL0     H66633   3.067   0.718   4.320 -0.5947  1.1525  0.0540
  494MOL0     H66634   3.045   0.554   4.395 -1.7361 -0.4230  1.7678
  494MOL0     H66635   2.851   0.775   4.444  2.9107  0.6524  1.5372
  494MOL0     H66636   2.831   0.634   4.335  4.1934  1.0931 -1.3952
  494MOL0     H66637   2.892   0.506   4.563  0.6979  0.3973  0.1403
  494MOL0     H66638   2.812   0.648   4.639  0.1166 -0.0316  0.2037
  494MOL0     H66639   2.666   0.442   4.608 -0.0720 -0.0546 -1.0139
  494MOL0     H66640   2.693   0.442   4.437 -1.8409 -1.4235  0.4577
  494MOL0     H66641   2.598   0.760   4.658  2.1406 -3.3615  1.5011
  494MOL0     H66642   2.328   0.885   4.648 -2.5877 -0.8397 -1.1338
  494MOL0     H66643   2.390   0.979   4.511 -1.3998  0.4969 -1.2523
  494MOL0     H66644   2.148   0.811   4.517 -1.5878  0.6730  1.2147
  494MOL0     H66645   2.212   0.894   4.372 -2.4418  2.0310  0.6091
  494MOL0     H66646   2.104   1.072   4.445  1.9137  0.7337 -0.3844
  494MOL0     H66647   2.214   1.075   4.588  1.0793  0.3276 -3.0065
  494MOL0     H66648   1.990   1.094   4.642  3.5788  1.6232  0.3215
  494MOL0     H66649   2.050   0.946   4.715  0.6423  0.5807 -0.2116
  494MOL0     H66650   1.822   0.950   4.819 -2.5449  0.9197  2.5399
  494MOL0     H66651   1.526   1.043   4.945  1.6184 -0.9259  3.4880
  494MOL0     H66652   1.695   1.064   4.980 -0.4728 -2.2101  0.6972
  494MOL0     H66653   1.605   1.207   4.918 -2.5319 -0.8500  0.7316
  494MOL0     H66654   1.149   1.096   4.464  1.8090  0.9994  0.8369
  494MOL0     H66655   0.909   1.176   4.484 -1.4453  2.6934  0.7222
  494MOL0     H66656   0.778   1.437   4.374 -2.3508 -0.2256 -0.7012
  494MOL0     H66657   0.751   1.276   4.458  0.1784 -0.5333 -0.5193
  494MOL0     H66658   0.611   1.523   4.545  2.3030  0.3247 -0.6203
  494MOL0     H66659   0.574   1.449   4.388 -1.5100 -0.5090  0.7265
  494MOL0     H66660   0.600   1.252   4.617 -1.1224  0.8267  0.6662
  494MOL0     H66661   0.482   1.240   4.488 -1.1603  0.8173 -0.3864
  494MOL0     H66662   0.399   1.284   4.709  3.8371 -1.2551 -0.0204
  494MOL0     H66663   0.481   1.433   4.718  0.8802 -2.0081  0.5493
  494MOL0     H66664   0.249   1.368   4.533  0.1402 -1.9741  1.2103
  494MOL0     H66665   0.359   1.501   4.486 -2.0337 -2.4538 -3.4800
  494MOL0     H66666   0.185   1.475   4.740 -0.7277  0.7412 -0.4155
  494MOL0     H66667   0.309   1.612   4.717  0.4441  1.6577 -2.7455
  494MOL0     H66668   0.092   1.556   4.518 -0.2055  2.5890 -1.1843
  494MOL0     H66669   0.179   1.707   4.541 -1.5168 -0.8819 -1.9261
  494MOL0     H66670   0.071   1.720   4.763 -1.6627 -1.3073  0.8369
  494MOL0     H66671  -0.020   1.574   4.716  1.6971 -1.2996  0.6604
  494MOL0     H66672   1.051   1.541   4.654 -0.7394  0.9718 -1.5268
  494MOL0     H66673   1.278   1.445   4.654 -0.1029  0.5647 -0.7811
  494MOL0     H66674   1.513   1.089   4.460  0.2964  1.1536  0.5093
  494MOL0     H66675   1.694   0.958   4.392  0.5758  0.0193 -0.5276
  494MOL0     H66676   3.512   0.267   4.540  0.0676 -0.3620 -0.6086
  494MOL0     H66677   3.708   0.135   4.478  0.6518  0.4961 -0.9442
  494MOL0     H66678   4.113   0.193   4.182  0.9897 -1.4320 -1.4442
  494MOL0     H66679   4.259   0.059   4.074 -2.7368 -1.2256 -0.5789
  494MOL0     H66680   4.393  -0.103   4.001 -0.4111  1.5476  1.6934
  494MOL0     H66681   4.530  -0.025   4.046 -1.2771  0.5008  0.2224
  494MOL0     H66682   4.603  -0.214   3.926 -2.1348  1.3953 -0.4818
  494MOL0     H66683   4.499  -0.322   4.031  0.9356 -0.4442 -2.0171
  494MOL0     H66684   4.665  -0.198   4.213 -2.3436  3.8368 -1.7755
  494MOL0     H66685   4.760  -0.194   4.064 -0.4247  2.1851  2.7448
  494MOL0     H66686   4.748  -0.457   4.062 -1.9489 -1.3757  1.4533
  494MOL0     H66687   4.631  -0.435   4.196 -1.4066  0.3230 -1.1867
  494MOL0     H66688   5.033  -0.387   4.354  0.8068 -2.1588 -1.4882
  494MOL0     H66689   4.360  -0.136   4.462 -0.2506  0.3497  1.7907
  494MOL0     H66690   4.191   0.014   4.558  0.5542  1.5803  0.1299
  495MOL0     O66691   9.860   2.923   2.943  0.5763  0.9571 -0.3700
  495MOL0     C66692   9.834   3.043   2.949  0.3273  0.3677 -0.2164
  495MOL0     O66693   9.924   3.139   2.964 -0.2427  0.1221  0.2837
  495MOL0     C66694  10.054   3.095   2.988  0.8915  0.0905 -0.2198
  495MOL0     C66695  10.158   3.099   2.892 -0.4625  0.9219  0.3496
  495MOL0     C66696  10.287   3.045   2.916  0.9823  0.2727  0.1134
  495MOL0     C66697  10.324   2.986   3.044 -0.3356  0.0717 -0.2449
  495MOL0     O66698  10.449   2.942   3.082  0.7498 -0.2836  0.0685
  495MOL0     C66699  10.543   2.950   2.983  0.6529 -0.6092 -0.2725
  495MOL0     C66700  10.685   2.914   3.045 -0.1594 -0.0923 -0.5713
  495MOL0     C66701  10.784   2.861   2.942  0.0140 -0.6170 -0.4022
  495MOL0     C66702  10.848   2.975   2.866  0.5140 -0.1418  0.3205
  495MOL0     C66703  10.918   2.932   2.740 -0.4014 -0.0620 -0.4249
  495MOL0     C66704  11.020   3.030   2.693 -0.4381 -0.0481 -0.4000
  495MOL0     C66705  11.089   2.982   2.572 -0.4355  0.9894 -0.2443
  495MOL0     C66706  11.192   2.858   2.590  0.0773 -0.2056 -0.3051
  495MOL0     N66707  11.280   2.882   2.705  0.1119 -0.0968  0.4748
  495MOL0     C66708  11.378   2.973   2.728  0.0628  0.1946  0.5594
  495MOL0     C66709  11.433   2.939   2.847  0.4538 -0.4050 -0.5053
  495MOL0     C66710  11.540   3.021   2.902 -0.0001  0.6445 -0.4743
  495MOL0     C66711  11.682   3.003   2.828 -0.6925 -0.0579 -0.5777
  495MOL0     C66712  11.794   3.019   2.925 -0.6774 -0.8291  0.0854
  495MOL0     C66713  11.930   2.982   2.854 -0.4780  0.5694  0.2323
  495MOL0     O66714  12.001   2.897   2.945  0.1798  0.8521  0.2560
  495MOL0     C66715  12.133   2.886   2.943  1.0139 -0.4978  0.3209
  495MOL0     C66716  12.192   2.857   3.069 -0.4653 -0.4933  0.2271
  495MOL0     C66717  12.330   2.837   3.075  0.5405 -0.0175 -0.6184
  495MOL0     C66718  12.385   2.807   3.212 -0.1875  0.4809 -0.1604
  495MOL0     C66719  12.410   2.846   2.956  0.2027 -0.1506  0.0786
  495MOL0     C66720  12.555   2.822   2.957  0.4338 -0.2867  0.3061
  495MOL0     O66721  12.631   2.865   2.848  0.3264  0.8758  0.1951
  495MOL0     C66722  12.766   2.874   2.857  0.2722  0.3879  0.6741
  495MOL0     C66723  12.837   2.769   2.801  0.6537  0.5898 -1.1220
  495MOL0     C66724  12.972   2.773   2.812 -0.1025  0.8973 -0.3644
  495MOL0     C66725  13.035   2.875   2.888 -0.5403 -0.3364 -0.7207
  495MOL0     O66726  13.168   2.877   2.907 -0.1406 -0.1598 -0.3616
  495MOL0     C66727  13.250   2.862   2.785  0.1210 -0.1824  0.1602
  495MOL0     C66728  13.396   2.861   2.818  0.2797 -0.5327  0.0433
  495MOL0     C66729  13.430   3.004   2.861 -0.7534 -0.6253 -0.3125
  495MOL0     C66730  13.572   2.995   2.912 -0.0517  0.6192  1.2879
  495MOL0     C66731  13.636   3.135   2.931 -0.0455  0.7755  0.1738
  495MOL0     C66732  13.593   3.213   3.050 -0.0522  0.0076 -0.0101
  495MOL0     C66733  13.647   3.358   3.047  0.0658 -0.0756  0.8600
  495MOL0     C66734  13.557   3.461   3.118 -0.3685  0.5482 -0.1318
  495MOL0    Cl66735  13.533   3.392   3.286  0.0061 -0.0498 -0.2393
  495MOL0     C66736  12.969   2.975   2.943 -0.1705  0.3928 -0.2268
  495MOL0     C66737  12.831   2.970   2.928 -0.4444  0.0961 -0.0483
  495MOL0     O66738  12.610   2.772   3.052  0.0793 -0.3043 -0.6289
  495MOL0     C66739  12.353   2.877   2.835 -0.2871 -0.3882  0.0421
  495MOL0     C66740  12.215   2.899   2.828  0.0373  0.0791 -0.6627
  495MOL0     N66741  11.373   2.823   2.896  1.0277 -0.2036 -0.0361
  495MOL0     N66742  11.277   2.801   2.811  0.0055  0.3217  0.9922
  495MOL0     C66743  10.217   2.983   3.133  0.7706 -0.4558 -0.5157
  495MOL0     C66744  10.088   3.039   3.107 -0.6309  0.5366 -0.7485
  495MOL0     C66745   9.695   3.087   2.920 -0.0298  0.0782 -0.0573
  495MOL0     C66746   9.673   3.218   2.889 -0.0710  0.3161  0.2329
  495MOL0     C66747   9.543   3.276   2.886  0.5141  0.8311  0.3618
  495MOL0     C66748   9.433   3.186   2.898 -0.1361  0.3832 -1.3266
  495MOL0     O66749   9.307   3.223   2.895  0.0658  0.5743 -0.4988
  495MOL0     C66750   9.269   3.318   2.998 -0.6633 -0.1217  0.0616
  495MOL0     C66751   9.111   3.319   3.014  0.5132 -0.6279 -1.0526
  495MOL0     C66752   9.061   3.448   3.077  0.5811 -0.2564 -0.6741
  495MOL0     C66753   8.916   3.439   3.124 -0.4681  0.9996  0.2895
  495MOL0     C66754   8.882   3.572   3.169 -0.6053  0.4441  0.3680
  495MOL0     C66755   8.848   3.667   3.228 -0.5676 -0.1686  0.6706
  495MOL0     C66756   9.457   3.046   2.912  0.2475  0.3356 -0.2928
  495MOL0     C66757   9.585   3.000   2.932  0.8956 -0.2449  0.1126
  495MOL0     H66758  10.143   3.148   2.796  0.2888  0.6650  0.0934
  495MOL0     H66759  10.354   3.083   2.840 -0.9457  0.4444 -1.5739
  495MOL0     H66760  10.523   2.880   2.902  2.1594 -2.2563  0.7211
  495MOL0     H66761  10.545   3.053   2.945  0.8659  0.1772  1.7563
  495MOL0     H66762  10.727   2.997   3.103  0.0003 -0.5666 -0.0109
  495MOL0     H66763  10.663   2.832   3.114  1.5800  0.9240  1.2889
  495MOL0     H66764  10.870   2.808   2.983 -1.0608 -1.6664  0.5872
  495MOL0     H66765  10.726   2.797   2.875 -0.0260  1.1208 -2.1136
  495MOL0     H66766  10.764   3.039   2.837  0.7773  0.5192  0.9984
  495MOL0     H66767  10.921   3.026   2.928  1.9496 -2.8019  0.9782
  495MOL0     H66768  10.971   2.841   2.767  0.4999  0.0962 -1.6061
  495MOL0     H66769  10.842   2.901   2.667 -1.4529 -3.4760  1.8551
  495MOL0     H66770  10.963   3.121   2.670 -2.7302 -0.9647  1.2816
  495MOL0     H66771  11.095   3.037   2.773 -1.6984 -1.8699  1.0293
  495MOL0     H66772  11.010   2.940   2.509 -1.6182  2.7601 -0.0012
  495MOL0     H66773  11.141   3.063   2.521  2.0991  0.6931  1.6642
  495MOL0     H66774  11.258   2.841   2.504 -0.5942 -1.6899 -0.5560
  495MOL0     H66775  11.132   2.769   2.613  1.5936 -1.0497  0.4935
  495MOL0     H66776  11.399   3.053   2.658 -0.1464 -1.2320 -1.2050
  495MOL0     H66777  11.506   3.124   2.886 -0.9054  0.2253 -1.2821
  495MOL0     H66778  11.545   2.999   3.009  0.4264 -0.4915 -0.7092
  495MOL0     H66779  11.700   3.076   2.750 -2.6747 -0.3157 -1.3294
  495MOL0     H66780  11.689   2.899   2.794 -0.4000 -0.4960  0.7334
  495MOL0     H66781  11.765   2.958   3.011  0.9262  1.2153  2.1949
  495MOL0     H66782  11.801   3.126   2.947  0.9710  0.1410 -4.1502
  495MOL0     H66783  11.984   3.074   2.826 -0.1415 -0.0562 -1.2885
  495MOL0     H66784  11.911   2.932   2.759  1.1455  0.9157 -0.3218
  495MOL0     H66785  12.138   2.854   3.163  0.2945  1.0928  0.7622
  495MOL0     H66786  12.429   2.708   3.230 -0.8429  0.3702  0.9260
  495MOL0     H66787  12.458   2.881   3.245  0.4790 -1.1175  2.2953
  495MOL0     H66788  12.309   2.810   3.292 -0.4132  0.4854 -0.3736
  495MOL0     H66789  12.782   2.699   2.740 -1.2954 -1.3862  2.5568
  495MOL0     H66790  13.021   2.689   2.765 -0.2084  0.4351  0.3243
  495MOL0     H66791  13.241   2.763   2.741  0.9286  0.3563 -1.3030
  495MOL0     H66792  13.241   2.940   2.708  1.7848  0.1702  0.2716
  495MOL0     H66793  13.404   2.787   2.898 -1.2509  0.5149  1.2294
  495MOL0     H66794  13.458   2.845   2.730 -0.7126  2.7604 -1.4241
  495MOL0     H66795  13.359   3.040   2.936 -0.5560  1.2948 -0.9911
  495MOL0     H66796  13.431   3.077   2.780  0.4137  3.1255  2.7732
  495MOL0     H66797  13.569   2.946   3.010 -2.3818  1.7532  1.8796
  495MOL0     H66798  13.625   2.939   2.835 -1.4933  0.8852  0.0380
  495MOL0     H66799  13.618   3.186   2.836  0.0317 -0.7563 -0.6810
  495MOL0     H66800  13.743   3.115   2.939 -0.8231 -4.0723  2.5610
  495MOL0     H66801  13.484   3.212   3.056 -0.3898  1.2967 -3.6177
  495MOL0     H66802  13.640   3.162   3.135  0.3439 -3.9393 -2.3435
  495MOL0     H66803  13.655   3.370   2.938 -2.6985 -1.2408  0.4380
  495MOL0     H66804  13.746   3.373   3.092  0.5847  3.4663 -1.0722
  495MOL0     H66805  13.460   3.474   3.069 -1.4208  1.4991  2.0495
  495MOL0     H66806  13.598   3.562   3.122 -1.4688  1.2106 -3.2476
  495MOL0     H66807  13.023   3.047   3.005 -0.4675  0.8768 -0.5252
  495MOL0     H66808  12.762   3.035   2.980 -1.4737 -2.5395  2.1216
  495MOL0     H66809  12.406   2.876   2.740  0.1644  0.5313  0.2709
  495MOL0     H66810  12.168   2.922   2.733 -0.6324 -1.6627 -0.7751
  495MOL0     H66811  10.237   2.966   3.238 -1.2550  2.5994  0.4961
  495MOL0     H66812  10.010   3.044   3.183 -2.5079  1.6797 -2.6733
  495MOL0     H66813   9.758   3.283   2.871  0.0440  0.0907 -0.0448
  495MOL0     H66814   9.529   3.384   2.889 -0.0047  0.7969 -0.3648
  495MOL0     H66815   9.318   3.295   3.093  0.0446  0.1995 -0.2231
  495MOL0     H66816   9.296   3.420   2.971 -1.8677 -0.3400 -2.2248
  495MOL0     H66817   9.089   3.235   3.081  2.6102 -2.2098 -2.2531
  495MOL0     H66818   9.064   3.298   2.917 -2.3741 -0.9803  0.2970
  495MOL0     H66819   9.077   3.528   3.004  0.9643  1.2021  0.9313
  495MOL0     H66820   9.123   3.468   3.165  0.1839  0.2333 -0.5062
  495MOL0     H66821   8.896   3.360   3.196 -1.4775  1.3200  0.3761
  495MOL0     H66822   8.854   3.406   3.040 -1.8266 -1.9736  2.3147
  495MOL0     H66823   8.823   3.766   3.257 -0.1844 -0.1301  0.8742
  495MOL0     H66824   9.369   2.985   2.923  0.6628  0.1053  2.2760
  495MOL0     H66825   9.599   2.894   2.950 -0.2151 -0.1896  1.5363
  496MOL0     O66826   8.005   8.194   1.257  0.1002  0.5823 -0.4771
  496MOL0     C66827   7.974   8.081   1.213  0.1043  0.0827 -0.8053
  496MOL0     O66828   7.848   8.023   1.200  0.1452  0.0843  0.5785
  496MOL0     C66829   7.731   8.095   1.213  0.5873  0.4581  0.7117
  496MOL0     C66830   7.626   8.053   1.131 -0.9480 -0.2783  0.2365
  496MOL0     C66831   7.510   8.125   1.136 -0.4699  0.1489  0.2802
  496MOL0     C66832   7.491   8.211   1.234  0.4533  0.2811 -0.0218
  496MOL0     O66833   7.366   8.269   1.227 -0.7059  0.2136 -0.5267
  496MOL0     C66834   7.306   8.318   1.353  0.5545 -0.4766  0.5095
  496MOL0     C66835   7.154   8.349   1.331 -0.2130 -0.2154  0.1524
  496MOL0     C66836   7.084   8.223   1.283  0.3643  0.0229 -0.5725
  496MOL0     C66837   6.938   8.256   1.244 -0.6762  0.0639 -0.6952
  496MOL0     C66838   6.866   8.120   1.221  0.6207 -0.3323  0.1144
  496MOL0     C66839   6.844   8.034   1.347  0.3192 -0.3399  0.2601
  496MOL0     C66840   6.695   7.996   1.354  0.3591  0.7538 -0.0383
  496MOL0     C66841   6.671   7.877   1.445 -0.8717 -0.1621  0.8534
  496MOL0     N66842   6.524   7.862   1.461  0.2802  1.2059 -0.0603
  496MOL0     C66843   6.436   7.805   1.368  0.2574 -0.1403 -0.0810
  496MOL0     C66844   6.314   7.826   1.429  0.2725  0.3669 -1.0205
  496MOL0     C66845   6.192   7.794   1.350  0.6435  0.0430 -0.1153
  496MOL0     C66846   6.082   7.723   1.445  0.0501 -0.1539  0.3700
  496MOL0     C66847   6.005   7.815   1.557  1.1886 -0.5619  0.5037
  496MOL0     C66848   5.913   7.741   1.647 -0.0531  0.5834 -0.6347
  496MOL0     O66849   5.795   7.681   1.584  0.1998 -0.6960  0.0077
  496MOL0     C66850   5.674   7.678   1.655 -0.1750 -0.0156  0.4916
  496MOL0     C66851   5.659   7.675   1.796 -0.1255  0.4801 -0.4118
  496MOL0     C66852   5.538   7.660   1.857  0.0836  0.4085 -0.5232
  496MOL0     C66853   5.537   7.655   2.013 -0.3003  0.6121 -0.2266
  496MOL0     C66854   5.421   7.667   1.787  0.6334 -0.5783 -0.4083
  496MOL0     C66855   5.283   7.645   1.845  0.2521  0.1050 -0.0859
  496MOL0     O66856   5.195   7.586   1.756 -0.6064  0.3743 -0.0352
  496MOL0     C66857   5.063   7.581   1.779  0.1568 -0.1666 -0.1615
  496MOL0     C66858   4.975   7.647   1.688 -0.8206  0.3347  0.1324
  496MOL0     C66859   4.836   7.648   1.713  0.2405  1.5194 -0.0564
  496MOL0     C66860   4.777   7.582   1.828 -0.7924 -0.4803 -0.4060
  496MOL0     O66861   4.644   7.591   1.843  0.4186 -1.0986  0.0274
  496MOL0     C66862   4.592   7.505   1.944 -0.5286 -0.7458 -0.2850
  496MOL0     C66863   4.432   7.466   1.937 -0.1767  0.0557  0.0792
  496MOL0     C66864   4.387   7.497   1.792  0.0155  0.0205  0.7069
  496MOL0     C66865   4.247   7.466   1.762 -0.1491 -0.1492  0.0967
  496MOL0     C66866   4.222   7.503   1.615  0.7118  0.2299  0.7988
  496MOL0     C66867   4.241   7.644   1.570  0.1090 -0.2078  0.2512
  496MOL0     C66868   4.181   7.661   1.429  0.3217  0.2128  0.3845
  496MOL0     C66869   4.178   7.803   1.365  0.6799 -0.7036  0.6512
  496MOL0    Cl66870   4.040   7.882   1.444  0.2995  0.4447 -0.3458
  496MOL0     C66871   4.868   7.507   1.913  0.0233  0.6372  0.8461
  496MOL0     C66872   5.004   7.511   1.884  0.1557 -0.2810  0.4082
  496MOL0     O66873   5.259   7.672   1.961 -0.4390 -0.5240  0.1103
  496MOL0     C66874   5.436   7.682   1.640 -0.1535  0.5094 -0.2892
  496MOL0     C66875   5.560   7.682   1.577  0.0334  0.0554  0.6930
  496MOL0     N66876   6.332   7.881   1.557 -0.8807 -0.0066 -0.1179
  496MOL0     N66877   6.459   7.909   1.570 -0.1132 -0.2888 -0.5992
  496MOL0     C66878   7.589   8.248   1.326  0.4336  0.5741  0.5510
  496MOL0     C66879   7.711   8.183   1.317  0.6544 -0.3550 -0.2524
  496MOL0     C66880   8.094   7.996   1.189  1.1068 -0.3212 -0.7178
  496MOL0     C66881   8.087   7.858   1.179 -0.9907 -0.3057  0.8012
  496MOL0     C66882   8.203   7.777   1.155 -0.6055 -0.4441 -0.0090
  496MOL0     C66883   8.327   7.836   1.141 -0.2532  0.0443  0.1867
  496MOL0     O66884   8.445   7.763   1.129  0.5994  1.0351 -0.1253
  496MOL0     C66885   8.444   7.641   1.054 -0.1890  0.1281 -0.1831
  496MOL0     C66886   8.579   7.600   0.991 -0.2475 -0.6597 -0.6516
  496MOL0     C66887   8.692   7.611   1.093  0.8481 -0.4940  0.6170
  496MOL0     C66888   8.673   7.514   1.207  0.3115 -0.3967 -0.3055
  496MOL0     C66889   8.680   7.381   1.158  0.5742 -0.1334 -0.0102
  496MOL0     C66890   8.660   7.273   1.114  0.4489  1.2701  0.8460
  496MOL0     C66891   8.332   7.977   1.147 -0.7762  0.3420  0.1648
  496MOL0     C66892   8.221   8.053   1.180  0.1101 -0.2457  0.9046
  496MOL0     H66893   7.638   7.964   1.070  0.6625 -0.2834  0.5119
  496MOL0     H66894   7.431   8.092   1.070  0.8437 -0.5305 -1.0165
  496MOL0     H66895   7.319   8.240   1.429  1.3824 -0.0774  0.7896
  496MOL0     H66896   7.353   8.408   1.393  0.4371 -1.1195  2.1671
  496MOL0     H66897   7.108   8.390   1.421 -1.1595  0.0281 -0.4273
  496MOL0     H66898   7.144   8.422   1.250  1.3050 -0.0705  0.0714
  496MOL0     H66899   7.131   8.178   1.195 -1.6718 -2.3226 -0.5479
  496MOL0     H66900   7.093   8.155   1.368 -0.7833  0.4383 -0.0948
  496MOL0     H66901   6.887   8.303   1.328  0.3262 -1.2627  0.7013
  496MOL0     H66902   6.925   8.313   1.151 -3.2984 -1.6578 -1.4752
  496MOL0     H66903   6.767   8.137   1.178  0.7804  1.0364  0.2303
  496MOL0     H66904   6.928   8.071   1.145  3.5867  0.4530  1.8831
  496MOL0     H66905   6.913   7.949   1.341  1.7665  0.7826  0.2630
  496MOL0     H66906   6.876   8.078   1.442 -0.9211 -3.4855  2.2955
  496MOL0     H66907   6.634   8.081   1.386  0.5202  1.1155 -0.6581
  496MOL0     H66908   6.651   7.975   1.256 -0.9213  1.4286  0.3773
  496MOL0     H66909   6.721   7.892   1.541  0.9065  1.7537 -0.2956
  496MOL0     H66910   6.715   7.790   1.395  0.9746  1.0426  0.2977
  496MOL0     H66911   6.445   7.761   1.270  1.7528  1.0137 -0.5052
  496MOL0     H66912   6.149   7.889   1.315 -2.6010 -1.2047  0.1900
  496MOL0     H66913   6.209   7.733   1.261 -3.2789 -0.5801 -0.5845
  496MOL0     H66914   6.134   7.638   1.489  1.0163  0.3947  0.3235
  496MOL0     H66915   6.007   7.688   1.374 -0.0815 -1.0194  0.9308
  496MOL0     H66916   5.956   7.899   1.507  1.3599 -1.8732 -2.0536
  496MOL0     H66917   6.080   7.862   1.621  2.4999 -1.1234 -0.5538
  496MOL0     H66918   5.881   7.807   1.727 -1.7488 -0.2047 -0.6270
  496MOL0     H66919   5.965   7.653   1.685 -2.2751 -1.5800 -2.3151
  496MOL0     H66920   5.742   7.692   1.863  0.1718  1.5975 -1.0329
  496MOL0     H66921   5.494   7.739   2.069 -0.7475 -2.7602  5.1725
  496MOL0     H66922   5.482   7.568   2.050 -1.3877  1.1222 -0.5821
  496MOL0     H66923   5.639   7.646   2.050 -0.0931 -1.9494 -1.1774
  496MOL0     H66924   5.008   7.697   1.597 -0.3642 -0.5874 -0.2287
  496MOL0     H66925   4.767   7.701   1.648 -3.3499 -3.4265 -0.9159
  496MOL0     H66926   4.642   7.408   1.941 -0.8840 -0.9276 -0.3173
  496MOL0     H66927   4.613   7.543   2.044 -2.3305 -2.4047  0.7892
  496MOL0     H66928   4.421   7.361   1.967  1.0482  0.5349  2.4843
  496MOL0     H66929   4.376   7.538   1.998 -0.9027  0.4746 -1.0514
  496MOL0     H66930   4.455   7.453   1.719  0.1766 -1.9816  1.9560
  496MOL0     H66931   4.401   7.604   1.775 -3.0093  0.6143  1.3683
  496MOL0     H66932   4.229   7.359   1.777 -0.2931 -0.0195  0.8452
  496MOL0     H66933   4.185   7.509   1.840  0.4717 -0.0683  0.5513
  496MOL0     H66934   4.118   7.478   1.594  0.1954  2.8656 -0.1466
  496MOL0     H66935   4.279   7.433   1.554 -1.6826 -0.1810 -1.1247
  496MOL0     H66936   4.195   7.707   1.647  0.8265 -0.1358  0.6304
  496MOL0     H66937   4.348   7.664   1.560  0.4727 -2.3644 -0.7892
  496MOL0     H66938   4.081   7.617   1.429  1.4901 -2.6249  1.2141
  496MOL0     H66939   4.240   7.602   1.358 -1.0181  0.1334 -0.7083
  496MOL0     H66940   4.153   7.801   1.259  3.4175 -0.2514 -0.0696
  496MOL0     H66941   4.268   7.861   1.386  0.0975  0.2508  0.5831
  496MOL0     H66942   4.827   7.459   2.001  2.1835 -1.8161  0.6181
  496MOL0     H66943   5.064   7.472   1.965 -1.4377 -2.7999  0.4904
  496MOL0     H66944   5.353   7.698   1.572 -1.0307  3.3685  1.2684
  496MOL0     H66945   5.567   7.675   1.469  0.0567  0.8229  0.6396
  496MOL0     H66946   7.581   8.326   1.402  0.9742  0.2775  0.9146
  496MOL0     H66947   7.796   8.211   1.378 -1.4526  0.3184  2.6080
  496MOL0     H66948   7.989   7.812   1.178  0.5837 -4.0337 -0.6532
  496MOL0     H66949   8.199   7.670   1.173  1.1176 -0.4204  0.6354
  496MOL0     H66950   8.412   7.565   1.126  1.9775  1.1849  2.0576
  496MOL0     H66951   8.367   7.654   0.978  0.2135  1.1765 -0.4355
  496MOL0     H66952   8.604   7.665   0.907  0.1537  0.1017  0.0488
  496MOL0     H66953   8.567   7.498   0.951 -0.5027 -1.4278  1.2740
  496MOL0     H66954   8.690   7.714   1.131  0.1577  0.7773 -2.5219
  496MOL0     H66955   8.784   7.584   1.040 -0.1787 -1.4663 -0.7314
  496MOL0     H66956   8.578   7.528   1.260  0.5412 -0.6618  0.1879
  496MOL0     H66957   8.751   7.540   1.280 -1.4516 -2.1711  2.3986
  496MOL0     H66958   8.629   7.176   1.082 -1.3280  1.8457  0.6928
  496MOL0     H66959   8.430   8.023   1.143  0.9456 -2.8576  1.6779
  496MOL0     H66960   8.239   8.160   1.189 -0.2637 -0.3231  2.8781
  497MOL0     O66961   2.338   7.707   6.194  0.4539  0.3699 -0.6552
  497MOL0     C66962   2.376   7.815   6.141  0.8070 -0.2638  0.0452
  497MOL0     O66963   2.299   7.925   6.113 -0.2956 -0.4504 -0.0152
  497MOL0     C66964   2.168   7.927   6.125  0.1762  0.0937 -0.7428
  497MOL0     C66965   2.091   8.020   6.204 -0.4096  0.3162 -0.0716
  497MOL0     C66966   1.953   8.027   6.219 -0.0365 -0.0097  0.0941
  497MOL0     C66967   1.881   7.922   6.160  0.4488 -0.0369  0.8785
  497MOL0     O66968   1.745   7.932   6.187 -0.2675 -0.0710 -0.4940
  497MOL0     C66969   1.673   7.817   6.141  1.0735 -0.2008 -0.5170
  497MOL0     C66970   1.526   7.843   6.166 -0.5427  0.2666  0.6531
  497MOL0     C66971   1.478   7.806   6.309 -0.1943  0.0258  0.1306
  497MOL0     C66972   1.330   7.836   6.311 -1.2033  0.3485  0.2675
  497MOL0     C66973   1.259   7.801   6.430  0.3212 -0.0223 -0.1870
  497MOL0     C66974   1.112   7.835   6.412 -0.7951  0.0348  0.6168
  497MOL0     C66975   1.054   7.790   6.539  0.2170 -0.8567 -0.8040
  497MOL0     C66976   0.900   7.802   6.530  0.3378 -0.0052  0.4646
  497MOL0     N66977   0.838   7.753   6.652 -0.2896 -0.5207  0.8391
  497MOL0     C66978   0.800   7.843   6.749  0.1907  0.2290 -0.2713
  497MOL0     C66979   0.732   7.763   6.839  0.2829 -1.0497 -1.1426
  497MOL0     C66980   0.681   7.819   6.977 -0.7085 -0.1837 -0.0297
  497MOL0     C66981   0.605   7.705   7.054 -0.0143 -0.2301  0.2195
  497MOL0     C66982   0.700   7.599   7.094 -0.5596 -0.3284 -1.0962
  497MOL0     C66983   0.827   7.638   7.174  0.1453  0.0291  0.3987
  497MOL0     O66984   0.915   7.530   7.202  0.2149  0.2084  0.3585
  497MOL0     C66985   1.052   7.562   7.214  0.2660 -0.2115  0.4212
  497MOL0     C66986   1.109   7.636   7.321 -0.5951 -0.2744 -0.9452
  497MOL0     C66987   1.241   7.651   7.328  0.5152 -0.0611 -0.1420
  497MOL0     C66988   1.298   7.703   7.459 -0.4356  0.4612  1.3082
  497MOL0     C66989   1.323   7.611   7.222 -0.8266  0.8008  0.9063
  497MOL0     C66990   1.473   7.612   7.217 -0.1912 -0.4009  0.3658
  497MOL0     O66991   1.540   7.706   7.292  0.4134  0.8771  0.3401
  497MOL0     C66992   1.651   7.655   7.339 -0.2880 -0.1178 -0.5583
  497MOL0     C66993   1.665   7.628   7.483 -0.5628 -0.3085  0.4997
  497MOL0     C66994   1.783   7.574   7.525 -0.6210 -1.0392  0.4993
  497MOL0     C66995   1.901   7.565   7.448  0.3863  0.3070  0.2646
  497MOL0     O66996   2.021   7.518   7.491 -0.5161 -0.0933  0.1123
  497MOL0     C66997   2.072   7.540   7.619 -0.9868  0.4307 -0.6557
  497MOL0     C66998   2.130   7.402   7.676 -0.1246 -0.2733  0.0352
  497MOL0     C66999   2.274   7.378   7.623 -0.2287  1.1169 -0.1647
  497MOL0     C67000   2.354   7.265   7.710 -0.5652  0.1664  0.8266
  497MOL0     C67001   2.509   7.259   7.689 -0.4278 -0.3839 -0.5412
  497MOL0     C67002   2.568   7.138   7.757  0.4404  0.2643  0.4399
  497MOL0     C67003   2.554   7.010   7.675  0.4869 -0.2559  0.1758
  497MOL0     C67004   2.597   6.885   7.747  0.1713 -0.3837 -0.5836
  497MOL0    Cl67005   2.571   6.744   7.634 -0.3237 -0.1018 -0.2618
  497MOL0     C67006   1.887   7.587   7.316  0.2787 -0.0463 -0.1522
  497MOL0     C67007   1.764   7.636   7.256 -0.1325 -0.3467  0.2911
  497MOL0     O67008   1.528   7.521   7.148  0.5424  0.4535 -0.0161
  497MOL0     C67009   1.269   7.550   7.109  0.4292 -0.2153  0.5574
  497MOL0     C67010   1.131   7.528   7.103  0.0685 -0.1836  0.5869
  497MOL0     N67011   0.733   7.636   6.789 -0.1876  0.1327 -0.8333
  497MOL0     N67012   0.790   7.629   6.674  0.1901  0.3921 -0.5653
  497MOL0     C67013   1.948   7.819   6.085 -0.3121 -0.2969 -0.9170
  497MOL0     C67014   2.089   7.823   6.073 -0.7891  0.1546  0.0553
  497MOL0     C67015   2.516   7.831   6.118 -0.1966  0.2393 -0.2847
  497MOL0     C67016   2.598   7.715   6.100  0.5138 -0.2157  0.5926
  497MOL0     C67017   2.732   7.733   6.073  0.2961  0.1583 -0.4523
  497MOL0     C67018   2.799   7.853   6.081  0.3663 -0.5813  0.2098
  497MOL0     O67019   2.933   7.856   6.060  0.1182  0.7408  0.5170
  497MOL0     C67020   3.011   7.974   6.098 -0.0277  0.2676  0.1960
  497MOL0     C67021   3.030   7.963   6.254 -0.4508 -0.4225 -0.4992
  497MOL0     C67022   3.112   7.834   6.306  0.5499 -0.1615 -0.4422
  497MOL0     C67023   3.105   7.822   6.461  0.3595  0.1529  0.3255
  497MOL0     C67024   3.162   7.947   6.523  0.6401  0.4709 -0.3161
  497MOL0     C67025   3.221   8.041   6.568 -0.1349 -0.0141 -0.7380
  497MOL0     C67026   2.719   7.963   6.102 -0.2299  0.8959 -0.4092
  497MOL0     C67027   2.586   7.949   6.126 -0.1943  0.0987  0.1543
  497MOL0     H67028   2.141   8.100   6.258  1.2643 -0.4268 -0.4411
  497MOL0     H67029   1.904   8.112   6.263  1.7231  2.7694 -2.8208
  497MOL0     H67030   1.693   7.802   6.034 -0.8854 -0.6173 -0.8485
  497MOL0     H67031   1.698   7.734   6.208 -1.8479 -0.7015  0.0630
  497MOL0     H67032   1.495   7.947   6.148 -0.2629  0.1932 -0.3529
  497MOL0     H67033   1.475   7.773   6.099 -2.0833 -0.0998  2.1321
  497MOL0     H67034   1.489   7.700   6.331 -5.3571 -0.7855  0.0430
  497MOL0     H67035   1.537   7.867   6.378  0.4877  0.6582 -0.9795
  497MOL0     H67036   1.307   7.939   6.281 -1.7340  0.7795  2.0382
  497MOL0     H67037   1.288   7.771   6.233 -2.1053 -0.0360  1.0610
  497MOL0     H67038   1.270   7.693   6.443  0.6740  0.0123 -0.1912
  497MOL0     H67039   1.300   7.854   6.516  0.8866 -1.9209  0.7635
  497MOL0     H67040   1.099   7.941   6.391  1.7454  0.9560  3.0501
  497MOL0     H67041   1.065   7.782   6.329  2.2521  0.5785 -1.6100
  497MOL0     H67042   1.082   7.685   6.549 -1.3820 -1.2641 -0.3774
  497MOL0     H67043   1.083   7.856   6.622 -1.8103  0.3433 -0.9918
  497MOL0     H67044   0.871   7.748   6.439 -2.1755  2.2973 -0.2546
  497MOL0     H67045   0.872   7.906   6.514  1.1451  0.0427 -0.8043
  497MOL0     H67046   0.842   7.942   6.755  3.2302 -0.8489 -1.5856
  497MOL0     H67047   0.758   7.866   7.039 -3.0609  1.4827  1.8174
  497MOL0     H67048   0.609   7.898   6.956  1.5376  1.0344 -3.9921
  497MOL0     H67049   0.539   7.659   6.979  0.1207  2.9001 -1.9876
  497MOL0     H67050   0.547   7.751   7.134 -1.1876 -0.5036 -0.4457
  497MOL0     H67051   0.729   7.541   7.006 -0.5135  1.5099 -2.3341
  497MOL0     H67052   0.650   7.532   7.166  1.2313  0.4573  1.0188
  497MOL0     H67053   0.782   7.685   7.263 -1.2070 -1.7931  0.7362
  497MOL0     H67054   0.885   7.722   7.134  1.7425  1.5754  5.1750
  497MOL0     H67055   1.041   7.664   7.401  2.1719  2.7268  0.5431
  497MOL0     H67056   1.228   7.724   7.540 -0.8543  1.5081  0.6832
  497MOL0     H67057   1.366   7.630   7.505 -1.2863 -1.7950 -0.7587
  497MOL0     H67058   1.354   7.794   7.435 -1.5665  0.7180 -0.5296
  497MOL0     H67059   1.574   7.636   7.542 -0.2227 -1.8104  1.2642
  497MOL0     H67060   1.779   7.548   7.631 -2.5544 -0.7219  0.5452
  497MOL0     H67061   2.150   7.616   7.614  0.3126 -0.9398 -2.7966
  497MOL0     H67062   1.998   7.571   7.693 -1.2949 -2.6055  0.4622
  497MOL0     H67063   2.132   7.425   7.783 -1.4531 -2.0979  0.5010
  497MOL0     H67064   2.071   7.311   7.661  0.9757 -1.0571  0.3566
  497MOL0     H67065   2.330   7.471   7.633 -0.0303  0.7612  3.4207
  497MOL0     H67066   2.268   7.333   7.524  1.0744 -3.0896  1.4528
  497MOL0     H67067   2.340   7.300   7.813 -0.2209  4.6368 -0.4191
  497MOL0     H67068   2.318   7.162   7.707  1.7287 -0.6977  1.0715
  497MOL0     H67069   2.551   7.348   7.735  3.1984 -3.0625  1.9024
  497MOL0     H67070   2.541   7.261   7.584  1.0855  0.8612 -0.0803
  497MOL0     H67071   2.677   7.149   7.761  0.5082  0.2496 -1.0962
  497MOL0     H67072   2.532   7.118   7.859  0.2853 -1.4605  0.0801
  497MOL0     H67073   2.610   7.031   7.584 -2.5798  2.3386 -1.3113
  497MOL0     H67074   2.449   7.000   7.645  0.4242 -0.3317  0.4191
  497MOL0     H67075   2.537   6.868   7.837 -1.1935 -1.0152 -1.5852
  497MOL0     H67076   2.704   6.893   7.771  0.7092  0.2151 -2.9244
  497MOL0     H67077   1.969   7.562   7.250  0.2588  0.0661 -0.2192
  497MOL0     H67078   1.756   7.647   7.148 -1.7973 -3.6864 -0.0453
  497MOL0     H67079   1.329   7.528   7.021 -0.8333  0.2805 -0.4558
  497MOL0     H67080   1.085   7.479   7.018 -0.7588  1.1711  0.2280
  497MOL0     H67081   1.890   7.738   6.042  0.9652  0.2273 -3.8352
  497MOL0     H67082   2.132   7.748   6.007  0.7831  2.6173 -1.8777
  497MOL0     H67083   2.548   7.618   6.099  0.1339 -0.0194  0.0519
  497MOL0     H67084   2.791   7.649   6.040 -0.7690 -2.4136  3.5031
  497MOL0     H67085   3.112   7.963   6.058 -1.0188 -2.5792 -1.8460
  497MOL0     H67086   2.964   8.064   6.059 -1.0702 -0.0994  0.5791
  497MOL0     H67087   2.927   7.950   6.289 -2.0594 -1.9509 -5.0107
  497MOL0     H67088   3.072   8.056   6.293  1.4633 -1.7493  0.7962
  497MOL0     H67089   3.218   7.840   6.282  0.4276 -0.8137 -1.1752
  497MOL0     H67090   3.076   7.741   6.262 -1.5376 -1.1383  2.9422
  497MOL0     H67091   3.179   7.745   6.486  0.8900  0.0406 -1.4901
  497MOL0     H67092   3.008   7.790   6.502  2.1107 -2.0290  3.1939
  497MOL0     H67093   3.264   8.136   6.594 -0.6632 -0.1707  0.8446
  497MOL0     H67094   2.759   8.064   6.100  2.2902 -0.0103  0.2618
  497MOL0     H67095   2.538   8.041   6.159  1.7419  1.8391 -1.5644
  498MOL0     O67096   1.551   0.496   0.916 -0.0073  0.3299  0.1841
  498MOL0     C67097   1.495   0.604   0.934  0.8124 -0.3868 -0.5100
  498MOL0     O67098   1.362   0.626   0.963 -0.1330  0.6268 -0.1306
  498MOL0     C67099   1.264   0.556   0.905 -0.6924  0.2334 -0.3655
  498MOL0     C67100   1.148   0.553   0.979 -0.2493 -0.2602  0.2893
  498MOL0     C67101   1.041   0.475   0.947  0.8198 -0.7740  0.6778
  498MOL0     C67102   1.030   0.428   0.815 -0.0088 -0.2239 -0.8902
  498MOL0     O67103   0.917   0.366   0.770  0.6887  0.6416  0.1041
  498MOL0     C67104   0.798   0.449   0.736  0.4352  0.2346  0.0376
  498MOL0     C67105   0.785   0.451   0.583  0.7521  0.3631 -0.3243
  498MOL0     C67106   0.637   0.463   0.539  0.0402 -0.2637 -0.4388
  498MOL0     C67107   0.621   0.441   0.391  0.2727  0.3554  0.7715
  498MOL0     C67108   0.481   0.478   0.348  0.4839 -0.4260  0.8283
  498MOL0     C67109   0.465   0.443   0.197 -0.3550  0.1928  0.3435
  498MOL0     C67110   0.325   0.484   0.147  0.8226 -0.1089 -0.6346
  498MOL0     C67111   0.211   0.390   0.207  1.1511 -0.0344  0.9789
  498MOL0     N67112   0.072   0.428   0.179  0.1501 -0.5728 -0.1104
  498MOL0     C67113  -0.035   0.387   0.243  0.5254 -0.4388  0.8449
  498MOL0     C67114  -0.140   0.436   0.168  1.3153 -0.7098 -0.0071
  498MOL0     C67115  -0.286   0.392   0.184 -0.6392  0.1300  0.5942
  498MOL0     C67116  -0.387   0.507   0.197  0.0256  0.2757  0.2586
  498MOL0     C67117  -0.519   0.447   0.245  0.3590 -0.5148  0.2427
  498MOL0     C67118  -0.629   0.553   0.264  0.3193  0.6014  0.0624
  498MOL0     O67119  -0.750   0.508   0.315  0.4864  0.1357 -0.0307
  498MOL0     C67120  -0.854   0.595   0.333 -0.3735  0.3123  0.4746
  498MOL0     C67121  -0.977   0.542   0.370 -0.6836 -0.3502  0.8098
  498MOL0     C67122  -1.086   0.618   0.392 -0.2380  0.1799  0.9693
  498MOL0     C67123  -1.204   0.548   0.456 -0.1291  0.1970 -0.5807
  498MOL0     C67124  -1.086   0.756   0.356  0.7457 -1.1340  0.1114
  498MOL0     C67125  -1.211   0.836   0.374 -1.1371  0.1821  0.8343
  498MOL0     O67126  -1.268   0.882   0.255 -0.0951  0.1882 -0.1335
  498MOL0     C67127  -1.379   0.952   0.265 -0.0176 -0.7240  0.1852
  498MOL0     C67128  -1.507   0.897   0.265  0.3448 -0.3205 -0.1787
  498MOL0     C67129  -1.619   0.976   0.290  0.6397 -0.5077  0.2836
  498MOL0     C67130  -1.608   1.118   0.293 -0.3720  0.1751 -0.4834
  498MOL0     O67131  -1.707   1.212   0.293  0.4585 -0.4241  0.4617
  498MOL0     C67132  -1.784   1.211   0.411 -0.4845  0.3793  0.1757
  498MOL0     C67133  -1.930   1.240   0.377  0.6411  0.0902 -0.3923
  498MOL0     C67134  -2.002   1.136   0.295  0.7264  0.5444 -0.3018
  498MOL0     C67135  -2.136   1.179   0.256 -0.1261  0.0034 -0.3303
  498MOL0     C67136  -2.191   1.104   0.133  1.2290 -0.5310 -0.4962
  498MOL0     C67137  -2.344   1.131   0.109 -0.7537  0.3130  0.0639
  498MOL0     C67138  -2.426   1.084   0.221 -0.5910  0.2487 -0.3387
  498MOL0     C67139  -2.568   1.063   0.181 -0.3801 -0.2596  0.1101
  498MOL0    Cl67140  -2.666   1.206   0.150 -0.1338 -0.2337  0.5152
  498MOL0     C67141  -1.482   1.174   0.283 -0.4760  0.1875  0.1180
  498MOL0     C67142  -1.366   1.091   0.276  0.6646 -0.1125 -0.1678
  498MOL0     O67143  -1.261   0.844   0.486 -0.2096  0.0793 -0.0785
  498MOL0     C67144  -0.969   0.814   0.311 -0.3895 -0.0376 -0.3318
  498MOL0     C67145  -0.850   0.736   0.302  1.2504  0.8604 -0.3490
  498MOL0     N67146  -0.086   0.521   0.079  0.2347 -0.4514  0.4201
  498MOL0     N67147   0.036   0.514   0.085 -0.5548  0.0242 -1.0666
  498MOL0     C67148   1.152   0.432   0.732  0.3211 -0.7611 -0.3582
  498MOL0     C67149   1.271   0.495   0.777  0.2413  0.7143  0.3687
  498MOL0     C67150   1.574   0.731   0.940  0.3666  0.0566 -1.0828
  498MOL0     C67151   1.711   0.718   0.943 -0.4425 -0.1997  0.0817
  498MOL0     C67152   1.796   0.824   0.979 -0.3402 -0.1959 -0.6836
  498MOL0     C67153   1.745   0.958   0.996  0.2333 -0.1072 -0.5864
  498MOL0     O67154   1.826   1.060   1.024  0.1009 -0.7788 -0.2277
  498MOL0     C67155   1.903   1.035   1.145 -0.1767  0.6383  0.4886
  498MOL0     C67156   2.028   1.107   1.102 -0.0450  0.2056  0.1274
  498MOL0     C67157   2.006   1.257   1.118  0.1715 -0.3021  0.2011
  498MOL0     C67158   2.139   1.337   1.078  0.9819 -0.3525 -0.0036
  498MOL0     C67159   2.227   1.334   1.199 -0.2265 -0.7726  0.3576
  498MOL0     C67160   2.311   1.328   1.288 -0.1625 -0.1028 -0.4738
  498MOL0     C67161   1.611   0.969   0.991  0.4731 -0.2794 -0.3302
  498MOL0     C67162   1.519   0.859   0.966 -0.0918 -1.0391  0.2035
  498MOL0     H67163   1.149   0.604   1.074  1.0334 -0.0331  0.1766
  498MOL0     H67164   0.953   0.466   1.009 -0.1745  0.9629 -0.4092
  498MOL0     H67165   0.711   0.406   0.786 -0.3446  3.2552  1.5807
  498MOL0     H67166   0.803   0.551   0.777  0.4430  0.6501 -0.9737
  498MOL0     H67167   0.839   0.540   0.549 -0.1338  1.7146  1.6170
  498MOL0     H67168   0.830   0.358   0.548  3.0584  0.9202  0.9498
  498MOL0     H67169   0.574   0.408   0.609 -3.2415  1.8528 -1.5093
  498MOL0     H67170   0.609   0.567   0.562  2.4884 -0.0384  2.2058
  498MOL0     H67171   0.695   0.495   0.331 -2.4870  0.9940 -2.3508
  498MOL0     H67172   0.648   0.337   0.372  3.9780  1.2289  0.3911
  498MOL0     H67173   0.407   0.424   0.408  1.2292 -0.9358  1.3159
  498MOL0     H67174   0.466   0.584   0.367 -2.6566 -0.6360  0.0173
  498MOL0     H67175   0.534   0.495   0.129 -2.8991 -0.4162 -2.9805
  498MOL0     H67176   0.470   0.335   0.184 -2.9861  0.1146 -0.4107
  498MOL0     H67177   0.305   0.590   0.165  0.8058 -0.5583  2.5366
  498MOL0     H67178   0.331   0.462   0.040  2.2126 -1.2626 -0.3431
  498MOL0     H67179   0.211   0.402   0.316  0.9579  1.9695  0.7931
  498MOL0     H67180   0.211   0.283   0.183 -2.7775  0.2013 -0.9730
  498MOL0     H67181  -0.033   0.326   0.333 -2.9593 -0.6087  0.9192
  498MOL0     H67182  -0.316   0.336   0.095  1.5667 -0.1421 -0.0521
  498MOL0     H67183  -0.294   0.321   0.267 -0.3579  0.5600  0.9932
  498MOL0     H67184  -0.398   0.553   0.099 -0.4292  0.1630  0.2532
  498MOL0     H67185  -0.358   0.574   0.278 -2.3628  1.6697  0.0465
  498MOL0     H67186  -0.505   0.389   0.336 -0.1418 -1.7076 -0.4080
  498MOL0     H67187  -0.559   0.378   0.169 -0.7898 -0.4850  0.7996
  498MOL0     H67188  -0.633   0.599   0.165  1.1353 -0.3713 -0.4479
  498MOL0     H67189  -0.595   0.622   0.342 -1.1709  0.5707  0.7831
  498MOL0     H67190  -0.979   0.436   0.389 -1.4595  0.1166  3.8500
  498MOL0     H67191  -1.204   0.547   0.565 -3.1112 -1.0068 -0.4972
  498MOL0     H67192  -1.299   0.596   0.432 -0.4087 -0.2862 -0.4512
  498MOL0     H67193  -1.211   0.447   0.416  2.0291 -0.2710  0.1103
  498MOL0     H67194  -1.510   0.789   0.253 -1.0076 -0.6741  2.5151
  498MOL0     H67195  -1.714   0.929   0.312 -0.9079  0.8691 -2.7980
  498MOL0     H67196  -1.779   1.107   0.443 -0.6317  0.0138 -0.9305
  498MOL0     H67197  -1.753   1.292   0.478 -2.2822  1.0139  0.3082
  498MOL0     H67198  -1.970   1.240   0.479  1.8734 -2.8618  0.2064
  498MOL0     H67199  -1.952   1.332   0.322 -1.5127  0.3643  0.8196
  498MOL0     H67200  -2.007   1.040   0.349  1.9718  1.3982  1.4552
  498MOL0     H67201  -1.942   1.114   0.206  0.7019  2.4787 -0.8317
  498MOL0     H67202  -2.208   1.172   0.339  0.0483  3.1797  0.2172
  498MOL0     H67203  -2.134   1.288   0.245  0.6385  0.1756  1.2476
  498MOL0     H67204  -2.169   0.997   0.137 -0.4367 -1.0549 -3.0331
  498MOL0     H67205  -2.134   1.139   0.046 -0.9363 -0.3728 -1.9299
  498MOL0     H67206  -2.368   1.237   0.099 -1.5513  0.3125  1.7744
  498MOL0     H67207  -2.374   1.076   0.020  1.4913 -2.2132  0.7265
  498MOL0     H67208  -2.429   1.165   0.294  0.8201  1.6566 -1.7409
  498MOL0     H67209  -2.380   1.001   0.274  2.3248  1.2920 -1.0515
  498MOL0     H67210  -2.622   1.004   0.256 -0.7264 -0.4363 -0.2757
  498MOL0     H67211  -2.559   1.009   0.086  1.2413  1.8701 -1.0467
  498MOL0     H67212  -1.477   1.282   0.293  0.4925  0.1306  0.3378
  498MOL0     H67213  -1.268   1.126   0.305  0.0919  0.8623  0.6553
  498MOL0     H67214  -0.945   0.918   0.289 -0.6635  0.4079  1.3392
  498MOL0     H67215  -0.759   0.789   0.276  1.2546  0.0210 -2.1957
  498MOL0     H67216   1.155   0.380   0.637 -0.2247  0.1959 -0.9007
  498MOL0     H67217   1.370   0.487   0.733  0.1563 -3.3796  0.5528
  498MOL0     H67218   1.752   0.623   0.911 -3.4550 -1.5535 -0.1076
  498MOL0     H67219   1.904   0.815   0.982 -0.3611 -0.4414 -0.6734
  498MOL0     H67220   1.851   1.087   1.226  0.6292  2.0580  0.1357
  498MOL0     H67221   1.920   0.930   1.170 -1.5495  0.3569  0.3243
  498MOL0     H67222   2.064   1.072   1.005  0.8108  0.1303  0.4664
  498MOL0     H67223   2.107   1.083   1.174 -1.1292  1.3112  1.7488
  498MOL0     H67224   1.985   1.277   1.223  1.7714  0.2555  0.4493
  498MOL0     H67225   1.932   1.290   1.045  0.5058  3.0571  1.2128
  498MOL0     H67226   2.120   1.440   1.049  0.4445 -0.5138 -0.2284
  498MOL0     H67227   2.193   1.277   1.004  1.3105 -0.8845  0.6485
  498MOL0     H67228   2.382   1.324   1.368  0.5216 -1.0783 -1.1139
  498MOL0     H67229   1.566   1.062   1.022  0.1951 -0.4982 -0.0622
  498MOL0     H67230   1.412   0.874   0.964  0.1270  0.6667 -2.3721
  499MOL0     O67231   6.508   1.132   3.008  0.2158 -0.2679 -0.0307
  499MOL0     C67232   6.494   1.096   3.127  0.9698  0.7233 -0.1180
  499MOL0     O67233   6.369   1.076   3.189  0.1849 -0.2068  0.0637
  499MOL0     C67234   6.257   1.084   3.117  0.4061 -0.4947  0.8999
  499MOL0     C67235   6.216   1.192   3.041 -0.8679 -0.4607  1.0331
  499MOL0     C67236   6.091   1.197   2.981 -0.3699  0.4146 -0.0809
  499MOL0     C67237   6.001   1.087   3.008 -0.0896  0.4695 -0.4178
  499MOL0     O67238   5.883   1.070   2.947 -0.7656  0.8927  0.3454
  499MOL0     C67239   5.822   1.190   2.896  0.2032  0.2128  0.1722
  499MOL0     C67240   5.666   1.163   2.880  0.1486 -0.3862 -0.0516
  499MOL0     C67241   5.610   1.210   2.739 -0.7618  0.1031 -0.1249
  499MOL0     C67242   5.459   1.203   2.738  0.7608 -1.3804 -0.2148
  499MOL0     C67243   5.402   1.263   2.603  0.0807 -0.5133 -0.4712
  499MOL0     C67244   5.247   1.246   2.598 -0.2621 -0.1949 -0.2894
  499MOL0     C67245   5.181   1.293   2.465  0.0197  0.8216 -0.6772
  499MOL0     C67246   5.142   1.440   2.472 -0.1311 -0.3030  0.1560
  499MOL0     N67247   5.052   1.488   2.370  0.0085  0.2851  0.1726
  499MOL0     C67248   4.932   1.548   2.416  0.0540 -0.6948 -0.4228
  499MOL0     C67249   4.902   1.626   2.311  0.1404  0.2531 -0.6194
  499MOL0     C67250   4.776   1.710   2.310 -0.4829  0.4836  0.0264
  499MOL0     C67251   4.655   1.633   2.283  0.1250 -0.3666 -0.1668
  499MOL0     C67252   4.670   1.565   2.145  0.0230 -0.1400 -0.3917
  499MOL0     C67253   4.553   1.476   2.132 -0.2206 -1.0448  0.3702
  499MOL0     O67254   4.438   1.549   2.096  0.2504 -0.0153 -0.0132
  499MOL0     C67255   4.312   1.488   2.107 -1.2053  0.5073 -0.4564
  499MOL0     C67256   4.285   1.383   2.195  1.0159  0.1820 -0.0059
  499MOL0     C67257   4.154   1.338   2.214 -0.4181  0.2668 -0.5595
  499MOL0     C67258   4.141   1.228   2.323  0.2804  0.2911  0.3483
  499MOL0     C67259   4.045   1.377   2.138 -0.0442 -0.1789  0.7156
  499MOL0     C67260   3.909   1.326   2.147 -0.4009 -0.5338  0.0640
  499MOL0     O67261   3.820   1.408   2.096  0.4368 -0.9522 -0.0152
  499MOL0     C67262   3.686   1.373   2.111  0.0889  0.6326  0.5770
  499MOL0     C67263   3.619   1.359   2.237 -1.0298  0.3086 -0.8891
  499MOL0     C67264   3.486   1.330   2.246  0.5620  0.0962 -0.6092
  499MOL0     C67265   3.404   1.304   2.139  0.0791  0.5801  0.6230
  499MOL0     O67266   3.270   1.276   2.148  0.7958 -0.1285 -0.4731
  499MOL0     C67267   3.220   1.227   2.274 -0.5149 -0.1705  0.5531
  499MOL0     C67268   3.106   1.133   2.263  0.2087 -0.3978 -0.4236
  499MOL0     C67269   2.988   1.189   2.172 -0.2043 -0.4165 -0.2715
  499MOL0     C67270   2.866   1.091   2.180 -1.0205 -0.3155 -0.4614
  499MOL0     C67271   2.767   1.124   2.073  0.9122 -0.2418 -0.0113
  499MOL0     C67272   2.624   1.076   2.120  0.4763  0.3123 -1.0350
  499MOL0     C67273   2.591   0.929   2.081 -0.9777  0.5219  0.3793
  499MOL0     C67274   2.445   0.902   2.071  0.1923 -0.1615  0.1327
  499MOL0    Cl67275   2.381   1.009   1.944  0.0722 -0.1683 -0.1746
  499MOL0     C67276   3.472   1.309   2.012  0.0598  0.2364 -0.6018
  499MOL0     C67277   3.609   1.344   1.998 -1.0370 -0.0882  0.7695
  499MOL0     O67278   3.882   1.219   2.198  0.1441 -0.9072 -0.6053
  499MOL0     C67279   4.074   1.480   2.050  0.4531 -0.1387  0.2104
  499MOL0     C67280   4.205   1.532   2.032 -0.9487  1.0741  1.3207
  499MOL0     N67281   4.998   1.622   2.208 -0.2076 -0.1938  0.3364
  499MOL0     N67282   5.089   1.532   2.247  0.5204  0.4949 -0.3658
  499MOL0     C67283   6.054   0.972   3.068 -0.4050  0.0734  0.5858
  499MOL0     C67284   6.182   0.966   3.124  0.3685  0.4414 -0.3269
  499MOL0     C67285   6.611   1.037   3.200 -0.1522 -0.1799 -1.0611
  499MOL0     C67286   6.612   0.991   3.332 -0.0672 -0.2573 -0.0823
  499MOL0     C67287   6.729   0.932   3.390 -0.1725 -0.1513 -0.0024
  499MOL0     C67288   6.844   0.927   3.312  0.7909 -0.1468  0.0665
  499MOL0     O67289   6.935   0.840   3.361 -0.7410 -0.4205 -0.0639
  499MOL0     C67290   7.072   0.837   3.315 -0.5799  0.3132  0.3294
  499MOL0     C67291   7.170   0.816   3.430 -0.1928 -0.4059  0.1457
  499MOL0     C67292   7.137   0.922   3.535  0.0079  0.2866  0.1460
  499MOL0     C67293   7.254   0.936   3.639 -0.2935 -0.0917  0.5951
  499MOL0     C67294   7.302   0.799   3.687 -0.7686  0.9095  0.3373
  499MOL0     C67295   7.340   0.695   3.740  0.3027 -0.1596  0.1247
  499MOL0     C67296   6.840   0.977   3.183  0.1149 -0.6101  0.2884
  499MOL0     C67297   6.724   1.020   3.122  0.1432  0.4915  0.1532
  499MOL0     H67298   6.298   1.261   3.025 -1.5549 -0.0009 -0.7343
  499MOL0     H67299   6.071   1.285   2.921  0.1325  0.7297  0.2062
  499MOL0     H67300   5.845   1.265   2.972 -0.7806  0.6835  0.0247
  499MOL0     H67301   5.868   1.225   2.803  0.8977  0.7254  0.7086
  499MOL0     H67302   5.651   1.055   2.889 -3.9635  0.0642  0.3527
  499MOL0     H67303   5.608   1.213   2.958 -0.0437 -0.8128  0.0829
  499MOL0     H67304   5.637   1.315   2.725  1.4786 -0.2237  1.1857
  499MOL0     H67305   5.641   1.147   2.655 -1.3788  0.3372 -0.5394
  499MOL0     H67306   5.422   1.100   2.746 -1.6228 -0.7571 -1.9949
  499MOL0     H67307   5.419   1.262   2.822 -0.8303 -0.6869 -1.4113
  499MOL0     H67308   5.435   1.367   2.609 -1.1191 -0.1784  1.2898
  499MOL0     H67309   5.457   1.224   2.517  2.9157  2.3201 -0.1351
  499MOL0     H67310   5.234   1.138   2.606  1.2588 -0.4603 -1.1095
  499MOL0     H67311   5.201   1.292   2.686 -1.2933 -0.5268 -0.6400
  499MOL0     H67312   5.256   1.268   2.390  2.3172  4.0447  0.3026
  499MOL0     H67313   5.084   1.245   2.451 -0.3219  0.8405  1.3399
  499MOL0     H67314   5.238   1.491   2.461  0.4894 -1.1406  1.4256
  499MOL0     H67315   5.112   1.464   2.574  1.7746 -1.4902  1.0527
  499MOL0     H67316   4.893   1.550   2.517 -0.8605 -0.1020 -0.7786
  499MOL0     H67317   4.781   1.764   2.405  0.4116 -1.0056  0.8711
  499MOL0     H67318   4.781   1.786   2.231  1.6078 -1.0782 -1.4322
  499MOL0     H67319   4.571   1.703   2.280 -0.0113 -0.5620 -1.8391
  499MOL0     H67320   4.630   1.560   2.361  1.3695 -2.1123 -1.3197
  499MOL0     H67321   4.769   1.519   2.142  0.3509  0.4428  0.9096
  499MOL0     H67322   4.673   1.635   2.060 -1.6354 -2.6769 -2.7097
  499MOL0     H67323   4.554   1.421   2.226 -0.0566 -0.4430  0.7284
  499MOL0     H67324   4.579   1.409   2.050  2.1988  0.1991  0.0145
  499MOL0     H67325   4.364   1.344   2.258 -0.8363 -2.2792  0.9657
  499MOL0     H67326   4.228   1.232   2.389  0.8442  0.4501 -0.3888
  499MOL0     H67327   4.059   1.246   2.393  1.3041  2.1246  1.1435
  499MOL0     H67328   4.131   1.126   2.283 -1.4486 -0.7618  3.1273
  499MOL0     H67329   3.684   1.365   2.324 -1.5802  1.6475 -0.5548
  499MOL0     H67330   3.445   1.330   2.347 -1.5776 -4.4479 -1.2146
  499MOL0     H67331   3.290   1.187   2.348 -1.6458 -0.6661  1.3817
  499MOL0     H67332   3.185   1.319   2.321  0.6266  1.1779 -1.0922
  499MOL0     H67333   3.137   1.038   2.219  0.9987 -0.0710 -0.5840
  499MOL0     H67334   3.080   1.110   2.367 -1.6495 -2.4177 -1.2596
  499MOL0     H67335   3.032   1.184   2.072  2.5266 -3.1934  0.8822
  499MOL0     H67336   2.959   1.290   2.200 -1.9865  0.1226 -3.6097
  499MOL0     H67337   2.897   0.986   2.170 -0.1295 -0.0012 -1.0923
  499MOL0     H67338   2.828   1.120   2.279  0.3281  1.1610 -0.3331
  499MOL0     H67339   2.803   1.072   1.983  1.4708 -0.8352  0.5429
  499MOL0     H67340   2.769   1.231   2.051 -0.4856 -0.1855  0.0695
  499MOL0     H67341   2.617   1.077   2.229 -1.6985 -1.0293 -1.1095
  499MOL0     H67342   2.548   1.149   2.089 -0.2843  0.3556  0.7864
  499MOL0     H67343   2.640   0.861   2.150 -0.9102  0.6367  0.4446
  499MOL0     H67344   2.620   0.906   1.978  0.3267  2.3158  0.3088
  499MOL0     H67345   2.399   0.909   2.170  2.7738  0.8769  1.3553
  499MOL0     H67346   2.428   0.798   2.042  1.0777 -0.2285 -0.1792
  499MOL0     H67347   3.422   1.291   1.917  1.4434 -0.6668 -1.1940
  499MOL0     H67348   3.650   1.341   1.898 -1.6393 -2.5685  0.5365
  499MOL0     H67349   3.999   1.519   1.983  1.9636  0.6252 -1.1211
  499MOL0     H67350   4.219   1.606   1.953  0.0130 -0.2959  0.1685
  499MOL0     H67351   5.978   0.894   3.069 -1.7864  1.3527  0.4432
  499MOL0     H67352   6.227   0.884   3.178  2.5429  2.4836  1.1681
  499MOL0     H67353   6.520   1.004   3.389  0.5183 -1.6926  1.2571
  499MOL0     H67354   6.730   0.886   3.488  0.9062 -2.4817 -1.0157
  499MOL0     H67355   7.070   0.748   3.251 -0.3829  0.0290  0.7139
  499MOL0     H67356   7.096   0.930   3.262  0.0940 -0.2615 -0.4140
  499MOL0     H67357   7.273   0.829   3.396  0.6799  0.5168  2.8924
  499MOL0     H67358   7.156   0.711   3.456  3.1411 -0.7357  1.1088
  499MOL0     H67359   7.048   0.884   3.585 -0.2925 -0.6300 -1.0185
  499MOL0     H67360   7.116   1.025   3.505 -1.8606  0.6079  2.2837
  499MOL0     H67361   7.217   0.999   3.720  2.1536  2.6801 -0.2772
  499MOL0     H67362   7.342   0.981   3.593 -3.0348  2.8824 -2.2051
  499MOL0     H67363   7.374   0.608   3.793  0.3292  0.4263  1.0892
  499MOL0     H67364   6.925   0.969   3.117 -0.4573 -1.0827 -0.4089
  499MOL0     H67365   6.721   1.051   3.018 -4.0779 -0.3000 -0.1342
  500MOL0     O67366   1.532   8.404   5.302  0.1228 -0.4902  0.1974
  500MOL0     C67367   1.483   8.330   5.393 -0.1582  0.2146 -0.4135
  500MOL0     O67368   1.527   8.202   5.425  0.6837 -0.1850  0.1125
  500MOL0     C67369   1.641   8.157   5.371  0.5184  0.3574  0.2607
  500MOL0     C67370   1.734   8.104   5.457 -0.9546 -0.2473  0.7633
  500MOL0     C67371   1.858   8.055   5.404 -0.5249  0.6242 -0.3906
  500MOL0     C67372   1.877   8.044   5.264  0.1851  0.0499 -0.1644
  500MOL0     O67373   1.990   7.996   5.201  0.0067 -0.3937  0.1780
  500MOL0     C67374   2.106   8.012   5.279 -0.3435 -0.3043  0.5561
  500MOL0     C67375   2.223   8.023   5.174  0.1683  0.2694 -0.8970
  500MOL0     C67376   2.352   8.026   5.253  0.4452 -0.1265 -1.0333
  500MOL0     C67377   2.473   8.062   5.161 -0.1289  0.5707  0.1059
  500MOL0     C67378   2.592   8.113   5.244  0.1358  0.5134  0.2036
  500MOL0     C67379   2.707   8.112   5.143 -0.3840 -0.4066 -1.0058
  500MOL0     C67380   2.825   8.180   5.220 -0.0770 -0.0513 -0.2041
  500MOL0     C67381   2.955   8.106   5.179 -0.5734 -0.5010 -0.4023
  500MOL0     N67382   3.078   8.178   5.234  0.0294  0.4869  0.6956
  500MOL0     C67383   3.198   8.173   5.174  0.6439 -0.0597  0.9598
  500MOL0     C67384   3.287   8.227   5.254 -0.5641  0.2099 -0.5264
  500MOL0     C67385   3.429   8.277   5.235 -0.4459  1.0331 -1.3145
  500MOL0     C67386   3.511   8.216   5.352 -0.2848 -0.3394 -0.8711
  500MOL0     C67387   3.652   8.264   5.335  0.3194 -0.7743  0.1922
  500MOL0     C67388   3.749   8.213   5.443  0.0875 -0.0164  0.6422
  500MOL0     O67389   3.719   8.269   5.573  0.3420  0.2105 -0.2464
  500MOL0     C67390   3.680   8.180   5.676 -1.0464  0.2576  0.3764
  500MOL0     C67391   3.571   8.199   5.749  0.9016 -0.4058 -0.5394
  500MOL0     C67392   3.528   8.106   5.844  0.7122  0.3613 -1.0625
  500MOL0     C67393   3.380   8.134   5.889  0.0802 -0.3422  0.2371
  500MOL0     C67394   3.605   7.986   5.865 -0.1266 -0.8250  0.8037
  500MOL0     C67395   3.573   7.870   5.959 -0.4355 -0.1029  0.1700
  500MOL0     O67396   3.473   7.892   6.048  0.1831  0.3083  1.0222
  500MOL0     C67397   3.410   7.780   6.095  1.1226  0.4473  1.1757
  500MOL0     C67398   3.292   7.744   6.026 -0.1805 -0.0591 -0.0164
  500MOL0     C67399   3.226   7.628   6.047 -0.2326  0.5578 -0.5761
  500MOL0     C67400   3.270   7.547   6.151 -0.0924 -0.7160 -0.1705
  500MOL0     O67401   3.194   7.441   6.178 -0.6021  0.2174  0.2434
  500MOL0     C67402   3.067   7.469   6.243  0.8456 -0.3218  0.6507
  500MOL0     C67403   3.020   7.333   6.276  0.0802  0.5458  0.7335
  500MOL0     C67404   2.916   7.270   6.177  0.8937 -0.0228 -0.1057
  500MOL0     C67405   2.883   7.128   6.231 -0.7654 -0.5145  0.1832
  500MOL0     C67406   2.822   7.036   6.126  0.5267  0.1576 -0.3262
  500MOL0     C67407   2.682   7.072   6.093 -0.2121  0.4797 -0.3853
  500MOL0     C67408   2.617   6.964   6.006 -0.2063  0.5141 -0.6348
  500MOL0     C67409   2.507   6.888   6.090  0.0258  0.9530 -0.5758
  500MOL0    Cl67410   2.427   6.769   5.986 -0.1797  0.1333  0.2649
  500MOL0     C67411   3.384   7.585   6.231 -0.2303  0.9281  0.4615
  500MOL0     C67412   3.452   7.699   6.199  0.3376  0.1757  0.0883
  500MOL0     O67413   3.641   7.768   5.950 -0.0144  0.3214  0.4483
  500MOL0     C67414   3.725   7.979   5.800 -0.8790  0.2890  0.7162
  500MOL0     C67415   3.767   8.080   5.708 -0.1544  0.2174  0.3642
  500MOL0     N67416   3.216   8.257   5.373  0.2531  0.3358 -0.8492
  500MOL0     N67417   3.092   8.230   5.360 -0.2088 -0.0164 -0.2773
  500MOL0     C67418   1.778   8.098   5.180 -0.4601  0.5273  0.1879
  500MOL0     C67419   1.660   8.152   5.234 -0.7180 -0.8835  0.9382
  500MOL0     C67420   1.346   8.355   5.439  0.7382 -0.3009  0.1349
  500MOL0     C67421   1.267   8.462   5.393 -0.4613 -0.1506  0.2207
  500MOL0     C67422   1.143   8.488   5.449  0.2774 -0.1659  0.4279
  500MOL0     C67423   1.092   8.419   5.549 -0.8165  0.6051  0.5000
  500MOL0     O67424   0.971   8.463   5.585 -0.4455 -0.5100 -0.4024
  500MOL0     C67425   0.881   8.356   5.631 -0.5011 -0.7139  0.3618
  500MOL0     C67426   0.733   8.404   5.636 -0.3967 -0.7844  0.6544
  500MOL0     C67427   0.721   8.532   5.725 -0.2343  0.5142  0.4943
  500MOL0     C67428   0.588   8.599   5.695 -0.7475  0.1263 -0.4652
  500MOL0     C67429   0.483   8.518   5.749  0.4451  0.9490 -0.0326
  500MOL0     C67430   0.395   8.445   5.794 -0.8743  0.0562  1.0118
  500MOL0     C67431   1.152   8.298   5.589 -0.4187  0.4301  0.2070
  500MOL0     C67432   1.287   8.273   5.540  0.1710  0.0737 -0.2316
  500MOL0     H67433   1.721   8.106   5.565  1.5962 -0.3634  1.1531
  500MOL0     H67434   1.940   8.017   5.465 -1.4999  1.1268  1.2899
  500MOL0     H67435   2.102   8.107   5.333 -1.1167 -0.7474  1.3018
  500MOL0     H67436   2.125   7.923   5.341 -3.0581 -0.7045  0.9481
  500MOL0     H67437   2.209   7.936   5.110 -0.4008  0.0801 -0.5253
  500MOL0     H67438   2.214   8.118   5.120 -1.0450  1.6567  1.5396
  500MOL0     H67439   2.334   8.111   5.319 -1.8950 -0.7454 -0.7529
  500MOL0     H67440   2.358   7.938   5.318 -3.1435 -0.5199 -1.0198
  500MOL0     H67441   2.512   7.980   5.100  0.2546  0.7492  0.1094
  500MOL0     H67442   2.457   8.146   5.092  2.3420  1.9385  1.0766
  500MOL0     H67443   2.563   8.209   5.287 -0.1939  0.5414 -0.0753
  500MOL0     H67444   2.623   8.042   5.322 -2.0286 -1.9148 -0.9726
  500MOL0     H67445   2.727   8.007   5.122  0.0419 -1.0378  2.1331
  500MOL0     H67446   2.670   8.164   5.054 -0.7632  2.7593  0.8404
  500MOL0     H67447   2.832   8.287   5.196 -2.0040  0.9286  2.9263
  500MOL0     H67448   2.813   8.170   5.328 -0.9260  1.5151 -0.1098
  500MOL0     H67449   2.977   8.112   5.072 -1.8044  1.6302 -0.6002
  500MOL0     H67450   2.961   8.002   5.212  0.6151 -1.0817 -2.2479
  500MOL0     H67451   3.222   8.147   5.071  1.5839  1.2532  0.8238
  500MOL0     H67452   3.467   8.235   5.141 -1.9429 -1.5822 -0.8335
  500MOL0     H67453   3.444   8.385   5.229  1.2310  1.1452  2.4474
  500MOL0     H67454   3.520   8.107   5.344  0.8067 -0.1545 -2.5790
  500MOL0     H67455   3.471   8.243   5.450 -0.0587 -0.2283 -0.8088
  500MOL0     H67456   3.640   8.373   5.332 -2.5742 -0.9812  0.8232
  500MOL0     H67457   3.688   8.227   5.239  1.4477  1.6822 -0.4170
  500MOL0     H67458   3.845   8.245   5.402 -0.1341 -0.4121 -0.1990
  500MOL0     H67459   3.751   8.104   5.437  1.9647  0.0571 -2.8554
  500MOL0     H67460   3.516   8.288   5.720  1.0570 -0.2605 -0.3921
  500MOL0     H67461   3.370   8.243   5.896  0.1126 -0.3578  0.5614
  500MOL0     H67462   3.311   8.106   5.809  1.2359 -1.7270 -0.3034
  500MOL0     H67463   3.352   8.087   5.984 -0.9454 -3.8664 -1.6370
  500MOL0     H67464   3.254   7.818   5.956 -0.2343 -0.9988 -1.0057
  500MOL0     H67465   3.139   7.593   5.993 -0.4687 -1.6904  1.1160
  500MOL0     H67466   3.076   7.534   6.331  1.6692  0.8468 -0.2727
  500MOL0     H67467   3.005   7.512   6.164  1.2644  1.8358  1.4269
  500MOL0     H67468   3.106   7.265   6.286  2.2469  3.0095 -0.1188
  500MOL0     H67469   2.971   7.335   6.374 -2.1070 -0.5782 -0.2663
  500MOL0     H67470   2.954   7.263   6.075 -4.8142 -1.1491 -2.5458
  500MOL0     H67471   2.826   7.332   6.177 -0.2355 -1.5805  0.7825
  500MOL0     H67472   2.975   7.086   6.273 -1.1665 -0.2965  1.3166
  500MOL0     H67473   2.816   7.134   6.318 -2.3714 -2.5324 -0.8267
  500MOL0     H67474   2.817   6.934   6.163 -0.1294 -0.5317 -2.1757
  500MOL0     H67475   2.881   7.044   6.034 -2.7246  1.9753 -2.4591
  500MOL0     H67476   2.622   7.099   6.181 -2.2866 -0.2850 -1.5018
  500MOL0     H67477   2.675   7.161   6.030 -0.7939  0.5581 -0.2172
  500MOL0     H67478   2.688   6.888   5.972  0.9806  1.8013 -1.0960
  500MOL0     H67479   2.560   7.006   5.922 -1.3854 -0.9355 -0.6194
  500MOL0     H67480   2.440   6.963   6.134  2.4113  1.1029  3.2448
  500MOL0     H67481   2.556   6.848   6.179 -0.7994  2.2814  0.5149
  500MOL0     H67482   3.420   7.523   6.313 -1.3886  0.5755  0.7169
  500MOL0     H67483   3.533   7.740   6.258 -2.6745  5.5527  1.1323
  500MOL0     H67484   3.793   7.895   5.808 -0.7933  0.4273  1.5482
  500MOL0     H67485   3.868   8.077   5.668 -0.6185  3.3830 -1.4041
  500MOL0     H67486   1.795   8.082   5.074  0.6882 -1.2856  0.6045
  500MOL0     H67487   1.570   8.175   5.176 -0.5759 -2.5361  0.0006
  500MOL0     H67488   1.290   8.526   5.308 -1.3708  0.9852  0.7986
  500MOL0     H67489   1.094   8.576   5.408  1.2096 -0.7872 -2.2044
  500MOL0     H67490   0.880   8.266   5.569  1.8739 -1.4801  1.3358
  500MOL0     H67491   0.899   8.328   5.735  1.9757  0.3117  0.2737
  500MOL0     H67492   0.678   8.315   5.671  2.5829 -2.4197  1.5546
  500MOL0     H67493   0.704   8.433   5.535  1.2363  1.3622  0.7315
  500MOL0     H67494   0.794   8.609   5.699 -1.0816  0.6543 -1.7079
  500MOL0     H67495   0.733   8.510   5.831 -1.4512 -1.7512  0.2318
  500MOL0     H67496   0.572   8.619   5.588 -2.1362  2.0433  0.0370
  500MOL0     H67497   0.581   8.694   5.749 -3.4462  0.4134 -1.1572
  500MOL0     H67498   0.321   8.392   5.851 -0.6589  1.9987  3.2594
  500MOL0     H67499   1.102   8.244   5.669 -0.2493  2.0466  1.4616
  500MOL0     H67500   1.329   8.179   5.572 -2.1761 -0.4194  1.6236
  501MOL0     O67501   7.183   7.679   4.905  0.6778 -0.3478 -0.5334
  501MOL0     C67502   7.188   7.595   4.996  0.2040 -0.0614  0.0267
  501MOL0     O67503   7.219   7.468   4.985  0.3192  0.0895 -0.6632
  501MOL0     C67504   7.235   7.415   4.861  0.5171  0.0836 -0.0170
  501MOL0     C67505   7.154   7.430   4.752  0.3083 -0.1443  0.8791
  501MOL0     C67506   7.176   7.364   4.625  0.9451 -1.0376 -0.6035
  501MOL0     C67507   7.276   7.276   4.619  0.5871  0.3327  0.1895
  501MOL0     O67508   7.305   7.200   4.502 -0.5169 -0.5912 -0.6138
  501MOL0     C67509   7.235   7.222   4.376  0.0014 -0.1682  0.3976
  501MOL0     C67510   7.104   7.148   4.380  0.4679 -0.6601 -0.3569
  501MOL0     C67511   7.044   7.159   4.236  0.1665 -0.4365  0.4253
  501MOL0     C67512   6.907   7.083   4.223 -1.1620  0.5628  0.6364
  501MOL0     C67513   6.846   7.132   4.089  0.5505  0.4166 -0.1335
  501MOL0     C67514   6.733   7.052   4.033 -0.0089 -0.6148  0.5898
  501MOL0     C67515   6.606   7.074   4.102 -0.0333  0.3638 -1.0120
  501MOL0     C67516   6.488   7.025   4.021  0.2562 -0.2266  0.2236
  501MOL0     N67517   6.475   6.883   4.005 -0.7407 -0.0267  0.1763
  501MOL0     C67518   6.533   6.812   3.901  0.5632  0.3485 -0.2622
  501MOL0     C67519   6.469   6.695   3.891 -0.0404 -0.0101  0.0081
  501MOL0     C67520   6.490   6.583   3.804 -0.0714 -0.4872  1.1129
  501MOL0     C67521   6.610   6.499   3.845  0.0605  0.6866 -0.0201
  501MOL0     C67522   6.623   6.451   3.990 -0.3938 -0.4152 -0.0473
  501MOL0     C67523   6.703   6.540   4.085  0.8756 -0.2793 -0.6061
  501MOL0     O67524   6.737   6.473   4.201  0.0025  0.2650 -0.0307
  501MOL0     C67525   6.872   6.451   4.223  0.8902 -0.0131  0.6017
  501MOL0     C67526   6.968   6.550   4.221 -0.4252 -0.9610 -0.3565
  501MOL0     C67527   7.099   6.517   4.239 -0.5310 -0.3448 -0.9837
  501MOL0     C67528   7.190   6.643   4.257  0.5889 -0.8196  0.4508
  501MOL0     C67529   7.141   6.384   4.252 -0.4744  0.0641  0.1850
  501MOL0     C67530   7.287   6.342   4.286  1.1777  0.4955  0.1589
  501MOL0     O67531   7.305   6.214   4.327 -0.1158  0.6214 -0.0119
  501MOL0     C67532   7.439   6.180   4.353  0.4333  0.4722  0.0195
  501MOL0     C67533   7.467   6.096   4.462 -0.2120  0.8199  0.0685
  501MOL0     C67534   7.599   6.049   4.486 -1.1499  0.1873  0.1081
  501MOL0     C67535   7.700   6.067   4.391  0.1927  0.6559 -0.1413
  501MOL0     O67536   7.832   6.024   4.409 -0.3754 -0.1429 -0.3696
  501MOL0     C67537   7.868   6.025   4.546  0.7122  0.4044 -0.3315
  501MOL0     C67538   8.024   6.007   4.540 -0.0921 -0.2778 -0.7547
  501MOL0     C67539   8.091   6.062   4.660  0.5594  0.0806  0.8662
  501MOL0     C67540   8.250   6.064   4.652 -0.3722  0.8753  0.3862
  501MOL0     C67541   8.312   6.103   4.785  0.3203 -0.5506  1.3011
  501MOL0     C67542   8.466   6.071   4.798  0.2165 -0.3318 -0.0523
  501MOL0     C67543   8.501   6.082   4.945 -0.0645  0.1882  0.1552
  501MOL0     C67544   8.650   6.080   4.979 -0.0949 -0.4198 -0.3941
  501MOL0    Cl67545   8.730   5.923   4.965 -0.2184  0.5660  0.1330
  501MOL0     C67546   7.672   6.145   4.276 -0.7874  0.2134 -0.8228
  501MOL0     C67547   7.544   6.192   4.260  0.4662  0.4817  0.4556
  501MOL0     O67548   7.377   6.424   4.274  0.1438  0.3537  0.4304
  501MOL0     C67549   7.036   6.285   4.258  0.6152  0.7841 -0.4795
  501MOL0     C67550   6.903   6.323   4.247  0.4645  0.5492 -0.5314
  501MOL0     N67551   6.371   6.697   3.987  0.6700 -0.5332  0.6793
  501MOL0     N67552   6.377   6.809   4.057  0.3053  0.4733 -0.1616
  501MOL0     C67553   7.352   7.244   4.729  0.5846 -0.0669  0.4386
  501MOL0     C67554   7.341   7.320   4.848  0.1999  0.1616  0.3712
  501MOL0     C67555   7.162   7.634   5.139 -0.0911  0.0079  0.2103
  501MOL0     C67556   7.216   7.559   5.242 -0.2923  0.0387 -0.3747
  501MOL0     C67557   7.189   7.594   5.379 -0.3067 -0.5483  0.0595
  501MOL0     C67558   7.103   7.698   5.396  0.1256 -1.2274  0.6166
  501MOL0     O67559   7.072   7.720   5.530 -0.7185  0.4608  0.7206
  501MOL0     C67560   6.940   7.761   5.571 -1.1661  0.2610 -0.2282
  501MOL0     C67561   6.871   7.629   5.618 -0.5240 -0.1598  0.8587
  501MOL0     C67562   6.717   7.648   5.615 -0.2250 -0.1183 -0.0168
  501MOL0     C67563   6.653   7.640   5.473 -0.2131 -0.2030 -0.1011
  501MOL0     C67564   6.628   7.504   5.420  0.3195  0.2439 -0.3348
  501MOL0     C67565   6.617   7.386   5.389  0.5410  0.4531 -0.0679
  501MOL0     C67566   7.044   7.773   5.293 -0.4375 -0.5377  0.0694
  501MOL0     C67567   7.078   7.745   5.161 -0.4012 -0.4511 -0.2798
  501MOL0     H67568   7.067   7.492   4.771 -0.0936 -0.0963 -0.9552
  501MOL0     H67569   7.114   7.385   4.538  0.4857  0.3830  0.0393
  501MOL0     H67570   7.233   7.330   4.360  2.9194  0.5098  3.4626
  501MOL0     H67571   7.295   7.180   4.295 -0.7486  0.8358 -0.7159
  501MOL0     H67572   7.124   7.041   4.395  1.0329 -0.4291  0.6206
  501MOL0     H67573   7.040   7.193   4.456  2.5352  2.5636 -0.3733
  501MOL0     H67574   7.017   7.261   4.207 -1.1675 -0.5789  1.0795
  501MOL0     H67575   7.118   7.126   4.163 -0.4216  1.7529 -1.2775
  501MOL0     H67576   6.917   6.974   4.217  0.3932  0.6506  1.0362
  501MOL0     H67577   6.836   7.107   4.302 -0.2959  0.0404  1.5874
  501MOL0     H67578   6.815   7.236   4.082 -1.3900 -0.1722 -1.0048
  501MOL0     H67579   6.929   7.116   4.020  0.9660  1.0088  0.2194
  501MOL0     H67580   6.708   7.092   3.935 -2.1630  1.4163  1.8768
  501MOL0     H67581   6.759   6.946   4.018  0.0668 -0.4922 -0.1482
  501MOL0     H67582   6.609   7.027   4.201 -2.0833  2.6052  0.2214
  501MOL0     H67583   6.595   7.182   4.118  0.0114  0.4834 -1.7572
  501MOL0     H67584   6.487   7.068   3.920  1.6089  0.3392  0.4259
  501MOL0     H67585   6.394   7.061   4.065 -0.2444  1.4933 -2.0875
  501MOL0     H67586   6.617   6.841   3.840  1.7493  0.1606  1.2201
  501MOL0     H67587   6.400   6.523   3.784  0.3958 -1.7035  2.4904
  501MOL0     H67588   6.508   6.638   3.711  0.3465 -0.6293  1.1087
  501MOL0     H67589   6.695   6.563   3.819  1.7530 -0.9509  1.0937
  501MOL0     H67590   6.623   6.412   3.780  0.8784  0.8191 -0.0515
  501MOL0     H67591   6.666   6.350   3.990 -1.8256 -1.0866  1.9990
  501MOL0     H67592   6.520   6.446   4.026 -2.5085  0.4946 -5.1634
  501MOL0     H67593   6.640   6.626   4.109 -0.0699 -0.2284 -2.9744
  501MOL0     H67594   6.784   6.573   4.020 -0.4332  1.9607 -1.1957
  501MOL0     H67595   6.937   6.649   4.190  1.8008 -0.0902  0.0071
  501MOL0     H67596   7.245   6.640   4.351 -0.0163  0.1824  0.8592
  501MOL0     H67597   7.269   6.644   4.180  0.0041 -0.4568 -0.1568
  501MOL0     H67598   7.136   6.738   4.252  2.5710  0.3500 -2.8645
  501MOL0     H67599   7.399   6.068   4.541  2.0597 -0.0035  1.8360
  501MOL0     H67600   7.627   5.989   4.571 -2.7439  0.8566  1.1574
  501MOL0     H67601   7.837   6.118   4.594  1.5659  1.5523 -1.9193
  501MOL0     H67602   7.827   5.939   4.599  1.3666  0.3258  0.0734
  501MOL0     H67603   8.044   5.901   4.524 -1.1768 -0.3169 -2.0231
  501MOL0     H67604   8.062   6.068   4.457  1.4717  2.6152  1.8567
  501MOL0     H67605   8.061   6.015   4.754 -1.7396 -1.6666 -0.6317
  501MOL0     H67606   8.048   6.162   4.663 -0.3659 -0.2732  0.0194
  501MOL0     H67607   8.285   5.964   4.627 -4.3751 -0.2465 -1.4615
  501MOL0     H67608   8.279   6.126   4.566 -0.4492 -0.7087 -0.8171
  501MOL0     H67609   8.256   6.054   4.865 -0.8267 -0.9057  0.3051
  501MOL0     H67610   8.303   6.211   4.800  0.8442  0.1491 -2.4059
  501MOL0     H67611   8.483   5.979   4.741 -0.2508  1.5364 -3.4423
  501MOL0     H67612   8.515   6.153   4.746  0.0863  1.1032  1.9719
  501MOL0     H67613   8.442   6.010   5.003  2.8657  0.5162  3.9356
  501MOL0     H67614   8.469   6.183   4.973  0.0354 -0.4619  2.9176
  501MOL0     H67615   8.655   6.119   5.081 -0.3379  0.2117 -0.6219
  501MOL0     H67616   8.692   6.147   4.904 -2.2758  3.3880  1.4942
  501MOL0     H67617   7.756   6.145   4.207 -0.0809 -2.7367 -0.1407
  501MOL0     H67618   7.534   6.252   4.170 -0.9074  1.9985  1.5523
  501MOL0     H67619   7.057   6.181   4.281  1.2595  0.6413 -1.6404
  501MOL0     H67620   6.825   6.248   4.253  0.1018  1.0683  2.4240
  501MOL0     H67621   7.424   7.163   4.734 -0.4275 -0.9566  0.8535
  501MOL0     H67622   7.401   7.299   4.936 -1.9563 -1.5386  1.5304
  501MOL0     H67623   7.265   7.464   5.223 -0.4323 -0.0972 -0.0654
  501MOL0     H67624   7.225   7.547   5.470 -0.8632  3.2939  2.4702
  501MOL0     H67625   6.951   7.830   5.655  0.5500 -1.9636  1.4897
  501MOL0     H67626   6.886   7.811   5.490 -2.1286  1.9159  1.3475
  501MOL0     H67627   6.905   7.617   5.721 -0.3773 -0.1662  0.8101
  501MOL0     H67628   6.905   7.550   5.550  0.0075  1.8974 -1.4240
  501MOL0     H67629   6.687   7.744   5.658 -3.5790 -0.2459 -1.7032
  501MOL0     H67630   6.669   7.570   5.675 -0.8553  0.2872  0.0195
  501MOL0     H67631   6.731   7.689   5.413  0.0855  0.5122  0.8487
  501MOL0     H67632   6.559   7.696   5.476 -1.0475 -1.3728 -2.1223
  501MOL0     H67633   6.620   7.280   5.377  0.7764  0.5785 -1.2276
  501MOL0     H67634   6.995   7.868   5.308 -0.1489 -0.2860 -0.5470
  501MOL0     H67635   7.060   7.826   5.091  1.0429  0.8660  0.7904
  502MOL0     O67636   2.251   1.392   9.419 -0.6730  0.1157 -0.1371
  502MOL0     C67637   2.287   1.477   9.331  0.0738  0.4655 -0.0070
  502MOL0     O67638   2.203   1.547   9.248 -0.3683  0.2787  0.4520
  502MOL0     C67639   2.065   1.538   9.265  1.4349  0.5409 -0.2796
  502MOL0     C67640   1.985   1.644   9.243  0.1473 -0.5440 -0.2337
  502MOL0     C67641   1.842   1.636   9.258 -0.1528  0.5640 -0.5788
  502MOL0     C67642   1.778   1.509   9.276 -0.3667 -0.4731  0.9390
  502MOL0     O67643   1.637   1.498   9.289 -0.0109  0.2047 -0.1373
  502MOL0     C67644   1.561   1.550   9.185  0.3646  0.0074  0.0177
  502MOL0     C67645   1.420   1.579   9.232 -0.1064  0.3186 -0.7569
  502MOL0     C67646   1.353   1.442   9.269  0.6368 -0.8500 -0.3548
  502MOL0     C67647   1.203   1.471   9.295  0.2008  1.0564  0.3214
  502MOL0     C67648   1.122   1.330   9.296  0.2942 -0.7620 -0.6311
  502MOL0     C67649   1.008   1.329   9.406  0.1633 -0.0333  0.2116
  502MOL0     C67650   0.924   1.211   9.414  0.5116  0.2411 -0.1202
  502MOL0     C67651   0.997   1.089   9.466  0.0806 -0.3476 -0.6576
  502MOL0     N67652   0.902   0.984   9.508 -0.4747 -0.2013  0.0516
  502MOL0     C67653   0.862   0.874   9.435 -0.4931 -0.8502 -0.0205
  502MOL0     C67654   0.772   0.810   9.514  0.4407  0.6256 -0.6580
  502MOL0     C67655   0.710   0.671   9.480 -0.5305 -0.8536 -0.0984
  502MOL0     C67656   0.608   0.691   9.363 -0.2557  0.5288  0.2254
  502MOL0     C67657   0.550   0.564   9.308  0.0686 -0.4733 -0.0490
  502MOL0     C67658   0.433   0.583   9.222 -0.9680  0.3457  0.2839
  502MOL0     O67659   0.330   0.655   9.296 -0.4062  0.2165  0.3806
  502MOL0     C67660   0.256   0.594   9.387  0.3110 -0.1729 -0.3700
  502MOL0     C67661   0.173   0.686   9.464  0.2733  0.2372  0.0189
  502MOL0     C67662   0.080   0.633   9.554 -0.0719  1.5839 -0.3973
  502MOL0     C67663  -0.002   0.730   9.635  0.0089  0.0900  0.7537
  502MOL0     C67664   0.072   0.489   9.579  0.1046 -0.0797  0.5755
  502MOL0     C67665  -0.026   0.420   9.670  0.0827  0.5801 -0.2479
  502MOL0     O67666  -0.058   0.484   9.781  0.2537  0.3065  0.8067
  502MOL0     C67667  -0.172   0.454   9.837  0.1660  0.0735 -0.7589
  502MOL0     C67668  -0.169   0.371   9.949  0.5265  0.1231 -0.0323
  502MOL0     C67669  -0.284   0.334  10.014  0.6778 -0.1653  0.3846
  502MOL0     C67670  -0.412   0.369   9.964  1.1806  0.3460  0.4598
  502MOL0     O67671  -0.525   0.356  10.046  0.0556 -0.3231  0.1338
  502MOL0     C67672  -0.510   0.294  10.178  0.4856 -0.4119  0.0123
  502MOL0     C67673  -0.478   0.415  10.274 -0.6122  0.3900  0.0217
  502MOL0     C67674  -0.487   0.380  10.427 -0.5966 -0.2576  0.3988
  502MOL0     C67675  -0.482   0.500  10.522  0.3041  0.0554 -0.0569
  502MOL0     C67676  -0.474   0.459  10.672  0.6577  0.4989 -0.5428
  502MOL0     C67677  -0.395   0.335  10.713  0.1412  0.6768  0.2159
  502MOL0     C67678  -0.373   0.329  10.859 -0.0293  0.0764 -0.6167
  502MOL0     C67679  -0.293   0.203  10.904  0.1879 -0.8267 -0.3479
  502MOL0    Cl67680  -0.421   0.071  10.904 -0.0687 -0.0483  0.0024
  502MOL0     C67681  -0.420   0.442   9.843 -0.2052  0.4504  0.5220
  502MOL0     C67682  -0.299   0.469   9.773  0.2458  0.4167 -0.3531
  502MOL0     O67683  -0.080   0.319   9.626  0.4537  0.0138  1.3841
  502MOL0     C67684   0.151   0.404   9.500 -0.0245 -0.6162 -0.0591
  502MOL0     C67685   0.253   0.459   9.416 -0.2556 -0.8911 -0.0635
  502MOL0     N67686   0.756   0.880   9.630  0.8099 -0.4355 -0.3585
  502MOL0     N67687   0.839   0.984   9.625  0.6738 -0.0469  0.8649
  502MOL0     C67688   1.856   1.404   9.298 -0.7766  0.2781 -0.1175
  502MOL0     C67689   1.999   1.419   9.290 -0.3661  0.1577 -0.3386
  502MOL0     C67690   2.435   1.485   9.292  0.0976 -0.3497  0.8525
  502MOL0     C67691   2.526   1.401   9.348  0.1349 -0.1484  0.3422
  502MOL0     C67692   2.664   1.405   9.311  0.4363 -1.3077 -0.5433
  502MOL0     C67693   2.709   1.491   9.214 -0.7981  0.2321  0.5747
  502MOL0     O67694   2.840   1.465   9.184  0.6614  0.0246 -0.6808
  502MOL0     C67695   2.880   1.521   9.061 -0.5837 -0.6734 -0.5704
  502MOL0     C67696   3.022   1.474   9.031 -0.0132  0.0325 -0.7550
  502MOL0     C67697   3.022   1.321   9.029  0.5858 -0.4048  0.0873
  502MOL0     C67698   3.139   1.259   8.954  0.9711  0.7529 -0.9258
  502MOL0     C67699   3.265   1.304   9.013 -0.8215 -0.4716 -0.4807
  502MOL0     C67700   3.371   1.354   9.055 -0.4157 -1.0900 -0.5423
  502MOL0     C67701   2.619   1.576   9.158  0.9799 -0.3745 -0.6843
  502MOL0     C67702   2.485   1.575   9.195  0.0079  0.4449  0.3226
  502MOL0     H67703   2.029   1.738   9.211 -0.9764 -0.1337 -0.6400
  502MOL0     H67704   1.779   1.725   9.255 -1.1113 -0.1146 -1.7377
  502MOL0     H67705   1.614   1.641   9.154  0.7908  0.2413  1.3415
  502MOL0     H67706   1.560   1.482   9.100 -0.1256  1.6818 -1.3672
  502MOL0     H67707   1.410   1.647   9.318 -2.9721  0.3451 -0.9983
  502MOL0     H67708   1.362   1.625   9.151  0.2032 -0.5122 -1.4570
  502MOL0     H67709   1.353   1.375   9.183 -0.6519 -2.5913  0.9325
  502MOL0     H67710   1.404   1.400   9.356  1.9033 -2.4761 -1.8259
  502MOL0     H67711   1.203   1.518   9.394  1.3471 -1.0994  1.4119
  502MOL0     H67712   1.160   1.535   9.217 -2.3753 -0.4269  0.4228
  502MOL0     H67713   1.071   1.322   9.200 -3.9390 -1.8950  1.4645
  502MOL0     H67714   1.198   1.259   9.327  0.9110  0.5723  1.0765
  502MOL0     H67715   1.042   1.362   9.504 -1.5907  1.3013  0.4124
  502MOL0     H67716   0.943   1.415   9.389  0.2782 -0.1206 -0.7395
  502MOL0     H67717   0.838   1.228   9.479  1.4597  1.3643  0.8911
  502MOL0     H67718   0.891   1.196   9.310  3.1074 -1.5385 -0.7881
  502MOL0     H67719   1.064   1.116   9.549  0.0481 -1.9882 -0.0606
  502MOL0     H67720   1.056   1.055   9.380 -0.3305 -0.6363 -0.8294
  502MOL0     H67721   0.882   0.836   9.335  1.1160  1.3599 -0.6126
  502MOL0     H67722   0.784   0.604   9.435 -3.1447 -4.1219  0.1231
  502MOL0     H67723   0.664   0.630   9.570 -4.1889  2.9095  0.0505
  502MOL0     H67724   0.657   0.730   9.274 -0.0836 -0.8293 -0.2968
  502MOL0     H67725   0.528   0.761   9.390 -2.5041 -1.1721 -1.6694
  502MOL0     H67726   0.528   0.497   9.392 -1.1213 -0.4646 -0.3398
  502MOL0     H67727   0.623   0.517   9.243  1.1232  0.9424  0.0674
  502MOL0     H67728   0.388   0.490   9.184 -0.1263 -0.8962  2.1781
  502MOL0     H67729   0.462   0.646   9.137  2.9566  3.1024  3.3436
  502MOL0     H67730   0.181   0.794   9.459 -0.8161  0.5372  2.7583
  502MOL0     H67731   0.046   0.761   9.728 -0.3370  0.8938  0.6679
  502MOL0     H67732  -0.029   0.818   9.576  1.0313 -0.0510  0.0378
  502MOL0     H67733  -0.101   0.687   9.646  1.1517 -3.0622 -0.0802
  502MOL0     H67734  -0.068   0.356   9.988  0.2116  3.2419  2.4374
  502MOL0     H67735  -0.265   0.279  10.105  0.2131 -1.5137 -0.2932
  502MOL0     H67736  -0.605   0.247  10.207 -0.7589  1.2367 -1.2141
  502MOL0     H67737  -0.444   0.207  10.180 -0.8501 -1.4908 -0.8570
  502MOL0     H67738  -0.372   0.427  10.248 -0.7100 -1.7440 -1.7287
  502MOL0     H67739  -0.526   0.509  10.247 -2.1087  0.6095  3.0426
  502MOL0     H67740  -0.408   0.310  10.456  1.8105  2.3376  0.5082
  502MOL0     H67741  -0.588   0.338  10.432 -2.5496  3.8615 -0.4706
  502MOL0     H67742  -0.382   0.541  10.504  0.1404  0.8409  0.7031
  502MOL0     H67743  -0.562   0.574  10.513 -2.1647 -2.3977  0.2025
  502MOL0     H67744  -0.576   0.454  10.712  0.8014 -0.7757 -0.2954
  502MOL0     H67745  -0.432   0.543  10.728  0.3132  2.7189 -3.4155
  502MOL0     H67746  -0.442   0.248  10.665  1.4760 -0.7219  1.3301
  502MOL0     H67747  -0.294   0.337  10.671  0.1271 -0.1648  0.1272
  502MOL0     H67748  -0.469   0.333  10.911 -0.6676  2.5696 -1.8343
  502MOL0     H67749  -0.311   0.415  10.888  1.6216 -0.7663 -1.5087
  502MOL0     H67750  -0.246   0.208  11.003  0.9182  2.3191 -0.7283
  502MOL0     H67751  -0.217   0.186  10.827  0.8222  1.2835 -0.2512
  502MOL0     H67752  -0.509   0.490   9.803  0.4348  2.0135  0.9185
  502MOL0     H67753  -0.319   0.517   9.678 -0.3348 -2.5090 -1.8168
  502MOL0     H67754   0.149   0.296   9.502  2.5690 -0.7304  0.6213
  502MOL0     H67755   0.322   0.391   9.368  1.6063  1.1492 -0.4369
  502MOL0     H67756   1.799   1.314   9.318 -2.4562  1.7883  2.5949
  502MOL0     H67757   2.067   1.335   9.301 -0.2822 -0.0699 -2.3145
  502MOL0     H67758   2.483   1.324   9.411 -0.0103 -0.0496  0.3644
  502MOL0     H67759   2.735   1.336   9.356  1.5662  1.1213  1.7134
  502MOL0     H67760   2.804   1.494   8.987 -2.0429  0.6852  0.3678
  502MOL0     H67761   2.879   1.631   9.064 -1.3096 -0.6007 -2.2224
  502MOL0     H67762   3.102   1.509   9.097 -1.0302 -0.2637  0.6581
  502MOL0     H67763   3.045   1.520   8.934 -2.7911  1.8594 -0.6615
  502MOL0     H67764   2.929   1.279   8.989  0.7888 -2.2113  1.3588
  502MOL0     H67765   3.038   1.281   9.130  3.3133 -0.1563 -0.1754
  502MOL0     H67766   3.143   1.292   8.850  4.7327  4.0143  0.0087
  502MOL0     H67767   3.132   1.150   8.947  4.1737  0.3782  0.0408
  502MOL0     H67768   3.467   1.389   9.087 -1.1658  1.2964 -0.7217
  502MOL0     H67769   2.642   1.653   9.085  2.5930  2.2171  2.3110
  502MOL0     H67770   2.434   1.657   9.146  2.3746  2.2070  0.6394
  503MOL0     O67771   2.537   4.255   2.383  0.2573  0.1713 -0.3730
  503MOL0     C67772   2.568   4.136   2.409  0.3283  0.4143 -0.4509
  503MOL0     O67773   2.480   4.036   2.449  0.3638  0.2016 -0.6550
  503MOL0     C67774   2.352   4.081   2.469 -0.6805 -0.3729  0.0939
  503MOL0     C67775   2.259   4.063   2.366 -0.4546  0.6033 -0.0483
  503MOL0     C67776   2.124   4.084   2.388  0.8780 -0.4658 -0.5351
  503MOL0     C67777   2.078   4.131   2.517 -0.0045  0.7666  0.7005
  503MOL0     O67778   1.945   4.129   2.546  0.0282 -0.2178  0.5495
  503MOL0     C67779   1.885   4.266   2.556 -0.1658  0.4286  0.8391
  503MOL0     C67780   1.738   4.254   2.546  0.1299  0.2569  0.2665
  503MOL0     C67781   1.661   4.384   2.571  0.3246  0.4696  0.7823
  503MOL0     C67782   1.510   4.358   2.552 -0.4942  0.6246  0.1932
  503MOL0     C67783   1.426   4.465   2.482  0.7943  0.6386 -1.4344
  503MOL0     C67784   1.274   4.438   2.472  0.2559 -0.2624  0.4153
  503MOL0     C67785   1.223   4.552   2.385  0.5274 -0.1121 -1.0457
  503MOL0     C67786   1.069   4.563   2.411 -0.6598  0.5977  0.5484
  503MOL0     N67787   0.995   4.463   2.321  0.6972  0.2219  0.0803
  503MOL0     C67788   0.948   4.341   2.357  0.2668 -0.1127  0.1110
  503MOL0     C67789   0.883   4.300   2.248  0.5298 -0.4019  0.0280
  503MOL0     C67790   0.825   4.162   2.234 -0.8582 -0.1703  0.4606
  503MOL0     C67791   0.685   4.139   2.283  0.1495  0.2007  0.1293
  503MOL0     C67792   0.631   3.992   2.269 -0.9263  0.0371 -0.3358
  503MOL0     C67793   0.475   3.980   2.308  0.2257 -0.0641 -0.8158
  503MOL0     O67794   0.456   4.010   2.443 -0.5032  0.4935 -0.2277
  503MOL0     C67795   0.336   3.996   2.506  0.2784  0.4218  0.0387
  503MOL0     C67796   0.222   3.947   2.442  0.1374 -0.6819  0.7602
  503MOL0     C67797   0.105   3.929   2.522  0.7157 -0.2966 -0.0314
  503MOL0     C67798  -0.020   3.887   2.444 -1.0535  0.4594 -0.5443
  503MOL0     C67799   0.104   3.964   2.662 -0.2572 -0.9382  0.7091
  503MOL0     C67800  -0.008   3.949   2.746 -0.0005 -0.8092 -0.3693
  503MOL0     O67801   0.014   3.967   2.878  0.1790  0.4565 -0.3016
  503MOL0     C67802  -0.080   3.928   2.971  0.5679 -0.2125 -0.0608
  503MOL0     C67803  -0.091   3.998   3.091  0.0089 -0.0682 -0.2052
  503MOL0     C67804  -0.183   3.971   3.198 -0.0784  0.6756 -0.1983
  503MOL0     C67805  -0.263   3.859   3.187 -1.0925  1.0368 -1.0953
  503MOL0     O67806  -0.338   3.817   3.299  0.1192 -0.1545  0.4507
  503MOL0     C67807  -0.399   3.685   3.307  0.1875  0.3588 -0.4020
  503MOL0     C67808  -0.480   3.663   3.435  0.7098 -0.4552 -0.0850
  503MOL0     C67809  -0.574   3.787   3.446 -0.5273 -1.1077 -0.6474
  503MOL0     C67810  -0.699   3.768   3.525 -0.1367  0.2367  0.4629
  503MOL0     C67811  -0.766   3.899   3.578  1.1377  0.4080  0.3370
  503MOL0     C67812  -0.895   3.871   3.634  0.1401  0.1060  0.5728
  503MOL0     C67813  -0.978   4.002   3.649 -0.0601 -0.2528 -0.0839
  503MOL0     C67814  -1.123   3.959   3.697 -0.1978 -0.4492  0.0011
  503MOL0    Cl67815  -1.180   4.114   3.762  0.0278  0.1230  0.1986
  503MOL0     C67816  -0.249   3.778   3.070  0.6658  0.4856  0.3347
  503MOL0     C67817  -0.160   3.819   2.963  0.1073 -0.6216 -0.1782
  503MOL0     O67818  -0.122   3.930   2.698  0.2315 -0.0978  0.4373
  503MOL0     C67819   0.225   4.011   2.714 -0.2701  0.4173 -0.6377
  503MOL0     C67820   0.337   4.027   2.635  0.5567 -0.1509  0.1151
  503MOL0     N67821   0.877   4.398   2.153 -0.4846 -0.5112 -1.1275
  503MOL0     N67822   0.936   4.502   2.199 -0.6129 -0.1271 -0.0695
  503MOL0     C67823   2.177   4.168   2.613  0.5008 -0.3098  0.2567
  503MOL0     C67824   2.313   4.146   2.582 -0.5999  0.3250 -0.2688
  503MOL0     C67825   2.713   4.105   2.390  0.1486 -0.3914 -0.1868
  503MOL0     C67826   2.805   4.193   2.324  0.5867  0.0885 -0.3302
  503MOL0     C67827   2.941   4.152   2.298  0.3832  0.5043  0.5736
  503MOL0     C67828   2.980   4.024   2.334 -1.0144  0.0920  0.6131
  503MOL0     O67829   3.105   3.975   2.306  0.3709 -0.0326 -0.0565
  503MOL0     C67830   3.167   4.028   2.189 -0.2439 -0.7188 -0.2697
  503MOL0     C67831   3.293   3.938   2.171  0.3717 -0.3756 -0.3892
  503MOL0     C67832   3.391   3.940   2.289 -1.2310 -1.2140 -0.0292
  503MOL0     C67833   3.518   3.869   2.242 -0.0851 -0.5205  0.4736
  503MOL0     C67834   3.501   3.729   2.235  0.0893  1.3275 -0.5270
  503MOL0     C67835   3.491   3.606   2.239 -0.2583  0.3531 -0.2074
  503MOL0     C67836   2.900   3.943   2.414  0.5589 -0.3440  1.1359
  503MOL0     C67837   2.767   3.983   2.439  0.3266  0.5922 -0.6927
  503MOL0     H67838   2.296   4.020   2.274 -1.7723 -0.0543 -0.2856
  503MOL0     H67839   2.040   4.064   2.321 -2.5395  0.4107  3.0880
  503MOL0     H67840   1.902   4.310   2.654 -0.5996 -0.7369  1.4634
  503MOL0     H67841   1.917   4.329   2.473  0.7147  1.2612  1.7806
  503MOL0     H67842   1.711   4.217   2.447  1.1277 -0.4777  0.2626
  503MOL0     H67843   1.702   4.184   2.622  2.5090 -1.1345  0.2018
  503MOL0     H67844   1.664   4.409   2.677 -0.6695  1.5440  0.5711
  503MOL0     H67845   1.701   4.468   2.514  5.6372 -2.5249 -0.6596
  503MOL0     H67846   1.492   4.271   2.488  0.8010 -1.3962  2.4192
  503MOL0     H67847   1.468   4.330   2.649  0.0539  1.1535  0.5879
  503MOL0     H67848   1.435   4.558   2.539  0.2133  0.4419 -1.0167
  503MOL0     H67849   1.454   4.471   2.377 -1.4439 -2.3136 -2.3484
  503MOL0     H67850   1.247   4.345   2.421 -3.4701  0.0969  1.4517
  503MOL0     H67851   1.224   4.451   2.568 -1.1740 -0.1914 -0.3208
  503MOL0     H67852   1.267   4.645   2.422 -0.0524 -0.6832  1.2813
  503MOL0     H67853   1.243   4.542   2.278 -0.7874  3.2378 -1.7367
  503MOL0     H67854   1.032   4.658   2.371 -1.5395  0.0180 -0.0227
  503MOL0     H67855   1.046   4.553   2.517  1.1250  4.2144  1.4411
  503MOL0     H67856   0.965   4.280   2.445 -1.9341 -1.0970 -0.0957
  503MOL0     H67857   0.836   4.117   2.135 -1.4120 -0.7214  0.6362
  503MOL0     H67858   0.891   4.100   2.296 -0.2304 -1.0816 -1.0706
  503MOL0     H67859   0.626   4.212   2.227  0.0364 -0.2029 -0.2812
  503MOL0     H67860   0.668   4.165   2.388 -0.7055 -1.6057  0.4784
  503MOL0     H67861   0.694   3.933   2.336  0.1228 -1.4442 -2.5284
  503MOL0     H67862   0.650   3.955   2.168  2.9635 -2.0415  0.9266
  503MOL0     H67863   0.434   3.880   2.291 -0.6645  0.5703 -2.6564
  503MOL0     H67864   0.413   4.047   2.248  1.8124  2.0106 -0.2907
  503MOL0     H67865   0.218   3.918   2.338 -0.4986 -0.5895  0.7537
  503MOL0     H67866  -0.065   3.801   2.495 -2.7065  0.8454 -1.2760
  503MOL0     H67867  -0.103   3.956   2.428 -2.7750 -1.8791 -2.4881
  503MOL0     H67868   0.016   3.852   2.347 -0.4937 -1.6451  0.3558
  503MOL0     H67869  -0.028   4.084   3.111  2.0412 -1.3574 -0.7867
  503MOL0     H67870  -0.183   4.025   3.293 -0.7505 -1.2885  0.9766
  503MOL0     H67871  -0.464   3.654   3.225 -0.0806 -4.0818  1.2019
  503MOL0     H67872  -0.312   3.619   3.304  0.7644  0.9525  1.6715
  503MOL0     H67873  -0.541   3.572   3.437  0.0892 -0.0399  0.1283
  503MOL0     H67874  -0.417   3.660   3.525  0.1678  3.2368  0.5444
  503MOL0     H67875  -0.607   3.832   3.352 -1.4625 -0.4773 -0.0235
  503MOL0     H67876  -0.520   3.871   3.491 -2.8381 -1.7430  3.8588
  503MOL0     H67877  -0.774   3.714   3.467 -1.2477  0.5609  1.5477
  503MOL0     H67878  -0.667   3.700   3.604  0.2585 -1.3026 -0.9696
  503MOL0     H67879  -0.785   3.965   3.493  0.8172 -1.5883 -1.2090
  503MOL0     H67880  -0.703   3.945   3.655  3.0491 -2.4414  0.6298
  503MOL0     H67881  -0.951   3.802   3.570 -3.6152  2.3694  1.0600
  503MOL0     H67882  -0.871   3.827   3.732  0.0518 -0.8345  0.1794
  503MOL0     H67883  -0.985   4.048   3.550 -2.8457 -2.3181 -0.9456
  503MOL0     H67884  -0.924   4.066   3.720  0.5729  0.8439 -1.4993
  503MOL0     H67885  -1.118   3.887   3.779  2.9759 -1.0641 -0.6025
  503MOL0     H67886  -1.187   3.923   3.616 -0.0329  1.8620 -1.2437
  503MOL0     H67887  -0.316   3.694   3.058  0.3233  1.0551 -2.3804
  503MOL0     H67888  -0.164   3.759   2.872 -3.4995 -1.1006  0.1206
  503MOL0     H67889   0.224   4.051   2.814 -0.4879 -1.7284  0.2751
  503MOL0     H67890   0.424   4.067   2.685  2.7027 -1.0492 -2.5917
  503MOL0     H67891   2.145   4.231   2.695 -3.6604 -0.2193 -1.2188
  503MOL0     H67892   2.399   4.172   2.642  0.0221 -1.9751 -0.0601
  503MOL0     H67893   2.767   4.286   2.282  0.7778  0.8302  1.0884
  503MOL0     H67894   3.011   4.225   2.257 -0.0787  0.2798 -0.6569
  503MOL0     H67895   3.102   4.020   2.102  0.1330 -1.1389 -0.5188
  503MOL0     H67896   3.198   4.132   2.202  1.9181 -1.1857 -1.1540
  503MOL0     H67897   3.348   3.966   2.080 -0.1374  1.3555 -0.2087
  503MOL0     H67898   3.255   3.839   2.144 -0.0224  0.1272 -1.7772
  503MOL0     H67899   3.364   3.881   2.377 -1.1254 -0.4883  0.5010
  503MOL0     H67900   3.410   4.044   2.319  1.4737 -1.3660 -1.0003
  503MOL0     H67901   3.605   3.883   2.308  1.0301 -2.5954 -0.4662
  503MOL0     H67902   3.541   3.908   2.143 -2.2692  0.8079  0.4271
  503MOL0     H67903   3.453   3.506   2.241 -2.8694  1.2644  0.1938
  503MOL0     H67904   2.945   3.848   2.441  0.6992 -0.9932 -1.2134
  503MOL0     H67905   2.704   3.916   2.497  0.8537  0.1308 -0.6394
  504MOL0     O67906   2.002   8.212   6.711  0.5932  0.1163 -0.1540
  504MOL0     C67907   2.011   8.098   6.668 -0.1851  0.4041 -0.3665
  504MOL0     O67908   1.905   8.012   6.643  0.7734  0.2810 -0.3960
  504MOL0     C67909   1.776   8.069   6.640  0.3516  0.3976 -0.0533
  504MOL0     C67910   1.680   8.028   6.730  0.1290  0.7154 -0.1831
  504MOL0     C67911   1.552   8.067   6.718 -0.0722  0.1739  0.0872
  504MOL0     C67912   1.512   8.166   6.627  0.3598 -0.3107  0.0935
  504MOL0     O67913   1.382   8.203   6.636 -0.8219 -0.2158  0.3813
  504MOL0     C67914   1.355   8.347   6.621 -0.1612  0.1555 -0.2526
  504MOL0     C67915   1.401   8.429   6.735 -0.1672 -0.3502 -0.6367
  504MOL0     C67916   1.317   8.559   6.739 -1.6485  0.8085 -0.2493
  504MOL0     C67917   1.207   8.544   6.834  1.0136  0.5730  0.1147
  504MOL0     C67918   1.132   8.678   6.851  0.4690 -0.8856  0.4306
  504MOL0     C67919   0.992   8.654   6.907  0.0261 -0.1498 -1.1712
  504MOL0     C67920   0.895   8.601   6.807  0.1118 -0.7191  1.1983
  504MOL0     C67921   0.744   8.593   6.837 -0.4394 -0.5166  0.7238
  504MOL0     N67922   0.686   8.727   6.869  0.3255 -0.5545 -0.6559
  504MOL0     C67923   0.742   8.849   6.832 -0.4759  0.0965  1.0804
  504MOL0     C67924   0.647   8.943   6.856  0.2657 -0.5277  0.6149
  504MOL0     C67925   0.636   9.092   6.817 -0.1404  0.6817 -0.9903
  504MOL0     C67926   0.492   9.157   6.834 -1.1152 -1.0387  0.4822
  504MOL0     C67927   0.503   9.311   6.861 -1.7395  0.6224  0.0553
  504MOL0     C67928   0.365   9.377   6.876  0.4798 -0.4073 -0.2791
  504MOL0     O67929   0.299   9.323   6.985 -0.4338  0.1914  0.5827
  504MOL0     C67930   0.167   9.357   6.994  0.7233 -0.4627 -0.1816
  504MOL0     C67931   0.077   9.413   6.897  0.3848  0.0315  0.7384
  504MOL0     C67932  -0.057   9.427   6.924 -0.1785 -0.2098  0.3475
  504MOL0     C67933  -0.140   9.490   6.821  0.6066 -0.2337 -0.0423
  504MOL0     C67934  -0.100   9.372   7.049  0.3162 -0.5713  0.9861
  504MOL0     C67935  -0.241   9.365   7.083 -0.1869  0.4153  0.1190
  504MOL0     O67936  -0.278   9.400   7.208  0.0133 -0.5963 -0.0011
  504MOL0     C67937  -0.410   9.396   7.242  0.6484 -0.8317 -0.0660
  504MOL0     C67938  -0.455   9.497   7.326 -0.6370  0.2062 -0.0956
  504MOL0     C67939  -0.582   9.499   7.381  0.6580 -0.2943 -0.2564
  504MOL0     C67940  -0.672   9.408   7.340 -0.1261  0.4814 -0.1314
  504MOL0     O67941  -0.803   9.425   7.379 -0.7463 -0.2123  0.2552
  504MOL0     C67942  -0.883   9.307   7.389 -1.0153  0.3227  0.2114
  504MOL0     C67943  -1.007   9.340   7.474  0.4525 -0.2132 -0.4363
  504MOL0     C67944  -1.085   9.468   7.446  0.0055 -0.0498 -0.9611
  504MOL0     C67945  -1.232   9.435   7.494 -0.1254 -0.1579  0.0903
  504MOL0     C67946  -1.309   9.569   7.482  0.5482  0.6491 -0.1948
  504MOL0     C67947  -1.453   9.537   7.541 -0.5812 -0.0646  0.0945
  504MOL0     C67948  -1.533   9.665   7.569 -0.2648  0.1416  0.2616
  504MOL0     C67949  -1.668   9.628   7.628  0.3396 -0.2396  0.0006
  504MOL0    Cl67950  -1.779   9.765   7.596 -0.1757  0.0528 -0.1057
  504MOL0     C67951  -0.635   9.300   7.258 -0.4128 -0.5091  0.3497
  504MOL0     C67952  -0.500   9.287   7.219  0.2743 -0.1247  1.1576
  504MOL0     O67953  -0.318   9.339   6.987 -0.2239  0.1739  0.3716
  504MOL0     C67954  -0.015   9.304   7.140  1.1351 -0.2098 -0.5985
  504MOL0     C67955   0.119   9.290   7.107  1.0707 -0.2507  0.1466
  504MOL0     N67956   0.552   8.883   6.926  0.0160  0.5037 -0.0971
  504MOL0     N67957   0.564   8.752   6.924 -0.2708  0.0356 -0.4714
  504MOL0     C67958   1.613   8.229   6.546  0.6560  0.1845  0.6904
  504MOL0     C67959   1.740   8.173   6.547  0.6284  0.6941  0.1733
  504MOL0     C67960   2.137   8.050   6.617  0.5431 -0.1299 -0.2522
  504MOL0     C67961   2.142   7.941   6.528  0.4940  0.0369  0.3530
  504MOL0     C67962   2.263   7.899   6.475 -0.0903 -0.1033 -1.1959
  504MOL0     C67963   2.386   7.961   6.522 -0.2017  0.4162  0.2394
  504MOL0     O67964   2.503   7.906   6.481 -0.1462 -0.5935  1.0659
  504MOL0     C67965   2.632   7.918   6.564  0.7077  0.4953 -0.1549
  504MOL0     C67966   2.725   7.800   6.534  0.2451 -0.8102 -0.3219
  504MOL0     C67967   2.655   7.684   6.477 -0.1125  0.6289  0.5448
  504MOL0     C67968   2.743   7.551   6.474  0.1898 -0.0929  0.3053
  504MOL0     C67969   2.750   7.473   6.596 -0.2960  0.2220 -0.4139
  504MOL0     C67970   2.767   7.396   6.691  0.7492 -1.0412  0.2910
  504MOL0     C67971   2.379   8.060   6.623 -0.1052 -0.4731  0.0875
  504MOL0     C67972   2.255   8.105   6.669 -0.0463 -0.6112  0.2770
  504MOL0     H67973   1.698   7.962   6.815 -1.0989  0.2430 -0.2628
  504MOL0     H67974   1.476   8.013   6.773 -1.2494  0.0659 -1.5536
  504MOL0     H67975   1.404   8.399   6.538 -2.1255  1.1587 -0.8532
  504MOL0     H67976   1.246   8.354   6.616 -0.0464  1.6583 -2.1289
  504MOL0     H67977   1.395   8.376   6.830  2.7706 -0.0733 -0.1897
  504MOL0     H67978   1.506   8.458   6.719 -0.2714  0.2243 -0.2946
  504MOL0     H67979   1.382   8.643   6.767  1.3340 -0.7312 -2.0153
  504MOL0     H67980   1.283   8.594   6.641 -0.9595  2.2612 -0.0056
  504MOL0     H67981   1.147   8.459   6.799 -2.6692  1.2562  3.9948
  504MOL0     H67982   1.238   8.520   6.936  0.5130  0.8182  0.3264
  504MOL0     H67983   1.190   8.737   6.923  1.3185 -0.8993 -0.2174
  504MOL0     H67984   1.115   8.731   6.757 -2.9377  1.9965  2.4360
  504MOL0     H67985   1.012   8.586   6.991 -0.4057  3.2156  1.9316
  504MOL0     H67986   0.949   8.747   6.945 -1.3408 -0.3737 -2.0980
  504MOL0     H67987   0.907   8.660   6.716  2.1120  0.3808  2.1090
  504MOL0     H67988   0.926   8.499   6.781  2.4269  0.3788 -0.7311
  504MOL0     H67989   0.735   8.538   6.932  0.1221  2.5220  2.6808
  504MOL0     H67990   0.688   8.543   6.758  0.3507  0.4124 -0.4640
  504MOL0     H67991   0.832   8.866   6.772 -1.1017 -0.1056  0.0524
  504MOL0     H67992   0.705   9.138   6.888  0.9490 -0.0914 -1.5250
  504MOL0     H67993   0.673   9.121   6.719 -0.4382  2.1747 -0.6900
  504MOL0     H67994   0.439   9.112   6.919 -2.4375  0.5573  0.5628
  504MOL0     H67995   0.428   9.141   6.747  1.4528 -0.1742 -1.7016
  504MOL0     H67996   0.564   9.360   6.785  1.0186 -0.2066  1.6051
  504MOL0     H67997   0.561   9.341   6.949 -2.1231  3.0311 -0.4201
  504MOL0     H67998   0.317   9.353   6.781 -1.4368  1.5047  0.1355
  504MOL0     H67999   0.376   9.484   6.896  2.0224 -0.6146  0.1224
  504MOL0     H68000   0.116   9.448   6.803 -1.9194 -1.1589 -0.7747
  504MOL0     H68001  -0.216   9.552   6.868 -1.9220 -2.6928 -0.6251
  504MOL0     H68002  -0.087   9.552   6.748 -1.0366  1.1394 -0.1452
  504MOL0     H68003  -0.183   9.405   6.767 -1.1594  1.5111 -1.4971
  504MOL0     H68004  -0.382   9.576   7.340  1.5748 -1.3903 -1.8633
  504MOL0     H68005  -0.615   9.589   7.431 -0.3960  0.2213 -1.8158
  504MOL0     H68006  -0.913   9.288   7.285  0.8063 -0.0747 -0.2810
  504MOL0     H68007  -0.828   9.222   7.430  2.6507  0.2143 -4.1508
  504MOL0     H68008  -1.077   9.257   7.462  2.1035 -1.7506  0.1954
  504MOL0     H68009  -0.969   9.339   7.576 -0.8804 -0.7073  0.0829
  504MOL0     H68010  -1.092   9.493   7.339 -2.1668  1.5453 -0.5195
  504MOL0     H68011  -1.047   9.563   7.483 -0.7267 -0.4213  0.8528
  504MOL0     H68012  -1.285   9.365   7.429 -1.0117 -0.3207  0.9777
  504MOL0     H68013  -1.234   9.393   7.595 -0.2634  0.1378  0.2110
  504MOL0     H68014  -1.312   9.607   7.380  1.9314 -0.3381 -0.6261
  504MOL0     H68015  -1.280   9.655   7.544 -3.4281  3.1212 -1.3654
  504MOL0     H68016  -1.507   9.462   7.483 -0.4713 -0.9718  1.1259
  504MOL0     H68017  -1.432   9.486   7.636 -1.5106 -0.9462 -0.1570
  504MOL0     H68018  -1.545   9.718   7.474 -3.2560 -1.2801 -0.2511
  504MOL0     H68019  -1.477   9.724   7.643  1.3277 -1.1554  0.1601
  504MOL0     H68020  -1.665   9.619   7.737 -0.3192 -0.8528 -0.0287
  504MOL0     H68021  -1.715   9.541   7.581 -0.5889  1.3240 -2.1824
  504MOL0     H68022  -0.718   9.242   7.222 -0.4392 -0.9950  1.1760
  504MOL0     H68023  -0.470   9.200   7.160 -0.3764 -0.5731  1.4839
  504MOL0     H68024  -0.054   9.261   7.232  2.2299  0.5024  0.2120
  504MOL0     H68025   0.194   9.248   7.172 -1.3933 -3.8753  0.9622
  504MOL0     H68026   1.589   8.301   6.468 -1.1913 -2.5993 -1.5308
  504MOL0     H68027   1.811   8.225   6.484  1.1710  0.6823  0.7621
  504MOL0     H68028   2.048   7.902   6.491  0.7949 -0.0033 -0.3896
  504MOL0     H68029   2.260   7.825   6.395 -1.4246 -0.8440 -0.4939
  504MOL0     H68030   2.684   8.014   6.559  2.4064 -0.2776  1.4706
  504MOL0     H68031   2.594   7.901   6.666 -0.3628  3.2895  0.0099
  504MOL0     H68032   2.788   7.782   6.622  1.2079  2.0978 -0.2944
  504MOL0     H68033   2.794   7.850   6.466 -3.7790  1.4797 -3.2018
  504MOL0     H68034   2.633   7.704   6.372 -0.0121 -1.7278  0.0058
  504MOL0     H68035   2.566   7.652   6.532  2.3582 -1.1099  3.9024
  504MOL0     H68036   2.841   7.581   6.438 -0.5879  0.7431 -1.2194
  504MOL0     H68037   2.703   7.488   6.394  1.0833 -1.0410  0.5950
  504MOL0     H68038   2.790   7.332   6.774 -1.1913 -2.8429 -0.4857
  504MOL0     H68039   2.470   8.098   6.668  0.7706 -0.2009 -1.8113
  504MOL0     H68040   2.265   8.174   6.752  2.4187 -0.8183  0.2072
  505MOL0     O68041   9.012   4.641   6.019 -0.2440  0.9508 -0.0979
  505MOL0     C68042   9.022   4.531   6.070  1.0789  0.0890 -0.1592
  505MOL0     O68043   8.929   4.437   6.073 -0.2278  0.0258 -0.0321
  505MOL0     C68044   8.826   4.453   5.983 -0.3472 -0.4280 -0.1606
  505MOL0     C68045   8.709   4.539   6.004 -0.2467  0.0779 -0.4948
  505MOL0     C68046   8.613   4.561   5.904 -1.0894 -1.0454 -0.1581
  505MOL0     C68047   8.626   4.499   5.785  0.0019  1.1804  0.7562
  505MOL0     O68048   8.522   4.529   5.703 -0.3125  0.3239 -0.3723
  505MOL0     C68049   8.511   4.485   5.565  0.5998 -0.2151 -0.2948
  505MOL0     C68050   8.370   4.423   5.538 -0.7385 -0.7141 -0.5299
  505MOL0     C68051   8.362   4.377   5.392  0.2969  0.1305  0.4372
  505MOL0     C68052   8.223   4.364   5.340  0.4399 -0.3002  0.5630
  505MOL0     C68053   8.129   4.258   5.404 -1.0520  0.8525  0.6360
  505MOL0     C68054   8.195   4.125   5.445 -1.0917  0.1606 -0.0402
  505MOL0     C68055   8.111   4.000   5.449  0.0776  0.5452  0.5286
  505MOL0     C68056   8.188   3.870   5.429  0.3653 -0.6587  0.6603
  505MOL0     N68057   8.103   3.758   5.479  0.6445 -0.0939 -0.7503
  505MOL0     C68058   8.099   3.724   5.616 -0.5035 -1.1724  0.1530
  505MOL0     C68059   8.004   3.630   5.614  0.5278 -0.2776 -0.1849
  505MOL0     C68060   7.964   3.548   5.737 -0.6122 -0.0574 -0.1751
  505MOL0     C68061   7.948   3.655   5.851 -0.2383  0.6420 -0.1233
  505MOL0     C68062   7.852   3.771   5.827  0.1612 -0.6115  1.2682
  505MOL0     C68063   7.766   3.823   5.947 -0.0293 -0.4624 -0.4315
  505MOL0     O68064   7.723   3.951   5.902  1.2331  0.0637  0.2983
  505MOL0     C68065   7.624   4.004   5.976  0.8475  0.9577 -0.6204
  505MOL0     C68066   7.594   4.132   5.936  0.6337  0.1697  0.6508
  505MOL0     C68067   7.494   4.210   5.990 -0.4419 -0.0740 -0.2934
  505MOL0     C68068   7.487   4.356   5.949  0.2500  0.2675 -0.4566
  505MOL0     C68069   7.401   4.157   6.085 -0.4702  0.7327 -0.0963
  505MOL0     C68070   7.277   4.224   6.122  0.4603 -0.4702 -0.1255
  505MOL0     O68071   7.216   4.166   6.228  0.0564 -1.2178  0.4025
  505MOL0     C68072   7.084   4.190   6.236  0.1657  0.1252  0.3325
  505MOL0     C68073   6.993   4.090   6.202 -0.0119 -0.2308  0.2128
  505MOL0     C68074   6.858   4.101   6.219 -0.3657  0.8033  0.8853
  505MOL0     C68075   6.806   4.224   6.263  0.5069 -0.0864  0.2917
  505MOL0     O68076   6.675   4.238   6.290  0.5465  0.1673 -0.1894
  505MOL0     C68077   6.630   4.165   6.406 -0.4702 -0.9799 -0.0287
  505MOL0     C68078   6.478   4.215   6.438  0.1978 -0.7090 -0.3278
  505MOL0     C68079   6.436   4.118   6.553 -0.9529 -0.0046 -0.4664
  505MOL0     C68080   6.280   4.122   6.554 -0.9462  0.0685 -0.8847
  505MOL0     C68081   6.224   4.082   6.695  0.3871 -0.1481  0.6881
  505MOL0     C68082   6.261   3.943   6.744  0.2105 -0.2830  0.3112
  505MOL0     C68083   6.203   3.833   6.656 -0.1585 -0.4175 -0.1068
  505MOL0     C68084   6.220   3.682   6.694 -0.1016 -0.4345  0.3450
  505MOL0    Cl68085   6.395   3.649   6.725 -0.0759 -0.3518 -0.4780
  505MOL0     C68086   6.897   4.329   6.304  0.1031  0.7178  0.1137
  505MOL0     C68087   7.034   4.308   6.280 -1.0364  0.7440  0.3384
  505MOL0     O68088   7.231   4.306   6.043 -0.3360  0.6229  0.0289
  505MOL0     C68089   7.423   4.018   6.128 -0.4263 -0.0967  0.1344
  505MOL0     C68090   7.535   3.943   6.076 -0.1395 -0.6045 -0.3126
  505MOL0     N68091   7.943   3.618   5.492 -0.4772 -0.6250 -0.1937
  505MOL0     N68092   8.011   3.683   5.408  0.6754 -0.6159 -1.0446
  505MOL0     C68093   8.734   4.412   5.755 -0.3965  0.9294 -0.2943
  505MOL0     C68094   8.837   4.392   5.854  0.3590 -0.9570  0.0456
  505MOL0     C68095   9.150   4.509   6.139  0.1401 -0.2762  1.4145
  505MOL0     C68096   9.180   4.388   6.205 -0.0945  0.7685  0.8870
  505MOL0     C68097   9.299   4.357   6.265  0.2020 -0.2553 -0.5709
  505MOL0     C68098   9.407   4.447   6.262 -0.5376 -1.1496  0.1333
  505MOL0     O68099   9.529   4.436   6.322 -0.0641 -0.0514 -0.5173
  505MOL0     C68100   9.567   4.301   6.367 -0.6508 -0.2220  0.8376
  505MOL0     C68101   9.699   4.306   6.443  0.3803 -0.3255  0.7796
  505MOL0     C68102   9.694   4.410   6.556 -0.1590  0.0669  0.3963
  505MOL0     C68103   9.815   4.388   6.654 -0.0792 -0.4795 -0.0616
  505MOL0     C68104   9.943   4.408   6.575 -0.3054  0.5216 -0.2150
  505MOL0     C68105  10.049   4.401   6.510  0.9215  0.2830  0.2734
  505MOL0     C68106   9.379   4.572   6.190  0.0571  0.1332 -0.1813
  505MOL0     C68107   9.253   4.600   6.136  0.6249  0.0370  1.6094
  505MOL0     H68108   8.692   4.601   6.091  1.9595  0.9474 -0.6011
  505MOL0     H68109   8.530   4.629   5.922  0.4150  1.0315 -0.6893
  505MOL0     H68110   8.514   4.578   5.508 -0.6344  0.5961  0.8886
  505MOL0     H68111   8.578   4.403   5.538 -2.8435 -3.9423  1.3065
  505MOL0     H68112   8.362   4.339   5.608 -0.2368 -0.1342  0.2410
  505MOL0     H68113   8.293   4.490   5.575 -0.3731 -0.8331  0.4744
  505MOL0     H68114   8.410   4.451   5.328 -0.6344  2.2666  2.0687
  505MOL0     H68115   8.419   4.285   5.381  1.7465  1.3526 -4.5056
  505MOL0     H68116   8.168   4.459   5.337 -0.6438 -0.8608  1.8565
  505MOL0     H68117   8.232   4.328   5.237  1.7236 -1.4695  1.0610
  505MOL0     H68118   8.079   4.310   5.487 -0.6657  0.5630  1.0529
  505MOL0     H68119   8.046   4.237   5.336  1.5255 -1.3511 -2.1007
  505MOL0     H68120   8.276   4.105   5.375 -0.6415 -2.4542  1.0951
  505MOL0     H68121   8.243   4.141   5.542  0.3092  0.0708 -0.6988
  505MOL0     H68122   8.059   3.999   5.545 -2.0307 -1.1906 -0.5590
  505MOL0     H68123   8.035   4.011   5.371  0.7331 -2.8916 -0.7957
  505MOL0     H68124   8.284   3.886   5.478  1.5182 -0.7243 -1.4594
  505MOL0     H68125   8.208   3.852   5.323 -2.2062  0.3989 -0.0998
  505MOL0     H68126   8.152   3.760   5.704  0.0327 -1.7906  0.0852
  505MOL0     H68127   7.868   3.498   5.722 -1.3416  1.4883 -0.9064
  505MOL0     H68128   8.045   3.477   5.756 -1.5517 -1.2548 -0.5343
  505MOL0     H68129   8.047   3.694   5.878  1.1424 -1.7981 -1.2643
  505MOL0     H68130   7.917   3.608   5.945  0.0769  1.2151  0.2729
  505MOL0     H68131   7.793   3.749   5.737 -0.8117  0.2965  1.6654
  505MOL0     H68132   7.908   3.860   5.796 -0.6429 -0.8958 -1.2477
  505MOL0     H68133   7.824   3.832   6.039 -1.4106 -1.0898  0.5432
  505MOL0     H68134   7.681   3.756   5.965 -0.9761  1.0480  1.1295
  505MOL0     H68135   7.650   4.178   5.856  1.0828  0.2301  0.9974
  505MOL0     H68136   7.586   4.389   5.917  0.2508  1.1675  0.3977
  505MOL0     H68137   7.424   4.357   5.860 -0.8910 -3.0492  0.1625
  505MOL0     H68138   7.447   4.417   6.031  1.9793  1.0517 -0.1538
  505MOL0     H68139   7.030   3.997   6.159 -0.1662 -0.6148  0.8846
  505MOL0     H68140   6.788   4.024   6.187  2.3701 -0.4057 -2.8857
  505MOL0     H68141   6.625   4.058   6.385 -1.9621 -0.8139 -0.7206
  505MOL0     H68142   6.699   4.193   6.485  1.4249 -1.7772 -1.3353
  505MOL0     H68143   6.475   4.320   6.467  1.0178 -0.4628 -1.0777
  505MOL0     H68144   6.427   4.194   6.344  0.6354 -2.1533 -0.2636
  505MOL0     H68145   6.485   4.140   6.648 -1.5835 -0.8640  0.0762
  505MOL0     H68146   6.477   4.017   6.542 -0.8432  0.1299 -1.3738
  505MOL0     H68147   6.236   4.215   6.517  0.3749  0.9387 -0.3503
  505MOL0     H68148   6.253   4.046   6.480  2.6591 -0.2217 -2.0890
  505MOL0     H68149   6.115   4.092   6.682  0.1836 -0.9710  1.6153
  505MOL0     H68150   6.254   4.148   6.777 -3.2319  0.1194  1.9993
  505MOL0     H68151   6.370   3.930   6.744  0.0093 -2.2229  1.3839
  505MOL0     H68152   6.231   3.926   6.848  0.4128  1.8137  0.7505
  505MOL0     H68153   6.249   3.849   6.558 -0.4830  0.8490 -0.0582
  505MOL0     H68154   6.095   3.843   6.645 -0.6135 -0.4157  3.3495
  505MOL0     H68155   6.175   3.622   6.614 -0.5485  1.4235 -0.8567
  505MOL0     H68156   6.173   3.654   6.789  2.1934  1.0168  1.9935
  505MOL0     H68157   6.855   4.421   6.344 -0.2316  0.9488 -0.7521
  505MOL0     H68158   7.100   4.394   6.283 -1.8148  1.3749 -0.1066
  505MOL0     H68159   7.349   3.980   6.198 -2.3295  0.8237 -1.2916
  505MOL0     H68160   7.541   3.844   6.119  0.4641  0.0058  1.0574
  505MOL0     H68161   8.744   4.365   5.658  2.3045  3.1358 -1.2268
  505MOL0     H68162   8.928   4.337   5.832  1.8799  2.1826 -2.2576
  505MOL0     H68163   9.097   4.317   6.203  0.9785 -0.6768 -3.7512
  505MOL0     H68164   9.303   4.271   6.331  3.2707  1.0662  1.1891
  505MOL0     H68165   9.488   4.255   6.426 -1.1724 -0.2049  0.1735
  505MOL0     H68166   9.587   4.237   6.280  0.0235 -0.9920  1.5525
  505MOL0     H68167   9.774   4.318   6.364  0.2878  0.3728  0.7994
  505MOL0     H68168   9.724   4.211   6.493 -2.0202 -0.8364  1.1162
  505MOL0     H68169   9.601   4.392   6.611 -1.2099 -2.6468 -2.0061
  505MOL0     H68170   9.701   4.506   6.503  0.9196  0.2886  0.9299
  505MOL0     H68171   9.808   4.287   6.696  0.0502 -0.4494  0.0295
  505MOL0     H68172   9.815   4.474   6.721 -0.6920  0.9507 -1.7973
  505MOL0     H68173  10.137   4.369   6.457  3.2404  0.3211  3.7877
  505MOL0     H68174   9.457   4.645   6.172 -2.1514  2.3446 -1.3759
  505MOL0     H68175   9.239   4.694   6.084  1.8007  0.5145  2.1109
  506MOL0     O68176   8.183   9.790   5.773  0.3664 -0.2330 -0.1138
  506MOL0     C68177   8.184   9.700   5.856 -0.4899  1.1248  0.3654
  506MOL0     O68178   8.070   9.652   5.924 -0.4355  0.1484  0.1304
  506MOL0     C68179   7.936   9.686   5.895 -0.0189  0.1959  0.7482
  506MOL0     C68180   7.841   9.605   5.960  0.3729 -0.1616 -0.1061
  506MOL0     C68181   7.705   9.632   5.935  0.2125  0.2811 -0.2214
  506MOL0     C68182   7.665   9.734   5.847 -0.7001  0.7273 -0.0752
  506MOL0     O68183   7.543   9.780   5.828 -0.3576  0.2083  0.1032
  506MOL0     C68184   7.427   9.693   5.866  1.1517  0.8060  0.0969
  506MOL0     C68185   7.301   9.783   5.846  0.3323  0.2239  0.6550
  506MOL0     C68186   7.168   9.703   5.859 -0.0192 -0.3431  0.3742
  506MOL0     C68187   7.058   9.791   5.786  0.0934  0.3834  0.1029
  506MOL0     C68188   6.918   9.726   5.816  0.2348  0.9089  0.2418
  506MOL0     C68189   6.805   9.829   5.773 -0.8693 -0.1383  0.8075
  506MOL0     C68190   6.663   9.764   5.775  0.8919 -0.3497 -0.3307
  506MOL0     C68191   6.606   9.755   5.919 -0.5573  0.2592  0.7250
  506MOL0     N68192   6.471   9.711   5.895 -0.8300 -0.0068 -0.5486
  506MOL0     C68193   6.419   9.577   5.900 -0.8313 -1.3172  0.2753
  506MOL0     C68194   6.289   9.598   5.916  0.2231  0.0897  0.4517
  506MOL0     C68195   6.194   9.483   5.946  0.2330  0.0396  0.2933
  506MOL0     C68196   6.091   9.529   6.049 -0.0994  0.2694 -0.1639
  506MOL0     C68197   5.996   9.411   6.088  0.7153  0.1041 -0.6362
  506MOL0     C68198   5.882   9.452   6.168  0.0076 -0.1220 -0.6990
  506MOL0     O68199   5.810   9.334   6.200  0.3980  0.4123 -0.1679
  506MOL0     C68200   5.742   9.331   6.320 -0.0335 -0.3836  0.1568
  506MOL0     C68201   5.731   9.208   6.385 -0.0478  0.1876 -0.3673
  506MOL0     C68202   5.654   9.200   6.510 -0.5281  0.0861  0.2909
  506MOL0     C68203   5.657   9.070   6.578  0.2368 -0.0970  0.0616
  506MOL0     C68204   5.604   9.316   6.570  0.9029  0.0713 -0.0862
  506MOL0     C68205   5.557   9.327   6.709  0.0446  0.1918  0.0802
  506MOL0     O68206   5.435   9.354   6.744  0.2426 -0.1374  0.2137
  506MOL0     C68207   5.404   9.337   6.878 -0.5392 -0.2438 -0.2337
  506MOL0     C68208   5.363   9.219   6.927  0.1877 -0.0619 -1.7212
  506MOL0     C68209   5.328   9.213   7.065  0.4133  0.1801 -0.3783
  506MOL0     C68210   5.330   9.318   7.160 -0.6010 -0.4396  1.0764
  506MOL0     O68211   5.278   9.301   7.279  0.1520  0.5319 -0.1502
  506MOL0     C68212   5.238   9.411   7.360  0.3524 -0.0880 -0.0158
  506MOL0     C68213   5.108   9.468   7.309 -0.0066 -0.6857  0.1966
  506MOL0     C68214   5.038   9.573   7.397  0.7518 -0.2909 -0.9627
  506MOL0     C68215   4.998   9.521   7.539  0.9423  0.0659 -0.8799
  506MOL0     C68216   4.907   9.621   7.595 -0.5355  0.1463  0.0622
  506MOL0     C68217   4.871   9.599   7.739  1.4456  0.2223 -0.6514
  506MOL0     C68218   4.787   9.712   7.807  0.4840  0.0178  0.6389
  506MOL0     C68219   4.708   9.654   7.925 -0.1567  0.0869  0.0426
  506MOL0    Cl68220   4.823   9.587   8.052 -0.2959  0.4059  0.1626
  506MOL0     C68221   5.380   9.440   7.106  0.7245  0.6145 -0.2628
  506MOL0     C68222   5.422   9.445   6.967  0.5372 -0.3287  0.4158
  506MOL0     O68223   5.648   9.309   6.786  0.1423 -0.3377 -0.4505
  506MOL0     C68224   5.613   9.440   6.496  0.0705 -0.2415 -0.0329
  506MOL0     C68225   5.670   9.437   6.368 -0.0021 -0.3893 -0.8393
  506MOL0     N68226   6.261   9.737   5.913  1.1145  0.5171  0.1126
  506MOL0     N68227   6.372   9.802   5.897 -0.9258  0.0582 -0.6521
  506MOL0     C68228   7.763   9.820   5.795 -0.0705 -0.6846 -0.6445
  506MOL0     C68229   7.898   9.798   5.811  0.7222 -0.5903  0.3427
  506MOL0     C68230   8.317   9.639   5.898 -0.0802  0.4829  0.1785
  506MOL0     C68231   8.430   9.664   5.828  0.5114  0.5128  1.1402
  506MOL0     C68232   8.543   9.592   5.849  0.1951  0.2039  0.5638
  506MOL0     C68233   8.556   9.496   5.948  0.3486 -0.0810  0.5408
  506MOL0     O68234   8.660   9.410   5.973 -0.2860 -0.1210  0.6809
  506MOL0     C68235   8.787   9.457   5.923  0.3916 -0.0324 -0.0978
  506MOL0     C68236   8.914   9.388   5.982 -0.5838 -0.6939  0.0242
  506MOL0     C68237   8.921   9.241   5.941 -1.2358  0.6707 -0.4477
  506MOL0     C68238   9.046   9.180   6.013  0.7696 -0.5735  0.1801
  506MOL0     C68239   9.056   9.029   5.991 -0.4449 -0.3175  0.1662
  506MOL0     C68240   9.078   8.907   5.988  0.5188  0.1683  0.9965
  506MOL0     C68241   8.440   9.467   6.021 -0.4934 -0.1535 -0.5268
  506MOL0     C68242   8.319   9.538   5.999 -0.3851 -0.7672  0.7182
  506MOL0     H68243   7.869   9.517   6.017  2.1921  0.2197 -0.3389
  506MOL0     H68244   7.635   9.561   5.978 -0.6417  0.0837 -1.8598
  506MOL0     H68245   7.412   9.608   5.798 -2.8684  2.9523 -2.0270
  506MOL0     H68246   7.446   9.654   5.967 -0.4225 -1.2159 -0.3228
  506MOL0     H68247   7.283   9.861   5.921 -1.8672  2.1846 -1.7116
  506MOL0     H68248   7.304   9.818   5.743 -0.9507  0.3197  0.6391
  506MOL0     H68249   7.176   9.607   5.806  0.8975 -0.3892  0.5643
  506MOL0     H68250   7.134   9.682   5.960 -2.7231 -0.3819 -0.4779
  506MOL0     H68251   7.051   9.893   5.824 -2.7766 -0.0150  0.8931
  506MOL0     H68252   7.068   9.792   5.677 -1.5900  2.7146 -0.0992
  506MOL0     H68253   6.902   9.630   5.766 -1.0250  1.0697  0.2880
  506MOL0     H68254   6.913   9.701   5.922  1.1203 -0.7195 -0.0648
  506MOL0     H68255   6.811   9.910   5.846  0.8761 -1.8875  2.7305
  506MOL0     H68256   6.829   9.872   5.676  2.8202 -2.0829  0.6858
  506MOL0     H68257   6.594   9.831   5.723  0.5391 -3.4238 -4.3328
  506MOL0     H68258   6.652   9.665   5.729 -1.9625 -0.9762  1.4646
  506MOL0     H68259   6.612   9.851   5.970  1.8367  0.7704 -0.3773
  506MOL0     H68260   6.646   9.674   5.981 -0.4338 -0.9160 -0.8147
  506MOL0     H68261   6.477   9.485   5.900 -2.6804 -2.6337 -2.3899
  506MOL0     H68262   6.138   9.460   5.855 -0.3718  2.8465 -0.1298
  506MOL0     H68263   6.247   9.393   5.978 -0.0116  0.1514  1.0393
  506MOL0     H68264   6.027   9.610   6.014 -0.1846 -0.2956 -1.4046
  506MOL0     H68265   6.140   9.561   6.141 -1.1046 -0.3869  0.6306
  506MOL0     H68266   6.047   9.327   6.134 -1.8641 -2.7538 -2.6303
  506MOL0     H68267   5.959   9.371   5.993 -0.7608 -3.8367  1.3779
  506MOL0     H68268   5.814   9.516   6.111  0.8891 -1.2666 -3.1777
  506MOL0     H68269   5.913   9.509   6.255  0.1929 -0.2782 -0.6603
  506MOL0     H68270   5.767   9.120   6.331  2.6038  0.5970  0.5980
  506MOL0     H68271   5.639   8.989   6.506 -5.0848  1.0573 -0.3243
  506MOL0     H68272   5.760   9.056   6.612 -0.8520 -1.4334  3.1036
  506MOL0     H68273   5.575   9.061   6.649 -1.0408 -0.2748 -1.3830
  506MOL0     H68274   5.350   9.132   6.863 -0.2436 -0.4637 -1.0964
  506MOL0     H68275   5.300   9.118   7.109  2.8273 -0.0331  0.8507
  506MOL0     H68276   5.224   9.367   7.459  2.1525  0.2921  0.4436
  506MOL0     H68277   5.316   9.487   7.372 -1.0810  1.5978 -0.8248
  506MOL0     H68278   5.118   9.505   7.207  2.0758 -0.8566  0.2922
  506MOL0     H68279   5.040   9.383   7.302 -0.5715 -0.3512  1.3599
  506MOL0     H68280   4.937   9.599   7.362 -1.5021 -1.2458  4.0082
  506MOL0     H68281   5.094   9.666   7.394 -0.5709  0.5158 -1.4461
  506MOL0     H68282   4.946   9.425   7.532  0.4164  0.2811 -0.0004
  506MOL0     H68283   5.082   9.521   7.609 -0.4277  1.5238  0.8438
  506MOL0     H68284   4.810   9.637   7.549 -1.5031  2.5338  2.6107
  506MOL0     H68285   4.953   9.719   7.579 -3.0143  1.6821  1.6979
  506MOL0     H68286   4.827   9.499   7.742  1.4365  0.1771 -1.7569
  506MOL0     H68287   4.960   9.591   7.802  0.3956 -0.0602  0.8404
  506MOL0     H68288   4.718   9.754   7.734  1.4819  0.6051  0.0262
  506MOL0     H68289   4.858   9.792   7.830  2.5812 -0.9718 -1.8331
  506MOL0     H68290   4.639   9.585   7.875  0.5429  0.1362 -1.0366
  506MOL0     H68291   4.658   9.737   7.975  0.3638 -1.4428  3.4168
  506MOL0     H68292   5.398   9.531   7.163 -2.7411 -0.1968  2.4230
  506MOL0     H68293   5.475   9.530   6.924  2.1003 -1.2662  0.3973
  506MOL0     H68294   5.587   9.541   6.528  1.0841 -0.1349  0.5061
  506MOL0     H68295   5.676   9.525   6.306 -1.2832 -0.4518 -1.0863
  506MOL0     H68296   7.726   9.895   5.726 -0.4857  0.3496  0.6562
  506MOL0     H68297   7.964   9.867   5.758 -0.4905  0.6593  0.4121
  506MOL0     H68298   8.420   9.728   5.741 -0.3980 -1.7387 -0.5064
  506MOL0     H68299   8.631   9.614   5.790  1.1730 -3.3190  0.4942
  506MOL0     H68300   8.785   9.438   5.815 -0.3656 -0.5740  0.0057
  506MOL0     H68301   8.801   9.563   5.942  0.6902  0.2099 -1.5136
  506MOL0     H68302   8.904   9.388   6.091  0.2741  0.0555  0.1108
  506MOL0     H68303   9.003   9.447   5.961 -2.3611  2.3098  0.3344
  506MOL0     H68304   8.933   9.228   5.834 -0.5710  0.6616 -0.3737
  506MOL0     H68305   8.838   9.184   5.984  0.7977 -1.0346  1.4848
  506MOL0     H68306   9.028   9.203   6.119 -3.0119 -0.3236 -0.3893
  506MOL0     H68307   9.140   9.225   5.980  1.0052 -1.3870 -0.2829
  506MOL0     H68308   9.086   8.802   5.972  1.7503 -0.0686  2.9342
  506MOL0     H68309   8.441   9.393   6.100 -0.6064  3.1613  2.9215
  506MOL0     H68310   8.237   9.510   6.063  0.3633 -1.7419  1.2702
  507MOL0     O68311   1.176   0.642   7.194  0.5231  0.5041 -0.4339
  507MOL0     C68312   1.270   0.721   7.180  0.6372 -0.0234 -0.3196
  507MOL0     O68313   1.261   0.839   7.107  0.1542 -0.0045 -0.7567
  507MOL0     C68314   1.144   0.854   7.034 -0.5838 -0.5290 -0.8494
  507MOL0     C68315   1.150   0.825   6.904  0.3014 -0.3175 -0.3088
  507MOL0     C68316   1.036   0.838   6.818  0.4796 -0.6896  0.0018
  507MOL0     C68317   0.907   0.874   6.872 -0.2564  1.0369 -0.3823
  507MOL0     O68318   0.796   0.891   6.796  0.1808 -0.7017  0.4468
  507MOL0     C68319   0.778   0.789   6.704 -0.0666 -0.5247  0.8864
  507MOL0     C68320   0.636   0.804   6.636 -0.0033 -0.1172  0.3540
  507MOL0     C68321   0.521   0.779   6.734  0.0482  0.1988  0.6136
  507MOL0     C68322   0.393   0.791   6.661  0.9903 -0.2933 -0.0653
  507MOL0     C68323   0.275   0.723   6.737  0.3379 -0.3819 -0.1966
  507MOL0     C68324   0.252   0.771   6.882 -0.6452 -0.0773  0.7201
  507MOL0     C68325   0.115   0.751   6.941  0.2149 -0.3383 -0.4441
  507MOL0     C68326   0.069   0.609   6.943 -0.2352 -0.1561  0.2958
  507MOL0     N68327  -0.057   0.594   7.011 -0.4144 -0.1569 -0.7302
  507MOL0     C68328  -0.134   0.692   7.059 -0.1656 -0.7473  0.2524
  507MOL0     C68329  -0.230   0.638   7.127  0.2678  0.3268  1.2564
  507MOL0     C68330  -0.350   0.706   7.183  0.0949  0.0483 -0.0890
  507MOL0     C68331  -0.440   0.762   7.077 -0.6124 -0.3020 -0.4310
  507MOL0     C68332  -0.399   0.909   7.032  0.3393  0.6110 -0.0095
  507MOL0     C68333  -0.487   0.966   6.924 -0.4303 -0.0479 -0.3618
  507MOL0     O68334  -0.611   1.016   6.987  0.1338  0.6417  0.5995
  507MOL0     C68335  -0.720   0.943   6.954 -0.0092 -0.6235  0.2878
  507MOL0     C68336  -0.758   0.920   6.817  0.1048  0.3401  0.2746
  507MOL0     C68337  -0.882   0.862   6.795 -0.4102  0.1702 -0.1924
  507MOL0     C68338  -0.926   0.853   6.648 -0.0381 -0.5064  0.9373
  507MOL0     C68339  -0.966   0.810   6.899 -0.0475 -0.2214 -1.3663
  507MOL0     C68340  -1.104   0.750   6.878 -0.0458  0.2287 -0.5242
  507MOL0     O68341  -1.157   0.692   6.995  0.0358 -0.5093 -0.5987
  507MOL0     C68342  -1.267   0.618   6.989  0.3414 -0.2449 -0.3941
  507MOL0     C68343  -1.330   0.559   6.879  0.6623  0.1555  0.4490
  507MOL0     C68344  -1.459   0.506   6.894  0.5607 -0.0412  0.0657
  507MOL0     C68345  -1.529   0.508   7.011  0.0984 -0.5334 -0.2162
  507MOL0     O68346  -1.644   0.442   7.014  0.6742 -0.2463 -1.0745
  507MOL0     C68347  -1.720   0.382   6.910 -0.1951  0.8417 -0.6123
  507MOL0     C68348  -1.780   0.489   6.813 -0.1495  0.9428  0.1028
  507MOL0     C68349  -1.871   0.584   6.897 -1.0628  0.7549 -0.4514
  507MOL0     C68350  -1.997   0.629   6.821  0.1196 -0.1313 -0.2718
  507MOL0     C68351  -2.063   0.760   6.875 -0.3623  0.7972 -0.2007
  507MOL0     C68352  -2.204   0.779   6.811  0.6983  0.2360  0.2652
  507MOL0     C68353  -2.265   0.908   6.869 -0.2500 -0.7383  0.5473
  507MOL0     C68354  -2.356   0.998   6.777 -0.1176  0.2612 -0.1517
  507MOL0    Cl68355  -2.460   0.896   6.675  0.1844  0.3470 -0.1824
  507MOL0     C68356  -1.468   0.559   7.133 -0.0454 -0.1582 -0.2271
  507MOL0     C68357  -1.336   0.607   7.119  0.6326  0.9501 -0.0395
  507MOL0     O68358  -1.170   0.775   6.773  0.0076 -0.2089  0.6134
  507MOL0     C68359  -0.915   0.823   7.032  0.4110 -1.4647  0.0300
  507MOL0     C68360  -0.800   0.892   7.060  0.0299 -0.4272  0.4064
  507MOL0     N68361  -0.203   0.505   7.137  0.1419  0.6138 -0.9072
  507MOL0     N68362  -0.107   0.471   7.056 -0.8752  0.2326 -0.0429
  507MOL0     C68363   0.904   0.902   7.007  1.0515  0.6642 -0.3708
  507MOL0     C68364   1.020   0.896   7.081  0.4877  0.4259 -0.1520
  507MOL0     C68365   1.401   0.708   7.257 -0.5003 -0.1240  0.7978
  507MOL0     C68366   1.515   0.786   7.231  0.1567 -0.7472  0.5604
  507MOL0     C68367   1.629   0.779   7.310  1.1974 -0.3614  0.6606
  507MOL0     C68368   1.636   0.671   7.409 -0.1813  0.6688  0.6968
  507MOL0     O68369   1.755   0.675   7.474 -0.0117  0.3084 -0.6314
  507MOL0     C68370   1.759   0.611   7.598  0.3842 -0.1843 -1.1801
  507MOL0     C68371   1.898   0.615   7.664  0.4617  0.0238 -0.4543
  507MOL0     C68372   1.881   0.555   7.809 -0.3608 -0.1805  0.4132
  507MOL0     C68373   2.029   0.544   7.866 -0.0835 -0.3072 -0.6995
  507MOL0     C68374   2.088   0.672   7.890 -0.1006  0.1767  0.1033
  507MOL0     C68375   2.141   0.776   7.906  0.3042 -0.8781  0.2537
  507MOL0     C68376   1.521   0.596   7.428  0.1943 -0.1756  0.3708
  507MOL0     C68377   1.410   0.606   7.353  0.2561 -0.4811  0.6282
  507MOL0     H68378   1.240   0.782   6.861  0.8954 -0.8360  1.3669
  507MOL0     H68379   1.052   0.815   6.713  0.4897 -1.2781  0.1269
  507MOL0     H68380   0.853   0.802   6.626 -0.1637  1.8721  1.1319
  507MOL0     H68381   0.781   0.697   6.764 -0.7800  1.0399  3.4869
  507MOL0     H68382   0.636   0.903   6.590  4.6883  0.1976  0.5475
  507MOL0     H68383   0.628   0.728   6.557  1.8228 -2.9097  2.6310
  507MOL0     H68384   0.523   0.679   6.780 -2.3078  1.0260  2.7591
  507MOL0     H68385   0.531   0.850   6.816 -1.7204  0.6358  0.5046
  507MOL0     H68386   0.371   0.895   6.639 -1.3954 -0.8903 -0.8276
  507MOL0     H68387   0.402   0.747   6.561 -2.7150  0.3030 -0.8254
  507MOL0     H68388   0.188   0.739   6.673  0.4240 -1.5931 -0.6434
  507MOL0     H68389   0.291   0.615   6.736 -1.1494 -0.6176 -0.2124
  507MOL0     H68390   0.323   0.725   6.951 -1.5376 -1.9847  0.4410
  507MOL0     H68391   0.278   0.877   6.884  1.4037 -0.5144 -0.3159
  507MOL0     H68392   0.121   0.773   7.048  1.0596 -1.9206 -0.1367
  507MOL0     H68393   0.039   0.808   6.887  0.7847 -0.4730 -1.4095
  507MOL0     H68394   0.144   0.552   6.998 -0.3226  1.2439  1.9526
  507MOL0     H68395   0.057   0.565   6.843 -0.6357 -0.6144  0.5409
  507MOL0     H68396  -0.127   0.798   7.036 -0.2153 -0.9415 -0.6996
  507MOL0     H68397  -0.393   0.631   7.251 -0.1339  0.9014  0.7211
  507MOL0     H68398  -0.331   0.790   7.250 -2.2323  1.9880 -1.7026
  507MOL0     H68399  -0.540   0.773   7.121 -0.7654 -0.4148 -0.7484
  507MOL0     H68400  -0.450   0.690   6.996  2.2098  0.2507 -1.3768
  507MOL0     H68401  -0.298   0.906   6.990 -0.1666 -2.6635 -1.3520
  507MOL0     H68402  -0.396   0.978   7.117  3.5500 -1.4228  1.7453
  507MOL0     H68403  -0.499   0.888   6.847 -0.5368  0.5249 -0.9291
  507MOL0     H68404  -0.437   1.054   6.883 -0.4386  1.6533  2.9283
  507MOL0     H68405  -0.694   0.955   6.737 -1.0558 -0.1509 -0.9173
  507MOL0     H68406  -0.970   0.756   6.622 -0.4654 -0.2943  0.8591
  507MOL0     H68407  -0.991   0.935   6.617 -1.4631 -1.8348  0.3091
  507MOL0     H68408  -0.836   0.866   6.587  0.2329 -0.0880  1.4214
  507MOL0     H68409  -1.277   0.553   6.784  0.2949 -1.4143  0.3239
  507MOL0     H68410  -1.494   0.462   6.802  1.8791 -2.8901  0.8134
  507MOL0     H68411  -1.664   0.305   6.858 -0.6518 -0.1455  0.3115
  507MOL0     H68412  -1.802   0.330   6.961  0.0730 -1.6207 -2.5047
  507MOL0     H68413  -1.697   0.535   6.759  1.1253  1.1459  2.1145
  507MOL0     H68414  -1.842   0.428   6.747  0.1945  0.8522 -0.1329
  507MOL0     H68415  -1.814   0.674   6.923 -0.1788  1.1314 -3.2711
  507MOL0     H68416  -1.908   0.543   6.991  1.4429 -3.6454 -1.1099
  507MOL0     H68417  -1.976   0.658   6.718  2.0603  2.3624  0.7184
  507MOL0     H68418  -2.065   0.543   6.813 -0.0817  0.1319 -1.5864
  507MOL0     H68419  -1.992   0.839   6.852  0.9831 -1.1702 -3.4206
  507MOL0     H68420  -2.066   0.740   6.983 -0.2974 -1.9157 -0.6214
  507MOL0     H68421  -2.186   0.783   6.704  1.3532 -0.9812  0.3159
  507MOL0     H68422  -2.262   0.689   6.835  1.5444 -0.0168  1.4481
  507MOL0     H68423  -2.191   0.979   6.908 -0.4919  0.0436 -0.3606
  507MOL0     H68424  -2.316   0.876   6.960  2.5620 -2.0855  1.7662
  507MOL0     H68425  -2.296   1.056   6.706 -0.8080  0.0987 -0.8793
  507MOL0     H68426  -2.411   1.061   6.848 -3.9471 -1.4031 -1.3634
  507MOL0     H68427  -1.519   0.540   7.227  0.4989  1.4892  0.4425
  507MOL0     H68428  -1.279   0.637   7.206 -0.3105 -0.4375  1.1033
  507MOL0     H68429  -0.980   0.796   7.114 -1.5502  0.5777 -0.7520
  507MOL0     H68430  -0.772   0.922   7.161  0.4542  2.5578 -0.5257
  507MOL0     H68431   0.814   0.935   7.059  1.7207 -0.2094  1.3794
  507MOL0     H68432   1.023   0.907   7.189  2.9953 -0.9504 -0.0049
  507MOL0     H68433   1.529   0.857   7.150  2.9144  0.1721  1.7263
  507MOL0     H68434   1.714   0.841   7.284 -0.3984  0.4913 -3.2289
  507MOL0     H68435   1.681   0.641   7.669  1.1217 -1.9849  0.4775
  507MOL0     H68436   1.745   0.507   7.567  1.0387 -1.2904  1.8787
  507MOL0     H68437   1.940   0.716   7.670 -0.2764  0.2536  1.3111
  507MOL0     H68438   1.969   0.567   7.596 -0.2795 -0.0121 -1.2265
  507MOL0     H68439   1.844   0.453   7.795  1.3991 -0.7631 -0.2291
  507MOL0     H68440   1.812   0.613   7.870 -0.6442 -0.3774  0.2838
  507MOL0     H68441   2.091   0.487   7.797 -1.1797 -1.4716 -0.7659
  507MOL0     H68442   2.026   0.494   7.963  2.1368 -1.1748 -1.0322
  507MOL0     H68443   2.201   0.862   7.927  0.7339 -0.8691 -0.9259
  507MOL0     H68444   1.517   0.517   7.502 -1.3371 -0.1002  0.3980
  507MOL0     H68445   1.333   0.531   7.364 -1.4473  1.0837 -0.1831
  508MOL0     O68446   1.590   1.445   7.248  0.1125  0.5298  0.8054
  508MOL0     C68447   1.645   1.552   7.238 -1.1157  0.3499 -0.0072
  508MOL0     O68448   1.575   1.663   7.207  0.3129 -0.0186  0.2747
  508MOL0     C68449   1.438   1.654   7.190 -0.0979  0.4732  0.1641
  508MOL0     C68450   1.351   1.651   7.300 -0.2038  1.2089  0.0356
  508MOL0     C68451   1.209   1.659   7.290  0.5186 -0.6131  0.9238
  508MOL0     C68452   1.152   1.684   7.166  0.7250  0.2812 -0.2760
  508MOL0     O68453   1.021   1.701   7.142  0.1084 -0.4966  0.7430
  508MOL0     C68454   0.931   1.691   7.252 -0.9760  0.2674 -0.6881
  508MOL0     C68455   0.786   1.692   7.194  0.2184  0.0326 -0.5952
  508MOL0     C68456   0.674   1.676   7.299  0.5434  0.2016 -0.5832
  508MOL0     C68457   0.665   1.534   7.352  0.6080  0.0865 -0.6571
  508MOL0     C68458   0.549   1.521   7.459  0.0279 -0.1602  0.0734
  508MOL0     C68459   0.551   1.375   7.518 -0.0835  0.2550  0.5996
  508MOL0     C68460   0.414   1.360   7.586  0.9799 -0.8646  0.8047
  508MOL0     C68461   0.397   1.231   7.668 -0.0830 -0.4030 -0.1076
  508MOL0     N68462   0.269   1.242   7.736 -0.5691  0.3758 -0.1362
  508MOL0     C68463   0.231   1.180   7.856  0.0385  0.0503  0.4026
  508MOL0     C68464   0.102   1.219   7.875  0.1809 -0.6229 -0.3615
  508MOL0     C68465   0.020   1.181   8.001 -0.2308  0.4151 -0.3463
  508MOL0     C68466  -0.120   1.132   7.963 -0.0976 -0.4981  0.5809
  508MOL0     C68467  -0.191   1.048   8.055  0.2534  0.8996 -0.3257
  508MOL0     C68468  -0.335   1.019   8.017  0.7747 -0.7514 -0.8765
  508MOL0     O68469  -0.408   1.136   7.983  0.2753 -0.0113 -0.2439
  508MOL0     C68470  -0.546   1.130   7.982  0.3882  0.0884 -0.0601
  508MOL0     C68471  -0.624   1.215   8.061 -0.0168  0.4261  0.0622
  508MOL0     C68472  -0.764   1.216   8.066  0.2873  1.1082  0.2651
  508MOL0     C68473  -0.830   1.334   8.136 -0.6467  0.5709 -0.3461
  508MOL0     C68474  -0.835   1.114   7.998  0.5431  0.5691 -0.4726
  508MOL0     C68475  -0.980   1.081   8.034 -0.6459  0.4015 -0.9987
  508MOL0     O68476  -1.029   1.129   8.145 -0.6557 -0.2951  0.6834
  508MOL0     C68477  -1.151   1.084   8.187 -0.3193 -0.6659  0.0672
  508MOL0     C68478  -1.257   1.174   8.192 -0.0967 -0.3882 -0.4265
  508MOL0     C68479  -1.388   1.139   8.248 -0.9224  0.1459 -1.0004
  508MOL0     C68480  -1.403   1.010   8.297 -0.3596 -0.2177  0.0292
  508MOL0     O68481  -1.514   0.973   8.374 -0.4586  0.4719  0.4259
  508MOL0     C68482  -1.642   1.029   8.324  0.7526  0.4889  0.4774
  508MOL0     C68483  -1.648   0.983   8.178 -0.3824 -0.1853 -0.4886
  508MOL0     C68484  -1.771   1.027   8.101  0.0100  0.6288  0.3000
  508MOL0     C68485  -1.895   0.957   8.153  0.6273  0.3994  0.4283
  508MOL0     C68486  -2.010   0.975   8.055  0.4277  0.8588  0.8541
  508MOL0     C68487  -2.154   0.964   8.115  0.2452 -0.1367  0.7196
  508MOL0     C68488  -2.186   0.845   8.207 -0.0338  0.1103  0.0825
  508MOL0     C68489  -2.317   0.772   8.178  0.0727  0.9270 -0.1352
  508MOL0    Cl68490  -2.292   0.687   8.021  0.1814 -0.0467 -0.3089
  508MOL0     C68491  -1.292   0.923   8.287  0.3853 -0.0998 -0.3765
  508MOL0     C68492  -1.169   0.957   8.242 -1.0360  0.7274  0.5722
  508MOL0     O68493  -1.044   1.009   7.955  1.0011 -0.2696  0.5201
  508MOL0     C68494  -0.757   1.016   7.925  0.9297  0.2602  1.0325
  508MOL0     C68495  -0.624   1.037   7.911 -0.4387 -0.1588  0.0532
  508MOL0     N68496   0.072   1.311   7.773  0.2039  1.2364  0.8202
  508MOL0     N68497   0.165   1.307   7.681  1.0760  0.0234 -0.2542
  508MOL0     C68498   1.236   1.690   7.057  0.5360  0.9023 -1.0095
  508MOL0     C68499   1.380   1.667   7.067  0.0675 -0.6689 -0.1069
  508MOL0     C68500   1.797   1.548   7.258 -0.2174 -0.4080  0.8732
  508MOL0     C68501   1.871   1.660   7.214  0.6630  0.2518 -0.3237
  508MOL0     C68502   2.010   1.650   7.227 -0.5954 -0.0157  0.2297
  508MOL0     C68503   2.084   1.540   7.285  0.3286  0.4611  0.4073
  508MOL0     O68504   2.222   1.524   7.294  0.6435  0.0371 -0.0504
  508MOL0     C68505   2.321   1.612   7.242 -0.2594 -0.1618  0.5969
  508MOL0     C68506   2.451   1.537   7.250  0.2010  0.1100  0.3551
  508MOL0     C68507   2.552   1.619   7.181 -0.0008 -0.4124  0.0101
  508MOL0     C68508   2.691   1.561   7.180 -0.7280  0.3737 -0.4869
  508MOL0     C68509   2.773   1.660   7.107  0.7316  0.2609 -0.0704
  508MOL0     C68510   2.842   1.742   7.055 -1.1735  0.0834  0.7115
  508MOL0     C68511   2.005   1.432   7.327  0.7938 -0.6359  0.0568
  508MOL0     C68512   1.868   1.433   7.298 -0.4241  0.5564  0.3811
  508MOL0     H68513   1.397   1.627   7.396  1.7851  0.3478 -1.0764
  508MOL0     H68514   1.143   1.657   7.376  0.0892 -0.9994  0.5922
  508MOL0     H68515   0.943   1.597   7.307  2.1637 -0.1920 -1.9799
  508MOL0     H68516   0.942   1.774   7.322 -1.1205 -0.5611  0.3348
  508MOL0     H68517   0.773   1.795   7.160  1.5464  1.5308  2.9006
  508MOL0     H68518   0.766   1.622   7.113  0.0284 -0.6540  0.0386
  508MOL0     H68519   0.692   1.742   7.384  2.5065 -1.8220  0.6993
  508MOL0     H68520   0.579   1.707   7.256 -1.3482 -3.3295  0.6188
  508MOL0     H68521   0.638   1.467   7.270 -2.9043 -1.4871  1.5334
  508MOL0     H68522   0.763   1.505   7.391 -0.3466 -0.3080  1.6536
  508MOL0     H68523   0.564   1.579   7.550  1.6254 -1.5544  0.7415
  508MOL0     H68524   0.452   1.557   7.423  0.3619  1.7889  0.9762
  508MOL0     H68525   0.566   1.286   7.455  0.7011 -1.0187  2.5033
  508MOL0     H68526   0.633   1.362   7.589  0.0568 -0.3658  0.3303
  508MOL0     H68527   0.396   1.442   7.656  0.3881 -0.6532  0.4172
  508MOL0     H68528   0.330   1.370   7.517  0.4370  3.0274  1.8028
  508MOL0     H68529   0.476   1.208   7.741  0.1685  1.1280  0.1426
  508MOL0     H68530   0.385   1.144   7.604 -0.3498 -0.9401  0.6601
  508MOL0     H68531   0.292   1.126   7.927  1.4093 -1.5416 -1.8340
  508MOL0     H68532   0.074   1.108   8.061 -2.3110  2.0686  3.9240
  508MOL0     H68533   0.011   1.266   8.069  2.7603  0.5234  0.0752
  508MOL0     H68534  -0.117   1.061   7.880 -1.4242  0.2509 -0.1275
  508MOL0     H68535  -0.182   1.214   7.928 -0.3338 -0.7208  0.4720
  508MOL0     H68536  -0.189   1.099   8.151 -0.3230 -0.2740  0.3307
  508MOL0     H68537  -0.133   0.955   8.061  0.9437  0.9250 -3.9531
  508MOL0     H68538  -0.387   0.964   8.096  0.7638 -0.9474 -1.0191
  508MOL0     H68539  -0.338   0.943   7.938 -2.2471 -0.8805 -0.7819
  508MOL0     H68540  -0.575   1.288   8.125  0.4242 -0.2016  0.4554
  508MOL0     H68541  -0.928   1.343   8.088 -0.5099  0.0012 -0.7314
  508MOL0     H68542  -0.842   1.321   8.244  3.7135 -0.0381  0.2353
  508MOL0     H68543  -0.770   1.425   8.121 -0.0152 -0.3180 -3.8854
  508MOL0     H68544  -1.229   1.272   8.155 -0.8210 -0.4852 -1.2484
  508MOL0     H68545  -1.464   1.216   8.253  1.7100  2.9372 -1.2665
  508MOL0     H68546  -1.729   0.985   8.373 -0.4774  2.2326 -0.0339
  508MOL0     H68547  -1.648   1.139   8.329  2.9275  0.8738 -2.7704
  508MOL0     H68548  -1.568   1.037   8.125 -1.7054  2.6207  0.2161
  508MOL0     H68549  -1.641   0.874   8.175 -2.2287 -0.4095  1.3850
  508MOL0     H68550  -1.756   0.993   7.998 -0.6267 -3.3771  1.3483
  508MOL0     H68551  -1.779   1.136   8.096  0.0619  0.7642  2.4480
  508MOL0     H68552  -1.869   0.853   8.175  0.5102  0.5574  1.3778
  508MOL0     H68553  -1.931   0.995   8.249  1.2579 -0.2058  0.9138
  508MOL0     H68554  -2.013   0.893   7.983 -4.0455 -1.9256  3.7458
  508MOL0     H68555  -1.994   1.063   7.992 -1.7668  2.5052  2.4365
  508MOL0     H68556  -2.154   1.052   8.180  1.6111 -0.8280  1.7212
  508MOL0     H68557  -2.230   0.973   8.037 -0.9665 -0.3652  1.8588
  508MOL0     H68558  -2.193   0.886   8.309 -0.7095 -0.9745  0.4944
  508MOL0     H68559  -2.110   0.767   8.206  0.3124  0.4429 -1.3690
  508MOL0     H68560  -2.408   0.833   8.181 -0.1968  0.4879  2.4641
  508MOL0     H68561  -2.332   0.695   8.254 -0.9250  0.4754 -0.7612
  508MOL0     H68562  -1.297   0.829   8.342 -0.6684  1.0536  1.6193
  508MOL0     H68563  -1.087   0.887   8.230 -2.5150 -0.8679 -0.8659
  508MOL0     H68564  -0.800   0.942   7.859  3.2129  0.7434 -1.1523
  508MOL0     H68565  -0.577   0.960   7.851 -2.5259 -1.1727 -0.3922
  508MOL0     H68566   1.189   1.708   6.961 -0.0728  1.4650 -0.6118
  508MOL0     H68567   1.442   1.665   6.978 -1.6259  1.9396 -1.4756
  508MOL0     H68568   1.834   1.748   7.163  1.2947  0.5906 -0.2007
  508MOL0     H68569   2.066   1.732   7.182 -4.1033  1.2272 -2.3294
  508MOL0     H68570   2.298   1.645   7.140  1.5645  1.1584  0.5587
  508MOL0     H68571   2.318   1.709   7.292 -2.4723  0.4789 -0.6729
  508MOL0     H68572   2.433   1.436   7.212 -0.5887  0.4100 -0.0919
  508MOL0     H68573   2.475   1.515   7.354 -1.3515  0.1894  0.7572
  508MOL0     H68574   2.546   1.716   7.233  0.9232 -0.4752  0.2534
  508MOL0     H68575   2.538   1.637   7.074  0.0210  1.6618  0.3121
  508MOL0     H68576   2.687   1.458   7.146  0.0401  0.0336  0.4174
  508MOL0     H68577   2.726   1.544   7.282 -0.3004 -1.1724 -0.8753
  508MOL0     H68578   2.900   1.797   6.984 -0.0224 -1.4364  0.4062
  508MOL0     H68579   2.047   1.347   7.380 -0.6186 -2.1290 -1.1027
  508MOL0     H68580   1.817   1.347   7.343 -0.4117 -0.0275 -0.6841
  509MOL0     O68581  10.565   4.610   0.338 -0.1323 -0.0818 -0.1338
  509MOL0     C68582  10.580   4.701   0.428  0.2167  1.3737  0.1841
  509MOL0     O68583  10.479   4.777   0.474 -0.5415  0.5137 -0.5946
  509MOL0     C68584  10.360   4.776   0.406  0.3549 -0.9667  0.2759
  509MOL0     C68585  10.290   4.663   0.374 -0.2741  0.6612 -0.0843
  509MOL0     C68586  10.170   4.666   0.293 -0.6546 -0.3449  0.4107
  509MOL0     C68587  10.109   4.788   0.263 -0.4534 -1.1647  0.2536
  509MOL0     O68588   9.998   4.794   0.189  0.0914  0.7724  0.0413
  509MOL0     C68589   9.880   4.867   0.235 -0.1123 -0.2122 -0.2097
  509MOL0     C68590   9.855   4.981   0.140 -0.1536 -0.2431 -0.4508
  509MOL0     C68591   9.732   5.060   0.190  0.6932 -0.1570  0.4248
  509MOL0     C68592   9.589   5.014   0.164 -0.1826 -1.2318  0.3367
  509MOL0     C68593   9.482   5.105   0.232 -0.1666  0.1033  0.2556
  509MOL0     C68594   9.436   5.218   0.139  0.2821  0.6653 -0.5355
  509MOL0     C68595   9.306   5.290   0.186 -1.0936 -0.5519 -0.4483
  509MOL0     C68596   9.308   5.337   0.329  0.7458  0.2020  0.2384
  509MOL0     N68597   9.174   5.387   0.360 -0.4541  0.2743  0.4939
  509MOL0     C68598   9.106   5.486   0.291  0.9219  0.2386  0.2830
  509MOL0     C68599   8.979   5.503   0.352 -1.1941  0.6281  0.3783
  509MOL0     C68600   8.865   5.603   0.311  0.7978 -0.3554 -0.4828
  509MOL0     C68601   8.832   5.595   0.163 -0.6014 -0.9378 -0.1431
  509MOL0     C68602   8.774   5.727   0.094 -0.4132 -0.1030 -0.4481
  509MOL0     C68603   8.643   5.761   0.158  0.3317 -0.7768  0.6619
  509MOL0     O68604   8.593   5.894   0.107 -0.1206  0.6498  0.6670
  509MOL0     C68605   8.464   5.911   0.079 -0.6470 -0.0350 -0.1670
  509MOL0     C68606   8.357   5.822   0.099 -0.2295  0.7356 -0.2514
  509MOL0     C68607   8.226   5.853   0.050 -0.4011 -0.4115 -0.3641
  509MOL0     C68608   8.111   5.758   0.062 -0.4005 -0.9725 -0.1476
  509MOL0     C68609   8.217   5.982  -0.016 -0.4507  0.1380 -0.8948
  509MOL0     C68610   8.087   6.030  -0.056  0.1828  0.4757  0.3004
  509MOL0     O68611   8.056   6.008  -0.186 -0.3701 -0.5504  0.4925
  509MOL0     C68612   7.946   6.073  -0.232  0.3581  0.3667  0.0021
  509MOL0     C68613   7.825   6.000  -0.232 -0.0967 -0.1271 -0.7421
  509MOL0     C68614   7.706   6.047  -0.290  0.6936  0.2503  0.1669
  509MOL0     C68615   7.701   6.173  -0.339 -0.2254 -0.1591  0.0236
  509MOL0     O68616   7.587   6.220  -0.403  0.3350  0.4055  0.0490
  509MOL0     C68617   7.562   6.360  -0.387  0.6442  0.0880 -0.3725
  509MOL0     C68618   7.444   6.396  -0.479 -0.1449 -0.1836  0.7528
  509MOL0     C68619   7.398   6.540  -0.489 -0.1978 -0.0467  1.3472
  509MOL0     C68620   7.252   6.561  -0.494  0.3948  0.5293  0.3153
  509MOL0     C68621   7.183   6.601  -0.361 -0.3921 -0.0261  0.5923
  509MOL0     C68622   7.182   6.483  -0.264  0.1313 -0.1593 -0.2817
  509MOL0     C68623   7.123   6.522  -0.124  0.3429  0.2584  0.6054
  509MOL0     C68624   6.974   6.539  -0.126  0.2386 -0.7038  0.8533
  509MOL0    Cl68625   6.878   6.429  -0.232  0.1531  0.5615 -0.0991
  509MOL0     C68626   7.815   6.252  -0.321  0.5618 -0.4605  0.3160
  509MOL0     C68627   7.933   6.201  -0.274 -0.5335 -0.2638 -0.0152
  509MOL0     O68628   8.031   6.112   0.024  0.0795  0.0569 -0.4556
  509MOL0     C68629   8.321   6.063  -0.040  0.7028 -0.0496 -0.9980
  509MOL0     C68630   8.442   6.033   0.015  0.3363 -0.7073  0.4666
  509MOL0     N68631   8.978   5.403   0.447  0.9529 -0.8701  0.3117
  509MOL0     N68632   9.089   5.333   0.448  0.4713  0.0418 -0.1252
  509MOL0     C68633  10.170   4.904   0.310  0.7415 -0.2059 -0.2688
  509MOL0     C68634  10.299   4.902   0.368  0.8587 -1.4211 -0.5648
  509MOL0     C68635  10.708   4.704   0.490 -0.4804  0.5825  0.0403
  509MOL0     C68636  10.737   4.797   0.597  0.6772  0.2424  0.4465
  509MOL0     C68637  10.862   4.800   0.661  0.4943 -0.1536  0.1010
  509MOL0     C68638  10.970   4.721   0.627  0.5792 -0.8608  0.6072
  509MOL0     O68639  11.095   4.739   0.679 -0.4205 -0.0272 -0.5175
  509MOL0     C68640  11.202   4.661   0.630  0.8218  0.2889  0.0202
  509MOL0     C68641  11.249   4.728   0.499 -0.0651 -0.1799  0.0201
  509MOL0     C68642  11.396   4.705   0.483 -0.4883 -0.0654 -0.0013
  509MOL0     C68643  11.466   4.806   0.393  0.0428 -0.4638 -1.1795
  509MOL0     C68644  11.468   4.938   0.449  1.0929  0.0971 -0.2105
  509MOL0     C68645  11.471   5.043   0.506 -0.0945 -0.6668 -0.5372
  509MOL0     C68646  10.939   4.624   0.533 -0.4648 -0.3499  1.9515
  509MOL0     C68647  10.816   4.612   0.469 -0.3067  0.0582  0.3737
  509MOL0     H68648  10.339   4.569   0.399  1.7795  1.7497  0.2040
  509MOL0     H68649  10.144   4.567   0.255  0.4106 -0.6298  0.3926
  509MOL0     H68650   9.788   4.807   0.238 -0.0587 -0.3176 -0.5941
  509MOL0     H68651   9.895   4.896   0.339 -1.6930 -1.8657  0.5477
  509MOL0     H68652   9.937   5.053   0.144 -1.8108  1.7104  2.1527
  509MOL0     H68653   9.842   4.933   0.043  1.7439 -5.3017  1.4400
  509MOL0     H68654   9.746   5.094   0.293  1.6271  0.4100  0.1264
  509MOL0     H68655   9.732   5.145   0.120 -0.8169  0.0776  0.6798
  509MOL0     H68656   9.565   4.992   0.059 -2.0067  1.5685  0.0789
  509MOL0     H68657   9.572   4.923   0.222  0.9023 -1.0394  0.9972
  509MOL0     H68658   9.407   5.026   0.241  1.0797 -1.3082 -1.1844
  509MOL0     H68659   9.505   5.140   0.333 -3.9526  2.1830  0.6113
  509MOL0     H68660   9.514   5.294   0.125 -0.3263  0.9736 -2.3907
  509MOL0     H68661   9.416   5.175   0.041 -1.0264 -3.5953  1.3315
  509MOL0     H68662   9.299   5.379   0.122  0.0906  1.5771  2.1589
  509MOL0     H68663   9.220   5.226   0.165 -1.0799 -0.9619  0.6848
  509MOL0     H68664   9.377   5.421   0.341 -1.2881  1.9017  0.7966
  509MOL0     H68665   9.326   5.255   0.399 -0.3496  0.0803  0.3922
  509MOL0     H68666   9.149   5.537   0.205 -1.1267  3.1106  0.8204
  509MOL0     H68667   8.773   5.577   0.365 -0.5455  3.7742 -0.3745
  509MOL0     H68668   8.886   5.703   0.350 -1.4271 -0.2465  0.6375
  509MOL0     H68669   8.765   5.510   0.147 -1.2911 -0.0490 -2.5344
  509MOL0     H68670   8.930   5.579   0.118  0.2318  0.5210  1.0864
  509MOL0     H68671   8.754   5.714  -0.013 -3.5795  3.7154 -0.5772
  509MOL0     H68672   8.843   5.809   0.114  0.8798 -1.5859  1.6450
  509MOL0     H68673   8.661   5.778   0.264  2.2961 -1.3479  0.4437
  509MOL0     H68674   8.571   5.680   0.144 -2.6025  1.5159  1.2512
  509MOL0     H68675   8.370   5.722   0.139 -1.1170 -0.0730 -1.8858
  509MOL0     H68676   8.046   5.749  -0.026  2.2949 -3.5941 -2.1223
  509MOL0     H68677   8.146   5.658   0.089  1.4797 -0.5592 -0.8526
  509MOL0     H68678   8.050   5.786   0.148 -2.1470  2.3262 -2.2534
  509MOL0     H68679   7.822   5.895  -0.204  2.0550 -1.2181 -3.9637
  509MOL0     H68680   7.615   5.987  -0.298  1.7149 -1.1047 -2.2308
  509MOL0     H68681   7.541   6.393  -0.285  1.2606  0.7871 -0.4662
  509MOL0     H68682   7.645   6.421  -0.424 -0.5409  0.1778 -3.1033
  509MOL0     H68683   7.470   6.347  -0.573  0.1305  0.4347  0.5047
  509MOL0     H68684   7.360   6.337  -0.440  0.2373 -1.3865 -0.1981
  509MOL0     H68685   7.438   6.574  -0.584 -3.5907 -0.4907 -0.3851
  509MOL0     H68686   7.440   6.603  -0.410  0.4056  1.0395  0.1955
  509MOL0     H68687   7.234   6.639  -0.569 -0.7877 -0.0221 -0.0011
  509MOL0     H68688   7.214   6.470  -0.542  1.1288 -1.0374  2.5306
  509MOL0     H68689   7.078   6.630  -0.376 -1.8642 -4.5004  0.6435
  509MOL0     H68690   7.243   6.680  -0.315  0.1582  0.9178 -1.6199
  509MOL0     H68691   7.123   6.404  -0.311 -0.8177  0.3921 -0.0528
  509MOL0     H68692   7.286   6.451  -0.253  0.1758 -0.1865 -0.7785
  509MOL0     H68693   7.166   6.612  -0.080 -1.3135  1.6391 -0.4841
  509MOL0     H68694   7.160   6.433  -0.072  1.3504  0.4432  0.2306
  509MOL0     H68695   6.962   6.641  -0.163  4.1069 -0.7884 -1.1487
  509MOL0     H68696   6.949   6.532  -0.020 -0.3262  1.5127  0.9222
  509MOL0     H68697   7.820   6.356  -0.351  0.6501 -0.0044  1.8072
  509MOL0     H68698   8.027   6.255  -0.274 -0.0439 -1.0919 -0.2204
  509MOL0     H68699   8.299   6.160  -0.085 -1.5420  0.4939  1.0394
  509MOL0     H68700   8.523   6.105   0.009  0.8170 -1.3147 -0.7036
  509MOL0     H68701  10.114   4.997   0.306  2.2277  0.8693  1.9762
  509MOL0     H68702  10.350   4.995   0.391 -2.4807  0.3064  0.5263
  509MOL0     H68703  10.670   4.875   0.632 -0.9351 -0.7475 -0.3061
  509MOL0     H68704  10.884   4.872   0.739  0.7994 -1.2497  1.0422
  509MOL0     H68705  11.292   4.657   0.692  1.9231 -0.1908 -1.5376
  509MOL0     H68706  11.167   4.558   0.615 -1.3939  1.1203 -1.0064
  509MOL0     H68707  11.238   4.836   0.507  2.0294  0.0212  0.6398
  509MOL0     H68708  11.186   4.693   0.416  0.6143 -0.9699 -0.1784
  509MOL0     H68709  11.413   4.604   0.444 -2.4562 -0.0291 -1.0540
  509MOL0     H68710  11.445   4.713   0.581 -2.1801 -0.1528  0.8855
  509MOL0     H68711  11.443   4.811   0.286  3.7935  0.0519 -2.0962
  509MOL0     H68712  11.565   4.761   0.389 -0.8283 -2.7768  1.0335
  509MOL0     H68713  11.460   5.134   0.562 -0.6710 -2.1586  1.9358
  509MOL0     H68714  11.009   4.546   0.504 -1.8390 -1.4903  1.5522
  509MOL0     H68715  10.817   4.536   0.392  0.6163 -0.2349  0.6693
  510MOL0     O68716   3.312   3.102   6.437  0.8037  0.2556 -0.3417
  510MOL0     C68717   3.323   3.163   6.332 -0.1715 -0.2500 -0.2528
  510MOL0     O68718   3.220   3.188   6.243 -0.3617 -0.3600  0.4495
  510MOL0     C68719   3.098   3.124   6.256 -0.3678 -0.6617 -0.0540
  510MOL0     C68720   3.079   2.993   6.217 -0.1387  0.1784  0.0035
  510MOL0     C68721   2.943   2.942   6.228 -0.6105 -0.5419 -0.0580
  510MOL0     C68722   2.826   3.018   6.280  0.1523  0.6445 -0.2978
  510MOL0     O68723   2.700   2.977   6.303  0.2182 -0.2133  0.4377
  510MOL0     C68724   2.669   2.863   6.230 -0.7557 -0.2127  0.0866
  510MOL0     C68725   2.520   2.850   6.246 -0.1341  0.2341  0.4342
  510MOL0     C68726   2.434   2.956   6.170  0.2428  0.3357  0.1014
  510MOL0     C68727   2.284   2.924   6.187  0.3087 -0.9900  0.0010
  510MOL0     C68728   2.202   3.052   6.148  1.0552 -0.0423  0.6345
  510MOL0     C68729   2.052   3.028   6.126 -0.5228 -0.0944  0.2102
  510MOL0     C68730   1.984   3.143   6.066 -0.2382  0.3860 -0.4275
  510MOL0     C68731   1.851   3.109   6.014  0.7709  0.3919  0.3882
  510MOL0     N68732   1.754   3.100   6.117  0.0271  0.0446  1.0116
  510MOL0     C68733   1.701   3.199   6.181  0.2386  0.5879  0.2379
  510MOL0     C68734   1.630   3.148   6.290 -0.1567  0.0048  0.2862
  510MOL0     C68735   1.546   3.226   6.389 -0.3184  0.2229 -0.1021
  510MOL0     C68736   1.393   3.228   6.352  0.3610 -0.5140  0.9527
  510MOL0     C68737   1.373   3.295   6.214 -0.4217 -0.4837 -0.5481
  510MOL0     C68738   1.219   3.305   6.193 -0.3820 -0.8517  0.0574
  510MOL0     O68739   1.139   3.382   6.282  0.0132 -0.1256 -0.8339
  510MOL0     C68740   1.005   3.399   6.261  0.2500 -0.2519  0.7987
  510MOL0     C68741   0.938   3.466   6.361 -0.6071 -0.6465  0.7415
  510MOL0     C68742   0.800   3.497   6.349  0.0547  0.1575  0.7176
  510MOL0     C68743   0.737   3.566   6.472  0.3168 -0.0580 -0.2911
  510MOL0     C68744   0.727   3.458   6.237 -0.9447  0.2937 -0.6682
  510MOL0     C68745   0.585   3.485   6.221  0.5504  0.2762 -1.1050
  510MOL0     O68746   0.518   3.386   6.162  0.0429  0.4009 -0.3506
  510MOL0     C68747   0.382   3.391   6.147 -0.5227  0.0005 -0.6517
  510MOL0     C68748   0.319   3.269   6.163 -0.9445 -0.0126  0.5788
  510MOL0     C68749   0.181   3.262   6.155 -0.6733 -1.0556 -0.3852
  510MOL0     C68750   0.104   3.370   6.112 -0.1257  0.6905 -0.5859
  510MOL0     O68751  -0.030   3.381   6.090 -0.3483 -0.2918  0.0501
  510MOL0     C68752  -0.104   3.274   6.127  1.0189  0.3705 -0.2444
  510MOL0     C68753  -0.239   3.308   6.091  0.2155 -0.5267 -0.2277
  510MOL0     C68754  -0.325   3.402   6.179 -0.0366  1.0376 -0.5807
  510MOL0     C68755  -0.448   3.435   6.090  0.1748  0.0107 -0.2130
  510MOL0     C68756  -0.564   3.492   6.178 -0.6508  0.6756  0.4027
  510MOL0     C68757  -0.647   3.581   6.098  0.1521 -0.3636 -0.4795
  510MOL0     C68758  -0.759   3.633   6.197 -0.3671 -0.1364 -0.2366
  510MOL0     C68759  -0.860   3.719   6.115 -0.1365 -0.1735 -0.9577
  510MOL0    Cl68760  -0.922   3.617   5.983  0.0360 -0.1058  0.6124
  510MOL0     C68761   0.172   3.490   6.091 -0.0904 -0.1987  0.2342
  510MOL0     C68762   0.307   3.500   6.109  0.5897 -0.1233  0.5267
  510MOL0     O68763   0.550   3.600   6.237 -0.1734 -0.3510  0.7254
  510MOL0     C68764   0.797   3.376   6.142 -0.5496  0.5967 -0.2931
  510MOL0     C68765   0.930   3.347   6.153 -0.1366  0.0926 -0.7907
  510MOL0     N68766   1.664   3.014   6.288  0.0785 -0.4839  1.3759
  510MOL0     N68767   1.734   2.986   6.186  0.3065 -0.0039  0.0040
  510MOL0     C68768   2.849   3.151   6.306 -0.9433 -0.0789 -1.0482
  510MOL0     C68769   2.985   3.198   6.298  0.1399 -0.0437 -0.2583
  510MOL0     C68770   3.460   3.179   6.278  0.2612  0.6499  0.1880
  510MOL0     C68771   3.569   3.105   6.338  1.1035 -0.2968  0.9120
  510MOL0     C68772   3.698   3.105   6.282  0.8252 -0.4416 -0.2166
  510MOL0     C68773   3.722   3.192   6.184 -0.7518  0.2199  0.3846
  510MOL0     O68774   3.848   3.187   6.128  0.4493 -0.8212 -0.4890
  510MOL0     C68775   3.921   3.310   6.150 -0.4395  0.0550  0.2642
  510MOL0     C68776   3.993   3.354   6.020  0.5888  0.0768  0.1094
  510MOL0     C68777   4.094   3.461   6.056 -0.4610 -0.4923 -0.8097
  510MOL0     C68778   4.163   3.520   5.925 -1.0044 -0.3936 -0.4742
  510MOL0     C68779   4.247   3.641   5.948 -0.5814  0.0327  0.1992
  510MOL0     C68780   4.324   3.734   5.944 -0.2389 -0.5081  0.3500
  510MOL0     C68781   3.621   3.277   6.135  0.2341  0.4028 -0.0659
  510MOL0     C68782   3.493   3.270   6.177 -1.5101 -0.0586 -0.0893
  510MOL0     H68783   3.159   2.929   6.184 -0.6549  0.1125 -1.1664
  510MOL0     H68784   2.920   2.838   6.209 -2.5795  0.1116 -1.6782
  510MOL0     H68785   2.693   2.871   6.123  1.6697 -2.6769  0.3406
  510MOL0     H68786   2.727   2.782   6.275  1.6215  0.7497 -1.0437
  510MOL0     H68787   2.481   2.755   6.209 -0.7177  0.3539  0.7305
  510MOL0     H68788   2.501   2.850   6.354  0.6973 -1.6990  0.6298
  510MOL0     H68789   2.450   3.050   6.223  0.2165 -2.0232  4.8939
  510MOL0     H68790   2.461   2.962   6.064  2.2867  0.0639  0.5585
  510MOL0     H68791   2.249   2.849   6.116  1.3994  2.0324 -4.1333
  510MOL0     H68792   2.265   2.891   6.289 -0.8311  0.3535  0.2577
  510MOL0     H68793   2.203   3.123   6.232  0.6392 -0.1449  0.7265
  510MOL0     H68794   2.239   3.096   6.055 -1.3143  2.1927  0.6239
  510MOL0     H68795   2.058   2.952   6.048 -1.9853 -0.5116  0.4674
  510MOL0     H68796   2.003   3.004   6.221 -1.5680  2.6083  0.4496
  510MOL0     H68797   1.977   3.226   6.137 -2.8360  2.0937 -2.4929
  510MOL0     H68798   2.045   3.178   5.981  0.9107  0.2092  0.3100
  510MOL0     H68799   1.857   3.019   5.951 -1.7045  0.1282  0.4653
  510MOL0     H68800   1.828   3.189   5.943 -1.9952 -1.5422 -1.0703
  510MOL0     H68801   1.704   3.305   6.161 -2.4528  0.6782 -0.0162
  510MOL0     H68802   1.549   3.181   6.488  2.3752  1.7166  0.5939
  510MOL0     H68803   1.598   3.322   6.398  1.8871 -0.9572  0.4269
  510MOL0     H68804   1.337   3.274   6.434  0.7022  0.6242  0.5676
  510MOL0     H68805   1.356   3.125   6.351 -2.4304  0.4132 -0.5851
  510MOL0     H68806   1.422   3.237   6.136  1.2835  2.3260 -1.7377
  510MOL0     H68807   1.415   3.396   6.213 -0.6833 -0.3371  1.1474
  510MOL0     H68808   1.185   3.202   6.183 -2.1735 -0.1884 -1.2078
  510MOL0     H68809   1.201   3.345   6.093 -1.0404  0.4299  0.6593
  510MOL0     H68810   1.000   3.499   6.444  0.7290 -0.7859 -0.1676
  510MOL0     H68811   0.634   3.532   6.461  0.5272 -0.9596  0.3846
  510MOL0     H68812   0.769   3.521   6.567  0.7312  2.2568  0.7190
  510MOL0     H68813   0.751   3.674   6.481  0.5874 -0.1604  0.6178
  510MOL0     H68814   0.380   3.184   6.191 -1.9499  0.0421  3.1654
  510MOL0     H68815   0.141   3.161   6.160 -0.2642 -1.1893  0.3800
  510MOL0     H68816  -0.074   3.184   6.072 -1.2692 -0.5624 -0.1177
  510MOL0     H68817  -0.091   3.259   6.235 -2.3864  4.4175  0.9910
  510MOL0     H68818  -0.229   3.344   5.989  1.5023 -3.7322 -1.3572
  510MOL0     H68819  -0.285   3.209   6.095  0.4882 -0.6252  0.9856
  510MOL0     H68820  -0.278   3.491   6.220 -1.9769  0.8149  2.5002
  510MOL0     H68821  -0.358   3.339   6.262  1.6572 -0.6811 -1.1340
  510MOL0     H68822  -0.417   3.508   6.015  0.6677  0.9612  0.8870
  510MOL0     H68823  -0.485   3.337   6.057 -2.0149  0.1474  1.5851
  510MOL0     H68824  -0.522   3.542   6.266 -2.2655  0.9862  1.0215
  510MOL0     H68825  -0.632   3.415   6.215 -0.6538  0.1820 -0.6177
  510MOL0     H68826  -0.585   3.659   6.055 -1.3490 -0.4754 -3.0905
  510MOL0     H68827  -0.686   3.516   6.019 -3.0244 -0.3081  0.8875
  510MOL0     H68828  -0.731   3.714   6.264  0.1297  0.6364 -1.3429
  510MOL0     H68829  -0.796   3.545   6.250 -2.6722  0.4439 -0.7529
  510MOL0     H68830  -0.811   3.813   6.089  3.6496 -1.5748  0.4775
  510MOL0     H68831  -0.947   3.744   6.178 -0.9465  2.0549 -2.7990
  510MOL0     H68832   0.114   3.577   6.061 -0.3998 -0.0947  1.1001
  510MOL0     H68833   0.351   3.595   6.079 -2.9589  1.6873  0.4861
  510MOL0     H68834   0.762   3.364   6.040 -0.6820  1.0000 -0.2938
  510MOL0     H68835   0.977   3.281   6.080 -1.3038 -1.8297  0.1095
  510MOL0     H68836   2.767   3.214   6.340 -0.1752  1.1368 -1.3722
  510MOL0     H68837   2.996   3.304   6.319 -1.5040  0.2814 -0.9218
  510MOL0     H68838   3.540   3.033   6.415 -0.6754  1.3700  1.8797
  510MOL0     H68839   3.774   3.036   6.318  0.2834  0.0203  2.0022
  510MOL0     H68840   3.864   3.394   6.191  0.3499  1.5028 -1.4791
  510MOL0     H68841   3.997   3.277   6.221 -1.9019 -0.7962  1.5006
  510MOL0     H68842   3.918   3.401   5.955  1.4372  0.4359 -0.6374
  510MOL0     H68843   4.043   3.268   5.975 -0.1773  0.2275 -1.0806
  510MOL0     H68844   4.167   3.427   6.130 -0.0060  0.8381 -0.6168
  510MOL0     H68845   4.035   3.544   6.097  2.4736  0.2962  2.2679
  510MOL0     H68846   4.086   3.545   5.852 -1.2619 -0.8642 -0.3645
  510MOL0     H68847   4.232   3.445   5.886 -1.3543 -2.8324  3.1474
  510MOL0     H68848   4.400   3.810   5.946  2.6167 -3.0816  3.9917
  510MOL0     H68849   3.643   3.343   6.051  0.2738 -1.5351 -1.6532
  510MOL0     H68850   3.425   3.342   6.133 -1.2916 -0.0489 -0.4128
  511MOL0     O68851   8.783   7.658   3.833 -0.0610  0.0050 -0.3207
  511MOL0     C68852   8.704   7.567   3.820 -0.4919  0.5610 -1.0542
  511MOL0     O68853   8.593   7.575   3.743 -0.3342 -0.3568  0.3755
  511MOL0     C68854   8.533   7.701   3.699 -0.4718  0.5233 -0.0196
  511MOL0     C68855   8.572   7.824   3.751 -0.4290 -0.6631  0.8608
  511MOL0     C68856   8.515   7.945   3.705  0.5394 -0.1108  0.0724
  511MOL0     C68857   8.402   7.940   3.615 -0.1904 -1.2650  0.1967
  511MOL0     O68858   8.328   8.046   3.572 -0.9154 -0.0308 -0.0880
  511MOL0     C68859   8.412   8.122   3.483  0.5268 -0.4455 -0.3183
  511MOL0     C68860   8.430   8.254   3.548 -0.2047 -0.0096 -0.0496
  511MOL0     C68861   8.485   8.356   3.451 -0.1427 -0.1697 -0.4531
  511MOL0     C68862   8.518   8.499   3.514 -1.0773  0.0646 -0.3448
  511MOL0     C68863   8.638   8.486   3.602 -0.4351  0.1683 -0.0346
  511MOL0     C68864   8.689   8.631   3.636  0.4351 -0.1071 -0.6435
  511MOL0     C68865   8.813   8.621   3.728 -0.6359  0.3568 -0.2422
  511MOL0     C68866   8.841   8.742   3.821 -1.5049 -0.4195  0.4061
  511MOL0     N68867   8.723   8.774   3.904 -0.9344 -0.5215 -0.5327
  511MOL0     C68868   8.639   8.692   3.974  0.1701 -0.1168  0.6046
  511MOL0     C68869   8.539   8.768   4.030 -0.7013 -0.1693 -0.8172
  511MOL0     C68870   8.418   8.697   4.097 -0.2108  0.1763 -0.1439
  511MOL0     C68871   8.326   8.627   4.006  0.0936 -0.2191  0.1724
  511MOL0     C68872   8.246   8.741   3.943 -0.1009  0.2789  0.3212
  511MOL0     C68873   8.136   8.805   4.029  0.1103 -0.4799 -0.2876
  511MOL0     O68874   8.014   8.793   3.952  0.2516 -0.4600 -0.0961
  511MOL0     C68875   7.894   8.797   4.015  0.3389 -0.1171 -0.7739
  511MOL0     C68876   7.883   8.856   4.137  0.2993  1.0420 -0.1723
  511MOL0     C68877   7.764   8.844   4.213 -0.5097  0.2369  0.7199
  511MOL0     C68878   7.768   8.930   4.345 -0.0703  0.9362  0.5862
  511MOL0     C68879   7.659   8.771   4.169  0.5575  0.3107  0.3900
  511MOL0     C68880   7.533   8.747   4.246  0.7656 -0.3860 -0.2101
  511MOL0     O68881   7.549   8.736   4.384  0.1751  0.2364 -0.2358
  511MOL0     C68882   7.437   8.707   4.451 -0.2060  0.5901  0.0491
  511MOL0     C68883   7.371   8.589   4.427 -0.3614  0.5986  0.9881
  511MOL0     C68884   7.259   8.556   4.508  0.4180 -0.5031 -0.8960
  511MOL0     C68885   7.208   8.654   4.597 -0.9507  0.3398 -0.5706
  511MOL0     O68886   7.103   8.625   4.671  0.6100  1.2242  0.0255
  511MOL0     C68887   7.021   8.730   4.712  0.5614 -0.2184  0.4469
  511MOL0     C68888   6.890   8.676   4.766 -0.7015  0.3229 -0.9169
  511MOL0     C68889   6.799   8.793   4.802  0.0392  0.3474  0.0749
  511MOL0     C68890   6.799   8.808   4.958  0.2298 -0.3840 -0.6729
  511MOL0     C68891   6.715   8.925   5.012  0.3769  0.7152  0.0433
  511MOL0     C68892   6.701   8.922   5.169 -0.0897  0.2351  0.9069
  511MOL0     C68893   6.640   9.041   5.237  0.6409 -0.9004 -0.2187
  511MOL0     C68894   6.506   9.012   5.301 -0.0582 -0.3417  0.6027
  511MOL0    Cl68895   6.384   8.948   5.182 -0.2187 -0.0599 -0.0523
  511MOL0     C68896   7.275   8.771   4.621 -0.3000 -0.6174  0.1325
  511MOL0     C68897   7.396   8.792   4.560 -1.2647  0.5078  0.1473
  511MOL0     O68898   7.424   8.759   4.180  0.1985 -0.4633  0.2594
  511MOL0     C68899   7.664   8.716   4.046  0.6175  0.5903  0.1389
  511MOL0     C68900   7.779   8.731   3.968 -1.0267  0.3786 -0.1063
  511MOL0     N68901   8.560   8.897   3.978  0.5492 -0.6397  0.5271
  511MOL0     N68902   8.668   8.898   3.900 -0.2072  0.6468 -0.6868
  511MOL0     C68903   8.369   7.817   3.565  0.3170  0.1827  0.6099
  511MOL0     C68904   8.427   7.695   3.605 -0.8162 -0.1034 -0.1953
  511MOL0     C68905   8.733   7.440   3.897  0.2957 -0.8591 -0.7159
  511MOL0     C68906   8.854   7.424   3.977  0.1628  0.6687  0.7903
  511MOL0     C68907   8.866   7.317   4.060 -0.1559  0.7978 -0.6160
  511MOL0     C68908   8.782   7.204   4.051  0.3757 -0.1952 -0.1641
  511MOL0     O68909   8.798   7.087   4.122  0.8747  0.0762  0.2224
  511MOL0     C68910   8.883   7.074   4.232  0.3137  0.2476 -0.4716
  511MOL0     C68911   8.851   7.151   4.355  0.2063 -0.0494  1.0022
  511MOL0     C68912   8.934   7.108   4.464 -0.6718 -0.2736  0.0575
  511MOL0     C68913   9.070   7.168   4.491  0.1916 -0.0777 -0.2459
  511MOL0     C68914   9.161   7.170   4.376  0.4792  0.3320 -0.1772
  511MOL0     C68915   9.244   7.180   4.295 -0.5907  0.6275  0.5164
  511MOL0     C68916   8.681   7.212   3.961  0.3787  0.1709 -0.0631
  511MOL0     C68917   8.653   7.327   3.890  0.6597 -0.3762  0.8403
  511MOL0     H68918   8.641   7.839   3.834  1.6349  2.2921 -1.2162
  511MOL0     H68919   8.554   8.039   3.743  0.1162  0.9795 -2.0387
  511MOL0     H68920   8.512   8.085   3.457  0.0268 -1.3578 -0.9912
  511MOL0     H68921   8.365   8.134   3.385 -0.7942 -1.5515  0.1601
  511MOL0     H68922   8.338   8.301   3.584 -2.0463 -1.7434 -2.2417
  511MOL0     H68923   8.501   8.243   3.631 -0.0317 -1.7436 -0.3844
  511MOL0     H68924   8.567   8.322   3.387 -0.2259  0.6136 -0.9929
  511MOL0     H68925   8.406   8.374   3.378 -0.9507  0.4776  0.5496
  511MOL0     H68926   8.542   8.572   3.436  0.7151 -1.4168 -1.2542
  511MOL0     H68927   8.439   8.546   3.574  1.6414  0.0148  3.6467
  511MOL0     H68928   8.620   8.427   3.692 -1.3330  0.8033  0.2149
  511MOL0     H68929   8.712   8.428   3.546  0.5977  0.8027  0.6474
  511MOL0     H68930   8.719   8.676   3.541 -0.3766 -0.9930 -1.3328
  511MOL0     H68931   8.612   8.697   3.677 -2.3473 -1.0535 -3.9002
  511MOL0     H68932   8.809   8.532   3.793  1.3407  0.8404  0.6055
  511MOL0     H68933   8.897   8.624   3.659 -0.1889 -0.2263  0.2587
  511MOL0     H68934   8.866   8.833   3.764 -1.5945 -0.2290  0.6713
  511MOL0     H68935   8.919   8.702   3.886  0.0521 -0.7573 -1.5723
  511MOL0     H68936   8.647   8.584   3.973  0.8444 -0.1186 -2.2765
  511MOL0     H68937   8.467   8.619   4.155  2.3802  1.9724  0.2452
  511MOL0     H68938   8.369   8.771   4.160 -0.8083 -1.1178  0.9652
  511MOL0     H68939   8.255   8.566   4.061 -1.5506 -0.4257 -2.0449
  511MOL0     H68940   8.364   8.556   3.932 -1.5976  0.8390 -1.8084
  511MOL0     H68941   8.202   8.701   3.852 -0.1005 -0.0297  0.4534
  511MOL0     H68942   8.319   8.817   3.912 -0.3980  0.6347  0.4814
  511MOL0     H68943   8.171   8.909   4.033  3.2686 -1.4363 -0.5018
  511MOL0     H68944   8.131   8.757   4.127 -1.8975 -0.0759 -0.1600
  511MOL0     H68945   7.969   8.905   4.181  2.6415 -3.8388  1.4861
  511MOL0     H68946   7.728   8.876   4.431 -0.1446  2.3688  1.4719
  511MOL0     H68947   7.872   8.955   4.369 -0.3174 -1.1736  4.8006
  511MOL0     H68948   7.699   9.014   4.333 -0.3069  0.6389 -0.2098
  511MOL0     H68949   7.413   8.515   4.360 -0.4070  0.2893  1.2996
  511MOL0     H68950   7.210   8.460   4.498 -1.5272  0.3347  0.1324
  511MOL0     H68951   7.066   8.789   4.793  1.0209  2.2980 -1.5158
  511MOL0     H68952   7.006   8.793   4.623  1.3783 -3.1069 -1.8783
  511MOL0     H68953   6.844   8.612   4.691  0.7113  0.5762 -2.0504
  511MOL0     H68954   6.908   8.620   4.859 -0.5745  2.9960  0.7857
  511MOL0     H68955   6.699   8.775   4.761  0.1766  0.5810 -0.3722
  511MOL0     H68956   6.844   8.886   4.764 -0.0131  0.6259  0.6754
  511MOL0     H68957   6.760   8.722   5.013  0.9827  0.9050  2.0467
  511MOL0     H68958   6.900   8.830   4.992 -1.2108  0.9695  3.4310
  511MOL0     H68959   6.623   8.925   4.952  0.4183 -2.3794 -0.1771
  511MOL0     H68960   6.765   9.018   4.982 -3.5730  1.9516 -3.8537
  511MOL0     H68961   6.653   8.827   5.193 -0.1401  0.2530  0.8773
  511MOL0     H68962   6.804   8.913   5.204 -0.0488 -3.0682  0.2565
  511MOL0     H68963   6.632   9.121   5.164  2.0284  0.7133  1.3304
  511MOL0     H68964   6.713   9.074   5.312  0.5876 -0.4282 -0.3762
  511MOL0     H68965   6.463   9.097   5.356 -2.3146 -0.4458 -0.8717
  511MOL0     H68966   6.519   8.938   5.380  0.8249 -0.4765  0.3418
  511MOL0     H68967   7.247   8.838   4.702 -3.4206  0.2283 -1.4587
  511MOL0     H68968   7.462   8.872   4.595 -2.2437 -0.0673  3.6662
  511MOL0     H68969   7.579   8.662   4.005 -0.3091  0.7898  1.7411
  511MOL0     H68970   7.763   8.678   3.875 -1.1370  1.6436 -0.8297
  511MOL0     H68971   8.289   7.805   3.492  0.5921  1.1390  0.1386
  511MOL0     H68972   8.404   7.595   3.571  3.0844 -1.9757  1.9823
  511MOL0     H68973   8.935   7.496   3.983 -1.2732  2.3056  1.0309
  511MOL0     H68974   8.948   7.316   4.131 -0.6411  0.4464 -0.0550
  511MOL0     H68975   8.888   6.969   4.260 -1.7623  0.4818  0.9991
  511MOL0     H68976   8.988   7.101   4.218 -0.4657  4.7182  0.6258
  511MOL0     H68977   8.745   7.144   4.383  0.4535  2.5807  2.9188
  511MOL0     H68978   8.872   7.254   4.324  3.1199 -0.6037  0.9172
  511MOL0     H68979   8.946   7.000   4.471  2.7083  0.0319  0.6567
  511MOL0     H68980   8.864   7.128   4.546 -1.5627 -0.1010 -0.7218
  511MOL0     H68981   9.116   7.098   4.561  0.0367 -0.6828 -0.7426
  511MOL0     H68982   9.070   7.271   4.528  0.6516  0.3595 -1.4268
  511MOL0     H68983   9.319   7.194   4.220 -0.6652  0.3111  0.3849
  511MOL0     H68984   8.617   7.125   3.967  1.5499 -0.6194  2.2667
  511MOL0     H68985   8.575   7.322   3.815  2.6787  0.1346 -1.4002
  512MOL0     O68986   5.699   4.463   5.014  0.4549 -0.1332 -0.0560
  512MOL0     C68987   5.747   4.378   5.091 -0.4381  0.1864 -0.9971
  512MOL0     O68988   5.684   4.295   5.178  0.2794  0.0652 -0.1618
  512MOL0     C68989   5.537   4.297   5.173 -0.6111 -0.1042 -0.3755
  512MOL0     C68990   5.483   4.396   5.266  0.2008  0.8645  0.5755
  512MOL0     C68991   5.336   4.406   5.274  0.1573  0.6590  0.3832
  512MOL0     C68992   5.259   4.339   5.180  0.1208 -0.4317  1.1345
  512MOL0     O68993   5.123   4.372   5.170  0.5281  0.0600  0.1443
  512MOL0     C68994   5.018   4.265   5.167 -0.0386  0.5740 -0.5330
  512MOL0     C68995   4.876   4.325   5.168 -0.0126 -0.9567 -0.2271
  512MOL0     C68996   4.838   4.411   5.044  0.6411 -0.1511 -0.5429
  512MOL0     C68997   4.720   4.506   5.075  0.1177  1.0542 -0.2620
  512MOL0     C68998   4.595   4.431   5.109 -0.9192  0.1351 -0.9002
  512MOL0     C68999   4.470   4.514   5.137  0.7949 -0.0688  0.1775
  512MOL0     C69000   4.342   4.427   5.154 -0.1484 -0.2059 -0.6077
  512MOL0     C69001   4.296   4.382   5.290  0.1363 -0.6134  0.7102
  512MOL0     N69002   4.158   4.386   5.319  0.5911  0.1347  0.8100
  512MOL0     C69003   4.087   4.487   5.359  0.0392  0.7481  0.4232
  512MOL0     C69004   3.955   4.437   5.359 -0.1752 -0.6988  0.9396
  512MOL0     C69005   3.830   4.513   5.384 -0.1841 -0.4102 -0.3856
  512MOL0     C69006   3.706   4.455   5.301 -0.1823  0.9864 -0.0422
  512MOL0     C69007   3.591   4.562   5.310  0.3070 -0.3684 -0.0189
  512MOL0     C69008   3.467   4.522   5.223  0.4792  0.1293 -0.9196
  512MOL0     O69009   3.431   4.397   5.278 -0.1039 -0.0499  0.6896
  512MOL0     C69010   3.337   4.387   5.376 -0.0994  0.2518  0.5266
  512MOL0     C69011   3.229   4.474   5.392 -0.5529  0.2185  0.1484
  512MOL0     C69012   3.149   4.463   5.502 -1.0053  0.4397  0.0372
  512MOL0     C69013   3.054   4.573   5.511  0.5150 -0.3433 -0.5268
  512MOL0     C69014   3.166   4.358   5.593 -0.5162  0.7295 -1.0061
  512MOL0     C69015   3.080   4.344   5.714  0.9329 -0.0482 -0.4675
  512MOL0     O69016   3.067   4.446   5.796 -0.2823  0.5493 -0.7774
  512MOL0     C69017   2.980   4.442   5.903 -0.2670 -0.3984  0.8685
  512MOL0     C69018   3.009   4.424   6.038  0.6597  0.4728 -1.2645
  512MOL0     C69019   2.911   4.431   6.136  0.1350  0.2290 -0.5047
  512MOL0     C69020   2.776   4.463   6.108 -0.1132  0.3343  0.6591
  512MOL0     O69021   2.669   4.462   6.191  0.2451 -0.9359  0.2134
  512MOL0     C69022   2.692   4.437   6.334 -0.0362 -0.1279  1.0568
  512MOL0     C69023   2.563   4.427   6.416  0.2070 -0.2381  0.1662
  512MOL0     C69024   2.471   4.324   6.358 -0.2876 -0.1374  0.2379
  512MOL0     C69025   2.357   4.291   6.454  0.5980  0.1981 -0.2925
  512MOL0     C69026   2.239   4.387   6.439 -0.6205 -0.5629  0.2216
  512MOL0     C69027   2.105   4.336   6.482 -0.5622  0.4651  1.0424
  512MOL0     C69028   1.995   4.439   6.457 -0.4884  0.0819  0.9680
  512MOL0     C69029   1.853   4.384   6.488  0.0523 -1.4165  0.3605
  512MOL0    Cl69030   1.830   4.312   6.644  0.2099  0.3996  0.4490
  512MOL0     C69031   2.751   4.483   5.978 -0.8092  0.0860 -0.1830
  512MOL0     C69032   2.846   4.476   5.882  0.0706 -1.0542  0.3722
  512MOL0     O69033   3.036   4.231   5.738  0.2260  0.2707 -0.0197
  512MOL0     C69034   3.266   4.263   5.571 -0.4033 -0.4618 -0.0365
  512MOL0     C69035   3.352   4.284   5.464  0.3418 -0.4819  0.4065
  512MOL0     N69036   3.960   4.296   5.325 -0.4314 -0.4747 -0.4341
  512MOL0     N69037   4.083   4.269   5.308  0.3307  0.9463  0.2221
  512MOL0     C69038   5.325   4.243   5.093  0.5488 -0.8070  0.1691
  512MOL0     C69039   5.454   4.216   5.096  0.8363  0.2588 -1.0400
  512MOL0     C69040   5.895   4.358   5.094 -0.2693 -0.2935  0.4212
  512MOL0     C69041   5.959   4.254   5.160  0.7643  0.2412 -0.4537
  512MOL0     C69042   6.099   4.245   5.153  0.4453  0.0237 -0.1137
  512MOL0     C69043   6.178   4.330   5.079 -1.0722 -0.2009 -0.6872
  512MOL0     O69044   6.314   4.304   5.082  0.6405  0.2727  0.2174
  512MOL0     C69045   6.389   4.393   4.996 -0.1001  0.0138 -1.9011
  512MOL0     C69046   6.532   4.353   4.992 -0.7131  0.9288  0.5404
  512MOL0     C69047   6.554   4.213   4.935  0.0587  1.0275  0.7987
  512MOL0     C69048   6.694   4.169   4.947 -0.4294 -0.3994 -0.6799
  512MOL0     C69049   6.708   4.027   4.922  0.3281 -0.4091  0.8134
  512MOL0     C69050   6.668   3.917   4.913 -0.0290  0.0647 -0.4098
  512MOL0     C69051   6.117   4.446   5.027  0.7572  0.2814 -0.1968
  512MOL0     C69052   5.973   4.459   5.029  0.5816 -0.2945 -0.2263
  512MOL0     H69053   5.552   4.454   5.327  1.7904 -1.1593  0.8217
  512MOL0     H69054   5.291   4.482   5.337 -0.5615 -0.3978  1.1681
  512MOL0     H69055   5.021   4.198   5.080  2.3719  0.5350 -0.4852
  512MOL0     H69056   5.039   4.204   5.255 -1.4916  1.9377  0.8060
  512MOL0     H69057   4.812   4.237   5.165 -0.9207 -0.3138 -0.0044
  512MOL0     H69058   4.868   4.383   5.260 -0.6661 -0.6739 -0.4641
  512MOL0     H69059   4.926   4.463   5.004 -1.4080  0.6569 -4.5527
  512MOL0     H69060   4.810   4.344   4.963 -0.1467 -1.0321  0.4338
  512MOL0     H69061   4.753   4.579   5.150 -1.1501  1.5988 -0.2096
  512MOL0     H69062   4.710   4.558   4.979  2.4439  0.2880 -0.9890
  512MOL0     H69063   4.581   4.347   5.041 -1.5943 -0.3511 -0.1778
  512MOL0     H69064   4.622   4.379   5.201  4.1589  0.9705 -1.6005
  512MOL0     H69065   4.492   4.567   5.230  2.9132 -2.2524  1.0105
  512MOL0     H69066   4.462   4.582   5.051  2.5066  1.4672  1.1806
  512MOL0     H69067   4.256   4.468   5.100  1.2053  1.4610 -1.5782
  512MOL0     H69068   4.368   4.334   5.102 -0.1246 -0.5502  0.0062
  512MOL0     H69069   4.352   4.434   5.368  0.5263  0.2136 -0.1078
  512MOL0     H69070   4.326   4.277   5.295  2.4599 -0.3931 -3.5504
  512MOL0     H69071   4.112   4.592   5.372  2.2641  0.2248  0.6162
  512MOL0     H69072   3.805   4.510   5.491 -3.9524  0.9189 -1.0843
  512MOL0     H69073   3.847   4.618   5.360  0.4206 -0.0895  1.3163
  512MOL0     H69074   3.668   4.359   5.336 -0.6354  1.0926 -0.2348
  512MOL0     H69075   3.733   4.449   5.196  0.8477 -2.2413  0.3176
  512MOL0     H69076   3.615   4.661   5.272 -2.1729 -0.5353 -2.3528
  512MOL0     H69077   3.563   4.572   5.416 -1.0095  0.4559 -0.4228
  512MOL0     H69078   3.488   4.513   5.116 -0.0889 -1.0489 -0.9447
  512MOL0     H69079   3.391   4.600   5.236  0.6377  0.0233  0.9949
  512MOL0     H69080   3.203   4.537   5.308  1.3588 -0.5417 -1.0693
  512MOL0     H69081   2.962   4.528   5.471  0.4461 -3.5876  2.7776
  512MOL0     H69082   3.041   4.612   5.612  1.5348  1.0265 -0.9020
  512MOL0     H69083   3.077   4.661   5.451 -1.1833  1.2465  1.0217
  512MOL0     H69084   3.100   4.374   6.071  0.1404  0.0706 -0.4306
  512MOL0     H69085   2.924   4.417   6.243  3.5629 -3.2150 -1.1799
  512MOL0     H69086   2.749   4.344   6.338  0.0237 -0.3759 -2.3577
  512MOL0     H69087   2.749   4.521   6.375  0.7537  0.0179 -0.3033
  512MOL0     H69088   2.575   4.404   6.522 -0.5466 -3.6213 -0.3839
  512MOL0     H69089   2.507   4.521   6.412  0.6379 -0.0114 -1.8281
  512MOL0     H69090   2.523   4.230   6.336 -0.1336  0.4884 -2.4157
  512MOL0     H69091   2.426   4.370   6.269  2.0320  0.9518 -0.4560
  512MOL0     H69092   2.320   4.190   6.436 -2.0890  1.5236 -3.3002
  512MOL0     H69093   2.388   4.288   6.559  1.1764  1.1904 -0.4174
  512MOL0     H69094   2.231   4.421   6.336  0.2239  1.4230  0.7758
  512MOL0     H69095   2.265   4.475   6.499 -1.2803  0.4984 -1.0034
  512MOL0     H69096   2.090   4.245   6.423 -0.8724  1.7800 -1.0392
  512MOL0     H69097   2.117   4.315   6.588  1.7452 -1.2096  0.5086
  512MOL0     H69098   1.993   4.477   6.354 -3.1637  3.4390  2.0877
  512MOL0     H69099   2.016   4.530   6.513 -0.3570  0.2309  0.6792
  512MOL0     H69100   1.833   4.300   6.419 -1.6144 -2.3545  1.9072
  512MOL0     H69101   1.784   4.466   6.467  0.7793 -0.9985 -0.4518
  512MOL0     H69102   2.646   4.493   5.954 -1.1296 -1.9842  0.1204
  512MOL0     H69103   2.802   4.508   5.788 -3.6997  1.6835  2.7726
  512MOL0     H69104   3.287   4.187   5.645  0.8987  0.9340  1.1094
  512MOL0     H69105   3.440   4.222   5.451  0.9856  0.2175  1.3045
  512MOL0     H69106   5.264   4.197   5.017 -0.4212  1.1798 -0.3236
  512MOL0     H69107   5.497   4.138   5.033  2.0083  1.0437 -1.2441
  512MOL0     H69108   5.902   4.174   5.205  1.9428 -0.3598  0.0368
  512MOL0     H69109   6.153   4.170   5.209  0.2480  2.9782  4.5689
  512MOL0     H69110   6.341   4.387   4.898  1.9292  1.0219 -3.0102
  512MOL0     H69111   6.386   4.496   5.034 -3.0281 -0.9248  0.9373
  512MOL0     H69112   6.569   4.364   5.095 -1.2551  2.5529  0.5888
  512MOL0     H69113   6.593   4.419   4.930  0.0775 -1.4338 -1.3581
  512MOL0     H69114   6.527   4.217   4.829  2.4736  1.4738  0.1359
  512MOL0     H69115   6.482   4.152   4.990 -0.2039  0.6291  0.0320
  512MOL0     H69116   6.735   4.193   5.045  2.0448  2.0069 -2.1637
  512MOL0     H69117   6.761   4.210   4.871  0.0221  3.6265  1.6370
  512MOL0     H69118   6.625   3.821   4.897 -2.0391  0.8802 -0.2216
  512MOL0     H69119   6.180   4.527   4.991  3.3764 -1.4171  0.2663
  512MOL0     H69120   5.920   4.543   4.986 -1.5139 -0.9079  1.0411
  513MOL0     O69121   6.859   7.053   2.527  0.4417  0.3487 -0.1621
  513MOL0     C69122   6.891   7.150   2.598 -1.1347  0.2902  0.8533
  513MOL0     O69123   6.804   7.226   2.676  0.1554  0.2786  0.3100
  513MOL0     C69124   6.670   7.213   2.652 -0.6048 -0.1726  0.1192
  513MOL0     C69125   6.601   7.324   2.595  0.4356 -1.0167  0.1214
  513MOL0     C69126   6.462   7.329   2.588  0.6257  0.1267 -0.2873
  513MOL0     C69127   6.393   7.218   2.625 -0.0091 -0.0950 -0.0901
  513MOL0     O69128   6.255   7.230   2.634 -0.6670 -0.8829 -0.5792
  513MOL0     C69129   6.175   7.122   2.592 -0.3305  0.0496 -0.1028
  513MOL0     C69130   6.022   7.140   2.620 -0.4425 -0.6360 -0.5100
  513MOL0     C69131   5.963   7.239   2.520  0.4014  0.6147 -0.6478
  513MOL0     C69132   5.820   7.275   2.559 -0.1852 -0.1782 -0.0644
  513MOL0     C69133   5.726   7.148   2.562  0.5118 -0.1085 -0.4354
  513MOL0     C69134   5.590   7.191   2.601  0.2770 -0.2866  0.8318
  513MOL0     C69135   5.497   7.073   2.636 -0.2381 -0.3803 -0.5032
  513MOL0     C69136   5.354   7.100   2.668 -0.8707 -0.6409 -0.0867
  513MOL0     N69137   5.273   6.977   2.680  0.1620 -0.0533 -0.2364
  513MOL0     C69138   5.268   6.899   2.796 -0.8970  0.4496 -0.6341
  513MOL0     C69139   5.222   6.784   2.757  0.4674  0.0074 -0.4942
  513MOL0     C69140   5.196   6.660   2.832 -0.8510  0.0945 -0.0283
  513MOL0     C69141   5.070   6.587   2.778  0.1197  0.0961 -0.3243
  513MOL0     C69142   5.005   6.500   2.892 -0.1749 -0.0058  0.0966
  513MOL0     C69143   4.853   6.466   2.861 -0.5828 -0.6191  0.0950
  513MOL0     O69144   4.830   6.390   2.743  0.4015  0.0015  0.1233
  513MOL0     C69145   4.710   6.414   2.672 -0.4879  0.4032  0.0295
  513MOL0     C69146   4.709   6.407   2.538 -1.2888  0.1811  0.1492
  513MOL0     C69147   4.589   6.412   2.463 -1.1340  0.6623 -0.6568
  513MOL0     C69148   4.600   6.348   2.328 -0.4758 -0.1255 -0.2896
  513MOL0     C69149   4.471   6.435   2.529  0.0873  0.5003  0.0144
  513MOL0     C69150   4.339   6.431   2.454  0.5242 -0.6150 -0.5376
  513MOL0     O69151   4.228   6.376   2.511 -0.2283 -0.1519  0.0498
  513MOL0     C69152   4.100   6.421   2.475  0.3174  0.2504 -0.0768
  513MOL0     C69153   3.995   6.342   2.514  0.8190  0.1594 -0.3482
  513MOL0     C69154   3.860   6.376   2.503 -1.2508  0.0656  0.1965
  513MOL0     C69155   3.825   6.500   2.446 -0.2107  0.2970  0.2313
  513MOL0     O69156   3.694   6.529   2.428  0.0953 -0.3894 -0.3794
  513MOL0     C69157   3.640   6.596   2.535  0.0047 -0.3056  0.5153
  513MOL0     C69158   3.485   6.593   2.538 -0.4624  0.0280  0.3846
  513MOL0     C69159   3.429   6.468   2.591  0.4585 -0.3323  0.5937
  513MOL0     C69160   3.281   6.478   2.598  0.6587 -1.0127  0.0438
  513MOL0     C69161   3.209   6.363   2.680 -0.7869 -0.3083 -0.4901
  513MOL0     C69162   3.059   6.368   2.691  0.4106 -1.6458 -0.6916
  513MOL0     C69163   2.980   6.239   2.733  0.1319 -0.1759 -0.1691
  513MOL0     C69164   2.832   6.255   2.703 -1.0496  0.3097 -0.6156
  513MOL0    Cl69165   2.736   6.099   2.720 -0.3435  0.2202  0.2753
  513MOL0     C69166   3.935   6.582   2.405  0.3077  0.5190 -0.4318
  513MOL0     C69167   4.067   6.543   2.421  0.2984  0.2455  0.5965
  513MOL0     O69168   4.331   6.470   2.339 -0.2415  0.2424  0.6697
  513MOL0     C69169   4.471   6.445   2.665  0.7978 -1.0504 -0.2033
  513MOL0     C69170   4.586   6.440   2.736 -0.6393  1.1546 -0.2988
  513MOL0     N69171   5.191   6.791   2.628  0.4843  0.2111  0.5184
  513MOL0     N69172   5.215   6.907   2.579 -0.1040  0.2379 -0.3393
  513MOL0     C69173   6.460   7.102   2.681  0.6587 -0.0818  0.1422
  513MOL0     C69174   6.599   7.106   2.698 -0.6070 -0.4959  0.5368
  513MOL0     C69175   7.041   7.175   2.606  0.2506 -1.2828  0.4273
  513MOL0     C69176   7.093   7.292   2.679  0.1416  0.3537 -0.1395
  513MOL0     C69177   7.232   7.322   2.688 -0.4552 -0.5461  0.4730
  513MOL0     C69178   7.330   7.236   2.631  0.3066  0.3059  0.0962
  513MOL0     O69179   7.458   7.252   2.650  0.0783  0.6216  0.1039
  513MOL0     C69180   7.508   7.386   2.692  0.4917  0.5881 -0.6159
  513MOL0     C69181   7.651   7.384   2.734  0.2007 -0.2425 -0.7239
  513MOL0     C69182   7.756   7.358   2.630  0.4352  0.1081 -0.5405
  513MOL0     C69183   7.734   7.236   2.538  0.3454 -0.1110  1.2222
  513MOL0     C69184   7.858   7.195   2.469  0.0284 -0.7983  0.9444
  513MOL0     C69185   7.947   7.180   2.390 -0.1815  0.3638  0.1004
  513MOL0     C69186   7.277   7.122   2.570  0.1621  0.5550 -1.1590
  513MOL0     C69187   7.140   7.087   2.554  0.1883  0.0418  0.5152
  513MOL0     H69188   6.652   7.410   2.554 -0.1630 -1.2286 -1.1428
  513MOL0     H69189   6.408   7.416   2.551  3.5316  1.5400 -1.5454
  513MOL0     H69190   6.190   7.100   2.486 -1.5064  1.5158 -0.6040
  513MOL0     H69191   6.207   7.030   2.643  1.4016  0.0025 -1.1914
  513MOL0     H69192   5.976   7.041   2.619 -1.1799 -0.3277  1.0058
  513MOL0     H69193   6.012   7.185   2.719  2.4939  1.7244 -1.1313
  513MOL0     H69194   6.028   7.327   2.531  1.9851 -0.7525  2.2477
  513MOL0     H69195   5.980   7.216   2.415  3.6768  5.0611 -1.4094
  513MOL0     H69196   5.816   7.318   2.659 -2.1328  0.3952 -0.3380
  513MOL0     H69197   5.779   7.353   2.494  3.5242  3.0945  1.1221
  513MOL0     H69198   5.726   7.107   2.461  1.5633  1.9186 -1.3041
  513MOL0     H69199   5.760   7.072   2.633  2.6375  0.5035 -0.7501
  513MOL0     H69200   5.597   7.259   2.687  0.7509 -0.6304  1.0719
  513MOL0     H69201   5.551   7.238   2.510 -0.5536 -0.1251  1.2599
  513MOL0     H69202   5.497   7.002   2.554 -1.8212  1.3446 -2.0964
  513MOL0     H69203   5.545   7.017   2.716  2.2747 -1.6411 -2.7797
  513MOL0     H69204   5.317   7.154   2.581  2.1501  0.0174 -1.0660
  513MOL0     H69205   5.353   7.161   2.759 -0.5331 -3.2643  1.8318
  513MOL0     H69206   5.310   6.934   2.890  1.6524  1.1878 -1.9526
  513MOL0     H69207   5.291   6.605   2.827  0.2639  1.7712  1.4650
  513MOL0     H69208   5.190   6.689   2.937 -1.3338 -0.0316 -0.0193
  513MOL0     H69209   5.094   6.529   2.688  4.9521 -2.4860  2.2552
  513MOL0     H69210   4.988   6.653   2.747  0.5984 -0.2295 -2.4622
  513MOL0     H69211   5.008   6.562   2.983  1.9925  0.0887  0.0199
  513MOL0     H69212   5.058   6.406   2.911  0.9126 -0.0320 -2.7004
  513MOL0     H69213   4.806   6.564   2.849  0.1430 -0.3409 -0.5722
  513MOL0     H69214   4.804   6.419   2.947  1.0460 -1.6396  0.5135
  513MOL0     H69215   4.802   6.386   2.486 -1.1440 -0.8085  0.7735
  513MOL0     H69216   4.518   6.277   2.314  0.2169 -0.9759 -0.1370
  513MOL0     H69217   4.598   6.425   2.251 -0.2682  2.0226  1.7342
  513MOL0     H69218   4.701   6.310   2.308  0.9598  2.2104  1.7752
  513MOL0     H69219   4.021   6.244   2.553 -0.0601 -0.4176 -1.1666
  513MOL0     H69220   3.790   6.300   2.536 -0.5059  0.1978  2.1969
  513MOL0     H69221   3.682   6.564   2.632  1.5344  3.3464  1.2182
  513MOL0     H69222   3.673   6.700   2.525 -3.3836  0.6931 -1.5538
  513MOL0     H69223   3.453   6.679   2.597  4.1291  1.2875  1.4463
  513MOL0     H69224   3.440   6.596   2.438 -2.2216 -2.4282  1.0121
  513MOL0     H69225   3.465   6.468   2.694 -3.9303  2.2904  2.4087
  513MOL0     H69226   3.449   6.381   2.527  2.1477  2.1347 -2.5941
  513MOL0     H69227   3.246   6.566   2.654  1.2199 -0.3650 -0.6037
  513MOL0     H69228   3.234   6.475   2.500  0.3460 -2.0579  0.2186
  513MOL0     H69229   3.244   6.361   2.783 -1.7898  0.8070 -0.1066
  513MOL0     H69230   3.238   6.269   2.632 -1.6304 -0.6325 -0.3789
  513MOL0     H69231   3.032   6.442   2.767  3.6930 -2.0412  1.0430
  513MOL0     H69232   3.027   6.404   2.593 -0.6445  0.4546  0.3577
  513MOL0     H69233   3.001   6.218   2.838 -2.6100 -2.1001  0.1100
  513MOL0     H69234   3.011   6.155   2.670 -2.0395  0.6972 -2.5545
  513MOL0     H69235   2.816   6.299   2.604  0.3650 -0.8606 -1.3977
  513MOL0     H69236   2.784   6.323   2.774 -2.5203  1.2693 -2.4445
  513MOL0     H69237   3.914   6.680   2.362 -0.1377  0.2939 -0.7281
  513MOL0     H69238   4.136   6.616   2.381 -1.4078  1.9980  0.6854
  513MOL0     H69239   4.383   6.456   2.727  2.8643 -1.3027  3.0581
  513MOL0     H69240   4.586   6.436   2.844  3.1107 -1.7026 -0.2248
  513MOL0     H69241   6.408   7.014   2.719 -0.7324  1.4264  1.9101
  513MOL0     H69242   6.650   7.022   2.745 -0.8773 -1.0955 -0.2259
  513MOL0     H69243   7.015   7.346   2.732 -0.8799 -2.1011  0.9994
  513MOL0     H69244   7.245   7.416   2.740 -3.0785  1.9079 -2.8386
  513MOL0     H69245   7.498   7.451   2.605 -0.7230 -1.8574 -2.4138
  513MOL0     H69246   7.445   7.426   2.772 -0.4175 -0.9254 -0.5285
  513MOL0     H69247   7.660   7.304   2.808 -1.0007 -0.2279 -0.5548
  513MOL0     H69248   7.663   7.476   2.793  1.7348 -1.7592  1.5065
  513MOL0     H69249   7.855   7.346   2.676 -0.5599 -0.8551  1.4699
  513MOL0     H69250   7.762   7.450   2.570  0.8080  3.2855  3.8694
  513MOL0     H69251   7.651   7.249   2.468  0.4398 -1.2638  0.8782
  513MOL0     H69252   7.705   7.153   2.603  0.3397 -1.9300 -1.0054
  513MOL0     H69253   8.032   7.184   2.325  0.7258  1.9292  1.2959
  513MOL0     H69254   7.351   7.054   2.528  1.5220  0.0477  1.8177
  513MOL0     H69255   7.135   6.995   2.496  1.8295  0.8543 -0.9944
  514MOL0     O69256   7.421   4.481   6.770 -0.1227  0.7587  0.1544
  514MOL0     C69257   7.397   4.417   6.665 -1.0395  1.2820 -0.8081
  514MOL0     O69258   7.278   4.357   6.617 -0.0951 -0.2947 -0.2150
  514MOL0     C69259   7.167   4.351   6.692  0.5555  0.7374  0.6849
  514MOL0     C69260   7.037   4.384   6.633 -0.2355 -1.5299  1.0865
  514MOL0     C69261   6.925   4.370   6.704 -0.8745  0.0996  0.7403
  514MOL0     C69262   6.924   4.320   6.831  1.0576 -0.0260 -0.5070
  514MOL0     O69263   6.799   4.283   6.886  0.1663  0.0156 -0.4289
  514MOL0     C69264   6.789   4.175   6.975  0.3352 -0.3122 -0.2111
  514MOL0     C69265   6.642   4.151   6.991  0.0636  0.1297 -0.4214
  514MOL0     C69266   6.606   4.014   7.049 -0.6865  0.5429  0.0288
  514MOL0     C69267   6.451   3.995   7.056 -0.5033  1.1261 -0.0514
  514MOL0     C69268   6.387   4.090   7.147 -0.7132  0.6035  0.5589
  514MOL0     C69269   6.254   4.019   7.184  0.2732  0.6935 -0.1873
  514MOL0     C69270   6.175   4.103   7.288 -0.2482  0.0818 -1.1322
  514MOL0     C69271   6.209   4.070   7.434  0.0087  0.2453 -0.0684
  514MOL0     N69272   6.115   4.142   7.521 -0.1778  0.2761 -0.2291
  514MOL0     C69273   5.978   4.120   7.532 -0.2119  0.3186 -0.6316
  514MOL0     C69274   5.934   4.200   7.627  0.4097  0.6703  0.1057
  514MOL0     C69275   5.791   4.230   7.664 -0.5155 -0.3622 -0.0283
  514MOL0     C69276   5.715   4.097   7.695 -0.6689  0.2280  0.0368
  514MOL0     C69277   5.562   4.114   7.695 -0.2173  0.2184 -0.6204
  514MOL0     C69278   5.488   3.975   7.690 -0.3949  0.0513 -0.0458
  514MOL0     O69279   5.351   3.997   7.667  0.6529  0.2662  0.1213
  514MOL0     C69280   5.249   3.922   7.734 -0.2018  0.0620  0.2562
  514MOL0     C69281   5.114   3.962   7.715 -0.7806  0.3713  0.0651
  514MOL0     C69282   5.008   3.902   7.782 -0.1804  0.2437 -0.5636
  514MOL0     C69283   4.876   3.987   7.776 -0.1874 -1.0200  0.2461
  514MOL0     C69284   5.026   3.776   7.838  0.9559  0.7575 -0.5142
  514MOL0     C69285   4.923   3.696   7.905  0.4655 -0.1880 -0.0996
  514MOL0     O69286   4.955   3.574   7.944 -0.4185  0.1760  0.4382
  514MOL0     C69287   4.855   3.492   7.986  0.6555 -0.1799  0.9726
  514MOL0     C69288   4.789   3.402   7.904 -0.3970  0.4009 -0.4000
  514MOL0     C69289   4.692   3.318   7.960 -0.1658 -0.0248 -0.7234
  514MOL0     C69290   4.654   3.333   8.093  0.4734 -0.2733  0.1557
  514MOL0     O69291   4.562   3.253   8.154  1.1747  0.1543 -0.0830
  514MOL0     C69292   4.493   3.146   8.082  0.5407 -0.0294  0.4260
  514MOL0     C69293   4.387   3.086   8.171  0.0751 -0.0605 -0.5654
  514MOL0     C69294   4.312   2.968   8.095 -0.3302 -0.3732 -0.2849
  514MOL0     C69295   4.185   2.914   8.157  0.1605  0.4678 -0.0422
  514MOL0     C69296   4.102   2.830   8.061 -0.3715  0.2902 -0.5934
  514MOL0     C69297   3.989   2.750   8.123 -0.3978  0.0376 -0.1021
  514MOL0     C69298   3.891   2.698   8.014 -1.0203  0.3114  1.1909
  514MOL0     C69299   3.959   2.600   7.913  0.7484 -0.1137 -0.4155
  514MOL0    Cl69300   3.838   2.477   7.861 -0.0886 -0.3680  0.0218
  514MOL0     C69301   4.724   3.417   8.180 -0.0845 -0.0300 -1.3040
  514MOL0     C69302   4.824   3.498   8.126 -0.5443  0.2365 -0.6577
  514MOL0     O69303   4.816   3.751   7.927  0.3399  0.1981  0.1616
  514MOL0     C69304   5.159   3.731   7.842  0.6254 -0.4792 -0.5187
  514MOL0     C69305   5.267   3.808   7.802  0.1068  0.1482  0.5567
  514MOL0     N69306   6.034   4.280   7.666 -0.3001  0.0158  0.5171
  514MOL0     N69307   6.144   4.249   7.604 -0.6353  0.0529  0.2909
  514MOL0     C69308   7.044   4.281   6.892  0.5222 -0.4518  0.6028
  514MOL0     C69309   7.170   4.299   6.821 -0.4540 -0.4468  0.3345
  514MOL0     C69310   7.516   4.407   6.566  1.0147 -0.6572 -0.4343
  514MOL0     C69311   7.622   4.493   6.569  1.1500  0.1265 -0.4587
  514MOL0     C69312   7.718   4.494   6.477 -0.2306  0.4958  1.1790
  514MOL0     C69313   7.731   4.395   6.382  0.5855  0.5297 -0.0268
  514MOL0     O69314   7.835   4.394   6.298  1.0403  0.0420 -0.3774
  514MOL0     C69315   7.807   4.355   6.158 -0.1749 -1.0239  0.5009
  514MOL0     C69316   7.940   4.355   6.078 -0.1981 -0.0724 -0.7278
  514MOL0     C69317   7.927   4.296   5.936  0.0034  0.2543 -0.4495
  514MOL0     C69318   8.057   4.227   5.895 -0.1673 -0.4478  0.0223
  514MOL0     C69319   8.174   4.324   5.898  0.2558  0.6591 -0.2953
  514MOL0     C69320   8.259   4.409   5.891 -0.5421  0.1259  0.2336
  514MOL0     C69321   7.624   4.311   6.368  0.4038 -0.0387  0.1701
  514MOL0     C69322   7.517   4.318   6.460  0.2252 -0.6054 -0.2003
  514MOL0     H69323   7.030   4.420   6.531 -4.2223 -5.3010 -0.2588
  514MOL0     H69324   6.826   4.382   6.662 -0.1881  0.3891 -0.8419
  514MOL0     H69325   6.825   4.085   6.925  2.7290  0.2516  0.3446
  514MOL0     H69326   6.831   4.189   7.075 -2.0734 -2.0753  1.1467
  514MOL0     H69327   6.610   4.233   7.056  0.1603 -1.2257  1.4347
  514MOL0     H69328   6.592   4.167   6.896 -2.0793  0.3253  0.6828
  514MOL0     H69329   6.660   3.947   6.982 -0.7775  2.1511 -1.7824
  514MOL0     H69330   6.649   4.002   7.149  0.4474 -0.5547 -0.5574
  514MOL0     H69331   6.405   4.002   6.957 -1.9218 -0.2222  0.4587
  514MOL0     H69332   6.441   3.891   7.089 -0.0429  0.1224 -2.8663
  514MOL0     H69333   6.426   4.091   7.249  2.0025  3.3056 -0.3631
  514MOL0     H69334   6.379   4.187   7.098 -3.4052 -0.5424 -1.5713
  514MOL0     H69335   6.189   4.019   7.096 -0.2122  2.8260  0.1071
  514MOL0     H69336   6.269   3.917   7.220 -0.0228  0.7357  0.0545
  514MOL0     H69337   6.199   4.208   7.269 -2.7055  0.8099 -0.5391
  514MOL0     H69338   6.067   4.089   7.277 -0.2255 -1.2511  0.0304
  514MOL0     H69339   6.312   4.105   7.447  0.0243  0.6632 -1.2008
  514MOL0     H69340   6.206   3.965   7.463  1.2300 -0.0929 -1.0665
  514MOL0     H69341   5.913   4.052   7.477 -0.6101  2.1418 -2.5567
  514MOL0     H69342   5.792   4.299   7.750 -2.6986 -1.9385  1.3848
  514MOL0     H69343   5.747   4.295   7.588  2.3093  1.5147 -0.2218
  514MOL0     H69344   5.752   4.049   7.786  0.2390 -3.3892 -2.0449
  514MOL0     H69345   5.737   4.027   7.614 -0.2084  2.6340 -2.0558
  514MOL0     H69346   5.529   4.187   7.621  1.4084  2.1370  0.4293
  514MOL0     H69347   5.538   4.147   7.797  0.9231 -0.7144 -0.0148
  514MOL0     H69348   5.516   3.924   7.782  1.1590  1.6137  0.4003
  514MOL0     H69349   5.517   3.925   7.597 -0.7422  0.3710 -0.3339
  514MOL0     H69350   5.094   4.041   7.643  2.4205  1.6634  0.4214
  514MOL0     H69351   4.784   3.940   7.811 -0.2342 -1.7984 -0.8768
  514MOL0     H69352   4.888   4.085   7.825  0.1533  0.1404 -2.0422
  514MOL0     H69353   4.862   3.999   7.669 -1.6128 -6.0261 -0.3546
  514MOL0     H69354   4.807   3.395   7.797  1.8939  1.3260 -0.1387
  514MOL0     H69355   4.646   3.242   7.897  1.0169  0.5866 -2.4213
  514MOL0     H69356   4.443   3.182   7.991 -1.4075 -0.9063  1.0982
  514MOL0     H69357   4.568   3.070   8.058  0.8289 -0.0584  1.4051
  514MOL0     H69358   4.433   3.062   8.267 -0.2463 -0.7925 -0.5914
  514MOL0     H69359   4.315   3.165   8.195 -0.4865 -1.0013  0.9732
  514MOL0     H69360   4.380   2.882   8.095  0.4145  0.2003 -1.5067
  514MOL0     H69361   4.305   2.991   7.989 -3.6715 -1.8100 -0.5010
  514MOL0     H69362   4.211   2.862   8.250 -0.5337  0.7385  0.3090
  514MOL0     H69363   4.132   2.999   8.202 -0.2971 -0.6114  1.5471
  514MOL0     H69364   4.170   2.758   8.015 -0.2921 -1.0327  1.4345
  514MOL0     H69365   4.068   2.891   7.977 -1.2419 -2.2397 -2.1870
  514MOL0     H69366   4.032   2.668   8.181  0.1355 -0.5823 -1.3488
  514MOL0     H69367   3.939   2.815   8.196 -1.6356 -0.6604 -0.3007
  514MOL0     H69368   3.836   2.783   7.973  0.5053 -0.4313 -2.8996
  514MOL0     H69369   3.833   2.628   8.074 -1.5937 -0.8911 -0.6920
  514MOL0     H69370   4.038   2.543   7.963  0.3947 -0.3199 -0.0832
  514MOL0     H69371   4.004   2.661   7.834  0.7156 -0.9038 -1.0486
  514MOL0     H69372   4.699   3.425   8.286 -2.9656 -3.4112 -1.5404
  514MOL0     H69373   4.876   3.573   8.185 -1.0610 -1.4148  2.0814
  514MOL0     H69374   5.187   3.630   7.868 -1.4934 -1.8685 -3.1129
  514MOL0     H69375   5.371   3.778   7.810  0.0003 -0.3702  0.0200
  514MOL0     H69376   7.052   4.228   6.987 -0.0710  0.8569  1.4112
  514MOL0     H69377   7.265   4.272   6.866 -0.9472  0.9885  2.4218
  514MOL0     H69378   7.635   4.547   6.662 -2.6529 -4.3655  3.2184
  514MOL0     H69379   7.805   4.558   6.489 -0.1802  0.4573  1.0242
  514MOL0     H69380   7.759   4.256   6.158 -1.8087 -0.2831  1.3287
  514MOL0     H69381   7.742   4.427   6.109  0.8480 -1.5540 -1.7283
  514MOL0     H69382   8.007   4.300   6.144  0.0306  1.3253  0.2348
  514MOL0     H69383   7.966   4.461   6.079 -0.4020 -0.0219 -0.5945
  514MOL0     H69384   7.895   4.374   5.867 -0.6458 -0.8997 -1.4935
  514MOL0     H69385   7.850   4.218   5.933 -0.9735  1.2258 -1.2502
  514MOL0     H69386   8.054   4.186   5.794 -0.6693 -0.4777  0.0440
  514MOL0     H69387   8.082   4.147   5.965 -0.1719  0.1895  0.7672
  514MOL0     H69388   8.329   4.491   5.898 -1.0101  0.4746  1.0820
  514MOL0     H69389   7.623   4.236   6.290  2.2539 -0.7226  0.7316
  514MOL0     H69390   7.438   4.244   6.452  1.1811 -1.5212 -1.6707
  515MOL0     O69391   2.075   5.200   5.416 -0.8618 -0.7922  0.1667
  515MOL0     C69392   2.084   5.237   5.294 -0.8453  0.2322  0.4155
  515MOL0     O69393   1.980   5.250   5.202 -0.8588  0.6443 -0.0590
  515MOL0     C69394   1.854   5.221   5.241 -1.3866  0.1671  0.1402
  515MOL0     C69395   1.821   5.099   5.305 -0.8847  0.1979  0.7111
  515MOL0     C69396   1.693   5.077   5.355  0.0868  0.8659 -0.0667
  515MOL0     C69397   1.589   5.171   5.335  0.6231  0.8441  0.3547
  515MOL0     O69398   1.460   5.163   5.376  0.1871 -0.2622  0.0575
  515MOL0     C69399   1.406   5.031   5.383  0.1641 -0.1731 -0.9873
  515MOL0     C69400   1.256   5.050   5.366  0.6624 -0.0037  0.7727
  515MOL0     C69401   1.212   5.047   5.228 -0.6711  1.0428  0.3498
  515MOL0     C69402   1.064   5.097   5.193  0.1741  0.0459  0.3854
  515MOL0     C69403   0.950   4.995   5.232 -0.1053  0.1289 -0.1165
  515MOL0     C69404   0.813   5.058   5.197 -0.1439 -0.1234  0.0471
  515MOL0     C69405   0.702   4.962   5.193  0.6328 -0.4898 -0.8106
  515MOL0     C69406   0.575   5.022   5.134  0.3860  0.0763  0.0013
  515MOL0     N69407   0.456   4.923   5.128 -0.6897 -0.5238  1.0099
  515MOL0     C69408   0.423   4.848   5.238  0.3511  0.3202 -0.7923
  515MOL0     C69409   0.304   4.794   5.203 -0.2458  0.5481 -0.7731
  515MOL0     C69410   0.216   4.706   5.290 -0.3037  0.1395  0.8316
  515MOL0     C69411   0.222   4.551   5.274 -0.3453 -0.9718 -0.5198
  515MOL0     C69412   0.119   4.480   5.178 -0.9565 -0.4131 -0.5756
  515MOL0     C69413   0.103   4.552   5.031 -0.4101 -0.6182  0.3388
  515MOL0     O69414  -0.006   4.495   4.956 -0.0835  0.2507  1.1789
  515MOL0     C69415  -0.135   4.477   5.005 -0.2549  0.4921  0.6355
  515MOL0     C69416  -0.198   4.372   4.945  1.0323  0.3316  0.3219
  515MOL0     C69417  -0.335   4.336   4.985  0.2249  1.3601 -0.1381
  515MOL0     C69418  -0.403   4.222   4.904  0.1552  0.0129  0.3655
  515MOL0     C69419  -0.403   4.421   5.080  0.2123  0.1129 -0.4206
  515MOL0     C69420  -0.549   4.402   5.129 -0.2188  0.6461 -0.0187
  515MOL0     O69421  -0.600   4.479   5.233 -0.5961  0.4293  0.0805
  515MOL0     C69422  -0.729   4.469   5.278  0.0011  0.0917 -0.8057
  515MOL0     C69423  -0.847   4.435   5.215 -0.2628 -0.5543 -0.6942
  515MOL0     C69424  -0.968   4.406   5.284  0.1050  0.3464  1.0843
  515MOL0     C69425  -0.976   4.427   5.424  0.3066  0.4141  0.3792
  515MOL0     O69426  -1.090   4.407   5.488  0.2321 -0.0191 -0.1316
  515MOL0     C69427  -1.134   4.515   5.575  0.4413  0.0019 -0.0994
  515MOL0     C69428  -1.287   4.499   5.603 -1.4233  0.2369 -0.2808
  515MOL0     C69429  -1.316   4.368   5.678 -0.4193  0.3381 -0.4908
  515MOL0     C69430  -1.463   4.327   5.671 -0.1840  0.0355 -0.4833
  515MOL0     C69431  -1.487   4.197   5.751 -0.2992 -0.4560  0.5225
  515MOL0     C69432  -1.641   4.163   5.737 -0.3298 -1.0902 -0.5296
  515MOL0     C69433  -1.684   4.065   5.846  0.1906 -0.6886 -1.1501
  515MOL0     C69434  -1.716   4.136   5.980  0.6900  0.1119  0.3060
  515MOL0    Cl69435  -1.839   4.267   5.963  0.3315  0.0273 -0.0050
  515MOL0     C69436  -0.856   4.467   5.488 -0.3450 -0.6406  0.3258
  515MOL0     C69437  -0.739   4.491   5.411  0.1886  0.7397  0.0118
  515MOL0     O69438  -0.618   4.327   5.060 -0.0019  0.1570  0.2400
  515MOL0     C69439  -0.325   4.515   5.150 -0.2872  0.3980 -0.2540
  515MOL0     C69440  -0.194   4.544   5.110 -0.1535  0.4296 -0.3549
  515MOL0     N69441   0.289   4.812   5.067 -0.3240 -0.8679 -0.2279
  515MOL0     N69442   0.382   4.888   5.020  0.0041 -0.3830 -0.0268
  515MOL0     C69443   1.626   5.279   5.247 -0.3015 -0.7928  0.4067
  515MOL0     C69444   1.751   5.305   5.207  0.1070 -0.0774 -0.1847
  515MOL0     C69445   2.220   5.260   5.234 -0.1102  0.3881  1.1708
  515MOL0     C69446   2.337   5.247   5.312  1.0472 -0.3199 -0.3187
  515MOL0     C69447   2.463   5.269   5.267  0.9323 -0.0093  0.1259
  515MOL0     C69448   2.489   5.297   5.133 -0.7885  0.4977  0.6244
  515MOL0     O69449   2.623   5.326   5.108  0.2324 -0.4135 -0.2930
  515MOL0     C69450   2.657   5.412   4.998 -0.0303  0.4193 -0.4810
  515MOL0     C69451   2.666   5.316   4.872  0.0359  0.2122 -0.0353
  515MOL0     C69452   2.774   5.211   4.897 -0.4207  0.0227 -0.7316
  515MOL0     C69453   2.826   5.134   4.774  1.1237  0.0219 -0.2551
  515MOL0     C69454   2.728   5.047   4.699 -0.1538  0.7949 -0.5710
  515MOL0     C69455   2.645   4.989   4.634  0.1618  0.5691 -0.5852
  515MOL0     C69456   2.376   5.302   5.043 -0.1414  0.0145 -0.4835
  515MOL0     C69457   2.243   5.280   5.093  0.4807 -0.0252 -0.0008
  515MOL0     H69458   1.897   5.027   5.333  1.7077  2.5190  0.1295
  515MOL0     H69459   1.665   4.987   5.409  0.4350  1.6928  1.5694
  515MOL0     H69460   1.449   4.952   5.320  3.1577  0.2970  0.3283
  515MOL0     H69461   1.423   5.002   5.487 -0.8218  2.9704  0.1671
  515MOL0     H69462   1.209   4.975   5.430 -1.9403  2.7971  2.4312
  515MOL0     H69463   1.218   5.144   5.408  0.1554  1.2928 -2.3156
  515MOL0     H69464   1.277   5.117   5.176  0.7483  2.3092  3.5557
  515MOL0     H69465   1.232   4.946   5.190  0.5436  2.5590 -3.4882
  515MOL0     H69466   1.049   5.198   5.234 -2.0679 -0.0831  0.0190
  515MOL0     H69467   1.051   5.114   5.086  1.2041  3.9612  0.7323
  515MOL0     H69468   0.962   4.903   5.174  0.8825 -1.1803  2.0130
  515MOL0     H69469   0.940   4.953   5.333  1.9310 -2.6218 -0.9402
  515MOL0     H69470   0.796   5.124   5.283  1.5390 -1.5560  1.5574
  515MOL0     H69471   0.805   5.111   5.102 -2.3080 -2.8093 -1.4252
  515MOL0     H69472   0.732   4.887   5.118 -0.7698 -0.6492 -1.2334
  515MOL0     H69473   0.677   4.918   5.290  1.4867  1.5615  0.3895
  515MOL0     H69474   0.607   5.051   5.033 -1.0583  0.5086 -0.3570
  515MOL0     H69475   0.536   5.102   5.197 -1.2296 -0.1803 -0.6443
  515MOL0     H69476   0.483   4.839   5.329 -2.1744  1.5262  1.1386
  515MOL0     H69477   0.245   4.728   5.393  2.3295  1.3193 -0.0811
  515MOL0     H69478   0.116   4.750   5.283  0.1854  1.5247  1.9700
  515MOL0     H69479   0.213   4.494   5.367  0.7693 -2.3577 -1.2152
  515MOL0     H69480   0.326   4.541   5.241  0.0296  0.2391  0.2260
  515MOL0     H69481   0.025   4.473   5.233 -2.6210  1.8535 -2.8668
  515MOL0     H69482   0.166   4.384   5.156  0.1737 -0.2948  1.1510
  515MOL0     H69483   0.197   4.546   4.976 -0.4600  2.2566 -0.2190
  515MOL0     H69484   0.076   4.656   5.052  0.0873 -0.0086 -1.7947
  515MOL0     H69485  -0.139   4.308   4.880  0.8670 -0.7133  1.1617
  515MOL0     H69486  -0.445   4.151   4.976 -0.0569 -0.4262 -0.1813
  515MOL0     H69487  -0.482   4.248   4.833  1.7754  0.3658 -1.3907
  515MOL0     H69488  -0.350   4.164   4.828 -3.7707 -2.9040 -0.4887
  515MOL0     H69489  -0.857   4.408   5.111 -0.2925 -3.3709 -0.0474
  515MOL0     H69490  -1.052   4.372   5.225  0.9978 -1.1399  0.6040
  515MOL0     H69491  -1.082   4.516   5.671 -0.1219 -2.3979  0.2889
  515MOL0     H69492  -1.124   4.607   5.517 -0.7233 -1.7449 -3.3423
  515MOL0     H69493  -1.323   4.581   5.667  0.7547  0.6444  0.5168
  515MOL0     H69494  -1.342   4.486   5.509 -1.1510 -0.0105 -0.4057
  515MOL0     H69495  -1.270   4.381   5.776 -0.1418 -0.0724 -0.5661
  515MOL0     H69496  -1.258   4.283   5.640 -0.1464 -0.5614  1.7794
  515MOL0     H69497  -1.527   4.407   5.709  1.1440  2.2916 -2.6844
  515MOL0     H69498  -1.487   4.300   5.568  1.3167 -1.4461 -0.4975
  515MOL0     H69499  -1.466   4.209   5.858 -1.9861  1.3654  0.7287
  515MOL0     H69500  -1.431   4.112   5.712 -1.1267 -0.2496 -1.2264
  515MOL0     H69501  -1.694   4.258   5.751  1.3464 -0.3007  1.0307
  515MOL0     H69502  -1.664   4.125   5.638  1.0681  1.0753 -1.7706
  515MOL0     H69503  -1.602   3.993   5.856  0.8409  0.1635 -0.2024
  515MOL0     H69504  -1.779   4.018   5.819 -2.1225  1.7821  2.0481
  515MOL0     H69505  -1.625   4.174   6.028  2.3995 -1.0879 -1.7870
  515MOL0     H69506  -1.756   4.063   6.052  2.2375 -1.8223 -0.6921
  515MOL0     H69507  -0.852   4.492   5.594  2.6852 -0.6749  0.2983
  515MOL0     H69508  -0.642   4.509   5.455  1.0310 -1.8136 -0.6171
  515MOL0     H69509  -0.366   4.573   5.232  0.9465  1.5967 -0.4490
  515MOL0     H69510  -0.140   4.624   5.160  2.5995 -0.0471 -2.3428
  515MOL0     H69511   1.554   5.356   5.220  2.0323  1.8164  1.0669
  515MOL0     H69512   1.785   5.399   5.165 -0.2606  1.1855  2.1435
  515MOL0     H69513   2.323   5.221   5.416 -0.7932 -1.9690 -0.9197
  515MOL0     H69514   2.548   5.274   5.333  1.4266  1.4853 -0.5898
  515MOL0     H69515   2.574   5.479   4.976  0.4492  0.6728 -1.5904
  515MOL0     H69516   2.749   5.470   5.013  0.4673 -0.9763  2.3525
  515MOL0     H69517   2.687   5.378   4.784  0.7923 -0.6726 -0.4909
  515MOL0     H69518   2.569   5.266   4.861 -1.0208  1.4696  2.6801
  515MOL0     H69519   2.745   5.149   4.982 -0.2859  2.4526  1.1967
  515MOL0     H69520   2.858   5.271   4.934 -0.3365 -0.5679  0.0764
  515MOL0     H69521   2.911   5.070   4.803 -1.2964 -2.4360  1.9825
  515MOL0     H69522   2.862   5.209   4.704  2.0070  1.1360  1.3263
  515MOL0     H69523   2.580   4.926   4.577  0.1867  0.5802 -0.6256
  515MOL0     H69524   2.395   5.316   4.937  3.7401  1.0923  0.1998
  515MOL0     H69525   2.169   5.280   5.013  0.8361 -1.2448 -0.3463
  516MOL0     O69526   6.013   3.137   5.554 -0.4063 -0.2925  0.1048
  516MOL0     C69527   6.067   3.235   5.501 -0.4742  0.1323  0.3963
  516MOL0     O69528   6.000   3.348   5.452 -0.9541 -0.7095  0.1041
  516MOL0     C69529   5.861   3.344   5.475  0.0118  0.0549 -0.2837
  516MOL0     C69530   5.784   3.310   5.364  0.9289 -0.9452  0.5732
  516MOL0     C69531   5.644   3.300   5.375  0.0066 -0.1768  0.9409
  516MOL0     C69532   5.579   3.347   5.491 -0.3143 -0.2868 -0.1436
  516MOL0     O69533   5.440   3.336   5.513  0.1493 -0.1454 -0.0570
  516MOL0     C69534   5.375   3.427   5.605 -0.3470  0.4619  0.3957
  516MOL0     C69535   5.231   3.381   5.627  0.4745 -0.0621  1.2644
  516MOL0     C69536   5.161   3.376   5.488  0.3017 -0.5741  0.3727
  516MOL0     C69537   5.013   3.333   5.517 -0.2589 -0.6694  0.6786
  516MOL0     C69538   4.939   3.302   5.383  0.0583 -0.4718 -0.2418
  516MOL0     C69539   4.789   3.307   5.411 -0.2360  0.6391 -1.0559
  516MOL0     C69540   4.711   3.262   5.281  0.4888  0.5550 -1.0623
  516MOL0     C69541   4.621   3.137   5.307 -0.2170  0.0613  0.4809
  516MOL0     N69542   4.559   3.079   5.189 -0.1976  0.1067  1.0496
  516MOL0     C69543   4.632   3.025   5.081 -0.7517 -0.3144  0.5691
  516MOL0     C69544   4.546   2.984   4.986 -0.3527 -0.2351  0.7372
  516MOL0     C69545   4.589   2.907   4.856 -0.1444 -0.4529  0.2888
  516MOL0     C69546   4.479   2.877   4.755  0.2587  0.1928 -0.0105
  516MOL0     C69547   4.520   2.841   4.613  0.0523 -0.2298  0.1740
  516MOL0     C69548   4.425   2.909   4.515 -0.7835  0.8645  0.2559
  516MOL0     O69549   4.467   3.045   4.485 -0.2895  0.5792  0.0981
  516MOL0     C69550   4.583   3.080   4.410 -0.6696 -0.3802  0.2922
  516MOL0     C69551   4.658   2.984   4.335  0.3065 -1.0115 -0.4439
  516MOL0     C69552   4.777   3.025   4.277 -0.1210  0.4208  0.6345
  516MOL0     C69553   4.848   2.914   4.197  0.9248 -0.6552  0.1363
  516MOL0     C69554   4.817   3.165   4.276 -0.5361  0.0550  0.0423
  516MOL0     C69555   4.942   3.218   4.207 -0.0818 -0.0030  0.6556
  516MOL0     O69556   4.997   3.144   4.110 -0.3769 -0.0171  0.0771
  516MOL0     C69557   5.134   3.146   4.109 -0.7181 -0.9879  0.0566
  516MOL0     C69558   5.204   3.072   4.202 -0.4936 -0.3574 -0.3675
  516MOL0     C69559   5.343   3.070   4.186 -0.1791 -0.0175 -0.4860
  516MOL0     C69560   5.416   3.123   4.081  0.3740  0.7624 -1.2785
  516MOL0     O69561   5.550   3.110   4.078  0.4389  0.1046  0.0935
  516MOL0     C69562   5.612   3.190   3.981 -0.0462 -0.7919 -0.7819
  516MOL0     C69563   5.764   3.184   3.988 -0.0136  0.2045  0.2011
  516MOL0     C69564   5.834   3.268   3.874 -0.2512 -1.1569  0.6109
  516MOL0     C69565   5.982   3.298   3.904  0.2738 -0.0032 -0.1708
  516MOL0     C69566   6.036   3.406   3.812 -0.2305 -0.5599  0.9257
  516MOL0     C69567   6.169   3.471   3.850 -0.4933 -0.7772  0.2604
  516MOL0     C69568   6.278   3.358   3.841 -0.6098 -0.7710 -0.4161
  516MOL0     C69569   6.420   3.428   3.833 -0.0016 -0.7389  0.3556
  516MOL0    Cl69570   6.560   3.323   3.892 -0.1860 -0.4611 -0.7323
  516MOL0     C69571   5.342   3.199   3.986 -0.0020  0.1248 -0.9287
  516MOL0     C69572   5.200   3.203   4.000 -0.1899  0.2223  0.2382
  516MOL0     O69573   4.993   3.327   4.240  0.2934  0.3860  1.0800
  516MOL0     C69574   4.735   3.256   4.345 -0.2200 -0.0135 -0.4439
  516MOL0     C69575   4.624   3.217   4.416 -0.3474  0.4403 -0.1564
  516MOL0     N69576   4.418   3.013   5.038  0.0199  0.1566  0.3707
  516MOL0     N69577   4.431   3.072   5.159 -0.1036 -0.3424 -0.3113
  516MOL0     C69578   5.656   3.382   5.598  0.5200 -1.1731 -1.7231
  516MOL0     C69579   5.792   3.390   5.588  0.4217 -0.0551 -0.2534
  516MOL0     C69580   6.211   3.238   5.495  0.0253  0.0207  0.5453
  516MOL0     C69581   6.286   3.148   5.576 -0.5470 -0.4583 -0.4849
  516MOL0     C69582   6.429   3.158   5.574  0.4973 -0.0078  0.0957
  516MOL0     C69583   6.495   3.264   5.501  0.4406 -0.4060  0.5086
  516MOL0     O69584   6.631   3.293   5.514  0.3930 -1.2730 -0.1586
  516MOL0     C69585   6.713   3.185   5.535 -0.5910  1.1810  0.1942
  516MOL0     C69586   6.786   3.200   5.668  0.3565  0.5683 -0.4816
  516MOL0     C69587   6.886   3.323   5.683  0.5839  0.4314  0.3208
  516MOL0     C69588   6.972   3.357   5.560  0.1296 -0.0649  0.0172
  516MOL0     C69589   7.062   3.462   5.588 -0.0843 -0.2924 -0.0327
  516MOL0     C69590   7.148   3.548   5.618  0.1064  0.0970 -0.0424
  516MOL0     C69591   6.420   3.355   5.429 -0.2216 -0.2673 -0.1875
  516MOL0     C69592   6.280   3.334   5.421  0.3706 -0.4595  0.0566
  516MOL0     H69593   5.851   3.291   5.282  1.0153 -0.3700  0.5131
  516MOL0     H69594   5.581   3.261   5.295 -0.6980 -2.1361  2.3703
  516MOL0     H69595   5.413   3.418   5.707 -1.9695  2.2634  1.2187
  516MOL0     H69596   5.379   3.532   5.574 -1.0465  0.5341  0.5251
  516MOL0     H69597   5.226   3.280   5.669 -1.5458  0.2458  1.8888
  516MOL0     H69598   5.167   3.449   5.685  0.1280  1.4560 -0.8001
  516MOL0     H69599   5.163   3.477   5.446  0.3439  0.6652  3.1047
  516MOL0     H69600   5.218   3.310   5.422  1.8338 -0.1727  1.2423
  516MOL0     H69601   5.017   3.243   5.579  0.0288 -1.1005  0.0473
  516MOL0     H69602   4.974   3.421   5.569  2.2750  0.5950  0.5586
  516MOL0     H69603   4.966   3.369   5.301  2.1774 -0.8331  0.0939
  516MOL0     H69604   4.968   3.199   5.361 -1.8498 -0.8808 -0.9644
  516MOL0     H69605   4.754   3.252   5.498  1.6706 -2.2066 -1.9460
  516MOL0     H69606   4.762   3.410   5.437 -0.6790  0.1747  0.3877
  516MOL0     H69607   4.651   3.347   5.250  3.7128  3.1737 -0.6495
  516MOL0     H69608   4.772   3.245   5.192  1.9174  2.6690 -0.5625
  516MOL0     H69609   4.547   3.159   5.385 -1.3880  0.7494 -0.7816
  516MOL0     H69610   4.695   3.070   5.352  1.3281  1.4779  0.1303
  516MOL0     H69611   4.740   3.013   5.079 -0.7321 -0.0909  0.1085
  516MOL0     H69612   4.660   2.966   4.797  2.0555 -2.8437  0.3617
  516MOL0     H69613   4.628   2.808   4.880 -0.1021 -1.3599 -2.9995
  516MOL0     H69614   4.416   2.966   4.752 -1.2303 -0.8466 -0.8024
  516MOL0     H69615   4.420   2.796   4.798 -1.5399  0.2045 -2.2935
  516MOL0     H69616   4.501   2.733   4.613 -2.3940  0.1003 -1.6119
  516MOL0     H69617   4.625   2.857   4.590  0.0772 -1.3877 -0.6465
  516MOL0     H69618   4.323   2.911   4.556  0.6262  1.1538  4.1666
  516MOL0     H69619   4.422   2.857   4.419 -1.1310  3.3767 -1.1841
  516MOL0     H69620   4.624   2.882   4.320 -0.2302 -0.6280 -2.0241
  516MOL0     H69621   4.815   2.815   4.232 -0.2706  0.5374  2.7096
  516MOL0     H69622   4.810   2.922   4.095  1.1440  1.7131  0.1799
  516MOL0     H69623   4.955   2.920   4.218  1.3246  0.9076 -2.0574
  516MOL0     H69624   5.160   3.019   4.286  1.0612  1.1983  1.5495
  516MOL0     H69625   5.406   3.002   4.242 -0.7985 -0.3111 -0.1366
  516MOL0     H69626   5.580   3.160   3.881  0.9625  3.5599 -2.6287
  516MOL0     H69627   5.582   3.294   3.988 -0.5249 -0.9677 -0.0864
  516MOL0     H69628   5.793   3.221   4.087  2.3205 -1.3963  0.2012
  516MOL0     H69629   5.798   3.080   3.976 -0.7089 -0.1470  1.1611
  516MOL0     H69630   5.791   3.367   3.861  0.7664 -0.8537 -0.7257
  516MOL0     H69631   5.822   3.217   3.778 -0.9365 -2.2420  1.2603
  516MOL0     H69632   5.996   3.335   4.006 -1.5108  0.1813  0.0335
  516MOL0     H69633   6.042   3.207   3.892 -0.1161 -0.2727 -0.0878
  516MOL0     H69634   5.956   3.480   3.801 -0.4693 -0.5955  2.2947
  516MOL0     H69635   6.046   3.352   3.717 -0.6735 -2.0628  1.7054
  516MOL0     H69636   6.183   3.545   3.771  0.6581 -1.4897 -0.2137
  516MOL0     H69637   6.153   3.517   3.949 -1.5558  0.4938 -0.4700
  516MOL0     H69638   6.257   3.287   3.760 -1.3598  0.0824 -0.9811
  516MOL0     H69639   6.290   3.308   3.938 -0.6456  1.1455  0.6284
  516MOL0     H69640   6.422   3.522   3.889  1.6544  0.2857 -1.3155
  516MOL0     H69641   6.436   3.453   3.728 -2.7296  0.2647  0.0954
  516MOL0     H69642   5.389   3.238   3.896 -0.0163  1.2339 -0.4718
  516MOL0     H69643   5.144   3.233   3.913  0.0881 -2.3250 -0.9262
  516MOL0     H69644   4.759   3.361   4.348  0.7420 -0.2530  1.8917
  516MOL0     H69645   4.574   3.298   4.469  0.8760  0.9622  0.2414
  516MOL0     H69646   5.620   3.415   5.695  2.5252  0.3755 -1.4525
  516MOL0     H69647   5.843   3.409   5.682  2.7748 -2.1425 -1.0028
  516MOL0     H69648   6.230   3.073   5.631 -2.7686  1.4081 -0.0310
  516MOL0     H69649   6.481   3.093   5.644 -0.3060 -1.5008 -0.6275
  516MOL0     H69650   6.664   3.088   5.533 -1.6706  1.7135  0.1809
  516MOL0     H69651   6.779   3.185   5.448 -1.1630  0.0993 -0.2430
  516MOL0     H69652   6.834   3.105   5.692 -2.8838 -0.5641  2.3944
  516MOL0     H69653   6.700   3.210   5.735  0.8708 -1.3181  0.5307
  516MOL0     H69654   6.954   3.310   5.767 -0.2744  4.4473  1.8892
  516MOL0     H69655   6.822   3.411   5.700 -1.2829 -0.6688 -0.6776
  516MOL0     H69656   6.908   3.393   5.479  1.0090 -2.3254 -1.7937
  516MOL0     H69657   7.024   3.267   5.526  0.8619  1.1987 -2.4311
  516MOL0     H69658   7.220   3.624   5.640  0.6355 -0.2279 -0.6359
  516MOL0     H69659   6.466   3.444   5.385 -1.6125  0.9378  0.7229
  516MOL0     H69660   6.220   3.394   5.354 -0.4355 -2.3422 -0.9835
  517MOL0     O69661   9.514   7.401  10.843 -0.0201 -0.4614 -0.0088
  517MOL0     C69662   9.594   7.473  10.900 -1.4443  0.6021  0.0414
  517MOL0     O69663   9.579   7.606  10.929  0.8861  0.1831  0.1742
  517MOL0     C69664   9.469   7.675  10.887 -0.2882  0.0492 -0.2323
  517MOL0     C69665   9.474   7.759  10.773  1.3459 -0.2808 -0.3526
  517MOL0     C69666   9.349   7.826  10.741 -0.1787  0.6171  0.1709
  517MOL0     C69667   9.227   7.803  10.808  0.1702  0.2414 -0.1251
  517MOL0     O69668   9.117   7.881  10.780 -0.1008 -0.0407 -0.3438
  517MOL0     C69669   8.988   7.827  10.806 -0.2679 -0.7362  0.1541
  517MOL0     C69670   8.870   7.921  10.771  0.9549  0.2305  0.3266
  517MOL0     C69671   8.840   7.939  10.623 -0.1784 -0.5201 -0.1598
  517MOL0     C69672   8.817   7.806  10.537 -1.2529 -0.0613  0.0364
  517MOL0     C69673   8.698   7.720  10.574  0.5396  0.7150 -0.1508
  517MOL0     C69674   8.569   7.806  10.553 -0.1237  0.8624 -0.8214
  517MOL0     C69675   8.539   7.843  10.397  0.4864  0.9108  0.9213
  517MOL0     C69676   8.434   7.949  10.404  0.3798 -0.7984  0.5880
  517MOL0     N69677   8.405   8.016  10.272 -0.2091 -0.3455 -0.0597
  517MOL0     C69678   8.328   7.958  10.175  0.6206 -0.1078  0.3931
  517MOL0     C69679   8.350   8.029  10.068 -0.2798 -0.0952  0.6396
  517MOL0     C69680   8.293   7.992   9.929  0.3083 -0.0761 -0.4336
  517MOL0     C69681   8.144   8.034   9.916 -0.1632 -0.5615  0.0504
  517MOL0     C69682   8.106   8.184   9.890 -0.0408 -0.2325 -1.1629
  517MOL0     C69683   8.154   8.222   9.762  0.8663  0.0994  0.7965
  517MOL0     O69684   8.087   8.151   9.649 -0.8210 -0.7296  0.3829
  517MOL0     C69685   7.962   8.185   9.603  0.8370  0.1908  1.6228
  517MOL0     C69686   7.882   8.291   9.653  0.2544 -0.2990  0.1086
  517MOL0     C69687   7.752   8.315   9.611  0.3358 -0.2421  0.6405
  517MOL0     C69688   7.683   8.435   9.642 -0.5018 -0.6524  0.2152
  517MOL0     C69689   7.692   8.214   9.522  0.6399  0.1000 -0.2043
  517MOL0     C69690   7.551   8.213   9.477 -0.1597 -0.5559  0.0025
  517MOL0     O69691   7.467   8.278   9.563  0.1983 -0.8098 -0.1530
  517MOL0     C69692   7.343   8.295   9.522  0.5008 -0.6217  0.3220
  517MOL0     C69693   7.311   8.385   9.420 -0.7886  0.7744 -0.3450
  517MOL0     C69694   7.178   8.395   9.377 -0.1338 -0.2784  0.7512
  517MOL0     C69695   7.083   8.317   9.438 -0.0609  0.5673  0.5410
  517MOL0     O69696   6.958   8.345   9.391  0.2704  0.2906 -0.6911
  517MOL0     C69697   6.854   8.249   9.391 -0.1207 -0.6187 -0.7411
  517MOL0     C69698   6.776   8.252   9.262 -0.0450 -0.3012 -0.3761
  517MOL0     C69699   6.654   8.158   9.271 -0.3271 -1.3192  0.4877
  517MOL0     C69700   6.567   8.169   9.142  0.0749  0.3717 -0.2270
  517MOL0     C69701   6.426   8.128   9.195  0.3074 -0.3134  0.1954
  517MOL0     C69702   6.325   8.114   9.078 -0.0557 -0.3578 -0.1688
  517MOL0     C69703   6.196   8.050   9.121  0.5177 -0.4361  1.0833
  517MOL0     C69704   6.127   8.002   8.998 -0.4739  0.9560 -0.0401
  517MOL0    Cl69705   5.970   7.929   9.024  0.1974 -0.1816  0.0484
  517MOL0     C69706   7.108   8.233   9.544 -0.7761  0.7635 -0.4433
  517MOL0     C69707   7.242   8.220   9.585 -1.1235  0.1851 -0.0505
  517MOL0     O69708   7.521   8.170   9.365  0.3981 -0.3313  0.3969
  517MOL0     C69709   7.770   8.109   9.469 -0.1777  0.1950  0.3266
  517MOL0     C69710   7.900   8.097   9.510 -0.7770  0.3673 -0.0765
  517MOL0     N69711   8.444   8.122  10.099  0.3832  0.0685  0.7163
  517MOL0     N69712   8.473   8.119  10.217  0.3884  0.0481  0.1340
  517MOL0     C69713   9.236   7.717  10.925 -0.8501  0.4690 -0.1665
  517MOL0     C69714   9.361   7.655  10.961 -0.0630 -0.6231  0.2502
  517MOL0     C69715   9.725   7.413  10.952  0.1394 -0.7236 -0.2388
  517MOL0     C69716   9.757   7.281  10.923 -0.3017  0.0032 -0.0160
  517MOL0     C69717   9.884   7.223  10.962 -0.1886 -1.0332  0.0088
  517MOL0     C69718   9.979   7.307  11.030 -0.3098  0.4771  0.9131
  517MOL0     O69719  10.102   7.242  11.047 -0.0879 -1.3268 -0.6623
  517MOL0     C69720  10.206   7.314  11.119 -0.2735  0.0119 -0.2275
  517MOL0     C69721  10.230   7.239  11.256  0.3349  0.2867  0.6313
  517MOL0     C69722  10.321   7.110  11.237 -0.6319  0.2486 -0.4177
  517MOL0     C69723  10.363   7.055  11.366  0.3599  0.0113  0.1735
  517MOL0     C69724  10.439   6.933  11.346 -0.7736  0.3558 -0.0541
  517MOL0     C69725  10.509   6.834  11.328 -0.1861 -0.7593 -0.7267
  517MOL0     C69726   9.943   7.438  11.057  0.2428  0.0075  0.6223
  517MOL0     C69727   9.818   7.496  11.025 -0.6784 -0.1866 -0.8733
  517MOL0     H69728   9.561   7.778  10.710  0.8207 -1.4335 -1.4816
  517MOL0     H69729   9.342   7.899  10.661  0.2908 -0.1445 -0.5776
  517MOL0     H69730   8.981   7.736  10.746  3.0578 -0.0018 -1.6459
  517MOL0     H69731   8.980   7.802  10.912  0.1476 -0.1011  0.3466
  517MOL0     H69732   8.777   7.882  10.813 -0.6889  1.0488 -2.2934
  517MOL0     H69733   8.890   8.017  10.818  0.2179 -0.2502  1.6894
  517MOL0     H69734   8.760   8.012  10.609  1.2947  0.8870 -1.6861
  517MOL0     H69735   8.928   7.995  10.591 -0.2846  0.9511  1.8853
  517MOL0     H69736   8.817   7.833  10.431 -0.0286 -0.9398 -0.2150
  517MOL0     H69737   8.909   7.747  10.545 -2.1575 -1.4689  0.3567
  517MOL0     H69738   8.688   7.629  10.514  0.0754  0.7977 -0.2008
  517MOL0     H69739   8.703   7.688  10.679  0.6855 -0.5635 -0.5266
  517MOL0     H69740   8.479   7.757  10.592 -1.0122 -1.9510 -5.5906
  517MOL0     H69741   8.585   7.899  10.608  0.6524 -0.1485  0.7520
  517MOL0     H69742   8.624   7.882  10.340 -2.2634  3.2240 -1.9639
  517MOL0     H69743   8.512   7.749  10.347  4.0291  0.5210 -0.5585
  517MOL0     H69744   8.463   8.021  10.481 -2.1471  0.0221  0.8839
  517MOL0     H69745   8.340   7.900  10.431  0.1692 -0.3164  0.7289
  517MOL0     H69746   8.266   7.869  10.174 -0.9106  0.8615 -2.7551
  517MOL0     H69747   8.350   8.023   9.842 -0.3964 -0.3549 -0.9997
  517MOL0     H69748   8.307   7.884   9.926  3.1159  0.2172 -0.1311
  517MOL0     H69749   8.092   8.009  10.009  1.7965 -1.5828  0.9252
  517MOL0     H69750   8.104   7.973   9.834 -1.5060 -1.4806  1.3365
  517MOL0     H69751   8.136   8.242   9.978 -0.2584 -0.4785 -0.9258
  517MOL0     H69752   7.998   8.199   9.892 -0.1779 -1.0225  1.8963
  517MOL0     H69753   8.263   8.207   9.759  0.7325 -0.9129  0.7989
  517MOL0     H69754   8.140   8.330   9.752  0.4340  0.0045  0.3271
  517MOL0     H69755   7.931   8.367   9.712  0.1575  2.1336 -2.7572
  517MOL0     H69756   7.629   8.430   9.737 -0.1595  1.6584  0.5942
  517MOL0     H69757   7.753   8.514   9.670 -3.1130  1.0173  2.5863
  517MOL0     H69758   7.621   8.478   9.563  2.9326 -0.3675 -2.5969
  517MOL0     H69759   7.400   8.432   9.378  0.0426 -0.1365  0.3327
  517MOL0     H69760   7.151   8.464   9.297 -3.3191 -0.9503  1.1116
  517MOL0     H69761   6.896   8.149   9.404 -1.0432 -0.9644 -0.3956
  517MOL0     H69762   6.800   8.277   9.481  2.7035 -2.7856  1.8228
  517MOL0     H69763   6.735   8.351   9.241  1.3377  0.5008  0.5637
  517MOL0     H69764   6.836   8.226   9.174  0.9183  2.3778 -0.5836
  517MOL0     H69765   6.593   8.198   9.353 -1.3025  0.4466 -1.0266
  517MOL0     H69766   6.686   8.055   9.286 -2.6726 -2.2988 -0.6430
  517MOL0     H69767   6.558   8.267   9.092 -1.1155 -0.2316 -1.2553
  517MOL0     H69768   6.610   8.098   9.072  1.3736  0.7628  0.1416
  517MOL0     H69769   6.397   8.198   9.273  1.5921 -2.4881  2.7720
  517MOL0     H69770   6.441   8.033   9.248  0.7711 -0.4315 -0.1351
  517MOL0     H69771   6.306   8.214   9.039 -1.3592  0.0514  1.4002
  517MOL0     H69772   6.374   8.056   8.999 -1.0674 -1.3239 -0.1105
  517MOL0     H69773   6.130   8.117   9.176  1.1489 -0.8584  2.4095
  517MOL0     H69774   6.227   7.969   9.188 -0.2348 -1.6002  0.0887
  517MOL0     H69775   6.198   7.931   8.955 -2.7562 -2.4123  1.3305
  517MOL0     H69776   6.110   8.080   8.924 -0.3373  0.2726 -0.8069
  517MOL0     H69777   7.027   8.172   9.584  0.3600  0.0829  0.8876
  517MOL0     H69778   7.269   8.149   9.662  1.1082 -0.6389 -1.4863
  517MOL0     H69779   7.721   8.040   9.401 -0.1529 -1.5808  2.0118
  517MOL0     H69780   7.956   8.013   9.471  0.6880  0.3296  1.9888
  517MOL0     H69781   9.155   7.702  10.995  0.8441 -0.2936  1.7493
  517MOL0     H69782   9.364   7.589  11.047  5.1184 -1.1676 -0.0443
  517MOL0     H69783   9.679   7.231  10.865  0.4660  1.3641 -2.3577
  517MOL0     H69784   9.914   7.121  10.940  0.8487 -0.3504 -2.0397
  517MOL0     H69785  10.301   7.306  11.065  0.6125  1.4351  1.0480
  517MOL0     H69786  10.189   7.422  11.126  1.2816  0.2577  0.0966
  517MOL0     H69787  10.139   7.212  11.310  1.1361  2.6126  3.3857
  517MOL0     H69788  10.277   7.312  11.323 -0.1487  1.4785 -0.2906
  517MOL0     H69789  10.410   7.137  11.180 -1.2833 -1.8440 -2.6247
  517MOL0     H69790  10.269   7.042  11.168  2.0054 -1.1093 -1.2039
  517MOL0     H69791  10.267   7.037  11.416 -0.2229  0.0800 -0.8957
  517MOL0     H69792  10.428   7.122  11.423 -0.6123 -0.5326  2.0321
  517MOL0     H69793  10.550   6.736  11.312 -2.1940 -1.9606  0.9289
  517MOL0     H69794  10.008   7.507  11.108  2.0637  0.3453 -1.9660
  517MOL0     H69795   9.795   7.598  11.055 -2.7059 -0.4965 -1.2022
  518MOL0     O69796   8.897   9.371   5.581  0.3449  0.0301 -0.4454
  518MOL0     C69797   8.923   9.489   5.563  0.1394  1.1008 -0.5634
  518MOL0     O69798   9.046   9.538   5.549 -0.1829 -0.1830  0.0544
  518MOL0     C69799   9.156   9.459   5.570  0.1295 -0.2452 -0.0751
  518MOL0     C69800   9.173   9.397   5.697  0.5966 -0.6599  0.5019
  518MOL0     C69801   9.289   9.320   5.719 -0.0575  0.4411 -0.0064
  518MOL0     C69802   9.386   9.312   5.625  0.0439  0.9520  0.0520
  518MOL0     O69803   9.492   9.231   5.656 -1.2189 -0.6800 -0.6602
  518MOL0     C69804   9.624   9.286   5.643 -0.0566  0.4328 -0.6564
  518MOL0     C69805   9.732   9.196   5.695  0.6235 -0.4800 -0.8341
  518MOL0     C69806   9.866   9.235   5.666 -0.8510 -0.3133  0.0403
  518MOL0     C69807   9.955   9.133   5.739  0.2237 -0.1216  0.7062
  518MOL0     C69808  10.103   9.171   5.727 -0.4653  0.0989 -0.3809
  518MOL0     C69809  10.143   9.263   5.854 -0.0828 -0.0550 -0.2853
  518MOL0     C69810  10.127   9.212   5.996 -0.2424  0.0109 -0.1847
  518MOL0     C69811  10.161   9.308   6.110 -1.2780 -0.9192 -0.0081
  518MOL0     N69812  10.082   9.433   6.092  0.5818 -0.0505 -1.1388
  518MOL0     C69813   9.955   9.439   6.058 -0.1282  0.0979  0.4688
  518MOL0     C69814   9.940   9.565   6.012  0.7695  0.1950 -0.5536
  518MOL0     C69815   9.821   9.627   5.951 -0.1962 -0.5458 -0.3102
  518MOL0     C69816   9.687   9.587   6.014  0.0695 -0.3794  0.1256
  518MOL0     C69817   9.563   9.625   5.927  0.4136  0.2137 -0.3252
  518MOL0     C69818   9.432   9.643   6.005 -0.0559  0.0933  0.3149
  518MOL0     O69819   9.380   9.511   6.046 -0.1252 -0.1178  0.7146
  518MOL0     C69820   9.299   9.496   6.154  0.0129 -0.4916 -1.3784
  518MOL0     C69821   9.289   9.367   6.209  0.8825  0.4808  0.6564
  518MOL0     C69822   9.214   9.333   6.325  0.0585  0.4631 -0.2361
  518MOL0     C69823   9.218   9.188   6.353  0.0424 -0.0504  0.3581
  518MOL0     C69824   9.142   9.435   6.388  0.7318  1.6408 -0.0779
  518MOL0     C69825   9.046   9.411   6.505  0.1833 -0.2774  0.1823
  518MOL0     O69826   9.008   9.275   6.529  0.3728 -0.4962  0.0930
  518MOL0     C69827   8.940   9.242   6.647 -0.0842 -0.1601 -0.0391
  518MOL0     C69828   9.011   9.196   6.757  0.6565 -0.2502 -0.2132
  518MOL0     C69829   8.936   9.183   6.883  0.3859 -0.7211  0.0918
  518MOL0     C69830   8.802   9.200   6.889 -0.1881 -0.1305  0.7493
  518MOL0     O69831   8.737   9.179   7.006 -0.5954 -0.2177  0.0951
  518MOL0     C69832   8.763   9.277   7.109  0.3124  0.7272  0.8018
  518MOL0     C69833   8.642   9.319   7.184 -0.2834  0.0264  0.7784
  518MOL0     C69834   8.574   9.450   7.122  0.1299 -1.3897  0.3736
  518MOL0     C69835   8.435   9.478   7.187 -0.3120 -0.2697  0.2563
  518MOL0     C69836   8.358   9.601   7.129  0.0223  0.2267 -0.1515
  518MOL0     C69837   8.350   9.622   6.985 -0.1074  0.9294  0.1856
  518MOL0     C69838   8.227   9.708   6.938 -0.2999 -0.4955 -0.3877
  518MOL0     C69839   8.102   9.622   6.902 -0.6503  0.2102 -0.1742
  518MOL0    Cl69840   7.975   9.735   6.877  0.7079 -0.2364 -0.0458
  518MOL0     C69841   8.733   9.225   6.774  0.2971 -1.1209 -0.4492
  518MOL0     C69842   8.798   9.243   6.652  0.5789  0.0389  0.1430
  518MOL0     O69843   9.003   9.507   6.566  0.3315 -0.1047  0.5832
  518MOL0     C69844   9.154   9.565   6.340 -0.3783 -0.2905 -0.3086
  518MOL0     C69845   9.222   9.598   6.218 -0.1909  0.0243  0.1531
  518MOL0     N69846  10.056   9.635   6.025 -0.2774  0.6091 -0.0190
  518MOL0     N69847  10.141   9.553   6.082  0.2753 -0.6071  0.5140
  518MOL0     C69848   9.375   9.379   5.499 -0.1762 -0.8977  0.7583
  518MOL0     C69849   9.256   9.449   5.473 -0.1125 -0.1954 -0.0816
  518MOL0     C69850   8.817   9.582   5.557  0.5059 -0.3532  0.1426
  518MOL0     C69851   8.825   9.713   5.615 -0.5213  0.9750 -0.2595
  518MOL0     C69852   8.721   9.805   5.586 -1.2326 -0.3504 -0.4115
  518MOL0     C69853   8.610   9.775   5.508  0.8505  1.3611 -0.5611
  518MOL0     O69854   8.526   9.879   5.491  0.1125  0.8766 -0.0404
  518MOL0     C69855   8.388   9.843   5.459 -0.1936  0.2722 -0.8404
  518MOL0     C69856   8.305   9.981   5.455  0.9252  0.3237  0.1450
  518MOL0     C69857   8.159   9.962   5.420  0.2362  0.2573 -0.3245
  518MOL0     C69858   8.083  10.099   5.387 -0.2492  0.3380  0.1047
  518MOL0     C69859   7.965  10.066   5.304  0.6384 -0.3176  0.1458
  518MOL0     C69860   7.872  10.058   5.227  0.7567 -0.1414  0.8377
  518MOL0     C69861   8.601   9.642   5.453  0.2311  0.0448 -0.6140
  518MOL0     C69862   8.703   9.545   5.483  0.2238  0.3100 -0.2020
  518MOL0     H69863   9.099   9.411   5.775  0.4543 -1.8601  0.5973
  518MOL0     H69864   9.306   9.289   5.822 -0.9036 -0.8863 -0.2418
  518MOL0     H69865   9.654   9.316   5.542 -0.2380  0.4668 -0.7009
  518MOL0     H69866   9.631   9.374   5.707  0.0125 -0.5483  0.7579
  518MOL0     H69867   9.717   9.178   5.801  2.2881 -0.2696 -0.5324
  518MOL0     H69868   9.714   9.109   5.631 -0.3459  0.4212 -1.8298
  518MOL0     H69869   9.892   9.232   5.560  0.3839  1.3420  0.2557
  518MOL0     H69870   9.885   9.340   5.689  0.3248  0.0888 -2.4580
  518MOL0     H69871   9.929   9.124   5.845  1.3166 -2.5534  0.8335
  518MOL0     H69872   9.933   9.040   5.687 -3.4239 -0.6846  2.9398
  518MOL0     H69873  10.166   9.082   5.744 -0.7122  0.0861  0.5128
  518MOL0     H69874  10.141   9.227   5.641  0.3440  0.1110 -0.0239
  518MOL0     H69875  10.251   9.278   5.845 -0.2368  1.5315  0.1273
  518MOL0     H69876  10.102   9.365   5.850  1.7197  0.8215  1.7955
  518MOL0     H69877  10.026   9.179   6.020 -0.0699  0.5138  1.3585
  518MOL0     H69878  10.198   9.129   6.008 -1.7803 -1.9290 -3.2285
  518MOL0     H69879  10.270   9.315   6.124 -1.0956  0.8473 -1.8926
  518MOL0     H69880  10.138   9.273   6.212  0.9357 -2.4945  0.0432
  518MOL0     H69881   9.885   9.359   6.035 -0.6989  0.2233  1.7009
  518MOL0     H69882   9.840   9.735   5.952  0.2450 -0.6138  1.3080
  518MOL0     H69883   9.826   9.604   5.844 -1.9888 -1.5390 -0.2157
  518MOL0     H69884   9.676   9.645   6.106  2.3455 -0.4266  0.4879
  518MOL0     H69885   9.683   9.480   6.035 -0.7439 -0.5491 -0.8014
  518MOL0     H69886   9.554   9.547   5.851  1.5237 -1.4569  1.1740
  518MOL0     H69887   9.577   9.722   5.879 -2.9282  0.3652 -1.2540
  518MOL0     H69888   9.357   9.693   5.943 -1.1199 -1.6617  0.0923
  518MOL0     H69889   9.454   9.706   6.091  1.0481  1.6620 -1.0534
  518MOL0     H69890   9.352   9.302   6.150  0.9457  1.8898 -0.9237
  518MOL0     H69891   9.254   9.159   6.452 -0.6224 -0.2934  0.5308
  518MOL0     H69892   9.122   9.136   6.341  0.8884 -1.1644 -2.1148
  518MOL0     H69893   9.290   9.141   6.286 -0.7223 -0.2161 -0.3617
  518MOL0     H69894   9.119   9.195   6.747  0.8024  0.5766  1.0177
  518MOL0     H69895   9.002   9.159   6.966  1.5054 -0.3111 -0.6458
  518MOL0     H69896   8.836   9.225   7.172  0.4403 -0.6914 -0.4608
  518MOL0     H69897   8.818   9.365   7.074 -0.8249  0.7555 -1.0372
  518MOL0     H69898   8.570   9.236   7.183 -0.2976  0.0207 -0.8684
  518MOL0     H69899   8.676   9.342   7.285 -0.4903 -0.3682  0.9409
  518MOL0     H69900   8.547   9.433   7.017 -1.5116  0.4073  0.4402
  518MOL0     H69901   8.637   9.540   7.131 -2.6951  0.6013  1.7574
  518MOL0     H69902   8.370   9.394   7.164 -0.9180  0.0033  0.9404
  518MOL0     H69903   8.458   9.489   7.293  0.7297  1.2355 -0.0729
  518MOL0     H69904   8.402   9.686   7.183  1.7158 -2.0537  2.3705
  518MOL0     H69905   8.256   9.578   7.161  0.0523  0.9830  0.5360
  518MOL0     H69906   8.442   9.675   6.957  1.8030  1.0011  5.5840
  518MOL0     H69907   8.347   9.523   6.938  5.4342 -0.1399  1.3825
  518MOL0     H69908   8.256   9.760   6.846 -2.0652 -1.7575 -1.7156
  518MOL0     H69909   8.202   9.785   7.012  0.2661 -0.8635  0.2001
  518MOL0     H69910   8.082   9.552   6.984 -2.0202 -2.8919 -2.9539
  518MOL0     H69911   8.129   9.563   6.815  0.7236 -1.3634  1.2714
  518MOL0     H69912   8.627   9.250   6.778  0.4955 -0.3708  1.3079
  518MOL0     H69913   8.736   9.269   6.567  2.4257  0.7331 -1.0533
  518MOL0     H69914   9.100   9.646   6.389  0.9486  1.8815 -2.2343
  518MOL0     H69915   9.221   9.701   6.186 -1.1031 -0.0767 -0.1975
  518MOL0     H69916   9.450   9.376   5.422  0.0097 -3.6421  0.9428
  518MOL0     H69917   9.254   9.503   5.379  0.5683  2.1431  1.1702
  518MOL0     H69918   8.912   9.743   5.672 -1.0511  2.0139  0.0315
  518MOL0     H69919   8.738   9.899   5.637  2.3065 -0.9347 -0.2581
  518MOL0     H69920   8.384   9.805   5.356  0.0588  3.5975 -2.1968
  518MOL0     H69921   8.355   9.767   5.531 -0.7391  1.0091 -0.2975
  518MOL0     H69922   8.357  10.042   5.380  0.7575  0.9213  0.5070
  518MOL0     H69923   8.311  10.037   5.549 -1.9624 -0.9047  1.1459
  518MOL0     H69924   8.104   9.904   5.494  0.7586 -2.8902 -2.2291
  518MOL0     H69925   8.162   9.910   5.323  0.1718  3.5120 -2.2357
  518MOL0     H69926   8.152  10.163   5.329 -1.3431  1.1089 -0.3770
  518MOL0     H69927   8.050  10.141   5.482  0.0573  1.0602 -0.0966
  518MOL0     H69928   7.781  10.056   5.170 -1.6602  1.4093  4.2812
  518MOL0     H69929   8.513   9.613   5.397 -1.5999  1.6220  1.2723
  518MOL0     H69930   8.689   9.443   5.447  1.9192  0.5976 -1.8528
  519MOL0     O69931   4.373   4.653   0.315 -0.1495 -0.6363 -0.3457
  519MOL0     C69932   4.444   4.555   0.329  0.4538 -0.1647  0.4958
  519MOL0     O69933   4.402   4.425   0.312  0.4971  0.6966  0.1781
  519MOL0     C69934   4.268   4.412   0.308  0.6875  0.7812  0.0989
  519MOL0     C69935   4.211   4.363   0.419 -0.2511  0.5572  0.4323
  519MOL0     C69936   4.075   4.360   0.434 -0.5525  0.2696  0.5086
  519MOL0     C69937   3.990   4.401   0.331 -0.4351 -0.0313 -0.3508
  519MOL0     O69938   3.862   4.417   0.377 -0.7086 -0.6607 -0.5920
  519MOL0     C69939   3.759   4.442   0.280  0.2362  0.0691  1.4152
  519MOL0     C69940   3.740   4.318   0.182  1.1687  0.2808 -0.1136
  519MOL0     C69941   3.677   4.202   0.244 -0.1565  0.7131  0.5564
  519MOL0     C69942   3.659   4.081   0.151  0.6186  0.3071 -0.3336
  519MOL0     C69943   3.649   3.944   0.231  1.0660  0.1062 -0.6444
  519MOL0     C69944   3.526   3.949   0.325 -1.2588  0.2978  0.0670
  519MOL0     C69945   3.400   3.943   0.247 -0.0917 -0.2578  0.3338
  519MOL0     C69946   3.295   3.962   0.345 -0.0406  0.3696 -0.6815
  519MOL0     N69947   3.170   4.016   0.280  0.0836  0.5402 -0.2640
  519MOL0     C69948   3.127   4.147   0.282 -0.0827  0.1838  0.3095
  519MOL0     C69949   3.009   4.146   0.222  0.7258 -0.1145 -0.5359
  519MOL0     C69950   2.928   4.275   0.196  0.2276  0.7579 -0.2638
  519MOL0     C69951   2.777   4.273   0.235 -0.2721  0.2838  0.0409
  519MOL0     C69952   2.763   4.301   0.387 -0.4078  0.6134 -0.1400
  519MOL0     C69953   2.624   4.363   0.420 -0.0983  0.3266 -0.2686
  519MOL0     O69954   2.516   4.286   0.367 -0.0138  0.3040  0.5798
  519MOL0     C69955   2.391   4.295   0.418  0.3380 -0.1430 -0.6623
  519MOL0     C69956   2.336   4.184   0.476 -0.2269  0.0858 -0.0937
  519MOL0     C69957   2.211   4.182   0.542 -0.3852 -1.0621  0.3576
  519MOL0     C69958   2.169   4.045   0.603  0.2470 -0.9974 -0.1477
  519MOL0     C69959   2.136   4.304   0.550 -0.4520 -0.3323  0.3315
  519MOL0     C69960   2.007   4.315   0.616  0.7319 -0.2291 -0.2372
  519MOL0     O69961   1.930   4.204   0.598 -0.4349  0.0537 -0.1187
  519MOL0     C69962   1.799   4.210   0.646 -0.1642 -0.2731  0.8743
  519MOL0     C69963   1.761   4.273   0.762  0.0684  0.0665 -1.0161
  519MOL0     C69964   1.628   4.297   0.801 -0.9119 -0.7170 -0.5097
  519MOL0     C69965   1.534   4.271   0.706 -0.1639  0.1459 -0.0042
  519MOL0     O69966   1.402   4.311   0.732  0.5367  0.5414  0.5615
  519MOL0     C69967   1.294   4.301   0.630 -0.1070 -0.2908  0.6089
  519MOL0     C69968   1.160   4.305   0.693  0.1765 -0.0645  0.0832
  519MOL0     C69969   1.045   4.279   0.594 -0.3143 -0.1449 -0.1136
  519MOL0     C69970   0.927   4.200   0.655  0.7761  1.0038  0.4983
  519MOL0     C69971   0.810   4.204   0.562  0.3022 -0.4073  0.2453
  519MOL0     C69972   0.715   4.098   0.607 -0.2353  0.4529 -0.4476
  519MOL0     C69973   0.583   4.101   0.540  0.5763 -0.0653 -0.8446
  519MOL0     C69974   0.484   4.012   0.620  0.5595  0.1654 -0.5612
  519MOL0    Cl69975   0.452   4.077   0.784  0.3518 -0.1276  0.3031
  519MOL0     C69976   1.566   4.204   0.589 -0.0144 -0.0831  0.2735
  519MOL0     C69977   1.694   4.169   0.557 -0.4521 -0.3361  0.2566
  519MOL0     O69978   1.967   4.423   0.669 -0.3253  0.2086  0.3286
  519MOL0     C69979   2.185   4.415   0.490  0.3384 -0.2833  0.3615
  519MOL0     C69980   2.307   4.410   0.422 -0.5851  0.2498 -0.4098
  519MOL0     N69981   2.972   4.011   0.202  0.1536 -0.1847 -0.1803
  519MOL0     N69982   3.061   3.942   0.247 -0.0449  0.5250 -0.9991
  519MOL0     C69983   4.047   4.438   0.208 -0.6070 -0.5153  0.1759
  519MOL0     C69984   4.185   4.448   0.195  0.1426 -0.7276  0.1111
  519MOL0     C69985   4.592   4.588   0.341 -0.9027  0.4019 -0.2400
  519MOL0     C69986   4.682   4.486   0.310  0.1435  0.2491  0.2777
  519MOL0     C69987   4.819   4.517   0.298  0.9205  0.5639  0.8339
  519MOL0     C69988   4.867   4.648   0.318  0.4290 -0.7195 -0.0441
  519MOL0     O69989   5.001   4.667   0.301 -0.4664  0.1479  0.4112
  519MOL0     C69990   5.050   4.804   0.281  0.5212 -0.5766  0.7304
  519MOL0     C69991   5.197   4.813   0.254  0.2172  0.1925 -0.8469
  519MOL0     C69992   5.236   4.835   0.107 -0.6307 -0.8026 -0.0631
  519MOL0     C69993   5.208   4.711   0.021  0.6626 -0.0789  0.1344
  519MOL0     C69994   5.313   4.610   0.047 -0.3610  0.4761 -0.9886
  519MOL0     C69995   5.397   4.525   0.053 -0.0092 -0.6325  0.1781
  519MOL0     C69996   4.770   4.751   0.358 -0.4686  0.2752  0.8725
  519MOL0     C69997   4.634   4.724   0.352  0.3427  0.6970 -0.4234
  519MOL0     H69998   4.260   4.325   0.508 -3.7044 -3.6543  0.8395
  519MOL0     H69999   4.027   4.324   0.525 -1.9855  1.1420  0.1225
  519MOL0     H70000   3.666   4.467   0.332 -2.0000 -2.2781 -1.0960
  519MOL0     H70001   3.786   4.525   0.215 -3.0228 -1.4225 -2.2175
  519MOL0     H70002   3.677   4.353   0.100 -1.0945 -1.1609  0.8992
  519MOL0     H70003   3.839   4.287   0.149  1.3651  0.7424  0.0369
  519MOL0     H70004   3.735   4.166   0.330  2.2083  1.4340 -0.6344
  519MOL0     H70005   3.576   4.237   0.268 -0.0096  0.8674  0.9598
  519MOL0     H70006   3.562   4.102   0.104  1.2127 -2.4132 -3.0463
  519MOL0     H70007   3.734   4.075   0.072 -1.0960  0.1590 -2.0361
  519MOL0     H70008   3.644   3.860   0.162  3.2681 -0.2054 -0.5054
  519MOL0     H70009   3.738   3.926   0.292 -0.6330 -0.6869  1.7531
  519MOL0     H70010   3.544   3.862   0.389  3.0607  0.0021 -1.2708
  519MOL0     H70011   3.531   4.040   0.385  0.2785  0.1410  0.1989
  519MOL0     H70012   3.396   4.019   0.169 -2.9828 -0.5944  0.0523
  519MOL0     H70013   3.385   3.847   0.197  3.5366 -1.5549  1.3976
  519MOL0     H70014   3.317   4.038   0.421 -0.1226 -1.2654  1.0755
  519MOL0     H70015   3.281   3.867   0.398 -2.1514  1.3024  0.5831
  519MOL0     H70016   3.180   4.236   0.316 -1.1991  0.5644  1.1210
  519MOL0     H70017   2.975   4.360   0.246 -1.9259  1.2772  1.0347
  519MOL0     H70018   2.943   4.292   0.090 -0.7142  3.1920 -0.0756
  519MOL0     H70019   2.725   4.186   0.193 -0.8023 -0.4076  2.0433
  519MOL0     H70020   2.744   4.354   0.170 -2.6656 -1.7478 -1.4350
  519MOL0     H70021   2.830   4.382   0.416  0.9457 -0.5870  0.1839
  519MOL0     H70022   2.784   4.214   0.449 -1.2414  2.3624  2.7519
  519MOL0     H70023   2.624   4.459   0.369  1.2456  1.6504  1.9936
  519MOL0     H70024   2.616   4.387   0.527  0.0430  0.4939 -0.2938
  519MOL0     H70025   2.390   4.091   0.461  0.3525  0.1790  1.2722
  519MOL0     H70026   2.253   3.977   0.613  2.1084  0.9125 -1.6845
  519MOL0     H70027   2.125   4.061   0.702  1.0853 -1.2951  0.2878
  519MOL0     H70028   2.094   3.992   0.544 -1.2475 -0.3273  1.0592
  519MOL0     H70029   1.842   4.300   0.830 -2.5999  0.1251  2.4332
  519MOL0     H70030   1.593   4.346   0.892 -1.7142 -1.4174 -0.4250
  519MOL0     H70031   1.302   4.381   0.557 -1.2492 -0.4065  0.3392
  519MOL0     H70032   1.313   4.209   0.574  2.5324  1.1590 -1.0489
  519MOL0     H70033   1.148   4.225   0.767  0.7731  0.5590  0.8580
  519MOL0     H70034   1.148   4.397   0.749 -2.7856  0.3417 -1.0322
  519MOL0     H70035   1.087   4.205   0.524 -0.0154 -0.5936  0.5289
  519MOL0     H70036   1.016   4.373   0.547 -1.0962 -1.2052 -1.9102
  519MOL0     H70037   0.948   4.096   0.682 -2.3171  0.4046  1.0693
  519MOL0     H70038   0.893   4.246   0.748 -1.1786  1.3683 -0.3376
  519MOL0     H70039   0.839   4.182   0.459  0.0290  2.3015 -0.4794
  519MOL0     H70040   0.776   4.308   0.561  0.5027 -0.1875 -4.7029
  519MOL0     H70041   0.768   4.003   0.592  2.1736  1.2489  2.0571
  519MOL0     H70042   0.696   4.112   0.713 -0.6933  1.1576 -0.6193
  519MOL0     H70043   0.592   4.052   0.443  1.2762 -2.9719  0.5647
  519MOL0     H70044   0.548   4.204   0.532 -2.3691 -1.1013 -2.8961
  519MOL0     H70045   0.531   3.915   0.640  1.4260  0.3329 -1.6472
  519MOL0     H70046   0.386   3.994   0.577 -0.2952  0.3692  1.2159
  519MOL0     H70047   1.491   4.184   0.513  0.9867 -1.5103 -0.3736
  519MOL0     H70048   1.738   4.132   0.465 -2.0444 -0.7781 -0.3639
  519MOL0     H70049   2.144   4.515   0.500 -1.9107 -1.0657 -0.3534
  519MOL0     H70050   2.343   4.501   0.376  0.7749 -1.0127 -1.9830
  519MOL0     H70051   3.986   4.471   0.124 -0.1247 -2.1817 -0.8701
  519MOL0     H70052   4.229   4.478   0.100  1.2511  0.6255  1.0042
  519MOL0     H70053   4.658   4.382   0.295 -2.3022  0.7795  0.1530
  519MOL0     H70054   4.880   4.433   0.265 -0.1399 -0.5197  1.5650
  519MOL0     H70055   4.991   4.850   0.201 -0.5590 -0.7775  1.3921
  519MOL0     H70056   5.019   4.862   0.368  0.4783  2.6043 -1.2355
  519MOL0     H70057   5.241   4.728   0.306  1.1002  1.5853  0.8159
  519MOL0     H70058   5.235   4.906   0.298  1.8339  0.7703 -3.2833
  519MOL0     H70059   5.340   4.867   0.104 -1.4157  1.9116 -1.2640
  519MOL0     H70060   5.184   4.920   0.063  1.7893  0.3015 -0.9640
  519MOL0     H70061   5.211   4.743  -0.084 -0.4890 -2.9626 -0.8631
  519MOL0     H70062   5.105   4.677   0.033  1.3738 -3.5238 -2.0234
  519MOL0     H70063   5.478   4.455   0.054 -0.5594 -1.5297 -3.4396
  519MOL0     H70064   4.794   4.853   0.384 -1.2829  0.5257  0.6800
  519MOL0     H70065   4.551   4.789   0.376 -0.4112 -0.4206  0.0373
  520MOL0     O70066   9.875   1.717   3.828 -0.8853 -0.0150 -0.8556
  520MOL0     C70067   9.912   1.832   3.871  1.4821  1.3935  0.3469
  520MOL0     O70068   9.848   1.950   3.857 -0.3582  0.3080  0.1043
  520MOL0     C70069   9.730   1.967   3.787 -0.1607 -0.2549 -0.1957
  520MOL0     C70070   9.655   1.868   3.705 -0.2944 -1.0900  0.0413
  520MOL0     C70071   9.542   1.903   3.641 -0.2867  0.6904  0.3390
  520MOL0     C70072   9.493   2.030   3.646 -0.1524 -0.5182 -0.4748
  520MOL0     O70073   9.381   2.059   3.577  0.2044  0.2859  0.1554
  520MOL0     C70074   9.292   2.170   3.615  0.3659 -0.5543  0.2911
  520MOL0     C70075   9.167   2.170   3.523  0.0861 -0.4478 -0.0511
  520MOL0     C70076   9.067   2.085   3.589 -0.2407  0.7084 -1.0392
  520MOL0     C70077   8.939   2.106   3.506 -0.6049  0.9580  0.2772
  520MOL0     C70078   8.822   2.014   3.548 -0.1519 -0.2591  0.0501
  520MOL0     C70079   8.696   2.042   3.461 -0.7691 -1.2125  0.2520
  520MOL0     C70080   8.585   1.939   3.475  0.8469  0.2217 -0.5530
  520MOL0     C70081   8.501   1.968   3.596 -0.9079 -0.7442 -0.4413
  520MOL0     N70082   8.377   1.895   3.595 -0.7408 -0.3171 -0.9579
  520MOL0     C70083   8.288   1.865   3.496 -1.5740 -0.0667 -0.1603
  520MOL0     C70084   8.181   1.807   3.558  0.8036 -0.3591  0.5027
  520MOL0     C70085   8.063   1.749   3.491  0.1355 -0.4571 -0.5239
  520MOL0     C70086   7.945   1.808   3.555  0.4739 -0.6666 -0.1480
  520MOL0     C70087   7.817   1.743   3.512  0.2094 -0.0342  0.4215
  520MOL0     C70088   7.685   1.790   3.585  0.7156 -0.2048  0.6560
  520MOL0     O70089   7.575   1.727   3.523 -0.7616 -0.0808  0.3977
  520MOL0     C70090   7.482   1.659   3.596  0.8414  0.7206  0.2687
  520MOL0     C70091   7.440   1.541   3.534  1.0998 -0.5973 -0.3425
  520MOL0     C70092   7.338   1.457   3.588 -0.4536 -0.3009  0.0367
  520MOL0     C70093   7.304   1.333   3.515  0.1860  0.5550  0.6340
  520MOL0     C70094   7.293   1.488   3.719  0.5697 -0.6868  0.3254
  520MOL0     C70095   7.172   1.417   3.779 -0.1562  0.3350  0.4190
  520MOL0     O70096   7.104   1.481   3.884 -0.0492 -0.0388  0.1051
  520MOL0     C70097   6.997   1.411   3.930 -0.1769 -0.1661 -0.6090
  520MOL0     C70098   6.858   1.432   3.905 -0.1205 -0.4416 -0.0673
  520MOL0     C70099   6.756   1.359   3.971 -0.0829 -1.1858  1.0066
  520MOL0     C70100   6.798   1.275   4.072  0.6928 -1.2838  0.1352
  520MOL0     O70101   6.703   1.221   4.156 -0.0986 -0.6567  0.8939
  520MOL0     C70102   6.626   1.123   4.079  0.0612 -0.6801 -1.1194
  520MOL0     C70103   6.601   1.007   4.171  0.2429  0.0829  0.3389
  520MOL0     C70104   6.728   0.922   4.197  0.3734  0.0190  0.1705
  520MOL0     C70105   6.707   0.787   4.268 -0.9385 -0.5802 -0.6084
  520MOL0     C70106   6.839   0.717   4.308  0.5265  0.2508  1.0093
  520MOL0     C70107   6.804   0.573   4.331 -0.5656  0.5071 -0.2980
  520MOL0     C70108   6.927   0.487   4.344  0.7873  0.4320 -0.0352
  520MOL0     C70109   6.992   0.497   4.483 -0.0926  0.3930  0.5652
  520MOL0    Cl70110   7.139   0.388   4.499  0.2588  0.1740  0.1747
  520MOL0     C70111   6.931   1.243   4.089 -0.0341  0.1961  0.4585
  520MOL0     C70112   7.030   1.317   4.029  0.3171 -0.7105  0.2552
  520MOL0     O70113   7.132   1.318   3.718  0.3946  0.0806 -0.4687
  520MOL0     C70114   7.352   1.597   3.784  0.3488  0.4699 -0.2521
  520MOL0     C70115   7.441   1.681   3.720  0.3777 -0.5878 -0.5015
  520MOL0     N70116   8.218   1.779   3.691  0.0430  0.3006  0.4896
  520MOL0     N70117   8.334   1.832   3.709  0.3698  0.3836 -0.6511
  520MOL0     C70118   9.561   2.124   3.717 -0.0795 -0.9131 -0.1095
  520MOL0     C70119   9.676   2.094   3.791  0.2123  0.0218 -0.3382
  520MOL0     C70120  10.043   1.847   3.942  0.3092 -0.3805 -0.1315
  520MOL0     C70121  10.084   1.974   3.989  1.3961 -0.1173  0.4110
  520MOL0     C70122  10.193   1.973   4.076  0.6589  0.4451  0.5137
  520MOL0     C70123  10.272   1.861   4.097 -0.8278  0.4509 -0.7082
  520MOL0     O70124  10.380   1.881   4.184  0.1817 -0.8992  0.0853
  520MOL0     C70125  10.456   1.771   4.228  0.0112 -0.3393  0.1480
  520MOL0     C70126  10.567   1.817   4.312 -0.6099  0.2883 -0.5277
  520MOL0     C70127  10.647   1.691   4.347 -0.4951  0.6883  0.1684
  520MOL0     C70128  10.767   1.730   4.433  0.0139  0.5841  0.4696
  520MOL0     C70129  10.849   1.614   4.468  1.3226 -0.5081  0.3689
  520MOL0     C70130  10.923   1.523   4.463 -1.0091 -0.2083 -0.3647
  520MOL0     C70131  10.235   1.746   4.047 -0.7948  0.5646 -0.5222
  520MOL0     C70132  10.117   1.734   3.967 -0.5567  0.0873 -0.4252
  520MOL0     H70133   9.694   1.767   3.705  2.1955 -0.2960 -3.3779
  520MOL0     H70134   9.517   1.828   3.566 -0.6663  0.4091  0.7439
  520MOL0     H70135   9.272   2.167   3.722  1.7530 -2.2001  0.5453
  520MOL0     H70136   9.349   2.260   3.586  0.3950 -0.6080  0.1779
  520MOL0     H70137   9.130   2.272   3.511  2.8639  0.3449 -3.8081
  520MOL0     H70138   9.184   2.134   3.421 -2.9894 -2.0540 -0.1088
  520MOL0     H70139   9.105   1.982   3.592  1.2442  1.2350  2.5943
  520MOL0     H70140   9.037   2.112   3.690  0.8794 -5.3571  1.3298
  520MOL0     H70141   8.910   2.211   3.517 -0.5222  0.8266  2.1015
  520MOL0     H70142   8.963   2.076   3.404 -1.8311 -0.2931  0.3184
  520MOL0     H70143   8.845   1.907   3.540  2.1315  0.2498 -1.0891
  520MOL0     H70144   8.811   2.019   3.657  1.5559 -0.6749  0.2746
  520MOL0     H70145   8.655   2.142   3.473 -0.7989 -1.1410 -0.4155
  520MOL0     H70146   8.721   2.045   3.354  0.7834  1.5663  0.6066
  520MOL0     H70147   8.529   1.939   3.381 -2.7198  0.7391  1.3747
  520MOL0     H70148   8.628   1.839   3.480 -0.8678 -0.6222 -1.6767
  520MOL0     H70149   8.504   2.077   3.604  3.3516 -0.7855  1.7211
  520MOL0     H70150   8.560   1.941   3.685  2.2499  0.6725 -1.9483
  520MOL0     H70151   8.307   1.892   3.393  2.2708  0.6823  0.6278
  520MOL0     H70152   8.066   1.766   3.383  2.0531 -0.8498 -0.5619
  520MOL0     H70153   8.056   1.640   3.502 -1.5478 -0.2012  1.5688
  520MOL0     H70154   7.947   1.915   3.529 -1.3495 -1.0029 -1.9703
  520MOL0     H70155   7.946   1.799   3.664 -0.7002  1.9989  0.1682
  520MOL0     H70156   7.833   1.639   3.542 -2.8726 -0.4360  1.0290
  520MOL0     H70157   7.808   1.755   3.404 -2.0029  1.8571  0.7371
  520MOL0     H70158   7.665   1.896   3.570 -0.4988 -0.5185 -0.1422
  520MOL0     H70159   7.686   1.764   3.691 -3.4798 -1.2376  0.6378
  520MOL0     H70160   7.471   1.516   3.433 -4.0919 -0.4602 -2.2635
  520MOL0     H70161   7.374   1.341   3.432  0.4391  2.5252  0.9728
  520MOL0     H70162   7.332   1.249   3.579  3.1622  1.9942  1.3831
  520MOL0     H70163   7.200   1.321   3.483  0.9425 -2.6410 -0.9916
  520MOL0     H70164   6.834   1.502   3.826 -1.7893 -0.5158  0.3300
  520MOL0     H70165   6.654   1.382   3.945  0.8984  2.8825  0.0342
  520MOL0     H70166   6.529   1.167   4.055 -0.9215 -1.9096  0.3680
  520MOL0     H70167   6.672   1.089   3.986 -0.0326 -0.4658 -1.2446
  520MOL0     H70168   6.569   1.042   4.269  0.4971  0.8006  0.1716
  520MOL0     H70169   6.527   0.937   4.130  2.0110 -1.1609 -0.9284
  520MOL0     H70170   6.801   0.985   4.248 -1.6784  0.4558  2.8501
  520MOL0     H70171   6.767   0.898   4.098  0.5196  2.0226 -0.2972
  520MOL0     H70172   6.643   0.811   4.353  1.2154 -1.9568  1.5092
  520MOL0     H70173   6.650   0.725   4.198 -1.9233 -1.6976  1.1170
  520MOL0     H70174   6.875   0.763   4.401 -0.1776  0.0301  1.4023
  520MOL0     H70175   6.904   0.724   4.221 -0.5785 -0.2969  0.1095
  520MOL0     H70176   6.740   0.560   4.419 -0.1907  0.2893 -0.0540
  520MOL0     H70177   6.734   0.534   4.256 -0.9861 -3.5360  1.8950
  520MOL0     H70178   7.003   0.512   4.270  2.1052 -0.8289  0.8238
  520MOL0     H70179   6.895   0.382   4.339 -0.0046  0.6615  0.0866
  520MOL0     H70180   6.941   0.464   4.573 -2.5732 -0.6537 -1.1182
  520MOL0     H70181   7.021   0.600   4.503 -2.2390  1.2963 -0.6330
  520MOL0     H70182   6.960   1.173   4.167  2.3599  0.0430 -0.4908
  520MOL0     H70183   7.131   1.289   4.057  1.3049  0.0677 -2.2709
  520MOL0     H70184   7.323   1.630   3.883 -0.8599 -0.1106 -0.4041
  520MOL0     H70185   7.461   1.773   3.774 -3.2876 -0.5658  1.1104
  520MOL0     H70186   9.522   2.225   3.724 -0.3084 -1.0745  1.0615
  520MOL0     H70187   9.724   2.161   3.863  0.8723 -1.3848  0.5850
  520MOL0     H70188  10.031   2.068   3.973  0.5968 -0.6530 -0.1817
  520MOL0     H70189  10.231   2.064   4.121 -0.6534  1.4199 -0.2885
  520MOL0     H70190  10.393   1.689   4.266 -0.4745 -1.0819 -2.0876
  520MOL0     H70191  10.499   1.728   4.137  0.6194  0.5913 -0.0132
  520MOL0     H70192  10.537   1.864   4.406  1.5411 -1.9821  1.4504
  520MOL0     H70193  10.635   1.883   4.257  1.1586  1.8528  3.2017
  520MOL0     H70194  10.677   1.650   4.250 -1.6157  0.1455  0.0385
  520MOL0     H70195  10.590   1.622   4.410 -0.5577  1.3726  0.8823
  520MOL0     H70196  10.725   1.779   4.521 -2.4948 -4.5230  2.5063
  520MOL0     H70197  10.832   1.798   4.377 -1.3016  1.2168 -0.3365
  520MOL0     H70198  11.005   1.455   4.463 -0.2011  0.7460 -0.0628
  520MOL0     H70199  10.305   1.665   4.068 -1.7915  0.3191  2.4039
  520MOL0     H70200  10.073   1.640   3.936 -0.7383 -0.1689  0.5742
  521MOL0     O70201   5.960  11.167   3.783  0.0341 -0.1398 -0.1765
  521MOL0     C70202   5.989  11.228   3.678  0.6547  0.4046  0.1403
  521MOL0     O70203   5.951  11.355   3.642 -0.2180  0.0216  0.3069
  521MOL0     C70204   5.856  11.411   3.724  0.2810 -0.2786 -0.1531
  521MOL0     C70205   5.725  11.371   3.716  0.0015  0.4598 -0.8342
  521MOL0     C70206   5.634  11.429   3.795  0.1072  0.2826  0.8180
  521MOL0     C70207   5.668  11.538   3.877 -0.2565  1.0177  0.4798
  521MOL0     O70208   5.571  11.606   3.945 -0.1136  0.6239 -0.1231
  521MOL0     C70209   5.475  11.665   3.858 -0.1795 -0.0549  0.2563
  521MOL0     C70210   5.392  11.762   3.947  0.6491  0.1037 -0.3265
  521MOL0     C70211   5.303  11.854   3.868 -0.1139 -0.6930  0.3811
  521MOL0     C70212   5.265  11.796   3.721  0.0334  0.2086  0.7975
  521MOL0     C70213   5.184  11.893   3.643 -1.2170  0.0746 -0.3873
  521MOL0     C70214   5.203  11.880   3.494  0.1127  0.1998 -0.9647
  521MOL0     C70215   5.139  11.987   3.407  0.6066  0.3848 -0.3072
  521MOL0     C70216   5.001  12.039   3.458 -0.5816  0.2120  0.0803
  521MOL0     N70217   4.920  12.091   3.351 -0.3663 -0.4423 -0.8814
  521MOL0     C70218   4.860  12.025   3.252  0.8187 -0.1809  0.1151
  521MOL0     C70219   4.783  12.114   3.191 -1.3699  0.4815  0.2015
  521MOL0     C70220   4.689  12.085   3.071 -0.1057  0.2921  0.0922
  521MOL0     C70221   4.548  12.078   3.126 -0.4319 -0.2160 -0.7867
  521MOL0     C70222   4.443  12.040   3.017 -1.4780  0.1526 -0.8167
  521MOL0     C70223   4.289  12.031   3.061  0.2120  0.3150  0.0340
  521MOL0     O70224   4.237  12.159   3.096 -0.1513 -0.1021  0.0751
  521MOL0     C70225   4.105  12.162   3.123  0.6057 -0.1942  0.3047
  521MOL0     C70226   4.060  12.279   3.189  0.2718  0.2314  0.8925
  521MOL0     C70227   3.923  12.307   3.203 -0.4324  1.3207 -0.5316
  521MOL0     C70228   3.875  12.437   3.270  0.3081  0.7607  0.0032
  521MOL0     C70229   3.832  12.217   3.152  0.3324 -0.1465  0.8679
  521MOL0     C70230   3.691  12.236   3.155 -0.1700  0.1262  0.1534
  521MOL0     O70231   3.640  12.360   3.109  0.4310  0.0373  0.1441
  521MOL0     C70232   3.504  12.393   3.093  0.4747 -0.6107  0.2142
  521MOL0     C70233   3.398  12.321   3.155  0.1038 -0.2175  0.1831
  521MOL0     C70234   3.267  12.358   3.119  0.2920  0.1175 -0.0715
  521MOL0     C70235   3.229  12.463   3.035  0.1917  0.1582  0.6381
  521MOL0     O70236   3.097  12.492   2.995  0.3058  0.7861 -0.1185
  521MOL0     C70237   2.994  12.502   3.088 -0.1960  1.0911  0.5275
  521MOL0     C70238   2.862  12.544   3.030  0.1841 -0.0419 -0.1931
  521MOL0     C70239   2.759  12.574   3.142 -0.2559 -0.3451 -0.3725
  521MOL0     C70240   2.625  12.623   3.095  0.5795  0.1022 -0.5887
  521MOL0     C70241   2.516  12.601   3.196 -0.5495  0.2109 -0.4343
  521MOL0     C70242   2.502  12.452   3.241  0.0743  0.4066 -0.4331
  521MOL0     C70243   2.364  12.427   3.297  0.3548  1.1776 -0.4145
  521MOL0     C70244   2.326  12.278   3.283 -0.1747 -0.6696  1.0422
  521MOL0    Cl70245   2.181  12.231   3.362  0.2006  0.2820 -0.1584
  521MOL0     C70246   3.333  12.522   2.963  0.5566 -0.5706  0.0953
  521MOL0     C70247   3.472  12.495   3.003  0.1981 -0.3828  1.4334
  521MOL0     O70248   3.625  12.137   3.195 -0.3988 -0.0119 -0.0077
  521MOL0     C70249   3.880  12.095   3.099  0.0057 -0.4673  0.0827
  521MOL0     C70250   4.014  12.063   3.086  0.1740  0.0943  0.7395
  521MOL0     N70251   4.790  12.231   3.259 -0.3638 -0.5229  0.3573
  521MOL0     N70252   4.866  12.222   3.357  0.5019 -1.0457  0.0169
  521MOL0     C70253   5.802  11.579   3.885 -0.3712  0.1039  0.3180
  521MOL0     C70254   5.894  11.507   3.808 -0.0196 -0.7506  0.0462
  521MOL0     C70255   6.079  11.152   3.579  0.0920 -0.3562 -0.1792
  521MOL0     C70256   6.149  11.036   3.627 -0.3010 -1.4884  0.6308
  521MOL0     C70257   6.258  10.990   3.557 -0.9491  0.8077  0.3303
  521MOL0     C70258   6.289  11.029   3.428  0.0247 -0.1307  0.3418
  521MOL0     O70259   6.398  10.973   3.367  0.0825 -0.2806  0.1914
  521MOL0     C70260   6.430  11.001   3.230  0.0249  0.0881  1.0514
  521MOL0     C70261   6.493  10.893   3.143  0.4475  0.9905 -0.7103
  521MOL0     C70262   6.630  10.865   3.203 -0.9990  0.3094  0.0199
  521MOL0     C70263   6.730  10.879   3.082  0.7650  0.4812  0.8437
  521MOL0     C70264   6.869  10.831   3.118 -0.2438  0.5352  0.0672
  521MOL0     C70265   6.979  10.803   3.146  0.2562  0.9784  0.2789
  521MOL0     C70266   6.221  11.137   3.379 -0.1545  1.0569 -0.1721
  521MOL0     C70267   6.121  11.197   3.457 -0.3872  0.1018 -0.5125
  521MOL0     H70268   5.699  11.289   3.651  4.8195 -0.7560 -1.6495
  521MOL0     H70269   5.534  11.387   3.798  0.0104  0.3069 -1.2350
  521MOL0     H70270   5.534  11.723   3.786 -1.5166  1.5832  0.4091
  521MOL0     H70271   5.408  11.591   3.815 -2.2359  2.8880 -1.9362
  521MOL0     H70272   5.330  11.702   4.014  2.7121 -3.1240 -1.0753
  521MOL0     H70273   5.465  11.825   3.998  1.7987 -2.1993  1.0491
  521MOL0     H70274   5.207  11.863   3.920 -0.7738 -0.1663 -0.9055
  521MOL0     H70275   5.353  11.950   3.875 -0.5990 -0.2615 -1.5457
  521MOL0     H70276   5.348  11.771   3.655  0.8504  1.3482  1.3435
  521MOL0     H70277   5.213  11.700   3.726  0.7363 -0.2463 -0.2718
  521MOL0     H70278   5.085  11.862   3.678 -0.7664 -2.5595 -1.1987
  521MOL0     H70279   5.217  11.993   3.673  2.4785 -1.2110  0.3892
  521MOL0     H70280   5.306  11.877   3.455  0.5763 -2.8333  0.2273
  521MOL0     H70281   5.155  11.783   3.478 -2.0598  1.1126 -0.3395
  521MOL0     H70282   5.214  12.063   3.387  1.0160 -0.3627 -1.6974
  521MOL0     H70283   5.111  11.944   3.311 -3.5914  1.4131  0.2530
  521MOL0     H70284   5.007  12.109   3.542  2.7106  1.0693 -0.7392
  521MOL0     H70285   4.948  11.953   3.502  0.1307  0.3555  1.2771
  521MOL0     H70286   4.862  11.917   3.239  1.0199 -0.2079  0.3770
  521MOL0     H70287   4.689  12.171   3.003 -1.7010  3.1025  3.2854
  521MOL0     H70288   4.714  11.987   3.030 -0.9280 -0.0174  0.3047
  521MOL0     H70289   4.526  12.166   3.187 -1.2129  0.9500 -2.6406
  521MOL0     H70290   4.557  11.995   3.196  2.4445 -0.3030 -1.1366
  521MOL0     H70291   4.470  11.940   2.981 -1.2174 -0.7484  1.6665
  521MOL0     H70292   4.453  12.103   2.929  2.1749 -0.3464 -0.8838
  521MOL0     H70293   4.276  11.961   3.145  2.3167  1.2776  1.2418
  521MOL0     H70294   4.238  12.000   2.969 -1.3781  4.3491 -0.6571
  521MOL0     H70295   4.137  12.349   3.221 -0.9157  1.6283  0.7465
  521MOL0     H70296   3.789  12.410   3.332  0.2905 -0.6318 -0.5916
  521MOL0     H70297   3.954  12.474   3.336 -1.3998  1.7012  1.6141
  521MOL0     H70298   3.844  12.512   3.197 -2.6525 -0.5638 -0.2235
  521MOL0     H70299   3.411  12.239   3.224 -0.5970  0.3694  1.0299
  521MOL0     H70300   3.182  12.304   3.160  0.5399  1.3588  2.3147
  521MOL0     H70301   2.984  12.402   3.130  3.1102 -0.8418 -2.7082
  521MOL0     H70302   3.013  12.576   3.167  0.5877  1.7947 -0.3032
  521MOL0     H70303   2.872  12.638   2.975 -0.0764 -2.0881 -4.0732
  521MOL0     H70304   2.814  12.463   2.973  0.3479 -1.7549  1.9480
  521MOL0     H70305   2.793  12.655   3.207  2.0868 -2.0452  0.6679
  521MOL0     H70306   2.757  12.481   3.200  0.6441 -1.8395 -2.5676
  521MOL0     H70307   2.633  12.724   3.055 -1.7620 -0.5284 -2.9266
  521MOL0     H70308   2.594  12.566   3.007 -0.4233 -0.4897  0.1230
  521MOL0     H70309   2.423  12.639   3.152 -1.1182  0.3506  0.8307
  521MOL0     H70310   2.528  12.654   3.291  0.6330  1.3996 -1.2206
  521MOL0     H70311   2.514  12.382   3.157  0.9641  0.5752 -0.4612
  521MOL0     H70312   2.577  12.423   3.315 -0.7277  1.4243  0.8145
  521MOL0     H70313   2.285  12.490   3.254 -3.3317 -2.0527  0.9620
  521MOL0     H70314   2.360  12.453   3.403 -1.0662  0.4740 -0.2581
  521MOL0     H70315   2.407  12.214   3.319  0.9189  1.0778  1.7940
  521MOL0     H70316   2.310  12.250   3.179 -0.9133  1.4910  0.5188
  521MOL0     H70317   3.303  12.602   2.896  2.0911  2.7765  3.0723
  521MOL0     H70318   3.558  12.537   2.953  0.0090  0.4891  1.8246
  521MOL0     H70319   3.813  12.012   3.080  1.4078 -1.6946  0.3214
  521MOL0     H70320   4.038  11.965   3.047 -2.8629 -0.5235  0.1189
  521MOL0     H70321   5.831  11.659   3.953  1.9646 -1.2979  1.0825
  521MOL0     H70322   5.994  11.549   3.795 -0.5378 -0.0571 -2.1001
  521MOL0     H70323   6.130  11.000   3.728 -2.5740  1.4997  1.4150
  521MOL0     H70324   6.318  10.915   3.608  1.1205  0.9152 -1.7518
  521MOL0     H70325   6.342  11.033   3.173 -1.0231 -2.2403  1.2709
  521MOL0     H70326   6.493  11.091   3.221  0.7959 -0.5832 -0.8384
  521MOL0     H70327   6.501  10.919   3.038  0.9778  0.3555 -0.8392
  521MOL0     H70328   6.440  10.798   3.155  0.9227  0.9213  1.3874
  521MOL0     H70329   6.645  10.765   3.244 -2.0968  0.1146 -0.0318
  521MOL0     H70330   6.659  10.944   3.273 -0.7340 -0.4425  0.7723
  521MOL0     H70331   6.736  10.982   3.046 -0.2007  1.3962  3.1395
  521MOL0     H70332   6.687  10.814   3.005  1.8323 -2.4910  2.5844
  521MOL0     H70333   7.083  10.785   3.168  0.2001  0.7743  0.3792
  521MOL0     H70334   6.245  11.178   3.281 -1.7442  2.4033 -0.0506
  521MOL0     H70335   6.088  11.295   3.425  2.6833  2.0356  1.6505
  522MOL0     O70336   7.814   7.577   8.462 -0.4518  0.5901  0.0813
  522MOL0     C70337   7.840   7.475   8.519 -0.3265  1.0815 -1.0176
  522MOL0     O70338   7.757   7.380   8.571 -0.7129  0.4897 -0.7163
  522MOL0     C70339   7.629   7.400   8.542  0.4799  0.2804  0.0761
  522MOL0     C70340   7.554   7.512   8.593  0.7922  0.5697 -0.1611
  522MOL0     C70341   7.423   7.524   8.559  0.7689  0.1336 -0.8544
  522MOL0     C70342   7.363   7.436   8.475 -0.5994 -0.0268 -0.1758
  522MOL0     O70343   7.231   7.462   8.458 -0.3104 -0.0132 -0.0394
  522MOL0     C70344   7.158   7.352   8.407  0.5648 -1.2568  0.1866
  522MOL0     C70345   7.013   7.404   8.406  0.0504 -0.5612  0.0262
  522MOL0     C70346   6.925   7.289   8.362 -0.1290 -0.4510  0.3703
  522MOL0     C70347   6.780   7.322   8.350 -0.4306 -0.7144 -0.0523
  522MOL0     C70348   6.689   7.223   8.277  0.7625  0.6540 -0.5442
  522MOL0     C70349   6.658   7.099   8.370  0.3105  0.3601  0.6944
  522MOL0     C70350   6.591   6.983   8.299 -0.3724  0.1784 -0.1566
  522MOL0     C70351   6.475   7.023   8.206  0.7488 -0.3419 -0.7840
  522MOL0     N70352   6.355   6.933   8.211  0.3420 -0.7162  0.5781
  522MOL0     C70353   6.279   6.917   8.103 -0.2552  0.5855  0.1466
  522MOL0     C70354   6.214   6.795   8.121 -0.2755  0.0497  1.0345
  522MOL0     C70355   6.119   6.711   8.037  0.1493  0.7439 -0.6028
  522MOL0     C70356   5.984   6.783   8.032  0.0077  0.0209  0.8212
  522MOL0     C70357   5.867   6.701   7.981  0.2721  0.4861  0.5406
  522MOL0     C70358   5.882   6.660   7.838 -0.0998 -0.3831  0.1861
  522MOL0     O70359   5.835   6.762   7.746  0.1193 -0.6048  0.3702
  522MOL0     C70360   5.706   6.776   7.705  0.3714 -0.3261 -0.2028
  522MOL0     C70361   5.590   6.708   7.767 -0.4030 -0.4999  0.2534
  522MOL0     C70362   5.458   6.734   7.727  0.0237  0.3442 -0.4226
  522MOL0     C70363   5.351   6.654   7.794  0.3886 -0.1629  0.0191
  522MOL0     C70364   5.433   6.829   7.628  0.1703 -0.1580  0.4878
  522MOL0     C70365   5.298   6.865   7.578  0.0768 -0.3794 -0.4108
  522MOL0     O70366   5.235   6.771   7.506 -0.6304  1.0047 -0.4728
  522MOL0     C70367   5.113   6.797   7.449  0.0975  0.0263 -0.7635
  522MOL0     C70368   5.100   6.787   7.314  0.3461  0.5409  0.5683
  522MOL0     C70369   4.978   6.804   7.251 -0.3396 -0.2970 -0.1841
  522MOL0     C70370   4.861   6.832   7.322 -0.2455  0.4853 -0.3065
  522MOL0     O70371   4.741   6.871   7.263 -0.2362 -0.4253  0.2765
  522MOL0     C70372   4.615   6.859   7.334  1.0753 -0.4975  0.3798
  522MOL0     C70373   4.490   6.870   7.239 -0.6031  0.0753  0.6008
  522MOL0     C70374   4.370   6.818   7.306  1.1376 -0.3495 -0.4492
  522MOL0     C70375   4.268   6.758   7.211 -0.8549 -0.3978  0.0697
  522MOL0     C70376   4.143   6.710   7.273 -0.0184  0.1568  0.0572
  522MOL0     C70377   4.077   6.822   7.345  0.6852 -1.0701  0.0089
  522MOL0     C70378   3.922   6.791   7.352  0.2461  0.6803  0.5067
  522MOL0     C70379   3.880   6.673   7.436 -0.4967 -0.1754  0.1975
  522MOL0    Cl70380   3.897   6.709   7.609  0.5463 -0.1308  0.2869
  522MOL0     C70381   4.875   6.837   7.461  0.4130  0.0167  0.4536
  522MOL0     C70382   4.993   6.819   7.528 -0.9180 -0.0845  0.9824
  522MOL0     O70383   5.258   6.982   7.589 -0.4293 -0.1773 -0.0254
  522MOL0     C70384   5.541   6.903   7.578 -0.0620  0.5965 -0.9145
  522MOL0     C70385   5.672   6.866   7.605 -0.2532 -0.1062  0.6974
  522MOL0     N70386   6.256   6.743   8.243 -0.0023 -0.2343  1.2133
  522MOL0     N70387   6.339   6.830   8.298 -0.3217 -0.0071 -0.0295
  522MOL0     C70388   7.431   7.326   8.430 -0.0206 -0.1491 -0.5285
  522MOL0     C70389   7.560   7.302   8.469 -0.3024 -0.1499 -0.2246
  522MOL0     C70390   7.985   7.454   8.559 -0.0387 -0.3109 -0.6903
  522MOL0     C70391   8.078   7.550   8.526 -0.1416 -0.0622  0.7039
  522MOL0     C70392   8.211   7.528   8.563  0.3003  0.6642 -0.2682
  522MOL0     C70393   8.249   7.409   8.632  0.4532  0.2827 -0.1194
  522MOL0     O70394   8.380   7.397   8.673 -0.0192 -0.1765  0.7974
  522MOL0     C70395   8.428   7.268   8.711  0.1865  0.0736 -0.4043
  522MOL0     C70396   8.411   7.167   8.596 -1.4654  0.5618 -0.1436
  522MOL0     C70397   8.461   7.228   8.461 -0.1660  0.0110 -0.3728
  522MOL0     C70398   8.462   7.129   8.348  0.4772 -0.6158  0.7066
  522MOL0     C70399   8.335   7.132   8.277  0.1359  0.1500 -0.1879
  522MOL0     C70400   8.237   7.132   8.212 -0.8150 -0.5453  0.0417
  522MOL0     C70401   8.150   7.317   8.668 -0.3291 -0.3969 -0.1224
  522MOL0     C70402   8.019   7.334   8.629  0.2936 -0.1901  0.6425
  522MOL0     H70403   7.600   7.577   8.666  1.0745 -1.0460  1.1759
  522MOL0     H70404   7.361   7.605   8.595  1.5368  1.2051 -1.9007
  522MOL0     H70405   7.201   7.320   8.312 -2.3653  2.1967 -2.5715
  522MOL0     H70406   7.176   7.283   8.490  0.2078  0.5740  1.8530
  522MOL0     H70407   6.983   7.437   8.506 -0.0206 -1.2602  0.2363
  522MOL0     H70408   7.003   7.493   8.342 -1.8329 -1.0061 -0.3703
  522MOL0     H70409   6.943   7.237   8.267 -0.6356 -3.7745  1.9408
  522MOL0     H70410   6.942   7.226   8.449 -0.3945 -1.8194 -0.5400
  522MOL0     H70411   6.735   7.347   8.447 -2.0209  1.7105 -1.3197
  522MOL0     H70412   6.761   7.414   8.294  1.5624 -1.0498 -1.3497
  522MOL0     H70413   6.589   7.263   8.258  0.3433 -0.4494 -0.7444
  522MOL0     H70414   6.732   7.187   8.183  1.7897  0.4753 -0.0172
  522MOL0     H70415   6.755   7.065   8.407  1.7038  1.7950 -1.4279
  522MOL0     H70416   6.590   7.126   8.452 -1.1789 -1.4087  0.1241
  522MOL0     H70417   6.667   6.945   8.230 -2.0215 -1.5738 -1.0815
  522MOL0     H70418   6.576   6.900   8.368 -1.3424  0.2935 -0.2179
  522MOL0     H70419   6.516   7.035   8.106  0.4399 -1.7277 -1.1045
  522MOL0     H70420   6.435   7.118   8.241  0.5702 -0.5337 -0.4605
  522MOL0     H70421   6.267   6.990   8.023  1.4131 -1.2666 -1.9021
  522MOL0     H70422   6.167   6.692   7.941  1.4357  0.3651  0.0819
  522MOL0     H70423   6.106   6.611   8.080  1.1460  1.4499  1.4616
  522MOL0     H70424   5.986   6.882   7.986 -0.2582 -1.0777 -1.7238
  522MOL0     H70425   5.964   6.794   8.139 -1.5575 -1.7828  0.7686
  522MOL0     H70426   5.770   6.748   8.000 -0.4103 -1.0002  0.8920
  522MOL0     H70427   5.857   6.609   8.038  2.0213 -1.4724 -2.0778
  522MOL0     H70428   5.832   6.564   7.821  1.3555 -0.7214 -2.9877
  522MOL0     H70429   5.986   6.635   7.813  1.5575  2.7699  3.1099
  522MOL0     H70430   5.601   6.643   7.853 -0.9259 -0.1762  0.5725
  522MOL0     H70431   5.261   6.648   7.731 -2.0074  2.4466  2.8479
  522MOL0     H70432   5.374   6.552   7.827 -1.5280 -1.2714 -1.8265
  522MOL0     H70433   5.333   6.700   7.892  0.8889 -2.0652  1.0696
  522MOL0     H70434   5.182   6.763   7.247  1.2770  0.9152  1.5395
  522MOL0     H70435   4.972   6.790   7.144 -2.1541 -1.0938 -0.0267
  522MOL0     H70436   4.617   6.763   7.386  0.2345 -1.4097 -1.2160
  522MOL0     H70437   4.613   6.945   7.402  0.3265 -0.0370 -0.2132
  522MOL0     H70438   4.476   6.974   7.207  0.5933  1.2614  3.5924
  522MOL0     H70439   4.516   6.803   7.157 -0.0756  0.9836  0.0178
  522MOL0     H70440   4.320   6.895   7.365  0.7720 -0.6723 -0.3315
  522MOL0     H70441   4.379   6.735   7.376  0.9995 -1.5577 -1.8209
  522MOL0     H70442   4.238   6.835   7.139  0.5870  2.5149  2.3981
  522MOL0     H70443   4.312   6.666   7.169  0.7288  1.0503 -1.6213
  522MOL0     H70444   4.165   6.621   7.334  0.2890  0.0557 -0.1969
  522MOL0     H70445   4.071   6.673   7.199  0.5570  2.7739 -1.9434
  522MOL0     H70446   4.100   6.819   7.452 -0.0569 -0.5506  0.1956
  522MOL0     H70447   4.088   6.921   7.301  0.8267 -0.1969  1.9259
  522MOL0     H70448   3.885   6.771   7.251  4.2385 -0.6083 -0.8615
  522MOL0     H70449   3.877   6.883   7.392  0.1602  1.4403 -1.2559
  522MOL0     H70450   3.938   6.581   7.421  0.1550  0.2833 -0.1401
  522MOL0     H70451   3.778   6.647   7.407  0.3666 -2.4000 -1.1384
  522MOL0     H70452   4.787   6.851   7.522  1.2495  0.5701  1.5898
  522MOL0     H70453   4.986   6.815   7.636 -1.7723 -0.8713  0.9041
  522MOL0     H70454   5.522   6.978   7.502 -1.2142  1.3359  0.0923
  522MOL0     H70455   5.754   6.911   7.550 -0.6530 -0.4496 -0.2018
  522MOL0     H70456   7.386   7.248   8.368  0.5354  0.6737 -2.0282
  522MOL0     H70457   7.605   7.206   8.447 -4.2558 -2.2470 -0.1871
  522MOL0     H70458   8.064   7.638   8.465 -1.8706 -0.4148  0.5477
  522MOL0     H70459   8.291   7.598   8.544  2.1656 -1.6703 -1.6339
  522MOL0     H70460   8.532   7.273   8.745  0.6533 -0.9392 -1.6174
  522MOL0     H70461   8.364   7.234   8.793 -1.4829  0.4549 -1.5138
  522MOL0     H70462   8.320   7.109   8.585 -0.0528 -1.6324 -0.8418
  522MOL0     H70463   8.476   7.081   8.615 -0.7490  1.3608  1.2450
  522MOL0     H70464   8.562   7.269   8.453 -0.9598  1.8084 -1.9160
  522MOL0     H70465   8.400   7.314   8.433  0.8515  0.9416  0.1958
  522MOL0     H70466   8.469   7.029   8.390  1.5824  0.3578  2.9758
  522MOL0     H70467   8.540   7.147   8.273 -0.9697 -0.1265 -0.7538
  522MOL0     H70468   8.152   7.147   8.149  0.4015  3.7992 -0.8770
  522MOL0     H70469   8.164   7.225   8.723 -0.1071 -1.8576 -2.4744
  522MOL0     H70470   7.942   7.257   8.635 -0.6643  0.3980 -2.4238
  523MOL0     O70471   9.078   0.530   7.488  0.6584 -0.0219 -0.3031
  523MOL0     C70472   9.137   0.534   7.379  0.3311 -0.0361 -0.2319
  523MOL0     O70473   9.093   0.560   7.259 -0.5893  0.0211  0.2537
  523MOL0     C70474   8.968   0.609   7.225 -0.1739  0.2731  0.1673
  523MOL0     C70475   8.914   0.583   7.089 -0.3468  0.6923 -0.2398
  523MOL0     C70476   8.788   0.626   7.057  0.1575 -0.0984  0.2632
  523MOL0     C70477   8.714   0.711   7.140  0.0307 -0.6103 -0.7520
  523MOL0     O70478   8.590   0.762   7.102  0.3253 -0.3178 -0.0970
  523MOL0     C70479   8.584   0.865   7.005  0.9246 -1.1575 -0.0534
  523MOL0     C70480   8.649   0.992   7.054  0.0991  0.1846  0.6929
  523MOL0     C70481   8.608   1.111   6.974  0.3874 -0.1497  0.5191
  523MOL0     C70482   8.477   1.164   7.041 -0.5696  0.8477  0.3003
  523MOL0     C70483   8.420   1.282   6.969  0.2996  0.3791 -0.2202
  523MOL0     C70484   8.284   1.332   7.033 -0.2593 -0.5251  0.1507
  523MOL0     C70485   8.154   1.246   7.014  0.8622  0.1499 -0.3683
  523MOL0     C70486   8.032   1.327   7.070  0.0292  0.0271  0.5602
  523MOL0     N70487   7.913   1.242   7.081  0.8076 -0.3220  0.3218
  523MOL0     C70488   7.785   1.294   7.051 -0.2336  0.9327 -0.3458
  523MOL0     C70489   7.705   1.186   7.083  0.8229 -0.5473 -0.0473
  523MOL0     C70490   7.557   1.167   7.053  0.1045  0.2230 -0.1355
  523MOL0     C70491   7.474   1.206   7.174 -0.2326 -0.6850  0.2224
  523MOL0     C70492   7.323   1.202   7.160  0.0091  0.0750 -0.2265
  523MOL0     C70493   7.263   1.070   7.126  1.4627 -0.1801  0.0478
  523MOL0     O70494   7.287   1.027   6.995 -0.3134  0.3079  0.0466
  523MOL0     C70495   7.192   1.031   6.901 -0.8306 -0.1040 -0.1630
  523MOL0     C70496   7.249   1.062   6.780  0.2409 -0.8781  0.2913
  523MOL0     C70497   7.161   1.087   6.667  0.0340 -0.3951 -0.0170
  523MOL0     C70498   7.233   1.117   6.536 -0.1481 -0.2551  0.0248
  523MOL0     C70499   7.019   1.079   6.689  0.0402  0.9569  0.4457
  523MOL0     C70500   6.915   1.130   6.594 -0.2280 -0.4638 -0.1220
  523MOL0     O70501   6.796   1.064   6.606 -0.0611  0.0475  0.4274
  523MOL0     C70502   6.687   1.086   6.527  0.1027  0.3016 -0.0637
  523MOL0     C70503   6.683   1.156   6.403 -0.8122  0.7054 -0.1125
  523MOL0     C70504   6.560   1.179   6.346  0.7294 -0.4605  0.1894
  523MOL0     C70505   6.436   1.146   6.404 -0.4575  0.7701  0.0890
  523MOL0     O70506   6.315   1.175   6.349 -0.8945 -0.1416  0.6884
  523MOL0     C70507   6.308   1.175   6.202  0.0905  0.3472  0.3090
  523MOL0     C70508   6.292   1.029   6.163 -0.2610 -0.4448  0.0076
  523MOL0     C70509   6.262   1.041   6.016 -0.5318  0.3976 -0.2465
  523MOL0     C70510   6.239   0.910   5.946  0.6845  0.6506 -0.3056
  523MOL0     C70511   6.185   0.949   5.803 -0.8646  0.1008 -0.3131
  523MOL0     C70512   6.039   0.991   5.790 -0.4902  0.4099 -0.0362
  523MOL0     C70513   6.015   1.040   5.643 -0.1237 -0.4592  0.6662
  523MOL0     C70514   5.866   1.056   5.626  0.7749 -0.5924 -0.4249
  523MOL0    Cl70515   5.787   1.166   5.755 -0.1300  0.2247  0.1754
  523MOL0     C70516   6.444   1.081   6.529 -0.7650 -0.0906  0.2496
  523MOL0     C70517   6.569   1.052   6.595 -0.1560 -0.3927 -1.2150
  523MOL0     O70518   6.924   1.237   6.538  0.3952 -0.4282  0.1359
  523MOL0     C70519   6.969   1.040   6.818 -0.1844  0.0266  0.0150
  523MOL0     C70520   7.058   1.016   6.923  0.8862  0.4663 -0.4749
  523MOL0     N70521   7.778   1.090   7.146  0.4101 -0.4012  0.5214
  523MOL0     N70522   7.902   1.123   7.151  0.6104 -0.4532  0.5384
  523MOL0     C70523   8.769   0.737   7.268  0.7655 -0.1856  0.9844
  523MOL0     C70524   8.888   0.687   7.310 -0.1591 -0.9304 -0.3436
  523MOL0     C70525   9.281   0.528   7.400  0.0266 -0.4646 -0.4660
  523MOL0     C70526   9.339   0.471   7.524  0.0965 -0.4985  0.0294
  523MOL0     C70527   9.477   0.451   7.536  0.3681  0.3331 -0.1486
  523MOL0     C70528   9.563   0.494   7.435  0.4173 -0.0202 -0.4326
  523MOL0     O70529   9.702   0.494   7.442 -0.9249 -0.5432 -0.4686
  523MOL0     C70530   9.773   0.526   7.560  0.0417 -0.4706 -0.9034
  523MOL0     C70531   9.860   0.416   7.606  0.0511  0.0548 -0.3358
  523MOL0     C70532   9.989   0.463   7.676 -0.3307 -0.7060  0.7651
  523MOL0     C70533  10.083   0.551   7.583  0.7589  1.1080  0.1093
  523MOL0     C70534  10.215   0.585   7.644 -0.1378 -0.7468  0.2801
  523MOL0     C70535  10.310   0.606   7.719  0.2991  0.6421 -0.6424
  523MOL0     C70536   9.508   0.536   7.313  0.2493 -0.3222 -0.7126
  523MOL0     C70537   9.373   0.558   7.297 -0.4387 -0.4314  1.0383
  523MOL0     H70538   8.975   0.511   7.035  0.8769 -1.5536  3.7136
  523MOL0     H70539   8.746   0.591   6.963 -1.6979  0.6727  0.7630
  523MOL0     H70540   8.628   0.851   6.906  1.0551  4.9183 -1.2739
  523MOL0     H70541   8.479   0.890   6.986  1.2568  2.2268  1.7663
  523MOL0     H70542   8.631   1.010   7.161  0.0171 -0.0157  0.7133
  523MOL0     H70543   8.754   0.975   7.027 -0.2968  2.2702 -2.6794
  523MOL0     H70544   8.691   1.182   6.982 -1.2956  1.9424  0.1549
  523MOL0     H70545   8.593   1.071   6.874 -0.1630 -2.2988  1.4079
  523MOL0     H70546   8.400   1.086   7.035  0.1860  0.0846  0.2228
  523MOL0     H70547   8.483   1.178   7.149 -1.7127 -3.1899  1.0829
  523MOL0     H70548   8.487   1.368   6.967 -2.5645  2.7512 -0.9937
  523MOL0     H70549   8.404   1.250   6.865 -0.9187 -1.0435  0.3476
  523MOL0     H70550   8.306   1.361   7.136  0.9377  0.6996 -0.4189
  523MOL0     H70551   8.250   1.424   6.986 -0.0269 -1.6133 -2.3495
  523MOL0     H70552   8.148   1.221   6.907  1.9196 -0.7418 -0.2322
  523MOL0     H70553   8.161   1.155   7.074 -0.8839 -0.7087 -1.3876
  523MOL0     H70554   8.009   1.408   7.000  0.8356 -0.1392  0.0976
  523MOL0     H70555   8.051   1.360   7.173 -0.9087 -0.8002  1.0204
  523MOL0     H70556   7.766   1.385   6.995  0.8771  1.5907  0.3165
  523MOL0     H70557   7.546   1.246   6.977  1.2195  1.3498  0.8325
  523MOL0     H70558   7.536   1.068   7.010 -0.7211  0.0775  0.5624
  523MOL0     H70559   7.506   1.307   7.203  0.9193 -0.2392 -2.3426
  523MOL0     H70560   7.497   1.136   7.255 -0.0251 -0.5687  0.2651
  523MOL0     H70561   7.295   1.275   7.083 -2.9145 -0.6128  0.0826
  523MOL0     H70562   7.286   1.248   7.252  1.3645  2.4091 -0.7472
  523MOL0     H70563   7.157   1.076   7.149  1.6594 -0.5310  1.0894
  523MOL0     H70564   7.313   0.992   7.185  0.3563 -1.6241 -0.8501
  523MOL0     H70565   7.354   1.085   6.787  0.5379 -1.2205 -2.0340
  523MOL0     H70566   7.330   1.067   6.524 -0.8037 -1.1186 -2.2418
  523MOL0     H70567   7.170   1.075   6.457 -1.6731  3.0289 -0.6873
  523MOL0     H70568   7.238   1.223   6.508 -4.7719  0.1311 -0.0873
  523MOL0     H70569   6.775   1.176   6.350 -0.8825  0.0931 -0.4728
  523MOL0     H70570   6.572   1.230   6.250  2.9586 -3.7386 -1.4964
  523MOL0     H70571   6.212   1.218   6.173 -0.9623 -2.0546  0.0493
  523MOL0     H70572   6.397   1.211   6.149  0.3953 -1.0302 -0.1394
  523MOL0     H70573   6.389   0.979   6.171 -0.7803 -1.6157 -0.6471
  523MOL0     H70574   6.215   0.967   6.211 -1.3997 -1.8472 -3.3370
  523MOL0     H70575   6.339   1.090   5.956  1.1531 -0.6346  0.9910
  523MOL0     H70576   6.176   1.108   6.005  1.5184  4.2245  3.6476
  523MOL0     H70577   6.331   0.851   5.949 -1.0793 -2.4357  3.6315
  523MOL0     H70578   6.169   0.848   6.004 -1.5020  3.6279  0.4739
  523MOL0     H70579   6.194   0.852   5.754  1.7335  0.2725 -0.3054
  523MOL0     H70580   6.244   1.023   5.749  2.0019 -2.3578 -0.7525
  523MOL0     H70581   5.975   0.905   5.812  1.3968 -1.3327 -1.0337
  523MOL0     H70582   6.025   1.074   5.859  0.4008  0.3327  0.2521
  523MOL0     H70583   6.062   0.969   5.574  1.3170 -0.1818  1.3351
  523MOL0     H70584   6.061   1.138   5.629  1.2455 -1.4153 -2.6017
  523MOL0     H70585   5.819   0.959   5.647 -1.4497  0.2458 -1.2968
  523MOL0     H70586   5.848   1.088   5.523  3.0139  3.6784  0.3025
  523MOL0     H70587   6.351   1.054   6.577 -1.7236  2.9988  0.3958
  523MOL0     H70588   6.557   0.997   6.688  1.5438 -0.3705 -0.9488
  523MOL0     H70589   6.861   1.037   6.828 -0.2313 -1.0706 -0.6599
  523MOL0     H70590   7.023   0.997   7.023  1.0995 -3.2244 -0.9384
  523MOL0     H70591   8.719   0.802   7.339  4.1196  2.5410  1.1305
  523MOL0     H70592   8.913   0.719   7.411 -2.0956  0.5805 -0.3055
  523MOL0     H70593   9.285   0.424   7.605  1.6761 -3.2879 -0.3848
  523MOL0     H70594   9.515   0.426   7.634  2.4337 -2.7587 -1.5790
  523MOL0     H70595   9.834   0.613   7.538  0.1146 -0.7627 -1.9106
  523MOL0     H70596   9.703   0.551   7.641  0.2102  0.4887 -1.0458
  523MOL0     H70597   9.879   0.354   7.517  1.3691 -1.5091  0.9735
  523MOL0     H70598   9.801   0.359   7.678  1.9440  1.3849  2.4615
  523MOL0     H70599  10.053   0.380   7.711  1.6076  1.7438  3.6041
  523MOL0     H70600   9.962   0.523   7.763  2.1348  0.6186  0.7238
  523MOL0     H70601  10.034   0.645   7.557 -0.2109 -0.0794 -2.7180
  523MOL0     H70602  10.095   0.487   7.495 -0.5013  1.2567 -0.1972
  523MOL0     H70603  10.381   0.640   7.792 -0.8074  0.7632  0.4048
  523MOL0     H70604   9.573   0.565   7.230  0.3442  2.7643  0.3124
  523MOL0     H70605   9.344   0.595   7.199  2.9713  1.1250  0.4645
  524MOL0     O70606   8.181   5.566   9.985 -0.4665  0.3722 -0.1709
  524MOL0     C70607   8.239   5.611  10.084  0.1674  1.4193  0.1787
  524MOL0     O70608   8.210   5.728  10.146  0.1305 -0.4445 -0.0455
  524MOL0     C70609   8.109   5.816  10.111  0.1008  0.0645  0.1825
  524MOL0     C70610   8.065   5.896  10.221 -0.6698  0.1201 -0.1649
  524MOL0     C70611   7.955   5.977  10.201  0.3052  0.3047  0.0733
  524MOL0     C70612   7.893   5.993  10.081 -0.5954  0.4324  1.1848
  524MOL0     O70613   7.786   6.076  10.082  0.5491  0.3698  0.2663
  524MOL0     C70614   7.668   6.023  10.029 -0.4349  0.9436  0.0622
  524MOL0     C70615   7.553   6.098  10.077 -0.5521  0.2786 -0.1392
  524MOL0     C70616   7.421   6.046  10.026 -0.5342  0.8737  0.5255
  524MOL0     C70617   7.297   6.109  10.095 -0.1093 -0.6326  0.5836
  524MOL0     C70618   7.166   6.036  10.066 -0.1700  0.9546  1.1699
  524MOL0     C70619   7.061   6.075  10.168 -0.3798  1.1216 -0.6912
  524MOL0     C70620   6.934   6.027  10.101  0.5786 -0.0847 -0.5021
  524MOL0     C70621   6.843   5.979  10.211 -0.0622 -0.2888  0.1363
  524MOL0     N70622   6.804   6.085  10.298 -0.0729  0.3754 -0.1501
  524MOL0     C70623   6.717   6.186  10.274 -0.0928 -0.3458 -0.2585
  524MOL0     C70624   6.699   6.244  10.396  0.9159  0.0994  0.2625
  524MOL0     C70625   6.610   6.365  10.404  0.1375  0.1049 -0.2177
  524MOL0     C70626   6.458   6.318  10.421  0.4224 -0.8211 -0.3018
  524MOL0     C70627   6.350   6.427  10.394 -0.2250  0.5293 -0.4039
  524MOL0     C70628   6.370   6.546  10.483  0.0389 -0.0897  0.1923
  524MOL0     O70629   6.360   6.506  10.618  0.2052  0.2899 -0.4827
  524MOL0     C70630   6.236   6.481  10.671  0.1836 -0.3354 -1.0126
  524MOL0     C70631   6.241   6.448  10.813  0.5725 -0.5848  0.5463
  524MOL0     C70632   6.126   6.423  10.885  0.4240  0.1108  0.7365
  524MOL0     C70633   6.137   6.405  11.035  0.1110 -0.2237  0.5660
  524MOL0     C70634   5.997   6.436  10.821 -0.4007 -0.5042  0.4225
  524MOL0     C70635   5.872   6.415  10.886  0.1664  0.3396 -0.7227
  524MOL0     O70636   5.768   6.488  10.845 -0.0400 -0.4893 -0.1001
  524MOL0     C70637   5.639   6.463  10.885  0.3624 -0.3616 -0.1884
  524MOL0     C70638   5.537   6.541  10.813  1.0299  0.0998  0.3606
  524MOL0     C70639   5.400   6.548  10.856  0.6229 -0.1757 -0.7603
  524MOL0     C70640   5.362   6.470  10.962 -0.5130 -0.4199  0.2510
  524MOL0     O70641   5.239   6.478  11.016  0.3836  0.6948  0.7950
  524MOL0     C70642   5.123   6.528  10.947 -0.4976  0.0494  0.4413
  524MOL0     C70643   5.015   6.511  11.039  0.7151  0.2758  1.2466
  524MOL0     C70644   4.879   6.571  10.991 -0.3294  0.2344 -0.1556
  524MOL0     C70645   4.760   6.541  11.084  0.1129 -0.1233  0.8174
  524MOL0     C70646   4.624   6.613  11.046  0.1938  0.5131 -0.1904
  524MOL0     C70647   4.514   6.559  11.137 -1.0195 -1.0244  0.7249
  524MOL0     C70648   4.375   6.604  11.094  0.2633 -0.2625 -0.4396
  524MOL0     C70649   4.280   6.566  11.210  0.5927  0.1248  0.4056
  524MOL0    Cl70650   4.255   6.390  11.241 -0.5088  0.5367 -0.1977
  524MOL0     C70651   5.456   6.392  11.033 -0.5484  0.0446 -0.6143
  524MOL0     C70652   5.593   6.389  10.998 -0.6824 -0.3158  0.1130
  524MOL0     O70653   5.870   6.335  10.976  0.6767 -0.0961 -0.3257
  524MOL0     C70654   5.998   6.477  10.684  0.7453 -0.6766 -0.7039
  524MOL0     C70655   6.115   6.502  10.611  0.9773  0.2621 -0.4804
  524MOL0     N70656   6.776   6.182  10.484  0.1889 -1.3879  0.0296
  524MOL0     N70657   6.837   6.090  10.430  0.1074  0.8122  0.0473
  524MOL0     C70658   7.938   5.920   9.966  0.0967  0.2801 -0.3594
  524MOL0     C70659   8.050   5.834   9.984  0.3325 -0.8945  0.3013
  524MOL0     C70660   8.348   5.539  10.138 -0.0952 -0.2051 -0.1597
  524MOL0     C70661   8.413   5.434  10.071 -0.4152  0.1340 -0.0211
  524MOL0     C70662   8.511   5.355  10.128 -0.8509 -0.1329 -0.6338
  524MOL0     C70663   8.560   5.378  10.257  1.3716  1.0904 -0.5926
  524MOL0     O70664   8.658   5.301  10.315  0.6672 -0.2995  0.0020
  524MOL0     C70665   8.740   5.209  10.236  0.3222 -0.0291  0.4215
  524MOL0     C70666   8.862   5.164  10.309 -0.1105  0.8082  0.0083
  524MOL0     C70667   8.944   5.292  10.346  0.0716  0.1429 -0.6796
  524MOL0     C70668   9.065   5.249  10.432 -0.6324 -0.1811 -0.2182
  524MOL0     C70669   9.023   5.176  10.551 -0.5979 -0.4208 -0.1551
  524MOL0     C70670   8.969   5.137  10.657 -0.9556 -0.2870  0.9273
  524MOL0     C70671   8.501   5.491  10.324 -0.2187  0.3436 -0.1878
  524MOL0     C70672   8.407   5.570  10.262  0.1085 -0.1722  0.8882
  524MOL0     H70673   8.093   5.873  10.323  0.9745 -1.0572 -0.8451
  524MOL0     H70674   7.929   6.040  10.286  2.7111 -0.2243  1.2732
  524MOL0     H70675   7.676   6.032   9.920 -3.8499 -0.5158 -0.4423
  524MOL0     H70676   7.664   5.915  10.043  0.3528  0.8394 -0.4397
  524MOL0     H70677   7.549   6.085  10.186  0.0511 -1.2252 -0.2735
  524MOL0     H70678   7.565   6.198  10.035  0.9616 -0.2185 -0.9604
  524MOL0     H70679   7.416   6.069   9.919 -0.7234 -0.8080  0.1467
  524MOL0     H70680   7.424   5.937  10.028 -0.8744  0.7746 -1.8416
  524MOL0     H70681   7.308   6.121  10.203  0.8571 -2.1880  0.6855
  524MOL0     H70682   7.290   6.210  10.054  0.7021 -1.7980 -2.6864
  524MOL0     H70683   7.132   6.062   9.966 -2.7120  1.9517  2.1955
  524MOL0     H70684   7.192   5.931  10.077 -1.1757  0.6799  1.0162
  524MOL0     H70685   7.081   6.012  10.255  0.4494 -0.2589 -1.8354
  524MOL0     H70686   7.056   6.183  10.188 -0.0368  1.0930 -0.4452
  524MOL0     H70687   6.879   6.102  10.045  1.8478  1.0386 -0.3053
  524MOL0     H70688   6.951   5.942  10.034  1.0986  1.0608 -1.8794
  524MOL0     H70689   6.881   5.897  10.272  1.0355  0.2033  0.1355
  524MOL0     H70690   6.744   5.949  10.175 -0.5061  0.1978  0.9421
  524MOL0     H70691   6.683   6.229  10.180  0.4904 -2.5309 -1.5363
  524MOL0     H70692   6.634   6.416  10.497  1.7696 -1.8363  0.4816
  524MOL0     H70693   6.624   6.432  10.318  2.6771 -1.5352 -1.1848
  524MOL0     H70694   6.458   6.277  10.522 -1.0797  1.9333  0.9109
  524MOL0     H70695   6.431   6.232  10.358 -0.0427  0.7297 -2.3306
  524MOL0     H70696   6.254   6.381  10.421  0.5893 -1.7306 -1.1237
  524MOL0     H70697   6.357   6.464  10.291  1.8199  1.2677 -0.0230
  524MOL0     H70698   6.295   6.622  10.460  1.0379  0.6746 -0.6451
  524MOL0     H70699   6.460   6.598  10.450  1.3726 -1.8311  0.9047
  524MOL0     H70700   6.336   6.455  10.864  0.0541 -0.2753  1.4811
  524MOL0     H70701   6.096   6.314  11.078 -0.2534 -0.5340 -0.4011
  524MOL0     H70702   6.243   6.408  11.061  0.7570 -0.2545 -1.8301
  524MOL0     H70703   6.103   6.489  11.096  2.0261  0.0480  1.3402
  524MOL0     H70704   5.571   6.589  10.721  3.8252 -4.1538 -1.1403
  524MOL0     H70705   5.326   6.607  10.804  0.9470  1.9090  1.0184
  524MOL0     H70706   5.132   6.631  10.911 -3.4891  1.5127  3.4019
  524MOL0     H70707   5.111   6.463  10.860  3.7904 -0.8152  0.2445
  524MOL0     H70708   5.011   6.403  11.053 -1.8401  0.3126  1.2443
  524MOL0     H70709   5.044   6.562  11.131  4.5762 -1.5047  1.2159
  524MOL0     H70710   4.860   6.525  10.893  0.0476 -2.7443  1.0430
  524MOL0     H70711   4.896   6.678  10.981 -0.5657  0.0688 -5.0009
  524MOL0     H70712   4.754   6.432  11.088  2.4148 -0.2608  2.7214
  524MOL0     H70713   4.782   6.575  11.185  1.0621 -0.0467  0.6009
  524MOL0     H70714   4.607   6.585  10.942  0.0864 -0.7694  0.1626
  524MOL0     H70715   4.634   6.722  11.037  0.9978  0.2350 -4.3881
  524MOL0     H70716   4.514   6.450  11.138  1.3583 -1.0905  2.6336
  524MOL0     H70717   4.528   6.593  11.240 -2.4362  2.0897  0.0180
  524MOL0     H70718   4.349   6.550  11.003  0.3805 -1.5573  0.2729
  524MOL0     H70719   4.364   6.713  11.084  1.9381  0.0758  0.8976
  524MOL0     H70720   4.185   6.612  11.182  0.7918  1.2938  1.5365
  524MOL0     H70721   4.305   6.615  11.305 -0.3268  3.5688 -0.9481
  524MOL0     H70722   5.431   6.337  11.123  0.2538 -0.6975 -0.8205
  524MOL0     H70723   5.663   6.342  11.066 -1.1745 -0.3028  0.6402
  524MOL0     H70724   5.904   6.486  10.631  1.0567 -1.4782 -1.4245
  524MOL0     H70725   6.114   6.531  10.507 -1.3911  0.1196 -0.5510
  524MOL0     H70726   7.897   5.948   9.869  0.9958  2.5908 -0.1127
  524MOL0     H70727   8.083   5.786   9.892 -0.6901 -0.4984 -0.2858
  524MOL0     H70728   8.369   5.390   9.981  1.4771  1.9478 -1.9504
  524MOL0     H70729   8.544   5.268  10.072  2.6344 -0.3609  1.4960
  524MOL0     H70730   8.673   5.130  10.201  1.2222  0.1875 -1.9719
  524MOL0     H70731   8.771   5.249  10.139  0.4060  0.0951  0.4983
  524MOL0     H70732   8.922   5.104  10.241  0.0361 -1.5498  2.0684
  524MOL0     H70733   8.838   5.111  10.402 -1.2757  0.9901 -0.1620
  524MOL0     H70734   8.886   5.372  10.393  0.9037  0.8853 -0.8849
  524MOL0     H70735   8.976   5.346  10.257 -0.8781  2.5136  0.3235
  524MOL0     H70736   9.130   5.331  10.465  1.0220 -1.4964 -0.1072
  524MOL0     H70737   9.127   5.189  10.366  2.1523  1.8300  0.3790
  524MOL0     H70738   8.921   5.098  10.744  0.4356  2.6330  3.1640
  524MOL0     H70739   8.542   5.514  10.422  1.5042 -1.0067 -0.5441
  524MOL0     H70740   8.367   5.652  10.320  1.6068  1.7161 -0.5732
  525MOL0     O70741   5.079   4.534   5.528  0.3692  0.0782  0.3811
  525MOL0     C70742   5.110   4.538   5.646 -0.2952  0.1991  0.7392
  525MOL0     O70743   5.027   4.515   5.750 -0.3428 -0.5894 -0.2340
  525MOL0     C70744   4.897   4.484   5.737  1.1898 -0.0712 -0.0618
  525MOL0     C70745   4.836   4.411   5.632  0.3691  0.6665  0.1603
  525MOL0     C70746   4.698   4.367   5.638 -0.1656 -0.4208 -0.3810
  525MOL0     C70747   4.612   4.419   5.738  0.5990 -0.0188 -0.8366
  525MOL0     O70748   4.480   4.391   5.725  0.1403  0.0189  0.0324
  525MOL0     C70749   4.428   4.335   5.843  0.4008  0.3599  0.5410
  525MOL0     C70750   4.285   4.373   5.851 -0.0250  0.2492  0.1808
  525MOL0     C70751   4.187   4.272   5.799 -0.0033  0.4419 -0.9433
  525MOL0     C70752   4.057   4.326   5.787  0.6963  0.3265  0.8239
  525MOL0     C70753   3.971   4.215   5.724  0.1102 -0.3619 -0.9821
  525MOL0     C70754   3.829   4.269   5.711  0.0792 -0.5017 -0.0973
  525MOL0     C70755   3.748   4.190   5.615  0.2736  0.3313 -0.3189
  525MOL0     C70756   3.677   4.064   5.670 -0.4214  0.0657 -0.1577
  525MOL0     N70757   3.583   4.004   5.578  1.2570  0.2927 -0.2527
  525MOL0     C70758   3.620   3.960   5.458 -0.0249  0.3696  0.3863
  525MOL0     C70759   3.505   3.914   5.402 -0.0834 -0.3550  0.3346
  525MOL0     C70760   3.490   3.838   5.270 -0.2733  0.2849 -0.5188
  525MOL0     C70761   3.512   3.926   5.148  0.3388  0.2201  0.1601
  525MOL0     C70762   3.398   4.000   5.085  0.9185  0.4547  0.3514
  525MOL0     C70763   3.290   4.046   5.186 -0.0997  0.4681 -0.0781
  525MOL0     O70764   3.192   4.116   5.104  0.8349 -0.2153 -0.6196
  525MOL0     C70765   3.082   4.166   5.168 -0.0425 -0.0669  0.6570
  525MOL0     C70766   2.978   4.223   5.087 -0.0151  0.0964  0.7293
  525MOL0     C70767   2.860   4.277   5.145 -0.0505  0.8345 -0.1560
  525MOL0     C70768   2.769   4.346   5.059 -0.1663 -0.1213 -0.0023
  525MOL0     C70769   2.845   4.255   5.283 -0.2474 -0.1100  0.6885
  525MOL0     C70770   2.719   4.295   5.361 -0.0668  0.4604 -0.1784
  525MOL0     O70771   2.730   4.291   5.494 -0.4659 -0.1659 -0.1885
  525MOL0     C70772   2.631   4.324   5.582 -0.8072 -0.4052  0.8555
  525MOL0     C70773   2.549   4.429   5.549 -0.4440 -0.3125 -0.0463
  525MOL0     C70774   2.449   4.464   5.631  0.3263 -0.2232  0.8151
  525MOL0     C70775   2.431   4.410   5.754 -0.7621  0.7496 -0.1212
  525MOL0     O70776   2.337   4.454   5.843 -0.2131 -0.3205  0.4108
  525MOL0     C70777   2.269   4.366   5.930 -0.5382  0.6690 -0.3200
  525MOL0     C70778   2.180   4.262   5.857 -0.3679 -0.1561 -0.1250
  525MOL0     C70779   2.040   4.313   5.829  0.5535 -0.2980 -0.0421
  525MOL0     C70780   1.944   4.292   5.944  0.4393 -0.6058 -0.2419
  525MOL0     C70781   1.791   4.334   5.906 -0.1149  0.6349  0.1769
  525MOL0     C70782   1.709   4.329   6.034 -0.1574 -0.4488  0.1841
  525MOL0     C70783   1.571   4.369   5.996  0.5822  0.7754  0.4377
  525MOL0     C70784   1.501   4.428   6.118 -0.0814 -0.5286  1.1125
  525MOL0    Cl70785   1.331   4.414   6.087  0.3627 -0.2137  0.2761
  525MOL0     C70786   2.522   4.305   5.793  0.4380  0.4353 -0.0668
  525MOL0     C70787   2.615   4.262   5.703  0.0006  0.1658 -0.6575
  525MOL0     O70788   2.618   4.311   5.298  0.3169 -0.0086 -0.1642
  525MOL0     C70789   2.939   4.200   5.364 -0.4494  0.0286  0.3074
  525MOL0     C70790   3.062   4.157   5.303  1.0115 -0.5327 -0.1472
  525MOL0     N70791   3.399   3.931   5.488 -0.0022  0.0718 -0.9161
  525MOL0     N70792   3.445   3.994   5.597  1.0130  0.2756  0.1003
  525MOL0     C70793   4.672   4.499   5.842  0.0323 -0.1388  0.0998
  525MOL0     C70794   4.809   4.530   5.840  0.1923 -0.4714 -0.3560
  525MOL0     C70795   5.243   4.585   5.669 -0.5083  0.3160 -0.1039
  525MOL0     C70796   5.315   4.647   5.569 -0.4881  0.0781  1.1599
  525MOL0     C70797   5.443   4.704   5.591 -0.0980  0.0614 -0.1275
  525MOL0     C70798   5.499   4.690   5.715  0.3415  0.5170  0.1304
  525MOL0     O70799   5.622   4.733   5.723  0.1695  0.3819  0.1935
  525MOL0     C70800   5.682   4.733   5.851 -0.7242 -0.6249 -0.8544
  525MOL0     C70801   5.829   4.775   5.827  0.1762 -0.5970  0.3632
  525MOL0     C70802   5.840   4.918   5.783  0.1920  0.4711 -0.0678
  525MOL0     C70803   5.970   4.952   5.716  0.1519 -0.0323 -0.5977
  525MOL0     C70804   5.946   5.084   5.638 -0.4719 -0.1826 -0.4298
  525MOL0     C70805   5.918   5.184   5.580  0.0422  1.3292  0.3801
  525MOL0     C70806   5.431   4.633   5.815  0.1131 -0.0143 -0.3537
  525MOL0     C70807   5.302   4.579   5.795  0.0976 -0.4963 -0.6177
  525MOL0     H70808   4.897   4.363   5.556  0.2726  0.4982  0.1864
  525MOL0     H70809   4.654   4.302   5.563  0.2956 -1.1632 -0.0279
  525MOL0     H70810   4.437   4.227   5.849 -2.0290 -0.3816 -4.5099
  525MOL0     H70811   4.469   4.386   5.931  0.6727  0.9357  0.0929
  525MOL0     H70812   4.264   4.370   5.958 -0.7662  2.1274  0.1359
  525MOL0     H70813   4.266   4.474   5.812 -0.5021 -0.1108 -0.5305
  525MOL0     H70814   4.224   4.239   5.702 -1.0515  0.4268 -1.3554
  525MOL0     H70815   4.182   4.183   5.863  3.2602  0.3155 -0.6997
  525MOL0     H70816   4.020   4.351   5.888  2.4751  0.2537  1.5227
  525MOL0     H70817   4.068   4.414   5.724 -0.4322 -0.0382  0.0823
  525MOL0     H70818   4.006   4.181   5.626 -3.0895 -0.4678 -2.2041
  525MOL0     H70819   3.963   4.129   5.792 -5.1371  1.5059  1.2796
  525MOL0     H70820   3.793   4.269   5.814  3.3273  1.6865  1.2054
  525MOL0     H70821   3.835   4.373   5.676 -0.0817 -0.3619  0.2846
  525MOL0     H70822   3.686   4.267   5.567 -2.3846  1.5161  4.4200
  525MOL0     H70823   3.817   4.147   5.542  1.1392  0.6998  0.2661
  525MOL0     H70824   3.638   4.093   5.768 -1.0836 -3.6293  0.8430
  525MOL0     H70825   3.763   4.000   5.691  2.6528  3.7143 -0.5321
  525MOL0     H70826   3.725   3.944   5.434  0.5046  2.5849  0.9954
  525MOL0     H70827   3.569   3.762   5.267 -0.4640 -0.2424  3.1016
  525MOL0     H70828   3.393   3.788   5.270 -0.8703  1.4196 -0.4301
  525MOL0     H70829   3.535   3.865   5.060 -1.0376  0.1153 -0.1563
  525MOL0     H70830   3.595   3.989   5.180 -0.0996 -0.1267  2.1180
  525MOL0     H70831   3.338   3.925   5.031 -0.0964  0.1952  1.7830
  525MOL0     H70832   3.425   4.079   5.013 -2.9593  0.9611 -0.8299
  525MOL0     H70833   3.334   4.116   5.258  1.6452 -1.2337  0.6050
  525MOL0     H70834   3.248   3.959   5.238  0.3520 -0.0499 -0.5594
  525MOL0     H70835   2.998   4.221   4.980 -0.9789  1.5196  0.4934
  525MOL0     H70836   2.770   4.450   5.093  3.7447  0.3273 -0.9551
  525MOL0     H70837   2.800   4.355   4.954 -0.2528  1.4180  0.0815
  525MOL0     H70838   2.669   4.303   5.058  0.4793 -1.7671 -2.1682
  525MOL0     H70839   2.559   4.494   5.462  1.3816  0.5641  0.7717
  525MOL0     H70840   2.389   4.544   5.588  1.7874 -0.2754 -1.5092
  525MOL0     H70841   2.340   4.307   5.988 -1.7121 -0.3847  0.0943
  525MOL0     H70842   2.210   4.431   5.995 -0.9710  0.5587 -0.5956
  525MOL0     H70843   2.217   4.245   5.756 -0.9417 -1.1437 -0.1798
  525MOL0     H70844   2.182   4.166   5.909  0.3811  0.4881  1.0764
  525MOL0     H70845   1.995   4.258   5.746 -1.2237 -1.8310  1.8064
  525MOL0     H70846   2.050   4.419   5.804  2.5989 -1.1657 -3.4779
  525MOL0     H70847   1.944   4.187   5.977 -2.4265 -0.4777  0.3942
  525MOL0     H70848   1.978   4.356   6.026 -1.1097  0.3685 -0.3241
  525MOL0     H70849   1.751   4.266   5.830 -0.4726  1.2173 -0.1592
  525MOL0     H70850   1.779   4.433   5.862 -0.1389 -0.5281 -2.6375
  525MOL0     H70851   1.711   4.228   6.076  1.0883 -1.7709 -2.7530
  525MOL0     H70852   1.754   4.394   6.109  1.2506 -1.1158 -0.0652
  525MOL0     H70853   1.514   4.280   5.966  0.4997  0.9370  0.1136
  525MOL0     H70854   1.567   4.440   5.913  0.5484  0.9905  0.6238
  525MOL0     H70855   1.531   4.532   6.134 -1.0971  0.4113 -2.2174
  525MOL0     H70856   1.531   4.374   6.208  2.1173 -1.0977  0.0943
  525MOL0     H70857   2.524   4.256   5.890  1.0211  1.9206  0.7037
  525MOL0     H70858   2.694   4.191   5.723 -1.4134 -1.4508 -0.6454
  525MOL0     H70859   2.950   4.183   5.471  4.2819 -2.3049 -0.2995
  525MOL0     H70860   3.125   4.103   5.373  0.4890  1.9383  2.3671
  525MOL0     H70861   4.606   4.535   5.920 -3.0558 -1.2433 -1.8425
  525MOL0     H70862   4.857   4.591   5.916  3.5615  0.2550 -2.7880
  525MOL0     H70863   5.263   4.657   5.475  0.2369  0.9615  0.8286
  525MOL0     H70864   5.488   4.756   5.507  1.4485 -0.7040  0.1965
  525MOL0     H70865   5.631   4.806   5.915 -0.9215 -0.9863 -0.5907
  525MOL0     H70866   5.681   4.638   5.905  0.0170  0.4508  1.1720
  525MOL0     H70867   5.867   4.709   5.748 -3.0682 -2.8743  0.5021
  525MOL0     H70868   5.891   4.772   5.917  1.7180 -1.3199 -0.6862
  525MOL0     H70869   5.829   4.984   5.869 -0.2442 -0.3690  0.5287
  525MOL0     H70870   5.754   4.930   5.716  0.5921  0.0755 -0.6643
  525MOL0     H70871   6.013   4.873   5.653 -0.7709 -1.6385  0.7206
  525MOL0     H70872   6.046   4.974   5.792 -2.9445  3.2394  1.9085
  525MOL0     H70873   5.900   5.257   5.504  2.2750 -1.5223 -3.2545
  525MOL0     H70874   5.475   4.619   5.914  1.8065  3.1604 -0.5484
  525MOL0     H70875   5.253   4.535   5.881 -0.9983 -0.3145 -1.1353
  526MOL0     O70876  10.358   6.259   3.633  0.1616  0.0448  0.0680
  526MOL0     C70877  10.407   6.176   3.560  0.2230 -0.0513  0.0689
  526MOL0     O70878  10.335   6.117   3.461  0.0837 -0.5097  1.2388
  526MOL0     C70879  10.211   6.170   3.434 -0.7212  0.5180 -0.6758
  526MOL0     C70880  10.109   6.163   3.529  0.1476 -0.9560  1.0079
  526MOL0     C70881   9.981   6.231   3.505  0.7458 -0.1564 -0.5120
  526MOL0     C70882   9.961   6.293   3.381  0.0880  0.8472  0.5871
  526MOL0     O70883   9.846   6.361   3.339 -0.2198 -0.5676  0.4275
  526MOL0     C70884   9.749   6.383   3.448  0.3276  0.0615 -0.5284
  526MOL0     C70885   9.656   6.256   3.457  0.5229  0.4463 -0.6623
  526MOL0     C70886   9.530   6.306   3.535 -0.1805  0.4186  0.0254
  526MOL0     C70887   9.418   6.215   3.519 -0.0696 -0.2057  0.0373
  526MOL0     C70888   9.285   6.266   3.576  0.0356 -0.1926 -1.0541
  526MOL0     C70889   9.171   6.245   3.469 -1.0107 -0.1295  0.3221
  526MOL0     C70890   9.150   6.097   3.443 -0.1932 -0.3953 -0.4897
  526MOL0     C70891   9.063   6.066   3.322  0.1507 -0.6755 -0.2219
  526MOL0     N70892   8.925   6.049   3.365  0.5311  0.4235 -0.3646
  526MOL0     C70893   8.847   6.150   3.409 -0.0321 -0.5147 -0.3242
  526MOL0     C70894   8.719   6.091   3.413 -0.7136 -0.0705 -0.0206
  526MOL0     C70895   8.595   6.154   3.471 -1.1736 -0.4972  0.2222
  526MOL0     C70896   8.504   6.221   3.369 -0.1803 -0.4224 -0.8155
  526MOL0     C70897   8.473   6.368   3.413  0.3341 -0.6949 -0.3003
  526MOL0     C70898   8.587   6.470   3.406 -0.6295 -0.4911  0.0308
  526MOL0     O70899   8.667   6.468   3.283  1.0546  0.4196  0.5028
  526MOL0     C70900   8.797   6.493   3.295 -0.6090 -0.0184 -0.2464
  526MOL0     C70901   8.877   6.421   3.204  0.0274 -0.2269 -0.1321
  526MOL0     C70902   9.010   6.461   3.190  0.0061 -0.5846 -1.1684
  526MOL0     C70903   9.094   6.359   3.107  0.6344  0.5611 -0.5874
  526MOL0     C70904   9.057   6.575   3.259 -0.4381 -0.2763  0.4901
  526MOL0     C70905   9.209   6.612   3.245 -0.5081 -0.6520  0.2011
  526MOL0     O70906   9.267   6.567   3.130  0.3882  0.2902  0.2697
  526MOL0     C70907   9.389   6.619   3.100 -0.0860 -0.2269 -0.2788
  526MOL0     C70908   9.403   6.742   3.036  0.0082 -0.5272  0.9217
  526MOL0     C70909   9.527   6.790   2.998  0.0130 -0.2606  0.6439
  526MOL0     C70910   9.645   6.712   3.021 -0.9463 -0.0811  0.5382
  526MOL0     O70911   9.756   6.765   2.960  0.1687  0.0885 -0.6310
  526MOL0     C70912   9.881   6.743   3.023  0.5169 -0.0644  0.1037
  526MOL0     C70913   9.995   6.828   2.965  0.2072 -0.0320 -0.0422
  526MOL0     C70914  10.119   6.810   3.051  0.8485  0.5177  0.2791
  526MOL0     C70915  10.233   6.876   3.001  0.7353  0.2972 -0.1496
  526MOL0     C70916  10.246   7.021   3.008 -0.5172 -0.3879 -0.4626
  526MOL0     C70917  10.272   7.069   3.154  0.4754  0.2418  0.2820
  526MOL0     C70918  10.286   7.222   3.149 -0.9299 -0.0663  0.4792
  526MOL0     C70919  10.333   7.265   3.285  0.0257 -0.0080  0.2319
  526MOL0    Cl70920  10.366   7.436   3.273  0.1857  0.1290 -0.3784
  526MOL0     C70921   9.631   6.594   3.091 -0.2810  0.4926  0.1704
  526MOL0     C70922   9.504   6.548   3.121  0.8752  0.0516  0.0026
  526MOL0     O70923   9.255   6.693   3.319 -0.8539  0.3275  0.3480
  526MOL0     C70924   8.982   6.637   3.360 -0.2415 -0.7099 -0.1620
  526MOL0     C70925   8.850   6.597   3.367 -1.3121  0.8392 -0.8379
  526MOL0     N70926   8.739   5.958   3.367  0.0558 -0.1982  0.1947
  526MOL0     N70927   8.859   5.931   3.342 -0.1533  0.2986  0.3971
  526MOL0     C70928  10.071   6.298   3.292  0.0062 -0.2011  0.1764
  526MOL0     C70929  10.192   6.237   3.319 -0.0599 -0.1343  0.4752
  526MOL0     C70930  10.546   6.157   3.571  0.2061  0.0916 -0.4154
  526MOL0     C70931  10.628   6.236   3.656  0.3694  0.7399 -0.0791
  526MOL0     C70932  10.769   6.213   3.660  0.1999  0.0499  0.8925
  526MOL0     C70933  10.829   6.125   3.581  0.3012  0.1050  0.6263
  526MOL0     O70934  10.963   6.103   3.593  0.2955 -0.1888  0.5219
  526MOL0     C70935  10.990   6.010   3.696 -0.4138 -0.1516  0.3440
  526MOL0     C70936  11.144   6.019   3.726  0.3954 -1.0144  0.2722
  526MOL0     C70937  11.185   6.153   3.787  0.2041  0.5084  0.3476
  526MOL0     C70938  11.340   6.152   3.827 -0.2406  0.5030  0.2299
  526MOL0     C70939  11.427   6.142   3.706  0.2180  0.0944 -0.7284
  526MOL0     C70940  11.489   6.148   3.600  0.5787  0.3976  0.6339
  526MOL0     C70941  10.745   6.041   3.492  0.2995 -0.4736 -0.2138
  526MOL0     C70942  10.605   6.059   3.496  0.0374  1.1629 -1.7488
  526MOL0     H70943  10.120   6.094   3.612 -0.0613 -1.4168  0.6585
  526MOL0     H70944   9.915   6.230   3.591  0.1556 -0.2158 -0.9632
  526MOL0     H70945   9.798   6.402   3.544  0.9523  0.3916 -0.8978
  526MOL0     H70946   9.688   6.471   3.423 -0.8970  0.5136  3.3586
  526MOL0     H70947   9.643   6.221   3.355  2.8379  2.2030 -1.6597
  526MOL0     H70948   9.698   6.177   3.520 -3.2056  0.7629  2.6703
  526MOL0     H70949   9.552   6.323   3.640 -2.3001 -1.3350  0.8143
  526MOL0     H70950   9.503   6.407   3.500  2.6448  1.6439  1.0568
  526MOL0     H70951   9.410   6.186   3.413  0.1601 -0.0776 -0.0157
  526MOL0     H70952   9.447   6.123   3.570 -0.0671 -0.3946 -0.2985
  526MOL0     H70953   9.267   6.207   3.666 -0.8092 -0.3707 -1.3269
  526MOL0     H70954   9.283   6.370   3.609 -0.0162 -1.2347  2.7304
  526MOL0     H70955   9.072   6.277   3.503 -1.2249  0.0910 -0.4876
  526MOL0     H70956   9.199   6.305   3.382  3.0867  0.9177  2.1400
  526MOL0     H70957   9.243   6.041   3.435 -0.5237 -0.9898 -0.2187
  526MOL0     H70958   9.096   6.065   3.533 -0.5298  0.4935 -0.3642
  526MOL0     H70959   9.097   5.966   3.290 -1.4993 -0.4469 -2.9569
  526MOL0     H70960   9.083   6.142   3.247  3.3249 -0.5188  0.6205
  526MOL0     H70961   8.873   6.251   3.440 -2.4013 -0.1996  0.8422
  526MOL0     H70962   8.540   6.077   3.525  0.5582  0.3481  3.4187
  526MOL0     H70963   8.634   6.227   3.542 -2.1023 -1.0110  1.2788
  526MOL0     H70964   8.415   6.157   3.368  0.3364 -1.8649  5.3865
  526MOL0     H70965   8.549   6.237   3.271  0.4040  0.7874 -0.3685
  526MOL0     H70966   8.424   6.369   3.511  1.2068  0.3931  0.1353
  526MOL0     H70967   8.409   6.413   3.336  3.3564 -0.7565 -3.0524
  526MOL0     H70968   8.649   6.462   3.495 -0.7731 -2.1629  0.0116
  526MOL0     H70969   8.553   6.574   3.417  1.0034  0.0617  0.0136
  526MOL0     H70970   8.832   6.344   3.143  0.0382 -2.0227  1.9901
  526MOL0     H70971   9.182   6.334   3.167 -0.8856 -1.6990  0.8979
  526MOL0     H70972   9.035   6.267   3.094 -1.7507  1.8377  0.3710
  526MOL0     H70973   9.130   6.401   3.013 -1.3499  2.9605 -0.4072
  526MOL0     H70974   9.318   6.806   3.013 -1.0005 -1.2373  2.4795
  526MOL0     H70975   9.543   6.879   2.938  2.5800 -1.1027 -0.0676
  526MOL0     H70976   9.867   6.767   3.129 -1.6436 -1.7656  0.2770
  526MOL0     H70977   9.896   6.634   3.023  1.2424  0.0261  0.7464
  526MOL0     H70978  10.017   6.799   2.862 -0.7108 -1.2287  0.0749
  526MOL0     H70979   9.963   6.932   2.958 -0.1660 -0.2031 -1.0529
  526MOL0     H70980  10.141   6.703   3.057  0.6300  0.2305 -2.5579
  526MOL0     H70981  10.093   6.852   3.149 -2.9299 -1.4482  0.2961
  526MOL0     H70982  10.319   6.844   3.060 -0.6156 -0.3953  1.4946
  526MOL0     H70983  10.231   6.848   2.895  0.6787 -0.0824 -0.0464
  526MOL0     H70984  10.162   7.068   2.956 -2.3458 -1.9038  1.0211
  526MOL0     H70985  10.338   7.047   2.953 -0.5281  1.7724  0.4214
  526MOL0     H70986  10.190   7.046   3.222 -0.1148  3.3181  0.7459
  526MOL0     H70987  10.363   7.021   3.192  0.5936 -1.2038 -1.6506
  526MOL0     H70988  10.189   7.267   3.126 -1.1197 -0.7348 -0.0618
  526MOL0     H70989  10.353   7.263   3.073 -1.2295  3.9445  2.1098
  526MOL0     H70990  10.433   7.225   3.303 -0.2705 -0.8640  0.0195
  526MOL0     H70991  10.261   7.246   3.365 -0.3396  2.2457  0.5263
  526MOL0     H70992   9.712   6.528   3.121 -0.8583 -0.5235 -0.4249
  526MOL0     H70993   9.504   6.451   3.170  5.6265 -0.6079 -0.8394
  526MOL0     H70994   9.027   6.716   3.420  3.0161 -3.0412  0.7593
  526MOL0     H70995   8.787   6.654   3.435  0.3776  1.5263  0.2279
  526MOL0     H70996  10.052   6.354   3.201 -1.6344 -0.6424  0.2063
  526MOL0     H70997  10.278   6.229   3.253  0.2884 -1.4094  1.0568
  526MOL0     H70998  10.588   6.324   3.705 -0.5368 -0.2629  1.0458
  526MOL0     H70999  10.827   6.284   3.718  0.4586  0.1328  0.5392
  526MOL0     H71000  10.930   6.023   3.787  0.1104 -2.6057  1.1253
  526MOL0     H71001  10.966   5.907   3.670 -0.6643  0.5185 -2.4091
  526MOL0     H71002  11.191   6.000   3.629  2.1251  1.1906  0.5893
  526MOL0     H71003  11.165   5.930   3.786  2.0201 -0.3283  0.7692
  526MOL0     H71004  11.125   6.163   3.877 -0.8942  0.7368 -0.3963
  526MOL0     H71005  11.167   6.235   3.716  1.2039  0.1604 -0.3403
  526MOL0     H71006  11.367   6.080   3.905  5.2779  1.0420 -0.7672
  526MOL0     H71007  11.367   6.250   3.867  1.7260 -0.1132  0.5129
  526MOL0     H71008  11.551   6.156   3.513  0.8449 -2.4319  0.4448
  526MOL0     H71009  10.792   5.962   3.435  1.4744  0.7873 -1.0649
  526MOL0     H71010  10.556   5.982   3.437  3.0215 -2.6188  0.2304
  527MOL0     O71011   3.931   9.214   7.355 -0.1121 -0.2970  0.5125
  527MOL0     C71012   3.901   9.332   7.378  0.1035 -0.7523  0.0877
  527MOL0     O71013   3.801   9.372   7.458  0.1407 -0.6497  0.6085
  527MOL0     C71014   3.729   9.273   7.514  0.5966 -0.3281  0.9109
  527MOL0     C71015   3.603   9.247   7.460 -0.3897  0.2665 -1.5368
  527MOL0     C71016   3.524   9.154   7.512  0.2285  0.2879 -0.0345
  527MOL0     C71017   3.569   9.084   7.626 -0.0389  0.7915  0.4934
  527MOL0     O71018   3.489   8.995   7.698  0.0898 -0.8484 -0.2712
  527MOL0     C71019   3.416   8.901   7.620  0.6870  0.1336 -0.3556
  527MOL0     C71020   3.496   8.783   7.563 -0.2045 -0.1209  0.6231
  527MOL0     C71021   3.627   8.732   7.629  0.2308 -0.6925 -0.1181
  527MOL0     C71022   3.696   8.630   7.553  0.0953 -0.3833 -0.6537
  527MOL0     C71023   3.839   8.617   7.611 -0.3023  0.6901  0.0957
  527MOL0     C71024   3.847   8.613   7.765 -0.0840  0.1754  0.3541
  527MOL0     C71025   3.992   8.597   7.803 -0.2601 -0.1664  0.8121
  527MOL0     C71026   4.054   8.462   7.765 -0.1111 -0.0869 -0.9252
  527MOL0     N71027   3.993   8.352   7.845 -0.1787 -0.4122 -0.5472
  527MOL0     C71028   4.058   8.304   7.957  0.0612  0.2224  0.5611
  527MOL0     C71029   4.010   8.175   7.965  0.4427 -0.2960  0.9384
  527MOL0     C71030   4.058   8.070   8.065 -0.6977  0.5488 -0.4354
  527MOL0     C71031   4.024   8.098   8.210  0.2642 -0.2314  0.2847
  527MOL0     C71032   4.112   8.002   8.300 -0.5365  0.4434  0.5434
  527MOL0     C71033   4.072   8.014   8.451 -0.1542 -0.3983 -0.6981
  527MOL0     O71034   4.084   8.151   8.497  0.4066 -0.3787 -0.0268
  527MOL0     C71035   4.183   8.185   8.581 -0.3693 -0.2674  0.3313
  527MOL0     C71036   4.168   8.300   8.655 -0.1238  0.2516  0.1547
  527MOL0     C71037   4.268   8.332   8.757  0.2093 -0.6047 -0.5035
  527MOL0     C71038   4.235   8.433   8.864  0.4388  0.3201 -0.2606
  527MOL0     C71039   4.392   8.277   8.748 -0.6895  0.8005  0.2039
  527MOL0     C71040   4.511   8.322   8.824 -0.0024  0.0114 -0.6029
  527MOL0     O71041   4.631   8.295   8.764 -0.0111  0.2079  0.3126
  527MOL0     C71042   4.741   8.349   8.821  0.5503  0.0671 -1.1969
  527MOL0     C71043   4.751   8.487   8.855 -0.7746 -0.3487  0.7713
  527MOL0     C71044   4.866   8.546   8.897  0.0611 -1.1692 -0.1424
  527MOL0     C71045   4.977   8.467   8.926 -1.0087 -0.2872 -0.4466
  527MOL0     O71046   5.099   8.524   8.945  0.0254 -0.1036 -0.1099
  527MOL0     C71047   5.214   8.442   8.996 -0.3322  0.1849  0.6285
  527MOL0     C71048   5.328   8.520   9.049 -0.1684 -0.3922  0.3774
  527MOL0     C71049   5.404   8.451   9.166  0.4039  0.6262  0.0395
  527MOL0     C71050   5.490   8.556   9.231 -0.6849  0.1089  0.3290
  527MOL0     C71051   5.566   8.488   9.347 -0.6479 -0.5240 -0.2823
  527MOL0     C71052   5.684   8.585   9.366 -0.3319 -0.4052  0.1691
  527MOL0     C71053   5.656   8.731   9.416  0.2892  0.3172  0.1773
  527MOL0     C71054   5.790   8.801   9.425  0.3810  0.5441  1.2070
  527MOL0    Cl71055   5.767   8.983   9.431  0.1297 -0.0476  0.4983
  527MOL0     C71056   4.968   8.335   8.892 -0.1688  0.7390  0.8300
  527MOL0     C71057   4.859   8.275   8.823 -0.1874 -0.4625 -0.5137
  527MOL0     O71058   4.496   8.352   8.942  0.0035  0.0438 -0.3669
  527MOL0     C71059   4.412   8.175   8.658  0.1768 -0.0900  1.4877
  527MOL0     C71060   4.308   8.124   8.581  0.0397 -0.5020 -0.3753
  527MOL0     N71061   3.901   8.168   7.878  0.3608  0.7337 -1.0267
  527MOL0     N71062   3.890   8.273   7.805 -0.1707  0.2040  0.7227
  527MOL0     C71063   3.696   9.110   7.683  0.3104  0.3543 -0.0320
  527MOL0     C71064   3.776   9.198   7.624  0.4981 -0.1402  0.1874
  527MOL0     C71065   3.980   9.432   7.297  0.0829 -0.5583  1.1999
  527MOL0     C71066   3.965   9.569   7.304 -0.6972  0.1999  0.5576
  527MOL0     C71067   4.042   9.658   7.236 -0.3147 -0.2478  0.4015
  527MOL0     C71068   4.145   9.612   7.151 -0.4944 -0.0475 -0.1420
  527MOL0     O71069   4.228   9.703   7.086 -0.0451  0.5315 -0.4301
  527MOL0     C71070   4.227   9.845   7.118 -0.2953 -0.3167  0.9440
  527MOL0     C71071   4.288   9.879   7.249  0.2806 -0.3657  0.0720
  527MOL0     C71072   4.431   9.837   7.256  0.0176  0.2538  0.7558
  527MOL0     C71073   4.528   9.948   7.215  0.0985 -0.6464  0.8612
  527MOL0     C71074   4.671   9.922   7.229  0.4015 -0.0702 -0.3185
  527MOL0     C71075   4.785   9.906   7.264  0.5062  0.3142  0.9436
  527MOL0     C71076   4.179   9.480   7.144  0.6832  0.8131 -0.5583
  527MOL0     C71077   4.093   9.390   7.220  0.6312 -0.7405  0.2576
  527MOL0     H71078   3.559   9.311   7.385 -1.8220  0.1627 -0.8128
  527MOL0     H71079   3.424   9.158   7.470  1.0057 -0.3984 -2.0568
  527MOL0     H71080   3.346   8.862   7.694  2.7954  0.7156  2.0545
  527MOL0     H71081   3.357   8.946   7.539 -1.4581  1.1481  1.6760
  527MOL0     H71082   3.434   8.700   7.528 -1.9160  1.0625  0.7179
  527MOL0     H71083   3.537   8.831   7.473 -0.0148 -2.4958 -0.6528
  527MOL0     H71084   3.693   8.817   7.646 -1.3866  0.9253 -1.4709
  527MOL0     H71085   3.603   8.699   7.730  0.1864  1.7156  0.7203
  527MOL0     H71086   3.640   8.537   7.563  0.0693 -0.3166 -0.1841
  527MOL0     H71087   3.693   8.654   7.446 -1.7278 -0.2694 -0.6141
  527MOL0     H71088   3.877   8.525   7.565 -2.4944 -0.3131  0.1352
  527MOL0     H71089   3.896   8.701   7.570 -1.4494  0.8451 -1.2669
  527MOL0     H71090   3.814   8.712   7.800  2.6469  1.5584 -0.6733
  527MOL0     H71091   3.788   8.536   7.816 -0.3580  0.4280  0.4259
  527MOL0     H71092   4.046   8.677   7.753  0.3220 -1.8138 -1.3184
  527MOL0     H71093   4.011   8.604   7.911  0.3849  0.7320  0.6439
  527MOL0     H71094   4.163   8.469   7.769  0.1874 -0.9582 -4.2021
  527MOL0     H71095   4.038   8.448   7.657 -1.8888 -0.9948 -0.5870
  527MOL0     H71096   4.139   8.345   8.017 -0.2197  1.8979 -0.1621
  527MOL0     H71097   4.003   7.977   8.046 -2.0190  0.6072  2.5303
  527MOL0     H71098   4.166   8.070   8.052 -0.8962  2.1756 -2.5343
  527MOL0     H71099   3.918   8.087   8.236  0.0784  2.1170  0.7497
  527MOL0     H71100   4.048   8.201   8.238  1.5694 -0.3326 -0.3959
  527MOL0     H71101   4.217   8.033   8.297  0.2161 -1.5331  2.9953
  527MOL0     H71102   4.099   7.901   8.258  0.1910  0.8348 -0.6940
  527MOL0     H71103   4.130   7.949   8.517 -0.3349  0.4272  0.2935
  527MOL0     H71104   3.965   7.992   8.458 -0.3054  0.5580  0.0926
  527MOL0     H71105   4.074   8.352   8.662  0.7197  1.6540  2.3852
  527MOL0     H71106   4.316   8.505   8.846  2.7948 -1.3298  2.7630
  527MOL0     H71107   4.141   8.489   8.862  0.1098 -0.0447  2.1959
  527MOL0     H71108   4.251   8.400   8.967  3.0360  0.3375 -0.5736
  527MOL0     H71109   4.667   8.552   8.834 -1.0351 -0.8249  0.2964
  527MOL0     H71110   4.870   8.652   8.922  2.5501 -1.6455  2.0135
  527MOL0     H71111   5.181   8.381   9.082 -1.1653  1.1334  1.0055
  527MOL0     H71112   5.256   8.371   8.924  0.6149  1.9443 -0.6133
  527MOL0     H71113   5.399   8.543   8.970 -1.5261 -0.4564 -0.8999
  527MOL0     H71114   5.283   8.614   9.082  1.7426  1.3413 -1.6786
  527MOL0     H71115   5.468   8.375   9.120  0.4496  0.8035 -0.1883
  527MOL0     H71116   5.341   8.396   9.236  0.1365 -0.5950 -1.1201
  527MOL0     H71117   5.556   8.590   9.151 -0.2117 -1.8532 -0.1758
  527MOL0     H71118   5.413   8.630   9.256 -2.9153 -3.1900  4.6545
  527MOL0     H71119   5.604   8.389   9.321  0.7089 -0.8560  2.6460
  527MOL0     H71120   5.494   8.484   9.429 -0.1827 -1.0601  0.1019
  527MOL0     H71121   5.744   8.532   9.441  3.6601 -1.5729 -3.4525
  527MOL0     H71122   5.729   8.583   9.266 -2.0281 -1.8108 -0.6164
  527MOL0     H71123   5.607   8.728   9.514 -2.6436 -0.1724 -1.1951
  527MOL0     H71124   5.588   8.785   9.350 -0.9975 -0.3826  0.8688
  527MOL0     H71125   5.827   8.780   9.325 -0.8688  1.0859  0.6118
  527MOL0     H71126   5.858   8.761   9.502 -0.1680 -0.8599  1.0036
  527MOL0     H71127   5.053   8.267   8.905 -2.0939 -2.5599 -2.0399
  527MOL0     H71128   4.854   8.171   8.791 -1.4823 -0.0816 -1.6734
  527MOL0     H71129   4.510   8.129   8.655  1.0620  1.4182  4.0313
  527MOL0     H71130   4.329   8.033   8.527  2.2523 -0.3027  0.0506
  527MOL0     H71131   3.722   9.056   7.774  1.9480 -1.6047 -1.5814
  527MOL0     H71132   3.867   9.220   7.678  0.0732 -0.5465  1.1005
  527MOL0     H71133   3.898   9.602   7.382  2.7144  2.8698  2.6820
  527MOL0     H71134   4.001   9.757   7.252  0.8435  0.1542  0.9989
  527MOL0     H71135   4.298   9.897   7.054 -0.7840  2.8970  2.8059
  527MOL0     H71136   4.127   9.890   7.107  0.7027  2.4597  2.2947
  527MOL0     H71137   4.241   9.824   7.331 -1.8637  2.9996  1.3300
  527MOL0     H71138   4.282   9.985   7.277 -3.5546 -0.9944  2.3000
  527MOL0     H71139   4.456   9.752   7.191 -0.9693  1.4437 -1.2779
  527MOL0     H71140   4.467   9.810   7.356  1.5837  3.1671  1.1002
  527MOL0     H71141   4.504  10.047   7.256 -0.8559 -0.8624  0.8583
  527MOL0     H71142   4.521   9.968   7.107 -0.1127  1.0551  1.1533
  527MOL0     H71143   4.883   9.895   7.305  2.3166 -0.1116 -3.0445
  527MOL0     H71144   4.268   9.447   7.091  0.5669 -0.1988 -0.1457
  527MOL0     H71145   4.129   9.289   7.238  0.5595 -0.8671 -0.3002
  528MOL0     O71146   7.318   7.087   6.111  0.3840 -0.0051 -0.1172
  528MOL0     C71147   7.410   7.160   6.114 -0.1504  1.1120 -0.6115
  528MOL0     O71148   7.431   7.267   6.039  0.2597 -0.7968  0.0390
  528MOL0     C71149   7.365   7.269   5.916 -0.3994  0.1476 -0.2768
  528MOL0     C71150   7.273   7.369   5.893  0.4728 -0.1574 -0.9439
  528MOL0     C71151   7.214   7.383   5.762  0.8324  0.3938 -0.2599
  528MOL0     C71152   7.247   7.294   5.658 -0.5390  1.0023 -0.1454
  528MOL0     O71153   7.171   7.300   5.544 -0.4514 -0.1619 -0.3624
  528MOL0     C71154   7.200   7.237   5.417 -0.4335  0.2810  0.2729
  528MOL0     C71155   7.143   7.093   5.419 -0.5863  0.0106 -0.0284
  528MOL0     C71156   7.158   7.035   5.277  0.5738  0.3067 -0.2613
  528MOL0     C71157   7.051   7.086   5.179 -0.0701  0.2389 -0.5459
  528MOL0     C71158   7.060   7.010   5.053 -0.2174  0.7919  0.2936
  528MOL0     C71159   6.984   6.867   5.060  0.3266  0.4354 -0.3514
  528MOL0     C71160   6.967   6.806   4.921 -0.4521  0.1607  0.4175
  528MOL0     C71161   6.850   6.708   4.923  0.8700 -0.6022 -0.1446
  528MOL0     N71162   6.722   6.790   4.906 -1.1067  0.5089 -0.5135
  528MOL0     C71163   6.638   6.809   4.799 -0.5459 -1.0584  0.0669
  528MOL0     C71164   6.534   6.879   4.852  0.7645  0.0659  0.0038
  528MOL0     C71165   6.413   6.910   4.765 -0.3595 -1.0565  1.0736
  528MOL0     C71166   6.308   6.792   4.777  0.2278 -0.2761  0.1808
  528MOL0     C71167   6.162   6.839   4.748 -0.0840 -0.3296  0.7489
  528MOL0     C71168   6.064   6.728   4.747  0.1077 -0.7967 -0.3696
  528MOL0     O71169   5.929   6.775   4.708 -0.5727 -0.0609  0.4289
  528MOL0     C71170   5.835   6.672   4.710  0.1942  0.1988 -0.4021
  528MOL0     C71171   5.865   6.564   4.632  0.0733  0.3076  1.0227
  528MOL0     C71172   5.780   6.456   4.625 -0.3882 -0.1751 -0.2363
  528MOL0     C71173   5.824   6.351   4.523 -1.2409  0.0059  0.1590
  528MOL0     C71174   5.656   6.456   4.689 -0.4565 -0.3078  0.4443
  528MOL0     C71175   5.547   6.351   4.684 -0.5398 -0.0162  0.0270
  528MOL0     O71176   5.431   6.394   4.727  0.8435  0.0465  0.2107
  528MOL0     C71177   5.319   6.314   4.735  0.1507 -0.7529  0.8346
  528MOL0     C71178   5.311   6.198   4.809  0.6277 -0.0732 -0.1870
  528MOL0     C71179   5.192   6.131   4.822  0.3076 -0.1372 -0.3078
  528MOL0     C71180   5.091   6.159   4.738  0.6722  0.0280 -0.7205
  528MOL0     O71181   4.988   6.068   4.750 -0.5562 -0.1061  0.2208
  528MOL0     C71182   4.859   6.111   4.713  0.5754 -0.0769 -0.2143
  528MOL0     C71183   4.752   6.024   4.783 -0.5788 -0.1137 -0.2410
  528MOL0     C71184   4.612   6.089   4.755 -0.3222 -0.7325  0.6238
  528MOL0     C71185   4.490   6.008   4.759 -0.6193 -0.5941 -0.0593
  528MOL0     C71186   4.365   6.078   4.735 -0.0782 -0.8055  1.1713
  528MOL0     C71187   4.250   5.989   4.756 -0.7439 -0.0668 -0.0313
  528MOL0     C71188   4.111   6.053   4.752 -0.1432 -0.3669  0.2685
  528MOL0     C71189   4.106   6.107   4.607  0.4151 -0.4651 -0.2651
  528MOL0    Cl71190   3.940   6.159   4.570 -0.2731  0.2747 -0.0806
  528MOL0     C71191   5.100   6.256   4.645 -0.0519  1.0523  0.9791
  528MOL0     C71192   5.212   6.337   4.644  0.1911  0.0336 -0.2888
  528MOL0     O71193   5.574   6.247   4.627 -0.0160 -0.4273 -0.3708
  528MOL0     C71194   5.628   6.572   4.771  0.1092  0.6443  0.2934
  528MOL0     C71195   5.716   6.673   4.784 -0.4550  0.3050 -0.3084
  528MOL0     N71196   6.560   6.890   4.988 -0.5525 -0.4548 -0.0319
  528MOL0     N71197   6.674   6.843   5.020  0.2526  0.5263 -0.0541
  528MOL0     C71198   7.347   7.199   5.681  0.1885 -0.0838  0.9471
  528MOL0     C71199   7.396   7.178   5.812 -0.5796  0.3384 -0.8997
  528MOL0     C71200   7.519   7.134   6.225  0.5138  0.3795 -0.1311
  528MOL0     C71201   7.522   7.013   6.290  0.0394 -0.4083 -0.1800
  528MOL0     C71202   7.626   6.990   6.383 -0.1379 -0.2882 -0.1747
  528MOL0     C71203   7.721   7.084   6.421  0.5913 -0.6728  0.6387
  528MOL0     O71204   7.825   7.033   6.506  0.3724 -0.5364  0.0735
  528MOL0     C71205   7.922   7.130   6.552 -0.4922 -0.0561 -0.0971
  528MOL0     C71206   8.029   7.057   6.637 -0.0208 -0.3656 -0.1022
  528MOL0     C71207   8.123   7.159   6.708  0.3568  0.0390  0.4367
  528MOL0     C71208   8.219   7.093   6.794  1.1398  0.2107 -0.3294
  528MOL0     C71209   8.323   7.182   6.840 -0.4329 -0.9161 -0.1638
  528MOL0     C71210   8.419   7.252   6.869  0.0904 -0.8295  0.2366
  528MOL0     C71211   7.685   7.219   6.383  0.9989  0.5360  0.1903
  528MOL0     C71212   7.591   7.244   6.277  0.2491  1.2176  0.4462
  528MOL0     H71213   7.249   7.452   5.959  0.4580 -1.5377  0.8496
  528MOL0     H71214   7.130   7.448   5.740  0.3772 -0.3177 -0.6861
  528MOL0     H71215   7.146   7.286   5.336  0.3955 -1.9642 -1.7579
  528MOL0     H71216   7.307   7.236   5.392 -0.2264 -0.6940  1.1311
  528MOL0     H71217   7.201   7.026   5.483 -1.9706 -2.5636 -1.3394
  528MOL0     H71218   7.038   7.088   5.449 -0.2188 -1.2630  1.1053
  528MOL0     H71219   7.252   7.075   5.237  0.2444 -0.3701 -1.7697
  528MOL0     H71220   7.166   6.926   5.276 -0.5570  0.2046 -1.6839
  528MOL0     H71221   6.962   7.083   5.243 -0.3531  1.2942 -0.8558
  528MOL0     H71222   7.076   7.192   5.167  0.5550  0.3547  1.3988
  528MOL0     H71223   7.016   7.067   4.971  0.8259  0.4748 -0.5021
  528MOL0     H71224   7.162   6.980   5.031 -0.3624 -1.5513  2.3328
  528MOL0     H71225   7.038   6.801   5.129  1.8944 -0.4480 -2.3253
  528MOL0     H71226   6.891   6.886   5.115  0.7912 -0.9649  1.0234
  528MOL0     H71227   6.936   6.879   4.844 -1.6658  0.9685  1.6189
  528MOL0     H71228   7.061   6.759   4.892 -0.2047  0.3715  0.8746
  528MOL0     H71229   6.842   6.648   5.014  2.1682  0.8563  0.9904
  528MOL0     H71230   6.846   6.636   4.840 -1.7877  2.4705 -2.9438
  528MOL0     H71231   6.648   6.783   4.694  1.0856  1.7381 -0.6076
  528MOL0     H71232   6.368   7.005   4.794  1.7215  1.3302 -2.7425
  528MOL0     H71233   6.436   6.940   4.663  0.4205  2.4231  2.1352
  528MOL0     H71234   6.314   6.736   4.871 -1.2599 -0.1697  0.3568
  528MOL0     H71235   6.335   6.720   4.698  0.3749  0.6325 -0.6139
  528MOL0     H71236   6.170   6.876   4.645  0.0987 -2.1872  0.0459
  528MOL0     H71237   6.132   6.918   4.818 -0.0601 -0.5300  0.9874
  528MOL0     H71238   6.051   6.692   4.849 -1.9110 -0.2533 -0.4001
  528MOL0     H71239   6.116   6.653   4.686  5.3480  1.4769  0.7861
  528MOL0     H71240   5.957   6.578   4.575  0.2630  2.3141  1.7275
  528MOL0     H71241   5.930   6.354   4.495 -1.0846 -1.1100  0.5661
  528MOL0     H71242   5.808   6.250   4.562  1.0921 -1.1807 -1.6863
  528MOL0     H71243   5.759   6.363   4.436  0.6280 -0.6319 -1.3903
  528MOL0     H71244   5.392   6.168   4.874 -0.1586  0.3971  1.0562
  528MOL0     H71245   5.189   6.038   4.878 -1.9545  0.1991  0.2329
  528MOL0     H71246   4.835   6.208   4.757 -1.2968 -0.0642 -1.1281
  528MOL0     H71247   4.848   6.109   4.604  1.1055  0.1150 -0.2697
  528MOL0     H71248   4.752   5.922   4.742 -2.2030 -0.1861 -0.1117
  528MOL0     H71249   4.767   6.009   4.890 -1.2456  0.7983 -0.0123
  528MOL0     H71250   4.622   6.135   4.656  2.1581 -0.2467  1.0495
  528MOL0     H71251   4.593   6.164   4.831  0.0543 -1.8076  1.8109
  528MOL0     H71252   4.501   5.922   4.692  0.7565 -2.6214  2.5830
  528MOL0     H71253   4.491   5.961   4.858  2.7297  0.5238  0.5365
  528MOL0     H71254   4.374   6.114   4.632  0.8020  2.3849  2.2404
  528MOL0     H71255   4.361   6.159   4.808 -3.6898 -1.8750  2.3589
  528MOL0     H71256   4.242   5.906   4.684 -4.3487  1.2884 -1.4361
  528MOL0     H71257   4.267   5.935   4.849  0.2865 -2.0540 -1.3035
  528MOL0     H71258   4.098   6.140   4.818  0.1226  0.6886 -1.0405
  528MOL0     H71259   4.022   5.989   4.751 -1.0167  0.7290 -2.7851
  528MOL0     H71260   4.144   6.025   4.545  3.1789  0.4206  0.1230
  528MOL0     H71261   4.171   6.193   4.589 -1.3003  1.4051  1.9176
  528MOL0     H71262   5.021   6.284   4.577  0.0607  0.1787  0.4767
  528MOL0     H71263   5.208   6.418   4.572 -0.8859 -0.0893 -0.3972
  528MOL0     H71264   5.541   6.574   4.835  1.2390 -1.5836  2.0232
  528MOL0     H71265   5.692   6.751   4.855 -1.8429 -0.3825 -0.0035
  528MOL0     H71266   7.377   7.134   5.599 -6.2892 -2.9049  0.1889
  528MOL0     H71267   7.470   7.102   5.835 -0.9476 -0.2657 -1.6567
  528MOL0     H71268   7.459   6.928   6.266 -0.1455 -0.3945  0.2576
  528MOL0     H71269   7.626   6.893   6.433 -0.6314 -0.8816 -1.2872
  528MOL0     H71270   7.968   7.179   6.466 -0.2250 -0.0333  0.0590
  528MOL0     H71271   7.873   7.214   6.602  0.3131  1.0765 -1.1567
  528MOL0     H71272   8.083   6.990   6.568  2.4376  0.7879  0.5852
  528MOL0     H71273   7.983   6.987   6.707  1.2084 -1.4933 -0.3758
  528MOL0     H71274   8.063   7.232   6.763  2.5088  2.3290 -0.0828
  528MOL0     H71275   8.184   7.209   6.632  1.1206 -2.0233 -0.3700
  528MOL0     H71276   8.253   7.000   6.748 -0.2888 -1.1145  1.1739
  528MOL0     H71277   8.160   7.059   6.879 -0.0041 -1.1494 -1.6084
  528MOL0     H71278   8.501   7.317   6.889  2.3518 -3.4243  0.0525
  528MOL0     H71279   7.740   7.301   6.430 -1.3476  1.0754  2.2288
  528MOL0     H71280   7.578   7.343   6.235  3.2614  2.1683  1.5434
  529MOL0     O71281   9.235   5.479   3.066  0.4236  0.5636  0.0978
  529MOL0     C71282   9.221   5.588   3.131 -0.2841  0.3655  0.4941
  529MOL0     O71283   9.106   5.629   3.188  0.5086 -0.5034 -0.8732
  529MOL0     C71284   8.978   5.586   3.156  0.8509  0.4549  0.5207
  529MOL0     C71285   8.946   5.518   3.035 -0.2488 -1.1754 -1.0099
  529MOL0     C71286   8.813   5.486   3.006 -0.7708 -0.3331 -0.6246
  529MOL0     C71287   8.702   5.522   3.096  0.5667  0.8911  0.4159
  529MOL0     O71288   8.573   5.468   3.065  0.1776 -0.4098 -0.2865
  529MOL0     C71289   8.495   5.404   3.175 -0.5718  0.0733 -0.0556
  529MOL0     C71290   8.380   5.323   3.117 -0.1191  0.5406 -0.7315
  529MOL0     C71291   8.253   5.398   3.075 -0.8276  0.0259 -0.2064
  529MOL0     C71292   8.155   5.325   2.984  0.6168 -0.6288  0.0976
  529MOL0     C71293   8.010   5.385   2.973 -0.3004  0.0471  0.4197
  529MOL0     C71294   8.006   5.529   2.905 -0.8311 -0.1436  0.4129
  529MOL0     C71295   8.008   5.527   2.752  0.7228 -1.0216  0.4241
  529MOL0     C71296   7.988   5.661   2.686 -0.1854 -0.2159  0.4829
  529MOL0     N71297   8.108   5.754   2.687  0.9311 -0.1679  0.2340
  529MOL0     C71298   8.213   5.755   2.594  0.5062 -0.8620  0.1608
  529MOL0     C71299   8.310   5.826   2.660 -0.6246 -0.4932 -0.2622
  529MOL0     C71300   8.456   5.836   2.617  0.5969  0.5450  0.2151
  529MOL0     C71301   8.489   5.985   2.608 -0.5568 -0.1027 -0.9382
  529MOL0     C71302   8.639   6.004   2.584  0.5676  0.0518  0.0097
  529MOL0     C71303   8.676   6.152   2.575  0.0773  0.6496  0.1110
  529MOL0     O71304   8.656   6.202   2.447  0.0992  0.4013  0.6306
  529MOL0     C71305   8.529   6.225   2.400  0.7160 -0.0292  0.0069
  529MOL0     C71306   8.501   6.214   2.264  0.2956  0.5922  0.1806
  529MOL0     C71307   8.366   6.219   2.223 -0.5826 -0.2654  1.0252
  529MOL0     C71308   8.339   6.184   2.079 -0.3003 -0.8668 -0.5882
  529MOL0     C71309   8.265   6.258   2.312  0.4225  0.3065 -0.8470
  529MOL0     C71310   8.119   6.266   2.285  0.1944  0.5936  0.2597
  529MOL0     O71311   8.036   6.300   2.395  0.1732  0.2619  0.5352
  529MOL0     C71312   7.898   6.293   2.370 -0.6324 -0.2019 -1.0153
  529MOL0     C71313   7.836   6.414   2.359  0.5974 -0.0606  0.5393
  529MOL0     C71314   7.698   6.420   2.351  0.7316 -0.5694  0.2648
  529MOL0     C71315   7.615   6.301   2.351  0.2609  0.8458  0.1926
  529MOL0     O71316   7.483   6.297   2.322  0.3425 -0.2022  0.5176
  529MOL0     C71317   7.400   6.409   2.347  1.1218  0.2173  0.1262
  529MOL0     C71318   7.253   6.364   2.361  0.7563  0.2209 -0.6167
  529MOL0     C71319   7.191   6.337   2.222  0.2266  0.1344 -0.4283
  529MOL0     C71320   7.043   6.314   2.219 -0.2661  0.2852 -0.2572
  529MOL0     C71321   7.004   6.263   2.079 -0.0562 -1.0596 -0.2621
  529MOL0     C71322   6.874   6.171   2.087  0.1571  0.5176  0.1665
  529MOL0     C71323   6.812   6.149   1.952 -0.0647 -0.5535  0.1566
  529MOL0     C71324   6.763   6.009   1.926 -0.1021  0.1312  0.1976
  529MOL0    Cl71325   6.896   5.890   1.918 -0.0165 -0.2508 -0.2647
  529MOL0     C71326   7.682   6.180   2.371 -0.8181 -0.5406  0.0728
  529MOL0     C71327   7.822   6.175   2.367  0.4920  0.5154 -0.5632
  529MOL0     O71328   8.080   6.260   2.167 -0.3393 -0.6184  0.1632
  529MOL0     C71329   8.303   6.287   2.447 -0.3961  0.1165  0.2250
  529MOL0     C71330   8.432   6.268   2.487 -0.7227 -0.3774  0.5381
  529MOL0     N71331   8.271   5.857   2.789  0.3342 -0.4851  0.5176
  529MOL0     N71332   8.154   5.811   2.801  0.0030 -0.6468 -0.1171
  529MOL0     C71333   8.731   5.591   3.213  0.2320 -0.1898  0.8063
  529MOL0     C71334   8.867   5.623   3.242 -0.6202  0.9081  0.0775
  529MOL0     C71335   9.339   5.676   3.159 -0.3365  0.0412 -0.0660
  529MOL0     C71336   9.456   5.665   3.084  0.1929 -0.5699  0.4182
  529MOL0     C71337   9.571   5.737   3.120  0.1662  0.2459  1.0772
  529MOL0     C71338   9.582   5.810   3.236 -0.8965 -0.8858  0.2619
  529MOL0     O71339   9.704   5.866   3.261  0.6154 -0.6928  0.0188
  529MOL0     C71340   9.751   5.854   3.397 -1.1231  0.5566 -0.1173
  529MOL0     C71341   9.904   5.887   3.410  0.6716 -0.5980 -0.6170
  529MOL0     C71342   9.979   5.755   3.370 -0.2409 -0.0983  0.2757
  529MOL0     C71343  10.122   5.794   3.367 -0.1538  0.7709 -0.3439
  529MOL0     C71344  10.179   5.815   3.498 -0.6986 -0.5392 -0.5815
  529MOL0     C71345  10.229   5.825   3.612 -0.2661  1.1058 -0.3114
  529MOL0     C71346   9.465   5.813   3.318  0.3616  0.3186 -0.2288
  529MOL0     C71347   9.340   5.756   3.277 -0.1881 -0.5366  0.6937
  529MOL0     H71348   9.025   5.499   2.962  1.0426 -1.3951  0.3869
  529MOL0     H71349   8.795   5.439   2.909 -1.7242 -0.0224 -0.6053
  529MOL0     H71350   8.562   5.332   3.224  2.2251  2.6217  0.1618
  529MOL0     H71351   8.454   5.481   3.241 -0.6326 -0.5637  0.6691
  529MOL0     H71352   8.416   5.279   3.023  1.4176 -1.8439  0.8764
  529MOL0     H71353   8.337   5.246   3.182  0.8307  0.0698 -0.6387
  529MOL0     H71354   8.198   5.424   3.166  1.0773 -2.2693  1.7179
  529MOL0     H71355   8.276   5.490   3.019 -0.4617 -1.9873 -3.6352
  529MOL0     H71356   8.198   5.308   2.885 -1.3949 -0.6959 -0.8161
  529MOL0     H71357   8.135   5.225   3.024  0.0773 -0.5439  0.0406
  529MOL0     H71358   7.939   5.322   2.917 -2.1218  2.4656 -0.1807
  529MOL0     H71359   7.979   5.401   3.076 -2.0567  1.7255 -0.2902
  529MOL0     H71360   7.911   5.565   2.947 -0.9099 -2.6390  2.6842
  529MOL0     H71361   8.087   5.588   2.948 -1.6037 -0.1507  1.9340
  529MOL0     H71362   8.097   5.477   2.712  0.5679 -0.4488 -0.6790
  529MOL0     H71363   7.930   5.460   2.715  0.2752 -0.5480  0.4980
  529MOL0     H71364   7.900   5.709   2.728  1.0266  2.8647 -0.2345
  529MOL0     H71365   7.953   5.658   2.583  0.3898 -2.2706  0.3056
  529MOL0     H71366   8.201   5.707   2.497 -2.7530  0.4936 -0.2465
  529MOL0     H71367   8.523   5.795   2.694 -0.9448  1.3818  2.1110
  529MOL0     H71368   8.461   5.775   2.527 -0.5150 -0.0063  0.5057
  529MOL0     H71369   8.469   6.038   2.701  2.0506  0.1068 -0.4392
  529MOL0     H71370   8.423   6.029   2.532 -0.3261 -1.1332 -1.7561
  529MOL0     H71371   8.663   5.943   2.497  0.0202 -2.0731  1.2855
  529MOL0     H71372   8.699   5.960   2.664  1.1254 -1.0414 -0.9813
  529MOL0     H71373   8.785   6.161   2.586  0.0596  0.5234  0.3767
  529MOL0     H71374   8.635   6.214   2.655  0.4612  0.1664  0.6916
  529MOL0     H71375   8.578   6.193   2.190 -1.0943  2.1939 -1.8361
  529MOL0     H71376   8.427   6.165   2.016 -0.9423  2.6588 -2.8049
  529MOL0     H71377   8.276   6.095   2.072 -1.3869 -0.3276  1.5872
  529MOL0     H71378   8.289   6.266   2.028  1.7183  1.7509  1.3604
  529MOL0     H71379   7.891   6.508   2.362  4.0383 -1.9088  2.4060
  529MOL0     H71380   7.657   6.519   2.334 -0.6904 -1.1275  0.2453
  529MOL0     H71381   7.431   6.465   2.436 -0.0256  1.9554 -0.5173
  529MOL0     H71382   7.405   6.478   2.262  1.0379 -0.6350 -0.5843
  529MOL0     H71383   7.253   6.274   2.422  3.1511 -0.2928 -1.2439
  529MOL0     H71384   7.198   6.449   2.403  0.3129  1.1115 -2.8098
  529MOL0     H71385   7.236   6.249   2.176  0.3839  1.1829 -2.3977
  529MOL0     H71386   7.219   6.413   2.148  0.8445  0.6178  0.2855
  529MOL0     H71387   7.008   6.236   2.287 -2.4476  1.3810 -0.0252
  529MOL0     H71388   6.998   6.411   2.242 -1.5639  0.0623 -1.6371
  529MOL0     H71389   7.085   6.212   2.027 -0.7382  0.8021 -3.3509
  529MOL0     H71390   6.994   6.349   2.013  1.3728 -1.1305 -0.5910
  529MOL0     H71391   6.907   6.081   2.141  2.4710  1.5887  0.6756
  529MOL0     H71392   6.811   6.235   2.150  0.3653  0.7645  0.1244
  529MOL0     H71393   6.888   6.183   1.881  2.1019  2.3194  3.5189
  529MOL0     H71394   6.730   6.220   1.945 -1.1739 -1.8603 -0.8345
  529MOL0     H71395   6.700   6.018   1.837 -0.1018 -1.7466 -0.0289
  529MOL0     H71396   6.694   5.973   2.002 -0.6370 -1.2205 -0.8904
  529MOL0     H71397   7.631   6.084   2.368 -0.2539 -0.8251 -0.7514
  529MOL0     H71398   7.862   6.075   2.381 -2.5361 -0.4999  2.0513
  529MOL0     H71399   8.236   6.312   2.529  1.4019 -0.7272  2.0649
  529MOL0     H71400   8.453   6.285   2.592 -1.0351  0.5587  0.4612
  529MOL0     H71401   8.648   5.616   3.278  0.7269  1.7442  0.7673
  529MOL0     H71402   8.881   5.678   3.334 -1.6389  1.3800 -0.0281
  529MOL0     H71403   9.462   5.610   2.990 -0.7215  1.3834 -0.8622
  529MOL0     H71404   9.658   5.725   3.056  0.7302  1.1832  1.6260
  529MOL0     H71405   9.694   5.929   3.452 -0.7370 -1.1849  2.8748
  529MOL0     H71406   9.738   5.753   3.438  2.7313  0.8362  2.2642
  529MOL0     H71407   9.932   5.917   3.512  1.1381  2.2535 -1.4855
  529MOL0     H71408   9.921   5.974   3.346  1.0850  0.5819  1.0173
  529MOL0     H71409   9.942   5.726   3.271  1.1282  3.1405 -1.3409
  529MOL0     H71410   9.958   5.678   3.445  0.1705  0.5636  1.0763
  529MOL0     H71411  10.134   5.884   3.306 -0.9022  0.3788 -1.0709
  529MOL0     H71412  10.185   5.715   3.325 -0.3358 -1.4773  3.1744
  529MOL0     H71413  10.296   5.815   3.695  1.4203  0.2367 -1.7059
  529MOL0     H71414   9.468   5.861   3.416  0.4384  0.5371 -0.3380
  529MOL0     H71415   9.257   5.769   3.346  0.3466  0.9515  1.0870
  530MOL0     O71416   5.365   7.934   1.464  0.0322 -0.5082  0.6104
  530MOL0     C71417   5.408   8.051   1.461  0.3380  0.3431 -0.8186
  530MOL0     O71418   5.330   8.160   1.500 -0.5906 -0.0267  0.2284
  530MOL0     C71419   5.191   8.139   1.525  0.3639 -0.3408 -0.0801
  530MOL0     C71420   5.143   8.049   1.615 -0.4352 -0.2655 -0.3267
  530MOL0     C71421   5.009   8.034   1.648 -1.0055  0.4245  0.1536
  530MOL0     C71422   4.911   8.110   1.579  0.1439 -0.0886  0.0106
  530MOL0     O71423   4.778   8.087   1.615  0.1705 -0.2462 -0.1923
  530MOL0     C71424   4.687   8.192   1.596  1.1991  0.3392 -0.3335
  530MOL0     C71425   4.542   8.138   1.566 -0.3494  0.3397  0.2038
  530MOL0     C71426   4.457   8.125   1.698 -0.1892 -0.3830  0.2409
  530MOL0     C71427   4.321   8.060   1.673 -0.7530  0.4214 -0.0996
  530MOL0     C71428   4.226   8.063   1.795  0.6248 -0.0148  0.0094
  530MOL0     C71429   4.216   8.203   1.862 -0.3547  0.0118  0.0257
  530MOL0     C71430   4.106   8.182   1.969 -0.8432  0.0397  0.4009
  530MOL0     C71431   4.080   8.318   2.039  0.4288 -0.3311  0.2523
  530MOL0     N71432   3.991   8.318   2.163 -0.6728 -1.5295  0.5807
  530MOL0     C71433   3.963   8.209   2.236  0.5358  1.1378 -0.3728
  530MOL0     C71434   3.876   8.238   2.333  0.0176  0.7083  0.4318
  530MOL0     C71435   3.813   8.149   2.422 -0.6630 -0.1211  0.3966
  530MOL0     C71436   3.697   8.075   2.365 -0.1350  0.3097  0.5196
  530MOL0     C71437   3.574   8.156   2.401 -0.0977  0.0263 -0.0478
  530MOL0     C71438   3.454   8.098   2.332  0.0766  0.2537  0.2931
  530MOL0     O71439   3.422   8.180   2.219  0.2931 -0.3670  0.3992
  530MOL0     C71440   3.306   8.155   2.151  0.6961 -0.4937 -0.4086
  530MOL0     C71441   3.307   8.213   2.028  1.0343 -1.0023 -0.4405
  530MOL0     C71442   3.194   8.204   1.945 -0.3762  0.5221 -0.7331
  530MOL0     C71443   3.203   8.278   1.810  0.4143  0.0131 -0.2185
  530MOL0     C71444   3.074   8.132   1.992 -0.8219 -0.4758  0.3458
  530MOL0     C71445   2.933   8.136   1.931 -0.0623  0.0854 -0.0196
  530MOL0     O71446   2.838   8.059   1.991 -0.6234 -0.4536  0.1369
  530MOL0     C71447   2.707   8.052   1.950  0.5585  0.4539 -0.1235
  530MOL0     C71448   2.617   8.059   2.049  0.2775  0.7869  0.2536
  530MOL0     C71449   2.485   8.071   2.013  0.3360  0.8657 -0.3038
  530MOL0     C71450   2.431   8.063   1.886  0.1535 -0.6884  0.1379
  530MOL0     O71451   2.295   8.069   1.861 -0.2574 -1.0692 -0.5553
  530MOL0     C71452   2.234   8.197   1.898 -0.0257  0.7952  0.6261
  530MOL0     C71453   2.094   8.222   1.849  0.0846 -0.0281 -1.1965
  530MOL0     C71454   1.999   8.138   1.927 -0.1438  1.0650 -0.5765
  530MOL0     C71455   1.856   8.153   1.877 -0.1339 -0.0501  0.6306
  530MOL0     C71456   1.767   8.038   1.935  1.0809 -1.0291 -0.3088
  530MOL0     C71457   1.614   8.071   1.918  0.2125  0.9440  0.1017
  530MOL0     C71458   1.564   8.174   2.028 -0.4685 -0.7019  0.5352
  530MOL0     C71459   1.402   8.173   2.027 -0.0059 -0.4500  0.0647
  530MOL0    Cl71460   1.333   8.266   2.166 -0.1284 -0.5435  0.1669
  530MOL0     C71461   2.530   8.049   1.785  0.1816  0.1879  0.0829
  530MOL0     C71462   2.663   8.048   1.816  0.3165 -0.5045  0.5794
  530MOL0     O71463   2.917   8.203   1.829  0.3289 -0.4995 -0.2994
  530MOL0     C71464   3.094   8.060   2.115 -0.3617  0.0952  0.9029
  530MOL0     C71465   3.203   8.083   2.195  0.2936  0.0246 -0.2006
  530MOL0     N71466   3.840   8.371   2.318 -0.3853 -0.3871 -0.5033
  530MOL0     N71467   3.911   8.420   2.220  0.3626  0.0739  0.2783
  530MOL0     C71468   4.954   8.192   1.475  0.1472  1.1752 -0.2746
  530MOL0     C71469   5.090   8.210   1.456 -1.1921  0.7711 -0.4554
  530MOL0     C71470   5.540   8.084   1.396 -0.3646  0.3876 -0.4373
  530MOL0     C71471   5.642   7.988   1.379  0.0268  0.0456 -0.7537
  530MOL0     C71472   5.768   8.023   1.325  0.5416  0.7406  0.2055
  530MOL0     C71473   5.783   8.148   1.275  0.4322 -0.8158 -0.3297
  530MOL0     O71474   5.909   8.172   1.220 -0.0171  0.2856  0.6450
  530MOL0     C71475   5.913   8.263   1.111  0.5139  0.0182 -0.8646
  530MOL0     C71476   5.974   8.400   1.160 -0.5704 -0.4907 -0.1395
  530MOL0     C71477   5.984   8.492   1.038 -0.3267 -0.6069 -0.2449
  530MOL0     C71478   5.967   8.644   1.082 -0.1345 -0.1080 -0.1485
  530MOL0     C71479   5.825   8.682   1.089  0.2372 -0.6139 -0.0471
  530MOL0     C71480   5.711   8.717   1.102  0.3423 -0.4164  0.0597
  530MOL0     C71481   5.679   8.246   1.284 -0.7800 -0.5267 -0.2446
  530MOL0     C71482   5.559   8.214   1.345  0.6860  0.5685  0.5243
  530MOL0     H71483   5.219   7.991   1.666  0.1654  1.7644  1.1857
  530MOL0     H71484   4.974   7.969   1.727  0.9770  0.5509  1.2047
  530MOL0     H71485   4.697   8.257   1.684 -1.8661  2.2500 -1.2213
  530MOL0     H71486   4.707   8.242   1.501 -0.4172 -3.9644 -3.2094
  530MOL0     H71487   4.496   8.205   1.492  2.2050 -0.8626 -2.6677
  530MOL0     H71488   4.550   8.039   1.521  1.3418  0.5261  0.0258
  530MOL0     H71489   4.522   8.068   1.765  0.1896  0.6925  0.8306
  530MOL0     H71490   4.454   8.227   1.740  0.0081 -0.7212  1.1054
  530MOL0     H71491   4.281   8.114   1.587  0.8604  0.8436 -0.6092
  530MOL0     H71492   4.323   7.956   1.637 -3.0325 -0.1424  1.1816
  530MOL0     H71493   4.124   8.035   1.767  0.5279  2.8801 -3.1557
  530MOL0     H71494   4.257   7.996   1.876  1.1430  0.5640  0.2987
  530MOL0     H71495   4.313   8.248   1.886  0.2689 -1.6824  0.8518
  530MOL0     H71496   4.170   8.268   1.787 -0.7581 -1.1076 -0.7265
  530MOL0     H71497   4.011   8.150   1.926 -1.0505 -0.1539  0.9934
  530MOL0     H71498   4.149   8.112   2.041  0.4490  0.6740  0.2727
  530MOL0     H71499   4.046   8.396   1.970 -0.1161 -0.6147  0.1873
  530MOL0     H71500   4.178   8.350   2.074  0.5844 -1.9710  1.4254
  530MOL0     H71501   3.994   8.111   2.203  1.4171 -0.2404  3.9651
  530MOL0     H71502   3.892   8.075   2.442  0.2591  0.5038 -0.8304
  530MOL0     H71503   3.782   8.199   2.514  0.6603  1.3279  0.1048
  530MOL0     H71504   3.693   7.971   2.399 -0.6675  0.3088  0.4600
  530MOL0     H71505   3.696   8.076   2.256  3.8636 -0.3518  0.3214
  530MOL0     H71506   3.593   8.262   2.378 -0.7960  0.5406  1.5925
  530MOL0     H71507   3.565   8.146   2.510  0.3172 -0.5493 -0.0624
  530MOL0     H71508   3.376   8.097   2.409 -0.3753  1.0016 -0.1401
  530MOL0     H71509   3.486   8.002   2.292  1.6148  1.9825 -3.0658
  530MOL0     H71510   3.393   8.270   1.993 -2.0514  2.7262 -2.7890
  530MOL0     H71511   3.208   8.208   1.726  0.4826  1.3488 -1.3735
  530MOL0     H71512   3.118   8.344   1.791  1.0297  1.1533  0.8471
  530MOL0     H71513   3.287   8.348   1.812  0.2280  0.2316  0.0670
  530MOL0     H71514   2.661   8.071   2.147  3.4758  1.5147 -1.1014
  530MOL0     H71515   2.418   8.086   2.097 -0.8222 -0.2355 -0.9899
  530MOL0     H71516   2.230   8.204   2.007  0.7457  1.4208  0.6252
  530MOL0     H71517   2.297   8.280   1.867 -2.3403  2.6414  0.6158
  530MOL0     H71518   2.071   8.327   1.869 -1.3656  0.2096 -3.6912
  530MOL0     H71519   2.086   8.199   1.743 -0.3733 -3.6430 -0.5152
  530MOL0     H71520   2.012   8.149   2.035 -0.3963 -0.5109 -0.3616
  530MOL0     H71521   2.033   8.037   1.904  0.3231  1.1025 -0.0839
  530MOL0     H71522   1.809   8.245   1.913 -0.1004  0.2516 -0.0810
  530MOL0     H71523   1.853   8.153   1.768  0.4823 -0.6709  0.6069
  530MOL0     H71524   1.785   8.033   2.042 -3.2986  0.9708  0.7460
  530MOL0     H71525   1.788   7.943   1.885 -0.0188 -1.3261 -0.2401
  530MOL0     H71526   1.585   8.113   1.822 -0.9847  1.5921  0.7187
  530MOL0     H71527   1.555   7.979   1.930 -3.6506  3.1584 -0.2805
  530MOL0     H71528   1.614   8.271   2.021  0.2192 -1.1517 -0.9637
  530MOL0     H71529   1.605   8.132   2.121 -0.4857 -0.7737  0.5106
  530MOL0     H71530   1.364   8.070   2.026 -0.9544 -0.1120 -0.2407
  530MOL0     H71531   1.380   8.230   1.936  1.2101  1.1907  0.7393
  530MOL0     H71532   2.495   8.035   1.683  1.8485 -3.3439 -0.1632
  530MOL0     H71533   2.746   8.045   1.746  1.8233 -0.5811  2.2924
  530MOL0     H71534   3.015   7.999   2.158  0.5234  0.2117  2.7974
  530MOL0     H71535   3.212   8.032   2.291  1.1106  1.4864  0.5335
  530MOL0     H71536   4.882   8.242   1.411 -0.7966  0.0611 -0.1098
  530MOL0     H71537   5.126   8.282   1.384  2.5753  0.9242  1.3629
  530MOL0     H71538   5.650   7.889   1.422 -0.0967 -0.2356 -1.3728
  530MOL0     H71539   5.848   7.950   1.321  0.7157  0.9900 -1.9608
  530MOL0     H71540   5.977   8.216   1.036 -1.3844 -1.8677 -1.4074
  530MOL0     H71541   5.810   8.274   1.076 -1.2687 -0.4679  3.6245
  530MOL0     H71542   6.069   8.382   1.210 -0.6620 -1.5911 -0.3362
  530MOL0     H71543   5.894   8.442   1.221  0.3742  0.7846  0.2517
  530MOL0     H71544   5.917   8.474   0.954 -0.9852  2.2662 -0.4585
  530MOL0     H71545   6.083   8.473   0.995 -0.3190 -0.6729 -0.1983
  530MOL0     H71546   6.010   8.705   1.002  1.4307  1.6048  1.8719
  530MOL0     H71547   6.012   8.663   1.180  0.1028  1.1390 -0.4818
  530MOL0     H71548   5.606   8.739   1.111  0.8439  1.6146  1.6786
  530MOL0     H71549   5.699   8.343   1.241  1.9143  0.3421  2.5468
  530MOL0     H71550   5.476   8.283   1.346  0.1947  0.0129 -0.3480
  531MOL0     O71551   5.954   0.139   5.934 -0.5652  0.7814 -0.3172
  531MOL0     C71552   5.915   0.088   5.831 -0.4209 -0.9819 -0.2396
  531MOL0     O71553   6.001   0.033   5.740 -0.0163  0.0758 -0.3709
  531MOL0     C71554   6.130   0.010   5.786  0.3428  0.2838  0.1247
  531MOL0     C71555   6.221   0.113   5.782 -0.3741 -0.8149 -0.2106
  531MOL0     C71556   6.342   0.105   5.845 -0.9762  0.2723  0.8507
  531MOL0     C71557   6.389  -0.011   5.906  0.3561 -0.2581 -0.5231
  531MOL0     O71558   6.514  -0.052   5.946 -0.2905 -0.4574  0.1565
  531MOL0     C71559   6.614   0.047   5.970 -0.3276 -0.5109 -1.1516
  531MOL0     C71560   6.751  -0.013   5.939  0.3530  0.1758 -0.0306
  531MOL0     C71561   6.825   0.048   5.820 -0.2224  0.1740 -0.8524
  531MOL0     C71562   6.805  -0.043   5.695  0.0072 -0.1490  0.2733
  531MOL0     C71563   6.658  -0.039   5.653 -0.6981 -0.6745 -0.1649
  531MOL0     C71564   6.630  -0.083   5.511 -0.5123  0.5480  0.4117
  531MOL0     C71565   6.481  -0.049   5.471 -0.0728  0.6401 -0.0640
  531MOL0     C71566   6.448  -0.082   5.321 -0.1156 -0.4861  0.8175
  531MOL0     N71567   6.462  -0.230   5.292 -0.5493  0.1511 -0.4625
  531MOL0     C71568   6.356  -0.321   5.293  0.1789  0.9303  0.0195
  531MOL0     C71569   6.421  -0.437   5.263  0.4650 -0.8659  0.2699
  531MOL0     C71570   6.348  -0.565   5.247  0.6595 -0.3694  0.5214
  531MOL0     C71571   6.320  -0.594   5.094  0.2769 -0.2311 -0.5545
  531MOL0     C71572   6.275  -0.737   5.068 -0.5708  0.1236 -0.6134
  531MOL0     C71573   6.137  -0.774   5.125 -0.5118 -0.3120  0.7630
  531MOL0     O71574   6.026  -0.696   5.070  0.7710  0.3076 -0.1069
  531MOL0     C71575   5.904  -0.741   5.113 -0.5829  1.1414  0.0920
  531MOL0     C71576   5.798  -0.709   5.025 -0.5371 -0.2649  0.2986
  531MOL0     C71577   5.670  -0.765   5.042  0.3905  0.0306 -0.2637
  531MOL0     C71578   5.558  -0.713   4.952 -0.0836  0.1130  0.5646
  531MOL0     C71579   5.650  -0.861   5.151  0.6133  0.2817  0.2481
  531MOL0     C71580   5.512  -0.925   5.178 -0.1163 -0.3509  0.4576
  531MOL0     O71581   5.494  -0.986   5.306 -0.1494  0.0178  0.1531
  531MOL0     C71582   5.388  -1.070   5.337  0.2064 -0.1346  0.0446
  531MOL0     C71583   5.404  -1.147   5.455 -0.1740 -0.2450 -0.3817
  531MOL0     C71584   5.309  -1.245   5.491  1.4147 -0.0349 -0.7182
  531MOL0     C71585   5.196  -1.267   5.417  0.5458  0.6004  0.0281
  531MOL0     O71586   5.101  -1.368   5.446  0.9909  0.2292 -0.3375
  531MOL0     C71587   5.151  -1.487   5.509 -1.0786  0.1300  0.5605
  531MOL0     C71588   5.044  -1.592   5.486 -0.5988 -0.4286  0.3548
  531MOL0     C71589   4.929  -1.571   5.585  0.0552 -0.2180 -0.0679
  531MOL0     C71590   4.846  -1.700   5.580  0.7819 -1.1076  0.2910
  531MOL0     C71591   4.711  -1.661   5.657 -0.6734  0.6705 -0.1668
  531MOL0     C71592   4.602  -1.764   5.638  0.0217 -0.1692 -0.2367
  531MOL0     C71593   4.535  -1.773   5.496 -0.7809  0.4579  0.5125
  531MOL0     C71594   4.490  -1.642   5.444 -0.2373 -0.3471 -0.5761
  531MOL0    Cl71595   4.380  -1.564   5.550  0.2150  0.5357 -0.2772
  531MOL0     C71596   5.179  -1.193   5.297 -0.3235  0.6763  0.5104
  531MOL0     C71597   5.268  -1.093   5.268  0.4738 -0.1334  0.8803
  531MOL0     O71598   5.422  -0.926   5.090 -0.2172  0.3485  0.3397
  531MOL0     C71599   5.753  -0.886   5.239 -0.1032  0.2730 -0.1031
  531MOL0     C71600   5.879  -0.827   5.221  0.0950 -1.0012  0.9294
  531MOL0     N71601   6.557  -0.418   5.261  0.5596  0.6648 -0.4374
  531MOL0     N71602   6.581  -0.290   5.265 -0.3208  0.6681  0.1303
  531MOL0     C71603   6.294  -0.112   5.921 -0.1436 -0.0946 -0.1481
  531MOL0     C71604   6.163  -0.105   5.859  0.2496 -0.3015  0.7245
  531MOL0     C71605   5.770   0.074   5.808  0.2573 -0.4290  0.5157
  531MOL0     C71606   5.721  -0.015   5.712  0.7545 -0.5322 -0.0463
  531MOL0     C71607   5.578  -0.037   5.705 -0.3661 -0.5033  0.3397
  531MOL0     C71608   5.491   0.024   5.799 -0.5457  0.3625 -0.7313
  531MOL0     O71609   5.355   0.000   5.800 -0.7779 -0.9656 -0.4264
  531MOL0     C71610   5.298  -0.090   5.706  1.1664  0.6263 -0.2326
  531MOL0     C71611   5.159  -0.112   5.750  0.2147  0.5029  0.9456
  531MOL0     C71612   5.151  -0.216   5.853 -0.3217  0.3098  0.5241
  531MOL0     C71613   5.013  -0.217   5.914  0.6193  0.1510 -0.6270
  531MOL0     C71614   4.983  -0.346   5.971  0.7551 -0.2838 -0.4905
  531MOL0     C71615   4.959  -0.441   6.036 -0.1511  0.1822  0.4639
  531MOL0     C71616   5.544   0.120   5.880 -0.1287  0.2601 -0.3289
  531MOL0     C71617   5.681   0.136   5.896 -0.0252  0.1821  0.0059
  531MOL0     H71618   6.199   0.205   5.728 -0.2815 -1.9227 -2.2116
  531MOL0     H71619   6.398   0.198   5.844  2.3821 -1.6031 -0.4987
  531MOL0     H71620   6.597   0.137   5.911  1.3210 -0.1625 -1.1423
  531MOL0     H71621   6.614   0.073   6.076  3.0799 -1.8429 -0.6676
  531MOL0     H71622   6.811   0.013   6.027 -1.6185  2.3837  0.7492
  531MOL0     H71623   6.744  -0.122   5.942 -0.5376  0.2375  2.0943
  531MOL0     H71624   6.796   0.152   5.803  1.5802  1.6853  3.7577
  531MOL0     H71625   6.932   0.046   5.842 -0.4331 -0.0797  0.1839
  531MOL0     H71626   6.862  -0.002   5.611  0.3931  0.7652  0.9635
  531MOL0     H71627   6.848  -0.143   5.709  0.5249  0.0843  0.3849
  531MOL0     H71628   6.602  -0.104   5.721  0.8141 -0.1987  1.6148
  531MOL0     H71629   6.624   0.065   5.658 -0.7986 -0.6291 -1.4451
  531MOL0     H71630   6.704  -0.035   5.447  1.3179 -1.0017  1.2546
  531MOL0     H71631   6.643  -0.191   5.503 -3.9059  0.1207 -1.0105
  531MOL0     H71632   6.418  -0.114   5.532 -0.0030 -0.9512 -1.6016
  531MOL0     H71633   6.471   0.057   5.495  1.6765  1.0147 -0.7953
  531MOL0     H71634   6.511  -0.029   5.249 -1.4631 -1.4330 -1.1518
  531MOL0     H71635   6.348  -0.054   5.287 -0.1499 -0.2231  1.1398
  531MOL0     H71636   6.248  -0.313   5.286 -0.0423 -2.0483 -3.7701
  531MOL0     H71637   6.424  -0.632   5.286  1.5997  0.8182  0.7844
  531MOL0     H71638   6.257  -0.573   5.307 -0.4599  1.2663 -0.8714
  531MOL0     H71639   6.413  -0.579   5.038  0.4376 -1.2427 -0.5733
  531MOL0     H71640   6.243  -0.540   5.040  0.7912 -2.9630 -4.4420
  531MOL0     H71641   6.351  -0.808   5.102  1.1076  1.7632 -0.7702
  531MOL0     H71642   6.273  -0.755   4.960 -0.8179 -0.4882 -0.5107
  531MOL0     H71643   6.143  -0.752   5.232 -0.8332  1.2623  0.4816
  531MOL0     H71644   6.118  -0.881   5.117 -0.5154 -0.3026  0.6473
  531MOL0     H71645   5.814  -0.651   4.934  0.8378 -0.7589  0.1966
  531MOL0     H71646   5.537  -0.805   4.895 -0.9443  2.9431 -4.2645
  531MOL0     H71647   5.467  -0.677   5.000 -1.9857 -2.8674 -0.5164
  531MOL0     H71648   5.592  -0.639   4.879  0.8369  0.5195  1.3757
  531MOL0     H71649   5.495  -1.124   5.510 -0.4060  1.2697 -0.5868
  531MOL0     H71650   5.313  -1.294   5.588 -5.0948 -3.0057 -1.4239
  531MOL0     H71651   5.248  -1.523   5.476 -1.7897  0.4948 -2.1307
  531MOL0     H71652   5.152  -1.468   5.617  0.7407  1.7207  0.3258
  531MOL0     H71653   5.002  -1.581   5.385  2.6992 -0.5826 -1.1752
  531MOL0     H71654   5.073  -1.697   5.498 -0.1711 -0.1676  1.6888
  531MOL0     H71655   4.872  -1.482   5.558  1.4361  1.2682  1.7535
  531MOL0     H71656   4.958  -1.549   5.688  0.2857 -0.0174 -0.1758
  531MOL0     H71657   4.828  -1.737   5.479  1.4148 -0.8775  0.0905
  531MOL0     H71658   4.895  -1.774   5.643 -1.4758 -1.0049  2.3261
  531MOL0     H71659   4.671  -1.565   5.624 -0.4099  1.2431  1.1395
  531MOL0     H71660   4.724  -1.651   5.765 -1.8739  0.0344  0.0570
  531MOL0     H71661   4.646  -1.858   5.671 -0.0104  0.5712  2.1362
  531MOL0     H71662   4.519  -1.750   5.708 -0.7108 -0.6422 -0.9944
  531MOL0     H71663   4.459  -1.852   5.496  1.9223 -2.3514  1.2723
  531MOL0     H71664   4.599  -1.820   5.421 -0.7740 -1.0681  1.4363
  531MOL0     H71665   4.450  -1.657   5.344  0.6969  2.2813 -1.4400
  531MOL0     H71666   4.569  -1.566   5.442 -1.0062  0.4710 -0.5590
  531MOL0     H71667   5.104  -1.221   5.225  0.3250 -0.0787  0.1197
  531MOL0     H71668   5.248  -1.049   5.171  0.7654  2.1638  1.7976
  531MOL0     H71669   5.731  -0.941   5.330 -0.8658 -1.5999 -1.3671
  531MOL0     H71670   5.949  -0.844   5.302 -0.5525  1.1748  2.0218
  531MOL0     H71671   6.317  -0.204   5.974  1.5264  0.5522  0.3257
  531MOL0     H71672   6.086  -0.181   5.871  0.5988 -0.7636  0.1373
  531MOL0     H71673   5.787  -0.080   5.655 -1.1062  0.3271 -3.4970
  531MOL0     H71674   5.550  -0.108   5.628  0.1068 -0.9343  0.5619
  531MOL0     H71675   5.287  -0.042   5.608 -0.2617  0.8426  0.0088
  531MOL0     H71676   5.343  -0.189   5.690  0.0765  0.2232 -0.9642
  531MOL0     H71677   5.096  -0.146   5.667 -2.2919  1.3887  2.3734
  531MOL0     H71678   5.114  -0.013   5.763 -0.0350  1.0510 -2.7694
  531MOL0     H71679   5.229  -0.187   5.924 -1.5336  3.6965  0.6605
  531MOL0     H71680   5.174  -0.313   5.806 -2.4357  1.0597 -2.3273
  531MOL0     H71681   4.931  -0.190   5.846 -2.2918  0.8653  2.8276
  531MOL0     H71682   5.004  -0.138   5.989  2.5951  2.4244 -2.6140
  531MOL0     H71683   4.945  -0.534   6.086 -1.2607  0.9901  1.7188
  531MOL0     H71684   5.470   0.173   5.939 -1.4563 -1.4460 -0.4019
  531MOL0     H71685   5.718   0.187   5.984  0.1754  0.4193 -0.2148
  532MOL0     O71686   2.855   9.688   4.101  0.0154 -0.0719 -0.1101
  532MOL0     C71687   2.904   9.611   4.014  0.3188 -0.4494 -0.1850
  532MOL0     O71688   2.830   9.547   3.925 -0.1854  0.8529 -0.6890
  532MOL0     C71689   2.698   9.585   3.908  0.6659  0.9782 -0.0276
  532MOL0     C71690   2.671   9.699   3.824  1.2257  0.3187 -0.3784
  532MOL0     C71691   2.535   9.725   3.798  0.2496 -0.6784 -0.3509
  532MOL0     C71692   2.429   9.647   3.846  1.0428 -0.3041 -0.9064
  532MOL0     O71693   2.294   9.693   3.821  0.1009  0.3034  0.3048
  532MOL0     C71694   2.179   9.622   3.868 -0.9476  0.0893 -0.4664
  532MOL0     C71695   2.065   9.647   3.772 -0.1500  0.4079 -0.5910
  532MOL0     C71696   1.926   9.614   3.838  0.4554 -0.4183 -0.0294
  532MOL0     C71697   1.814   9.609   3.730 -0.3677  0.6272 -0.4834
  532MOL0     C71698   1.678   9.574   3.798 -1.2419 -0.1839  0.3566
  532MOL0     C71699   1.578   9.585   3.686 -0.4520 -0.3294  0.5576
  532MOL0     C71700   1.446   9.548   3.728  0.1198  0.5030  0.6981
  532MOL0     C71701   1.359   9.542   3.614  0.4354  0.0163  0.7197
  532MOL0     N71702   1.219   9.514   3.661 -0.7277 -0.4150  0.1800
  532MOL0     C71703   1.134   9.610   3.714  0.1077  0.0981  0.4338
  532MOL0     C71704   1.038   9.535   3.787  0.2796 -0.2378 -1.0044
  532MOL0     C71705   0.925   9.603   3.864 -1.4781 -0.1865 -0.1942
  532MOL0     C71706   0.811   9.628   3.767 -0.2046 -0.4128 -0.2884
  532MOL0     C71707   0.698   9.707   3.826 -0.7946  0.0344  0.1353
  532MOL0     C71708   0.577   9.626   3.849 -0.2387  0.1944 -0.2331
  532MOL0     O71709   0.472   9.717   3.888 -0.2439 -0.1054  0.3934
  532MOL0     C71710   0.352   9.666   3.905 -0.1449 -0.1711 -0.4624
  532MOL0     C71711   0.312   9.534   3.864 -0.0068 -0.1485  0.4115
  532MOL0     C71712   0.181   9.482   3.879 -0.6523  0.7929  0.1726
  532MOL0     C71713   0.152   9.337   3.836  0.6811  0.1179  0.6000
  532MOL0     C71714   0.094   9.557   3.953  0.7143 -0.9565  0.5550
  532MOL0     C71715  -0.038   9.506   4.002  0.2668  0.0223 -0.3495
  532MOL0     O71716  -0.132   9.607   4.020 -0.0353 -0.1423 -0.5527
  532MOL0     C71717  -0.248   9.577   4.072 -0.3926  0.8712 -0.4107
  532MOL0     C71718  -0.340   9.502   3.997 -0.3903  0.6121 -0.2868
  532MOL0     C71719  -0.459   9.474   4.052 -0.3987  0.1381 -0.1631
  532MOL0     C71720  -0.502   9.519   4.177  1.0386 -0.2236 -0.3285
  532MOL0     O71721  -0.623   9.518   4.230  0.0506  0.2544  0.2431
  532MOL0     C71722  -0.727   9.452   4.153 -0.2704  0.1625  0.4573
  532MOL0     C71723  -0.862   9.425   4.224  0.0973 -0.5761 -0.5010
  532MOL0     C71724  -0.921   9.563   4.277  0.1823 -0.4707  1.0580
  532MOL0     C71725  -1.060   9.534   4.340  0.1707 -0.5199 -0.4198
  532MOL0     C71726  -1.130   9.665   4.396  0.3847 -0.6212  0.7173
  532MOL0     C71727  -1.173   9.751   4.278 -0.4063 -0.7394  0.0083
  532MOL0     C71728  -1.229   9.885   4.315 -0.4141  0.4728 -0.5421
  532MOL0     C71729  -1.327   9.938   4.212  0.4346  0.2143  0.3610
  532MOL0    Cl71730  -1.249   9.982   4.051 -0.2406  0.4131 -0.0495
  532MOL0     C71731  -0.407   9.590   4.254  1.4839  0.3283 -0.6941
  532MOL0     C71732  -0.280   9.616   4.207 -0.5584 -0.2892  0.8761
  532MOL0     O71733  -0.055   9.388   4.023  0.0571  0.1881  0.2676
  532MOL0     C71734   0.130   9.684   3.994 -0.1491 -0.4752 -0.5365
  532MOL0     C71735   0.257   9.746   3.963  0.3577 -0.2555 -0.3969
  532MOL0     N71736   1.068   9.405   3.770 -0.1564  0.1553 -0.1557
  532MOL0     N71737   1.179   9.393   3.703  0.4870 -0.5482  0.6855
  532MOL0     C71738   2.466   9.529   3.919  0.6707  0.6426  0.7038
  532MOL0     C71739   2.593   9.493   3.950  0.9843 -0.1338 -0.7921
  532MOL0     C71740   3.046   9.577   4.021 -0.7244  0.2429  0.5248
  532MOL0     C71741   3.099   9.474   3.951 -0.2282  0.4244 -0.0747
  532MOL0     C71742   3.239   9.436   3.960  0.1204  0.1329 -0.2925
  532MOL0     C71743   3.323   9.500   4.056  0.1567 -0.0471  0.7892
  532MOL0     O71744   3.447   9.452   4.059 -0.2686  0.2675  0.0273
  532MOL0     C71745   3.552   9.512   4.137  0.6587 -0.2210 -0.1625
  532MOL0     C71746   3.689   9.452   4.109  0.0073 -0.2142 -0.2864
  532MOL0     C71747   3.728   9.467   3.967 -1.1329 -0.2092  0.1284
  532MOL0     C71748   3.879   9.501   3.941  0.7713  0.1653 -0.6575
  532MOL0     C71749   3.962   9.383   3.968 -0.6727  0.2409  0.2456
  532MOL0     C71750   4.033   9.281   3.990 -0.0830 -0.4323 -0.0287
  532MOL0     C71751   3.271   9.612   4.121  0.9482  0.8607  0.5485
  532MOL0     C71752   3.138   9.656   4.100  0.0721  0.4082 -0.2107
  532MOL0     H71753   2.755   9.762   3.796  1.0089  0.2350 -1.2209
  532MOL0     H71754   2.508   9.817   3.747 -5.3785 -0.2688  2.5688
  532MOL0     H71755   2.194   9.514   3.880 -1.4894  0.3060  3.4976
  532MOL0     H71756   2.158   9.662   3.968  0.9428 -1.3266  0.5845
  532MOL0     H71757   2.066   9.747   3.726  1.3877  0.1808 -1.1006
  532MOL0     H71758   2.074   9.571   3.694  2.0128  0.4820 -0.4614
  532MOL0     H71759   1.921   9.519   3.893 -2.3883  0.0089  0.5910
  532MOL0     H71760   1.888   9.688   3.908  0.1396  0.6896 -1.3286
  532MOL0     H71761   1.812   9.709   3.685 -1.4110  1.9571  2.2743
  532MOL0     H71762   1.844   9.526   3.666 -1.5423  1.1290 -1.7342
  532MOL0     H71763   1.700   9.472   3.831  0.0131 -0.5263 -1.3928
  532MOL0     H71764   1.656   9.642   3.881  1.2330  0.2797  0.7124
  532MOL0     H71765   1.572   9.689   3.653 -0.5007 -0.2787  0.7232
  532MOL0     H71766   1.616   9.525   3.603  0.2096 -0.0192  0.6246
  532MOL0     H71767   1.436   9.452   3.779 -2.7193 -0.4566 -1.3856
  532MOL0     H71768   1.409   9.628   3.793  0.1458 -0.3470  1.7883
  532MOL0     H71769   1.390   9.468   3.539 -0.4678  1.8359 -1.5571
  532MOL0     H71770   1.349   9.633   3.554 -2.3934  0.4149  1.6225
  532MOL0     H71771   1.134   9.718   3.704  1.9433  0.0739 -0.0922
  532MOL0     H71772   0.886   9.536   3.942 -0.3940 -1.4479 -0.6871
  532MOL0     H71773   0.960   9.700   3.902 -1.1255  0.4201 -1.9857
  532MOL0     H71774   0.773   9.530   3.738 -1.2826 -0.3259  0.7430
  532MOL0     H71775   0.852   9.691   3.688  0.0890  0.9114  0.8734
  532MOL0     H71776   0.681   9.790   3.758  0.1140  0.9088  0.9343
  532MOL0     H71777   0.718   9.755   3.922 -2.4858  1.9099 -0.3883
  532MOL0     H71778   0.597   9.564   3.937  0.1958 -0.8258 -1.0295
  532MOL0     H71779   0.558   9.566   3.759  0.3688 -1.7499  0.8674
  532MOL0     H71780   0.377   9.460   3.818 -2.7808 -0.9370 -2.6569
  532MOL0     H71781   0.209   9.298   3.752 -3.7969  0.4565 -2.9316
  532MOL0     H71782   0.170   9.275   3.924 -0.8414 -1.4569 -0.1555
  532MOL0     H71783   0.047   9.318   3.815  1.2112 -1.1775 -1.0444
  532MOL0     H71784  -0.332   9.461   3.897  0.2165 -1.0206  0.3977
  532MOL0     H71785  -0.539   9.432   3.992 -0.9825  2.0274 -0.7880
  532MOL0     H71786  -0.751   9.521   4.072 -3.1160  1.0316  1.9135
  532MOL0     H71787  -0.689   9.361   4.105 -2.7883  0.2452 -1.9109
  532MOL0     H71788  -0.932   9.362   4.169 -1.5702  0.8561 -0.0927
  532MOL0     H71789  -0.841   9.369   4.316 -0.1640  1.3562  0.7809
  532MOL0     H71790  -0.927   9.632   4.193 -2.1707 -1.4165  0.3677
  532MOL0     H71791  -0.842   9.600   4.344  3.1262 -1.7621 -1.4679
  532MOL0     H71792  -1.129   9.494   4.265 -1.3108 -1.8611  1.5526
  532MOL0     H71793  -1.048   9.460   4.420  0.0254  0.0404  0.1261
  532MOL0     H71794  -1.066   9.721   4.465  0.2713  0.5660 -0.1158
  532MOL0     H71795  -1.222   9.633   4.444 -1.1177  0.2151 -1.4471
  532MOL0     H71796  -1.089   9.768   4.210  1.9833 -4.1384  1.8271
  532MOL0     H71797  -1.252   9.695   4.227  0.0984  0.5133 -2.3218
  532MOL0     H71798  -1.152   9.959   4.339  1.5277 -1.1867 -1.4519
  532MOL0     H71799  -1.282   9.859   4.407  2.0905  0.7846  1.0606
  532MOL0     H71800  -1.378  10.031   4.242 -1.1346  0.3832 -2.5007
  532MOL0     H71801  -1.401   9.862   4.184 -1.2012  1.9707 -0.3783
  532MOL0     H71802  -0.440   9.621   4.352 -2.1839 -1.2398 -1.2710
  532MOL0     H71803  -0.206   9.679   4.254  0.2098  0.6532 -1.4254
  532MOL0     H71804   0.055   9.746   4.043 -1.4980 -0.3145 -2.7012
  532MOL0     H71805   0.277   9.850   3.986 -4.7149  0.7034  0.9609
  532MOL0     H71806   2.379   9.473   3.949 -1.0405  1.8882 -1.6316
  532MOL0     H71807   2.612   9.408   4.013 -2.3650 -1.1064 -0.9055
  532MOL0     H71808   3.038   9.418   3.880 -0.2550  3.6013 -2.8172
  532MOL0     H71809   3.284   9.365   3.891  0.2959 -0.8170  0.7725
  532MOL0     H71810   3.565   9.616   4.103  2.0478 -0.5476 -0.7336
  532MOL0     H71811   3.532   9.511   4.244  0.6992 -2.9955 -0.1073
  532MOL0     H71812   3.689   9.347   4.139 -1.8680  0.3733  2.0653
  532MOL0     H71813   3.764   9.502   4.170  0.5553 -1.3576  0.0044
  532MOL0     H71814   3.672   9.548   3.919  0.0103 -2.5329 -5.9118
  532MOL0     H71815   3.695   9.387   3.901 -0.3409  3.4732 -5.3846
  532MOL0     H71816   3.905   9.590   3.999  0.5892  0.6628 -1.3370
  532MOL0     H71817   3.890   9.526   3.835  2.7758 -0.6282 -0.6854
  532MOL0     H71818   4.096   9.198   4.015 -0.2798 -1.0796 -1.5981
  532MOL0     H71819   3.343   9.667   4.182  0.5347  1.8421  0.1648
  532MOL0     H71820   3.111   9.728   4.177  0.4786 -0.7005  1.0076
  533MOL0     O71821   1.711   1.398   5.148 -0.6326  0.0704  0.2026
  533MOL0     C71822   1.722   1.521   5.121 -0.3553  0.1420 -0.4001
  533MOL0     O71823   1.625   1.610   5.109 -0.4215  0.0860 -0.1989
  533MOL0     C71824   1.492   1.581   5.115  0.0695 -0.1830 -0.3775
  533MOL0     C71825   1.436   1.473   5.046  0.0730 -0.3487 -0.2811
  533MOL0     C71826   1.294   1.480   5.026 -0.0691  0.1518  0.2484
  533MOL0     C71827   1.210   1.581   5.075  0.0773  0.5582 -0.2452
  533MOL0     O71828   1.078   1.588   5.040 -0.2871  0.3973 -0.4014
  533MOL0     C71829   0.996   1.472   5.027 -0.1252  0.4777  0.1798
  533MOL0     C71830   0.861   1.500   4.972 -0.2882 -0.1369 -0.1636
  533MOL0     C71831   0.748   1.443   5.049 -0.1887  0.5476 -0.2931
  533MOL0     C71832   0.624   1.512   5.001  0.2202  0.3595 -0.4633
  533MOL0     C71833   0.501   1.429   5.057 -0.5250  0.2820 -0.5783
  533MOL0     C71834   0.374   1.501   5.056 -0.0227 -0.1944 -0.1571
  533MOL0     C71835   0.259   1.450   5.142 -0.2241  0.0162  0.9143
  533MOL0     C71836   0.133   1.531   5.113 -0.2746  0.1319 -0.0838
  533MOL0     N71837   0.038   1.467   5.021  0.3445 -0.3028  0.0111
  533MOL0     C71838  -0.081   1.527   4.992  0.4085  0.2576  0.4232
  533MOL0     C71839  -0.147   1.433   4.911  1.4329 -0.0171  0.1637
  533MOL0     C71840  -0.296   1.425   4.877 -0.7298 -0.0122 -0.4874
  533MOL0     C71841  -0.343   1.307   4.777  0.8838  0.1901  0.0859
  533MOL0     C71842  -0.500   1.296   4.746 -0.0262 -0.1450  0.0651
  533MOL0     C71843  -0.527   1.167   4.665  0.4175  0.5701  0.1854
  533MOL0     O71844  -0.662   1.160   4.632  0.5690  0.3848  0.3252
  533MOL0     C71845  -0.704   1.205   4.512  0.4139  0.7124 -0.8849
  533MOL0     C71846  -0.846   1.229   4.505 -0.5950 -0.3089  0.1211
  533MOL0     C71847  -0.905   1.280   4.392  1.2813  0.2379 -0.5226
  533MOL0     C71848  -1.054   1.287   4.395  0.1512 -0.3965  0.3320
  533MOL0     C71849  -0.830   1.311   4.277 -0.4654 -0.2333 -0.8395
  533MOL0     C71850  -0.893   1.370   4.160 -0.0182  0.1978  0.7598
  533MOL0     O71851  -1.018   1.339   4.123  0.8050  0.0305 -0.2903
  533MOL0     C71852  -1.074   1.365   3.997  0.2653 -0.1395 -0.0085
  533MOL0     C71853  -1.007   1.398   3.877 -0.3308  1.1131  0.6414
  533MOL0     C71854  -1.076   1.426   3.752  0.5637 -0.3730  0.4006
  533MOL0     C71855  -1.212   1.400   3.743  0.5052 -0.1511 -0.2301
  533MOL0     O71856  -1.283   1.400   3.627 -0.1142  0.5105  0.7460
  533MOL0     C71857  -1.232   1.309   3.528 -0.0236 -0.3635 -0.1710
  533MOL0     C71858  -1.344   1.282   3.421  0.5564 -0.1170  0.1744
  533MOL0     C71859  -1.289   1.252   3.279 -0.1589  0.1884 -0.3417
  533MOL0     C71860  -1.407   1.214   3.182  0.5107 -1.1090 -0.3199
  533MOL0     C71861  -1.340   1.178   3.050  0.4727  1.0281 -1.0640
  533MOL0     C71862  -1.438   1.164   2.933  0.9078  0.0091 -0.2826
  533MOL0     C71863  -1.511   1.028   2.938  0.3846  0.1883 -0.6052
  533MOL0     C71864  -1.613   1.021   2.826  0.4128  0.1990 -0.3737
  533MOL0    Cl71865  -1.743   1.148   2.858 -0.0424  0.1835  0.2315
  533MOL0     C71866  -1.279   1.362   3.861 -0.9709  0.1715 -0.0570
  533MOL0     C71867  -1.215   1.352   3.987  0.4015  0.2720 -0.3821
  533MOL0     O71868  -0.823   1.449   4.101  0.5579  0.7363  0.0842
  533MOL0     C71869  -0.687   1.296   4.284 -0.3915  0.0231 -1.0535
  533MOL0     C71870  -0.631   1.238   4.402 -0.1891  0.2309 -0.4624
  533MOL0     N71871  -0.059   1.328   4.884 -0.0548  0.3751  0.2619
  533MOL0     N71872   0.057   1.353   4.946  0.7799 -0.4301 -0.0835
  533MOL0     C71873   1.265   1.687   5.159 -0.3208 -0.4578 -0.5562
  533MOL0     C71874   1.408   1.686   5.177  0.3563  0.1691 -0.5357
  533MOL0     C71875   1.870   1.565   5.112 -0.4497 -0.6006  0.5586
  533MOL0     C71876   1.984   1.476   5.141 -0.0483 -0.5748  0.1311
  533MOL0     C71877   2.115   1.523   5.148 -0.2796  0.6700 -0.0559
  533MOL0     C71878   2.145   1.655   5.119  0.6075 -0.3100  0.3998
  533MOL0     O71879   2.278   1.689   5.152 -0.7313  0.0730  0.3192
  533MOL0     C71880   2.308   1.835   5.153 -0.6400 -0.3788 -0.3810
  533MOL0     C71881   2.462   1.859   5.139 -0.1571  0.5053  0.4523
  533MOL0     C71882   2.508   1.983   5.201  0.0587 -0.0281  0.4906
  533MOL0     C71883   2.651   2.020   5.152  0.3548  0.0824  0.0890
  533MOL0     C71884   2.690   2.132   5.237  0.6857 -0.2643 -0.9123
  533MOL0     C71885   2.719   2.232   5.297 -0.3359 -0.7700 -0.4319
  533MOL0     C71886   2.035   1.745   5.077  0.3330 -0.0978 -0.2023
  533MOL0     C71887   1.904   1.702   5.080  0.0403 -0.7967 -0.5285
  533MOL0     H71888   1.501   1.395   5.009  0.5151 -0.6055  1.0061
  533MOL0     H71889   1.254   1.409   4.955  1.2418  0.5180 -0.8936
  533MOL0     H71890   1.039   1.394   4.964  0.4652 -0.2871  1.4796
  533MOL0     H71891   0.993   1.422   5.124  0.8623  0.2673  0.1027
  533MOL0     H71892   0.851   1.609   4.971  1.1302  0.0285  0.5048
  533MOL0     H71893   0.854   1.458   4.871  1.2228 -2.1018  0.4725
  533MOL0     H71894   0.735   1.334   5.042  1.0179  0.2581  1.4216
  533MOL0     H71895   0.755   1.475   5.153 -1.0433  1.8307 -0.6086
  533MOL0     H71896   0.631   1.616   5.033 -0.5855  0.2127  0.2338
  533MOL0     H71897   0.624   1.512   4.891  3.9292  0.1161 -0.5937
  533MOL0     H71898   0.495   1.328   5.016 -1.5835 -0.3163  0.9444
  533MOL0     H71899   0.523   1.413   5.163  0.6741 -0.0238 -0.8578
  533MOL0     H71900   0.390   1.597   5.106 -1.0503 -0.1609  0.1364
  533MOL0     H71901   0.344   1.528   4.954 -0.4159  0.1385  0.0454
  533MOL0     H71902   0.247   1.341   5.133 -0.3874  0.0808  0.2837
  533MOL0     H71903   0.284   1.457   5.248  0.8539 -3.5392  1.0201
  533MOL0     H71904   0.150   1.633   5.077 -2.7497  1.0798  1.2054
  533MOL0     H71905   0.080   1.537   5.209  0.0970  1.5787  0.0477
  533MOL0     H71906  -0.135   1.613   5.032  0.1103  1.4571 -2.3351
  533MOL0     H71907  -0.354   1.420   4.970  0.7997 -0.9244  0.4521
  533MOL0     H71908  -0.322   1.521   4.832  1.3641  1.8596  2.0423
  533MOL0     H71909  -0.307   1.212   4.816  0.0774 -1.4468 -2.8151
  533MOL0     H71910  -0.284   1.311   4.685  2.3295  2.0359  1.0227
  533MOL0     H71911  -0.519   1.381   4.681  0.7210  1.0055  1.2967
  533MOL0     H71912  -0.556   1.302   4.840 -0.4970 -2.5118 -0.0116
  533MOL0     H71913  -0.498   1.075   4.715  0.7293 -1.3135 -3.1307
  533MOL0     H71914  -0.461   1.169   4.578 -2.5472 -1.1786 -2.3221
  533MOL0     H71915  -0.904   1.214   4.595 -0.7226 -0.9278 -0.0598
  533MOL0     H71916  -1.082   1.391   4.374 -1.1757 -0.7477  0.2914
  533MOL0     H71917  -1.102   1.217   4.326  2.1086 -1.7068  0.2418
  533MOL0     H71918  -1.092   1.269   4.496  0.6981  0.0703  0.6266
  533MOL0     H71919  -0.901   1.420   3.881 -0.3678  1.2461  1.0048
  533MOL0     H71920  -1.021   1.452   3.663 -2.4498 -4.3375 -2.9854
  533MOL0     H71921  -1.146   1.357   3.479  0.0338  0.8152  1.0254
  533MOL0     H71922  -1.204   1.215   3.577 -2.3027 -0.9143  0.1851
  533MOL0     H71923  -1.412   1.201   3.446  3.4525 -3.2929 -1.4294
  533MOL0     H71924  -1.401   1.373   3.399 -0.3379 -1.1156 -1.9361
  533MOL0     H71925  -1.212   1.175   3.283 -0.4694 -0.0824  2.1890
  533MOL0     H71926  -1.240   1.341   3.239  0.4589  0.0525  0.1221
  533MOL0     H71927  -1.469   1.132   3.217 -0.0545  0.1466  1.7915
  533MOL0     H71928  -1.469   1.302   3.162  1.6730 -0.3533 -0.7354
  533MOL0     H71929  -1.295   1.081   3.074  0.6721  1.9888  3.4188
  533MOL0     H71930  -1.263   1.245   3.014 -1.1990  2.3099 -2.4085
  533MOL0     H71931  -1.505   1.251   2.938 -0.8622 -1.0023 -3.5412
  533MOL0     H71932  -1.389   1.174   2.835 -1.6444  2.0705 -1.4690
  533MOL0     H71933  -1.565   1.020   3.032  1.0736 -1.9081 -0.3442
  533MOL0     H71934  -1.439   0.946   2.938 -0.8698 -1.0253  2.3621
  533MOL0     H71935  -1.662   0.924   2.827  0.1824  0.2836 -1.7624
  533MOL0     H71936  -1.561   1.056   2.736  1.1155  0.0813 -0.0213
  533MOL0     H71937  -1.387   1.346   3.856 -0.5961 -2.3902 -2.4537
  533MOL0     H71938  -1.285   1.324   4.064  0.2899 -0.0346 -0.5919
  533MOL0     H71939  -0.628   1.317   4.195  0.8080  0.9671 -0.0683
  533MOL0     H71940  -0.523   1.228   4.399 -0.1589  0.7179 -1.2523
  533MOL0     H71941   1.201   1.767   5.194  1.6089  0.7998  0.2923
  533MOL0     H71942   1.453   1.775   5.220  0.3482 -0.2078  0.2610
  533MOL0     H71943   1.959   1.371   5.156 -3.8293 -0.0555 -1.3180
  533MOL0     H71944   2.197   1.456   5.171 -1.0311 -0.1400  0.3055
  533MOL0     H71945   2.250   1.891   5.079  1.9173  0.8885 -1.5503
  533MOL0     H71946   2.280   1.866   5.254  0.8081  1.4591 -0.4901
  533MOL0     H71947   2.491   1.874   5.034 -0.3480  1.6939  0.5573
  533MOL0     H71948   2.509   1.771   5.183 -3.8916 -1.7190  0.4246
  533MOL0     H71949   2.508   1.963   5.309  0.6761 -0.2940  0.4434
  533MOL0     H71950   2.432   2.059   5.182 -0.4796 -0.2845  1.5155
  533MOL0     H71951   2.651   2.052   5.048  0.5663  0.9437  0.3506
  533MOL0     H71952   2.717   1.933   5.168  0.7553  0.3401 -0.1491
  533MOL0     H71953   2.742   2.326   5.342  0.5052  0.6659 -3.5637
  533MOL0     H71954   2.042   1.851   5.056 -2.1597  0.2123  0.2313
  533MOL0     H71955   1.820   1.769   5.064 -0.3167 -1.0469  0.2546
  534MOL0     O71956   8.537   5.994   9.205 -0.7421 -0.3404  0.4807
  534MOL0     C71957   8.461   6.009   9.108 -0.3366  0.4556  0.1163
  534MOL0     O71958   8.503   5.999   8.976  0.1779  0.9743  0.2149
  534MOL0     C71959   8.641   6.004   8.962  0.3794  0.2838  0.0218
  534MOL0     C71960   8.721   5.886   8.953 -0.9303 -0.6346 -0.7044
  534MOL0     C71961   8.865   5.912   8.942  0.3471  0.1497  0.0413
  534MOL0     C71962   8.913   6.035   8.954  0.2761 -0.0368  0.5436
  534MOL0     O71963   9.045   6.076   8.964  0.1698  0.0125 -0.5630
  534MOL0     C71964   9.141   5.998   8.891 -0.3015  0.4176 -0.4580
  534MOL0     C71965   9.264   6.092   8.880 -0.1766 -0.3394 -0.1717
  534MOL0     C71966   9.376   6.032   8.790  0.0067  0.8708 -0.1417
  534MOL0     C71967   9.479   6.143   8.756 -0.3564  0.7263  0.4601
  534MOL0     C71968   9.603   6.081   8.687  1.1282  0.4997 -0.9499
  534MOL0     C71969   9.716   6.174   8.657  0.0543 -0.7090 -0.1805
  534MOL0     C71970   9.852   6.096   8.643 -0.9503  0.0239 -0.1783
  534MOL0     C71971   9.971   6.189   8.660  0.4162  0.6831 -0.6806
  534MOL0     N71972   9.985   6.286   8.549 -0.7179 -0.6696 -0.5825
  534MOL0     C71973   9.953   6.260   8.422 -0.2357 -0.3704  0.6611
  534MOL0     C71974   9.956   6.381   8.359  0.0388  0.4797  0.6151
  534MOL0     C71975   9.901   6.410   8.222 -0.5715 -0.9608 -0.7860
  534MOL0     C71976   9.940   6.326   8.101 -0.7131  0.0271  0.5719
  534MOL0     C71977   9.812   6.332   8.004  0.5347 -0.1387  0.3314
  534MOL0     C71978   9.831   6.233   7.893  0.0317  1.0276  0.6651
  534MOL0     O71979   9.728   6.250   7.797  0.6196  0.8096  0.1404
  534MOL0     C71980   9.596   6.208   7.816  0.1055 -0.5446 -0.0641
  534MOL0     C71981   9.566   6.089   7.885  0.0085 -0.5722 -0.0833
  534MOL0     C71982   9.443   6.033   7.904 -0.5194  0.6337  0.9016
  534MOL0     C71983   9.434   5.904   7.972 -0.0150  0.2588 -0.8458
  534MOL0     C71984   9.333   6.102   7.844  0.6384  0.5537  0.4686
  534MOL0     C71985   9.194   6.058   7.849 -0.4650 -0.6898  0.6990
  534MOL0     O71986   9.121   6.062   7.739  0.0417 -0.6516 -0.5853
  534MOL0     C71987   9.003   5.986   7.744  0.1076  0.8938  0.8215
  534MOL0     C71988   8.888   6.053   7.711  0.7376 -0.1912 -0.4539
  534MOL0     C71989   8.767   5.989   7.713  0.0644  0.2990 -0.7973
  534MOL0     C71990   8.763   5.851   7.739 -0.0117 -0.2317  0.8936
  534MOL0     O71991   8.642   5.780   7.745 -0.2460 -0.4879  0.0571
  534MOL0     C71992   8.533   5.837   7.826  0.1668  0.6588  0.8257
  534MOL0     C71993   8.404   5.760   7.799 -0.2152  0.0907  0.2884
  534MOL0     C71994   8.410   5.614   7.847  0.0775 -0.8664 -0.0454
  534MOL0     C71995   8.303   5.570   7.947 -0.2611  0.1560  0.0999
  534MOL0     C71996   8.160   5.590   7.889  0.0031 -0.1129 -0.2203
  534MOL0     C71997   8.125   5.513   7.767 -0.0480  0.2025 -0.1206
  534MOL0     C71998   7.972   5.506   7.744  0.0090 -0.1716 -0.0724
  534MOL0     C71999   7.948   5.438   7.616 -0.2746  0.3439 -0.2284
  534MOL0    Cl72000   7.776   5.418   7.600 -0.1344 -0.1838  0.2142
  534MOL0     C72001   8.882   5.781   7.758 -0.1683 -0.2750  0.0166
  534MOL0     C72002   9.000   5.850   7.759 -0.0822  0.5554 -0.3428
  534MOL0     O72003   9.151   6.038   7.964  0.3520 -0.5462 -0.7704
  534MOL0     C72004   9.356   6.230   7.782  0.4795 -0.3053  1.2840
  534MOL0     C72005   9.487   6.280   7.771 -0.1619  0.1840  0.0843
  534MOL0     N72006   9.988   6.478   8.457  0.4525  0.4440  0.7961
  534MOL0     N72007  10.004   6.419   8.567  0.3482 -0.9454 -0.2198
  534MOL0     C72008   8.827   6.146   8.959 -0.7037  0.3315 -0.2808
  534MOL0     C72009   8.688   6.137   8.956 -0.5641  0.0632 -0.2550
  534MOL0     C72010   8.320   6.061   9.134 -0.0107  0.1803  0.2400
  534MOL0     C72011   8.231   6.074   9.031  0.2503  0.0748  0.1248
  534MOL0     C72012   8.098   6.121   9.064 -0.6524  1.0048  0.9125
  534MOL0     C72013   8.062   6.166   9.188 -0.9153  0.1059 -0.4359
  534MOL0     O72014   7.945   6.225   9.208 -0.0981 -0.4486 -0.2271
  534MOL0     C72015   7.868   6.179   9.314 -0.0082  0.2135 -1.0657
  534MOL0     C72016   7.708   6.212   9.283 -0.2179 -0.0874 -0.5745
  534MOL0     C72017   7.660   6.157   9.143 -0.5138  0.4844  0.0088
  534MOL0     C72018   7.515   6.205   9.118 -0.1554 -0.6792 -0.6285
  534MOL0     C72019   7.435   6.095   9.176 -1.0978  0.4058  0.6771
  534MOL0     C72020   7.384   6.008   9.242  0.6947  0.3899  0.7450
  534MOL0     C72021   8.149   6.152   9.293 -0.5541 -0.4716 -0.2228
  534MOL0     C72022   8.273   6.095   9.267 -0.1279 -0.7250 -0.0960
  534MOL0     H72023   8.684   5.785   8.964  1.9513 -1.4742  5.0399
  534MOL0     H72024   8.924   5.822   8.931 -1.4152 -1.0393 -0.1283
  534MOL0     H72025   9.170   5.904   8.939 -2.9864 -1.3517 -2.0715
  534MOL0     H72026   9.092   5.983   8.795 -1.5778  0.8510  0.1025
  534MOL0     H72027   9.232   6.189   8.842  1.8436  0.0633 -0.9895
  534MOL0     H72028   9.312   6.111   8.976  2.4228  1.8551 -1.7711
  534MOL0     H72029   9.425   5.946   8.837 -0.3545  0.7664  0.0527
  534MOL0     H72030   9.332   6.000   8.695  2.3617 -2.0429 -0.3765
  534MOL0     H72031   9.439   6.221   8.692  0.0420  1.2515  0.8383
  534MOL0     H72032   9.498   6.190   8.854 -1.6287  0.3752  0.8930
  534MOL0     H72033   9.632   6.002   8.757 -0.5696  1.2662  0.7035
  534MOL0     H72034   9.580   6.029   8.594  1.1695  0.1639 -0.7736
  534MOL0     H72035   9.695   6.229   8.565 -0.4789 -1.9929 -0.8334
  534MOL0     H72036   9.724   6.245   8.740 -2.4384  0.1153 -0.5502
  534MOL0     H72037   9.861   6.014   8.715 -0.3561 -0.1588 -0.4553
  534MOL0     H72038   9.862   6.050   8.544 -0.4250  1.6979 -0.9529
  534MOL0     H72039  10.061   6.127   8.665 -0.0550  0.1099  1.9329
  534MOL0     H72040   9.957   6.223   8.763 -2.0393 -1.5570 -0.1635
  534MOL0     H72041   9.935   6.164   8.377  3.7103 -0.5876 -0.8401
  534MOL0     H72042   9.793   6.409   8.235 -0.5623 -1.0947 -0.7213
  534MOL0     H72043   9.924   6.515   8.199 -1.3446 -0.2154  1.5576
  534MOL0     H72044   9.961   6.223   8.131  4.3824  0.8619  0.7014
  534MOL0     H72045  10.032   6.364   8.057  0.0302 -0.5079  1.6129
  534MOL0     H72046   9.799   6.428   7.954  1.0149  0.2612  0.9477
  534MOL0     H72047   9.721   6.324   8.064  1.1512  0.0131  1.3258
  534MOL0     H72048   9.842   6.128   7.921 -0.5473  0.0937 -2.2731
  534MOL0     H72049   9.932   6.247   7.853  0.8368 -2.4649  1.1586
  534MOL0     H72050   9.642   6.032   7.937 -3.1184 -2.9143  2.2675
  534MOL0     H72051   9.396   5.820   7.913 -1.9502  0.2281  0.3443
  534MOL0     H72052   9.527   5.872   8.020  1.0124  0.4859 -2.6058
  534MOL0     H72053   9.362   5.906   8.055  1.3499  1.2757  0.3578
  534MOL0     H72054   8.903   6.158   7.689 -1.0808 -0.0405 -1.0580
  534MOL0     H72055   8.674   6.042   7.701  1.0211  2.3230  0.2014
  534MOL0     H72056   8.551   5.829   7.933  3.8679 -1.3227  0.2066
  534MOL0     H72057   8.506   5.938   7.791 -0.7863 -0.3012 -1.4125
  534MOL0     H72058   8.316   5.816   7.834 -1.2881 -0.8394 -0.8227
  534MOL0     H72059   8.402   5.753   7.690 -0.7195  0.2865  0.2805
  534MOL0     H72060   8.505   5.597   7.898  0.6890  0.1418 -0.8011
  534MOL0     H72061   8.403   5.564   7.750  0.1739 -0.6203 -0.1794
  534MOL0     H72062   8.314   5.462   7.964  2.4251  0.0859 -1.5066
  534MOL0     H72063   8.316   5.615   8.046  1.2661  2.2589 -0.9934
  534MOL0     H72064   8.143   5.698   7.884 -0.4971 -0.0191  2.3032
  534MOL0     H72065   8.105   5.554   7.977  2.0597 -0.4172  1.0145
  534MOL0     H72066   8.179   5.552   7.680  2.2410 -1.1295  0.6132
  534MOL0     H72067   8.152   5.408   7.776 -1.8674 -0.3398 -0.5458
  534MOL0     H72068   7.924   5.603   7.734 -0.3447 -0.3313  0.0450
  534MOL0     H72069   7.928   5.441   7.820  3.4697 -2.7847 -0.0259
  534MOL0     H72070   8.002   5.343   7.614 -1.7692 -0.7323  3.1300
  534MOL0     H72071   7.992   5.508   7.544  0.9608 -1.0171 -0.8397
  534MOL0     H72072   8.862   5.676   7.780 -0.9332 -0.6647 -2.2463
  534MOL0     H72073   9.093   5.800   7.787 -0.8227 -0.2075  0.8277
  534MOL0     H72074   9.282   6.292   7.732  1.2102 -1.5625 -1.5909
  534MOL0     H72075   9.515   6.375   7.726  5.0600 -0.8182  0.5480
  534MOL0     H72076   8.876   6.243   8.958  0.8980 -0.4417 -1.4475
  534MOL0     H72077   8.626   6.226   8.958  0.4788  0.8093 -0.2581
  534MOL0     H72078   8.270   6.055   8.932 -1.3659 -1.1622 -0.3098
  534MOL0     H72079   8.033   6.133   8.978  0.4015  0.8330  0.0646
  534MOL0     H72080   7.872   6.072   9.338  3.6995  0.4487 -0.0020
  534MOL0     H72081   7.893   6.234   9.406 -0.4110 -1.1887 -0.0847
  534MOL0     H72082   7.702   6.321   9.277  1.6657  0.0105 -1.2766
  534MOL0     H72083   7.640   6.190   9.366  2.5906 -0.1166  1.8726
  534MOL0     H72084   7.673   6.049   9.130 -1.3708  0.3288  0.3593
  534MOL0     H72085   7.720   6.211   9.069  0.7398  1.2045  1.5055
  534MOL0     H72086   7.494   6.212   9.011 -0.4433  0.4076 -0.5067
  534MOL0     H72087   7.491   6.303   9.158  1.5716 -0.6381  0.4251
  534MOL0     H72088   7.340   5.936   9.308 -1.9401  0.2218 -1.0521
  534MOL0     H72089   8.124   6.186   9.393 -0.6762  0.8164 -0.6781
  534MOL0     H72090   8.337   6.077   9.354 -2.8866 -0.0089  2.2178
  535MOL0     O72091  11.212   9.661   7.409 -0.1432 -0.4111  0.5369
  535MOL0     C72092  11.282   9.702   7.319  0.6053 -0.0213 -0.9414
  535MOL0     O72093  11.228   9.772   7.206 -0.0115  0.3303  0.0795
  535MOL0     C72094  11.112   9.829   7.231  0.5614  0.0817  0.0611
  535MOL0     C72095  11.097   9.945   7.301 -0.3310  0.5998 -0.2709
  535MOL0     C72096  10.966  10.004   7.323 -0.5432  0.0960 -0.1082
  535MOL0     C72097  10.849   9.931   7.282 -1.3234  0.9086  0.0143
  535MOL0     O72098  10.734   9.994   7.285  0.4246 -0.5474 -0.2102
  535MOL0     C72099  10.621   9.930   7.343 -0.0027 -0.7863  0.0727
  535MOL0     C72100  10.496   9.992   7.273  0.3832  1.4116 -0.7077
  535MOL0     C72101  10.470  10.125   7.338 -0.3514  0.7769  0.3001
  535MOL0     C72102  10.343  10.201   7.295  1.4573  0.7505 -0.2807
  535MOL0     C72103  10.344  10.342   7.350 -0.0800  0.0790  0.5488
  535MOL0     C72104  10.221  10.422   7.317 -0.3177 -0.1867 -0.1475
  535MOL0     C72105  10.185  10.533   7.414 -0.4049 -0.0617  0.8174
  535MOL0     C72106  10.268  10.655   7.390 -0.6967 -0.6553  0.1068
  535MOL0     N72107  10.193  10.768   7.455 -0.9745 -0.3949 -1.1461
  535MOL0     C72108  10.083  10.831   7.407 -0.8083 -0.3669  0.1397
  535MOL0     C72109  10.047  10.916   7.501  0.2911 -0.0751 -0.3193
  535MOL0     C72110   9.922  10.997   7.496  0.0961 -0.2896  0.4736
  535MOL0     C72111   9.792  10.917   7.476  0.3505  0.5514 -0.5322
  535MOL0     C72112   9.676  10.995   7.524 -0.5992  0.1295  0.0389
  535MOL0     C72113   9.543  10.925   7.543  0.3603  0.2661  1.1537
  535MOL0     O72114   9.441  11.025   7.530  0.4801  0.1135 -0.0893
  535MOL0     C72115   9.311  11.007   7.566 -0.4068  0.0609  0.4537
  535MOL0     C72116   9.254  10.886   7.606  0.9742  0.0284 -1.1912
  535MOL0     C72117   9.113  10.875   7.633 -0.7302 -0.4543  0.7041
  535MOL0     C72118   9.091  10.746   7.704 -0.3723 -0.1904 -0.6371
  535MOL0     C72119   9.033  10.995   7.619 -0.3861 -0.0376  0.5715
  535MOL0     C72120   8.893  11.007   7.663  0.2137 -0.1449 -0.0387
  535MOL0     O72121   8.857  11.132   7.683 -0.1714  0.1608 -0.5030
  535MOL0     C72122   8.725  11.154   7.723 -0.3438 -0.5539  0.8349
  535MOL0     C72123   8.639  11.221   7.637 -0.0251  0.1611 -0.1545
  535MOL0     C72124   8.505  11.250   7.661  0.8535  0.9672  0.2502
  535MOL0     C72125   8.448  11.200   7.776 -0.0431  0.1825 -0.7402
  535MOL0     O72126   8.318  11.227   7.815  0.5996 -0.3674  1.0527
  535MOL0     C72127   8.209  11.209   7.713 -0.0315 -0.5196 -0.2017
  535MOL0     C72128   8.074  11.257   7.777  0.4706  0.1992  0.8146
  535MOL0     C72129   7.963  11.229   7.675 -1.3743 -0.0995 -0.2571
  535MOL0     C72130   7.825  11.251   7.743 -0.6845 -0.6487 -0.0274
  535MOL0     C72131   7.707  11.211   7.646 -0.3370 -0.1680  0.2466
  535MOL0     C72132   7.577  11.206   7.720  0.5082  0.3244 -0.4835
  535MOL0     C72133   7.556  11.105   7.842 -0.2288  0.2444 -0.0776
  535MOL0     C72134   7.412  11.098   7.890  0.3277 -0.2937 -0.9207
  535MOL0    Cl72135   7.399  10.977   8.030  0.0548  0.1282 -0.6737
  535MOL0     C72136   8.529  11.132   7.866 -0.4527 -1.1869 -0.7965
  535MOL0     C72137   8.665  11.100   7.840 -0.2067 -0.5820 -0.2215
  535MOL0     O72138   8.829  10.909   7.696 -0.6246  0.3602  0.3511
  535MOL0     C72139   9.094  11.118   7.582 -0.5722  0.5520  0.4371
  535MOL0     C72140   9.228  11.120   7.545  0.4435 -0.1386  1.3420
  535MOL0     N72141  10.144  10.913   7.603 -0.5648 -0.3343 -0.6248
  535MOL0     N72142  10.233  10.821   7.576  0.4783 -0.2568  0.5374
  535MOL0     C72143  10.866   9.816   7.205  0.5771  0.6561 -0.7447
  535MOL0     C72144  10.993   9.770   7.178 -0.1284 -0.2702  0.2623
  535MOL0     C72145  11.424   9.662   7.309 -0.6447  0.5313 -0.2129
  535MOL0     C72146  11.493   9.625   7.424  0.6091  0.2987  0.0826
  535MOL0     C72147  11.628   9.583   7.421  1.0333  0.4690  0.5471
  535MOL0     C72148  11.695   9.595   7.299  0.3013 -0.1993  0.2307
  535MOL0     O72149  11.827   9.579   7.284 -0.0320  0.1290  0.6713
  535MOL0     C72150  11.899   9.625   7.394 -0.1037  0.2153  0.1722
  535MOL0     C72151  12.049   9.628   7.339  0.3276  0.1172 -0.3955
  535MOL0     C72152  12.108   9.490   7.312 -0.4160  0.1428  0.1901
  535MOL0     C72153  12.183   9.480   7.181  0.5054  0.2999 -0.8313
  535MOL0     C72154  12.109   9.523   7.065  0.9146  0.3367 -0.1572
  535MOL0     C72155  12.053   9.560   6.972  0.3793 -0.1781  0.0238
  535MOL0     C72156  11.634   9.631   7.174  0.7267  0.7619  0.1196
  535MOL0     C72157  11.498   9.667   7.186 -0.3945 -0.6650  0.9563
  535MOL0     H72158  11.180   9.999   7.345 -0.2789  1.2212 -1.1171
  535MOL0     H72159  10.947  10.097   7.376 -0.0497 -0.0367  0.3097
  535MOL0     H72160  10.616   9.823   7.321 -2.7347 -0.5874 -0.5958
  535MOL0     H72161  10.615   9.938   7.452 -0.5479  0.3799 -0.0237
  535MOL0     H72162  10.522   9.995   7.167  1.1818 -2.6169 -0.8004
  535MOL0     H72163  10.409   9.929   7.292  2.5256 -1.5336  0.2202
  535MOL0     H72164  10.488  10.118   7.446  2.3565  2.0806  0.0292
  535MOL0     H72165  10.556  10.190   7.316  0.9816 -0.8786  0.4381
  535MOL0     H72166  10.340  10.212   7.186 -1.4999 -2.7232 -0.7436
  535MOL0     H72167  10.250  10.157   7.331  1.0126  1.4977 -0.5030
  535MOL0     H72168  10.342  10.343   7.460 -1.3118 -0.6488  0.5498
  535MOL0     H72169  10.435  10.391   7.315 -0.3740  0.2714  0.0528
  535MOL0     H72170  10.223  10.445   7.210  0.7498 -0.3478 -0.1645
  535MOL0     H72171  10.138  10.350   7.320  0.5649 -1.2911 -1.0531
  535MOL0     H72172  10.080  10.552   7.390 -0.4433 -0.1941  0.8857
  535MOL0     H72173  10.197  10.499   7.517  1.1339  1.2153  1.1079
  535MOL0     H72174  10.279  10.683   7.285 -0.5696 -1.0149  0.0263
  535MOL0     H72175  10.367  10.645   7.436 -0.1270  0.0828 -0.9175
  535MOL0     H72176  10.038  10.805   7.311 -1.4055 -0.5934  0.4783
  535MOL0     H72177   9.918  11.058   7.586  0.6078 -0.7307  0.8022
  535MOL0     H72178   9.933  11.062   7.410 -1.7771  1.1333  1.2335
  535MOL0     H72179   9.797  10.829   7.541 -0.1818 -1.8693 -3.5411
  535MOL0     H72180   9.788  10.894   7.369  1.1666 -0.7388 -0.3134
  535MOL0     H72181   9.673  11.072   7.446 -0.7069 -1.3688 -1.5038
  535MOL0     H72182   9.709  11.037   7.619  0.4437  0.3480 -0.4046
  535MOL0     H72183   9.544  10.877   7.641 -1.2549  0.3484  1.2345
  535MOL0     H72184   9.533  10.847   7.466 -0.5570  0.4369  1.0817
  535MOL0     H72185   9.323  10.803   7.620  0.3783 -0.4919 -1.3132
  535MOL0     H72186   9.086  10.762   7.812  2.1690 -0.7804 -0.3667
  535MOL0     H72187   8.995  10.701   7.680 -0.3845  0.3931 -1.7475
  535MOL0     H72188   9.171  10.675   7.678 -1.0527 -1.1741 -0.1052
  535MOL0     H72189   8.672  11.273   7.548  0.0859  1.2371  0.4912
  535MOL0     H72190   8.448  11.308   7.589  1.1356  0.0705 -0.7250
  535MOL0     H72191   8.224  11.256   7.615 -1.9358  1.2188  0.2496
  535MOL0     H72192   8.191  11.103   7.695 -2.4533  0.0178 -1.3658
  535MOL0     H72193   8.056  11.199   7.868 -1.1880  1.4493  1.3228
  535MOL0     H72194   8.072  11.365   7.794  0.8071  0.5302 -1.0652
  535MOL0     H72195   7.973  11.126   7.641  0.4999  0.3116 -1.0740
  535MOL0     H72196   7.988  11.286   7.585 -2.4603 -0.3026 -0.6973
  535MOL0     H72197   7.817  11.194   7.837  2.5351 -0.5900  0.4031
  535MOL0     H72198   7.815  11.356   7.772  1.6526 -0.2606 -0.4492
  535MOL0     H72199   7.728  11.106   7.623  1.4050  0.2334 -0.1306
  535MOL0     H72200   7.712  11.271   7.555 -0.4399 -1.6605 -0.7789
  535MOL0     H72201   7.560  11.305   7.764  6.0450  0.1345  3.0058
  535MOL0     H72202   7.501  11.180   7.646  2.5074  1.1143 -2.9500
  535MOL0     H72203   7.621  11.138   7.923  1.8512  0.0989 -1.6045
  535MOL0     H72204   7.583  11.007   7.801  1.7544  0.3604  0.8722
  535MOL0     H72205   7.345  11.081   7.806 -3.7106  1.6062  1.6167
  535MOL0     H72206   7.378  11.197   7.921  0.5746 -0.4143 -0.2458
  535MOL0     H72207   8.493  11.090   7.959 -0.7516 -1.6812 -1.1312
  535MOL0     H72208   8.725  11.036   7.905 -0.4112 -1.3723 -0.7965
  535MOL0     H72209   9.044  11.214   7.583  0.5618  1.4149 -3.6582
  535MOL0     H72210   9.269  11.214   7.510 -1.0604  0.8356  2.0793
  535MOL0     H72211  10.780   9.775   7.154  0.7975 -0.7088 -0.0891
  535MOL0     H72212  11.011   9.684   7.114  1.8702 -0.1127  0.5568
  535MOL0     H72213  11.444   9.626   7.521 -0.2197 -0.1383 -0.3199
  535MOL0     H72214  11.670   9.546   7.514 -1.3278 -2.8428  0.4570
  535MOL0     H72215  11.884   9.730   7.417  4.5926  1.2575 -0.4624
  535MOL0     H72216  11.894   9.567   7.487 -0.4439 -0.6416 -0.3708
  535MOL0     H72217  12.109   9.686   7.409  0.3004  1.5037 -1.4770
  535MOL0     H72218  12.049   9.685   7.246  0.7302 -0.3687 -0.6984
  535MOL0     H72219  12.031   9.413   7.313 -0.4526  0.1674  1.7457
  535MOL0     H72220  12.168   9.464   7.399 -0.7530  0.8508  0.6486
  535MOL0     H72221  12.219   9.378   7.167  0.5850  0.3121 -0.7097
  535MOL0     H72222  12.278   9.533   7.169  0.2250  0.5601 -2.0670
  535MOL0     H72223  11.998   9.614   6.897  0.7899 -0.6536 -0.6385
  535MOL0     H72224  11.705   9.643   7.093  0.0115 -1.7123 -0.9870
  535MOL0     H72225  11.451   9.714   7.100 -0.4255  0.1931  1.4315
  536MOL0     O72226   5.685   7.695   0.712 -1.1676 -0.4806 -0.5929
  536MOL0     C72227   5.704   7.757   0.818  0.3179 -0.6473  0.8372
  536MOL0     O72228   5.609   7.791   0.914 -0.6784  0.5212 -0.0617
  536MOL0     C72229   5.480   7.749   0.889  0.3024 -0.0524 -0.2169
  536MOL0     C72230   5.410   7.820   0.792  1.3459 -0.3322 -0.5995
  536MOL0     C72231   5.274   7.801   0.793  0.2589 -0.6881  1.0816
  536MOL0     C72232   5.196   7.713   0.875  0.0316 -0.1769  0.4481
  536MOL0     O72233   5.059   7.694   0.861  0.1203  0.5765  0.1361
  536MOL0     C72234   4.987   7.779   0.785 -0.9040  0.1400  1.1243
  536MOL0     C72235   4.844   7.772   0.835 -0.0913 -0.0550 -0.0031
  536MOL0     C72236   4.772   7.641   0.819  0.0046  0.3643 -0.6891
  536MOL0     C72237   4.631   7.656   0.890 -0.4787  0.0817 -0.0703
  536MOL0     C72238   4.544   7.529   0.872 -0.8466  0.3012  0.7602
  536MOL0     C72239   4.617   7.405   0.931 -0.4550  0.5425 -0.4528
  536MOL0     C72240   4.645   7.303   0.829 -0.4273  0.4437  0.3599
  536MOL0     C72241   4.665   7.172   0.891 -0.2996 -0.0330  0.9520
  536MOL0     N72242   4.543   7.082   0.902  0.4495  0.3001  0.4294
  536MOL0     C72243   4.462   7.061   0.799 -0.5240  0.5350 -0.1223
  536MOL0     C72244   4.341   7.008   0.837 -0.5808  0.0251 -0.2858
  536MOL0     C72245   4.223   6.990   0.749 -0.0835 -1.1487 -0.7351
  536MOL0     C72246   4.256   6.869   0.652 -0.2302 -0.8098  0.8577
  536MOL0     C72247   4.127   6.784   0.638  0.0977 -0.4424 -0.2334
  536MOL0     C72248   4.022   6.864   0.562  0.3922 -0.1332  0.1844
  536MOL0     O72249   3.919   6.771   0.529 -0.9289  0.2462  0.4107
  536MOL0     C72250   3.801   6.811   0.473 -0.0015  0.5208 -0.4902
  536MOL0     C72251   3.698   6.718   0.480 -0.5077  0.2324  0.4623
  536MOL0     C72252   3.573   6.745   0.412 -0.3916  0.3444 -0.1238
  536MOL0     C72253   3.489   6.627   0.389 -0.2519  0.9509  0.1304
  536MOL0     C72254   3.561   6.868   0.345 -0.3188 -0.2351  0.6429
  536MOL0     C72255   3.449   6.898   0.260 -0.3023 -0.2574 -0.0748
  536MOL0     O72256   3.333   6.895   0.320  0.1870 -1.0397 -0.7285
  536MOL0     C72257   3.208   6.907   0.252 -0.6526  0.5599 -0.6591
  536MOL0     C72258   3.098   6.900   0.338  0.7063  0.0533 -0.7933
  536MOL0     C72259   2.971   6.924   0.284 -0.1526 -0.1055  0.4823
  536MOL0     C72260   2.953   6.958   0.149  0.2019  0.5773  0.3384
  536MOL0     O72261   2.826   6.971   0.103  0.1709  0.0906 -0.0225
  536MOL0     C72262   2.766   7.086   0.154  0.0350 -0.1520  0.1041
  536MOL0     C72263   2.621   7.095   0.100  0.8064  0.8812  0.6797
  536MOL0     C72264   2.606   7.102  -0.057  0.4760 -0.5855 -0.0793
  536MOL0     C72265   2.626   7.252  -0.103  0.2583  0.3295  0.2889
  536MOL0     C72266   2.590   7.270  -0.251  0.6898  0.1571  0.8347
  536MOL0     C72267   2.631   7.401  -0.305  0.1524  0.6010 -0.3381
  536MOL0     C72268   2.578   7.512  -0.220 -0.3579 -0.6845  0.6263
  536MOL0     C72269   2.421   7.525  -0.197  0.4992  0.3107  0.0264
  536MOL0    Cl72270   2.350   7.565  -0.351  0.4295  0.0155 -0.3394
  536MOL0     C72271   3.065   6.973   0.064 -0.1855 -0.8031  0.2957
  536MOL0     C72272   3.186   6.952   0.122 -1.0923  0.8563  0.5319
  536MOL0     O72273   3.467   6.920   0.139  0.1504 -0.1270  0.2255
  536MOL0     C72274   3.669   6.960   0.338 -0.1608  1.4175 -0.9071
  536MOL0     C72275   3.785   6.930   0.396 -0.2276 -0.6621  0.4302
  536MOL0     N72276   4.363   6.977   0.965  0.2522 -1.1717  0.6547
  536MOL0     N72277   4.482   7.013   1.003 -0.5732 -0.1485 -1.0843
  536MOL0     C72278   5.273   7.644   0.975 -0.3572 -0.2440 -0.5695
  536MOL0     C72279   5.411   7.670   0.981 -0.3423 -0.8442 -0.4886
  536MOL0     C72280   5.833   7.792   0.858 -0.0741  0.0710 -1.6984
  536MOL0     C72281   5.953   7.748   0.796 -0.0845  0.0486  0.8548
  536MOL0     C72282   6.081   7.787   0.828 -0.2117  0.1018 -0.0090
  536MOL0     C72283   6.104   7.874   0.935 -0.0547  0.0813  0.2337
  536MOL0     O72284   6.231   7.911   0.972 -0.7621  0.7275 -0.0580
  536MOL0     C72285   6.341   7.889   0.874  0.1621  0.2803 -0.2162
  536MOL0     C72286   6.327   7.986   0.757  0.2976 -0.0859  0.5340
  536MOL0     C72287   6.295   8.129   0.785  0.3797 -0.4429 -0.5970
  536MOL0     C72288   6.329   8.220   0.673 -0.0520 -0.5468 -0.1968
  536MOL0     C72289   6.287   8.351   0.724  0.0030 -0.2507 -0.0494
  536MOL0     C72290   6.268   8.461   0.768 -0.0228 -0.5243 -0.4512
  536MOL0     C72291   5.983   7.920   0.999 -0.5715 -0.6051  0.0132
  536MOL0     C72292   5.857   7.883   0.956 -0.0182 -0.2336 -0.6140
  536MOL0     H72293   5.455   7.892   0.724 -1.2147  3.1637  1.1135
  536MOL0     H72294   5.236   7.858   0.709 -0.6178 -2.5867  0.1247
  536MOL0     H72295   5.030   7.880   0.794  0.2875  0.6928 -5.5839
  536MOL0     H72296   4.993   7.754   0.679 -0.9755  0.5659  1.0156
  536MOL0     H72297   4.852   7.803   0.940  0.8110  2.0187 -0.6188
  536MOL0     H72298   4.790   7.853   0.785  1.9753  0.7545 -1.0540
  536MOL0     H72299   4.777   7.617   0.712  1.4261  1.9601 -1.0201
  536MOL0     H72300   4.834   7.566   0.870 -1.0352  1.8511  3.1472
  536MOL0     H72301   4.648   7.681   0.995  2.2221 -3.1254  0.4308
  536MOL0     H72302   4.578   7.744   0.852 -1.7231  0.6906  2.8026
  536MOL0     H72303   4.450   7.537   0.928 -1.2878 -0.3980  0.1376
  536MOL0     H72304   4.518   7.504   0.769 -3.1579 -0.7932  1.5229
  536MOL0     H72305   4.713   7.426   0.979 -0.8632 -0.7398  0.9980
  536MOL0     H72306   4.549   7.365   1.007  0.5434 -1.9203 -0.7811
  536MOL0     H72307   4.570   7.306   0.749  0.9797  0.0517 -1.0253
  536MOL0     H72308   4.736   7.318   0.770  1.0450  1.3210  2.7160
  536MOL0     H72309   4.712   7.170   0.989  0.8694 -1.1077  0.4003
  536MOL0     H72310   4.733   7.116   0.827 -1.5709 -0.4280 -0.1136
  536MOL0     H72311   4.479   7.083   0.694 -0.6604  0.8135 -0.0850
  536MOL0     H72312   4.126   6.985   0.798  0.7952  0.4605  1.2682
  536MOL0     H72313   4.209   7.086   0.698  0.7123 -0.5749  0.1049
  536MOL0     H72314   4.352   6.826   0.682  1.6623  1.5403 -1.2990
  536MOL0     H72315   4.278   6.914   0.554 -0.5849  2.2439  2.0525
  536MOL0     H72316   4.085   6.764   0.736  1.0973 -0.1417  0.2698
  536MOL0     H72317   4.141   6.690   0.584 -0.7002 -0.8973  0.3384
  536MOL0     H72318   4.063   6.903   0.468  0.2930 -0.3231  0.0611
  536MOL0     H72319   3.986   6.951   0.617 -1.4484 -1.2582  0.8598
  536MOL0     H72320   3.709   6.629   0.540  2.5315  1.6832  2.2934
  536MOL0     H72321   3.554   6.542   0.367  1.5140  1.6360  2.2824
  536MOL0     H72322   3.441   6.609   0.485 -1.5721 -1.5271 -0.9205
  536MOL0     H72323   3.419   6.646   0.307  0.9328  0.5333 -1.0145
  536MOL0     H72324   3.112   6.866   0.440 -0.5117  1.0531 -0.2672
  536MOL0     H72325   2.883   6.905   0.345  0.2797 -0.0925  1.1112
  536MOL0     H72326   2.755   7.080   0.262  0.1393  0.7819  0.1738
  536MOL0     H72327   2.820   7.172   0.113 -0.9707  0.8472  0.8230
  536MOL0     H72328   2.568   7.007   0.138 -1.3671  2.2872  1.1024
  536MOL0     H72329   2.568   7.182   0.140 -1.6788  0.4544 -1.4197
  536MOL0     H72330   2.513   7.049  -0.076  1.1507 -2.0995  0.6987
  536MOL0     H72331   2.678   7.028  -0.095 -0.5144 -1.5486 -0.1188
  536MOL0     H72332   2.560   7.311  -0.039  0.0940  2.8152 -2.0040
  536MOL0     H72333   2.727   7.285  -0.076 -0.2586  3.6735 -1.2914
  536MOL0     H72334   2.482   7.258  -0.261  0.6931 -0.4847  1.4712
  536MOL0     H72335   2.637   7.197  -0.317 -3.7251 -3.3935  1.1745
  536MOL0     H72336   2.739   7.395  -0.320  0.1540  0.7635 -0.3906
  536MOL0     H72337   2.588   7.414  -0.405 -0.7901  2.5556  0.2654
  536MOL0     H72338   2.604   7.598  -0.283 -2.1085 -1.2177 -0.9293
  536MOL0     H72339   2.638   7.510  -0.129  1.1505 -0.5741 -0.3329
  536MOL0     H72340   2.387   7.595  -0.121  0.2972 -0.7534  0.9329
  536MOL0     H72341   2.380   7.427  -0.172 -1.2574  1.6384  2.8998
  536MOL0     H72342   3.051   6.993  -0.042  0.4054 -3.0726 -0.2603
  536MOL0     H72343   3.269   6.956   0.053  0.0608  0.1147  1.8256
  536MOL0     H72344   3.657   7.055   0.287  0.3202 -0.1024 -4.1125
  536MOL0     H72345   3.864   7.004   0.385 -0.0548 -0.9016  0.0380
  536MOL0     H72346   5.230   7.575   1.047 -0.3627  0.5076  0.1636
  536MOL0     H72347   5.482   7.642   1.058 -0.3792  0.7879  0.1806
  536MOL0     H72348   5.952   7.680   0.712  2.6397  2.9883 -1.8162
  536MOL0     H72349   6.161   7.762   0.759  1.0070 -0.0595  1.4081
  536MOL0     H72350   6.440   7.914   0.914  0.7117 -1.0080 -0.6846
  536MOL0     H72351   6.344   7.784   0.842 -2.9700  0.2058 -0.5472
  536MOL0     H72352   6.257   7.948   0.681  1.6120  0.6482 -1.1030
  536MOL0     H72353   6.423   7.994   0.706 -0.7584  0.8132 -1.4413
  536MOL0     H72354   6.344   8.159   0.878 -1.7444 -3.1625  1.5734
  536MOL0     H72355   6.190   8.135   0.816  0.6238 -3.0417  0.9146
  536MOL0     H72356   6.278   8.200   0.578 -1.2104  0.9385  0.0838
  536MOL0     H72357   6.436   8.210   0.650  0.4976  0.7835  1.5892
  536MOL0     H72358   6.222   8.549   0.808 -0.1504 -1.9015  2.7322
  536MOL0     H72359   5.998   7.977   1.090 -1.9788 -0.6508  0.2931
  536MOL0     H72360   5.776   7.928   1.013  0.0981  3.1529 -2.8277
  537MOL0     O72361   4.277   4.135   3.087  0.1877 -0.1591  0.0306
  537MOL0     C72362   4.252   4.155   2.970  0.9412  0.2871  0.6999
  537MOL0     O72363   4.143   4.230   2.918 -0.0403 -0.0023 -0.5079
  537MOL0     C72364   4.047   4.276   3.006 -0.8584  0.4134  0.1025
  537MOL0     C72365   3.941   4.194   3.025  1.0803  0.0781 -0.3751
  537MOL0     C72366   3.827   4.235   3.096 -0.5166 -0.2455  0.4318
  537MOL0     C72367   3.830   4.356   3.163 -0.5386  0.5735  0.2766
  537MOL0     O72368   3.739   4.393   3.259  0.3041 -0.2620  0.1112
  537MOL0     C72369   3.617   4.318   3.283 -0.0747 -0.5903 -0.2845
  537MOL0     C72370   3.515   4.377   3.184  0.6024 -0.3606 -0.5741
  537MOL0     C72371   3.378   4.323   3.195  0.0770  0.0873  0.5118
  537MOL0     C72372   3.315   4.399   3.314 -0.1697 -0.0518  0.3590
  537MOL0     C72373   3.166   4.380   3.319 -0.2443  0.2718  0.1947
  537MOL0     C72374   3.115   4.449   3.448 -0.2556  0.0405 -0.5549
  537MOL0     C72375   2.978   4.396   3.487 -0.0749 -0.1407 -0.2068
  537MOL0     C72376   2.854   4.416   3.385 -0.2719  0.2990  0.2056
  537MOL0     N72377   2.731   4.479   3.440  0.2734  0.2186 -0.5082
  537MOL0     C72378   2.729   4.591   3.518  0.0008 -0.2865  0.6813
  537MOL0     C72379   2.595   4.597   3.554  0.8355 -0.0836 -0.7291
  537MOL0     C72380   2.543   4.699   3.644 -0.5649 -0.5636 -0.4694
  537MOL0     C72381   2.398   4.685   3.679  0.2243 -0.8551  0.8205
  537MOL0     C72382   2.347   4.805   3.757  0.1276  0.1805 -0.6250
  537MOL0     C72383   2.205   4.793   3.798 -0.7939  0.6475 -0.1187
  537MOL0     O72384   2.180   4.898   3.896 -0.0844  0.1484 -0.1639
  537MOL0     C72385   2.085   4.876   3.997  1.0838 -0.8410  0.1053
  537MOL0     C72386   2.097   4.961   4.109 -0.1188 -0.1909  0.1648
  537MOL0     C72387   1.991   4.984   4.207 -0.3423  0.9179  0.3617
  537MOL0     C72388   2.017   5.095   4.298  0.0164  0.3167  0.4191
  537MOL0     C72389   1.874   4.905   4.183 -0.7374 -0.8860 -0.5996
  537MOL0     C72390   1.751   4.918   4.264  0.1576  0.7648 -0.1472
  537MOL0     O72391   1.635   4.899   4.190  0.7021  0.3731  0.5856
  537MOL0     C72392   1.515   4.909   4.247  0.5438  0.4691  0.6404
  537MOL0     C72393   1.407   4.961   4.172  0.0730  0.7629  0.2171
  537MOL0     C72394   1.277   4.948   4.211  0.1305  0.2792 -0.9675
  537MOL0     C72395   1.251   4.885   4.337 -0.3501  0.0611 -0.0988
  537MOL0     O72396   1.124   4.862   4.384 -0.3430 -0.1499  0.0006
  537MOL0     C72397   1.016   4.952   4.340  0.8303 -1.1978 -0.3517
  537MOL0     C72398   0.880   4.885   4.392  0.4756 -0.3120  0.6660
  537MOL0     C72399   0.784   4.853   4.279  0.1139  0.6435  0.0662
  537MOL0     C72400   0.651   4.805   4.327  0.1989  0.3738  0.0345
  537MOL0     C72401   0.544   4.812   4.204 -0.2499 -0.2393 -0.1031
  537MOL0     C72402   0.413   4.766   4.265  0.4604 -0.4204  1.0377
  537MOL0     C72403   0.291   4.777   4.174 -0.0287 -0.6455  0.4419
  537MOL0     C72404   0.160   4.719   4.244 -0.4971  0.1787  0.5475
  537MOL0    Cl72405   0.017   4.789   4.156  0.0023 -0.1641 -0.1542
  537MOL0     C72406   1.360   4.835   4.419 -0.4737 -0.0933  0.0348
  537MOL0     C72407   1.490   4.839   4.371  0.5818  0.0979 -0.0959
  537MOL0     O72408   1.762   4.957   4.380 -0.3184 -0.1459 -0.0998
  537MOL0     C72409   1.864   4.833   4.063 -0.6661  0.7426  0.8632
  537MOL0     C72410   1.965   4.816   3.969 -0.3515 -0.6135  0.0796
  537MOL0     N72411   2.537   4.487   3.499  0.2418 -0.1608 -0.1846
  537MOL0     N72412   2.612   4.413   3.439  0.0227 -0.0082 -0.2158
  537MOL0     C72413   3.936   4.448   3.137 -0.0732 -0.2526  1.0668
  537MOL0     C72414   4.041   4.409   3.059  0.0284 -0.0188  0.5286
  537MOL0     C72415   4.352   4.103   2.873  0.1609 -0.2861 -0.6780
  537MOL0     C72416   4.484   4.087   2.923  0.7215  0.3039  1.2655
  537MOL0     C72417   4.578   4.048   2.836  0.0289 -0.7861 -0.0606
  537MOL0     C72418   4.556   4.027   2.701 -0.2414  0.2103  0.1770
  537MOL0     O72419   4.666   4.009   2.618  0.9909  0.1405  0.2940
  537MOL0     C72420   4.668   3.903   2.532 -0.1284 -0.8769  0.6060
  537MOL0     C72421   4.819   3.861   2.503  0.3178 -0.6381 -0.6041
  537MOL0     C72422   4.820   3.745   2.400 -0.8321 -0.2949 -0.8269
  537MOL0     C72423   4.722   3.623   2.430  0.0520  1.2037 -0.5557
  537MOL0     C72424   4.739   3.525   2.323  1.3015  0.3579  0.1387
  537MOL0     C72425   4.740   3.451   2.228 -0.0478  1.4501 -0.3940
  537MOL0     C72426   4.423   4.026   2.648  0.0028  0.6122 -0.3723
  537MOL0     C72427   4.320   4.067   2.741 -0.1565 -0.4285  0.0087
  537MOL0     H72428   3.939   4.096   2.978 -0.9054 -0.2290  0.2781
  537MOL0     H72429   3.740   4.174   3.117 -0.5917 -0.4662 -0.4895
  537MOL0     H72430   3.633   4.210   3.276 -1.3490 -0.8151 -0.0279
  537MOL0     H72431   3.590   4.324   3.389  0.1649 -1.5524 -0.1604
  537MOL0     H72432   3.516   4.487   3.188 -1.7690 -0.2392 -1.5256
  537MOL0     H72433   3.551   4.344   3.087  0.4785  1.6599 -1.3497
  537MOL0     H72434   3.315   4.331   3.106 -0.6935  2.0077  1.1593
  537MOL0     H72435   3.379   4.216   3.215  0.9883 -0.6393 -2.7904
  537MOL0     H72436   3.358   4.375   3.412 -0.5168  1.6836  0.9778
  537MOL0     H72437   3.336   4.506   3.302  2.2897 -0.4888  0.1791
  537MOL0     H72438   3.123   4.425   3.230  1.8012  0.5093 -0.7183
  537MOL0     H72439   3.150   4.272   3.322  1.9362 -0.0921  0.0347
  537MOL0     H72440   3.184   4.436   3.531  2.7594 -3.1971 -3.2584
  537MOL0     H72441   3.110   4.556   3.428  0.5390 -0.0818 -1.5085
  537MOL0     H72442   2.985   4.288   3.502 -1.4799 -0.1400  0.5075
  537MOL0     H72443   2.947   4.440   3.582  0.7990 -0.7423  0.3727
  537MOL0     H72444   2.826   4.329   3.326  1.6722  1.3886 -2.4983
  537MOL0     H72445   2.890   4.491   3.313  1.1704  1.3075  1.8784
  537MOL0     H72446   2.818   4.647   3.543 -0.1106  0.4135 -0.4201
  537MOL0     H72447   2.607   4.689   3.732 -1.1159 -1.1280 -0.1262
  537MOL0     H72448   2.579   4.793   3.599  3.0108 -1.1599  0.8048
  537MOL0     H72449   2.380   4.594   3.737  0.8816 -2.7429 -1.7412
  537MOL0     H72450   2.340   4.696   3.586 -1.6535  3.4097  2.2621
  537MOL0     H72451   2.360   4.901   3.707 -0.6693  0.0747 -1.0575
  537MOL0     H72452   2.409   4.827   3.844  2.1253  5.1026 -2.8983
  537MOL0     H72453   2.188   4.689   3.829 -0.7860  0.6467 -0.1166
  537MOL0     H72454   2.137   4.814   3.716 -0.9690 -2.2889 -0.8289
  537MOL0     H72455   2.182   5.028   4.105 -1.3253  1.3695 -0.5193
  537MOL0     H72456   2.112   5.084   4.352  0.5637  0.4890 -0.4911
  537MOL0     H72457   2.026   5.186   4.239  2.4656 -0.2382 -0.1761
  537MOL0     H72458   1.939   5.109   4.374 -0.2591 -0.2834  0.2518
  537MOL0     H72459   1.437   4.996   4.073 -0.4469 -2.1063 -1.0646
  537MOL0     H72460   1.200   4.968   4.137  0.5622  1.0995 -1.2063
  537MOL0     H72461   1.014   5.058   4.368  3.3380 -1.1280 -0.2271
  537MOL0     H72462   1.014   4.957   4.231 -2.5122  0.4303 -0.3509
  537MOL0     H72463   0.905   4.791   4.441  0.8085 -0.4886  0.1630
  537MOL0     H72464   0.835   4.956   4.462  1.6038  0.6703  0.4398
  537MOL0     H72465   0.829   4.784   4.207 -0.6731 -0.4413  0.5903
  537MOL0     H72466   0.765   4.948   4.228 -0.3521  0.7862  0.4910
  537MOL0     H72467   0.659   4.705   4.370 -0.9601 -0.6138 -1.9284
  537MOL0     H72468   0.610   4.862   4.411  0.0042  2.1770 -1.2378
  537MOL0     H72469   0.573   4.746   4.122 -0.2035  0.3320 -0.5499
  537MOL0     H72470   0.538   4.908   4.153  1.8999  0.8116  1.4449
  537MOL0     H72471   0.434   4.664   4.296  1.4933  0.6532  4.2869
  537MOL0     H72472   0.405   4.823   4.358  2.1874  1.8679 -0.0874
  537MOL0     H72473   0.293   4.727   4.077 -1.4828  0.0885  0.0003
  537MOL0     H72474   0.284   4.883   4.148  2.0158 -0.3910  0.7458
  537MOL0     H72475   0.159   4.747   4.350  0.0712 -0.7290  0.8045
  537MOL0     H72476   0.151   4.610   4.243 -1.1253  0.2275 -0.0842
  537MOL0     H72477   1.339   4.792   4.516 -0.0521  1.0891  0.6798
  537MOL0     H72478   1.574   4.796   4.425  0.1209  1.1313  1.5172
  537MOL0     H72479   1.772   4.777   4.050  1.6205 -3.1418 -0.0143
  537MOL0     H72480   1.941   4.756   3.881  0.0036 -0.7256  0.0553
  537MOL0     H72481   3.937   4.545   3.184  1.2846  0.6279 -0.6386
  537MOL0     H72482   4.121   4.475   3.026  0.0304 -1.3688 -2.4318
  537MOL0     H72483   4.507   4.116   3.026 -0.8711  1.8168  1.2421
  537MOL0     H72484   4.683   4.040   2.861  0.8835  2.4828 -2.0567
  537MOL0     H72485   4.614   3.815   2.567 -0.3119 -1.4618 -1.0574
  537MOL0     H72486   4.597   3.928   2.453 -1.0021 -0.4312  1.5064
  537MOL0     H72487   4.865   3.831   2.598 -1.0477  2.4142  1.1959
  537MOL0     H72488   4.866   3.945   2.451 -1.6444 -1.1088 -3.3356
  537MOL0     H72489   4.921   3.702   2.402 -0.7330 -0.1026 -1.3146
  537MOL0     H72490   4.796   3.790   2.302  0.7876  2.9055  0.0998
  537MOL0     H72491   4.618   3.647   2.451 -0.2813 -1.7942  2.0237
  537MOL0     H72492   4.755   3.575   2.523 -2.5108 -1.1749 -0.7477
  537MOL0     H72493   4.730   3.383   2.146  4.6814 -1.0126  0.7107
  537MOL0     H72494   4.410   4.036   2.541 -1.2958  4.0879 -0.0447
  537MOL0     H72495   4.217   4.067   2.705  0.7741  1.2085 -3.0024
  538MOL0     O72496   9.478   6.408   0.394  0.1005  0.5276 -0.3375
  538MOL0     C72497   9.570   6.394   0.478  0.5643 -1.0883 -0.5208
  538MOL0     O72498   9.548   6.367   0.607  0.6933  0.9454  0.6251
  538MOL0     C72499   9.412   6.358   0.636  0.1811  0.2948  0.3667
  538MOL0     C72500   9.336   6.241   0.608 -0.6145  0.6927 -0.4875
  538MOL0     C72501   9.211   6.235   0.657 -0.0763  0.4885 -0.1894
  538MOL0     C72502   9.142   6.340   0.713  0.3878 -0.7095  0.3692
  538MOL0     O72503   9.006   6.325   0.739 -0.2778  0.1466 -0.3733
  538MOL0     C72504   8.930   6.424   0.806 -0.9302 -0.9445  0.8890
  538MOL0     C72505   8.787   6.378   0.799 -0.5425  0.2271 -0.4601
  538MOL0     C72506   8.732   6.415   0.659  1.0007 -0.4052 -0.4820
  538MOL0     C72507   8.580   6.375   0.646 -0.8952  0.5264 -0.4701
  538MOL0     C72508   8.481   6.444   0.740  0.2535 -0.1290 -0.5244
  538MOL0     C72509   8.329   6.424   0.691  0.1973  0.1592  0.5955
  538MOL0     C72510   8.249   6.510   0.787 -0.4415 -0.6532  0.5792
  538MOL0     C72511   8.102   6.474   0.766 -0.2874  0.9327  0.1060
  538MOL0     N72512   8.039   6.526   0.888 -0.2764 -0.9001 -0.6805
  538MOL0     C72513   7.984   6.450   0.987 -0.4951  0.1958  0.1492
  538MOL0     C72514   7.945   6.539   1.076  0.2521  0.1314 -0.3870
  538MOL0     C72515   7.883   6.499   1.201 -0.8739 -0.0024 -0.0060
  538MOL0     C72516   7.744   6.558   1.230  0.0346 -1.2129 -1.2485
  538MOL0     C72517   7.724   6.604   1.373  0.9905  0.5042 -0.4260
  538MOL0     C72518   7.581   6.622   1.419  0.3424 -0.4783  0.6090
  538MOL0     O72519   7.522   6.736   1.354  0.6071 -0.2843  0.0899
  538MOL0     C72520   7.387   6.762   1.379 -0.1622  0.6503  0.0861
  538MOL0     C72521   7.367   6.874   1.452  0.8223  0.8760 -0.0310
  538MOL0     C72522   7.239   6.922   1.474  0.0381  0.3027  0.4094
  538MOL0     C72523   7.228   7.039   1.564  0.1439  0.7658  0.0120
  538MOL0     C72524   7.125   6.854   1.409  0.0104  0.2214  0.3367
  538MOL0     C72525   6.985   6.897   1.413 -0.1351  0.3799  0.2395
  538MOL0     O72526   6.950   6.994   1.508  0.4661  0.5502 -0.2055
  538MOL0     C72527   6.818   7.012   1.544 -1.1047  1.1315 -0.4350
  538MOL0     C72528   6.796   7.044   1.677 -0.2554 -0.5029  1.1118
  538MOL0     C72529   6.664   7.063   1.723  0.7698  0.1573 -0.7358
  538MOL0     C72530   6.554   7.043   1.639 -0.0506  0.3843 -0.3165
  538MOL0     O72531   6.434   7.081   1.692 -0.6870 -0.7945 -0.3616
  538MOL0     C72532   6.321   7.021   1.637  0.8777  0.4788  0.8886
  538MOL0     C72533   6.191   7.052   1.709  0.4358  0.4024  0.7127
  538MOL0     C72534   6.069   6.972   1.673  0.2053 -1.2408 -0.3119
  538MOL0     C72535   6.026   6.979   1.524  0.0396  0.8753 -0.0698
  538MOL0     C72536   5.900   6.891   1.488 -0.0644  0.3721 -0.9710
  538MOL0     C72537   5.884   6.848   1.341  0.3021 -1.2366  0.1188
  538MOL0     C72538   5.770   6.754   1.326  0.0405  0.3936 -0.6042
  538MOL0     C72539   5.763   6.689   1.190 -1.3276  0.0495 -0.0501
  538MOL0    Cl72540   5.635   6.569   1.183 -0.3012 -0.5056  0.2482
  538MOL0     C72541   6.576   6.998   1.507  0.9371  0.7666 -0.0834
  538MOL0     C72542   6.707   6.987   1.459  0.3537  0.3972 -0.5459
  538MOL0     O72543   6.912   6.827   1.346  0.7967  0.3265 -0.2148
  538MOL0     C72544   7.156   6.734   1.341 -0.6482  0.0899 -1.1710
  538MOL0     C72545   7.284   6.681   1.327  0.1226  0.2083 -0.3354
  538MOL0     N72546   7.972   6.672   1.032  0.3170  0.7289  0.2361
  538MOL0     N72547   8.025   6.661   0.912  0.3247  0.7552 -0.1903
  538MOL0     C72548   9.219   6.448   0.757 -0.5611 -0.4543 -0.1506
  538MOL0     C72549   9.354   6.456   0.716  0.3785 -0.0653 -0.1378
  538MOL0     C72550   9.707   6.382   0.425  0.2872 -0.4910 -0.7483
  538MOL0     C72551   9.813   6.369   0.518 -0.6993  0.0213 -0.1745
  538MOL0     C72552   9.940   6.354   0.466 -0.8110 -0.2827  0.5526
  538MOL0     C72553   9.974   6.355   0.338  0.2325 -1.1297 -1.0111
  538MOL0     O72554  10.105   6.328   0.308 -0.7059  0.8939  0.8863
  538MOL0     C72555  10.152   6.360   0.176 -0.3253 -0.5734 -0.1286
  538MOL0     C72556  10.284   6.280   0.165 -0.2994 -0.2803 -0.5248
  538MOL0     C72557  10.350   6.310   0.029  0.5591  0.4816  0.2673
  538MOL0     C72558  10.374   6.466   0.016  0.6091 -0.1329 -0.5231
  538MOL0     C72559  10.469   6.471  -0.091 -1.2337  0.1162  0.6248
  538MOL0     C72560  10.548   6.450  -0.175 -0.1371  0.5602 -0.0791
  538MOL0     C72561   9.871   6.382   0.246  0.1297 -0.0077 -0.1049
  538MOL0     C72562   9.738   6.390   0.291  0.0557  0.6911 -0.6374
  538MOL0     H72563   9.385   6.158   0.558  1.3837  0.9515  0.9175
  538MOL0     H72564   9.157   6.143   0.639  3.3921 -2.6559  3.7392
  538MOL0     H72565   8.963   6.412   0.909  2.2561 -0.4529  0.0330
  538MOL0     H72566   8.941   6.528   0.771  0.5582 -1.4353 -0.2038
  538MOL0     H72567   8.782   6.271   0.822  0.4881 -0.0583 -1.4773
  538MOL0     H72568   8.727   6.427   0.876 -0.6391  0.7645 -0.8716
  538MOL0     H72569   8.745   6.521   0.634  0.0801 -0.4384 -1.1347
  538MOL0     H72570   8.785   6.358   0.583  2.7111  1.4041 -0.7351
  538MOL0     H72571   8.555   6.391   0.541  1.7889  3.0220 -0.8651
  538MOL0     H72572   8.575   6.267   0.665 -1.0572  0.9051  1.9151
  538MOL0     H72573   8.488   6.390   0.835 -0.1120  2.1011  0.8368
  538MOL0     H72574   8.490   6.552   0.752 -5.5700  0.5885  0.5159
  538MOL0     H72575   8.313   6.459   0.589  0.6408  2.4729  1.2633
  538MOL0     H72576   8.298   6.320   0.699 -0.4256  0.4212  1.7108
  538MOL0     H72577   8.266   6.511   0.894 -0.5673 -1.5474  0.6098
  538MOL0     H72578   8.265   6.615   0.760 -0.8443 -0.4598  1.0736
  538MOL0     H72579   8.088   6.366   0.756  0.8869  0.6630  1.1353
  538MOL0     H72580   8.063   6.520   0.675  1.2134 -1.9349 -2.1583
  538MOL0     H72581   7.984   6.344   1.011 -2.0772 -0.3261 -1.9058
  538MOL0     H72582   7.880   6.390   1.203  1.8051 -0.1473 -0.3795
  538MOL0     H72583   7.956   6.523   1.280 -0.5564 -1.2105  0.0890
  538MOL0     H72584   7.661   6.494   1.200 -0.5243 -2.4270  2.3060
  538MOL0     H72585   7.743   6.643   1.162 -0.1770 -1.6888 -1.8450
  538MOL0     H72586   7.784   6.692   1.399 -1.9600  1.7236  3.3424
  538MOL0     H72587   7.772   6.540   1.447  1.7485  0.2483 -1.1250
  538MOL0     H72588   7.568   6.645   1.526 -1.6343  1.4449  0.0391
  538MOL0     H72589   7.523   6.532   1.395 -0.5900  0.2512  0.0477
  538MOL0     H72590   7.449   6.924   1.504  1.2238 -0.3864  0.5758
  538MOL0     H72591   7.177   7.128   1.526  1.1121  1.5374  0.4669
  538MOL0     H72592   7.174   6.998   1.650 -3.0060 -0.8871 -2.5345
  538MOL0     H72593   7.325   7.085   1.587 -0.0239  1.4183 -0.5401
  538MOL0     H72594   6.876   7.046   1.750 -0.2527 -0.6960  1.1153
  538MOL0     H72595   6.646   7.087   1.827 -1.6353  0.2702 -1.1100
  538MOL0     H72596   6.301   7.060   1.537 -1.7855 -0.2748  1.0536
  538MOL0     H72597   6.332   6.912   1.627 -1.5299  0.1423  1.3681
  538MOL0     H72598   6.203   7.036   1.817  0.6161  0.5735  0.7176
  538MOL0     H72599   6.168   7.156   1.685 -4.4021 -1.1086 -2.9691
  538MOL0     H72600   5.987   7.024   1.722 -2.6632 -2.8962 -2.9507
  538MOL0     H72601   6.094   6.869   1.700 -1.2929 -1.7699 -0.8390
  538MOL0     H72602   6.015   7.082   1.488  3.1603  0.4682 -2.6331
  538MOL0     H72603   6.106   6.938   1.462 -0.0134 -0.7213  0.8597
  538MOL0     H72604   5.816   6.956   1.515 -0.6159 -0.1307 -1.4344
  538MOL0     H72605   5.892   6.809   1.559 -0.4478 -0.1389 -1.5986
  538MOL0     H72606   5.864   6.921   1.263 -0.4397 -5.1506 -3.7749
  538MOL0     H72607   5.976   6.801   1.304 -0.2258 -1.0947 -1.4376
  538MOL0     H72608   5.676   6.807   1.340 -0.1765 -0.6151  2.7183
  538MOL0     H72609   5.763   6.674   1.400 -0.1268  0.0640 -0.9739
  538MOL0     H72610   5.861   6.641   1.184 -1.1984  0.2094  0.6407
  538MOL0     H72611   5.745   6.766   1.115 -3.1578  0.2187  0.5064
  538MOL0     H72612   6.496   6.993   1.435  0.4305 -1.2746  0.5744
  538MOL0     H72613   6.712   6.963   1.354  1.0360 -2.0001 -0.0386
  538MOL0     H72614   7.076   6.662   1.328 -2.9882  1.3278  3.8120
  538MOL0     H72615   7.299   6.585   1.279 -2.0546 -1.5255  2.1721
  538MOL0     H72616   9.181   6.521   0.828  0.3558 -0.9375  0.8790
  538MOL0     H72617   9.415   6.540   0.747  3.1879 -2.2737  0.7187
  538MOL0     H72618   9.801   6.348   0.623  1.0766 -1.4643 -0.2200
  538MOL0     H72619  10.012   6.327   0.542 -0.5818 -1.3771 -0.0304
  538MOL0     H72620  10.083   6.348   0.092  0.4642  1.4224 -1.1301
  538MOL0     H72621  10.178   6.466   0.188  2.6152 -0.9035 -2.5507
  538MOL0     H72622  10.266   6.173   0.179 -0.5031 -0.0412  1.4158
  538MOL0     H72623  10.355   6.310   0.243  0.7089 -1.8206 -0.7894
  538MOL0     H72624  10.295   6.267  -0.055 -0.7043  1.3174  0.6398
  538MOL0     H72625  10.442   6.250   0.033  1.0089  1.1040 -0.5036
  538MOL0     H72626  10.426   6.509   0.102  0.4675  0.5835 -0.7873
  538MOL0     H72627  10.288   6.527  -0.011  1.6510  1.3403 -0.6237
  538MOL0     H72628  10.615   6.426  -0.254 -2.1369 -1.0889 -1.3714
  538MOL0     H72629   9.889   6.391   0.140  0.6333 -0.6300 -0.0761
  538MOL0     H72630   9.656   6.403   0.221  0.3560 -3.3703 -1.9829
  539MOL0     O72631   1.804  10.356   4.763  0.3433  0.7134 -0.3082
  539MOL0     C72632   1.855  10.394   4.869 -0.0034  0.2585  0.3409
  539MOL0     O72633   1.797  10.493   4.951  0.3266  0.5896  0.1580
  539MOL0     C72634   1.665  10.539   4.936 -0.5791  0.3601 -0.5989
  539MOL0     C72635   1.561  10.468   4.866  0.6200 -0.2920 -0.5668
  539MOL0     C72636   1.426  10.517   4.856 -0.0263 -0.0109 -1.0157
  539MOL0     C72637   1.398  10.635   4.912 -0.6761 -0.7967  0.6132
  539MOL0     O72638   1.278  10.703   4.884  0.0545 -0.3883 -0.2398
  539MOL0     C72639   1.219  10.677   4.755 -0.0693 -0.9219 -0.5605
  539MOL0     C72640   1.116  10.793   4.727  0.0684 -0.1739  0.1736
  539MOL0     C72641   0.987  10.745   4.652 -0.3994 -0.1744  0.0590
  539MOL0     C72642   0.907  10.865   4.585  0.4730  0.0337  0.5846
  539MOL0     C72643   0.768  10.824   4.516  0.3613 -0.4373  1.3939
  539MOL0     C72644   0.681  10.947   4.490 -0.3615  0.1730 -0.8852
  539MOL0     C72645   0.538  10.913   4.447 -0.5318  1.0950 -0.0763
  539MOL0     C72646   0.439  11.031   4.436 -0.0474  0.3803  0.8397
  539MOL0     N72647   0.304  10.995   4.472  0.2953 -0.4720  0.1974
  539MOL0     C72648   0.218  10.893   4.420 -0.6507 -0.1093 -0.5505
  539MOL0     C72649   0.117  10.886   4.510 -0.0067  0.1500  0.3089
  539MOL0     C72650   0.007  10.786   4.502  0.5573 -0.1596  0.5908
  539MOL0     C72651  -0.133  10.853   4.472  0.0549 -0.0362 -0.2627
  539MOL0     C72652  -0.228  10.738   4.459 -1.1254 -0.6184  0.2941
  539MOL0     C72653  -0.373  10.786   4.488 -0.4357  0.3177 -0.5666
  539MOL0     O72654  -0.465  10.678   4.466 -0.1941  0.3995 -0.5332
  539MOL0     C72655  -0.599  10.690   4.485 -0.3246  0.3715  0.0468
  539MOL0     C72656  -0.680  10.584   4.439 -1.2366 -0.3895  0.1998
  539MOL0     C72657  -0.825  10.588   4.454  0.0851 -0.2633  0.1425
  539MOL0     C72658  -0.895  10.474   4.399  0.1360  0.2272  0.0945
  539MOL0     C72659  -0.890  10.708   4.517 -0.5998  0.1533 -0.6323
  539MOL0     C72660  -1.034  10.731   4.540 -0.1349 -0.2897  0.4091
  539MOL0     O72661  -1.072  10.859   4.576 -0.2043 -0.1610 -0.1771
  539MOL0     C72662  -1.193  10.894   4.637  0.2041 -0.4122 -0.5400
  539MOL0     C72663  -1.278  10.811   4.708 -0.2875 -0.2669 -0.1900
  539MOL0     C72664  -1.402  10.866   4.764 -0.0509  0.6847 -0.0527
  539MOL0     C72665  -1.440  10.994   4.739 -0.5246  0.1906 -0.2159
  539MOL0     O72666  -1.559  11.037   4.790  0.4269 -0.1342  0.0258
  539MOL0     C72667  -1.540  11.091   4.924 -0.5839  0.0304  0.8418
  539MOL0     C72668  -1.657  11.051   5.019 -1.9154 -0.0989 -0.5831
  539MOL0     C72669  -1.795  11.095   4.976  0.1701 -0.0540 -1.0099
  539MOL0     C72670  -1.895  11.059   5.084  0.3934  0.0807  0.0837
  539MOL0     C72671  -2.042  11.106   5.055 -0.2171 -0.1089  0.0824
  539MOL0     C72672  -2.132  11.058   5.171  0.7529 -0.6693  0.1222
  539MOL0     C72673  -2.282  11.099   5.151 -0.0651 -0.9285  0.0916
  539MOL0     C72674  -2.371  11.089   5.274 -0.3944 -0.7722  0.3385
  539MOL0    Cl72675  -2.541  11.125   5.211  0.2662 -0.5348 -0.4742
  539MOL0     C72676  -1.339  11.082   4.683  0.4183 -0.6484 -0.0720
  539MOL0     C72677  -1.215  11.035   4.630  1.0820 -0.4087 -0.1144
  539MOL0     O72678  -1.111  10.646   4.502  0.5115  0.0303  0.0986
  539MOL0     C72679  -0.801  10.814   4.545  0.2610  0.0667  0.2048
  539MOL0     C72680  -0.663  10.800   4.537  0.1183 -0.6085  0.3819
  539MOL0     N72681   0.141  10.975   4.613 -0.0578  0.7042  0.2415
  539MOL0     N72682   0.253  11.038   4.586  0.2900  0.2995 -0.2427
  539MOL0     C72683   1.491  10.706   4.981 -1.4603 -0.7285 -0.0603
  539MOL0     C72684   1.623  10.656   4.999 -0.5901  0.1142  0.6434
  539MOL0     C72685   1.978  10.331   4.907 -0.3941 -0.4694  0.1332
  539MOL0     C72686   2.050  10.372   5.014  0.5707 -0.7335  0.0740
  539MOL0     C72687   2.181  10.334   5.041 -0.8175  0.3332  0.1407
  539MOL0     C72688   2.248  10.243   4.952  0.1587 -1.7278  0.5190
  539MOL0     O72689   2.379  10.206   4.980  0.4351  0.5975 -0.4544
  539MOL0     C72690   2.482  10.184   4.877 -1.0040 -0.4323  0.1070
  539MOL0     C72691   2.565  10.308   4.856  0.3100  0.1133 -0.4954
  539MOL0     C72692   2.492  10.438   4.866  0.4995  0.9747  0.0478
  539MOL0     C72693   2.571  10.561   4.821 -1.5171 -0.8910  0.6698
  539MOL0     C72694   2.681  10.593   4.921  0.7666 -0.6229  1.0185
  539MOL0     C72695   2.754  10.630   5.004  0.0110 -0.2261  0.1523
  539MOL0     C72696   2.180  10.196   4.841 -0.3756  1.2987 -0.0767
  539MOL0     C72697   2.046  10.238   4.816  0.1591  0.1535 -0.3720
  539MOL0     H72698   1.586  10.370   4.826  1.3494 -0.8169  1.0745
  539MOL0     H72699   1.342  10.471   4.806 -2.8570  0.6109  2.6837
  539MOL0     H72700   1.293  10.688   4.675  0.3637  1.8810  0.1275
  539MOL0     H72701   1.163  10.583   4.747 -0.8585 -0.3073 -3.4203
  539MOL0     H72702   1.090  10.834   4.825  0.8957 -1.9276  1.1812
  539MOL0     H72703   1.163  10.867   4.662 -2.4417 -1.3663 -3.2960
  539MOL0     H72704   1.002  10.665   4.578 -1.2138  0.2112 -0.5503
  539MOL0     H72705   0.924  10.706   4.733  0.8348  0.2931  1.2846
  539MOL0     H72706   0.892  10.946   4.658  0.9622  3.9298 -3.2645
  539MOL0     H72707   0.971  10.908   4.508 -0.1158  0.9847  0.6070
  539MOL0     H72708   0.776  10.768   4.422  0.9716  2.9972 -0.7709
  539MOL0     H72709   0.717  10.755   4.584  0.6185 -2.0926 -0.0158
  539MOL0     H72710   0.682  10.995   4.589  0.2439  3.6059 -2.3971
  539MOL0     H72711   0.734  11.014   4.421 -1.8661  1.4726 -0.8370
  539MOL0     H72712   0.542  10.856   4.354 -0.3960  0.0785  0.5326
  539MOL0     H72713   0.488  10.849   4.520 -0.3831  0.9086 -0.1384
  539MOL0     H72714   0.448  11.063   4.332 -2.2987  0.4766  0.6345
  539MOL0     H72715   0.468  11.111   4.504  0.3660  0.9014  0.0647
  539MOL0     H72716   0.236  10.832   4.332 -0.7568 -0.5460 -0.2763
  539MOL0     H72717   0.032  10.713   4.425 -0.6310  0.4251 -0.3733
  539MOL0     H72718   0.018  10.737   4.599  1.6101 -1.2880 -0.0766
  539MOL0     H72719  -0.122  10.910   4.380 -0.7518 -0.5517 -0.6891
  539MOL0     H72720  -0.170  10.908   4.559 -1.9840 -1.8631  0.1122
  539MOL0     H72721  -0.208  10.660   4.534  1.5759 -0.2634  0.0338
  539MOL0     H72722  -0.213  10.694   4.360 -1.4495 -3.7235  1.4996
  539MOL0     H72723  -0.396  10.871   4.423  0.9280  0.3599 -1.0393
  539MOL0     H72724  -0.396  10.818   4.590  1.1036 -2.2154  0.6624
  539MOL0     H72725  -0.632  10.496   4.399  0.8455  0.3436  0.9683
  539MOL0     H72726  -0.967  10.434   4.470 -0.1529  1.5871  0.6059
  539MOL0     H72727  -0.943  10.505   4.305  0.1605  1.6968  0.5396
  539MOL0     H72728  -0.830  10.388   4.381  2.9531  1.9757  1.2180
  539MOL0     H72729  -1.245  10.708   4.716  1.2318  0.0602 -1.6189
  539MOL0     H72730  -1.475  10.803   4.814  1.3584 -0.8762  0.1009
  539MOL0     H72731  -1.450  11.047   4.969 -0.0492 -0.8434 -0.9817
  539MOL0     H72732  -1.552  11.199   4.916 -0.1128 -0.0711 -2.7521
  539MOL0     H72733  -1.651  10.942   5.027  0.6071 -0.0017 -0.4687
  539MOL0     H72734  -1.629  11.093   5.116 -1.8140 -3.1173  0.7997
  539MOL0     H72735  -1.826  11.049   4.882  0.7423  1.7090 -2.1016
  539MOL0     H72736  -1.785  11.201   4.953  2.1129 -0.5666 -2.9195
  539MOL0     H72737  -1.889  10.952   5.106 -2.7098  0.1547  1.9926
  539MOL0     H72738  -1.858  11.108   5.175 -1.0787  0.0288  0.7491
  539MOL0     H72739  -2.068  11.058   4.960  2.0325  1.8498 -1.6288
  539MOL0     H72740  -2.061  11.213   5.042 -0.6525 -0.5147 -3.4141
  539MOL0     H72741  -2.127  10.949   5.183  0.0758 -1.1077 -2.7506
  539MOL0     H72742  -2.101  11.112   5.260 -4.1854  2.0353  0.5475
  539MOL0     H72743  -2.325  11.027   5.080 -2.4835 -1.0826  1.6129
  539MOL0     H72744  -2.289  11.202   5.117 -0.4420 -0.1751  2.3027
  539MOL0     H72745  -2.328  11.159   5.345  3.4647 -1.2241 -1.2920
  539MOL0     H72746  -2.370  10.986   5.313 -0.8694 -1.3810 -1.1700
  539MOL0     H72747  -1.349  11.190   4.689 -1.0476 -0.6881 -1.0956
  539MOL0     H72748  -1.131  11.095   4.598 -0.6688  2.2329 -0.0216
  539MOL0     H72749  -0.842  10.899   4.599 -1.9305 -1.6925  1.5157
  539MOL0     H72750  -0.601  10.886   4.560 -0.8548  0.8179 -1.9484
  539MOL0     H72751   1.466  10.804   5.019  0.9515  0.5083 -1.4769
  539MOL0     H72752   1.700  10.719   5.043 -0.0869  0.1873 -0.3320
  539MOL0     H72753   2.005  10.440   5.085  1.1731  1.3293 -1.4028
  539MOL0     H72754   2.232  10.366   5.132 -1.1748 -1.2860  0.9383
  539MOL0     H72755   2.546  10.098   4.901 -1.8600 -1.0615  0.1448
  539MOL0     H72756   2.436  10.161   4.781 -2.0716  0.2004  0.4450
  539MOL0     H72757   2.591  10.303   4.750 -0.2882 -3.5516 -0.5700
  539MOL0     H72758   2.653  10.318   4.921 -0.7667  1.1759  0.9017
  539MOL0     H72759   2.462  10.458   4.969 -2.2114 -2.5153  0.1011
  539MOL0     H72760   2.395  10.436   4.816 -1.0155 -2.9290  2.6535
  539MOL0     H72761   2.493  10.636   4.807 -0.8386 -0.6744 -2.7681
  539MOL0     H72762   2.608  10.542   4.720 -1.4105  0.3339  0.4670
  539MOL0     H72763   2.837  10.676   5.055  1.3125  1.2042 -3.0168
  539MOL0     H72764   2.230  10.131   4.769  0.2905  1.8421 -0.1095
  539MOL0     H72765   1.998  10.211   4.722 -0.0813 -0.5995 -0.0377
  540MOL0     O72766   3.186   4.995   5.294  0.4048  0.1388  0.1860
  540MOL0     C72767   3.177   4.916   5.194 -0.1240  0.2535  0.2033
  540MOL0     O72768   3.066   4.850   5.156 -0.2773 -0.2678 -0.4347
  540MOL0     C72769   2.948   4.872   5.227 -0.8275  0.2144 -0.7784
  540MOL0     C72770   2.882   4.990   5.254  0.1134 -0.2229  0.4275
  540MOL0     C72771   2.760   4.994   5.319 -0.4584  0.1961  0.6569
  540MOL0     C72772   2.699   4.877   5.361 -0.2861  0.3362 -0.2614
  540MOL0     O72773   2.582   4.879   5.422  0.7728  0.1709 -0.2966
  540MOL0     C72774   2.477   4.945   5.344 -0.6565 -1.2170 -0.0608
  540MOL0     C72775   2.348   4.864   5.332 -0.0417 -0.2788 -0.0965
  540MOL0     C72776   2.266   4.865   5.462  0.0456  0.3498  0.6792
  540MOL0     C72777   2.158   4.757   5.460 -0.4784  0.5338  0.1204
  540MOL0     C72778   2.048   4.792   5.554  0.2231  0.2952  0.2654
  540MOL0     C72779   1.944   4.691   5.573  0.0707 -0.5726  0.0052
  540MOL0     C72780   1.838   4.721   5.681 -0.8742  0.1332 -0.0674
  540MOL0     C72781   1.741   4.827   5.659 -0.0217  0.0233  0.1636
  540MOL0     N72782   1.616   4.758   5.603 -0.5257  0.3030  0.0820
  540MOL0     C72783   1.532   4.669   5.666  0.1942  0.0485  0.5908
  540MOL0     C72784   1.458   4.616   5.566  1.0732  0.3741 -0.2718
  540MOL0     C72785   1.346   4.512   5.590 -0.1833  0.1184  0.5862
  540MOL0     C72786   1.217   4.569   5.652  0.0898  0.0503  0.2902
  540MOL0     C72787   1.193   4.714   5.616  0.8288  0.0640 -0.4494
  540MOL0     C72788   1.041   4.738   5.646 -0.3048 -0.1207  0.6246
  540MOL0     O72789   1.007   4.876   5.666  0.0424  0.3150 -0.1300
  540MOL0     C72790   0.878   4.913   5.636 -0.2596  0.5227 -0.4444
  540MOL0     C72791   0.862   5.051   5.612  0.7515  0.1130  0.1843
  540MOL0     C72792   0.734   5.109   5.575  0.0991  0.8478  0.0397
  540MOL0     C72793   0.721   5.263   5.565 -0.5637  0.0936 -0.0188
  540MOL0     C72794   0.622   5.023   5.571  0.1591 -0.3829 -0.4474
  540MOL0     C72795   0.483   5.057   5.536 -0.0718  0.1484 -0.4866
  540MOL0     O72796   0.381   4.987   5.592 -0.5312  0.3064  0.5627
  540MOL0     C72797   0.254   4.985   5.542 -1.0555 -0.5500 -1.5250
  540MOL0     C72798   0.156   4.921   5.623 -0.5495 -0.3647 -0.6932
  540MOL0     C72799   0.016   4.930   5.598 -0.2156 -0.3675 -0.0058
  540MOL0     C72800  -0.029   4.971   5.477 -0.7829 -0.1102  0.4049
  540MOL0     O72801  -0.160   4.959   5.438  0.2202 -0.3788 -1.0454
  540MOL0     C72802  -0.210   4.993   5.311 -0.8715  0.5229 -0.0471
  540MOL0     C72803  -0.353   4.940   5.307 -0.5917  0.2869  0.5390
  540MOL0     C72804  -0.417   4.964   5.173  0.0434  0.6643 -0.0262
  540MOL0     C72805  -0.552   4.898   5.156  0.3342  0.2578  0.0548
  540MOL0     C72806  -0.660   4.940   5.254  0.0880 -0.4679  0.4198
  540MOL0     C72807  -0.669   4.857   5.381  0.0953 -0.5100 -0.8637
  540MOL0     C72808  -0.797   4.888   5.456 -0.4773  0.2503  0.0268
  540MOL0     C72809  -0.928   4.879   5.370  0.1887  0.1472 -0.7892
  540MOL0    Cl72810  -0.951   4.729   5.272  0.4973  0.3853 -0.8715
  540MOL0     C72811   0.072   5.029   5.390  0.7380 -0.3113 -0.2216
  540MOL0     C72812   0.211   5.032   5.419  0.5253 -0.3291 -0.1646
  540MOL0     O72813   0.474   5.149   5.458 -0.1212  0.0750 -0.0714
  540MOL0     C72814   0.639   4.881   5.589 -0.9391  0.7369 -0.9564
  540MOL0     C72815   0.769   4.826   5.621  0.2292 -1.1695  0.4510
  540MOL0     N72816   1.502   4.656   5.442 -0.0401 -0.2444 -0.6473
  540MOL0     N72817   1.594   4.745   5.465 -0.3944 -0.6744  0.2031
  540MOL0     C72818   2.760   4.762   5.331 -0.0022 -0.0630  0.0400
  540MOL0     C72819   2.877   4.762   5.257 -0.4703 -0.2830  0.5463
  540MOL0     C72820   3.291   4.890   5.105 -0.1766 -0.1020 -0.0470
  540MOL0     C72821   3.302   4.775   5.029 -0.5014 -0.1138 -0.9525
  540MOL0     C72822   3.428   4.755   4.970 -1.3135 -0.3794  0.5252
  540MOL0     C72823   3.543   4.841   4.991 -1.3428  0.4367 -0.1817
  540MOL0     O72824   3.667   4.808   4.939 -0.0968 -0.3079  0.0679
  540MOL0     C72825   3.702   4.674   4.916 -0.6680  0.0609  0.4640
  540MOL0     C72826   3.845   4.658   4.888 -0.4871  0.3341  0.6669
  540MOL0     C72827   3.935   4.708   5.005 -1.0334 -0.1844 -0.7812
  540MOL0     C72828   4.086   4.676   4.988 -0.2633  0.4594 -0.0325
  540MOL0     C72829   4.170   4.733   5.096 -0.3977 -0.1277  0.5382
  540MOL0     C72830   4.240   4.772   5.189 -0.4579 -1.3003  0.5231
  540MOL0     C72831   3.531   4.953   5.068  0.2109  0.3198  0.6295
  540MOL0     C72832   3.402   4.980   5.122 -0.3302 -0.3760 -0.0439
  540MOL0     H72833   2.913   5.092   5.234 -0.3482 -0.3721 -1.2142
  540MOL0     H72834   2.710   5.090   5.323  2.6099  2.0773 -1.5875
  540MOL0     H72835   2.451   5.033   5.403  0.4342 -0.1898 -1.0404
  540MOL0     H72836   2.511   4.968   5.242  2.7079 -2.0314  0.7451
  540MOL0     H72837   2.292   4.902   5.246  2.4699  1.1008 -1.2333
  540MOL0     H72838   2.362   4.759   5.304 -2.1966 -1.0490  1.4006
  540MOL0     H72839   2.325   4.848   5.552  2.3615 -1.2903 -1.0357
  540MOL0     H72840   2.219   4.963   5.467  0.5393  0.5220  2.7190
  540MOL0     H72841   2.109   4.751   5.362  0.7349 -0.8835 -0.4450
  540MOL0     H72842   2.206   4.661   5.479  2.8000  1.9067 -0.5954
  540MOL0     H72843   2.084   4.831   5.650  2.2600 -0.0558 -0.3100
  540MOL0     H72844   1.996   4.882   5.519 -1.2619 -0.4800  0.3791
  540MOL0     H72845   1.895   4.667   5.479  1.2254 -1.6725 -0.3490
  540MOL0     H72846   1.989   4.598   5.611  0.3729  0.2163  1.6811
  540MOL0     H72847   1.795   4.627   5.716 -0.1581 -0.1182  0.1648
  540MOL0     H72848   1.897   4.761   5.764  0.5014 -1.5650 -0.1703
  540MOL0     H72849   1.778   4.906   5.592 -1.4570  0.0031 -0.7093
  540MOL0     H72850   1.707   4.878   5.750  0.6391  0.3483  0.2285
  540MOL0     H72851   1.519   4.667   5.774  2.3425 -2.5372  0.9082
  540MOL0     H72852   1.328   4.471   5.490  0.3744 -1.0511  0.9497
  540MOL0     H72853   1.377   4.425   5.647 -1.8717 -0.7414  0.2701
  540MOL0     H72854   1.232   4.562   5.760  2.3965 -0.7852 -0.0310
  540MOL0     H72855   1.132   4.512   5.614 -1.8973  3.1007 -0.1541
  540MOL0     H72856   1.223   4.743   5.515  0.7103 -1.0604 -0.8205
  540MOL0     H72857   1.255   4.765   5.689 -1.5382 -0.9627  2.4929
  540MOL0     H72858   1.008   4.678   5.732  1.4632 -1.1557  0.6219
  540MOL0     H72859   0.990   4.697   5.557  1.4399  1.5533 -1.2521
  540MOL0     H72860   0.946   5.115   5.636  1.2841 -1.1234  1.8283
  540MOL0     H72861   0.618   5.295   5.583 -0.1906  0.5429  1.5586
  540MOL0     H72862   0.780   5.315   5.642 -0.1856 -1.8824  1.0959
  540MOL0     H72863   0.760   5.299   5.470 -0.7110 -0.9916 -0.4990
  540MOL0     H72864   0.183   4.866   5.714 -0.5953  0.1887 -0.3417
  540MOL0     H72865  -0.060   4.883   5.661  0.8431 -0.7358  1.0362
  540MOL0     H72866  -0.222   5.102   5.310 -2.7294  0.3809  1.4881
  540MOL0     H72867  -0.150   4.955   5.228 -1.2831 -1.8807  0.6747
  540MOL0     H72868  -0.350   4.833   5.325  1.4765  0.6200  2.6011
  540MOL0     H72869  -0.410   4.990   5.386 -1.0491 -0.6976  0.8403
  540MOL0     H72870  -0.349   4.935   5.092  1.4521  0.0820  1.3255
  540MOL0     H72871  -0.445   5.068   5.153 -0.0258  0.3023 -2.0698
  540MOL0     H72872  -0.591   4.930   5.059 -0.8932  1.1511  0.8057
  540MOL0     H72873  -0.550   4.789   5.149 -0.2920  0.3155 -1.3748
  540MOL0     H72874  -0.751   4.922   5.195 -0.0009 -1.2688  0.7863
  540MOL0     H72875  -0.655   5.047   5.273  2.2056 -0.2264 -1.0803
  540MOL0     H72876  -0.669   4.749   5.364 -1.8006 -0.8354  0.7992
  540MOL0     H72877  -0.580   4.868   5.444 -1.0422 -1.2858  0.9717
  540MOL0     H72878  -0.798   4.993   5.484  1.1580 -0.5262  3.5768
  540MOL0     H72879  -0.801   4.824   5.545  3.0694 -0.0239  0.1605
  540MOL0     H72880  -0.938   4.966   5.304 -1.8094  3.2189  3.1131
  540MOL0     H72881  -1.006   4.876   5.447 -1.0272  0.9422 -1.9571
  540MOL0     H72882   0.048   5.054   5.287  2.3187  0.8060 -0.3419
  540MOL0     H72883   0.277   5.063   5.339 -1.6740  1.2130 -1.4804
  540MOL0     H72884   0.560   4.807   5.583 -0.1695 -0.1697 -0.1809
  540MOL0     H72885   0.777   4.718   5.633  0.8559 -1.0157  1.6586
  540MOL0     H72886   2.712   4.670   5.365 -2.1198 -0.1539 -2.7965
  540MOL0     H72887   2.921   4.666   5.230 -0.1833 -0.0252  0.0894
  540MOL0     H72888   3.212   4.718   5.006 -1.2283 -0.8530  3.0602
  540MOL0     H72889   3.439   4.671   4.902 -0.0796  1.3605 -1.5440
  540MOL0     H72890   3.670   4.618   5.004  2.5483  0.2215  1.8630
  540MOL0     H72891   3.641   4.626   4.839 -0.0545 -0.2125  0.1396
  540MOL0     H72892   3.873   4.710   4.796 -2.2090 -0.0636 -0.1111
  540MOL0     H72893   3.864   4.551   4.877  0.1857  0.5257 -0.0868
  540MOL0     H72894   3.903   4.669   5.102  2.7182 -0.1104  0.6526
  540MOL0     H72895   3.926   4.817   5.011  1.6612  0.0557  0.5324
  540MOL0     H72896   4.127   4.712   4.893  1.6328  1.8292  1.2226
  540MOL0     H72897   4.093   4.567   4.986  1.3298  0.5327  0.2135
  540MOL0     H72898   4.296   4.810   5.271  0.9277  1.1693 -1.4135
  540MOL0     H72899   3.624   5.003   5.092  0.9473 -1.4006  1.5447
  540MOL0     H72900   3.391   5.070   5.182 -1.3350  0.3028 -1.1858
  541MOL0     O72901   4.418   4.824   5.944 -0.6764  0.1466  0.1813
  541MOL0     C72902   4.486   4.927   5.951 -0.0029 -0.0616 -1.4320
  541MOL0     O72903   4.451   5.035   6.023 -0.0952 -0.2087 -0.4281
  541MOL0     C72904   4.322   5.041   6.075 -0.6514 -0.1027 -0.7365
  541MOL0     C72905   4.306   5.079   6.205  0.5241  0.1752 -0.1486
  541MOL0     C72906   4.186   5.080   6.266  1.0996  0.1865 -0.6810
  541MOL0     C72907   4.070   5.032   6.204 -0.0823  1.0555 -0.6982
  541MOL0     O72908   3.955   5.029   6.275 -0.1961  0.2148 -0.7797
  541MOL0     C72909   3.838   4.954   6.221  0.5249  0.7104 -0.2195
  541MOL0     C72910   3.740   5.052   6.150 -0.3789  0.7187 -0.6125
  541MOL0     C72911   3.633   4.976   6.074  0.4329  0.4447 -0.3356
  541MOL0     C72912   3.554   4.882   6.162 -0.0924 -0.0198  0.1722
  541MOL0     C72913   3.422   4.872   6.097 -0.7803 -0.0430  0.3179
  541MOL0     C72914   3.341   4.758   6.145 -0.1673 -0.5673 -0.9029
  541MOL0     C72915   3.209   4.729   6.066 -0.6263  0.4976 -0.9492
  541MOL0     C72916   3.123   4.852   6.034  0.0782  0.2328 -0.3957
  541MOL0     N72917   3.038   4.900   6.148 -0.0896  0.2225 -0.6336
  541MOL0     C72918   2.921   4.839   6.184 -0.0860 -0.5822  0.7638
  541MOL0     C72919   2.889   4.913   6.297  0.2457  0.3965  0.2156
  541MOL0     C72920   2.752   4.895   6.365 -0.1269  0.4480  0.2451
  541MOL0     C72921   2.749   4.913   6.515 -1.1940 -0.4745 -0.6265
  541MOL0     C72922   2.625   4.841   6.574 -0.0424 -0.2497  0.8280
  541MOL0     C72923   2.495   4.903   6.527 -0.4059 -0.9310 -0.1014
  541MOL0     O72924   2.397   4.812   6.581  0.0081  0.4763 -0.0291
  541MOL0     C72925   2.259   4.832   6.569  0.1413  0.1480 -0.7194
  541MOL0     C72926   2.185   4.746   6.655  0.3776  1.5036  0.0360
  541MOL0     C72927   2.044   4.759   6.662  0.3171 -0.6784 -0.6191
  541MOL0     C72928   1.979   4.664   6.749 -0.8470 -0.4441 -0.4298
  541MOL0     C72929   1.978   4.873   6.604 -0.6878 -0.2753 -1.1464
  541MOL0     C72930   1.833   4.899   6.612 -0.0092  0.0876 -0.1755
  541MOL0     O72931   1.792   4.993   6.528 -0.2578 -0.3323 -0.7187
  541MOL0     C72932   1.665   5.052   6.552 -0.4669  0.2535 -0.3117
  541MOL0     C72933   1.555   4.992   6.488  0.3018 -0.4598  0.1352
  541MOL0     C72934   1.429   5.037   6.527  0.3897 -0.0277 -0.1687
  541MOL0     C72935   1.405   5.146   6.616  0.3960 -0.0121  0.1377
  541MOL0     O72936   1.278   5.194   6.656 -0.9289  0.3142 -0.1838
  541MOL0     C72937   1.173   5.162   6.569  0.1955 -0.2437 -0.1141
  541MOL0     C72938   1.045   5.211   6.616 -0.2448  0.9714  0.4128
  541MOL0     C72939   0.927   5.123   6.564  0.4653  0.8864 -0.3159
  541MOL0     C72940   0.803   5.205   6.581  0.0334 -0.4186  0.4002
  541MOL0     C72941   0.683   5.149   6.515  0.3859 -0.5594  0.2537
  541MOL0     C72942   0.554   5.226   6.520  1.2962 -1.1984 -1.2944
  541MOL0     C72943   0.448   5.157   6.439  0.5186  0.4906 -0.0586
  541MOL0     C72944   0.316   5.225   6.446  0.5554  0.9120 -0.1081
  541MOL0    Cl72945   0.246   5.188   6.610  0.1611  0.2745  0.0261
  541MOL0     C72946   1.519   5.207   6.673 -0.1242 -0.0970 -0.2507
  541MOL0     C72947   1.649   5.162   6.635 -0.4657 -0.4447  0.3833
  541MOL0     O72948   1.758   4.830   6.686 -0.0424  0.9381 -0.1906
  541MOL0     C72949   2.060   4.966   6.541  0.8394  0.5216  0.6257
  541MOL0     C72950   2.197   4.947   6.520 -0.2057  0.0192  0.2995
  541MOL0     N72951   2.983   5.000   6.334  0.2948 -0.6320 -0.2217
  541MOL0     N72952   3.073   4.990   6.241 -0.2578  0.1882  0.4117
  541MOL0     C72953   4.084   4.995   6.070 -1.5109  1.0726  0.2083
  541MOL0     C72954   4.209   5.008   6.002  0.4876  0.9061  0.0232
  541MOL0     C72955   4.613   4.936   5.885 -0.7120 -0.2404  0.2755
  541MOL0     C72956   4.645   4.844   5.785 -0.7310 -0.0652  0.6344
  541MOL0     C72957   4.771   4.846   5.724 -0.2369  0.7533  0.4548
  541MOL0     C72958   4.863   4.949   5.744  0.0269  0.3649 -0.8223
  541MOL0     O72959   4.981   4.967   5.689  0.3154 -0.0956  0.7135
  541MOL0     C72960   5.016   4.901   5.559 -0.5581 -0.3156 -0.2331
  541MOL0     C72961   5.093   5.012   5.476 -0.3262 -0.5893  1.6942
  541MOL0     C72962   5.244   5.019   5.516 -1.3589 -0.0301  0.1525
  541MOL0     C72963   5.325   5.047   5.394 -0.4001  0.5836  0.1835
  541MOL0     C72964   5.468   5.030   5.417  0.4133  0.7422  0.0102
  541MOL0     C72965   5.583   5.042   5.454 -0.6621  0.6524 -0.1701
  541MOL0     C72966   4.825   5.045   5.837  0.0167 -0.0846  0.2398
  541MOL0     C72967   4.707   5.037   5.906  0.4428  0.4170  0.4688
  541MOL0     H72968   4.396   5.111   6.258  0.1434 -0.2833  0.7900
  541MOL0     H72969   4.186   5.119   6.367  2.4825  0.7674 -0.8799
  541MOL0     H72970   3.860   4.872   6.152 -0.6990 -0.9738  1.2976
  541MOL0     H72971   3.784   4.899   6.298  3.0046 -0.9607  0.4034
  541MOL0     H72972   3.686   5.115   6.222 -0.8382 -1.5114  1.1131
  541MOL0     H72973   3.797   5.116   6.082  1.5654 -0.8603 -0.5458
  541MOL0     H72974   3.574   5.057   6.031  0.1539  1.2030  1.3923
  541MOL0     H72975   3.662   4.916   5.987  1.8636  0.7315 -0.0823
  541MOL0     H72976   3.612   4.790   6.166  1.1619  0.7494  3.3932
  541MOL0     H72977   3.548   4.916   6.266  1.5720 -0.1625  0.3370
  541MOL0     H72978   3.367   4.967   6.107 -1.2927 -0.1450 -1.2766
  541MOL0     H72979   3.438   4.873   5.989  1.6437  3.0316  0.5572
  541MOL0     H72980   3.406   4.670   6.158  2.2266  0.8659 -2.3353
  541MOL0     H72981   3.308   4.781   6.246 -0.9564 -0.1052 -1.2607
  541MOL0     H72982   3.232   4.668   5.978 -1.5336  0.8258 -1.4332
  541MOL0     H72983   3.143   4.660   6.120  3.2666 -2.2897  0.6948
  541MOL0     H72984   3.056   4.827   5.951  0.4283 -1.8957 -0.0940
  541MOL0     H72985   3.183   4.931   5.986  1.4385 -0.0530  0.7501
  541MOL0     H72986   2.870   4.760   6.129  0.5059  1.1250 -2.5061
  541MOL0     H72987   2.680   4.955   6.309 -0.3293 -0.2250 -0.2300
  541MOL0     H72988   2.721   4.792   6.345  3.6025 -1.1499  1.7051
  541MOL0     H72989   2.741   5.019   6.542 -1.2081 -0.8522  0.9709
  541MOL0     H72990   2.846   4.882   6.555  1.7847  3.2212 -4.1623
  541MOL0     H72991   2.622   4.854   6.683 -3.1763  2.8938  0.5211
  541MOL0     H72992   2.621   4.733   6.555  0.9981 -0.2801  0.7473
  541MOL0     H72993   2.488   4.919   6.419 -1.5091 -2.1233 -0.2336
  541MOL0     H72994   2.481   5.003   6.567 -1.0064 -0.0908 -2.2627
  541MOL0     H72995   2.246   4.675   6.709  0.3598  2.2424  1.0449
  541MOL0     H72996   1.896   4.615   6.697 -1.1610  0.7117 -1.0496
  541MOL0     H72997   2.050   4.586   6.778  0.8656  1.5951  1.1725
  541MOL0     H72998   1.938   4.705   6.842  1.2312  0.6593  0.0476
  541MOL0     H72999   1.579   4.913   6.417 -0.0617  1.2297 -1.9781
  541MOL0     H73000   1.343   4.993   6.478  0.6550  0.4439 -1.0732
  541MOL0     H73001   1.194   5.180   6.463 -0.7893 -3.0354 -0.8844
  541MOL0     H73002   1.158   5.054   6.560  0.1015 -0.3100  0.7166
  541MOL0     H73003   1.032   5.223   6.724  0.2208  2.0358  0.3641
  541MOL0     H73004   1.032   5.306   6.563  1.6997  1.9512  1.5955
  541MOL0     H73005   0.925   5.034   6.627 -0.0447  2.2747  1.7256
  541MOL0     H73006   0.943   5.087   6.462 -0.8423 -1.4437  0.2214
  541MOL0     H73007   0.773   5.222   6.685 -1.5307  0.0128 -0.0850
  541MOL0     H73008   0.817   5.300   6.528 -1.1292  0.4236  1.5333
  541MOL0     H73009   0.660   5.053   6.562 -1.5707 -1.3507 -2.1101
  541MOL0     H73010   0.709   5.130   6.410  0.5871 -0.8597  0.3592
  541MOL0     H73011   0.520   5.239   6.623  4.4605 -1.1569 -0.1570
  541MOL0     H73012   0.585   5.321   6.475  2.7364 -0.7727  0.4624
  541MOL0     H73013   0.444   5.056   6.480  0.2762  0.6941  0.4290
  541MOL0     H73014   0.475   5.156   6.333 -1.1570  0.7146 -0.5096
  541MOL0     H73015   0.251   5.185   6.367 -0.0958 -1.0405  1.3508
  541MOL0     H73016   0.321   5.334   6.440 -0.4067  1.0057  0.6687
  541MOL0     H73017   1.506   5.294   6.736  0.9824 -0.6216  0.7240
  541MOL0     H73018   1.733   5.204   6.690 -3.0339  1.1181  3.4685
  541MOL0     H73019   2.010   5.055   6.504  1.6778  0.1881 -1.4921
  541MOL0     H73020   2.242   5.025   6.460 -4.7170  0.3173 -3.2796
  541MOL0     H73021   4.005   4.972   5.999 -1.9968  1.6352  0.5572
  541MOL0     H73022   4.215   4.990   5.895  2.2941  1.7379 -0.0467
  541MOL0     H73023   4.571   4.774   5.747 -1.0674  0.6910 -0.1072
  541MOL0     H73024   4.807   4.760   5.668 -1.7134 -1.6446  2.9025
  541MOL0     H73025   5.080   4.817   5.587 -0.6526  0.0842  1.3325
  541MOL0     H73026   4.932   4.861   5.502 -1.1976  0.1943  0.3296
  541MOL0     H73027   5.054   5.114   5.482  2.6854  0.6933  1.1885
  541MOL0     H73028   5.080   4.978   5.373  1.1875  0.2774  1.1922
  541MOL0     H73029   5.287   4.934   5.569 -0.2843 -0.7321 -1.7753
  541MOL0     H73030   5.251   5.104   5.584  3.1152 -0.4941  0.5537
  541MOL0     H73031   5.299   5.145   5.353 -4.8095 -0.7467 -0.6555
  541MOL0     H73032   5.289   4.975   5.320 -0.7355  0.2111  0.7008
  541MOL0     H73033   5.688   5.047   5.477  0.6360 -0.3547 -4.6622
  541MOL0     H73034   4.883   5.130   5.869  1.6949 -1.4971  1.1386
  541MOL0     H73035   4.682   5.118   5.974 -1.6630  0.4033 -0.2377
  542MOL0     O73036   6.235  10.028   4.325  0.7075  0.5614 -0.1310
  542MOL0     C73037   6.294   9.965   4.410 -0.1390  0.7308 -0.7656
  542MOL0     O73038   6.234   9.886   4.508 -0.7745 -0.2653  0.4739
  542MOL0     C73039   6.095   9.894   4.524  0.8260 -0.2894  0.1423
  542MOL0     C73040   6.024  10.014   4.511 -0.2217  0.0383 -0.0024
  542MOL0     C73041   5.884  10.016   4.553 -0.9199  0.2510  0.1850
  542MOL0     C73042   5.821   9.910   4.615  0.8081  0.4932  0.0277
  542MOL0     O73043   5.694   9.924   4.667 -0.1576 -0.4997  0.9071
  542MOL0     C73044   5.572   9.888   4.594 -0.3877 -0.5092  0.2172
  542MOL0     C73045   5.490   9.803   4.684  0.4934 -0.7445  0.8925
  542MOL0     C73046   5.386   9.716   4.600 -0.3650 -0.0613 -0.3981
  542MOL0     C73047   5.266   9.669   4.678  0.2805  0.1575 -0.0625
  542MOL0     C73048   5.147   9.628   4.586  0.1762 -0.5950  0.4927
  542MOL0     C73049   5.066   9.752   4.541  0.2285 -0.0048  0.1468
  542MOL0     C73050   5.026   9.835   4.665  0.0316 -0.1909  0.0066
  542MOL0     C73051   4.943   9.949   4.632  0.2239 -1.0951  0.8137
  542MOL0     N73052   4.798   9.927   4.619 -0.0268  0.0237  0.4706
  542MOL0     C73053   4.739   9.873   4.515 -0.3512 -0.2520 -1.2363
  542MOL0     C73054   4.616   9.842   4.565  0.1267  0.3385 -0.4691
  542MOL0     C73055   4.501   9.787   4.485 -0.3264 -0.1138  0.0454
  542MOL0     C73056   4.367   9.809   4.554 -0.5024 -0.2091 -0.0779
  542MOL0     C73057   4.253   9.763   4.459 -0.4272 -0.4472 -0.1014
  542MOL0     C73058   4.112   9.780   4.498  0.3393 -0.2108 -0.0835
  542MOL0     O73059   4.042   9.795   4.372 -0.4885  0.1813 -0.4349
  542MOL0     C73060   3.905   9.812   4.377 -0.0206  0.5006  0.0579
  542MOL0     C73061   3.850   9.832   4.252 -0.9873  0.6089  0.4610
  542MOL0     C73062   3.709   9.850   4.232 -0.7112 -0.0553 -0.1633
  542MOL0     C73063   3.661   9.878   4.084 -0.7335  0.7201 -0.7254
  542MOL0     C73064   3.625   9.835   4.344  0.5280 -0.5723  0.5354
  542MOL0     C73065   3.479   9.839   4.338  0.4436  0.0456 -0.4768
  542MOL0     O73066   3.416   9.777   4.445  0.8046  0.2915  0.1751
  542MOL0     C73067   3.279   9.760   4.444  0.0217  0.3761  0.4972
  542MOL0     C73068   3.198   9.872   4.431  0.0847  0.0402  0.0215
  542MOL0     C73069   3.060   9.862   4.430 -0.1400 -0.5642  0.0382
  542MOL0     C73070   2.997   9.744   4.447 -1.2006 -0.5701  0.2848
  542MOL0     O73071   2.862   9.721   4.457 -0.4847  0.0201  0.1726
  542MOL0     C73072   2.778   9.819   4.516  0.8498 -0.0740 -0.4460
  542MOL0     C73073   2.641   9.758   4.559 -0.1866  0.4887  0.0967
  542MOL0     C73074   2.568   9.721   4.432 -0.2251 -0.7561  0.6376
  542MOL0     C73075   2.580   9.572   4.390  0.4612  0.2353  0.3299
  542MOL0     C73076   2.490   9.529   4.273 -0.2823  0.2550 -0.3748
  542MOL0     C73077   2.342   9.510   4.294  0.3096 -0.1715  0.6492
  542MOL0     C73078   2.317   9.388   4.387 -0.5255  0.5317  0.0790
  542MOL0     C73079   2.174   9.339   4.381  0.1302  0.5758 -0.0240
  542MOL0    Cl73080   2.118   9.327   4.212  0.0921 -0.1767  0.0280
  542MOL0     C73081   3.079   9.632   4.457  0.0415  0.1256 -0.3511
  542MOL0     C73082   3.221   9.633   4.454 -0.3845 -0.7364 -0.4272
  542MOL0     O73083   3.428   9.889   4.239  0.2455 -0.3334  0.3405
  542MOL0     C73084   3.684   9.824   4.472 -0.4835 -0.1927 -0.4088
  542MOL0     C73085   3.825   9.814   4.488  0.1670  0.3266  0.3169
  542MOL0     N73086   4.599   9.883   4.698 -0.3997  0.3336 -0.4360
  542MOL0     N73087   4.713   9.938   4.727 -1.0327  0.8527  0.5309
  542MOL0     C73088   5.892   9.790   4.631 -0.3200  0.3053  0.1403
  542MOL0     C73089   6.029   9.786   4.589  0.0024 -0.2970  0.3371
  542MOL0     C73090   6.439   9.963   4.420  0.7142  0.6739 -0.1067
  542MOL0     C73091   6.517  10.029   4.328 -0.8125  0.5551 -0.2424
  542MOL0     C73092   6.655  10.050   4.349 -0.0358  0.4775 -0.1137
  542MOL0     C73093   6.717   9.996   4.458  0.8272 -0.2872  0.0819
  542MOL0     O73094   6.848  10.010   4.490 -0.1675 -0.0630  0.6535
  542MOL0     C73095   6.932  10.090   4.407 -0.0048 -0.5866 -0.6181
  542MOL0     C73096   7.004  10.007   4.299  0.1724  0.0947 -0.3568
  542MOL0     C73097   7.157  10.015   4.306  0.0730  0.8024  0.3639
  542MOL0     C73098   7.206  10.148   4.268 -0.0269  0.2237 -0.8896
  542MOL0     C73099   7.353  10.153   4.253  0.1795 -0.1317  0.0192
  542MOL0     C73100   7.470  10.174   4.229 -0.2326  0.8486  0.2072
  542MOL0     C73101   6.642   9.920   4.544  0.0664 -0.2765  0.2090
  542MOL0     C73102   6.501   9.902   4.529 -0.1667  0.4537 -0.5680
  542MOL0     H73103   6.066  10.105   4.471 -0.6491  0.9438  1.5150
  542MOL0     H73104   5.824  10.104   4.533  0.0491  0.3342 -2.9685
  542MOL0     H73105   5.515   9.975   4.560 -0.4056 -0.6580 -0.1417
  542MOL0     H73106   5.612   9.827   4.512  0.9141  0.4164  0.1267
  542MOL0     H73107   5.548   9.734   4.745  0.3795 -0.8545  0.8783
  542MOL0     H73108   5.438   9.869   4.754 -0.9190 -0.6745 -0.1669
  542MOL0     H73109   5.347   9.774   4.516  2.1331  2.3027 -0.0381
  542MOL0     H73110   5.448   9.635   4.560 -2.4395 -1.5786 -0.6983
  542MOL0     H73111   5.305   9.574   4.714 -0.3168 -0.5388 -1.1928
  542MOL0     H73112   5.232   9.730   4.762  1.8269  0.9757  0.0194
  542MOL0     H73113   5.175   9.562   4.504 -4.2795 -3.0006  0.5741
  542MOL0     H73114   5.081   9.563   4.644 -0.1650 -0.3218  0.4152
  542MOL0     H73115   5.112   9.824   4.473 -0.8018 -0.9266 -1.5893
  542MOL0     H73116   4.974   9.721   4.491 -0.1599 -0.8606  1.3507
  542MOL0     H73117   4.975   9.768   4.734 -2.2661  1.5465  0.1343
  542MOL0     H73118   5.116   9.880   4.707 -0.2125 -0.5406  0.9205
  542MOL0     H73119   4.982   9.984   4.535  0.6021  0.8640  1.6226
  542MOL0     H73120   4.968  10.021   4.710 -0.3615 -0.3118  0.2868
  542MOL0     H73121   4.770   9.865   4.411 -1.8236  1.2813 -1.8284
  542MOL0     H73122   4.499   9.831   4.385  2.9609 -1.6609 -0.8269
  542MOL0     H73123   4.527   9.683   4.466 -0.6298 -0.0490 -0.7757
  542MOL0     H73124   4.359   9.917   4.572 -0.8973 -0.4556  1.3492
  542MOL0     H73125   4.355   9.757   4.649 -0.6565 -0.8017 -0.4146
  542MOL0     H73126   4.259   9.657   4.430  0.4611 -0.2810 -0.5598
  542MOL0     H73127   4.278   9.832   4.378 -0.5635  3.3307  2.8276
  542MOL0     H73128   4.100   9.874   4.552 -1.0319 -0.4106  0.0076
  542MOL0     H73129   4.076   9.697   4.560  0.2063 -1.9733 -2.3504
  542MOL0     H73130   3.913   9.832   4.163 -0.4089  3.1349  0.7951
  542MOL0     H73131   3.575   9.816   4.058  1.3302 -1.4889 -2.6890
  542MOL0     H73132   3.640   9.986   4.080  1.7588  1.3837  1.1456
  542MOL0     H73133   3.740   9.863   4.010  0.9103  3.0489  0.3980
  542MOL0     H73134   3.244   9.970   4.440  1.0575 -0.4561  0.6261
  542MOL0     H73135   2.993   9.947   4.424  0.0035 -0.4668 -0.2425
  542MOL0     H73136   2.830   9.861   4.603 -0.8543 -0.3283  0.7537
  542MOL0     H73137   2.760   9.903   4.448 -0.6955 -0.2439 -0.2795
  542MOL0     H73138   2.657   9.665   4.615 -0.8735  0.8116  0.8506
  542MOL0     H73139   2.586   9.817   4.632 -0.7047 -0.5469  0.5661
  542MOL0     H73140   2.614   9.778   4.350  0.8759 -0.4943  1.4097
  542MOL0     H73141   2.461   9.738   4.442  0.0133  3.1845 -1.3386
  542MOL0     H73142   2.684   9.552   4.361  0.0818  1.4943 -2.1139
  542MOL0     H73143   2.551   9.505   4.471  0.5825 -0.5070 -0.2262
  542MOL0     H73144   2.529   9.441   4.222  0.9427  1.1876 -1.1100
  542MOL0     H73145   2.512   9.607   4.199  0.7287 -0.7354 -1.1646
  542MOL0     H73146   2.288   9.597   4.334 -0.7182 -0.7092  0.4648
  542MOL0     H73147   2.305   9.481   4.196  0.8040  1.6333 -0.1147
  542MOL0     H73148   2.339   9.411   4.491 -0.0544 -2.5765  0.7700
  542MOL0     H73149   2.384   9.307   4.356 -0.2801  1.0101 -0.6785
  542MOL0     H73150   2.113   9.404   4.445 -0.5614 -1.7535  1.8166
  542MOL0     H73151   2.172   9.236   4.417  0.5743  0.9687  1.1765
  542MOL0     H73152   3.037   9.535   4.479  0.0707  0.1657 -0.1086
  542MOL0     H73153   3.278   9.542   4.469 -1.6560 -1.5559 -0.4518
  542MOL0     H73154   3.627   9.831   4.564  1.6056  0.2112  0.9075
  542MOL0     H73155   3.857   9.813   4.592  2.4430  1.8919 -0.3035
  542MOL0     H73156   5.858   9.699   4.679  0.4254 -0.1284 -0.1423
  542MOL0     H73157   6.078   9.693   4.614 -0.8945  0.0739  4.1067
  542MOL0     H73158   6.468  10.071   4.240  0.8196  1.0288 -0.9548
  542MOL0     H73159   6.705  10.094   4.263 -1.1427  2.4498  0.1910
  542MOL0     H73160   6.883  10.176   4.360  1.3865  1.0126  0.7155
  542MOL0     H73161   7.007  10.145   4.464 -1.2956 -1.3542  1.9594
  542MOL0     H73162   6.965  10.040   4.202 -0.3740 -2.6359 -1.1407
  542MOL0     H73163   6.982   9.901   4.313 -0.1151  0.2069  0.0553
  542MOL0     H73164   7.197   9.939   4.238 -0.0422 -1.3959  2.6127
  542MOL0     H73165   7.192   9.985   4.405 -0.4296  0.4466  0.4364
  542MOL0     H73166   7.185  10.217   4.350  0.3715 -1.6883  0.8826
  542MOL0     H73167   7.161  10.179   4.173  1.6747 -1.9353 -2.5019
  542MOL0     H73168   7.572  10.196   4.205  0.1143 -0.8120  0.0068
  542MOL0     H73169   6.695   9.873   4.627 -1.3953 -0.1304  1.2501
  542MOL0     H73170   6.457   9.836   4.603  1.2986  0.7021  0.5843
  543MOL0     O73171  10.556   6.227   9.876 -0.3637  0.4427  0.0210
  543MOL0     C73172  10.608   6.116   9.854 -0.1479  0.5522 -0.8872
  543MOL0     O73173  10.544   5.992   9.869 -0.0897 -0.0161 -0.3113
  543MOL0     C73174  10.408   5.987   9.889  0.6860 -1.6392 -0.8690
  543MOL0     C73175  10.354   6.067   9.989 -0.0724  0.3971 -0.0893
  543MOL0     C73176  10.214   6.071  10.012  0.2718 -0.5545  0.0770
  543MOL0     C73177  10.126   6.009   9.928  0.8987  0.6626 -0.5098
  543MOL0     O73178   9.987   6.023   9.938 -0.1933  0.3967  0.0609
  543MOL0     C73179   9.920   6.063  10.067  0.4865  0.1889  0.1994
  543MOL0     C73180   9.765   6.065  10.055  0.6645  0.6021  0.2977
  543MOL0     C73181   9.696   6.039  10.192 -1.0902 -0.7638 -0.4603
  543MOL0     C73182   9.546   5.997  10.180 -0.0382  1.1094  0.2727
  543MOL0     C73183   9.475   6.003  10.309  0.4337 -0.2725  0.2351
  543MOL0     C73184   9.439   6.146  10.361  0.3054 -0.6221  0.1884
  543MOL0     C73185   9.363   6.163  10.483 -0.0206  0.6207  0.8537
  543MOL0     C73186   9.215   6.111  10.475  0.2053 -1.1525 -0.1760
  543MOL0     N73187   9.128   6.188  10.381 -0.1739  1.1691  0.1984
  543MOL0     C73188   9.069   6.307  10.393 -0.1147 -0.2907 -0.1826
  543MOL0     C73189   8.991   6.324  10.282 -0.5886 -0.0450  0.1847
  543MOL0     C73190   8.917   6.450  10.240 -0.4708 -0.1766 -0.5042
  543MOL0     C73191   8.795   6.426  10.154 -1.2730  0.1877 -0.1965
  543MOL0     C73192   8.780   6.552  10.069  0.0609  0.1348  0.5503
  543MOL0     C73193   8.641   6.561  10.008 -0.5452 -0.0456 -0.1896
  543MOL0     O73194   8.540   6.572  10.106 -0.1113  0.3541  0.1490
  543MOL0     C73195   8.429   6.650  10.080  0.8576  0.6275 -0.1913
  543MOL0     C73196   8.435   6.788  10.089 -0.2787  0.3744  0.3368
  543MOL0     C73197   8.326   6.867  10.064 -0.8558  0.6447 -1.1493
  543MOL0     C73198   8.340   7.020  10.078  0.2386  0.5730 -0.5207
  543MOL0     C73199   8.201   6.809  10.023  0.2742 -0.2373 -0.0356
  543MOL0     C73200   8.074   6.877   9.996 -1.3283 -1.0363  0.2269
  543MOL0     O73201   7.965   6.799   9.962 -0.4520  0.2236  0.4547
  543MOL0     C73202   7.842   6.849   9.951 -0.3618 -0.0643  1.1771
  543MOL0     C73203   7.761   6.799   9.840 -0.1862 -0.7439 -0.5808
  543MOL0     C73204   7.627   6.841   9.838 -0.1846 -0.2631  0.4004
  543MOL0     C73205   7.574   6.934   9.927 -1.0290 -0.5161  0.2683
  543MOL0     O73206   7.435   6.964   9.923 -0.0249 -0.0749  0.8150
  543MOL0     C73207   7.387   7.082   9.982  0.9158  0.0123  0.0594
  543MOL0     C73208   7.338   7.050  10.120  0.2067 -0.3912 -1.2476
  543MOL0     C73209   7.201   6.970  10.109  0.5146 -0.3436 -0.1754
  543MOL0     C73210   7.091   7.072  10.084  0.1792 -0.3056  0.5284
  543MOL0     C73211   6.957   7.007  10.065  0.3010 -0.2236 -0.3698
  543MOL0     C73212   6.857   7.108  10.026 -0.0791 -0.2942 -0.0290
  543MOL0     C73213   6.718   7.042  10.017  0.1883 -1.4568 -0.3347
  543MOL0     C73214   6.723   6.916   9.941  0.8815  0.7906  0.5016
  543MOL0    Cl73215   6.554   6.860   9.918  0.0812 -0.2996  0.4387
  543MOL0     C73216   7.662   6.989  10.026  0.2755  0.8978 -0.0902
  543MOL0     C73217   7.791   6.943  10.041  0.6070  0.1854  0.7436
  543MOL0     O73218   8.074   6.998  10.012  0.7254  0.7199  0.3846
  543MOL0     C73219   8.198   6.667  10.013 -0.0782  0.8593 -0.0310
  543MOL0     C73220   8.304   6.589  10.050  0.0280 -0.5749 -0.4990
  543MOL0     N73221   9.019   6.221  10.199 -0.0921 -0.0825 -0.2923
  543MOL0     N73222   9.098   6.138  10.258 -0.6461 -0.3619 -0.8803
  543MOL0     C73223  10.174   5.933   9.825 -0.1211  0.6692 -0.2558
  543MOL0     C73224  10.320   5.926   9.803  0.2876 -0.1463 -0.5248
  543MOL0     C73225  10.753   6.111   9.821 -0.4993  1.2035  0.1250
  543MOL0     C73226  10.827   5.988   9.831 -0.3590 -0.1590  0.4633
  543MOL0     C73227  10.968   5.994   9.809 -0.7032 -0.1760  0.2220
  543MOL0     C73228  11.038   6.120   9.787  0.2279  1.1909 -0.5527
  543MOL0     O73229  11.177   6.129   9.774  0.4838 -0.3491  0.0683
  543MOL0     C73230  11.239   6.080   9.890 -0.2504 -0.0761  0.1721
  543MOL0     C73231  11.318   5.954   9.868 -0.7209 -0.1390 -0.0459
  543MOL0     C73232  11.371   5.890   9.994  0.6988 -0.4960 -0.3150
  543MOL0     C73233  11.276   5.825  10.102  0.0224 -0.1900  0.6470
  543MOL0     C73234  11.194   5.710  10.053 -0.1547 -0.2194  0.9364
  543MOL0     C73235  11.128   5.624  10.007  0.4565 -0.3308 -0.0725
  543MOL0     C73236  10.962   6.233   9.777 -0.0027  0.4933 -0.0109
  543MOL0     C73237  10.819   6.228   9.777  0.0267 -0.2677  0.4132
  543MOL0     H73238  10.424   6.107  10.062  2.0624 -2.0756 -0.6107
  543MOL0     H73239  10.176   6.128  10.097 -0.4330 -3.4242  1.8352
  543MOL0     H73240   9.950   5.991  10.144  0.4282  3.2631  3.3505
  543MOL0     H73241   9.959   6.161  10.097  1.7765  0.0487 -0.9136
  543MOL0     H73242   9.736   6.164  10.018 -0.1681  0.4775  0.5836
  543MOL0     H73243   9.732   5.986   9.987 -0.4797 -2.3785  3.9668
  543MOL0     H73244   9.748   5.962  10.249  2.8167  2.3042  0.5671
  543MOL0     H73245   9.705   6.132  10.249 -0.0312 -1.1055 -0.0550
  543MOL0     H73246   9.510   6.071  10.108  0.6376 -0.4824 -1.7800
  543MOL0     H73247   9.557   5.900  10.131 -3.0740 -1.0292  3.3657
  543MOL0     H73248   9.388   5.936  10.308  1.4054 -1.5612  0.5154
  543MOL0     H73249   9.534   5.960  10.390  0.7505 -1.3403 -0.5468
  543MOL0     H73250   9.539   6.189  10.377 -0.1555 -0.7064  4.1233
  543MOL0     H73251   9.384   6.195  10.280 -1.9179  0.0282  1.9895
  543MOL0     H73252   9.418   6.114  10.564 -3.3384 -0.0156  2.9633
  543MOL0     H73253   9.346   6.270  10.499 -0.6295  1.2992 -3.2152
  543MOL0     H73254   9.172   6.119  10.575 -1.0295  1.9121 -0.8377
  543MOL0     H73255   9.216   6.005  10.446 -2.8283 -0.8348 -1.8644
  543MOL0     H73256   9.088   6.380  10.471  0.5503 -0.4778 -0.1682
  543MOL0     H73257   8.898   6.500  10.335 -1.3545 -2.9174  0.8844
  543MOL0     H73258   8.994   6.500  10.181  0.8936  1.5832  2.5238
  543MOL0     H73259   8.714   6.419  10.228 -1.3116  3.1442  0.1343
  543MOL0     H73260   8.804   6.336  10.092 -0.6426  1.1320 -1.5005
  543MOL0     H73261   8.848   6.536   9.985  0.1134 -2.5388  1.0092
  543MOL0     H73262   8.805   6.644  10.122 -0.3796  1.5340 -1.5743
  543MOL0     H73263   8.613   6.466   9.961 -2.1582  1.4740 -2.5337
  543MOL0     H73264   8.628   6.637   9.930 -0.4275  0.0705 -0.0964
  543MOL0     H73265   8.532   6.836  10.095 -0.3647  1.0410 -2.4259
  543MOL0     H73266   8.447   7.040  10.087  1.1737 -2.7257 -2.4298
  543MOL0     H73267   8.318   7.084   9.992 -0.8694 -0.1196 -0.7798
  543MOL0     H73268   8.285   7.060  10.163  3.8060  1.5230  1.5403
  543MOL0     H73269   7.809   6.716   9.791 -0.5129 -1.9762  1.1068
  543MOL0     H73270   7.554   6.797   9.771 -0.0576  1.1301 -0.7074
  543MOL0     H73271   7.472   7.150   9.991  2.5724 -1.7722 -1.0351
  543MOL0     H73272   7.318   7.146   9.927 -0.0395  0.4130  1.6665
  543MOL0     H73273   7.395   6.976  10.176  1.0479  1.2591  0.1893
  543MOL0     H73274   7.332   7.135  10.189  5.3926 -0.2170 -0.6375
  543MOL0     H73275   7.172   6.909  10.195  0.5073 -1.0730 -0.6896
  543MOL0     H73276   7.219   6.910  10.020 -2.0942 -1.1119 -0.2746
  543MOL0     H73277   7.083   7.141  10.169 -1.6799 -0.4372  0.4935
  543MOL0     H73278   7.112   7.133   9.995  2.8632  0.4184  1.5601
  543MOL0     H73279   6.929   6.964  10.161  4.4152 -2.4415  0.0946
  543MOL0     H73280   6.970   6.925   9.994 -1.5788 -0.7352 -0.1851
  543MOL0     H73281   6.864   7.188  10.100 -1.9264  0.7903 -0.9365
  543MOL0     H73282   6.881   7.159   9.932 -0.4966  1.5461  0.8251
  543MOL0     H73283   6.628   7.103  10.002  1.6959  1.5339  1.6801
  543MOL0     H73284   6.686   7.013  10.118  0.3947 -0.2985  0.0792
  543MOL0     H73285   6.779   6.835   9.988  0.5151  1.6128  2.4295
  543MOL0     H73286   6.766   6.939   9.843 -1.1172  2.5402 -0.0398
  543MOL0     H73287   7.651   7.058  10.109  2.4708  1.6283 -0.3479
  543MOL0     H73288   7.854   6.967  10.126 -0.4140  2.5945  0.9101
  543MOL0     H73289   8.106   6.616   9.986  2.2651 -3.8536 -0.0874
  543MOL0     H73290   8.301   6.480  10.047 -0.7619 -0.5659 -3.8617
  543MOL0     H73291  10.095   5.886   9.768  1.8861  0.1320 -2.7702
  543MOL0     H73292  10.353   5.887   9.707 -0.0214 -1.9256  0.0614
  543MOL0     H73293  10.782   5.892   9.853 -2.6574  0.3534 -1.5102
  543MOL0     H73294  11.034   5.908   9.809  1.2757  1.2462  2.2704
  543MOL0     H73295  11.319   6.147   9.925  0.0073 -0.9693  1.3551
  543MOL0     H73296  11.167   6.058   9.969 -0.7956  2.1724  0.3814
  543MOL0     H73297  11.403   5.983   9.805  0.5320  0.1064  1.7093
  543MOL0     H73298  11.254   5.891   9.805 -0.3176  1.0471 -1.7358
  543MOL0     H73299  11.443   5.961  10.035  1.8298 -1.4571 -0.5754
  543MOL0     H73300  11.439   5.816   9.949  0.6683 -0.0379 -1.1466
  543MOL0     H73301  11.211   5.901  10.146  1.4041  1.7508 -0.5099
  543MOL0     H73302  11.342   5.785  10.180  1.0885  0.7332  0.2497
  543MOL0     H73303  11.077   5.534   9.976  1.6397 -1.1890  0.3730
  543MOL0     H73304  11.007   6.326   9.744  0.4125 -0.3072 -1.8147
  543MOL0     H73305  10.771   6.322   9.752  0.0554 -1.0927 -3.2560
  544MOL0     O73306   4.993   5.968   8.728 -0.1989 -0.1328 -0.0208
  544MOL0     C73307   4.989   5.852   8.690 -0.2284 -0.8052 -0.5761
  544MOL0     O73308   4.881   5.774   8.691 -0.0483 -0.2880  0.2937
  544MOL0     C73309   4.756   5.823   8.709  0.8937 -0.6005  0.3046
  544MOL0     C73310   4.709   5.949   8.664  0.0023 -0.5255  0.4700
  544MOL0     C73311   4.574   5.991   8.686 -0.0243 -0.0552  0.5766
  544MOL0     C73312   4.492   5.913   8.768  0.0731 -0.0899  0.2004
  544MOL0     O73313   4.367   5.948   8.805 -0.1406 -0.0558 -0.4856
  544MOL0     C73314   4.296   6.021   8.706  0.6828 -0.6281 -0.3546
  544MOL0     C73315   4.154   6.048   8.748 -0.6959  0.1971 -0.3315
  544MOL0     C73316   4.147   6.129   8.878 -0.4548 -0.2743 -0.9792
  544MOL0     C73317   4.003   6.161   8.934 -0.0095 -0.1968 -0.2304
  544MOL0     C73318   4.026   6.231   9.064  0.6859 -0.2119  0.1393
  544MOL0     C73319   3.900   6.309   9.113 -0.1422  0.2509  0.4487
  544MOL0     C73320   3.915   6.339   9.265 -0.5605  0.0967  0.0974
  544MOL0     C73321   3.837   6.468   9.309  0.4192  0.4636 -0.1112
  544MOL0     N73322   3.693   6.458   9.294  0.1805 -0.3068 -0.3217
  544MOL0     C73323   3.611   6.563   9.317 -0.4250 -0.4078  0.8595
  544MOL0     C73324   3.494   6.513   9.302 -0.2672  0.8895  0.8882
  544MOL0     C73325   3.360   6.582   9.309 -0.5670  0.0773  0.3969
  544MOL0     C73326   3.334   6.667   9.185 -0.8487 -0.0632  0.2413
  544MOL0     C73327   3.299   6.587   9.053  0.0963 -0.1499 -0.4098
  544MOL0     C73328   3.288   6.679   8.931 -0.0930 -0.1101  0.4981
  544MOL0     O73329   3.177   6.772   8.952 -0.6420  0.0309  0.1345
  544MOL0     C73330   3.115   6.839   8.845 -0.2809  0.1552 -0.2049
  544MOL0     C73331   3.016   6.929   8.874 -0.2560  1.3199 -0.0995
  544MOL0     C73332   2.935   6.997   8.780 -0.3977  0.0787 -1.0912
  544MOL0     C73333   2.837   7.098   8.839 -0.0285  0.1845 -0.0844
  544MOL0     C73334   2.961   6.981   8.641 -0.1214 -0.1260 -0.5983
  544MOL0     C73335   2.890   7.050   8.531  1.3350 -0.5263  0.5344
  544MOL0     O73336   2.824   7.162   8.564  0.7656  0.9016  0.0553
  544MOL0     C73337   2.761   7.240   8.467  0.1692 -0.1444  0.2095
  544MOL0     C73338   2.831   7.340   8.402 -1.5868 -0.1284 -0.2529
  544MOL0     C73339   2.761   7.420   8.310 -0.8007  0.9631 -0.1872
  544MOL0     C73340   2.621   7.401   8.290 -0.2393  0.0529  0.8673
  544MOL0     O73341   2.544   7.475   8.201 -0.4955 -0.4537 -0.2262
  544MOL0     C73342   2.604   7.589   8.135  0.0797 -0.0636 -0.5634
  544MOL0     C73343   2.528   7.617   7.999 -0.9994 -0.4197 -0.1179
  544MOL0     C73344   2.580   7.747   7.932  0.7030  0.7435  0.2994
  544MOL0     C73345   2.526   7.761   7.788 -0.1261  0.2258  0.3877
  544MOL0     C73346   2.371   7.776   7.775  0.1717  0.7033 -0.7274
  544MOL0     C73347   2.322   7.916   7.804 -0.2214  0.2821 -0.7934
  544MOL0     C73348   2.177   7.932   7.751 -0.5439  0.3827 -0.2608
  544MOL0     C73349   2.088   7.990   7.861  1.3141  0.3380  0.3180
  544MOL0    Cl73350   1.912   8.019   7.794 -0.4528 -0.1794  0.2956
  544MOL0     C73351   2.554   7.305   8.360 -0.8037 -0.4385  0.6344
  544MOL0     C73352   2.627   7.216   8.447  0.3094 -0.6031  0.4091
  544MOL0     O73353   2.896   7.009   8.414 -0.0553 -0.1868 -0.0075
  544MOL0     C73354   3.059   6.879   8.614  0.0407  0.6295 -0.0309
  544MOL0     C73355   3.130   6.809   8.713 -0.8208 -0.3522 -0.5657
  544MOL0     N73356   3.503   6.378   9.288  0.1250  0.2407 -0.0214
  544MOL0     N73357   3.626   6.345   9.277 -0.4418  0.0954  0.2376
  544MOL0     C73358   4.546   5.796   8.820 -0.1340  0.3325  0.8659
  544MOL0     C73359   4.669   5.748   8.785  0.7930  0.6141 -0.4599
  544MOL0     C73360   5.117   5.792   8.653  0.3151  0.5514 -0.4049
  544MOL0     C73361   5.220   5.872   8.599  0.4791  0.8958  0.6804
  544MOL0     C73362   5.349   5.815   8.570  0.3213 -0.1051 -0.5810
  544MOL0     C73363   5.372   5.685   8.611  1.0359  0.4511  1.0225
  544MOL0     O73364   5.497   5.631   8.601  0.3501  0.3202 -0.4793
  544MOL0     C73365   5.609   5.699   8.568 -0.9704 -0.5337 -0.4798
  544MOL0     C73366   5.665   5.792   8.678  0.6660  0.9597 -0.1461
  544MOL0     C73367   5.649   5.729   8.822 -0.5782 -0.0687 -0.9021
  544MOL0     C73368   5.702   5.823   8.934  0.8452 -0.2776 -0.3383
  544MOL0     C73369   5.827   5.884   8.887 -1.0140  1.1300 -0.0974
  544MOL0     C73370   5.946   5.917   8.875 -0.2180  0.3175  0.6351
  544MOL0     C73371   5.267   5.600   8.658 -0.0713 -0.4853 -0.3161
  544MOL0     C73372   5.138   5.654   8.678  0.4731  1.3544  0.9439
  544MOL0     H73373   4.775   6.010   8.604  1.7838 -0.2555  2.5662
  544MOL0     H73374   4.540   6.088   8.650  0.1265 -0.0982  0.3124
  544MOL0     H73375   4.342   6.112   8.666 -0.2489 -1.3548 -3.2707
  544MOL0     H73376   4.292   5.954   8.621  2.7721  0.5283 -1.4512
  544MOL0     H73377   4.103   6.103   8.669  1.6353 -1.2659 -3.0309
  544MOL0     H73378   4.115   5.950   8.775  2.7950 -1.2228  0.1659
  544MOL0     H73379   4.205   6.085   8.959  2.7027  2.8282 -1.3199
  544MOL0     H73380   4.201   6.222   8.857  0.1669 -0.6324 -0.9783
  544MOL0     H73381   3.957   6.217   8.853 -0.4121  0.9750  0.7702
  544MOL0     H73382   3.947   6.071   8.961  1.0133 -1.4114 -1.9542
  544MOL0     H73383   4.053   6.163   9.145  2.8435  0.8992  0.4097
  544MOL0     H73384   4.104   6.307   9.061 -0.6736  1.2181 -1.9846
  544MOL0     H73385   3.890   6.404   9.059 -0.7576  1.2345  2.1875
  544MOL0     H73386   3.811   6.248   9.098  0.0748  0.5146 -2.5367
  544MOL0     H73387   3.884   6.251   9.323  0.4313  0.3742  1.0760
  544MOL0     H73388   4.022   6.349   9.286 -0.0838 -0.1160 -2.0032
  544MOL0     H73389   3.869   6.556   9.252  0.2313  1.5470  1.4065
  544MOL0     H73390   3.867   6.481   9.413  2.5683  0.5255 -0.6767
  544MOL0     H73391   3.621   6.670   9.331  1.4587  0.1493 -3.1430
  544MOL0     H73392   3.276   6.517   9.334  1.3539 -2.5902  0.4391
  544MOL0     H73393   3.371   6.651   9.393  2.3459  4.1955 -2.8856
  544MOL0     H73394   3.419   6.736   9.177  0.3076 -0.9524  3.3684
  544MOL0     H73395   3.253   6.733   9.218  1.0966  0.2059  5.3627
  544MOL0     H73396   3.199   6.543   9.056  0.3591 -0.7272  0.4714
  544MOL0     H73397   3.369   6.505   9.034 -1.1361 -0.9599 -1.5581
  544MOL0     H73398   3.280   6.622   8.838  2.2151 -0.0608  0.1931
  544MOL0     H73399   3.379   6.739   8.922 -0.6494  0.7485  0.5484
  544MOL0     H73400   3.010   6.946   8.981  0.7079 -1.6438  0.5146
  544MOL0     H73401   2.839   7.092   8.948  3.5882  0.5186 -0.0086
  544MOL0     H73402   2.857   7.201   8.808  2.0648 -0.5939 -1.6185
  544MOL0     H73403   2.737   7.071   8.805  1.6744 -4.5889 -2.2909
  544MOL0     H73404   2.938   7.341   8.421 -0.9795  0.3491 -3.1578
  544MOL0     H73405   2.821   7.491   8.253 -1.0955  1.1738 -0.2359
  544MOL0     H73406   2.589   7.677   8.199  2.1259  1.0962 -1.5967
  544MOL0     H73407   2.712   7.577   8.126  0.6912  0.7264  3.7275
  544MOL0     H73408   2.555   7.540   7.926 -1.6299 -1.8742  1.1116
  544MOL0     H73409   2.421   7.617   8.019 -1.5694  2.3567 -2.5925
  544MOL0     H73410   2.688   7.747   7.945  0.7639 -1.8097  0.3286
  544MOL0     H73411   2.541   7.830   7.993 -1.0059  0.5421 -0.4577
  544MOL0     H73412   2.571   7.849   7.742  1.2836  1.0407  3.0842
  544MOL0     H73413   2.551   7.668   7.737 -3.2630 -0.6904  0.3209
  544MOL0     H73414   2.323   7.701   7.839 -0.0104  1.5674  0.1738
  544MOL0     H73415   2.346   7.763   7.669  0.2075 -0.7918 -0.5838
  544MOL0     H73416   2.343   7.932   7.911  1.2059 -1.1253 -0.8225
  544MOL0     H73417   2.389   7.988   7.757  0.4504  1.9899  2.4291
  544MOL0     H73418   2.127   7.845   7.707  1.5598 -0.1975 -1.6261
  544MOL0     H73419   2.187   8.013   7.678  3.6210  1.5122  1.2835
  544MOL0     H73420   2.131   8.084   7.897 -0.7189  0.5740  2.3761
  544MOL0     H73421   2.084   7.921   7.946 -0.4431  1.9925  1.6722
  544MOL0     H73422   2.447   7.297   8.346 -0.7796  1.1013 -0.8159
  544MOL0     H73423   2.563   7.141   8.492 -1.8671  0.7504 -0.2714
  544MOL0     H73424   3.071   6.847   8.511  1.5422  0.2994  0.2213
  544MOL0     H73425   3.214   6.752   8.675 -1.4659 -1.9127  0.2690
  544MOL0     H73426   4.502   5.737   8.899  2.5840 -2.2461  0.6136
  544MOL0     H73427   4.701   5.652   8.824  0.0860  1.1370  1.5694
  544MOL0     H73428   5.213   5.978   8.577  4.3378  1.3742  0.9869
  544MOL0     H73429   5.432   5.877   8.539  0.1182 -0.4259 -1.8199
  544MOL0     H73430   5.687   5.624   8.552  0.6470  0.9420  0.1166
  544MOL0     H73431   5.586   5.747   8.473 -1.3302  0.4574  0.0939
  544MOL0     H73432   5.609   5.886   8.688 -1.6300 -0.3311 -0.3491
  544MOL0     H73433   5.768   5.816   8.649  0.8762 -0.7530 -0.8949
  544MOL0     H73434   5.705   5.636   8.821 -1.3697 -0.5925  0.7133
  544MOL0     H73435   5.544   5.704   8.841 -0.5156  0.3840  0.0780
  544MOL0     H73436   5.718   5.771   9.028  3.3256 -0.4036 -0.7654
  544MOL0     H73437   5.635   5.908   8.954  2.1483  0.8853 -0.7895
  544MOL0     H73438   6.047   5.951   8.864  0.4466 -1.1617  1.7230
  544MOL0     H73439   5.295   5.496   8.674  1.8520  0.0924  0.3840
  544MOL0     H73440   5.057   5.593   8.717 -0.4910  1.8675 -0.2043
  545MOL0     O73441   3.241   6.600  10.145 -0.9270 -0.3859 -0.9330
  545MOL0     C73442   3.169   6.583  10.049 -0.7533 -0.2440 -0.1233
  545MOL0     O73443   3.209   6.586   9.924 -0.2517  0.3474  0.3926
  545MOL0     C73444   3.336   6.625   9.881 -0.1597  0.4869  0.8523
  545MOL0     C73445   3.373   6.595   9.749  0.2309  0.3870  0.2146
  545MOL0     C73446   3.495   6.624   9.686 -0.5929 -0.4546  0.3107
  545MOL0     C73447   3.590   6.693   9.769  0.7847  0.3177  0.5257
  545MOL0     O73448   3.708   6.721   9.710  0.1307 -0.0369 -0.1770
  545MOL0     C73449   3.794   6.815   9.786  0.3670 -0.1422  0.2449
  545MOL0     C73450   3.889   6.897   9.691  0.1382 -0.2599  0.0300
  545MOL0     C73451   3.965   6.825   9.575  0.0919  0.9364 -0.5271
  545MOL0     C73452   4.064   6.712   9.623 -0.2071 -0.3969 -0.4926
  545MOL0     C73453   4.150   6.656   9.503 -0.3616 -0.4861 -0.9775
  545MOL0     C73454   4.248   6.556   9.563 -0.0029 -0.1598  0.8453
  545MOL0     C73455   4.364   6.620   9.635 -0.2312  0.1851 -0.1485
  545MOL0     C73456   4.432   6.513   9.731  0.4881 -0.5932  0.2783
  545MOL0     N73457   4.343   6.441   9.818 -0.0445 -0.9113 -0.1791
  545MOL0     C73458   4.250   6.506   9.891 -0.1764  0.3696  0.7002
  545MOL0     C73459   4.167   6.412   9.936  0.0167 -0.4923  0.2780
  545MOL0     C73460   4.035   6.450  10.002  0.8613  0.2600 -0.1399
  545MOL0     C73461   3.919   6.478   9.900 -0.0494  0.6510 -0.0934
  545MOL0     C73462   3.907   6.371   9.785  0.3626 -0.2685 -0.4420
  545MOL0     C73463   3.772   6.357   9.729 -0.2644 -0.4815  0.0697
  545MOL0     O73464   3.674   6.325   9.826  0.1488  0.9152 -0.4172
  545MOL0     C73465   3.547   6.292   9.784  0.9763  0.2805  0.4618
  545MOL0     C73466   3.451   6.251   9.873  0.6205  0.2585  0.6986
  545MOL0     C73467   3.313   6.233   9.834  0.7633 -1.0085 -0.2156
  545MOL0     C73468   3.219   6.215   9.951  0.2500  0.2308 -0.1311
  545MOL0     C73469   3.265   6.251   9.702  0.1994  0.1591  0.1518
  545MOL0     C73470   3.128   6.228   9.655  0.4708 -0.1067  1.1441
  545MOL0     O73471   3.060   6.138   9.726 -0.2752 -0.3871  0.1132
  545MOL0     C73472   2.930   6.117   9.682  0.6183  0.0829  0.3229
  545MOL0     C73473   2.819   6.154   9.756  0.3174 -0.2503 -0.0200
  545MOL0     C73474   2.690   6.112   9.716  1.1026  0.6418 -0.5206
  545MOL0     C73475   2.678   6.033   9.604 -0.1146  0.5462  0.6729
  545MOL0     O73476   2.559   5.970   9.591  0.7332 -0.8137 -0.4229
  545MOL0     C73477   2.542   5.886   9.474  0.2023  0.4271  0.2087
  545MOL0     C73478   2.399   5.844   9.457 -0.4400  0.6090  0.1627
  545MOL0     C73479   2.313   5.966   9.444 -0.7035 -0.8787  0.1002
  545MOL0     C73480   2.170   5.928   9.419  0.6291  0.8161 -0.0962
  545MOL0     C73481   2.099   5.853   9.539 -0.3043 -0.5046  0.4659
  545MOL0     C73482   1.956   5.822   9.501  0.6093 -0.2906 -0.4685
  545MOL0     C73483   1.947   5.710   9.400 -0.9287 -0.4064  0.3144
  545MOL0     C73484   1.811   5.658   9.394  0.2707  0.1625  0.8743
  545MOL0    Cl73485   1.758   5.555   9.530 -0.4490 -0.0267 -0.0741
  545MOL0     C73486   2.789   6.000   9.526 -0.4680 -0.6407 -0.0704
  545MOL0     C73487   2.914   6.043   9.563 -0.2379 -0.4692  0.6322
  545MOL0     O73488   3.088   6.275   9.549 -0.3034 -0.1737 -0.0826
  545MOL0     C73489   3.367   6.280   9.607  1.1966 -0.6652  0.2680
  545MOL0     C73490   3.503   6.306   9.645  0.7331 -0.1037  1.3390
  545MOL0     N73491   4.217   6.291   9.887  0.3255 -0.5368 -0.2649
  545MOL0     N73492   4.319   6.313   9.815  0.0407  0.3196  0.2284
  545MOL0     C73493   3.564   6.711   9.903 -0.5519 -0.9517  0.1843
  545MOL0     C73494   3.439   6.684   9.958 -0.6609 -0.4019  0.6878
  545MOL0     C73495   3.022   6.567  10.069 -0.6036  0.5117  0.8724
  545MOL0     C73496   2.943   6.533   9.960  0.2964 -0.2778 -0.0967
  545MOL0     C73497   2.807   6.508   9.977 -0.4841 -0.2416 -0.6800
  545MOL0     C73498   2.747   6.509  10.101 -0.2907 -0.3503  0.2620
  545MOL0     O73499   2.615   6.478  10.125 -0.6201  0.3392 -0.0178
  545MOL0     C73500   2.589   6.345  10.076 -0.2192 -0.8217  0.4258
  545MOL0     C73501   2.470   6.283  10.142 -0.0274 -0.2040 -0.5202
  545MOL0     C73502   2.344   6.359  10.132 -0.9812 -0.0522  0.8710
  545MOL0     C73503   2.296   6.424  10.006 -0.6099 -0.4639 -0.1223
  545MOL0     C73504   2.258   6.330   9.903  0.1611 -0.5804 -0.4884
  545MOL0     C73505   2.255   6.249   9.816 -0.5160 -0.4469 -0.0166
  545MOL0     C73506   2.828   6.550  10.213 -0.6175 -0.3613 -0.3428
  545MOL0     C73507   2.962   6.557  10.193  0.1731  0.1228  0.8314
  545MOL0     H73508   3.299   6.540   9.692  0.3227  0.7155 -0.2263
  545MOL0     H73509   3.513   6.604   9.581 -2.0976 -2.1251  0.3295
  545MOL0     H73510   3.732   6.897   9.824  2.4267  0.8789  1.6051
  545MOL0     H73511   3.854   6.773   9.868  2.1604  0.9775 -0.4189
  545MOL0     H73512   3.818   6.964   9.642 -1.1286 -0.5461  1.4161
  545MOL0     H73513   3.968   6.949   9.747  2.2452 -3.5623  0.4264
  545MOL0     H73514   3.896   6.784   9.501 -1.0417  1.7745  0.0384
  545MOL0     H73515   4.025   6.903   9.527  1.8094  1.0092  1.5760
  545MOL0     H73516   4.124   6.762   9.700 -0.0772  0.3698 -1.0835
  545MOL0     H73517   4.015   6.624   9.665  1.6096 -1.4585 -0.5184
  545MOL0     H73518   4.068   6.624   9.438 -1.6852  1.4473 -0.3546
  545MOL0     H73519   4.197   6.740   9.452 -1.9367  1.1707  0.2079
  545MOL0     H73520   4.191   6.479   9.615 -0.7545  0.1591  0.5096
  545MOL0     H73521   4.271   6.495   9.475  0.6209  0.1134  0.8173
  545MOL0     H73522   4.433   6.655   9.558 -0.8389  1.7896  0.0105
  545MOL0     H73523   4.336   6.710   9.689 -0.9287  1.3695 -2.3511
  545MOL0     H73524   4.510   6.556   9.794  1.0322  1.9341 -1.9332
  545MOL0     H73525   4.499   6.450   9.672  0.8192 -0.7145  0.7791
  545MOL0     H73526   4.233   6.613   9.901  1.3789  0.9687 -2.0352
  545MOL0     H73527   4.006   6.360  10.058 -2.4510  1.7063  0.7380
  545MOL0     H73528   4.052   6.539  10.063 -1.2264  0.0420  0.8238
  545MOL0     H73529   3.944   6.572   9.851  0.4622  1.4816  1.7022
  545MOL0     H73530   3.822   6.487   9.951 -0.5626  0.5733 -1.0195
  545MOL0     H73531   3.944   6.273   9.816  1.1381 -0.1441 -0.9605
  545MOL0     H73532   3.973   6.403   9.704  0.1466 -1.4403 -1.1015
  545MOL0     H73533   3.783   6.276   9.656  1.5408 -0.4483  0.2646
  545MOL0     H73534   3.753   6.448   9.672  1.6619  1.4897  2.3562
  545MOL0     H73535   3.475   6.244   9.979 -2.2706  3.4513  1.7659
  545MOL0     H73536   3.141   6.292   9.948  1.9164  1.9953  0.1625
  545MOL0     H73537   3.181   6.113   9.939 -2.7599  1.0721  1.3693
  545MOL0     H73538   3.261   6.224  10.051 -1.3190 -2.1325  0.8344
  545MOL0     H73539   2.832   6.195   9.856  0.4507  0.7584 -0.4376
  545MOL0     H73540   2.609   6.141   9.781 -0.1912 -0.9929 -1.3444
  545MOL0     H73541   2.578   5.916   9.375  0.7925 -0.9810 -0.0393
  545MOL0     H73542   2.602   5.796   9.494  1.4902  1.4248  1.0203
  545MOL0     H73543   2.389   5.783   9.367  1.2250 -0.3224  0.5672
  545MOL0     H73544   2.371   5.777   9.539 -1.3919  0.3268 -0.3752
  545MOL0     H73545   2.347   6.034   9.366 -2.8400 -0.8717 -0.9098
  545MOL0     H73546   2.328   6.027   9.534 -1.2419  1.0974 -1.0736
  545MOL0     H73547   2.118   6.024   9.407 -2.5195 -0.9706 -2.4921
  545MOL0     H73548   2.151   5.876   9.324  0.0290  0.7328  0.0600
  545MOL0     H73549   2.110   5.923   9.622  1.0187  0.9334 -0.8719
  545MOL0     H73550   2.153   5.757   9.541  1.2704  0.2637 -1.7030
  545MOL0     H73551   1.901   5.794   9.592  1.7961  0.5203  0.5319
  545MOL0     H73552   1.919   5.915   9.457 -0.4787 -0.2898  0.4075
  545MOL0     H73553   2.010   5.626   9.430 -1.5553 -1.5806 -1.4775
  545MOL0     H73554   1.970   5.748   9.301  0.4974  0.0192  0.7870
  545MOL0     H73555   1.804   5.603   9.299  0.8076  1.5613 -0.0079
  545MOL0     H73556   1.748   5.746   9.378  0.6556  0.0983 -1.3557
  545MOL0     H73557   2.766   5.945   9.435  0.7329 -1.8727  0.3425
  545MOL0     H73558   2.989   6.011   9.492 -2.0952 -0.8794 -1.2514
  545MOL0     H73559   3.333   6.285   9.504  1.9832  1.8920  0.0535
  545MOL0     H73560   3.565   6.340   9.563  0.0398  0.4747  1.0399
  545MOL0     H73561   3.645   6.730   9.973  0.3540 -2.9697 -0.2366
  545MOL0     H73562   3.440   6.696  10.066  2.4592  0.0506  0.6872
  545MOL0     H73563   2.983   6.519   9.860  0.0049 -3.3267  0.1085
  545MOL0     H73564   2.755   6.468   9.891  0.5616 -0.9197 -1.0117
  545MOL0     H73565   2.570   6.367   9.970  1.1993 -0.2610  0.2624
  545MOL0     H73566   2.665   6.269  10.094  0.2654 -0.5290 -0.3019
  545MOL0     H73567   2.489   6.273  10.249 -2.6757  1.7234  0.2364
  545MOL0     H73568   2.457   6.183  10.099  0.7009 -0.6298  0.2215
  545MOL0     H73569   2.351   6.440  10.205  1.0813  1.0750 -0.4587
  545MOL0     H73570   2.266   6.287  10.158  0.7025 -1.9752  0.7668
  545MOL0     H73571   2.386   6.476   9.970  1.0234 -1.4965  2.1671
  545MOL0     H73572   2.217   6.495  10.031  1.6844  1.2532  3.2424
  545MOL0     H73573   2.255   6.163   9.751  2.6056 -0.7389  0.2079
  545MOL0     H73574   2.782   6.552  10.311 -0.1781  0.1458 -0.1453
  545MOL0     H73575   3.019   6.551  10.285  1.1381  2.2553  0.4482
  546MOL0     O73576   0.272   6.798   4.050 -0.0840 -0.3868 -0.0351
  546MOL0     C73577   0.199   6.701   4.052 -1.8123  0.3674  0.5285
  546MOL0     O73578   0.090   6.696   4.123 -0.1705  0.9332 -0.4769
  546MOL0     C73579   0.069   6.788   4.222  0.7509  0.2680  0.0502
  546MOL0     C73580   0.155   6.815   4.326 -0.0271 -0.7837 -0.3487
  546MOL0     C73581   0.113   6.906   4.430 -0.0267  0.4367 -0.9506
  546MOL0     C73582  -0.020   6.963   4.438  0.8042 -0.2636  1.0454
  546MOL0     O73583  -0.067   7.052   4.531  0.4294  0.4336 -0.8745
  546MOL0     C73584   0.028   7.075   4.635  0.5155 -0.1259  0.0086
  546MOL0     C73585  -0.034   7.163   4.741 -0.6334 -0.0122 -0.8383
  546MOL0     C73586  -0.034   7.311   4.709 -0.6468 -0.4235 -0.2310
  546MOL0     C73587  -0.117   7.405   4.794 -0.3155  0.0731 -0.3029
  546MOL0     C73588  -0.096   7.554   4.759 -0.5878 -0.8326  0.5519
  546MOL0     C73589  -0.155   7.608   4.634  0.2858 -0.2617 -0.4057
  546MOL0     C73590  -0.305   7.611   4.624  0.1538 -0.1186  0.5699
  546MOL0     C73591  -0.349   7.696   4.497  0.4865  0.2438 -0.0507
  546MOL0     N73592  -0.496   7.713   4.496  0.8832  0.7389  0.3324
  546MOL0     C73593  -0.559   7.813   4.564  0.7975 -0.1401 -0.3395
  546MOL0     C73594  -0.688   7.822   4.513 -0.5106 -0.1797 -0.8343
  546MOL0     C73595  -0.804   7.913   4.545  0.5452 -0.1578  0.1503
  546MOL0     C73596  -0.924   7.916   4.438  0.3587 -0.1254 -0.6703
  546MOL0     C73597  -1.051   7.991   4.489 -0.2567 -0.2598  0.3612
  546MOL0     C73598  -1.162   7.985   4.386 -0.0949  0.1015 -0.4844
  546MOL0     O73599  -1.116   8.063   4.271 -0.9519  0.5994 -0.3631
  546MOL0     C73600  -1.187   8.036   4.160 -0.4208  0.6703  0.4292
  546MOL0     C73601  -1.138   7.995   4.034  0.6066  0.9094 -0.4083
  546MOL0     C73602  -1.227   7.971   3.923 -1.0144 -1.1877 -0.5707
  546MOL0     C73603  -1.165   7.921   3.798 -0.3028  0.1623 -0.0755
  546MOL0     C73604  -1.364   8.002   3.938 -0.8517 -0.5366  0.3692
  546MOL0     C73605  -1.463   7.973   3.837  0.7349  0.0162  0.1113
  546MOL0     O73606  -1.592   7.987   3.872  0.3793  0.3016  0.2934
  546MOL0     C73607  -1.682   7.929   3.785  0.8673  0.0455 -0.7726
  546MOL0     C73608  -1.728   7.981   3.662  0.5462 -0.2563  0.8111
  546MOL0     C73609  -1.828   7.913   3.588 -0.0972  0.4860 -0.0183
  546MOL0     C73610  -1.877   7.785   3.628  0.8709  1.1934 -0.3910
  546MOL0     O73611  -1.964   7.706   3.557  0.1520 -0.3778 -0.1803
  546MOL0     C73612  -1.978   7.728   3.416  0.2783 -0.1970  0.5232
  546MOL0     C73613  -1.858   7.697   3.322  0.1955  1.2552  0.4471
  546MOL0     C73614  -1.789   7.566   3.353  0.6379  0.5698 -0.3480
  546MOL0     C73615  -1.699   7.529   3.237 -0.6377  0.1715  0.1451
  546MOL0     C73616  -1.646   7.385   3.236  0.8210  0.0043  0.0299
  546MOL0     C73617  -1.530   7.352   3.137 -0.6129 -0.0767  0.4151
  546MOL0     C73618  -1.494   7.200   3.135  0.6369  0.1310 -0.0129
  546MOL0     C73619  -1.595   7.112   3.064  0.5201 -0.5155  0.0334
  546MOL0    Cl73620  -1.573   7.144   2.888  0.0996 -0.1061  0.3411
  546MOL0     C73621  -1.825   7.733   3.747  1.3101  0.9744  0.8710
  546MOL0     C73622  -1.729   7.803   3.824  0.2054 -0.5921 -0.4122
  546MOL0     O73623  -1.431   7.938   3.725 -0.0320 -0.2075 -0.1408
  546MOL0     C73624  -1.405   8.058   4.058  0.0238  0.4054 -0.4249
  546MOL0     C73625  -1.312   8.081   4.160  0.9993 -0.7251  0.2166
  546MOL0     N73626  -0.693   7.727   4.411  0.1832  0.1064  0.8106
  546MOL0     N73627  -0.584   7.659   4.407 -0.9804  0.2849  0.2200
  546MOL0     C73628  -0.095   6.938   4.322 -0.1981 -0.1661  1.1414
  546MOL0     C73629  -0.056   6.842   4.224  0.0146  0.2335  0.1772
  546MOL0     C73630   0.250   6.587   3.976  0.3411  0.3546 -0.6682
  546MOL0     C73631   0.339   6.597   3.869 -0.6624  0.5101 -0.3330
  546MOL0     C73632   0.396   6.478   3.828  0.4542 -0.7917  0.5256
  546MOL0     C73633   0.355   6.350   3.866 -1.1837 -0.0463 -0.1260
  546MOL0     O73634   0.425   6.248   3.808 -0.1895 -0.2589 -0.6295
  546MOL0     C73635   0.401   6.111   3.855 -0.4854 -0.0106 -0.6080
  546MOL0     C73636   0.506   6.021   3.795 -0.1813  0.3500 -0.0730
  546MOL0     C73637   0.636   6.068   3.848 -0.4637  0.7684 -0.4375
  546MOL0     C73638   0.751   5.987   3.782  0.0410 -0.9280  0.3237
  546MOL0     C73639   0.878   6.025   3.848 -0.8557  0.4970  0.4859
  546MOL0     C73640   0.990   6.052   3.896 -0.4110 -0.3439  0.3466
  546MOL0     C73641   0.264   6.348   3.972  0.8172  0.4097 -0.1940
  546MOL0     C73642   0.214   6.460   4.031 -0.0908  0.1134  0.5786
  546MOL0     H73643   0.251   6.766   4.334 -0.0427 -0.5399  1.9796
  546MOL0     H73644   0.182   6.926   4.511  0.4232 -0.8434 -0.9865
  546MOL0     H73645   0.052   6.981   4.684  1.3095 -0.0232 -0.1592
  546MOL0     H73646   0.111   7.135   4.596 -0.1050  0.3435 -0.6258
  546MOL0     H73647  -0.137   7.134   4.766 -1.1585  1.6012 -1.0410
  546MOL0     H73648   0.024   7.153   4.833 -0.1781 -1.5979 -1.2649
  546MOL0     H73649   0.070   7.344   4.717  0.0909 -2.6983  0.2628
  546MOL0     H73650  -0.081   7.325   4.611 -3.5009  0.6586  1.1833
  546MOL0     H73651  -0.225   7.387   4.784 -0.3167  0.5078 -1.1407
  546MOL0     H73652  -0.093   7.398   4.901 -0.6363 -0.4723 -0.2664
  546MOL0     H73653  -0.134   7.611   4.845 -0.4117 -1.0622  0.7841
  546MOL0     H73654   0.011   7.566   4.742 -0.4748 -1.0981  1.0424
  546MOL0     H73655  -0.113   7.709   4.626  1.8526 -0.6911  1.5703
  546MOL0     H73656  -0.119   7.553   4.547  1.1773 -2.3098  1.1745
  546MOL0     H73657  -0.350   7.512   4.613  1.3336 -0.5463 -0.8292
  546MOL0     H73658  -0.340   7.654   4.718 -1.3597  0.8516 -0.4053
  546MOL0     H73659  -0.314   7.648   4.405  1.7834 -2.4259  1.6920
  546MOL0     H73660  -0.295   7.791   4.500 -0.2138  0.6340  1.8819
  546MOL0     H73661  -0.518   7.866   4.649 -2.4821  0.8886  0.7314
  546MOL0     H73662  -0.842   7.884   4.643 -0.0972 -3.7426 -1.0276
  546MOL0     H73663  -0.766   8.016   4.546 -2.8186  1.2287  2.2397
  546MOL0     H73664  -0.942   7.809   4.421  2.8845 -0.5376 -1.2087
  546MOL0     H73665  -0.879   7.954   4.345  1.1909 -0.6409 -0.4941
  546MOL0     H73666  -1.024   8.095   4.507  2.0472 -0.4141 -1.6458
  546MOL0     H73667  -1.090   7.931   4.572  0.8478  0.2610  1.2923
  546MOL0     H73668  -1.257   8.032   4.413  1.5412  2.8705  0.7888
  546MOL0     H73669  -1.177   7.883   4.349 -0.7192 -0.2660  0.7208
  546MOL0     H73670  -1.034   7.985   4.006  0.1994  0.1635 -1.7037
  546MOL0     H73671  -1.058   7.897   3.796 -0.5874 -1.4759  1.3457
  546MOL0     H73672  -1.206   7.825   3.764  0.8803 -0.3680 -0.0701
  546MOL0     H73673  -1.185   7.985   3.712  0.3006  0.2787 -0.1334
  546MOL0     H73674  -1.671   8.059   3.612 -2.1294  1.4013  0.1353
  546MOL0     H73675  -1.851   7.946   3.487  0.3893 -0.1868 -0.3546
  546MOL0     H73676  -2.054   7.662   3.374  1.9791 -2.0022  0.1732
  546MOL0     H73677  -2.005   7.834   3.404 -2.0344 -0.5548  1.8785
  546MOL0     H73678  -1.906   7.688   3.224  0.8482 -2.3069  0.3298
  546MOL0     H73679  -1.786   7.779   3.324 -0.6389  2.0046  0.1700
  546MOL0     H73680  -1.870   7.493   3.346 -1.7168  2.9616  0.4092
  546MOL0     H73681  -1.753   7.571   3.456  1.4846  2.3673 -0.6884
  546MOL0     H73682  -1.746   7.550   3.141  0.5203 -0.6769 -0.6300
  546MOL0     H73683  -1.611   7.593   3.248  0.9391 -1.9790  0.6929
  546MOL0     H73684  -1.730   7.318   3.216  2.4404 -2.0791 -0.1088
  546MOL0     H73685  -1.607   7.360   3.335  1.0828 -0.7677 -0.2601
  546MOL0     H73686  -1.548   7.388   3.036  1.4750  1.2284  0.4390
  546MOL0     H73687  -1.442   7.402   3.178  1.9971 -2.8401 -1.3936
  546MOL0     H73688  -1.477   7.160   3.236  0.3119  1.6068  0.6548
  546MOL0     H73689  -1.398   7.191   3.085  1.8687  1.2313  2.0047
  546MOL0     H73690  -1.696   7.134   3.099  1.3652  2.3362  0.9889
  546MOL0     H73691  -1.581   7.005   3.080  2.1115 -0.9540 -3.4323
  546MOL0     H73692  -1.854   7.634   3.782 -0.0677  1.3967  0.9532
  546MOL0     H73693  -1.692   7.762   3.917 -2.1146  1.8737  1.7748
  546MOL0     H73694  -1.507   8.093   4.069  0.8622  4.1092 -2.7662
  546MOL0     H73695  -1.345   8.138   4.247 -1.2818 -1.9776  0.2522
  546MOL0     H73696  -0.198   6.972   4.321 -0.0974  0.1341  0.9898
  546MOL0     H73697  -0.118   6.825   4.137  1.8314 -1.6857 -0.8690
  546MOL0     H73698   0.373   6.695   3.838 -0.2502  0.9293  1.3815
  546MOL0     H73699   0.465   6.482   3.744 -1.1775 -0.4353 -0.8503
  546MOL0     H73700   0.402   6.102   3.964 -0.7724  0.4556 -0.5640
  546MOL0     H73701   0.301   6.083   3.820 -1.2930 -1.0142  2.2129
  546MOL0     H73702   0.508   6.036   3.687 -1.3494  0.0858 -0.1479
  546MOL0     H73703   0.479   5.917   3.813 -1.2789  0.4619 -0.9171
  546MOL0     H73704   0.635   6.047   3.955 -0.4955 -2.5170 -0.9561
  546MOL0     H73705   0.664   6.172   3.832  1.8921  0.2886  0.0816
  546MOL0     H73706   0.760   5.992   3.673 -0.0409 -3.6585  0.1382
  546MOL0     H73707   0.723   5.882   3.791  1.0249 -1.1261  1.1696
  546MOL0     H73708   1.086   6.072   3.941  0.3071 -2.2519 -0.2370
  546MOL0     H73709   0.239   6.250   4.012  1.7886  0.7238  1.2663
  546MOL0     H73710   0.145   6.453   4.113  0.4065  0.0366  0.9949
  547MOL0     O73711   5.930   2.044   0.676  0.2582  0.3272  0.2217
  547MOL0     C73712   5.958   2.078   0.560  0.3352  0.1345 -0.0220
  547MOL0     O73713   5.881   2.083   0.448 -0.1855  0.1967 -0.2492
  547MOL0     C73714   5.748   2.085   0.482  0.2504  0.2716 -0.3110
  547MOL0     C73715   5.694   2.203   0.542  0.8683  0.0130 -0.1713
  547MOL0     C73716   5.552   2.211   0.572 -0.3415 -0.7229  0.6985
  547MOL0     C73717   5.468   2.100   0.544 -0.2968  0.2572  0.6453
  547MOL0     O73718   5.329   2.100   0.567 -0.4554 -0.1610  0.2358
  547MOL0     C73719   5.262   2.224   0.529 -0.7753  0.0815  0.3569
  547MOL0     C73720   5.109   2.198   0.515  0.6698 -0.5883 -0.6679
  547MOL0     C73721   5.078   2.103   0.406  0.4518  1.0201  0.0622
  547MOL0     C73722   4.928   2.099   0.363  0.3353 -0.2453  0.0462
  547MOL0     C73723   4.888   1.989   0.267 -0.3519  0.8685 -0.2482
  547MOL0     C73724   4.734   1.997   0.233 -0.2312 -0.2564 -0.0602
  547MOL0     C73725   4.695   1.882   0.142 -0.1647 -1.0348 -0.0930
  547MOL0     C73726   4.541   1.876   0.107  0.6332  0.3005  0.7468
  547MOL0     N73727   4.463   1.817   0.220  0.7249 -0.0728  0.1797
  547MOL0     C73728   4.488   1.713   0.306  0.0695  0.5352  0.3416
  547MOL0     C73729   4.377   1.702   0.380  0.3830  0.0647  0.7053
  547MOL0     C73730   4.360   1.595   0.489 -0.2241  0.4294  0.3371
  547MOL0     C73731   4.434   1.627   0.620  0.1983 -0.0935 -0.8623
  547MOL0     C73732   4.395   1.753   0.705  0.6721  0.5112 -0.7641
  547MOL0     C73733   4.247   1.741   0.758  0.3004  0.1651  0.7083
  547MOL0     O73734   4.244   1.638   0.851  0.1831 -0.1166  0.5285
  547MOL0     C73735   4.117   1.589   0.884 -0.1279 -0.0009 -0.7913
  547MOL0     C73736   4.081   1.584   1.025 -0.4103 -0.1667 -0.2251
  547MOL0     C73737   3.948   1.544   1.060  0.2256  0.3243 -0.3823
  547MOL0     C73738   3.923   1.517   1.207  0.6922  0.5936  0.6995
  547MOL0     C73739   3.850   1.513   0.967  0.5602  0.6461 -0.6079
  547MOL0     C73740   3.711   1.467   0.995  0.6665  0.2998  0.1887
  547MOL0     O73741   3.650   1.495   1.111 -0.2027  0.5877  0.9514
  547MOL0     C73742   3.519   1.507   1.133 -0.0530 -0.4625  0.3570
  547MOL0     C73743   3.422   1.534   1.029 -0.5617  0.5138 -0.3611
  547MOL0     C73744   3.288   1.538   1.062  0.4436 -0.0402  0.7462
  547MOL0     C73745   3.243   1.526   1.189  0.4632  0.2114  0.7278
  547MOL0     O73746   3.105   1.511   1.194 -0.7260  0.2719 -0.6200
  547MOL0     C73747   3.047   1.513   1.328 -0.5621  0.0344  0.6857
  547MOL0     C73748   2.911   1.447   1.319  0.2960 -0.4139 -0.0033
  547MOL0     C73749   2.803   1.526   1.249  0.6449  0.4166 -0.0452
  547MOL0     C73750   2.687   1.430   1.223  0.0395  0.2728  0.4543
  547MOL0     C73751   2.579   1.504   1.145  0.2203 -0.3920 -0.6329
  547MOL0     C73752   2.505   1.620   1.227 -0.6979  0.1045 -0.1685
  547MOL0     C73753   2.485   1.748   1.144 -0.8313  0.5937  0.0834
  547MOL0     C73754   2.358   1.826   1.184 -0.2817  0.5133 -0.7836
  547MOL0    Cl73755   2.363   1.875   1.353  0.0302 -0.1283 -0.1100
  547MOL0     C73756   3.338   1.524   1.293  0.0940  0.7725  0.1235
  547MOL0     C73757   3.479   1.508   1.264  0.1383 -0.8039 -0.1624
  547MOL0     O73758   3.665   1.387   0.919  0.3325  0.0011 -0.5743
  547MOL0     C73759   3.885   1.531   0.831 -0.9453  0.6092 -0.2133
  547MOL0     C73760   4.016   1.563   0.787 -0.0093 -0.0083  0.2735
  547MOL0     N73761   4.301   1.816   0.362  0.9814  0.7286  0.2319
  547MOL0     N73762   4.349   1.882   0.265  0.2068  0.2289  0.2877
  547MOL0     C73763   5.524   1.985   0.486  0.5732  0.5124 -1.1318
  547MOL0     C73764   5.664   1.979   0.475  0.3796  0.4903 -0.6618
  547MOL0     C73765   6.092   2.133   0.550 -0.5740 -0.5010 -0.5376
  547MOL0     C73766   6.133   2.199   0.435 -0.1094  0.0200  0.2775
  547MOL0     C73767   6.262   2.256   0.424  0.8945 -0.5984 -0.5468
  547MOL0     C73768   6.351   2.257   0.535 -0.0963  0.1187  1.0037
  547MOL0     O73769   6.481   2.306   0.515 -0.8408  0.5967  0.4100
  547MOL0     C73770   6.585   2.299   0.619  0.1518 -0.1789  0.5628
  547MOL0     C73771   6.705   2.383   0.578 -0.1805  0.5716 -0.2239
  547MOL0     C73772   6.669   2.529   0.542 -0.1038  0.2715  0.2038
  547MOL0     C73773   6.795   2.617   0.512  0.0709  1.1122  0.0640
  547MOL0     C73774   6.866   2.644   0.633 -0.1557  0.2077 -0.0173
  547MOL0     C73775   6.946   2.663   0.715 -0.8029 -0.2909  0.2959
  547MOL0     C73776   6.305   2.189   0.650  0.4044 -0.3420 -0.2247
  547MOL0     C73777   6.183   2.126   0.652  0.5599  0.6000  0.1314
  547MOL0     H73778   5.760   2.289   0.545  1.9224 -0.7182 -1.5225
  547MOL0     H73779   5.514   2.306   0.607 -3.2448 -0.6232 -2.2054
  547MOL0     H73780   5.284   2.307   0.597 -1.0409  2.4422 -2.2142
  547MOL0     H73781   5.296   2.255   0.429 -1.9468 -2.5273 -0.9364
  547MOL0     H73782   5.068   2.156   0.607  0.7618 -0.9596 -0.7947
  547MOL0     H73783   5.058   2.290   0.485 -0.7433 -1.4213 -0.9241
  547MOL0     H73784   5.135   2.133   0.317  2.2688 -1.5324  0.2672
  547MOL0     H73785   5.104   2.000   0.432 -1.7202  0.4922  0.2605
  547MOL0     H73786   4.868   2.105   0.454  0.7004  4.1616  0.2049
  547MOL0     H73787   4.906   2.193   0.313  1.3260 -0.8474 -1.6001
  547MOL0     H73788   4.946   1.992   0.174  0.0833  0.4133  0.0045
  547MOL0     H73789   4.908   1.897   0.323  0.9108  1.6750  0.6893
  547MOL0     H73790   4.679   1.984   0.327  1.4695 -0.3093  0.9787
  547MOL0     H73791   4.711   2.098   0.200 -0.6469  0.6091  2.6450
  547MOL0     H73792   4.755   1.881   0.051  0.5368  1.3504  0.2842
  547MOL0     H73793   4.718   1.789   0.196  2.0950 -0.9226 -0.7539
  547MOL0     H73794   4.534   1.816   0.016  0.3595  2.0319 -0.4164
  547MOL0     H73795   4.493   1.968   0.072  0.4513 -0.2360 -0.4601
  547MOL0     H73796   4.569   1.642   0.293  0.1448  0.5880  0.5120
  547MOL0     H73797   4.252   1.589   0.503 -0.2127  0.5809  0.4973
  547MOL0     H73798   4.392   1.499   0.447 -0.0995  0.1832  0.9737
  547MOL0     H73799   4.540   1.649   0.605  0.8543  0.7457  3.6346
  547MOL0     H73800   4.431   1.537   0.682 -2.1206  1.4453  1.4561
  547MOL0     H73801   4.408   1.844   0.645 -1.3180  0.3476 -1.5197
  547MOL0     H73802   4.466   1.752   0.788  0.3994  0.4011 -0.5324
  547MOL0     H73803   4.188   1.727   0.667  1.6130  0.5282 -0.2260
  547MOL0     H73804   4.212   1.833   0.805 -2.4784  0.5028 -1.7732
  547MOL0     H73805   4.160   1.610   1.095 -0.9855 -0.6147  0.5961
  547MOL0     H73806   4.011   1.546   1.265  2.2178 -0.7056 -0.8410
  547MOL0     H73807   3.851   1.593   1.239  0.5861  1.0528 -0.5654
  547MOL0     H73808   3.903   1.411   1.223  2.5321  0.1022  0.0355
  547MOL0     H73809   3.453   1.568   0.931 -1.7064  1.7809 -0.3028
  547MOL0     H73810   3.228   1.555   0.973  0.5623  1.1858  0.8881
  547MOL0     H73811   3.114   1.449   1.387 -1.0418 -1.1846 -0.0618
  547MOL0     H73812   3.048   1.618   1.361  0.9063  0.8298 -1.6011
  547MOL0     H73813   2.934   1.348   1.277 -1.1471  0.3506 -2.8438
  547MOL0     H73814   2.873   1.425   1.419 -2.6632  0.7512 -0.7727
  547MOL0     H73815   2.844   1.545   1.149  2.2621 -1.2380  0.2383
  547MOL0     H73816   2.767   1.616   1.299 -0.2816  1.8246 -3.0079
  547MOL0     H73817   2.717   1.340   1.168 -2.7397 -0.6377  0.2713
  547MOL0     H73818   2.650   1.391   1.319  2.2091 -3.3609  0.0030
  547MOL0     H73819   2.505   1.434   1.105  1.3097 -0.9571 -1.7448
  547MOL0     H73820   2.617   1.545   1.051  1.8912 -0.6977 -0.1204
  547MOL0     H73821   2.403   1.589   1.249 -0.5439  0.0234  0.4587
  547MOL0     H73822   2.562   1.656   1.313 -0.4355 -0.8990  0.0878
  547MOL0     H73823   2.454   1.725   1.042  2.9889  1.5705 -1.4970
  547MOL0     H73824   2.575   1.810   1.156  0.7036 -2.0634  4.2798
  547MOL0     H73825   2.272   1.769   1.148  0.4058  0.8201 -3.1043
  547MOL0     H73826   2.331   1.913   1.122  0.3527 -0.8167 -3.0538
  547MOL0     H73827   3.312   1.516   1.398  2.3319  0.7198  0.7305
  547MOL0     H73828   3.557   1.516   1.339  1.3697 -0.9384 -1.3985
  547MOL0     H73829   3.819   1.503   0.748 -0.5761 -0.2901 -0.2172
  547MOL0     H73830   4.038   1.570   0.681 -1.3760  1.4867  0.0553
  547MOL0     H73831   5.465   1.900   0.452  1.5990 -0.4907 -0.4586
  547MOL0     H73832   5.723   1.898   0.434 -0.0732 -0.4247  0.4458
  547MOL0     H73833   6.065   2.206   0.350 -1.0497 -0.2535  0.9877
  547MOL0     H73834   6.285   2.307   0.331 -0.5974  1.3594  0.0962
  547MOL0     H73835   6.541   2.352   0.704 -0.4185  0.2719 -0.0030
  547MOL0     H73836   6.602   2.195   0.650  0.4396 -0.9190 -1.8351
  547MOL0     H73837   6.755   2.321   0.503 -1.0639 -0.6243  0.1537
  547MOL0     H73838   6.769   2.389   0.666 -1.1259 -2.7081  0.8160
  547MOL0     H73839   6.608   2.578   0.618  0.2016  1.9491 -0.5759
  547MOL0     H73840   6.607   2.529   0.451 -1.0688  0.1569  0.8474
  547MOL0     H73841   6.753   2.710   0.473  0.0629  0.8700 -0.5125
  547MOL0     H73842   6.867   2.578   0.439 -1.4716  3.3111 -2.8709
  547MOL0     H73843   7.023   2.687   0.787  1.6084 -1.3615 -1.7585
  547MOL0     H73844   6.364   2.159   0.736  1.1169 -0.6023 -0.8011
  547MOL0     H73845   6.158   2.061   0.736 -0.5177 -1.5847 -1.7772
  548MOL0     O73846   5.053   0.958   0.518 -0.4298  0.2650  0.8357
  548MOL0     C73847   5.030   1.082   0.529  0.5070  1.1707  0.1813
  548MOL0     O73848   4.910   1.129   0.570 -0.4463  0.7632  0.1105
  548MOL0     C73849   4.813   1.039   0.614 -0.4862 -0.3608 -0.4119
  548MOL0     C73850   4.810   1.017   0.752 -0.2211 -0.4972 -0.0605
  548MOL0     C73851   4.711   0.931   0.806 -1.3229  0.1186  1.3649
  548MOL0     C73852   4.616   0.876   0.724  0.6069  0.1177  0.1940
  548MOL0     O73853   4.537   0.784   0.790 -0.1521  0.2648 -0.1450
  548MOL0     C73854   4.464   0.704   0.696  0.3619 -0.4654 -0.6597
  548MOL0     C73855   4.407   0.579   0.768  0.6063  0.8293  0.3644
  548MOL0     C73856   4.303   0.601   0.875  0.2858  0.9114  0.9931
  548MOL0     C73857   4.243   0.474   0.931 -0.8090  0.6888  1.3623
  548MOL0     C73858   4.102   0.485   0.972  0.1524  0.1829 -0.6808
  548MOL0     C73859   4.083   0.577   1.095  0.3828 -0.2740  0.5667
  548MOL0     C73860   3.937   0.617   1.113 -0.0508  0.1295  0.6433
  548MOL0     C73861   3.862   0.501   1.177  0.1610  0.2884 -0.0605
  548MOL0     N73862   3.721   0.526   1.181  0.2143 -0.5210 -0.7435
  548MOL0     C73863   3.659   0.645   1.217 -0.2673  0.5848  0.3966
  548MOL0     C73864   3.531   0.626   1.176 -0.9848 -0.2681 -0.2480
  548MOL0     C73865   3.431   0.741   1.177 -0.3910  0.1921  0.4722
  548MOL0     C73866   3.282   0.696   1.169 -0.2241 -0.2622 -0.0128
  548MOL0     C73867   3.246   0.576   1.247  1.2791  0.8511 -0.4199
  548MOL0     C73868   3.093   0.549   1.260  0.7574  0.0043  0.8386
  548MOL0     O73869   3.021   0.645   1.341  0.5590  0.1943  0.2752
  548MOL0     C73870   2.893   0.614   1.358  0.1138  0.4726  0.2571
  548MOL0     C73871   2.847   0.493   1.407  0.0893 -0.0912 -0.6785
  548MOL0     C73872   2.716   0.462   1.436 -0.4113 -0.5345 -1.0686
  548MOL0     C73873   2.694   0.321   1.484  0.2988  0.4303  0.6905
  548MOL0     C73874   2.609   0.552   1.408 -0.1287  0.0672  0.6188
  548MOL0     C73875   2.472   0.522   1.425  1.2317  0.0132 -1.0384
  548MOL0     O73876   2.431   0.390   1.416 -0.3617 -0.4232  0.0265
  548MOL0     C73877   2.302   0.367   1.449  0.1590  0.0721 -0.2429
  548MOL0     C73878   2.207   0.308   1.366  0.5218  0.4079 -0.4209
  548MOL0     C73879   2.079   0.290   1.413  0.0648  0.2417 -0.3470
  548MOL0     C73880   2.043   0.323   1.544  0.1819  0.0179  0.1280
  548MOL0     O73881   1.917   0.285   1.578  0.6740  0.7673 -0.4601
  548MOL0     C73882   1.855   0.348   1.694  0.3554  0.1494 -0.4707
  548MOL0     C73883   1.706   0.332   1.691 -0.0412  0.4164 -0.8002
  548MOL0     C73884   1.642   0.406   1.805  0.5763  0.2326 -0.1797
  548MOL0     C73885   1.483   0.432   1.789 -0.1871 -0.3953 -0.4864
  548MOL0     C73886   1.467   0.560   1.713  0.6887  0.1069 -0.0068
  548MOL0     C73887   1.320   0.600   1.713  0.2441 -0.5717  0.3769
  548MOL0     C73888   1.296   0.756   1.698  0.3984 -0.1656  0.7558
  548MOL0     C73889   1.146   0.769   1.679  1.1285 -0.6546  0.9185
  548MOL0    Cl73890   1.121   0.937   1.620  0.1103  0.0037  0.2246
  548MOL0     C73891   2.142   0.386   1.630  0.0826 -0.1652  0.8805
  548MOL0     C73892   2.275   0.400   1.585  0.5678  0.0151 -0.1054
  548MOL0     O73893   2.397   0.618   1.436 -0.2550  0.4189 -0.5350
  548MOL0     C73894   2.652   0.681   1.353 -0.3788  0.4350  0.8376
  548MOL0     C73895   2.790   0.706   1.326 -0.4077 -0.1407 -0.7373
  548MOL0     N73896   3.514   0.504   1.119 -0.1985 -0.1095 -0.2230
  548MOL0     N73897   3.628   0.446   1.122  0.1123  0.9382  0.3191
  548MOL0     C73898   4.611   0.907   0.588 -0.0660 -1.0368  0.5153
  548MOL0     C73899   4.720   0.985   0.532  0.0961 -0.0799  0.3803
  548MOL0     C73900   5.132   1.168   0.488  0.1233 -0.6599 -0.0908
  548MOL0     C73901   5.103   1.300   0.464  1.0144 -0.9644  0.5107
  548MOL0     C73902   5.208   1.394   0.426 -0.1315 -0.3792 -0.2390
  548MOL0     C73903   5.338   1.349   0.404 -0.2342 -0.1295 -0.4066
  548MOL0     O73904   5.444   1.418   0.363 -0.9844 -0.2197 -0.1244
  548MOL0     C73905   5.436   1.557   0.316  0.7332  1.0934 -0.3231
  548MOL0     C73906   5.387   1.555   0.163  0.4521 -0.7696 -1.0997
  548MOL0     C73907   5.342   1.688   0.107 -0.1415  0.3178  0.1597
  548MOL0     C73908   5.239   1.763   0.188  0.5512  0.6124 -0.6915
  548MOL0     C73909   5.117   1.680   0.211 -0.2059 -1.2150  0.5572
  548MOL0     C73910   5.026   1.607   0.215  0.2357  0.8000  0.4336
  548MOL0     C73911   5.363   1.208   0.432  0.6513 -1.2262  0.9065
  548MOL0     C73912   5.265   1.124   0.467 -0.2969 -0.8179  0.5610
  548MOL0     H73913   4.889   1.061   0.811  0.6569 -0.2818 -1.3548
  548MOL0     H73914   4.722   0.904   0.910 -0.0513  3.0784  2.0885
  548MOL0     H73915   4.381   0.755   0.647  1.2120 -0.5839 -2.3008
  548MOL0     H73916   4.539   0.668   0.625 -0.8652 -2.0647 -1.2264
  548MOL0     H73917   4.369   0.508   0.695 -0.0138 -1.2345  2.5580
  548MOL0     H73918   4.490   0.525   0.815  0.6837  0.4790 -0.1672
  548MOL0     H73919   4.347   0.660   0.957 -0.0535 -0.0893  1.9186
  548MOL0     H73920   4.219   0.662   0.840 -1.1526 -1.0366  0.8708
  548MOL0     H73921   4.240   0.388   0.864  0.5960  1.3810  0.3706
  548MOL0     H73922   4.309   0.436   1.009 -0.6866  0.3242  1.0868
  548MOL0     H73923   4.041   0.523   0.890  1.5944 -0.5740 -2.1528
  548MOL0     H73924   4.060   0.386   0.991  1.0664 -0.0071  0.4540
  548MOL0     H73925   4.133   0.529   1.179 -1.4226 -3.2440  0.0737
  548MOL0     H73926   4.140   0.669   1.076 -0.4146  0.4844  1.7490
  548MOL0     H73927   3.930   0.701   1.182 -5.4960 -2.5427  4.0538
  548MOL0     H73928   3.885   0.640   1.020  0.1939 -0.4553  0.3554
  548MOL0     H73929   3.895   0.488   1.281 -1.4810 -2.2289  0.2233
  548MOL0     H73930   3.878   0.409   1.120  1.6032 -0.5972  1.6450
  548MOL0     H73931   3.690   0.735   1.270 -1.5645  1.1912  0.1528
  548MOL0     H73932   3.440   0.801   1.267  0.0264 -1.5203  1.6278
  548MOL0     H73933   3.462   0.809   1.097 -0.2168 -0.2052  0.1968
  548MOL0     H73934   3.261   0.680   1.063  0.5946 -0.5228 -0.1472
  548MOL0     H73935   3.224   0.780   1.208 -0.5645 -1.1196  1.4186
  548MOL0     H73936   3.284   0.587   1.349  0.9321  2.9818 -0.4913
  548MOL0     H73937   3.299   0.494   1.197  1.5503  0.8584 -0.1458
  548MOL0     H73938   3.071   0.444   1.281 -0.3254 -0.6366 -2.8191
  548MOL0     H73939   3.055   0.571   1.160  0.0854 -0.6034  0.9558
  548MOL0     H73940   2.924   0.421   1.432  1.8542  1.4617 -1.3911
  548MOL0     H73941   2.790   0.289   1.526 -1.3264 -3.0600  2.0508
  548MOL0     H73942   2.629   0.319   1.571 -0.7693  2.4217  0.0115
  548MOL0     H73943   2.659   0.256   1.404  1.7921  0.4955 -0.0595
  548MOL0     H73944   2.238   0.277   1.267 -0.6696  0.1103 -0.7187
  548MOL0     H73945   2.008   0.248   1.342 -0.3281 -1.7043  1.1106
  548MOL0     H73946   1.893   0.299   1.785 -1.6476  0.9935  0.8773
  548MOL0     H73947   1.881   0.454   1.692 -1.0013  0.5753  1.5394
  548MOL0     H73948   1.674   0.374   1.595 -0.4436  0.9558 -0.4318
  548MOL0     H73949   1.667   0.230   1.691 -0.7060  0.5492  2.9124
  548MOL0     H73950   1.692   0.503   1.809  1.9664 -0.3105 -2.4829
  548MOL0     H73951   1.652   0.355   1.902 -0.6513 -0.1880 -0.2562
  548MOL0     H73952   1.420   0.352   1.751 -3.3940  1.7579 -0.0653
  548MOL0     H73953   1.431   0.447   1.884  1.9037 -2.0198  1.0059
  548MOL0     H73954   1.507   0.548   1.612  0.4938  0.4698 -0.1280
  548MOL0     H73955   1.510   0.640   1.774  0.9091 -1.9706  2.8042
  548MOL0     H73956   1.274   0.560   1.622  1.0149  0.1231 -0.3351
  548MOL0     H73957   1.260   0.558   1.795  1.1449 -3.4105 -0.2964
  548MOL0     H73958   1.346   0.791   1.607  1.0877 -0.6534  0.9411
  548MOL0     H73959   1.333   0.808   1.787  1.7989 -1.1434  0.7653
  548MOL0     H73960   1.076   0.761   1.762 -2.3784  0.8541 -1.6557
  548MOL0     H73961   1.107   0.697   1.606 -0.4347 -1.2078  2.2247
  548MOL0     H73962   2.110   0.397   1.733  0.1777 -1.8560  1.1198
  548MOL0     H73963   2.347   0.446   1.653  0.4146 -0.4400  0.3749
  548MOL0     H73964   2.574   0.754   1.341 -2.3943 -1.2871  2.5929
  548MOL0     H73965   2.822   0.802   1.288  0.1209  0.4431  1.0804
  548MOL0     H73966   4.528   0.880   0.523 -0.9809  1.2162  0.6295
  548MOL0     H73967   4.729   1.026   0.432  1.9764 -0.4010  0.3877
  548MOL0     H73968   5.000   1.331   0.477  0.8638 -1.4987  0.6480
  548MOL0     H73969   5.179   1.498   0.428  2.4516  0.4162 -0.7478
  548MOL0     H73970   5.365   1.613   0.378  0.2018  2.1534 -1.8290
  548MOL0     H73971   5.535   1.602   0.327  0.2958  2.0853 -0.3352
  548MOL0     H73972   5.304   1.485   0.154  0.1736 -0.5849  0.0048
  548MOL0     H73973   5.468   1.506   0.107  0.3166 -2.0365 -0.2265
  548MOL0     H73974   5.304   1.660   0.008  0.2496  0.4771 -0.0382
  548MOL0     H73975   5.421   1.760   0.080 -1.9137  1.4966 -2.2785
  548MOL0     H73976   5.210   1.852   0.132  0.7985  0.4016 -1.1643
  548MOL0     H73977   5.297   1.807   0.270 -0.2070  0.4211 -0.0391
  548MOL0     H73978   4.951   1.533   0.230  0.3088  0.5089 -0.5437
  548MOL0     H73979   5.467   1.179   0.425  0.5640 -1.5293  0.8778
  548MOL0     H73980   5.288   1.019   0.475 -0.4284 -1.1834 -2.7225
  549MOL0     O73981   2.028   4.629  10.854  0.8145  0.5146 -0.0313
  549MOL0     C73982   2.038   4.598  10.971  0.2487  0.5635  0.6591
  549MOL0     O73983   1.933   4.555  11.060  0.9095 -0.3269 -0.4379
  549MOL0     C73984   1.808   4.572  11.014  0.8133 -0.9474 -0.0545
  549MOL0     C73985   1.724   4.460  11.026 -0.7710 -0.4926  0.6364
  549MOL0     C73986   1.595   4.479  10.993 -0.4702  0.2484 -0.3051
  549MOL0     C73987   1.541   4.609  10.962 -0.0345 -0.3321  1.0047
  549MOL0     O73988   1.412   4.628  10.944  0.7159 -0.9515  0.5485
  549MOL0     C73989   1.327   4.571  11.045 -0.3815 -0.0652 -0.6748
  549MOL0     C73990   1.197   4.637  11.057 -0.5582 -0.1356  0.8000
  549MOL0     C73991   1.119   4.639  10.920  0.9310  0.7149  0.3736
  549MOL0     C73992   0.983   4.691  10.940  0.0769  0.2633 -0.3081
  549MOL0     C73993   0.912   4.693  10.807  0.8544  0.4603  0.0653
  549MOL0     C73994   0.761   4.715  10.825  0.4802 -0.6455  0.1936
  549MOL0     C73995   0.678   4.725  10.696 -0.7009  0.7332 -0.4521
  549MOL0     C73996   0.657   4.862  10.633 -0.5542 -0.0749 -0.9933
  549MOL0     N73997   0.782   4.930  10.610  0.0483  0.0232  0.2081
  549MOL0     C73998   0.886   4.893  10.524  0.1789 -0.1552 -0.3815
  549MOL0     C73999   0.983   4.979  10.544 -0.3967 -1.3380 -0.4496
  549MOL0     C74000   1.106   4.988  10.463  0.1120 -1.1728 -0.1751
  549MOL0     C74001   1.189   4.859  10.452  0.8403  0.3829 -1.1516
  549MOL0     C74002   1.249   4.836  10.601  0.1113 -0.6910  0.1049
  549MOL0     C74003   1.308   4.695  10.607  0.2165  0.3617  0.1901
  549MOL0     O74004   1.378   4.670  10.487  0.6622 -0.0695  0.1570
  549MOL0     C74005   1.514   4.662  10.489  0.5079 -0.6323  0.3946
  549MOL0     C74006   1.567   4.586  10.387 -0.8456 -0.3031  0.7966
  549MOL0     C74007   1.706   4.558  10.371 -0.7461  0.3714  0.1848
  549MOL0     C74008   1.746   4.477  10.251  0.3209 -0.2435  0.7888
  549MOL0     C74009   1.795   4.610  10.471  0.0305 -0.4922  0.1492
  549MOL0     C74010   1.949   4.615  10.454 -0.9890 -0.1466 -0.4374
  549MOL0     O74011   2.022   4.708  10.529  0.2252  0.7098  0.3416
  549MOL0     C74012   2.161   4.705  10.546 -0.6933 -1.1968  0.9775
  549MOL0     C74013   2.209   4.812  10.615 -0.9324 -0.8348  0.1392
  549MOL0     C74014   2.347   4.812  10.646 -0.6798  0.4640  0.4864
  549MOL0     C74015   2.430   4.699  10.619 -0.2011 -0.2127  0.8716
  549MOL0     O74016   2.565   4.716  10.647  0.0096 -0.0552 -0.1399
  549MOL0     C74017   2.658   4.617  10.595  0.6963  0.2311  0.5016
  549MOL0     C74018   2.790   4.648  10.656 -0.5631 -1.1578 -0.4086
  549MOL0     C74019   2.798   4.628  10.806 -0.3577  0.3623  0.3541
  549MOL0     C74020   2.942   4.656  10.850  0.6911  0.0974  0.2817
  549MOL0     C74021   2.976   4.807  10.841  0.1714  0.2175 -0.9141
  549MOL0     C74022   3.118   4.835  10.901  1.0038 -0.1165 -0.0141
  549MOL0     C74023   3.130   4.797  11.049  0.2089 -0.6546  0.2124
  549MOL0     C74024   3.248   4.840  11.135 -0.6045  0.0005  0.5327
  549MOL0    Cl74025   3.242   5.027  11.156 -0.0343  0.7411  0.3558
  549MOL0     C74026   2.375   4.595  10.547  0.2402  0.1164  0.4683
  549MOL0     C74027   2.245   4.598  10.501  0.0858  0.2733 -0.5539
  549MOL0     O74028   1.997   4.539  10.372  0.2710 -0.7546  0.0329
  549MOL0     C74029   1.739   4.696  10.572  0.3655  1.2609  0.3527
  549MOL0     C74030   1.601   4.730  10.571  0.1810 -0.3441  0.5314
  549MOL0     N74031   0.952   5.062  10.646 -0.5163 -0.2947 -0.4517
  549MOL0     N74032   0.829   5.042  10.679  0.4640 -0.3541  1.0302
  549MOL0     C74033   1.630   4.711  10.937 -0.5888  0.1463 -1.5262
  549MOL0     C74034   1.762   4.690  10.976 -1.2328 -0.0309  0.3832
  549MOL0     C74035   2.172   4.604  11.019 -0.3567 -0.2453 -0.5002
  549MOL0     C74036   2.286   4.638  10.935  0.2005  0.2951  0.3694
  549MOL0     C74037   2.410   4.662  10.989  0.7764 -0.2431 -0.8323
  549MOL0     C74038   2.434   4.658  11.125  0.0341 -0.2743  0.0347
  549MOL0     O74039   2.560   4.677  11.177 -0.2944 -0.5342 -0.4957
  549MOL0     C74040   2.591   4.801  11.233  0.8524  0.6371 -0.0086
  549MOL0     C74041   2.737   4.821  11.259  0.3747 -0.1347  0.7502
  549MOL0     C74042   2.790   4.724  11.371 -0.5947 -0.1807  0.5555
  549MOL0     C74043   2.939   4.706  11.357 -0.2373 -0.2008  0.3732
  549MOL0     C74044   2.992   4.824  11.428  0.5924 -0.6904  0.1174
  549MOL0     C74045   3.030   4.913  11.504 -0.9624  0.3498 -0.1472
  549MOL0     C74046   2.328   4.632  11.208  0.3848  1.1418 -0.3886
  549MOL0     C74047   2.200   4.601  11.160 -0.3493 -1.0879  0.7305
  549MOL0     H74048   1.762   4.373  11.078 -2.1830 -0.9106  1.0136
  549MOL0     H74049   1.525   4.397  11.007 -0.4425  0.1881 -0.5202
  549MOL0     H74050   1.301   4.471  11.011  1.0515 -0.6957 -0.0063
  549MOL0     H74051   1.385   4.581  11.137  2.3552  1.3406 -2.4063
  549MOL0     H74052   1.131   4.578  11.121 -0.8512 -1.5697 -0.7603
  549MOL0     H74053   1.208   4.740  11.092  1.4225  0.7774 -2.1429
  549MOL0     H74054   1.175   4.703  10.852  0.4093  0.2122 -0.5384
  549MOL0     H74055   1.132   4.536  10.886 -2.6934 -0.1822  1.2911
  549MOL0     H74056   0.941   4.622  11.014 -0.7061  1.4280  0.3701
  549MOL0     H74057   0.981   4.792  10.981  2.4929  1.2078 -2.2527
  549MOL0     H74058   0.966   4.771  10.752  5.1452 -1.7751  0.6523
  549MOL0     H74059   0.935   4.596  10.764 -1.0627 -1.6471  3.3436
  549MOL0     H74060   0.713   4.642  10.892 -0.6867  0.5565  0.7053
  549MOL0     H74061   0.758   4.814  10.872  2.8756  1.2439 -3.1582
  549MOL0     H74062   0.719   4.658  10.620 -1.3493 -2.0374  1.4695
  549MOL0     H74063   0.577   4.697  10.727 -0.1872 -0.0672  0.5737
  549MOL0     H74064   0.588   4.918  10.698 -0.5190 -0.4732 -0.6057
  549MOL0     H74065   0.602   4.840  10.541 -0.3250  0.7067 -1.3211
  549MOL0     H74066   0.891   4.812  10.453  2.2210 -0.2920 -0.1462
  549MOL0     H74067   1.082   5.040  10.369  2.0541  2.5378  1.1782
  549MOL0     H74068   1.171   5.066  10.503  1.2361 -1.2138 -1.8113
  549MOL0     H74069   1.271   4.886  10.384  2.5384 -2.8011 -0.5394
  549MOL0     H74070   1.144   4.771  10.406  0.0408  0.8597 -1.3052
  549MOL0     H74071   1.165   4.837  10.672 -1.8183  0.0432 -2.0621
  549MOL0     H74072   1.321   4.912  10.634 -1.4978  0.5300  0.9964
  549MOL0     H74073   1.228   4.622  10.621  0.5716  0.1718  1.3160
  549MOL0     H74074   1.373   4.700  10.695 -0.3796  1.9555  0.5794
  549MOL0     H74075   1.492   4.563  10.312 -2.9209  2.9289  1.6660
  549MOL0     H74076   1.658   4.456  10.188 -0.3896 -0.0624  1.6964
  549MOL0     H74077   1.812   4.533  10.185 -0.0075  3.1042  3.1027
  549MOL0     H74078   1.774   4.378  10.288 -3.5369 -2.1093 -0.6249
  549MOL0     H74079   2.143   4.890  10.650  1.1515  0.5555  1.2114
  549MOL0     H74080   2.383   4.888  10.714 -0.0939  1.2322 -0.6460
  549MOL0     H74081   2.619   4.520  10.628 -1.4668  0.5827 -0.7846
  549MOL0     H74082   2.662   4.611  10.486 -1.1973 -3.5371  0.4708
  549MOL0     H74083   2.867   4.587  10.608 -1.2255 -2.4097  0.0935
  549MOL0     H74084   2.811   4.751  10.625  0.5354 -2.1335 -3.2496
  549MOL0     H74085   2.786   4.520  10.822  2.3003 -0.5202 -2.5821
  549MOL0     H74086   2.721   4.688  10.856 -0.6512  0.1024  0.2204
  549MOL0     H74087   2.947   4.623  10.954  2.1674 -1.4401 -0.2344
  549MOL0     H74088   3.013   4.586  10.806 -0.4367 -0.5613 -0.5695
  549MOL0     H74089   2.903   4.866  10.897  0.5635 -0.4521  0.3508
  549MOL0     H74090   2.972   4.836  10.736 -1.7850  1.6066 -0.5197
  549MOL0     H74091   3.185   4.777  10.837  0.0930 -1.5757  0.2972
  549MOL0     H74092   3.138   4.942  10.888 -2.5033  0.9950  2.2143
  549MOL0     H74093   3.115   4.689  11.059 -0.9957 -0.2822  3.9557
  549MOL0     H74094   3.048   4.839  11.107 -1.1209 -1.4678 -1.0138
  549MOL0     H74095   3.338   4.811  11.080 -2.5537 -1.3710 -2.1627
  549MOL0     H74096   3.245   4.795  11.234 -1.4791 -1.3769 -0.0979
  549MOL0     H74097   2.438   4.515  10.509  0.3206  0.3482  0.0993
  549MOL0     H74098   2.203   4.512  10.451 -2.4282  0.3151  1.2828
  549MOL0     H74099   1.805   4.740  10.644 -0.1559 -1.3905  2.6165
  549MOL0     H74100   1.566   4.787  10.657  0.0711 -3.2423  2.5517
  549MOL0     H74101   1.601   4.812  10.908 -0.3759 -0.2134 -3.1233
  549MOL0     H74102   1.829   4.776  10.982 -1.8087  0.4218  0.4559
  549MOL0     H74103   2.272   4.665  10.830 -1.5849  0.2504  0.5567
  549MOL0     H74104   2.488   4.688  10.917  3.1059 -2.8939  0.5114
  549MOL0     H74105   2.551   4.881  11.169  0.1026 -1.0973 -1.7907
  549MOL0     H74106   2.540   4.800  11.330  0.0235 -2.9679 -0.3666
  549MOL0     H74107   2.743   4.925  11.292  0.8057 -0.6299  2.3359
  549MOL0     H74108   2.800   4.799  11.173 -1.3019 -1.4191 -0.2168
  549MOL0     H74109   2.753   4.622  11.358  3.1560 -1.6460  0.0719
  549MOL0     H74110   2.768   4.755  11.474  1.0190  1.2370  0.5143
  549MOL0     H74111   2.976   4.703  11.254 -1.6309  0.3376 -0.1681
  549MOL0     H74112   2.952   4.614  11.416 -1.1805 -1.5678 -1.4428
  549MOL0     H74113   3.077   4.985  11.567  3.8065 -0.6229 -2.1706
  549MOL0     H74114   2.352   4.623  11.314  2.4827  0.4304 -0.8672
  549MOL0     H74115   2.120   4.568  11.226 -1.2401 -0.5747 -0.0690
  550MOL0     O74116   6.581   6.304   9.405 -0.5687 -0.1069  0.6373
  550MOL0     C74117   6.550   6.376   9.313 -0.6561  0.7590 -0.6450
  550MOL0     O74118   6.425   6.430   9.301 -0.0289  0.1276  0.2765
  550MOL0     C74119   6.320   6.383   9.368 -0.0584 -0.1795 -0.3111
  550MOL0     C74120   6.292   6.253   9.409  0.0417 -0.0310 -0.1156
  550MOL0     C74121   6.165   6.221   9.468  0.3259  0.0719  0.4298
  550MOL0     C74122   6.069   6.314   9.506 -0.3441  0.8361  0.5002
  550MOL0     O74123   5.956   6.284   9.579 -0.2529 -0.6730  0.4238
  550MOL0     C74124   5.928   6.153   9.616 -0.4194 -0.1795 -0.1517
  550MOL0     C74125   5.804   6.157   9.708  0.0076  0.3548 -0.0515
  550MOL0     C74126   5.688   6.228   9.642  0.3751 -0.0162 -0.1618
  550MOL0     C74127   5.561   6.246   9.722 -0.3643  0.2396  0.3740
  550MOL0     C74128   5.446   6.305   9.636  0.0004 -0.2126 -0.3823
  550MOL0     C74129   5.317   6.313   9.726 -0.2805  0.1278  0.4050
  550MOL0     C74130   5.190   6.332   9.637  0.1708  0.0311  0.1057
  550MOL0     C74131   5.062   6.352   9.734  0.1629  0.7322 -0.3963
  550MOL0     N74132   4.942   6.353   9.654  0.2992 -0.3975 -1.0479
  550MOL0     C74133   4.887   6.249   9.583  1.2843 -0.7453 -0.6106
  550MOL0     C74134   4.760   6.298   9.563 -0.5063  0.1759  0.2742
  550MOL0     C74135   4.646   6.239   9.486  0.6274  0.2598  0.0068
  550MOL0     C74136   4.669   6.191   9.343  0.3597 -0.3770 -0.4841
  550MOL0     C74137   4.534   6.135   9.283  0.2020  0.1912  0.7577
  550MOL0     C74138   4.501   5.997   9.348 -1.0707  0.1584  0.1284
  550MOL0     O74139   4.393   5.938   9.282 -0.0889  0.5774  0.0760
  550MOL0     C74140   4.267   5.962   9.333 -0.3878 -0.6734  0.0051
  550MOL0     C74141   4.229   6.036   9.451  0.4393  0.9065  0.4243
  550MOL0     C74142   4.092   6.047   9.496  1.0483  0.0070  0.4386
  550MOL0     C74143   4.056   6.123   9.616 -0.3905  0.2455 -0.2372
  550MOL0     C74144   3.984   5.994   9.411 -0.6391 -0.6798 -0.0471
  550MOL0     C74145   3.836   5.993   9.445 -1.7379  0.4842  0.5919
  550MOL0     O74146   3.759   5.968   9.334 -0.3789 -0.2718 -0.5513
  550MOL0     C74147   3.630   5.935   9.357  0.5866  0.0381  1.2622
  550MOL0     C74148   3.593   5.809   9.324 -0.3393 -0.4833  0.6108
  550MOL0     C74149   3.456   5.774   9.323 -0.0004 -0.0011  0.5581
  550MOL0     C74150   3.352   5.867   9.361  0.1612 -0.0504 -0.1044
  550MOL0     O74151   3.217   5.839   9.362  0.6737  0.3122  0.7604
  550MOL0     C74152   3.156   5.716   9.329 -0.0504  0.1645 -0.3139
  550MOL0     C74153   3.005   5.712   9.339  0.5858  0.1907  0.8909
  550MOL0     C74154   2.955   5.568   9.330 -0.2019 -0.9988  0.1187
  550MOL0     C74155   2.807   5.574   9.311  0.8672 -0.7105  0.3446
  550MOL0     C74156   2.732   5.442   9.327 -0.3162  0.3021 -0.2511
  550MOL0     C74157   2.583   5.455   9.297  0.2583  0.4888 -0.7380
  550MOL0     C74158   2.501   5.324   9.333 -0.5995  0.3307 -0.1396
  550MOL0     C74159   2.473   5.308   9.482  0.3887  0.2118  1.0232
  550MOL0    Cl74160   2.322   5.396   9.523 -1.0791 -0.3258  0.0911
  550MOL0     C74161   3.389   6.000   9.394 -0.4301  0.8920 -0.3055
  550MOL0     C74162   3.529   6.031   9.398 -0.2199 -0.5638  0.4838
  550MOL0     O74163   3.791   6.030   9.552 -0.5361  0.5552 -0.0311
  550MOL0     C74164   4.026   5.929   9.290 -1.1437 -0.7651  0.7598
  550MOL0     C74165   4.160   5.918   9.251 -0.0633  0.9201  0.2858
  550MOL0     N74166   4.752   6.434   9.609 -0.8474  0.1935  0.3595
  550MOL0     N74167   4.858   6.459   9.671 -0.3131  0.3532 -0.5833
  550MOL0     C74168   6.091   6.443   9.455 -0.2360 -0.9596 -0.3960
  550MOL0     C74169   6.213   6.476   9.388  0.1030  0.8463  0.2570
  550MOL0     C74170   6.655   6.412   9.219  0.6512 -0.3652  0.1091
  550MOL0     C74171   6.631   6.474   9.097 -0.1539 -0.3887 -0.6147
  550MOL0     C74172   6.719   6.534   9.010 -0.5222  0.0895  0.5257
  550MOL0     C74173   6.851   6.539   9.054  1.7837 -0.0964 -0.0066
  550MOL0     O74174   6.939   6.596   8.970 -0.3977  0.1700 -0.2920
  550MOL0     C74175   7.078   6.567   8.990 -0.6994 -0.1808  0.3993
  550MOL0     C74176   7.174   6.591   8.869 -0.0198 -0.5375 -0.0801
  550MOL0     C74177   7.172   6.739   8.821  0.0818 -1.0695 -0.3975
  550MOL0     C74178   7.158   6.737   8.662 -0.0549  0.2596 -0.5888
  550MOL0     C74179   7.288   6.680   8.610  0.5419 -0.4067 -0.8916
  550MOL0     C74180   7.384   6.633   8.557 -0.6440 -0.6572 -0.5762
  550MOL0     C74181   6.888   6.475   9.175 -0.6691  0.6844 -0.3717
  550MOL0     C74182   6.797   6.403   9.247 -0.7741  0.9799  0.6272
  550MOL0     H74183   6.357   6.168   9.387 -0.6634 -1.4788  2.8497
  550MOL0     H74184   6.150   6.114   9.482  3.3171 -0.3261  1.3535
  550MOL0     H74185   5.913   6.089   9.528 -1.1416 -3.7320  2.3273
  550MOL0     H74186   6.011   6.104   9.668 -0.8305  0.0218  0.7188
  550MOL0     H74187   5.766   6.058   9.735 -0.5316  0.4262 -0.5527
  550MOL0     H74188   5.829   6.205   9.803 -4.2985  1.1117  0.8811
  550MOL0     H74189   5.718   6.330   9.614  0.6202 -0.3103 -1.0004
  550MOL0     H74190   5.661   6.173   9.552  1.2744 -0.7286 -0.0114
  550MOL0     H74191   5.523   6.150   9.758 -0.5022  0.3408  0.5030
  550MOL0     H74192   5.572   6.313   9.808 -3.7094  2.5416 -0.7833
  550MOL0     H74193   5.483   6.403   9.604 -0.4216  0.1705  0.2649
  550MOL0     H74194   5.425   6.241   9.550 -1.6089 -0.5788  0.2594
  550MOL0     H74195   5.307   6.214   9.771  0.2035 -1.0883 -1.9807
  550MOL0     H74196   5.322   6.397   9.797  0.5559  0.8424 -0.4621
  550MOL0     H74197   5.212   6.427   9.588  1.6625 -1.4694 -2.2856
  550MOL0     H74198   5.170   6.252   9.566 -0.6620  1.1518 -0.9630
  550MOL0     H74199   5.071   6.447   9.786  2.6618  0.6204 -0.4961
  550MOL0     H74200   5.054   6.274   9.811 -0.2032  0.1271 -1.0284
  550MOL0     H74201   4.920   6.149   9.556 -2.6327 -2.6326  0.7747
  550MOL0     H74202   4.621   6.149   9.544 -3.9470  0.6640 -0.9273
  550MOL0     H74203   4.556   6.301   9.491 -0.0290 -0.6440 -0.2887
  550MOL0     H74204   4.749   6.118   9.358  0.5976  0.3093  2.1909
  550MOL0     H74205   4.685   6.280   9.283 -2.2528  0.3096 -0.3107
  550MOL0     H74206   4.549   6.122   9.176 -0.6949  3.0325  0.1997
  550MOL0     H74207   4.448   6.202   9.291 -1.4870 -1.5424 -1.6015
  550MOL0     H74208   4.500   5.995   9.457  0.9168  0.4477  0.1888
  550MOL0     H74209   4.581   5.930   9.315 -1.4134  0.2091 -0.8445
  550MOL0     H74210   4.303   6.101   9.497 -0.9139  1.3427  2.0866
  550MOL0     H74211   4.142   6.149   9.678 -0.6345 -1.8007  1.0147
  550MOL0     H74212   3.997   6.213   9.593  0.5309  0.7130 -0.8585
  550MOL0     H74213   3.989   6.058   9.672 -2.1731  0.2954 -2.1572
  550MOL0     H74214   3.656   5.734   9.278  0.1506  0.5175 -0.4150
  550MOL0     H74215   3.431   5.669   9.309  0.9071 -0.0569 -0.8416
  550MOL0     H74216   3.194   5.687   9.231 -0.6864 -0.7598 -0.2923
  550MOL0     H74217   3.192   5.649   9.408  0.6844  0.1045 -0.6879
  550MOL0     H74218   2.981   5.761   9.434  3.1673  1.6192  0.9088
  550MOL0     H74219   2.958   5.768   9.258 -0.2130 -0.0300  1.1915
  550MOL0     H74220   2.973   5.503   9.415 -0.1792 -0.9849  0.1245
  550MOL0     H74221   2.992   5.515   9.242 -1.4876  0.2105 -1.2046
  550MOL0     H74222   2.766   5.640   9.388 -2.8696 -0.9468 -1.2076
  550MOL0     H74223   2.789   5.614   9.210  1.9308 -0.8557  0.0888
  550MOL0     H74224   2.753   5.400   9.426  0.2722  0.5683 -0.2549
  550MOL0     H74225   2.782   5.371   9.261  1.5119  0.0253  1.3327
  550MOL0     H74226   2.538   5.537   9.353 -0.5668 -0.2198 -0.3372
  550MOL0     H74227   2.575   5.476   9.190 -0.1728 -0.9975 -1.0300
  550MOL0     H74228   2.565   5.241   9.301 -1.7350 -1.0897  1.0897
  550MOL0     H74229   2.407   5.314   9.278  0.8350 -3.6681 -2.3541
  550MOL0     H74230   2.566   5.333   9.534  0.8526  0.3152  0.1612
  550MOL0     H74231   2.459   5.201   9.498  0.6555  0.2208  1.3283
  550MOL0     H74232   3.313   6.076   9.405 -1.4446 -0.2926  1.2438
  550MOL0     H74233   3.550   6.137   9.408 -3.1452  0.0752  0.7511
  550MOL0     H74234   3.946   5.889   9.229 -1.4852 -1.6456  1.7641
  550MOL0     H74235   4.182   5.874   9.154  1.5562 -0.6384  1.2921
  550MOL0     H74236   6.014   6.515   9.478  0.9182 -0.4112  2.1073
  550MOL0     H74237   6.244   6.577   9.361  0.4100  0.6253 -0.2257
  550MOL0     H74238   6.533   6.469   9.049  0.0345 -0.2723 -1.0164
  550MOL0     H74239   6.689   6.565   8.910 -1.5052 -0.3918  0.6664
  550MOL0     H74240   7.107   6.639   9.068  1.0343 -1.4525  0.9888
  550MOL0     H74241   7.091   6.467   9.032 -0.5946  0.5466  2.2064
  550MOL0     H74242   7.136   6.525   8.791  0.5635  1.1035 -1.8258
  550MOL0     H74243   7.277   6.565   8.893  0.8312  4.2098  2.6899
  550MOL0     H74244   7.259   6.792   8.860 -0.3543  1.1812 -2.3271
  550MOL0     H74245   7.088   6.788   8.871  0.9869  0.0776  0.0403
  550MOL0     H74246   7.139   6.838   8.625  0.9242  0.4239 -0.6798
  550MOL0     H74247   7.078   6.671   8.628 -1.0991  1.8183 -1.2855
  550MOL0     H74248   7.476   6.594   8.519  0.0859  2.2623 -2.0384
  550MOL0     H74249   6.988   6.468   9.217 -0.6004  1.0749 -0.4642
  550MOL0     H74250   6.837   6.361   9.339  2.7183 -0.0895 -1.2198
  551MOL0     O74251   9.397   2.480   3.027  0.2637  0.3783 -0.0729
  551MOL0     C74252   9.431   2.468   3.140 -0.1878 -0.1568  0.6373
  551MOL0     O74253   9.357   2.419   3.237  0.9810 -0.5813 -0.1588
  551MOL0     C74254   9.232   2.383   3.203 -0.6635  0.5066 -0.2356
  551MOL0     C74255   9.126   2.470   3.229  0.1291  0.3377  0.3948
  551MOL0     C74256   8.990   2.441   3.202 -0.2088  0.0662  0.6929
  551MOL0     C74257   8.960   2.314   3.151 -0.0618 -0.9971 -0.5974
  551MOL0     O74258   8.822   2.301   3.116 -0.2965  0.8113  0.3141
  551MOL0     C74259   8.753   2.182   3.076 -0.0985  0.3057  0.9744
  551MOL0     C74260   8.690   2.187   2.936  0.4584  0.4650  0.2731
  551MOL0     C74261   8.568   2.272   2.938 -0.6907 -0.3395  0.4929
  551MOL0     C74262   8.491   2.240   2.812 -0.1498 -0.3446 -0.8985
  551MOL0     C74263   8.368   2.335   2.803  0.0913  0.4267  0.4345
  551MOL0     C74264   8.310   2.337   2.660  0.7019 -1.0122 -0.8014
  551MOL0     C74265   8.237   2.201   2.614 -1.3896 -0.3695 -0.2652
  551MOL0     C74266   8.142   2.150   2.722  0.5174  1.1543 -0.2518
  551MOL0     N74267   8.095   2.017   2.674  0.4048  0.4399  0.5116
  551MOL0     C74268   7.963   1.973   2.693 -0.1581  0.2848 -0.2910
  551MOL0     C74269   7.981   1.833   2.683 -0.1578  0.1429 -0.5844
  551MOL0     C74270   7.877   1.730   2.667 -0.2528 -0.5573  0.2109
  551MOL0     C74271   7.889   1.619   2.767  0.1062 -0.2433 -0.3286
  551MOL0     C74272   7.788   1.513   2.755  0.7830 -0.0431 -0.1667
  551MOL0     C74273   7.638   1.549   2.774 -0.1188  0.2769  0.8027
  551MOL0     O74274   7.582   1.577   2.647  1.0949  0.7533  0.5132
  551MOL0     C74275   7.451   1.604   2.640  0.1450  0.4881 -0.4415
  551MOL0     C74276   7.394   1.637   2.518  0.3649  0.1042  0.9775
  551MOL0     C74277   7.257   1.671   2.495 -0.6003  0.6955 -0.7696
  551MOL0     C74278   7.207   1.727   2.367  0.0680 -0.5252  0.2253
  551MOL0     C74279   7.174   1.657   2.604  0.0553  0.1417  0.0750
  551MOL0     C74280   7.025   1.680   2.602  0.6858 -0.0658  0.0989
  551MOL0     O74281   6.963   1.692   2.731  1.1413 -0.2175  0.1178
  551MOL0     C74282   6.832   1.743   2.750  0.5101  0.1586  0.5911
  551MOL0     C74283   6.782   1.746   2.879 -1.1905 -0.2608 -0.3800
  551MOL0     C74284   6.648   1.784   2.906 -0.4671  0.0706 -0.4970
  551MOL0     C74285   6.564   1.824   2.811  0.5557 -0.3325  0.7812
  551MOL0     O74286   6.429   1.856   2.839  1.1406 -0.4178  0.3238
  551MOL0     C74287   6.348   1.944   2.758 -0.1238  0.1691  0.8928
  551MOL0     C74288   6.206   1.951   2.820 -0.4506  0.4394  0.2392
  551MOL0     C74289   6.111   2.041   2.745  0.2852  0.1141 -0.8331
  551MOL0     C74290   5.965   2.026   2.786  0.7529 -0.4756  0.0434
  551MOL0     C74291   5.861   2.127   2.732 -0.7012  0.1770  0.1459
  551MOL0     C74292   5.727   2.052   2.711 -0.9353  0.1662  0.0945
  551MOL0     C74293   5.620   2.143   2.649  0.0733 -0.0272 -0.0085
  551MOL0     C74294   5.489   2.069   2.619  0.4582 -0.0007 -1.0330
  551MOL0    Cl74295   5.362   2.176   2.563 -0.3787  0.8183 -0.3188
  551MOL0     C74296   6.607   1.825   2.683 -0.1405  0.2145 -0.7336
  551MOL0     C74297   6.739   1.790   2.656  0.1985  0.0773  0.9512
  551MOL0     O74298   6.963   1.683   2.493  0.2254  0.1673  0.6908
  551MOL0     C74299   7.228   1.622   2.731  0.6862  0.1624  0.1562
  551MOL0     C74300   7.363   1.603   2.751  0.7898  0.5116  1.0358
  551MOL0     N74301   8.115   1.802   2.652 -0.3803  0.5182 -0.1573
  551MOL0     N74302   8.180   1.914   2.651  0.0689  0.3325  0.4977
  551MOL0     C74303   9.063   2.217   3.132 -0.6647  0.6211  0.4412
  551MOL0     C74304   9.203   2.251   3.159  0.1432  0.1984 -0.5121
  551MOL0     C74305   9.557   2.513   3.187  0.3186  0.3469 -0.1869
  551MOL0     C74306   9.597   2.502   3.323  0.5687 -0.1413  0.3367
  551MOL0     C74307   9.716   2.548   3.366 -0.0356 -0.7533 -0.2182
  551MOL0     C74308   9.821   2.598   3.277  0.7681  0.0090  0.0682
  551MOL0     O74309   9.954   2.629   3.299 -0.2313  0.4061  0.5898
  551MOL0     C74310  10.012   2.569   3.405 -0.0957 -0.5339 -0.8747
  551MOL0     C74311  10.141   2.642   3.413 -0.3046 -0.2878  0.1142
  551MOL0     C74312  10.240   2.606   3.522  0.0696 -0.4261 -0.2807
  551MOL0     C74313  10.382   2.621   3.480  0.0798 -0.4260  0.4033
  551MOL0     C74314  10.410   2.766   3.469 -0.1574 -0.4761 -0.5074
  551MOL0     C74315  10.432   2.880   3.441 -0.0571 -0.8426 -0.4812
  551MOL0     C74316   9.777   2.610   3.140  0.1184 -0.2333 -0.5817
  551MOL0     C74317   9.641   2.575   3.096 -0.5523 -0.5758 -0.1539
  551MOL0     H74318   9.147   2.567   3.275 -3.2363  1.8030 -0.8240
  551MOL0     H74319   8.914   2.513   3.227  1.5501  1.3253  2.7817
  551MOL0     H74320   8.815   2.092   3.085 -1.2363 -0.6798 -0.5892
  551MOL0     H74321   8.672   2.145   3.140 -0.0795 -1.4159  0.0656
  551MOL0     H74322   8.763   2.223   2.864 -0.8164  2.1740 -0.2112
  551MOL0     H74323   8.664   2.082   2.917 -0.4872  0.5266  1.1002
  551MOL0     H74324   8.512   2.264   3.032  0.6696  0.5645  1.4138
  551MOL0     H74325   8.615   2.370   2.933  1.1555 -1.0486  2.2958
  551MOL0     H74326   8.554   2.250   2.723  1.3333  0.9986  0.2544
  551MOL0     H74327   8.463   2.134   2.815 -1.7285  0.0543 -1.0301
  551MOL0     H74328   8.291   2.307   2.876  0.1878 -2.9374 -0.5892
  551MOL0     H74329   8.397   2.439   2.817 -1.1770  0.8159  0.2347
  551MOL0     H74330   8.233   2.415   2.666  1.5945 -0.1310 -0.4861
  551MOL0     H74331   8.373   2.382   2.582 -0.8487  2.4907 -0.2348
  551MOL0     H74332   8.180   2.223   2.523 -1.6066  0.2423  0.0181
  551MOL0     H74333   8.312   2.128   2.582  0.2123  1.2287 -0.3110
  551MOL0     H74334   8.052   2.211   2.716  0.6231  1.4142  0.7746
  551MOL0     H74335   8.185   2.133   2.821  1.4473 -0.5223 -0.8900
  551MOL0     H74336   7.880   2.034   2.728 -0.1234 -1.0840  2.4400
  551MOL0     H74337   7.784   1.787   2.672  0.6407  0.8686  1.3241
  551MOL0     H74338   7.886   1.688   2.566  1.2734  1.7600 -0.7044
  551MOL0     H74339   7.899   1.653   2.871  2.7213 -2.2138  0.1622
  551MOL0     H74340   7.988   1.579   2.745 -0.3686 -0.8640 -1.4139
  551MOL0     H74341   7.811   1.440   2.834 -0.3874  1.3189  1.5063
  551MOL0     H74342   7.794   1.467   2.656  1.2155 -0.6241  0.1213
  551MOL0     H74343   7.623   1.628   2.848  1.0553  1.7856 -0.4999
  551MOL0     H74344   7.597   1.454   2.808  0.3700 -0.2437 -0.0368
  551MOL0     H74345   7.451   1.639   2.426  0.5464  0.6913  1.0942
  551MOL0     H74346   7.139   1.656   2.318 -1.5756  2.3866 -2.0393
  551MOL0     H74347   7.155   1.824   2.365  0.0491 -0.5405 -1.6815
  551MOL0     H74348   7.282   1.736   2.288  0.4145 -2.4322  0.2809
  551MOL0     H74349   6.837   1.717   2.968 -1.7063 -1.2506 -0.3703
  551MOL0     H74350   6.618   1.767   3.009 -1.9357  1.1398 -0.7143
  551MOL0     H74351   6.393   2.044   2.760  0.6758 -0.1051 -1.0039
  551MOL0     H74352   6.341   1.902   2.658  0.0324  1.6443  0.2334
  551MOL0     H74353   6.164   1.850   2.827 -1.5388  0.7961 -0.8247
  551MOL0     H74354   6.220   1.984   2.923 -1.1074 -1.6144  1.0342
  551MOL0     H74355   6.103   2.020   2.638 -1.8642  1.6893 -1.0546
  551MOL0     H74356   6.141   2.146   2.752 -1.2047  0.4674  1.3136
  551MOL0     H74357   5.936   1.932   2.737 -0.7679  0.0724 -0.1460
  551MOL0     H74358   5.948   2.013   2.894 -0.2682 -0.9906 -0.1704
  551MOL0     H74359   5.888   2.166   2.633 -0.4873 -0.5616 -0.0988
  551MOL0     H74360   5.849   2.208   2.803 -1.3962 -0.7591  1.1218
  551MOL0     H74361   5.752   1.966   2.649 -0.9337 -0.1987  0.5969
  551MOL0     H74362   5.699   2.000   2.803  1.2037  1.3203  1.4901
  551MOL0     H74363   5.646   2.185   2.551 -2.8880 -2.8054 -2.2212
  551MOL0     H74364   5.593   2.223   2.719  0.1496  0.8942 -1.0017
  551MOL0     H74365   5.461   2.025   2.715 -1.0094  2.1612 -0.3763
  551MOL0     H74366   5.506   1.988   2.548  0.2966  0.5387 -1.7015
  551MOL0     H74367   6.540   1.852   2.602 -2.4142 -1.9712  0.2659
  551MOL0     H74368   6.765   1.780   2.551 -1.8888 -1.9073  0.5209
  551MOL0     H74369   7.173   1.608   2.823  1.9138  1.5148  1.1283
  551MOL0     H74370   7.399   1.587   2.852  2.2145  2.5139  0.9036
  551MOL0     H74371   9.048   2.117   3.091 -0.1963 -0.1370  2.0416
  551MOL0     H74372   9.286   2.181   3.159  0.3226  0.4071  0.0170
  551MOL0     H74373   9.532   2.445   3.388 -1.1312  1.1047 -0.1765
  551MOL0     H74374   9.730   2.564   3.472 -0.1545 -0.4072 -0.2549
  551MOL0     H74375   9.951   2.584   3.494 -0.6312 -2.5174 -0.8677
  551MOL0     H74376  10.043   2.464   3.394  2.1019  0.1973 -2.4712
  551MOL0     H74377  10.124   2.749   3.405  2.5053  0.2121 -0.4554
  551MOL0     H74378  10.194   2.612   3.321  2.1212 -0.5689  1.5015
  551MOL0     H74379  10.224   2.501   3.550 -0.5501  0.1511  1.7433
  551MOL0     H74380  10.213   2.661   3.613 -3.4721  0.1902 -1.5412
  551MOL0     H74381  10.402   2.580   3.381 -0.1212  0.6619 -0.1013
  551MOL0     H74382  10.440   2.562   3.552 -0.6786 -0.4012  1.0377
  551MOL0     H74383  10.456   2.980   3.411 -0.1646 -1.2515 -2.0007
  551MOL0     H74384   9.852   2.635   3.066 -1.0696  0.1166 -1.6987
  551MOL0     H74385   9.611   2.593   2.993 -1.0464  2.5367  0.4345
  552MOL0     O74386   1.294   4.023   3.317 -0.2248  0.3581  0.7714
  552MOL0     C74387   1.208   3.955   3.261  0.5997  0.0375  0.1027
  552MOL0     O74388   1.204   3.818   3.268 -0.3966 -0.5935 -0.0154
  552MOL0     C74389   1.320   3.755   3.314  0.3602  0.7053 -0.0165
  552MOL0     C74390   1.451   3.795   3.261  0.5875  0.3806  0.2136
  552MOL0     C74391   1.554   3.709   3.281 -1.0691  0.2156 -0.1492
  552MOL0     C74392   1.543   3.589   3.343  0.0489 -0.3659  0.6757
  552MOL0     O74393   1.657   3.516   3.336 -0.2749  0.4169 -0.1400
  552MOL0     C74394   1.641   3.376   3.375 -0.1458 -0.7558  0.1818
  552MOL0     C74395   1.770   3.312   3.345  0.6484 -0.7702  0.8863
  552MOL0     C74396   1.794   3.179   3.422  0.0470 -0.8052 -0.0825
  552MOL0     C74397   1.928   3.120   3.380  0.5007  0.3391  0.3215
  552MOL0     C74398   1.947   2.984   3.452 -0.3082  0.3315  0.2078
  552MOL0     C74399   1.948   2.988   3.603 -0.5539  1.2445 -0.3410
  552MOL0     C74400   2.037   3.083   3.660  0.1842 -0.5048  0.5022
  552MOL0     C74401   2.050   3.088   3.814 -0.2590  0.1918  0.4311
  552MOL0     N74402   1.920   3.094   3.879 -0.1744  0.2805 -0.7968
  552MOL0     C74403   1.853   3.000   3.955  0.5107 -0.0967 -0.5202
  552MOL0     C74404   1.734   3.059   3.982  0.1051 -0.9958 -0.7221
  552MOL0     C74405   1.616   3.011   4.059 -1.0267 -0.0240  0.3669
  552MOL0     C74406   1.573   2.872   4.001 -0.0132  0.6251 -0.6368
  552MOL0     C74407   1.493   2.900   3.871 -0.9008  0.5968 -0.8520
  552MOL0     C74408   1.367   2.989   3.894 -0.6394  0.0328  0.7911
  552MOL0     O74409   1.286   2.932   3.999  0.6747  0.1879 -0.6058
  552MOL0     C74410   1.149   2.967   4.012  0.3599  0.7876 -0.6450
  552MOL0     C74411   1.088   3.065   3.934  0.8663  0.7049 -0.5256
  552MOL0     C74412   0.948   3.086   3.933 -0.0723 -0.5077 -0.1440
  552MOL0     C74413   0.911   3.207   3.845 -0.3014  0.2960 -0.2462
  552MOL0     C74414   0.856   3.005   4.008 -0.2810 -0.4797 -0.3836
  552MOL0     C74415   0.707   3.007   4.002  0.4541  0.3159 -0.3393
  552MOL0     O74416   0.654   3.126   3.965  0.2081  1.2342 -0.3177
  552MOL0     C74417   0.525   3.153   3.971 -0.6068 -0.2587 -0.9304
  552MOL0     C74418   0.451   3.101   3.866 -0.4672  0.6516  0.2583
  552MOL0     C74419   0.314   3.148   3.849  0.3062  0.5124 -0.4049
  552MOL0     C74420   0.255   3.233   3.941 -0.4200  0.2681 -0.2858
  552MOL0     O74421   0.128   3.285   3.927  0.4587 -0.3678  1.2088
  552MOL0     C74422   0.081   3.395   3.998 -0.4210 -0.4208  0.1697
  552MOL0     C74423   0.007   3.349   4.120  0.0016  0.0413 -0.3231
  552MOL0     C74424  -0.141   3.379   4.106 -0.8049 -0.3177  0.7688
  552MOL0     C74425  -0.219   3.317   4.216  0.4895 -0.2812 -0.0692
  552MOL0     C74426  -0.370   3.364   4.213  0.0081  0.6782 -0.4044
  552MOL0     C74427  -0.451   3.269   4.304  0.7497  0.6995 -0.1037
  552MOL0     C74428  -0.602   3.290   4.282 -0.1895  0.5423  0.0989
  552MOL0     C74429  -0.678   3.170   4.341  0.0652 -0.4293  0.2964
  552MOL0    Cl74430  -0.659   3.026   4.229  0.4625  0.1031 -0.0642
  552MOL0     C74431   0.331   3.256   4.065 -0.1064 -0.6279  0.7528
  552MOL0     C74432   0.470   3.227   4.073  1.8379  0.0115  0.4412
  552MOL0     O74433   0.645   2.914   4.050 -0.2649  0.1877  0.3839
  552MOL0     C74434   0.921   2.912   4.090  0.2657  0.1741  0.0618
  552MOL0     C74435   1.060   2.896   4.092  0.0874  0.2834 -0.3422
  552MOL0     N74436   1.734   3.185   3.932 -0.5859 -0.2750  0.4542
  552MOL0     N74437   1.847   3.207   3.866 -0.7382  0.0776 -0.0159
  552MOL0     C74438   1.424   3.558   3.409  0.1493 -0.3245 -1.1370
  552MOL0     C74439   1.312   3.630   3.390  0.1071 -0.3782  0.0432
  552MOL0     C74440   1.093   4.021   3.189  0.4427 -0.1484  0.3879
  552MOL0     C74441   0.976   3.952   3.150 -0.3952 -0.0867 -0.9835
  552MOL0     C74442   0.864   4.024   3.118 -0.0045 -0.1614  0.7242
  552MOL0     C74443   0.867   4.160   3.087  0.6681  0.1063  0.2156
  552MOL0     O74444   0.756   4.230   3.042  0.0148  0.3001  0.1424
  552MOL0     C74445   0.625   4.166   3.018 -1.7364 -0.0474  0.1081
  552MOL0     C74446   0.546   4.152   3.148  0.0574  0.1486  0.1796
  552MOL0     C74447   0.443   4.275   3.149 -0.4224  0.1706  0.1506
  552MOL0     C74448   0.302   4.221   3.159  0.1100  0.5018  0.0029
  552MOL0     C74449   0.223   4.335   3.220 -0.0631 -0.0774 -0.3180
  552MOL0     C74450   0.156   4.425   3.256  0.0666 -1.3324 -0.5356
  552MOL0     C74451   0.984   4.225   3.119  0.5457 -0.0288  0.9397
  552MOL0     C74452   1.099   4.157   3.174 -0.6342 -0.6653 -0.0796
  552MOL0     H74453   1.464   3.884   3.200  2.7821 -0.1422 -0.1525
  552MOL0     H74454   1.645   3.724   3.223  0.2556  2.0293  2.1800
  552MOL0     H74455   1.622   3.373   3.483  0.7892 -1.2502  0.3433
  552MOL0     H74456   1.561   3.320   3.326  1.9441 -2.0416 -1.9739
  552MOL0     H74457   1.783   3.298   3.238 -1.3373 -3.6495  0.9125
  552MOL0     H74458   1.857   3.370   3.377 -0.4025  1.5340 -0.2254
  552MOL0     H74459   1.801   3.198   3.529 -2.2506 -0.3462  0.0402
  552MOL0     H74460   1.709   3.113   3.405 -0.1367  0.0405 -2.9353
  552MOL0     H74461   1.953   3.119   3.274  0.5183  3.3348  0.2041
  552MOL0     H74462   2.005   3.186   3.421 -0.8496  0.8800  2.1465
  552MOL0     H74463   1.875   2.907   3.420 -1.4817  1.0616  1.0188
  552MOL0     H74464   2.040   2.945   3.411 -1.0860 -0.7057 -0.6537
  552MOL0     H74465   1.843   3.001   3.633 -1.1816 -0.1241 -1.8118
  552MOL0     H74466   1.982   2.890   3.637 -0.5555  0.6262 -2.0263
  552MOL0     H74467   2.138   3.067   3.622  0.4398 -0.3163  1.0807
  552MOL0     H74468   2.001   3.181   3.627  2.0380 -0.3123 -1.1299
  552MOL0     H74469   2.116   3.171   3.841 -0.1927  0.0411  0.7302
  552MOL0     H74470   2.102   2.998   3.849  2.3103  1.5130  0.2625
  552MOL0     H74471   1.888   2.906   3.996  0.2898  0.0763  0.0727
  552MOL0     H74472   1.663   2.987   4.155  2.9351 -0.6125 -1.4759
  552MOL0     H74473   1.541   3.089   4.071  0.7483  1.6627  1.0381
  552MOL0     H74474   1.509   2.820   4.073 -0.4611  2.1506  0.1296
  552MOL0     H74475   1.662   2.811   3.985 -0.7028 -0.2950 -1.0122
  552MOL0     H74476   1.460   2.804   3.830 -1.2777  0.5987 -0.5542
  552MOL0     H74477   1.558   2.961   3.807  0.4376 -0.3712 -0.4722
  552MOL0     H74478   1.302   2.996   3.806  0.1094  1.6520  0.3208
  552MOL0     H74479   1.400   3.089   3.923  1.7382 -1.0979  2.3750
  552MOL0     H74480   1.141   3.125   3.860 -0.7752  1.3395 -1.2306
  552MOL0     H74481   0.991   3.252   3.785 -1.6529  1.1934 -1.4474
  552MOL0     H74482   0.838   3.172   3.772 -0.6165  0.9411 -0.2539
  552MOL0     H74483   0.859   3.286   3.902 -1.0700 -1.0799  1.0427
  552MOL0     H74484   0.494   3.053   3.778 -3.1873 -0.0516 -0.7967
  552MOL0     H74485   0.245   3.118   3.771 -0.4268 -0.8839  0.7339
  552MOL0     H74486   0.171   3.450   4.029  0.7416 -0.9073 -2.1089
  552MOL0     H74487   0.023   3.461   3.933  0.8319  0.3741 -0.1962
  552MOL0     H74488   0.005   3.241   4.136 -0.8469 -0.0922 -1.2881
  552MOL0     H74489   0.047   3.402   4.207 -0.9252 -0.8550  0.6704
  552MOL0     H74490  -0.177   3.346   4.008  2.1991  0.5951 -0.7910
  552MOL0     H74491  -0.156   3.487   4.104 -3.8366 -0.6612  0.7172
  552MOL0     H74492  -0.220   3.208   4.205  0.5985 -0.3093  0.2053
  552MOL0     H74493  -0.167   3.330   4.311  2.7013 -0.0669 -1.2256
  552MOL0     H74494  -0.394   3.346   4.108 -2.2015 -1.9207  0.4262
  552MOL0     H74495  -0.372   3.469   4.241  1.0945  0.9728 -1.3378
  552MOL0     H74496  -0.425   3.165   4.282 -0.3174  1.0234 -3.6353
  552MOL0     H74497  -0.430   3.289   4.409  1.2222  3.4079 -0.6262
  552MOL0     H74498  -0.628   3.305   4.177  0.5501  1.3520  0.0177
  552MOL0     H74499  -0.635   3.384   4.328  0.1339  0.4001  0.6262
  552MOL0     H74500  -0.784   3.198   4.347 -0.4165 -1.7977 -1.2434
  552MOL0     H74501  -0.644   3.153   4.444 -0.6529 -1.7657  0.3356
  552MOL0     H74502   0.298   3.305   4.156  0.9940  0.7787  0.4159
  552MOL0     H74503   0.526   3.250   4.163 -0.8642 -0.1358  2.2862
  552MOL0     H74504   0.864   2.841   4.149  1.8035 -0.0544  1.3268
  552MOL0     H74505   1.112   2.824   4.155 -2.3274 -1.7948 -0.5693
  552MOL0     H74506   1.407   3.472   3.472  0.6000  0.2079 -0.2812
  552MOL0     H74507   1.222   3.602   3.444 -0.3543  2.1506  0.6966
  552MOL0     H74508   0.973   3.844   3.161  1.0863  0.0963  3.3902
  552MOL0     H74509   0.766   3.977   3.115 -0.3054  0.4845 -0.0024
  552MOL0     H74510   0.580   4.221   2.935  0.8016 -0.1537 -1.4527
  552MOL0     H74511   0.639   4.065   2.977  1.7472  0.0990  0.5851
  552MOL0     H74512   0.618   4.164   3.229  3.0656 -0.1434 -2.2305
  552MOL0     H74513   0.500   4.053   3.144 -0.0242  0.1387  1.2616
  552MOL0     H74514   0.444   4.337   3.060 -0.9739  1.8647  1.2707
  552MOL0     H74515   0.458   4.335   3.240 -1.2238 -0.7033  0.8836
  552MOL0     H74516   0.316   4.134   3.225  6.0652 -1.0359 -2.5787
  552MOL0     H74517   0.259   4.192   3.063 -0.6302 -1.0740  0.7714
  552MOL0     H74518   0.105   4.505   3.306 -0.0764 -1.5956 -0.2601
  552MOL0     H74519   0.995   4.329   3.088 -1.5536 -0.3239 -1.0269
  552MOL0     H74520   1.182   4.222   3.201 -2.2909  1.4583  0.1751
  553MOL0     O74521   6.010   8.095   8.613  0.3406  0.2293 -0.5095
  553MOL0     C74522   6.083   8.007   8.644 -1.1224  0.4688 -0.7711
  553MOL0     O74523   6.055   7.873   8.651  0.2597  0.4138 -0.4834
  553MOL0     C74524   5.930   7.837   8.620  0.1376  0.0964 -0.3249
  553MOL0     C74525   5.823   7.868   8.703 -0.0132  0.3601 -0.0807
  553MOL0     C74526   5.695   7.822   8.675  0.2401 -0.3171  0.8320
  553MOL0     C74527   5.664   7.752   8.555  0.4853  0.9917 -0.5022
  553MOL0     O74528   5.533   7.710   8.533  0.2951  0.2624  0.0240
  553MOL0     C74529   5.509   7.640   8.404  0.0174  0.4395  0.6664
  553MOL0     C74530   5.361   7.657   8.382 -0.1939 -0.3040 -0.1136
  553MOL0     C74531   5.290   7.598   8.498 -0.3603  0.9284 -0.0544
  553MOL0     C74532   5.144   7.593   8.470 -0.5716 -0.2905 -0.0093
  553MOL0     C74533   5.061   7.544   8.590  0.0432 -0.2422 -0.5433
  553MOL0     C74534   4.918   7.577   8.591  0.5947  0.2865  0.4454
  553MOL0     C74535   4.839   7.467   8.506 -0.2190  1.2458  0.7741
  553MOL0     C74536   4.692   7.485   8.508 -0.5619  0.0069 -0.2516
  553MOL0     N74537   4.635   7.375   8.437 -0.6122 -0.0634 -0.4917
  553MOL0     C74538   4.595   7.376   8.303 -0.4871 -0.2179 -0.7832
  553MOL0     C74539   4.536   7.255   8.286  0.1810  0.0023  0.2847
  553MOL0     C74540   4.467   7.220   8.160  0.9436 -0.2459  0.4013
  553MOL0     C74541   4.354   7.302   8.111  0.9732 -0.5030 -0.1732
  553MOL0     C74542   4.252   7.302   8.227 -0.3012  0.0057  0.7730
  553MOL0     C74543   4.147   7.411   8.211 -0.1809  0.7821  0.1000
  553MOL0     O74544   4.096   7.409   8.071  0.4652 -0.4446 -0.1268
  553MOL0     C74545   3.994   7.491   8.026 -0.8207  0.7077 -0.4805
  553MOL0     C74546   3.965   7.505   7.888  0.1956 -0.2296 -0.1831
  553MOL0     C74547   3.873   7.615   7.849 -0.7802  0.2015  0.7256
  553MOL0     C74548   3.856   7.648   7.694  0.2512 -0.3643 -0.5187
  553MOL0     C74549   3.811   7.692   7.948  0.1164 -0.0851  0.2344
  553MOL0     C74550   3.717   7.801   7.919  0.6501  0.1882  0.3788
  553MOL0     O74551   3.640   7.783   7.811 -0.2051  0.4769  0.7739
  553MOL0     C74552   3.560   7.895   7.779  0.0768  1.0473  0.5927
  553MOL0     C74553   3.433   7.859   7.739  0.5996 -0.1621 -0.2044
  553MOL0     C74554   3.344   7.960   7.686 -0.2203  0.7696  0.6853
  553MOL0     C74555   3.384   8.088   7.700 -0.2425 -1.1304 -0.4014
  553MOL0     O74556   3.302   8.197   7.682  1.1221  0.1635 -0.3732
  553MOL0     C74557   3.330   8.275   7.561  0.2688 -0.7730 -0.3471
  553MOL0     C74558   3.227   8.382   7.539  0.1635  1.3694 -0.8972
  553MOL0     C74559   3.224   8.462   7.666 -0.6309 -0.2763 -0.5614
  553MOL0     C74560   3.140   8.585   7.652  0.9885 -0.0356  0.4733
  553MOL0     C74561   3.115   8.671   7.776 -0.7636  0.2838 -0.5706
  553MOL0     C74562   3.006   8.784   7.781 -0.2127 -0.6223 -0.6182
  553MOL0     C74563   2.940   8.804   7.918 -0.5457 -0.0474  0.0496
  553MOL0     C74564   2.881   8.672   7.978 -0.2448 -1.2833 -0.5687
  553MOL0    Cl74565   2.750   8.728   8.100 -0.1236 -0.0017  0.3127
  553MOL0     C74566   3.501   8.131   7.754 -0.6900  0.8091 -1.6357
  553MOL0     C74567   3.591   8.032   7.793  0.2828  0.5453  0.1140
  553MOL0     O74568   3.709   7.889   8.004 -0.0555 -0.8959  0.5533
  553MOL0     C74569   3.835   7.666   8.085  0.4490 -1.4922 -1.0210
  553MOL0     C74570   3.923   7.563   8.119 -0.4640  0.2378  0.4601
  553MOL0     N74571   4.538   7.182   8.408 -0.5743  0.0231 -0.0722
  553MOL0     N74572   4.599   7.252   8.494 -0.8582 -0.7532  0.4382
  553MOL0     C74573   5.771   7.712   8.481 -0.5515 -0.0933  0.5888
  553MOL0     C74574   5.901   7.762   8.503 -0.6458 -0.6141 -0.4611
  553MOL0     C74575   6.226   8.042   8.678 -0.2798 -0.5517  0.0688
  553MOL0     C74576   6.249   8.164   8.731  0.1262 -0.5161  0.4745
  553MOL0     C74577   6.384   8.187   8.768  0.2485 -0.7462 -1.1806
  553MOL0     C74578   6.487   8.103   8.742 -0.2654 -0.2840 -0.8514
  553MOL0     O74579   6.605   8.145   8.810  0.0428  0.1348  0.4106
  553MOL0     C74580   6.725   8.079   8.781 -0.2357 -0.3456  0.1927
  553MOL0     C74581   6.827   8.171   8.845 -0.2162  0.3347 -0.4773
  553MOL0     C74582   6.824   8.322   8.809 -0.3155 -0.3032  0.2701
  553MOL0     C74583   6.806   8.353   8.662  0.0949 -0.7387 -0.0335
  553MOL0     C74584   6.906   8.296   8.576 -0.6391 -0.7167  0.8911
  553MOL0     C74585   6.985   8.231   8.506 -0.3928  0.0359 -0.0063
  553MOL0     C74586   6.463   7.981   8.676  0.3001 -0.1927  0.0283
  553MOL0     C74587   6.329   7.947   8.641 -1.0960  0.1933 -0.4944
  553MOL0     H74588   5.842   7.942   8.780 -0.9248 -1.4063  1.9633
  553MOL0     H74589   5.615   7.850   8.744  0.7144 -0.6819  1.5407
  553MOL0     H74590   5.559   7.691   8.321  2.9394 -0.5399  1.7082
  553MOL0     H74591   5.535   7.534   8.406 -0.5050  0.3096  0.6691
  553MOL0     H74592   5.351   7.766   8.381  1.3399 -0.1396  0.4562
  553MOL0     H74593   5.325   7.619   8.285  0.9838 -0.2759 -0.5779
  553MOL0     H74594   5.314   7.493   8.513 -4.1391 -0.0053  0.3817
  553MOL0     H74595   5.298   7.655   8.592 -2.9486  0.0101  0.8014
  553MOL0     H74596   5.105   7.686   8.429 -1.9945 -1.6170 -1.8138
  553MOL0     H74597   5.132   7.518   8.391  0.8509 -3.5172  2.6148
  553MOL0     H74598   5.075   7.436   8.600 -0.4557 -0.1533  1.7236
  553MOL0     H74599   5.098   7.591   8.682 -1.0935  0.4943 -0.4503
  553MOL0     H74600   4.893   7.555   8.695 -0.0281 -3.2224 -0.2931
  553MOL0     H74601   4.881   7.679   8.582 -1.3418 -0.2460  1.7118
  553MOL0     H74602   4.876   7.472   8.403 -0.7262 -3.9384  0.0556
  553MOL0     H74603   4.872   7.370   8.544 -0.9953  1.4615  2.0359
  553MOL0     H74604   4.663   7.580   8.463  1.2021  1.1113  0.8322
  553MOL0     H74605   4.658   7.470   8.611  1.7148 -1.8410  0.3121
  553MOL0     H74606   4.601   7.454   8.229 -0.3650  0.1727 -0.3654
  553MOL0     H74607   4.540   7.217   8.078 -2.0615  2.5384 -2.7030
  553MOL0     H74608   4.428   7.118   8.167 -2.4018  0.9784  1.2637
  553MOL0     H74609   4.311   7.268   8.017 -2.9684  3.3145 -0.0495
  553MOL0     H74610   4.387   7.401   8.079  0.0013 -0.9499 -2.7720
  553MOL0     H74611   4.304   7.303   8.324  3.4762  0.5160 -1.0764
  553MOL0     H74612   4.204   7.204   8.224 -2.2285  0.9134 -1.9462
  553MOL0     H74613   4.191   7.510   8.222 -0.2316  0.8932 -0.6201
  553MOL0     H74614   4.069   7.394   8.286 -1.3750 -0.7331 -1.3769
  553MOL0     H74615   4.017   7.439   7.819 -1.4398 -1.1305 -0.6167
  553MOL0     H74616   3.937   7.600   7.637  1.7822  1.5493 -0.0511
  553MOL0     H74617   3.753   7.626   7.665 -0.0134  1.3271 -0.9775
  553MOL0     H74618   3.862   7.754   7.668 -0.9119 -0.7500 -2.6250
  553MOL0     H74619   3.408   7.754   7.740  2.6764 -0.7061  1.0567
  553MOL0     H74620   3.249   7.925   7.648  0.7906 -1.3331 -0.0331
  553MOL0     H74621   3.426   8.326   7.567  0.8836 -2.0026  0.7411
  553MOL0     H74622   3.326   8.199   7.482  0.9626 -4.9431  3.2470
  553MOL0     H74623   3.269   8.447   7.461 -1.4266  2.3929 -0.9530
  553MOL0     H74624   3.136   8.335   7.501  0.2632  0.7189 -0.3477
  553MOL0     H74625   3.322   8.504   7.689 -0.8076 -0.9140  1.6417
  553MOL0     H74626   3.197   8.409   7.758  0.8718  0.3597  0.2866
  553MOL0     H74627   3.174   8.658   7.579 -1.2234  2.4783  1.8078
  553MOL0     H74628   3.043   8.542   7.626  1.1583  0.4508 -1.0000
  553MOL0     H74629   3.211   8.710   7.810  1.7249 -2.8671 -3.2883
  553MOL0     H74630   3.097   8.591   7.849 -0.4423  0.1497 -0.6377
  553MOL0     H74631   3.053   8.879   7.754  0.6831 -0.8399  0.1310
  553MOL0     H74632   2.919   8.778   7.714 -0.8948  3.9086 -0.4509
  553MOL0     H74633   2.852   8.868   7.911 -2.2918 -1.8470  3.1415
  553MOL0     H74634   3.020   8.852   7.976 -0.4903  0.9769 -0.8448
  553MOL0     H74635   2.962   8.616   8.027  0.3616  0.5252  0.6073
  553MOL0     H74636   2.843   8.611   7.896  0.4156  0.7477 -2.4921
  553MOL0     H74637   3.531   8.234   7.768 -1.5622  0.6806  2.6098
  553MOL0     H74638   3.690   8.061   7.826  1.3644 -3.3208  0.7800
  553MOL0     H74639   3.776   7.710   8.165 -1.0978 -2.7039 -1.4528
  553MOL0     H74640   3.938   7.540   8.224 -0.2265  0.1686  0.4123
  553MOL0     H74641   5.775   7.649   8.393  4.4000 -0.3528  0.6847
  553MOL0     H74642   5.992   7.739   8.449  1.3604  1.8358  1.5968
  553MOL0     H74643   6.178   8.246   8.743  1.6138  0.6286  1.8398
  553MOL0     H74644   6.408   8.281   8.817  2.4910 -1.8370 -0.0312
  553MOL0     H74645   6.733   7.974   8.811 -0.1513 -0.8641 -1.5548
  553MOL0     H74646   6.744   8.084   8.674  0.3079 -1.3428  0.2277
  553MOL0     H74647   6.926   8.130   8.824  1.3409  3.4109  0.2886
  553MOL0     H74648   6.813   8.170   8.954  1.3537 -0.8056 -0.2578
  553MOL0     H74649   6.909   8.379   8.845 -1.7284  2.8183 -0.9268
  553MOL0     H74650   6.737   8.370   8.855 -1.3277 -0.3363 -1.4901
  553MOL0     H74651   6.812   8.461   8.647 -0.1155 -0.3879  2.0680
  553MOL0     H74652   6.703   8.321   8.647 -0.2281  0.1284  0.2602
  553MOL0     H74653   7.045   8.164   8.447  1.7737  1.3259  0.6018
  553MOL0     H74654   6.538   7.902   8.673  0.7961  0.0436  3.1162
  553MOL0     H74655   6.320   7.848   8.598  1.6386 -0.3336 -0.0045
  554MOL0     O74656   4.517   8.414   1.368  0.3892  0.4137 -0.3229
  554MOL0     C74657   4.480   8.514   1.307  0.0734  0.1887 -0.4306
  554MOL0     O74658   4.355   8.525   1.248  0.1273  0.7360 -0.4389
  554MOL0     C74659   4.270   8.416   1.248 -0.0313  0.0521 -0.0917
  554MOL0     C74660   4.198   8.377   1.361 -0.5026 -0.5054 -0.1535
  554MOL0     C74661   4.105   8.272   1.356 -0.0960 -0.1811 -0.2727
  554MOL0     C74662   4.066   8.223   1.237 -0.9070 -0.0825 -0.1387
  554MOL0     O74663   3.965   8.135   1.242 -0.4251  0.3146  0.0995
  554MOL0     C74664   3.869   8.138   1.138 -0.4279  0.0449  0.8526
  554MOL0     C74665   3.762   8.037   1.181  0.4509  0.2427  0.6018
  554MOL0     C74666   3.666   8.095   1.270  0.0716  0.6394 -0.2217
  554MOL0     C74667   3.541   8.007   1.278 -0.2082  0.0050  0.6723
  554MOL0     C74668   3.455   8.050   1.394 -0.8666  0.4964 -0.0586
  554MOL0     C74669   3.363   7.929   1.433 -0.0860  0.4814  0.3975
  554MOL0     C74670   3.431   7.823   1.514  0.4195 -0.0297  0.0135
  554MOL0     C74671   3.395   7.832   1.667 -0.7416 -0.4543 -0.0814
  554MOL0     N74672   3.254   7.804   1.697 -0.1049  0.5743 -0.3323
  554MOL0     C74673   3.203   7.677   1.700 -0.1501 -0.4441  0.1805
  554MOL0     C74674   3.070   7.708   1.744  0.1631 -0.4730  0.5664
  554MOL0     C74675   2.961   7.610   1.716  0.5367  0.2983  0.4239
  554MOL0     C74676   2.831   7.631   1.792  1.0397 -0.6772 -0.1142
  554MOL0     C74677   2.716   7.668   1.699  0.4958  0.4980  0.8209
  554MOL0     C74678   2.570   7.686   1.754  0.3619 -0.7535 -0.1315
  554MOL0     O74679   2.509   7.558   1.797 -0.1718 -0.7942 -0.4129
  554MOL0     C74680   2.388   7.561   1.868 -0.5932  0.7541 -0.4708
  554MOL0     C74681   2.349   7.440   1.931 -1.0698 -0.7246  0.4019
  554MOL0     C74682   2.230   7.432   2.000 -0.0443  0.7033  0.8174
  554MOL0     C74683   2.182   7.287   2.039  0.4576 -0.2652 -0.8528
  554MOL0     C74684   2.146   7.551   2.024 -0.1824 -0.4173  0.3202
  554MOL0     C74685   2.010   7.561   2.092 -1.0076  0.2533  0.2949
  554MOL0     O74686   1.951   7.685   2.097  0.4336  0.6769  0.2415
  554MOL0     C74687   1.826   7.688   2.158 -0.2984  0.9489 -0.5381
  554MOL0     C74688   1.718   7.644   2.092  0.0045  0.6238  0.1001
  554MOL0     C74689   1.585   7.653   2.136  0.1022  0.1780  0.6775
  554MOL0     C74690   1.569   7.714   2.261 -0.3362  0.2875 -1.0118
  554MOL0     O74691   1.445   7.728   2.306  0.2638  0.3687 -0.7135
  554MOL0     C74692   1.401   7.859   2.356 -0.2074 -0.0338 -0.2620
  554MOL0     C74693   1.242   7.835   2.374 -0.5964 -0.0174 -0.0911
  554MOL0     C74694   1.173   7.971   2.411  0.2917  0.0606 -0.3173
  554MOL0     C74695   1.026   7.953   2.454  0.1318  0.5274 -0.9502
  554MOL0     C74696   0.959   8.098   2.482 -0.5888  0.6658  0.3799
  554MOL0     C74697   0.833   8.067   2.572 -0.6480  0.0438  0.1935
  554MOL0     C74698   0.713   8.159   2.564  0.0040 -0.4434  0.0342
  554MOL0     C74699   0.590   8.104   2.641 -1.0746 -0.5174  0.3473
  554MOL0    Cl74700   0.539   7.943   2.570 -0.3002 -0.1159  0.1129
  554MOL0     C74701   1.677   7.780   2.324 -0.7619 -0.4552 -0.3300
  554MOL0     C74702   1.802   7.768   2.271  0.1066 -0.8214 -0.1790
  554MOL0     O74703   1.962   7.458   2.129  0.0184 -0.1306 -0.4740
  554MOL0     C74704   2.198   7.665   1.956 -0.2813 -0.1495  0.1061
  554MOL0     C74705   2.314   7.670   1.883 -0.5955  0.7897 -0.1672
  554MOL0     N74706   3.052   7.843   1.761  0.8703 -0.4283  0.1785
  554MOL0     N74707   3.175   7.892   1.753  0.5175  0.5546  0.9058
  554MOL0     C74708   4.134   8.260   1.121  0.3980 -0.1111  0.4216
  554MOL0     C74709   4.239   8.355   1.128 -0.1376  0.7095  0.7749
  554MOL0     C74710   4.578   8.624   1.300 -1.2900  0.4598  0.1263
  554MOL0     C74711   4.542   8.747   1.234 -0.2337 -0.1487 -0.3560
  554MOL0     C74712   4.639   8.845   1.215  0.2065  0.3839 -0.3196
  554MOL0     C74713   4.770   8.821   1.258 -0.3268 -0.0655 -0.4412
  554MOL0     O74714   4.856   8.930   1.242  0.5862  0.1787 -0.0487
  554MOL0     C74715   4.980   8.925   1.306 -0.5166 -0.2208 -0.2124
  554MOL0     C74716   5.050   9.059   1.327 -0.0454  0.1953  0.4129
  554MOL0     C74717   4.961   9.178   1.349  0.4803  0.0506  0.7960
  554MOL0     C74718   4.850   9.153   1.451 -0.2617  0.3036  0.2010
  554MOL0     C74719   4.908   9.101   1.573  0.1827 -0.3467  1.0108
  554MOL0     C74720   4.947   9.077   1.680 -1.3367 -0.5109  0.2884
  554MOL0     C74721   4.810   8.695   1.311  0.6158 -0.3943 -0.0290
  554MOL0     C74722   4.706   8.602   1.343 -0.1237 -0.1718 -0.9787
  554MOL0     H74723   4.221   8.430   1.453 -0.5671  0.0524 -0.4551
  554MOL0     H74724   4.061   8.236   1.449  1.4610 -0.4088  0.3942
  554MOL0     H74725   3.834   8.234   1.099  0.2335 -0.2901 -0.6379
  554MOL0     H74726   3.920   8.095   1.051  0.9432  0.3815  1.4593
  554MOL0     H74727   3.709   7.990   1.098  0.5478  1.5769 -0.2382
  554MOL0     H74728   3.806   7.947   1.227 -1.9578 -0.3908  1.8445
  554MOL0     H74729   3.722   8.087   1.363 -0.5440 -0.6326  0.0641
  554MOL0     H74730   3.646   8.198   1.240  2.9826  0.3547 -3.9229
  554MOL0     H74731   3.485   8.021   1.185 -0.0867 -0.9038  0.4471
  554MOL0     H74732   3.566   7.901   1.289 -0.8240 -0.1271  0.8724
  554MOL0     H74733   3.506   8.082   1.486 -2.2840  0.3598  0.8035
  554MOL0     H74734   3.395   8.130   1.351 -2.4324 -1.0072 -0.7930
  554MOL0     H74735   3.282   7.961   1.499 -0.2328 -2.0066  1.5332
  554MOL0     H74736   3.319   7.888   1.341 -0.0185  0.8582  0.1946
  554MOL0     H74737   3.389   7.728   1.479 -1.2541 -0.1942  2.2023
  554MOL0     H74738   3.538   7.812   1.496  0.4688  1.7125 -0.9748
  554MOL0     H74739   3.416   7.934   1.703 -0.6876 -0.1617 -0.9185
  554MOL0     H74740   3.455   7.757   1.720 -0.9392 -0.6964 -0.1996
  554MOL0     H74741   3.244   7.579   1.678  0.5538 -0.4141  1.3097
  554MOL0     H74742   2.946   7.625   1.609  0.7581 -0.2649  0.3100
  554MOL0     H74743   2.997   7.510   1.740  1.2416  0.6192  0.7349
  554MOL0     H74744   2.850   7.716   1.858  0.8441 -0.8923  0.2223
  554MOL0     H74745   2.803   7.542   1.850 -0.5203  0.1595  0.4852
  554MOL0     H74746   2.701   7.593   1.620 -0.4729 -0.2634  1.6899
  554MOL0     H74747   2.736   7.758   1.642 -1.2557 -0.2188 -1.0810
  554MOL0     H74748   2.516   7.723   1.666 -0.0625 -3.9304 -1.3366
  554MOL0     H74749   2.574   7.767   1.827  0.9894 -0.7534 -0.1666
  554MOL0     H74750   2.417   7.358   1.909 -2.4463 -2.0021  0.7828
  554MOL0     H74751   2.095   7.255   1.981  0.2543 -1.9898  0.3193
  554MOL0     H74752   2.262   7.214   2.023 -0.1661 -1.2408  0.2131
  554MOL0     H74753   2.145   7.277   2.142 -3.3915  0.3901 -2.0179
  554MOL0     H74754   1.719   7.609   1.989  0.8731 -1.9921  0.9220
  554MOL0     H74755   1.500   7.620   2.077 -1.6349 -0.0773  3.1523
  554MOL0     H74756   1.429   7.883   2.460 -1.4894  4.7733 -0.7643
  554MOL0     H74757   1.418   7.942   2.287  2.1035 -0.5802 -0.4481
  554MOL0     H74758   1.208   7.800   2.276  0.2326 -1.4452  0.0979
  554MOL0     H74759   1.220   7.761   2.451 -2.2564  1.8332  1.2998
  554MOL0     H74760   1.176   8.036   2.323  1.4922 -2.4297 -2.2657
  554MOL0     H74761   1.233   8.019   2.489  0.3093  0.4020 -0.5393
  554MOL0     H74762   0.962   7.900   2.382  0.9136 -1.5804 -0.1650
  554MOL0     H74763   1.028   7.888   2.542 -0.7117 -0.1956 -1.4446
  554MOL0     H74764   0.940   8.154   2.390 -0.8882 -1.2860 -0.8117
  554MOL0     H74765   1.032   8.153   2.542  0.0326 -2.2937  2.5974
  554MOL0     H74766   0.805   7.964   2.546  2.5429 -0.4700 -1.7971
  554MOL0     H74767   0.859   8.068   2.678 -4.9100 -0.4122  1.4383
  554MOL0     H74768   0.690   8.179   2.459 -0.5317  1.7142  0.5068
  554MOL0     H74769   0.735   8.259   2.604 -2.2370 -0.0197  0.3275
  554MOL0     H74770   0.501   8.167   2.629 -1.2940 -0.7947  0.5013
  554MOL0     H74771   0.606   8.094   2.749  2.4225 -0.8822 -0.0798
  554MOL0     H74772   1.665   7.825   2.422  0.0115  0.2296 -0.5319
  554MOL0     H74773   1.881   7.825   2.318 -0.0862 -1.0940  0.4780
  554MOL0     H74774   2.144   7.758   1.958  1.6168  0.9963  2.0467
  554MOL0     H74775   2.327   7.760   1.824 -0.5335  0.1458 -1.1494
  554MOL0     H74776   4.103   8.209   1.030 -0.9260 -1.4768  1.5885
  554MOL0     H74777   4.291   8.390   1.039  0.6113 -1.6836  0.1937
  554MOL0     H74778   4.443   8.769   1.194  0.8915  0.1513 -3.2713
  554MOL0     H74779   4.611   8.942   1.175  0.2898  1.3144  1.7571
  554MOL0     H74780   4.959   8.891   1.408 -0.0694 -1.5600 -0.5419
  554MOL0     H74781   5.042   8.846   1.264  0.2609  0.4325 -0.3182
  554MOL0     H74782   5.099   9.072   1.231  1.4048 -1.7323  0.8368
  554MOL0     H74783   5.117   9.050   1.413  1.5746 -1.5886 -0.9592
  554MOL0     H74784   4.924   9.212   1.252  1.9501 -0.5699 -0.0194
  554MOL0     H74785   5.024   9.260   1.384  0.4728 -0.2523  1.5240
  554MOL0     H74786   4.775   9.084   1.412  0.3258 -1.2491  1.7259
  554MOL0     H74787   4.814   9.256   1.462 -1.1288  0.3886 -2.6682
  554MOL0     H74788   4.985   9.058   1.778  1.8748  0.0530 -0.7201
  554MOL0     H74789   4.910   8.668   1.342  1.4718  0.9706 -1.4905
  554MOL0     H74790   4.729   8.521   1.411  0.4446  0.6955 -0.1031
  555MOL0     O74791  11.206   7.279   2.470  0.1384  0.3623  0.0311
  555MOL0     C74792  11.225   7.402   2.448 -1.0079  0.2014  0.7003
  555MOL0     O74793  11.134   7.501   2.418  0.7808 -0.4924  0.4722
  555MOL0     C74794  11.014   7.475   2.463 -0.2806  0.4229  0.2554
  555MOL0     C74795  10.995   7.460   2.597  0.2845  0.7829  0.7262
  555MOL0     C74796  10.866   7.457   2.651  0.1113  0.0481 -0.3567
  555MOL0     C74797  10.757   7.452   2.562 -1.2307 -0.6984  0.7406
  555MOL0     O74798  10.624   7.447   2.588 -0.1769 -0.5076  0.1009
  555MOL0     C74799  10.592   7.451   2.727 -0.0282 -0.2136  0.1156
  555MOL0     C74800  10.441   7.462   2.752  0.0605  0.1257  0.0966
  555MOL0     C74801  10.373   7.335   2.703  0.4934  0.1250  1.0149
  555MOL0     C74802  10.226   7.354   2.710 -1.2891  0.2682 -0.6532
  555MOL0     C74803  10.152   7.227   2.658 -0.4273 -0.0377  0.2693
  555MOL0     C74804  10.003   7.257   2.641  0.3568 -0.1590  0.5521
  555MOL0     C74805   9.925   7.133   2.619 -0.3051  0.3328  0.3775
  555MOL0     C74806   9.958   7.085   2.474 -0.5541  0.1349 -0.1789
  555MOL0     N74807   9.882   6.965   2.444  0.1452  0.0801 -0.1708
  555MOL0     C74808   9.772   6.918   2.517  0.3172 -0.8254 -0.3601
  555MOL0     C74809   9.736   6.801   2.454 -0.4890  0.0461  0.4628
  555MOL0     C74810   9.610   6.723   2.492  0.3480 -0.7179 -0.5048
  555MOL0     C74811   9.485   6.765   2.406  0.3711  0.1175  0.2052
  555MOL0     C74812   9.430   6.907   2.445  1.0101  0.3693  0.7517
  555MOL0     C74813   9.360   6.894   2.577  0.3033  0.0528 -0.0807
  555MOL0     O74814   9.264   7.007   2.593 -0.3078  0.6355  0.7326
  555MOL0     C74815   9.157   6.994   2.680  0.1687  0.3281  1.0176
  555MOL0     C74816   9.130   6.894   2.776 -0.3157  0.0476 -0.2909
  555MOL0     C74817   9.023   6.905   2.865 -0.4345  0.3081  1.1933
  555MOL0     C74818   9.014   6.789   2.968 -0.0473 -0.3589  0.0806
  555MOL0     C74819   8.946   7.018   2.861  0.3927  0.2773  0.0446
  555MOL0     C74820   8.822   7.029   2.950 -0.5533  0.2200  0.3370
  555MOL0     O74821   8.772   6.917   2.998  0.1770 -0.5627 -0.0349
  555MOL0     C74822   8.639   6.893   3.033  0.7310 -0.1882  0.4109
  555MOL0     C74823   8.608   6.784   3.115 -0.9340  0.4574 -0.5768
  555MOL0     C74824   8.482   6.753   3.165  0.9297  0.8349  0.0423
  555MOL0     C74825   8.371   6.818   3.118  0.3624  0.5263  0.1868
  555MOL0     O74826   8.249   6.759   3.150  0.3841 -0.0215  0.2596
  555MOL0     C74827   8.131   6.790   3.078 -0.7741 -0.1278  0.0049
  555MOL0     C74828   8.037   6.681   3.119  0.3039 -0.0751  0.2148
  555MOL0     C74829   7.902   6.697   3.056  0.2435 -0.3305  0.6869
  555MOL0     C74830   7.812   6.792   3.141 -0.4426 -0.1593 -0.2563
  555MOL0     C74831   7.667   6.802   3.081  0.8096  0.2439  0.4233
  555MOL0     C74832   7.580   6.681   3.119 -0.1138 -0.0665 -0.5470
  555MOL0     C74833   7.432   6.719   3.089  0.4493  0.1254 -0.4873
  555MOL0     C74834   7.348   6.595   3.067 -0.0531  0.4780 -0.1131
  555MOL0    Cl74835   7.333   6.484   3.212  0.3701  0.3768 -0.4243
  555MOL0     C74836   8.390   6.927   3.030  0.8525 -0.4684 -0.0444
  555MOL0     C74837   8.526   6.973   2.990  0.4076  0.8774 -0.0327
  555MOL0     O74838   8.768   7.137   2.961  0.8736  0.5591  0.7653
  555MOL0     C74839   8.972   7.116   2.767  0.7640  0.3735  1.2952
  555MOL0     C74840   9.075   7.106   2.674 -0.5545 -0.8008  0.5054
  555MOL0     N74841   9.839   6.767   2.367  0.8675 -0.0427 -1.2977
  555MOL0     N74842   9.920   6.863   2.363  0.4521  0.3232  0.4365
  555MOL0     C74843  10.780   7.482   2.425 -0.3228  0.8973 -0.4027
  555MOL0     C74844  10.909   7.501   2.383  0.2940  0.5686  0.3483
  555MOL0     C74845  11.373   7.436   2.453  0.0249  0.0995  0.1219
  555MOL0     C74846  11.467   7.328   2.439 -0.1306  0.6282 -0.2292
  555MOL0     C74847  11.605   7.368   2.453 -0.7918  0.1656  0.2675
  555MOL0     C74848  11.651   7.498   2.474  0.4082 -1.1030  0.6734
  555MOL0     O74849  11.784   7.533   2.487  0.1321  0.2803 -0.4921
  555MOL0     C74850  11.822   7.626   2.384  0.2255 -0.0506  0.3602
  555MOL0     C74851  11.895   7.551   2.266  0.1503  0.0095 -0.4406
  555MOL0     C74852  12.022   7.485   2.309  0.2271  0.8310  1.2160
  555MOL0     C74853  12.137   7.586   2.345  0.4439 -0.2434  0.0671
  555MOL0     C74854  12.269   7.528   2.366  0.4975  0.4230  0.2492
  555MOL0     C74855  12.379   7.485   2.394  0.6171  0.2873 -0.0284
  555MOL0     C74856  11.555   7.590   2.496  0.0151 -0.3695  0.1405
  555MOL0     C74857  11.420   7.560   2.490 -0.7058  0.1550 -0.2372
  555MOL0     H74858  11.073   7.485   2.668  0.0762  0.0157  1.2377
  555MOL0     H74859  10.856   7.460   2.759  1.6778 -1.0732 -0.1382
  555MOL0     H74860  10.628   7.357   2.770 -1.0377 -0.7454 -0.1872
  555MOL0     H74861  10.633   7.537   2.782 -1.4563 -0.5785  1.8511
  555MOL0     H74862  10.418   7.476   2.857  0.0760 -4.0508  0.8186
  555MOL0     H74863  10.411   7.541   2.682  0.0323 -0.3362 -0.4160
  555MOL0     H74864  10.390   7.309   2.598 -2.0867 -3.1430  1.2229
  555MOL0     H74865  10.399   7.248   2.763 -0.3223 -1.4408 -0.7757
  555MOL0     H74866  10.193   7.395   2.806  1.0315  3.0638 -0.8963
  555MOL0     H74867  10.216   7.440   2.643  1.9564  2.2411  1.1572
  555MOL0     H74868  10.200   7.188   2.567 -1.5846  2.2271 -1.4026
  555MOL0     H74869  10.168   7.144   2.727 -1.6685 -2.1990 -1.8871
  555MOL0     H74870   9.964   7.302   2.733  0.0803 -2.3537  1.5824
  555MOL0     H74871   9.986   7.318   2.552  2.3404 -1.0853 -0.5355
  555MOL0     H74872   9.954   7.064   2.699  2.6480  0.8649 -0.0974
  555MOL0     H74873   9.817   7.150   2.629 -0.1349  1.2771  0.7067
  555MOL0     H74874  10.063   7.056   2.467 -1.0950 -1.8495 -0.8287
  555MOL0     H74875   9.927   7.159   2.400  1.0518 -0.6606 -1.7047
  555MOL0     H74876   9.716   6.956   2.602  0.4371 -1.3094 -0.0613
  555MOL0     H74877   9.634   6.617   2.475 -0.0560 -0.5579 -2.2588
  555MOL0     H74878   9.590   6.745   2.597  2.1103 -2.1792  0.1950
  555MOL0     H74879   9.399   6.697   2.409 -1.6179  2.4992 -0.2790
  555MOL0     H74880   9.516   6.768   2.301  0.8281 -1.2737  0.2717
  555MOL0     H74881   9.360   6.936   2.366  0.2103  1.0845  1.6929
  555MOL0     H74882   9.512   6.978   2.456  0.1682  1.6884 -1.0491
  555MOL0     H74883   9.440   6.894   2.652  0.1660 -0.6426  0.0735
  555MOL0     H74884   9.307   6.799   2.575 -0.5010  0.4660 -3.0437
  555MOL0     H74885   9.189   6.803   2.779  0.3789  0.4772 -0.5171
  555MOL0     H74886   9.110   6.736   2.964 -1.7435 -3.6569 -3.1560
  555MOL0     H74887   8.998   6.831   3.067  0.9567  4.8598 -1.6699
  555MOL0     H74888   8.940   6.712   2.947 -1.9303 -0.1566  4.8744
  555MOL0     H74889   8.688   6.720   3.150 -1.1178  0.5552  0.0443
  555MOL0     H74890   8.466   6.673   3.237 -1.9187 -0.4912 -1.8729
  555MOL0     H74891   8.098   6.890   3.107 -0.3122 -0.0605  0.3021
  555MOL0     H74892   8.146   6.786   2.969  1.2280 -4.7151  0.2086
  555MOL0     H74893   8.079   6.585   3.090  1.6745  0.1860  1.2013
  555MOL0     H74894   8.018   6.675   3.227 -0.0005 -1.2310  0.1057
  555MOL0     H74895   7.850   6.600   3.059  0.7066 -0.5567  1.8508
  555MOL0     H74896   7.911   6.712   2.948  2.5466 -1.2155  0.7021
  555MOL0     H74897   7.801   6.768   3.247 -1.5080 -0.4468 -0.4128
  555MOL0     H74898   7.857   6.892   3.139  0.3585 -0.5135  0.0102
  555MOL0     H74899   7.664   6.819   2.973  0.9059  1.9867  0.6680
  555MOL0     H74900   7.618   6.885   3.131 -1.5725 -2.2231  2.5053
  555MOL0     H74901   7.600   6.593   3.057 -2.1500  0.3867 -1.9578
  555MOL0     H74902   7.587   6.661   3.227  0.2494 -1.2964 -0.7795
  555MOL0     H74903   7.439   6.778   2.997 -0.4815 -1.2302 -1.4508
  555MOL0     H74904   7.382   6.774   3.169  0.7319 -1.3198  0.7135
  555MOL0     H74905   7.405   6.540   2.992  0.7676  0.3267  0.6104
  555MOL0     H74906   7.245   6.608   3.031 -0.6731 -1.4953  0.8228
  555MOL0     H74907   8.297   6.974   2.999  0.7300 -1.1537 -0.7452
  555MOL0     H74908   8.523   7.056   2.919  1.0960  0.0413 -1.0594
  555MOL0     H74909   8.907   7.203   2.764 -0.3049 -0.4267 -0.4898
  555MOL0     H74910   9.092   7.183   2.599 -1.1390 -0.3321  0.8536
  555MOL0     H74911  10.698   7.467   2.356 -0.8388 -0.4583  0.4668
  555MOL0     H74912  10.917   7.513   2.275 -2.7304 -1.9434 -0.3097
  555MOL0     H74913  11.434   7.226   2.424  0.8753 -0.1010  2.1210
  555MOL0     H74914  11.684   7.294   2.442 -1.0837 -0.7935  3.5948
  555MOL0     H74915  11.739   7.681   2.339 -2.9938 -2.0159  3.3199
  555MOL0     H74916  11.883   7.701   2.435 -0.1568  1.8355 -1.7986
  555MOL0     H74917  11.921   7.622   2.188 -0.7766 -0.9373 -1.6543
  555MOL0     H74918  11.831   7.475   2.220  0.4028 -1.7174  1.8604
  555MOL0     H74919  12.053   7.432   2.219 -0.5088  2.5596 -0.1209
  555MOL0     H74920  12.004   7.414   2.390 -1.5030 -1.1456 -0.7983
  555MOL0     H74921  12.103   7.641   2.433  1.1245 -2.2614  1.6630
  555MOL0     H74922  12.149   7.662   2.267  0.7482 -1.3680 -1.0255
  555MOL0     H74923  12.476   7.440   2.403  0.0953 -0.9674 -0.4665
  555MOL0     H74924  11.587   7.690   2.524  3.1388 -0.9738 -0.9704
  555MOL0     H74925  11.351   7.643   2.504  0.9931  1.6856 -0.6506
  556MOL0     O74926  10.226   0.759   5.148  0.0033 -0.5471  0.0619
  556MOL0     C74927  10.211   0.819   5.260 -0.4737  0.5788  0.7946
  556MOL0     O74928  10.100   0.856   5.324 -0.1259  0.3541 -0.1320
  556MOL0     C74929   9.979   0.834   5.272 -0.7185  0.0039  0.8378
  556MOL0     C74930   9.946   0.704   5.218 -0.0352  0.8023  0.7228
  556MOL0     C74931   9.815   0.673   5.176  0.1275  0.4147 -0.1286
  556MOL0     C74932   9.715   0.771   5.181  0.1862  0.1839  1.2475
  556MOL0     O74933   9.578   0.748   5.155  0.0663  0.4408 -0.5900
  556MOL0     C74934   9.538   0.629   5.089 -0.1539  0.3562  0.3589
  556MOL0     C74935   9.386   0.617   5.087  0.6836  0.0878 -0.6146
  556MOL0     C74936   9.329   0.690   4.966 -0.0958 -0.4704 -0.4800
  556MOL0     C74937   9.186   0.726   5.001 -0.6136 -0.3503  0.2485
  556MOL0     C74938   9.120   0.802   4.887  0.6657 -0.6448  0.7787
  556MOL0     C74939   8.965   0.811   4.908  0.2141 -0.1698 -0.3379
  556MOL0     C74940   8.912   0.917   4.813 -0.6938  0.2296 -0.7180
  556MOL0     C74941   8.757   0.928   4.817 -0.0052  0.9132 -0.4859
  556MOL0     N74942   8.696   0.990   4.934  0.3980 -0.1263 -0.5068
  556MOL0     C74943   8.690   0.934   5.058  0.0418  0.8104  0.5466
  556MOL0     C74944   8.635   1.027   5.131 -0.3892 -0.4436  0.9041
  556MOL0     C74945   8.626   1.031   5.276  0.2359 -0.0625 -0.3397
  556MOL0     C74946   8.675   0.907   5.361 -0.0022 -0.0690  0.8248
  556MOL0     C74947   8.571   0.803   5.354  0.6453 -0.1290 -0.0738
  556MOL0     C74948   8.589   0.713   5.480 -0.1225 -0.2708  0.2142
  556MOL0     O74949   8.488   0.610   5.472 -0.5039  0.8735 -0.3189
  556MOL0     C74950   8.363   0.643   5.521 -0.0802  0.1874  0.5344
  556MOL0     C74951   8.322   0.753   5.594 -0.9565  0.0117  0.1928
  556MOL0     C74952   8.190   0.780   5.632  0.7691  0.2942  0.1390
  556MOL0     C74953   8.156   0.913   5.700  0.2151  0.0950  0.2440
  556MOL0     C74954   8.094   0.676   5.601  0.8593 -0.8268  0.4413
  556MOL0     C74955   7.949   0.693   5.638 -0.0927  0.6239  0.9328
  556MOL0     O74956   7.864   0.623   5.565  0.0460 -0.4138 -0.0656
  556MOL0     C74957   7.733   0.643   5.599 -0.7956  0.8212 -0.0626
  556MOL0     C74958   7.665   0.765   5.556 -0.3806 -0.1113 -0.9744
  556MOL0     C74959   7.544   0.793   5.615 -0.0615 -0.2079  0.0161
  556MOL0     C74960   7.486   0.710   5.708  0.1978  0.0632 -0.1460
  556MOL0     O74961   7.363   0.751   5.754 -0.0242  0.8189 -0.2786
  556MOL0     C74962   7.281   0.849   5.691  0.1765 -0.1643  0.6959
  556MOL0     C74963   7.145   0.848   5.752 -0.4863  0.3236  0.5099
  556MOL0     C74964   7.047   0.940   5.683 -0.3667  0.1843  0.0443
  556MOL0     C74965   6.907   0.901   5.718 -0.3310  0.3700 -1.1511
  556MOL0     C74966   6.825   1.021   5.668  0.6379  0.0913 -0.0403
  556MOL0     C74967   6.688   1.010   5.724 -0.2751 -0.6344  0.3432
  556MOL0     C74968   6.591   1.115   5.672 -0.4858  0.2292 -0.5663
  556MOL0     C74969   6.533   1.076   5.532  0.0179 -0.0124 -0.0373
  556MOL0    Cl74970   6.419   0.939   5.551  0.3693 -0.0214 -0.0641
  556MOL0     C74971   7.549   0.590   5.744  0.4472 -0.7508  0.5361
  556MOL0     C74972   7.672   0.559   5.692  0.1735 -0.3105 -1.0601
  556MOL0     O74973   7.915   0.777   5.722 -0.2443 -0.2143  0.1238
  556MOL0     C74974   8.131   0.564   5.535 -0.4057 -0.2183  0.3948
  556MOL0     C74975   8.265   0.546   5.497  0.0378 -0.1881 -0.5570
  556MOL0     N74976   8.594   1.135   5.054 -0.9102  0.0840 -0.2058
  556MOL0     N74977   8.631   1.103   4.933  0.4982 -0.0694 -0.7555
  556MOL0     C74978   9.748   0.892   5.242  0.3180 -0.5782 -1.1073
  556MOL0     C74979   9.879   0.921   5.289 -0.1215 -0.4350 -0.2849
  556MOL0     C74980  10.336   0.868   5.324  0.1776 -1.1124  0.5018
  556MOL0     C74981  10.335   0.940   5.451  0.7388  0.9760 -0.0558
  556MOL0     C74982  10.449   0.992   5.507 -1.0375 -0.4848 -0.6364
  556MOL0     C74983  10.569   0.983   5.435  0.4598 -0.1896 -0.1876
  556MOL0     O74984  10.690   1.024   5.484 -0.9083  0.1233 -0.1819
  556MOL0     C74985  10.762   0.921   5.560 -0.5389  0.0619 -0.3377
  556MOL0     C74986  10.891   0.972   5.610  0.1321 -1.3218 -0.3750
  556MOL0     C74987  10.867   1.104   5.697 -1.1186  0.6898  0.5219
  556MOL0     C74988  10.978   1.212   5.689  0.3750  0.0826 -0.1052
  556MOL0     C74989  11.096   1.138   5.727 -0.1656  0.5280 -0.3771
  556MOL0     C74990  11.196   1.077   5.759  0.1388  0.6094 -0.0751
  556MOL0     C74991  10.575   0.900   5.317 -0.5218 -0.1117  0.2078
  556MOL0     C74992  10.461   0.845   5.259  0.4964  0.7228 -0.1655
  556MOL0     H74993  10.022   0.628   5.211 -0.7911  0.1630 -1.5338
  556MOL0     H74994   9.792   0.574   5.139 -2.4867  0.6193  0.7712
  556MOL0     H74995   9.578   0.621   4.988 -2.6826 -2.7444 -0.5931
  556MOL0     H74996   9.577   0.543   5.144  0.6612  0.8740  0.6075
  556MOL0     H74997   9.345   0.517   5.075 -1.8662  0.7737  1.3923
  556MOL0     H74998   9.345   0.672   5.172  0.0563 -1.6805  0.2630
  556MOL0     H74999   9.389   0.775   4.933  0.6386 -1.1043 -0.7845
  556MOL0     H75000   9.336   0.615   4.887  1.9547 -0.2879 -0.5252
  556MOL0     H75001   9.133   0.631   5.007 -0.7007 -0.4776 -1.7707
  556MOL0     H75002   9.176   0.778   5.097 -2.4896  0.4853 -0.3627
  556MOL0     H75003   9.156   0.905   4.875  0.5841 -0.9005 -2.6783
  556MOL0     H75004   9.125   0.752   4.790  0.3124  0.5903  0.0857
  556MOL0     H75005   8.923   0.711   4.895  0.3906 -0.4064  0.8325
  556MOL0     H75006   8.943   0.840   5.011 -2.3061 -0.8917 -0.6106
  556MOL0     H75007   8.949   1.017   4.840  2.6785 -0.2492 -3.0104
  556MOL0     H75008   8.946   0.891   4.713 -0.4631 -2.0887 -0.0796
  556MOL0     H75009   8.703   0.834   4.805 -0.0320  0.8288  0.2490
  556MOL0     H75010   8.742   0.986   4.725  1.5851  0.8430 -0.8096
  556MOL0     H75011   8.722   0.842   5.105  1.3310  0.5733 -0.7388
  556MOL0     H75012   8.682   1.123   5.296  2.1601 -0.6922 -2.4153
  556MOL0     H75013   8.520   1.040   5.302 -0.2783 -1.6615 -1.7030
  556MOL0     H75014   8.689   0.922   5.468  0.1618 -0.5229  0.8666
  556MOL0     H75015   8.770   0.884   5.312 -0.0562 -0.7893  1.0418
  556MOL0     H75016   8.578   0.746   5.261  2.4766 -1.2804  0.7122
  556MOL0     H75017   8.468   0.839   5.350  0.2869 -1.1952 -1.7833
  556MOL0     H75018   8.586   0.777   5.569 -1.4582 -0.0423  0.0255
  556MOL0     H75019   8.691   0.675   5.481  0.8162  2.0226 -0.6957
  556MOL0     H75020   8.389   0.833   5.622 -1.4239  0.9946 -1.3735
  556MOL0     H75021   8.074   0.963   5.648 -0.6585 -0.2296  1.2759
  556MOL0     H75022   8.128   0.890   5.803 -0.3937 -2.0372 -0.3430
  556MOL0     H75023   8.244   0.978   5.702  0.9954 -0.8570 -1.1327
  556MOL0     H75024   7.720   0.835   5.494  0.6073 -0.0958 -0.1000
  556MOL0     H75025   7.495   0.888   5.595 -1.8204 -1.0748  0.1012
  556MOL0     H75026   7.313   0.949   5.721 -1.3675  0.7445 -0.5497
  556MOL0     H75027   7.291   0.828   5.584  0.4876  0.7928  0.5352
  556MOL0     H75028   7.113   0.744   5.743 -0.0753  0.2081  0.3498
  556MOL0     H75029   7.146   0.892   5.852 -0.7093  2.9053 -0.5474
  556MOL0     H75030   7.045   0.924   5.574  2.0168 -0.6982  0.0675
  556MOL0     H75031   7.082   1.041   5.705  1.2941 -0.5861  1.2023
  556MOL0     H75032   6.878   0.804   5.677 -0.8425  0.5757 -1.2819
  556MOL0     H75033   6.894   0.895   5.827 -0.5262  1.9993 -1.0664
  556MOL0     H75034   6.808   1.026   5.560  1.5224  1.8510 -0.1252
  556MOL0     H75035   6.862   1.118   5.702 -0.3871  1.5121 -2.6812
  556MOL0     H75036   6.641   0.912   5.711 -0.1104 -0.8614  1.4341
  556MOL0     H75037   6.707   1.024   5.830  0.4598  1.4828 -0.0156
  556MOL0     H75038   6.635   1.215   5.681  0.3634 -0.2099  0.3535
  556MOL0     H75039   6.508   1.105   5.741 -1.4230 -0.6662 -1.7789
  556MOL0     H75040   6.609   1.044   5.460 -0.3974 -0.7112 -0.1686
  556MOL0     H75041   6.475   1.163   5.497 -0.2976  0.9087  2.5482
  556MOL0     H75042   7.494   0.531   5.817 -0.8109  2.2313  2.1771
  556MOL0     H75043   7.726   0.469   5.721  1.8232  1.0951  0.4859
  556MOL0     H75044   8.061   0.483   5.515 -0.9163 -0.3444  2.4839
  556MOL0     H75045   8.299   0.455   5.448  2.7555 -0.2133  1.1185
  556MOL0     H75046   9.666   0.960   5.262  1.9458  1.3526 -0.7130
  556MOL0     H75047   9.907   1.007   5.349  2.0420 -2.4814  1.8406
  556MOL0     H75048  10.242   0.965   5.501 -0.4883 -3.1256  0.0859
  556MOL0     H75049  10.448   1.055   5.595 -1.0478  0.8726 -1.5809
  556MOL0     H75050  10.703   0.865   5.633 -2.1535  1.9154 -0.1553
  556MOL0     H75051  10.802   0.846   5.490  0.1092  0.0241  0.0572
  556MOL0     H75052  10.950   0.998   5.522  2.1986  2.7065  1.9381
  556MOL0     H75053  10.944   0.897   5.670  1.0712 -0.1182  0.3363
  556MOL0     H75054  10.843   1.068   5.798  1.2653 -0.4377  0.7310
  556MOL0     H75055  10.774   1.151   5.663 -2.4366 -1.3183  1.1924
  556MOL0     H75056  10.966   1.290   5.764  0.8807  0.4224 -0.3713
  556MOL0     H75057  10.999   1.251   5.589 -0.3915  1.5173  0.2567
  556MOL0     H75058  11.286   1.034   5.798 -0.5800 -1.0030 -0.1268
  556MOL0     H75059  10.671   0.899   5.267 -1.2995  3.0963 -1.6658
  556MOL0     H75060  10.462   0.790   5.165 -2.5278  0.3108 -0.0678
  557MOL0     O75061   9.866   8.396   0.059 -0.0058  0.2435  1.2625
  557MOL0     C75062   9.888   8.283   0.097 -0.2993 -1.2401  1.0628
  557MOL0     O75063   9.801   8.206   0.157 -0.0117  0.2178  0.1033
  557MOL0     C75064   9.671   8.247   0.143 -0.7840  0.2132  1.1908
  557MOL0     C75065   9.600   8.250   0.020  0.6379  0.0943 -0.1533
  557MOL0     C75066   9.463   8.273   0.020 -0.3138 -0.6117 -0.4985
  557MOL0     C75067   9.383   8.300   0.134 -0.0271  0.0217 -0.1006
  557MOL0     O75068   9.246   8.323   0.128 -0.4350 -0.0185 -0.4782
  557MOL0     C75069   9.157   8.302   0.236 -0.5143  0.2554 -0.1572
  557MOL0     C75070   9.121   8.155   0.231  0.5170 -0.4705  0.3709
  557MOL0     C75071   9.018   8.123   0.343  0.3512  0.2536 -0.7130
  557MOL0     C75072   8.948   7.986   0.326 -0.6360  0.1325  0.8047
  557MOL0     C75073   8.825   7.972   0.411 -0.1994 -0.2494  0.2014
  557MOL0     C75074   8.693   8.012   0.340 -0.4988  0.0797  0.4805
  557MOL0     C75075   8.584   7.978   0.439 -0.5756 -0.2320  0.2011
  557MOL0     C75076   8.443   7.994   0.371  1.1098  0.7881 -0.6045
  557MOL0     N75077   8.403   8.134   0.356 -0.2175 -0.4183  0.0910
  557MOL0     C75078   8.384   8.229   0.455 -0.9229 -0.1748  0.3349
  557MOL0     C75079   8.357   8.343   0.386 -0.0317  0.8943 -0.6345
  557MOL0     C75080   8.324   8.476   0.437  0.2396 -0.5433 -0.1283
  557MOL0     C75081   8.174   8.509   0.456  0.4333 -0.3933 -0.6578
  557MOL0     C75082   8.090   8.422   0.362 -0.1750 -0.3506 -0.3266
  557MOL0     C75083   7.939   8.458   0.362  0.1699  1.0149  0.6114
  557MOL0     O75084   7.865   8.339   0.330  0.2570 -0.6067 -0.2157
  557MOL0     C75085   7.736   8.349   0.333 -0.2325 -0.5477 -0.6447
  557MOL0     C75086   7.679   8.432   0.234  0.1215  0.7115 -0.2147
  557MOL0     C75087   7.534   8.439   0.230 -0.4424 -0.5905 -0.0479
  557MOL0     C75088   7.491   8.544   0.130  0.6108 -0.6012  1.2893
  557MOL0     C75089   7.454   8.369   0.319  0.2849 -0.4529  0.0232
  557MOL0     C75090   7.307   8.373   0.302 -0.2746  0.1334 -0.4102
  557MOL0     O75091   7.260   8.325   0.183 -0.8771  0.1210 -0.4770
  557MOL0     C75092   7.127   8.350   0.162 -0.0358  0.4255 -0.1458
  557MOL0     C75093   7.026   8.279   0.213 -0.5439 -0.6725  0.3253
  557MOL0     C75094   6.894   8.309   0.194  0.5017  0.2798  0.5038
  557MOL0     C75095   6.852   8.411   0.109 -0.2139  0.2981  0.2471
  557MOL0     O75096   6.714   8.428   0.096 -0.4516  0.3957 -0.0106
  557MOL0     C75097   6.674   8.546   0.037  0.3510 -0.7825  0.7089
  557MOL0     C75098   6.521   8.582   0.039  0.6997  0.8528 -0.0074
  557MOL0     C75099   6.436   8.505  -0.064  0.9982 -0.8710  0.5691
  557MOL0     C75100   6.305   8.578  -0.096 -0.1342 -0.0804  0.5743
  557MOL0     C75101   6.218   8.522  -0.213 -0.1953 -0.1127 -0.5935
  557MOL0     C75102   6.149   8.631  -0.292  0.3035 -0.5256 -0.5056
  557MOL0     C75103   5.994   8.584  -0.312 -0.4571 -0.4486 -0.2215
  557MOL0     C75104   5.918   8.705  -0.381 -0.3480  0.0792  1.5601
  557MOL0    Cl75105   5.748   8.657  -0.429  0.0499 -0.5228  0.2549
  557MOL0     C75106   6.954   8.489   0.054  0.5454  0.7244 -0.5819
  557MOL0     C75107   7.085   8.463   0.090 -0.0712 -0.4497 -1.0320
  557MOL0     O75108   7.241   8.427   0.391  0.1260  0.1989  0.0909
  557MOL0     C75109   7.517   8.281   0.407 -0.1367  0.1121  0.2384
  557MOL0     C75110   7.653   8.267   0.410 -0.1435 -0.1235  0.6864
  557MOL0     N75111   8.375   8.327   0.251  0.2095  0.1414  0.7667
  557MOL0     N75112   8.413   8.202   0.232 -0.5526 -0.6601 -0.4131
  557MOL0     C75113   9.453   8.289   0.254  0.1498 -0.1475 -1.4749
  557MOL0     C75114   9.598   8.269   0.262 -0.1776 -0.3548 -0.3370
  557MOL0     C75115  10.017   8.226   0.062 -0.5974  0.4119  1.0712
  557MOL0     C75116  10.038   8.083   0.078  0.1905 -0.9671 -0.0861
  557MOL0     C75117  10.157   8.024   0.046 -0.3266 -0.2245 -0.1195
  557MOL0     C75118  10.270   8.099  -0.006  0.4701 -1.0449 -0.8040
  557MOL0     O75119  10.392   8.039  -0.029  0.0538  0.1784 -0.3609
  557MOL0     C75120  10.511   8.116  -0.058  0.8093 -0.7144  0.0225
  557MOL0     C75121  10.629   8.013  -0.059 -0.4929 -0.3587 -0.2531
  557MOL0     C75122  10.621   7.913   0.061 -0.5353 -0.9327 -0.5855
  557MOL0     C75123  10.751   7.833   0.066 -0.8807  0.3604  0.2926
  557MOL0     C75124  10.875   7.907   0.093 -0.1670 -0.4719 -0.7531
  557MOL0     C75125  10.981   7.966   0.110 -0.8955  0.4662  0.3789
  557MOL0     C75126  10.244   8.233  -0.035 -0.5066  0.9819 -0.5263
  557MOL0     C75127  10.129   8.295   0.007  0.9167  0.3288 -0.4478
  557MOL0     H75128   9.651   8.225  -0.072 -1.2373  2.0550 -1.8157
  557MOL0     H75129   9.415   8.281  -0.077  1.3453 -0.7209 -1.3584
  557MOL0     H75130   9.201   8.332   0.332  2.7398  0.1255 -1.4785
  557MOL0     H75131   9.059   8.351   0.233 -1.4225 -1.4043  1.1296
  557MOL0     H75132   9.082   8.135   0.131 -0.3142  1.5580  0.2576
  557MOL0     H75133   9.211   8.094   0.242  0.3945 -1.1835 -2.0524
  557MOL0     H75134   9.068   8.128   0.440 -1.3686  0.2105  0.2234
  557MOL0     H75135   8.940   8.199   0.354  1.0880  0.6820  2.7266
  557MOL0     H75136   8.918   7.965   0.223 -1.4186  1.2508  0.7897
  557MOL0     H75137   9.023   7.912   0.356 -0.6729 -0.6945 -1.0083
  557MOL0     H75138   8.824   7.868   0.443 -0.6642 -0.1949  0.3692
  557MOL0     H75139   8.836   8.031   0.502 -0.2708  0.3308 -0.1589
  557MOL0     H75140   8.686   8.119   0.318 -4.3520 -0.1740 -0.1260
  557MOL0     H75141   8.680   7.956   0.247  0.5285 -2.1952  1.6308
  557MOL0     H75142   8.593   7.876   0.478 -1.2825  0.5182  2.4914
  557MOL0     H75143   8.594   8.049   0.522 -0.0264 -0.1897  0.1036
  557MOL0     H75144   8.371   7.945   0.438  0.6969  0.5446 -1.2238
  557MOL0     H75145   8.432   7.947   0.273 -0.4013 -0.9148  0.3181
  557MOL0     H75146   8.383   8.205   0.561  1.5890 -2.0937  0.0240
  557MOL0     H75147   8.387   8.494   0.525  0.6833 -1.0598 -0.3325
  557MOL0     H75148   8.369   8.539   0.360  1.7855 -1.1456  0.2405
  557MOL0     H75149   8.166   8.614   0.424  3.5698  0.0989 -0.1947
  557MOL0     H75150   8.146   8.503   0.562  1.4338  2.8143 -0.0960
  557MOL0     H75151   8.097   8.315   0.385  0.9784 -0.3120 -0.4360
  557MOL0     H75152   8.137   8.454   0.269  0.8228 -1.2170 -0.1493
  557MOL0     H75153   7.916   8.527   0.280 -0.1469  0.0954 -0.0903
  557MOL0     H75154   7.909   8.490   0.462 -1.0700  0.0305  0.5873
  557MOL0     H75155   7.744   8.479   0.160 -0.3350  1.3494 -0.2155
  557MOL0     H75156   7.566   8.580   0.059 -0.5749  0.3388  0.4585
  557MOL0     H75157   7.409   8.509   0.067  2.0173  0.2420 -1.1698
  557MOL0     H75158   7.445   8.630   0.180 -0.4316  0.3775 -1.1449
  557MOL0     H75159   7.043   8.192   0.276  0.4068 -0.4697  0.3515
  557MOL0     H75160   6.811   8.250   0.232  0.4582  1.6223  2.6780
  557MOL0     H75161   6.720   8.638   0.076 -0.2334 -0.0305 -0.3187
  557MOL0     H75162   6.695   8.549  -0.071  1.2379  2.5633  0.8573
  557MOL0     H75163   6.475   8.549   0.132 -1.8412  4.3046  0.1419
  557MOL0     H75164   6.513   8.691   0.032  0.2889  0.7459 -1.5765
  557MOL0     H75165   6.430   8.398  -0.047  1.8725 -1.2147 -1.0738
  557MOL0     H75166   6.495   8.512  -0.156 -1.7162 -3.1913 -1.5195
  557MOL0     H75167   6.246   8.589  -0.005 -1.6370  0.9845 -0.4691
  557MOL0     H75168   6.336   8.679  -0.125 -1.9151  0.1790 -0.5973
  557MOL0     H75169   6.144   8.449  -0.178 -0.2940  0.7537  1.1414
  557MOL0     H75170   6.294   8.477  -0.278  2.2582  1.7371  0.8042
  557MOL0     H75171   6.140   8.722  -0.232 -2.7834 -1.3784  0.5153
  557MOL0     H75172   6.198   8.644  -0.389 -0.4747  2.7592 -0.5762
  557MOL0     H75173   5.953   8.562  -0.213  1.7917  0.8181  1.0783
  557MOL0     H75174   5.989   8.496  -0.378  2.4383 -0.1038 -1.0371
  557MOL0     H75175   5.962   8.736  -0.476 -1.5525 -0.2952  0.8470
  557MOL0     H75176   5.906   8.795  -0.320  1.0004  0.1659  1.7256
  557MOL0     H75177   6.943   8.579  -0.005  0.4153  1.6786  0.8341
  557MOL0     H75178   7.163   8.531   0.055 -2.0462  3.0774  0.9270
  557MOL0     H75179   7.467   8.230   0.489  2.3276 -0.1663  1.6742
  557MOL0     H75180   7.700   8.204   0.484  2.0722 -4.0499 -3.5155
  557MOL0     H75181   9.395   8.293   0.345 -0.8836 -2.2787 -1.9849
  557MOL0     H75182   9.636   8.278   0.363  1.0768  1.0016 -0.8773
  557MOL0     H75183   9.956   8.023   0.115  0.2472  0.1828  2.1056
  557MOL0     H75184  10.182   7.921   0.069  1.6764  0.3368  0.4375
  557MOL0     H75185  10.488   8.159  -0.156  0.9616 -1.4224 -0.3318
  557MOL0     H75186  10.539   8.186   0.021  4.3873  0.5357 -2.0947
  557MOL0     H75187  10.727   8.060  -0.068 -0.5537 -0.0660  0.4701
  557MOL0     H75188  10.612   7.949  -0.146  1.7931 -0.9292 -0.3336
  557MOL0     H75189  10.537   7.847   0.040 -2.3599  0.4399  1.8783
  557MOL0     H75190  10.618   7.970   0.154  1.0357  0.6224 -1.4181
  557MOL0     H75191  10.769   7.768  -0.021 -0.6709  0.6634  0.1085
  557MOL0     H75192  10.743   7.766   0.152  0.5805 -0.6067 -0.2783
  557MOL0     H75193  11.077   8.014   0.109 -1.3511  1.4400  1.0045
  557MOL0     H75194  10.328   8.294  -0.066  0.0588  0.9332  0.8830
  557MOL0     H75195  10.120   8.400  -0.018  2.5359  0.9709  1.3790
  558MOL0     O75196  10.447   1.939   9.453 -0.0340  0.1057  0.4657
  558MOL0     C75197  10.540   1.921   9.530 -0.2612 -0.3461 -0.3356
  558MOL0     O75198  10.531   1.890   9.657  1.1847 -0.0666  0.5546
  558MOL0     C75199  10.411   1.911   9.716 -0.2135 -0.1525 -0.1271
  558MOL0     C75200  10.384   2.016   9.801 -1.0707  0.3151 -0.4779
  558MOL0     C75201  10.255   2.031   9.859 -0.0420  0.3317 -0.1130
  558MOL0     C75202  10.152   1.942   9.811 -0.4169  0.6287 -0.6758
  558MOL0     O75203  10.028   1.949   9.855  0.1692 -0.4289 -0.0453
  558MOL0     C75204   9.974   2.075   9.908  0.3068  0.3937  0.4056
  558MOL0     C75205   9.818   2.052   9.919 -0.7076  0.7813  0.6199
  558MOL0     C75206   9.789   1.972  10.046 -0.0648  0.3246 -0.3986
  558MOL0     C75207   9.830   1.816  10.037 -1.1946 -0.7494 -0.0501
  558MOL0     C75208   9.774   1.723   9.921 -0.2490  0.0385  0.4592
  558MOL0     C75209   9.624   1.757   9.913  0.3184  0.2630  0.2768
  558MOL0     C75210   9.558   1.652   9.821  0.8699 -0.3225 -0.1325
  558MOL0     C75211   9.408   1.675   9.794 -0.4140  0.1032  0.1226
  558MOL0     N75212   9.374   1.818   9.752  0.8473 -0.1962  0.0092
  558MOL0     C75213   9.344   1.868   9.624  0.3449 -0.1576 -0.6163
  558MOL0     C75214   9.304   1.995   9.649  0.0469 -0.4303 -0.5002
  558MOL0     C75215   9.275   2.112   9.553  1.0398 -0.7493  0.1024
  558MOL0     C75216   9.140   2.094   9.485  0.4071  0.3785 -0.2377
  558MOL0     C75217   9.028   2.091   9.588  0.3237  0.3370 -0.1313
  558MOL0     C75218   8.887   2.099   9.513 -0.8883  0.7581 -0.9645
  558MOL0     O75219   8.866   1.991   9.427 -0.8725  0.9874 -0.2011
  558MOL0     C75220   8.761   2.016   9.339 -0.0314 -0.8453 -0.7896
  558MOL0     C75221   8.628   1.971   9.365 -0.0622  0.0775  0.3224
  558MOL0     C75222   8.527   2.006   9.289 -1.2577 -0.4720  0.2815
  558MOL0     C75223   8.392   1.993   9.348 -0.2388  0.4445 -0.2621
  558MOL0     C75224   8.548   2.077   9.169  0.2088 -0.1681  0.2079
  558MOL0     C75225   8.446   2.129   9.070  0.5636  0.5398 -0.3922
  558MOL0     O75226   8.490   2.195   8.968  0.1047 -0.6374  0.0960
  558MOL0     C75227   8.390   2.254   8.887 -0.0862  0.8235  0.4529
  558MOL0     C75228   8.351   2.184   8.767 -0.0200  0.4874 -0.9751
  558MOL0     C75229   8.251   2.235   8.687  0.4336 -0.0428 -0.0216
  558MOL0     C75230   8.203   2.362   8.709 -0.6421 -0.8057 -0.0255
  558MOL0     O75231   8.097   2.390   8.618  0.5254 -0.0284 -0.1503
  558MOL0     C75232   8.007   2.500   8.645  0.1393  0.3700  1.2370
  558MOL0     C75233   7.928   2.542   8.522 -0.0222  0.3845 -0.4543
  558MOL0     C75234   7.823   2.435   8.494 -0.4445 -0.2746 -0.1367
  558MOL0     C75235   7.731   2.468   8.382 -0.8105  0.5553 -0.4915
  558MOL0     C75236   7.642   2.353   8.358  0.2140  1.0729 -0.2476
  558MOL0     C75237   7.596   2.343   8.217 -0.1978  0.7953  0.0213
  558MOL0     C75238   7.482   2.245   8.214 -1.2747 -0.4381 -0.2729
  558MOL0     C75239   7.478   2.158   8.086 -0.3918  0.4405  1.2477
  558MOL0    Cl75240   7.432   2.264   7.956 -0.5085  0.2443  0.3371
  558MOL0     C75241   8.256   2.441   8.820 -0.2153 -0.3265  1.2078
  558MOL0     C75242   8.350   2.381   8.907  0.0085  0.4947 -0.2373
  558MOL0     O75243   8.328   2.103   9.094 -0.7829  0.3346  1.0704
  558MOL0     C75244   8.681   2.109   9.140  0.3096 -0.0139 -0.2725
  558MOL0     C75245   8.783   2.074   9.222  0.3121  0.0895  0.0252
  558MOL0     N75246   9.307   2.020   9.791  0.4825  1.0063  0.7276
  558MOL0     N75247   9.354   1.911   9.847 -0.6413 -0.4007 -0.5446
  558MOL0     C75248  10.188   1.838   9.720  0.5415  0.2400 -0.4897
  558MOL0     C75249  10.314   1.818   9.684 -0.1941 -0.5385  0.2834
  558MOL0     C75250  10.681   1.925   9.476  0.7273 -0.3182 -0.0886
  558MOL0     C75251  10.719   1.925   9.342  0.6543 -0.0613  0.4303
  558MOL0     C75252  10.850   1.934   9.297  0.9028 -0.2084  0.6485
  558MOL0     C75253  10.952   1.959   9.394  0.4035 -0.3129  0.7455
  558MOL0     O75254  11.088   1.962   9.371 -0.6711 -0.3155 -0.0004
  558MOL0     C75255  11.147   1.938   9.245  0.7996 -0.7822  0.5637
  558MOL0     C75256  11.293   1.923   9.254  0.8896 -0.8171 -0.0266
  558MOL0     C75257  11.364   2.056   9.299 -0.1905  0.6425  0.0578
  558MOL0     C75258  11.518   2.044   9.281  0.4052  0.4643  0.1667
  558MOL0     C75259  11.590   2.166   9.307 -0.6863  0.2246  0.5845
  558MOL0     C75260  11.655   2.262   9.340  0.2957  0.7004 -1.0925
  558MOL0     C75261  10.915   1.962   9.529 -0.6450 -0.2588  0.3908
  558MOL0     C75262  10.782   1.947   9.567 -0.3476  0.7277  0.2231
  558MOL0     H75263  10.464   2.087   9.821 -2.4162  1.1741  2.2999
  558MOL0     H75264  10.229   2.109   9.929  1.2573 -0.2658  1.0845
  558MOL0     H75265  10.011   2.112  10.004  1.8709 -0.0951  0.0084
  558MOL0     H75266   9.995   2.155   9.837 -1.2479  0.1286 -0.4055
  558MOL0     H75267   9.784   2.155   9.933  1.5985  1.8772 -1.0756
  558MOL0     H75268   9.770   2.013   9.829 -1.0139  1.3208  0.5481
  558MOL0     H75269   9.838   2.023  10.130  0.2538 -0.6169 -0.0029
  558MOL0     H75270   9.684   1.980  10.076  0.6771  1.5664  2.1294
  558MOL0     H75271   9.939   1.809  10.032 -0.8997  2.8247 -1.9974
  558MOL0     H75272   9.798   1.779  10.135 -0.9265 -3.1624 -0.8068
  558MOL0     H75273   9.825   1.750   9.828  0.2729 -0.2453  0.6573
  558MOL0     H75274   9.789   1.615   9.932  0.6383  0.1969  0.9256
  558MOL0     H75275   9.570   1.764  10.008 -1.0052 -0.9807 -0.3441
  558MOL0     H75276   9.624   1.852   9.858 -1.7760  1.3892  2.0617
  558MOL0     H75277   9.610   1.647   9.725 -0.4430  0.2679 -0.9005
  558MOL0     H75278   9.567   1.553   9.867 -1.3176 -0.3700  0.2936
  558MOL0     H75279   9.347   1.638   9.877  4.1647 -2.8278  2.5785
  558MOL0     H75280   9.385   1.626   9.699 -0.8471  0.7249 -0.1019
  558MOL0     H75281   9.350   1.818   9.528  1.3943 -2.8151  0.7350
  558MOL0     H75282   9.286   2.212   9.597  0.1846 -0.7927  0.4371
  558MOL0     H75283   9.346   2.110   9.470 -0.4350 -1.0120 -1.2016
  558MOL0     H75284   9.145   1.997   9.433  1.5443  0.7211 -0.8004
  558MOL0     H75285   9.109   2.175   9.419 -1.0116 -0.1570 -0.2546
  558MOL0     H75286   9.042   2.173   9.659 -1.0774  0.7949 -0.3499
  558MOL0     H75287   9.031   1.997   9.644 -4.0592 -0.7024 -1.2720
  558MOL0     H75288   8.867   2.193   9.462  0.5406  1.1199 -0.8912
  558MOL0     H75289   8.809   2.093   9.589 -1.6600  1.3895 -1.6976
  558MOL0     H75290   8.599   1.902   9.444 -3.9258 -3.8012 -3.8540
  558MOL0     H75291   8.313   1.953   9.283  0.9879 -0.7564 -1.0542
  558MOL0     H75292   8.389   1.928   9.436  2.1307 -0.6993 -0.9364
  558MOL0     H75293   8.361   2.091   9.386  1.9936  1.2703 -0.4100
  558MOL0     H75294   8.396   2.086   8.752 -0.8722 -0.3234  1.2715
  558MOL0     H75295   8.212   2.173   8.607  0.5930 -0.3693  0.1546
  558MOL0     H75296   7.949   2.472   8.733 -0.2807  1.1037  1.2048
  558MOL0     H75297   8.068   2.584   8.681 -0.8591  1.9543 -0.5600
  558MOL0     H75298   7.891   2.639   8.559  1.7046  0.7892  0.3244
  558MOL0     H75299   7.988   2.558   8.433 -0.2099 -0.1212 -0.6736
  558MOL0     H75300   7.766   2.417   8.585 -0.7416  1.1544 -0.0066
  558MOL0     H75301   7.865   2.338   8.467  0.2718 -0.5102  1.7257
  558MOL0     H75302   7.679   2.562   8.401  0.6482  0.8703  2.4577
  558MOL0     H75303   7.795   2.492   8.297 -1.5066  1.2848 -0.8255
  558MOL0     H75304   7.551   2.366   8.418  0.6353 -1.2930  1.0404
  558MOL0     H75305   7.696   2.260   8.380 -0.0972  1.2400  1.3760
  558MOL0     H75306   7.554   2.438   8.183 -1.0987  0.1883 -0.6150
  558MOL0     H75307   7.672   2.314   8.144  0.2063  0.7394  0.4558
  558MOL0     H75308   7.388   2.302   8.218 -0.2248  1.3070  2.2525
  558MOL0     H75309   7.489   2.176   8.299  1.2331  1.7005  1.3925
  558MOL0     H75310   7.402   2.080   8.087  3.0180 -3.2373  0.5377
  558MOL0     H75311   7.577   2.115   8.064 -0.9310 -0.0108 -0.4188
  558MOL0     H75312   8.227   2.542   8.845  0.1319  0.7311 -2.2513
  558MOL0     H75313   8.399   2.425   8.993 -1.7119  1.3330  0.3567
  558MOL0     H75314   8.711   2.166   9.053 -1.4689  2.3326  0.5219
  558MOL0     H75315   8.878   2.118   9.191  0.0768  2.8020  2.6186
  558MOL0     H75316  10.108   1.781   9.674 -0.7639  1.4964  0.1058
  558MOL0     H75317  10.333   1.736   9.616 -0.9409  0.6279 -1.3992
  558MOL0     H75318  10.635   1.910   9.275  1.3904  3.0003 -1.3552
  558MOL0     H75319  10.875   1.918   9.193 -1.2330  0.4549 -0.0012
  558MOL0     H75320  11.107   1.852   9.191  0.2258  1.8844 -3.7151
  558MOL0     H75321  11.126   2.020   9.176  0.2728 -1.2602  0.1427
  558MOL0     H75322  11.329   1.893   9.156 -1.7388  2.0773 -2.0735
  558MOL0     H75323  11.305   1.848   9.333  0.4257 -0.7959  0.0698
  558MOL0     H75324  11.357   2.075   9.406  3.7203  0.1857  0.5350
  558MOL0     H75325  11.332   2.143   9.241  1.5199  0.8414 -0.6344
  558MOL0     H75326  11.534   2.024   9.175 -0.0487  0.8615  0.0163
  558MOL0     H75327  11.560   1.957   9.333  2.3776  0.2641 -1.6431
  558MOL0     H75328  11.701   2.349   9.382 -2.7755  1.4557  1.0505
  558MOL0     H75329  11.000   1.977   9.595  1.0315 -2.2941 -1.1712
  558MOL0     H75330  10.746   1.963   9.669 -0.3381  1.4997  0.1155
  559MOL0     O75331   2.372   6.562   2.459  0.1744  0.6558 -0.2523
  559MOL0     C75332   2.458   6.561   2.368 -0.4628  0.2118  0.5705
  559MOL0     O75333   2.491   6.669   2.292 -0.4223 -0.4025  0.3405
  559MOL0     C75334   2.442   6.796   2.317 -0.0746  0.2739 -0.0891
  559MOL0     C75335   2.524   6.904   2.369 -0.7244 -0.0212  0.0876
  559MOL0     C75336   2.466   7.029   2.395 -0.2013  0.4148 -0.0264
  559MOL0     C75337   2.330   7.049   2.367  0.7520 -0.5281  0.7947
  559MOL0     O75338   2.279   7.172   2.401 -0.2582  0.2921  0.0734
  559MOL0     C75339   2.145   7.175   2.449  0.0831  0.1221 -1.5463
  559MOL0     C75340   2.131   7.299   2.544 -0.4045 -0.2746  0.4970
  559MOL0     C75341   2.013   7.288   2.646 -0.4731  0.0541 -0.2171
  559MOL0     C75342   1.881   7.331   2.576  0.4861 -0.7335  0.7190
  559MOL0     C75343   1.766   7.327   2.672 -0.6421 -0.0235  0.4172
  559MOL0     C75344   1.639   7.376   2.605 -0.4253 -0.1508  0.5739
  559MOL0     C75345   1.580   7.278   2.517  0.5372 -0.7079 -0.2444
  559MOL0     C75346   1.455   7.336   2.459  0.7231 -0.6239 -0.0623
  559MOL0     N75347   1.394   7.244   2.364  0.3621  0.6525  0.1434
  559MOL0     C75348   1.320   7.129   2.379  0.5046 -0.5067 -0.3255
  559MOL0     C75349   1.232   7.110   2.277 -0.2112 -0.5618 -0.9239
  559MOL0     C75350   1.134   7.001   2.261  0.1930  0.1164  0.7023
  559MOL0     C75351   1.043   6.992   2.385 -0.0482  0.1667  0.6191
  559MOL0     C75352   0.960   7.126   2.396 -0.3177  0.6315  0.0800
  559MOL0     C75353   0.836   7.104   2.488  0.0579 -1.8836  0.5910
  559MOL0     O75354   0.773   7.230   2.520  0.0584  0.4415 -0.4539
  559MOL0     C75355   0.674   7.225   2.620 -0.1316 -0.5392 -0.2918
  559MOL0     C75356   0.620   7.107   2.679 -0.9652  0.0353 -0.1362
  559MOL0     C75357   0.510   7.099   2.763 -0.3434  0.5589 -0.1992
  559MOL0     C75358   0.460   6.959   2.796  0.0276  0.0395  0.2738
  559MOL0     C75359   0.439   7.214   2.787 -0.6035  0.9237  0.0656
  559MOL0     C75360   0.310   7.223   2.860 -0.4486 -0.1657  0.5686
  559MOL0     O75361   0.265   7.358   2.869  0.8050  0.7531 -0.0048
  559MOL0     C75362   0.140   7.376   2.922 -0.2920  0.0424 -0.0164
  559MOL0     C75363   0.022   7.328   2.868 -1.1947 -0.8036  0.9420
  559MOL0     C75364  -0.101   7.353   2.931  0.0725 -0.3586  0.2100
  559MOL0     C75365  -0.109   7.442   3.042 -0.4250  0.1235  0.4307
  559MOL0     O75366  -0.233   7.479   3.085 -0.3734 -0.0290 -0.1690
  559MOL0     C75367  -0.240   7.566   3.195  0.0561 -0.2818  0.6806
  559MOL0     C75368  -0.387   7.616   3.219 -1.0428  0.0807  0.0516
  559MOL0     C75369  -0.479   7.500   3.247 -1.1368  0.6865  0.0636
  559MOL0     C75370  -0.561   7.470   3.123  0.3830 -0.6658 -0.2248
  559MOL0     C75371  -0.666   7.361   3.162 -1.1068  0.0918  1.4269
  559MOL0     C75372  -0.597   7.215   3.157  0.1886 -0.3065  0.4705
  559MOL0     C75373  -0.688   7.101   3.199 -0.3590  0.8965 -0.1809
  559MOL0     C75374  -0.624   6.968   3.174 -0.7090  0.1709 -0.7536
  559MOL0    Cl75375  -0.479   6.941   3.274  0.1710  0.3923 -0.4044
  559MOL0     C75376   0.010   7.484   3.094 -0.3852 -0.4813 -0.0983
  559MOL0     C75377   0.131   7.451   3.042  0.4976  1.1779 -0.5737
  559MOL0     O75378   0.250   7.124   2.895  0.1526 -0.2044  0.0105
  559MOL0     C75379   0.502   7.334   2.743  0.2183 -1.2454  0.0307
  559MOL0     C75380   0.615   7.342   2.663 -0.4608  0.0175  0.4470
  559MOL0     N75381   1.252   7.219   2.199  0.0324 -0.5492  0.1171
  559MOL0     N75382   1.346   7.294   2.252  1.6553  0.3076 -0.3965
  559MOL0     C75383   2.253   6.945   2.310  0.5184  0.3855  0.5545
  559MOL0     C75384   2.307   6.816   2.294 -0.2864  0.2318 -0.5662
  559MOL0     C75385   2.527   6.427   2.356  0.0903 -0.4235  0.7699
  559MOL0     C75386   2.633   6.404   2.269 -0.8458 -0.0997 -0.4118
  559MOL0     C75387   2.700   6.280   2.276 -0.4976 -0.0227  1.0838
  559MOL0     C75388   2.658   6.173   2.349 -0.0078  0.6726 -0.6396
  559MOL0     O75389   2.725   6.058   2.345 -0.2836  0.1979 -0.0916
  559MOL0     C75390   2.705   5.927   2.411  0.4327 -0.3880 -0.0212
  559MOL0     C75391   2.834   5.846   2.420 -0.3421 -0.5948 -0.5856
  559MOL0     C75392   2.948   5.935   2.472 -0.1099  0.4068 -0.8722
  559MOL0     C75393   3.083   5.849   2.501  1.0940 -0.6551 -0.4681
  559MOL0     C75394   3.162   5.834   2.379  0.3629 -0.1612 -0.0015
  559MOL0     C75395   3.225   5.815   2.279  0.0960  0.0097  0.4320
  559MOL0     C75396   2.550   6.196   2.435 -1.0227  0.2453  0.0000
  559MOL0     C75397   2.485   6.321   2.438  0.0669  0.1916 -0.8232
  559MOL0     H75398   2.631   6.891   2.376 -0.6806  0.7370  0.8621
  559MOL0     H75399   2.528   7.109   2.434  4.5653 -2.0175 -1.7233
  559MOL0     H75400   2.062   7.176   2.377  1.0056 -1.8819 -2.7293
  559MOL0     H75401   2.119   7.091   2.514 -1.2967  0.2709 -1.8745
  559MOL0     H75402   2.226   7.315   2.597 -0.0295  2.8930 -0.9195
  559MOL0     H75403   2.114   7.394   2.493  0.1592  2.2386  4.5325
  559MOL0     H75404   1.997   7.186   2.682 -1.6169 -0.3087 -1.6477
  559MOL0     H75405   2.031   7.365   2.722  0.2719  0.0885 -0.4139
  559MOL0     H75406   1.892   7.434   2.543  0.9513 -0.8427  0.5225
  559MOL0     H75407   1.874   7.263   2.491 -0.0507  1.1994 -0.8574
  559MOL0     H75408   1.748   7.226   2.710  0.6947 -0.3057  0.3509
  559MOL0     H75409   1.787   7.389   2.760 -1.1487  2.9850 -1.4495
  559MOL0     H75410   1.559   7.388   2.679  0.0179  0.2555  0.9979
  559MOL0     H75411   1.661   7.469   2.553 -2.4950 -1.0768 -2.2005
  559MOL0     H75412   1.641   7.259   2.428 -2.2118  0.6277 -2.5718
  559MOL0     H75413   1.561   7.185   2.573  0.7989 -1.3860 -1.2471
  559MOL0     H75414   1.476   7.429   2.406 -1.4141 -1.2861 -2.2419
  559MOL0     H75415   1.379   7.347   2.538  0.7114 -0.4803 -0.0945
  559MOL0     H75416   1.332   7.070   2.469  2.9843 -0.4753 -0.5687
  559MOL0     H75417   1.081   7.009   2.166  0.4650  0.4794  0.5813
  559MOL0     H75418   1.186   6.904   2.254  1.1286  0.3073  3.6232
  559MOL0     H75419   1.105   6.975   2.474 -0.0592 -2.8961  0.1276
  559MOL0     H75420   0.990   6.899   2.366 -0.3631  0.1097  1.6832
  559MOL0     H75421   0.919   7.157   2.300  0.6526  1.0760 -0.2039
  559MOL0     H75422   1.030   7.204   2.428  2.0016 -1.1548 -0.4455
  559MOL0     H75423   0.863   7.057   2.582 -2.7472 -0.1582  2.3963
  559MOL0     H75424   0.757   7.049   2.436 -1.1889  0.9400 -0.7319
  559MOL0     H75425   0.667   7.013   2.652  0.3581  0.4727  0.5738
  559MOL0     H75426   0.352   6.948   2.780  0.0454  0.9414 -0.5550
  559MOL0     H75427   0.491   6.871   2.739 -0.6757  0.3675 -0.6291
  559MOL0     H75428   0.503   6.938   2.894  1.8069 -0.6224 -0.6107
  559MOL0     H75429   0.027   7.263   2.782  0.9862  0.6384 -0.0878
  559MOL0     H75430  -0.191   7.315   2.884 -0.0610 -1.0511  1.0169
  559MOL0     H75431  -0.207   7.519   3.287 -2.1926 -1.2438  1.0752
  559MOL0     H75432  -0.177   7.652   3.169  0.9357 -1.7236 -2.4856
  559MOL0     H75433  -0.384   7.666   3.317 -2.0068 -1.8739  1.1469
  559MOL0     H75434  -0.417   7.672   3.131 -0.5663 -3.4817 -2.6244
  559MOL0     H75435  -0.543   7.520   3.333  0.1980  1.0896  0.9873
  559MOL0     H75436  -0.427   7.407   3.270 -1.3910  0.5331  0.0198
  559MOL0     H75437  -0.611   7.562   3.092  2.8183  0.8315  0.0077
  559MOL0     H75438  -0.500   7.437   3.038 -0.3558 -1.1899 -0.5625
  559MOL0     H75439  -0.754   7.368   3.096 -0.6105  3.1609  0.9734
  559MOL0     H75440  -0.700   7.378   3.265  0.2391 -0.6188  2.0110
  559MOL0     H75441  -0.555   7.197   3.058  0.7197  1.9728  0.2240
  559MOL0     H75442  -0.506   7.220   3.219 -0.0502  1.9778  0.7271
  559MOL0     H75443  -0.780   7.110   3.139  1.5042  0.2915 -3.3784
  559MOL0     H75444  -0.705   7.109   3.307  0.3651  0.0437  0.0044
  559MOL0     H75445  -0.607   6.946   3.068 -1.3900 -1.0002 -0.6434
  559MOL0     H75446  -0.699   6.898   3.213 -0.4330 -1.4162 -2.9251
  559MOL0     H75447   0.017   7.554   3.177  0.3754 -0.5215 -0.1228
  559MOL0     H75448   0.222   7.484   3.091  0.8581 -0.2382 -0.2491
  559MOL0     H75449   0.451   7.427   2.767  2.4762  0.2196 -0.5504
  559MOL0     H75450   0.644   7.442   2.630 -1.1810 -0.2038 -0.8853
  559MOL0     H75451   2.145   6.948   2.306  0.5264  0.8561  0.6073
  559MOL0     H75452   2.253   6.724   2.275 -0.4192  0.3002 -0.5150
  559MOL0     H75453   2.665   6.483   2.202  0.2908 -0.0287  0.1921
  559MOL0     H75454   2.785   6.260   2.212 -0.6221 -0.6272  1.1040
  559MOL0     H75455   2.664   5.940   2.512  3.6124  5.7912  1.0099
  559MOL0     H75456   2.626   5.880   2.353 -1.1303 -0.9320  2.3966
  559MOL0     H75457   2.871   5.814   2.322 -0.0103  2.6617 -1.6420
  559MOL0     H75458   2.820   5.759   2.485 -2.4032  0.2594  0.2055
  559MOL0     H75459   2.918   5.969   2.572  0.2937 -0.5185 -0.4303
  559MOL0     H75460   2.971   6.017   2.403 -2.4149  0.0089 -2.2002
  559MOL0     H75461   3.065   5.748   2.540 -0.2324  0.1736  1.2338
  559MOL0     H75462   3.143   5.903   2.575  2.3143  0.6442 -2.3191
  559MOL0     H75463   3.276   5.806   2.185  1.3738 -0.9996  1.1716
  559MOL0     H75464   2.500   6.125   2.501 -0.3338  1.5141  1.9937
  559MOL0     H75465   2.405   6.320   2.511 -0.3335  1.2157 -1.2343
  560MOL0     O75466   1.343   7.378   9.854 -0.1296  0.1156  0.3383
  560MOL0     C75467   1.353   7.296   9.758  0.5306  0.1475 -0.0021
  560MOL0     O75468   1.252   7.248   9.681  0.6207 -0.7697  0.6643
  560MOL0     C75469   1.123   7.248   9.724 -0.0916  0.5094 -0.3875
  560MOL0     C75470   1.028   7.342   9.678 -0.2396 -0.3710 -0.5378
  560MOL0     C75471   0.901   7.331   9.737  0.4524 -0.3914  0.2978
  560MOL0     C75472   0.866   7.234   9.828 -0.9831 -0.0211  0.1334
  560MOL0     O75473   0.738   7.224   9.876  0.4915  0.0052  0.3134
  560MOL0     C75474   0.666   7.350   9.898  0.8256 -0.2052 -1.6794
  560MOL0     C75475   0.530   7.320   9.948  0.5974 -0.2600 -0.2332
  560MOL0     C75476   0.407   7.277   9.859 -0.6400  0.4967 -0.4445
  560MOL0     C75477   0.275   7.212   9.930  0.6974 -0.2614  0.2422
  560MOL0     C75478   0.200   7.140   9.820 -0.8470  0.6023 -0.2198
  560MOL0     C75479   0.273   7.004   9.788  0.0128  0.3391 -0.1753
  560MOL0     C75480   0.186   6.913   9.695  0.2111 -0.0456  0.3776
  560MOL0     C75481   0.228   6.767   9.679  0.0557 -0.6405 -0.3131
  560MOL0     N75482   0.125   6.686   9.624  0.2810 -0.1343 -0.8862
  560MOL0     C75483  -0.011   6.686   9.656 -0.6748 -0.6926 -0.0303
  560MOL0     C75484  -0.068   6.610   9.562 -0.0483  0.0070 -0.0559
  560MOL0     C75485  -0.211   6.573   9.566  0.3543  0.0954 -0.6450
  560MOL0     C75486  -0.261   6.449   9.499  0.2684  0.0536 -0.5072
  560MOL0     C75487  -0.302   6.479   9.355 -1.0451  0.9156 -1.0835
  560MOL0     C75488  -0.290   6.340   9.278  0.4313  0.2380 -0.3741
  560MOL0     O75489  -0.343   6.228   9.337  0.2341  0.2153 -0.8711
  560MOL0     C75490  -0.480   6.215   9.354  0.4499  0.2928  0.7380
  560MOL0     C75491  -0.576   6.292   9.289 -0.1365 -0.0195  0.4364
  560MOL0     C75492  -0.710   6.257   9.297  0.0782  0.4507  0.0817
  560MOL0     C75493  -0.804   6.348   9.221  0.1460  0.3370 -0.6740
  560MOL0     C75494  -0.753   6.163   9.393  0.2530 -0.5971 -0.3953
  560MOL0     C75495  -0.891   6.121   9.418  0.2748  0.2955 -0.2762
  560MOL0     O75496  -0.994   6.214   9.410  0.0943  0.2955  0.1164
  560MOL0     C75497  -1.125   6.182   9.433  0.2059 -0.0168  0.2053
  560MOL0     C75498  -1.218   6.199   9.331  0.5615 -0.3849 -0.0371
  560MOL0     C75499  -1.353   6.163   9.346  0.6799  0.5597 -0.4325
  560MOL0     C75500  -1.407   6.141   9.473 -0.7172  0.4105 -0.7630
  560MOL0     O75501  -1.542   6.126   9.503  0.4350 -0.3292 -0.3103
  560MOL0     C75502  -1.645   6.180   9.419  0.5654  0.4865 -0.4220
  560MOL0     C75503  -1.782   6.133   9.473 -1.0568  0.8069 -0.0143
  560MOL0     C75504  -1.897   6.215   9.424  0.1810  0.1306  0.7709
  560MOL0     C75505  -2.027   6.143   9.449  0.2715  1.0048 -0.4647
  560MOL0     C75506  -2.148   6.229   9.417 -0.3270 -0.0205 -0.1020
  560MOL0     C75507  -2.165   6.257   9.268 -0.5442  0.1160 -0.6842
  560MOL0     C75508  -2.285   6.349   9.223  0.1112  0.8905  0.2791
  560MOL0     C75509  -2.264   6.398   9.078 -0.2883 -0.1615  0.1910
  560MOL0    Cl75510  -2.404   6.480   9.003  0.2649 -0.0153  0.2797
  560MOL0     C75511  -1.317   6.129   9.581 -0.6255  0.0255  0.4341
  560MOL0     C75512  -1.179   6.141   9.560  0.7521 -0.6411 -0.1918
  560MOL0     O75513  -0.905   6.001   9.439  0.5735  0.7346  0.3220
  560MOL0     C75514  -0.654   6.088   9.466 -0.5232  0.5708  0.0528
  560MOL0     C75515  -0.518   6.115   9.447  0.0284 -0.2798  0.2166
  560MOL0     N75516   0.029   6.569   9.476 -0.1393 -0.3688 -0.7901
  560MOL0     N75517   0.145   6.618   9.513 -0.1245 -0.0018  0.0469
  560MOL0     C75518   0.961   7.142   9.874 -0.6368  0.4144 -0.0366
  560MOL0     C75519   1.093   7.149   9.823  1.0242 -0.0411  0.2111
  560MOL0     C75520   1.492   7.257   9.722  0.5737  0.5893 -0.1800
  560MOL0     C75521   1.516   7.160   9.624 -0.0524  0.1654 -0.0254
  560MOL0     C75522   1.649   7.131   9.585  0.4354  0.5268  0.2207
  560MOL0     C75523   1.757   7.182   9.654  0.0841 -0.1329 -0.4842
  560MOL0     O75524   1.883   7.142   9.617 -0.3482  0.5528 -0.6173
  560MOL0     C75525   1.948   7.049   9.703  0.7074 -0.3128  1.4249
  560MOL0     C75526   2.089   7.042   9.664  0.3851  0.0743 -0.3930
  560MOL0     C75527   2.165   6.944   9.754  0.8362 -0.0219  0.7369
  560MOL0     C75528   2.312   6.969   9.750 -0.0281 -0.2143 -0.1005
  560MOL0     C75529   2.381   6.916   9.626  0.2041 -0.0708 -0.5907
  560MOL0     C75530   2.441   6.887   9.524  0.4631  0.2071  0.0581
  560MOL0     C75531   1.731   7.281   9.745 -0.5504 -0.1123 -1.1371
  560MOL0     C75532   1.600   7.322   9.776 -0.5564  0.3031 -0.4896
  560MOL0     H75533   1.033   7.397   9.584 -0.7642  4.3484  1.8825
  560MOL0     H75534   0.821   7.391   9.693 -0.8014 -1.3184  1.2269
  560MOL0     H75535   0.725   7.409   9.969  0.0946 -0.7250 -0.6084
  560MOL0     H75536   0.646   7.405   9.806 -4.0398  1.1059 -0.1286
  560MOL0     H75537   0.530   7.241  10.023 -2.3532 -0.0734  0.1013
  560MOL0     H75538   0.495   7.404  10.009 -1.5032 -2.1909  1.4044
  560MOL0     H75539   0.388   7.368   9.802  0.4272  0.2103 -1.2858
  560MOL0     H75540   0.442   7.215   9.776 -2.1448  1.8680 -2.1844
  560MOL0     H75541   0.295   7.138  10.008  0.6540 -2.7979 -2.0043
  560MOL0     H75542   0.212   7.288   9.976  0.9392  1.3576 -1.9404
  560MOL0     H75543   0.097   7.116   9.847 -0.8552  1.1059  0.2207
  560MOL0     H75544   0.195   7.205   9.731  2.8727 -1.2979 -2.0097
  560MOL0     H75545   0.373   7.021   9.748  0.4707 -0.5636  0.5467
  560MOL0     H75546   0.291   6.946   9.879 -0.5897 -1.2913 -1.0359
  560MOL0     H75547   0.085   6.916   9.736 -1.1397  1.1848 -2.7352
  560MOL0     H75548   0.182   6.956   9.594 -2.5193 -0.0520  0.4194
  560MOL0     H75549   0.259   6.723   9.774 -2.3220  0.3757  1.0024
  560MOL0     H75550   0.318   6.764   9.617  1.9969 -0.7024  2.3268
  560MOL0     H75551  -0.050   6.715   9.753 -1.9678 -1.9081 -0.1518
  560MOL0     H75552  -0.239   6.569   9.672  0.7276  4.3635 -0.1972
  560MOL0     H75553  -0.272   6.657   9.530  3.1899  1.4591 -2.6330
  560MOL0     H75554  -0.346   6.390   9.535 -0.8580 -0.0509 -3.1050
  560MOL0     H75555  -0.175   6.381   9.505 -0.5723 -0.9278  1.2771
  560MOL0     H75556  -0.224   6.546   9.318  2.4738 -1.6384  1.1139
  560MOL0     H75557  -0.396   6.533   9.342 -1.5649  0.0291 -1.0848
  560MOL0     H75558  -0.185   6.312   9.262  0.1116 -0.7489 -0.7994
  560MOL0     H75559  -0.324   6.353   9.175  2.6535  0.2168 -1.1646
  560MOL0     H75560  -0.531   6.369   9.228  3.0293 -0.2736  2.2397
  560MOL0     H75561  -0.752   6.367   9.127  1.2191 -0.3744 -0.2427
  560MOL0     H75562  -0.899   6.294   9.211 -0.0422  0.6708 -0.7005
  560MOL0     H75563  -0.810   6.441   9.278  3.4857  0.7122 -0.7333
  560MOL0     H75564  -1.180   6.238   9.237  1.0174 -3.2998 -1.1560
  560MOL0     H75565  -1.419   6.168   9.260 -1.3805  0.0244  1.0390
  560MOL0     H75566  -1.640   6.289   9.420  4.1835  0.4438  0.4247
  560MOL0     H75567  -1.639   6.147   9.315 -0.5253  3.1732 -1.4299
  560MOL0     H75568  -1.787   6.031   9.435  0.5145  0.9446 -0.6730
  560MOL0     H75569  -1.780   6.134   9.582  0.5382  1.2349 -0.0304
  560MOL0     H75570  -1.880   6.231   9.318 -1.1474  0.9260  0.6496
  560MOL0     H75571  -1.916   6.315   9.464 -1.7243 -0.3505  1.1947
  560MOL0     H75572  -2.027   6.048   9.395  1.2995  0.4303  0.4891
  560MOL0     H75573  -2.041   6.111   9.553 -3.1381  3.3561 -0.0120
  560MOL0     H75574  -2.148   6.313   9.487  0.5627 -1.7837  2.1322
  560MOL0     H75575  -2.235   6.174   9.454  0.0571  0.5415  1.7067
  560MOL0     H75576  -2.073   6.296   9.224 -0.1845  1.3395  1.0253
  560MOL0     H75577  -2.172   6.162   9.215 -0.9209  0.5923 -1.5107
  560MOL0     H75578  -2.284   6.436   9.289  1.7561  0.3298  1.0625
  560MOL0     H75579  -2.378   6.295   9.242  0.1123  0.7740 -0.0440
  560MOL0     H75580  -2.238   6.310   9.017 -0.6144 -0.6719  0.7750
  560MOL0     H75581  -2.170   6.453   9.075  0.5978 -1.6196 -2.0720
  560MOL0     H75582  -1.357   6.120   9.682 -1.7422  1.4920  0.1411
  560MOL0     H75583  -1.114   6.134   9.647 -1.5248 -3.1594  1.4662
  560MOL0     H75584  -0.678   6.010   9.538 -0.9487  1.6416  1.1158
  560MOL0     H75585  -0.454   6.056   9.512 -2.4196 -0.9374  2.1788
  560MOL0     H75586   0.931   7.065   9.945  0.1779  0.5589  0.4792
  560MOL0     H75587   1.173   7.083   9.857 -0.5166 -2.2662 -0.2984
  560MOL0     H75588   1.429   7.110   9.583 -0.4626 -0.8924  2.0146
  560MOL0     H75589   1.670   7.077   9.493 -0.7486  0.0655  0.2076
  560MOL0     H75590   1.932   7.090   9.804  0.7179 -2.0986  2.1917
  560MOL0     H75591   1.896   6.953   9.696 -0.7184  0.5966 -1.5924
  560MOL0     H75592   2.137   7.139   9.673 -3.5211  2.3270 -1.4465
  560MOL0     H75593   2.113   7.006   9.563  0.5973  0.6324 -0.5455
  560MOL0     H75594   2.152   6.840   9.722  0.5543  0.7632 -1.9847
  560MOL0     H75595   2.123   6.951   9.854 -1.1396 -0.4290 -0.0162
  560MOL0     H75596   2.365   6.918   9.831  1.5884 -2.2641 -2.2726
  560MOL0     H75597   2.331   7.075   9.768 -0.3822  0.1487 -1.6435
  560MOL0     H75598   2.484   6.873   9.427 -0.0867  0.3046 -0.2050
  560MOL0     H75599   1.806   7.335   9.802  1.5821 -4.6765  0.9888
  560MOL0     H75600   1.593   7.404   9.846  3.1568  0.6471 -0.2966
  561MOL0     O75601   1.140   2.724   6.527  0.4539 -0.0783  0.8756
  561MOL0     C75602   1.185   2.752   6.636 -0.4214 -0.0076 -0.4833
  561MOL0     O75603   1.111   2.761   6.753 -0.0002  0.0824  0.5822
  561MOL0     C75604   0.979   2.734   6.761  0.4813  0.5752 -0.1434
  561MOL0     C75605   0.931   2.749   6.892  0.2554  0.1291 -0.5474
  561MOL0     C75606   0.794   2.748   6.922 -0.1388 -0.2835 -0.4288
  561MOL0     C75607   0.708   2.713   6.831 -0.5170  1.2305  0.0132
  561MOL0     O75608   0.580   2.717   6.863  0.9791  0.4196 -0.2271
  561MOL0     C75609   0.538   2.590   6.928  0.1756 -0.1489  0.2404
  561MOL0     C75610   0.388   2.593   6.962 -0.3163 -0.3836 -0.4277
  561MOL0     C75611   0.291   2.581   6.837  0.2769  0.1604  0.0273
  561MOL0     C75612   0.146   2.560   6.892 -0.0968  0.1454 -0.6610
  561MOL0     C75613   0.042   2.532   6.781 -0.3533  1.2235  0.5558
  561MOL0     C75614  -0.101   2.507   6.838  0.6315  0.8641 -0.4224
  561MOL0     C75615  -0.187   2.623   6.890 -0.2907  0.2003 -0.0257
  561MOL0     C75616  -0.276   2.580   7.010  0.3704 -0.6768  0.4157
  561MOL0     N75617  -0.366   2.472   6.975 -0.1391  0.1001 -0.1003
  561MOL0     C75618  -0.461   2.485   6.872 -0.4425 -0.6435  0.3640
  561MOL0     C75619  -0.529   2.372   6.876  0.5777 -0.0085  0.3600
  561MOL0     C75620  -0.646   2.324   6.797 -1.0214  0.4655  0.2489
  561MOL0     C75621  -0.771   2.355   6.872  0.4327 -0.6975 -0.2328
  561MOL0     C75622  -0.820   2.247   6.964  0.9884 -0.6261  1.5323
  561MOL0     C75623  -0.969   2.276   7.011  0.0736  0.1671  0.1991
  561MOL0     O75624  -1.010   2.151   7.065 -0.4094  0.0912  0.0680
  561MOL0     C75625  -1.135   2.105   7.053  1.0222  0.2377 -0.0950
  561MOL0     C75626  -1.152   1.979   7.112 -1.3989 -0.2225 -0.6027
  561MOL0     C75627  -1.278   1.916   7.106 -0.3414 -0.3086 -0.0545
  561MOL0     C75628  -1.294   1.791   7.180 -0.1147  0.1357  0.0887
  561MOL0     C75629  -1.392   1.985   7.060  0.2726  0.2478  1.0676
  561MOL0     C75630  -1.525   1.923   7.049  0.4180  0.2578 -1.3447
  561MOL0     O75631  -1.614   1.981   6.965  0.7678  0.3740  0.3607
  561MOL0     C75632  -1.732   1.917   6.946  0.4251  0.3611  0.8780
  561MOL0     C75633  -1.838   1.933   7.035  0.7057  0.6891  0.5233
  561MOL0     C75634  -1.966   1.877   7.001  0.0403 -0.4336 -1.0238
  561MOL0     C75635  -1.989   1.811   6.881  0.2393 -0.3483 -0.0045
  561MOL0     O75636  -2.110   1.756   6.854  0.2060 -0.5330 -0.3317
  561MOL0     C75637  -2.117   1.620   6.800  0.9518  0.3792  0.2722
  561MOL0     C75638  -2.255   1.573   6.768 -0.5721  0.6348 -0.9391
  561MOL0     C75639  -2.252   1.442   6.673 -0.0867 -0.3889  0.2614
  561MOL0     C75640  -2.376   1.439   6.585 -0.0954 -0.2250  0.1024
  561MOL0     C75641  -2.512   1.408   6.665 -0.7823  0.1779  0.7493
  561MOL0     C75642  -2.625   1.439   6.563  0.8173 -0.4183 -0.4730
  561MOL0     C75643  -2.760   1.405   6.626 -0.1008 -0.1649  0.4584
  561MOL0     C75644  -2.883   1.402   6.534 -0.5315 -0.4264  0.1004
  561MOL0    Cl75645  -2.964   1.556   6.523  0.1413  0.2617  0.2016
  561MOL0     C75646  -1.883   1.807   6.790 -0.4632 -0.5717 -0.0473
  561MOL0     C75647  -1.756   1.849   6.825 -0.5388  0.8750 -0.7616
  561MOL0     O75648  -1.556   1.838   7.141 -0.2358 -0.1330  0.1770
  561MOL0     C75649  -1.378   2.119   7.005 -0.2905  0.2703 -0.2862
  561MOL0     C75650  -1.246   2.171   7.001 -1.0667  0.8063 -0.5541
  561MOL0     N75651  -0.481   2.302   6.982  0.6572  0.0601 -0.2031
  561MOL0     N75652  -0.384   2.358   7.042  0.0920  0.0850  0.2990
  561MOL0     C75653   0.748   2.681   6.694  0.4316 -0.1557 -0.3369
  561MOL0     C75654   0.886   2.684   6.664  0.4581  0.2101  0.0455
  561MOL0     C75655   1.326   2.792   6.651  0.0956 -0.0544 -0.3898
  561MOL0     C75656   1.388   2.817   6.779  0.4107 -0.3293  0.0967
  561MOL0     C75657   1.523   2.857   6.782  0.5515 -0.2729  1.1086
  561MOL0     C75658   1.596   2.883   6.673  0.1092 -0.2235 -0.8283
  561MOL0     O75659   1.717   2.928   6.692 -1.2140  0.6376 -0.3970
  561MOL0     C75660   1.788   2.958   6.574 -0.2778 -0.6867  0.3479
  561MOL0     C75661   1.931   3.006   6.597  0.1478 -0.0801  0.3465
  561MOL0     C75662   2.020   2.902   6.662  0.3837  0.0159  0.0470
  561MOL0     C75663   2.160   2.961   6.655 -0.5697 -0.1034 -0.0241
  561MOL0     C75664   2.210   3.038   6.766 -0.0009  0.1505  0.1928
  561MOL0     C75665   2.259   3.081   6.862  0.4977 -0.5932 -0.5698
  561MOL0     C75666   1.539   2.852   6.551  0.7034  0.1239 -1.2003
  561MOL0     C75667   1.413   2.803   6.536  0.7580 -0.2561 -1.3440
  561MOL0     H75668   1.007   2.774   6.966 -0.1396 -0.3421  0.0298
  561MOL0     H75669   0.747   2.776   7.015 -2.3673 -0.5373 -1.4062
  561MOL0     H75670   0.562   2.506   6.862 -1.3633  0.8914 -1.7768
  561MOL0     H75671   0.609   2.577   7.010  2.1366  1.5899 -1.0875
  561MOL0     H75672   0.373   2.504   7.025  2.2233 -0.0242  0.8627
  561MOL0     H75673   0.363   2.681   7.022  0.6228 -0.3621 -0.0435
  561MOL0     H75674   0.297   2.676   6.783 -1.3269  0.3234  0.0847
  561MOL0     H75675   0.317   2.497   6.772  0.2755 -2.3460  3.0491
  561MOL0     H75676   0.156   2.473   6.957 -0.7546 -0.3098 -1.1643
  561MOL0     H75677   0.112   2.645   6.953  2.4353  0.5761  0.2608
  561MOL0     H75678   0.044   2.613   6.707  2.4667  0.5419 -0.2410
  561MOL0     H75679   0.074   2.443   6.725  0.8991  1.3662  1.0105
  561MOL0     H75680  -0.156   2.453   6.761 -0.0184 -0.5606  0.9904
  561MOL0     H75681  -0.090   2.432   6.918 -0.3065  0.3508 -0.7654
  561MOL0     H75682  -0.118   2.698   6.930  3.4293 -2.7736 -0.3657
  561MOL0     H75683  -0.247   2.670   6.811  0.0522  1.1215  0.2498
  561MOL0     H75684  -0.324   2.669   7.053  2.3558  1.1304 -0.9076
  561MOL0     H75685  -0.216   2.539   7.092 -0.5294 -1.6938  0.5879
  561MOL0     H75686  -0.474   2.569   6.805  1.6725 -0.9683 -0.5464
  561MOL0     H75687  -0.640   2.353   6.692  0.1780  3.1813  0.9918
  561MOL0     H75688  -0.632   2.216   6.787 -1.7569  0.1304  2.2564
  561MOL0     H75689  -0.847   2.364   6.795 -0.2510  2.3968  0.6508
  561MOL0     H75690  -0.764   2.452   6.924  0.2712 -0.6281 -0.3397
  561MOL0     H75691  -0.760   2.232   7.054  1.7431 -1.2424  0.9422
  561MOL0     H75692  -0.816   2.150   6.913  2.0042 -0.9611  2.2122
  561MOL0     H75693  -1.024   2.322   6.928 -3.8115  1.9752  3.3982
  561MOL0     H75694  -0.973   2.343   7.098  1.5250  0.3501  0.1455
  561MOL0     H75695  -1.071   1.926   7.161  1.4681  3.0731 -1.3592
  561MOL0     H75696  -1.346   1.805   7.275  0.3541  0.9164  0.2366
  561MOL0     H75697  -1.341   1.709   7.124 -4.3849  0.7526  2.3244
  561MOL0     H75698  -1.192   1.763   7.206  0.8056  2.7973 -0.3692
  561MOL0     H75699  -1.818   1.993   7.123 -1.4038  0.1666  1.4214
  561MOL0     H75700  -2.049   1.882   7.071  1.0147  3.6732  0.1535
  561MOL0     H75701  -2.048   1.611   6.716 -0.4697 -0.6801 -0.8409
  561MOL0     H75702  -2.078   1.545   6.869 -1.0561 -0.0704  0.9839
  561MOL0     H75703  -2.303   1.550   6.864 -1.3604 -1.9089 -1.8551
  561MOL0     H75704  -2.310   1.654   6.719  1.6826  1.7984 -1.6695
  561MOL0     H75705  -2.249   1.359   6.744 -0.8539  2.0524  3.4197
  561MOL0     H75706  -2.161   1.445   6.612  0.6070  1.7814  1.2747
  561MOL0     H75707  -2.389   1.538   6.541 -3.5816  0.3938  2.1617
  561MOL0     H75708  -2.368   1.366   6.504 -0.3317 -1.6864  1.3307
  561MOL0     H75709  -2.519   1.464   6.759 -0.8441 -0.1015  0.9136
  561MOL0     H75710  -2.515   1.302   6.690  2.0525  0.0221  0.7827
  561MOL0     H75711  -2.620   1.547   6.542 -0.2807 -0.3049 -0.2174
  561MOL0     H75712  -2.612   1.388   6.468 -1.0226 -0.9979 -0.4450
  561MOL0     H75713  -2.783   1.464   6.716  1.1654 -3.0986  2.8753
  561MOL0     H75714  -2.749   1.300   6.652  1.1767 -0.6413 -1.7733
  561MOL0     H75715  -2.951   1.326   6.573 -0.1368 -0.3116  1.0453
  561MOL0     H75716  -2.857   1.369   6.433  3.7514 -2.3129  1.5887
  561MOL0     H75717  -1.885   1.762   6.692  0.0247 -1.3508  0.2932
  561MOL0     H75718  -1.684   1.849   6.744  0.3814 -2.4028 -0.0858
  561MOL0     H75719  -1.471   2.163   6.970 -1.2721 -1.7183 -0.2742
  561MOL0     H75720  -1.224   2.259   6.942  2.2851  0.1576 -0.5108
  561MOL0     H75721   0.676   2.662   6.616 -1.2096  3.0725  0.2218
  561MOL0     H75722   0.913   2.652   6.565 -0.4947  2.1740 -0.9156
  561MOL0     H75723   1.332   2.822   6.872 -0.1751 -0.2254 -0.2541
  561MOL0     H75724   1.566   2.873   6.881  3.5625  2.5397 -0.4499
  561MOL0     H75725   1.791   2.875   6.503  1.4829 -0.5156  0.1778
  561MOL0     H75726   1.741   3.046   6.529  2.1397  0.6868  0.3514
  561MOL0     H75727   1.925   3.093   6.663  1.7791  0.4620 -0.1706
  561MOL0     H75728   1.967   3.026   6.496 -1.8049 -0.4327 -0.4699
  561MOL0     H75729   2.011   2.803   6.616 -3.9310  0.2446 -0.0343
  561MOL0     H75730   1.989   2.900   6.767 -0.7826 -3.1634 -0.2591
  561MOL0     H75731   2.182   3.026   6.570 -0.1936  2.2192  1.7474
  561MOL0     H75732   2.231   2.878   6.645 -0.7756 -0.2815 -0.0237
  561MOL0     H75733   2.306   3.121   6.949 -2.8052  2.0076  0.2389
  561MOL0     H75734   1.598   2.850   6.460  0.9184  1.7447 -1.1253
  561MOL0     H75735   1.366   2.792   6.439  2.3251 -2.6063 -1.9044
  562MOL0     O75736   3.300   7.242   4.712 -0.5368  0.5523 -0.3267
  562MOL0     C75737   3.353   7.131   4.710 -0.1059 -0.3651 -0.1293
  562MOL0     O75738   3.311   7.024   4.780 -1.0843  0.2852 -0.3153
  562MOL0     C75739   3.191   7.039   4.842 -0.2104  0.2555  0.1773
  562MOL0     C75740   3.161   7.131   4.943 -0.5979 -0.2176 -0.5764
  562MOL0     C75741   3.035   7.137   4.994 -0.7212  0.3881  0.2828
  562MOL0     C75742   2.926   7.075   4.939 -0.1100  0.2251 -1.2552
  562MOL0     O75743   2.799   7.115   4.975 -0.0176  0.7175 -0.2829
  562MOL0     C75744   2.682   7.052   4.928  0.2931  0.1976 -0.1401
  562MOL0     C75745   2.573   7.062   5.032 -0.0268  1.4309 -0.4882
  562MOL0     C75746   2.434   6.985   5.010 -0.6430 -1.6104 -0.0169
  562MOL0     C75747   2.377   7.014   4.865 -0.2104  0.0783 -1.1408
  562MOL0     C75748   2.236   6.967   4.850 -0.2691  0.4359  0.9896
  562MOL0     C75749   2.125   7.046   4.924 -0.5441  0.5313 -0.1637
  562MOL0     C75750   1.986   7.007   4.881  0.2657 -0.7806 -0.0876
  562MOL0     C75751   1.873   7.101   4.937 -1.1259  0.4804 -0.4068
  562MOL0     N75752   1.737   7.064   4.895 -0.5938  0.0770  0.2365
  562MOL0     C75753   1.704   7.010   4.776  0.5502  0.3821  1.0399
  562MOL0     C75754   1.583   6.952   4.802 -0.8465 -0.0360  0.5352
  562MOL0     C75755   1.508   6.871   4.698  0.4644 -0.4204 -0.9887
  562MOL0     C75756   1.452   6.963   4.610  0.5896  0.5571  0.3638
  562MOL0     C75757   1.341   6.897   4.527  0.1732 -0.1851 -0.7438
  562MOL0     C75758   1.218   6.868   4.605 -0.9541  0.6191 -0.5635
  562MOL0     O75759   1.110   6.796   4.535 -0.3790 -0.4868  0.2090
  562MOL0     C75760   0.997   6.766   4.602  0.3189 -0.3137 -0.2282
  562MOL0     C75761   0.988   6.750   4.738  0.3978  0.8310  0.8659
  562MOL0     C75762   0.866   6.705   4.797  0.4735 -0.2689 -0.5272
  562MOL0     C75763   0.871   6.672   4.942  0.0131  0.2906 -0.7546
  562MOL0     C75764   0.737   6.702   4.729 -0.8077  0.5810  0.5587
  562MOL0     C75765   0.608   6.662   4.780 -0.6599  0.3171 -0.7475
  562MOL0     O75766   0.496   6.707   4.710  0.2161 -0.4040 -0.8135
  562MOL0     C75767   0.366   6.693   4.761 -0.4420  0.4423 -0.7210
  562MOL0     C75768   0.268   6.652   4.672 -0.6436 -1.2366  0.3469
  562MOL0     C75769   0.138   6.636   4.713 -0.5369  0.0683 -0.9764
  562MOL0     C75770   0.100   6.645   4.850 -0.9238 -0.3693  0.6696
  562MOL0     O75771  -0.030   6.629   4.891  0.3423 -0.4106  0.6876
  562MOL0     C75772  -0.133   6.624   4.789 -1.0050  0.3988  0.5021
  562MOL0     C75773  -0.154   6.753   4.700  0.3758 -0.3313 -0.6513
  562MOL0     C75774  -0.251   6.745   4.584 -0.0939  0.1905 -0.3578
  562MOL0     C75775  -0.228   6.632   4.492 -0.5761 -0.2075 -0.4144
  562MOL0     C75776  -0.318   6.654   4.380  0.6714 -0.1399  0.8644
  562MOL0     C75777  -0.308   6.542   4.268 -1.1822  0.2499 -0.4407
  562MOL0     C75778  -0.359   6.575   4.123 -0.7332  0.3601 -0.7634
  562MOL0     C75779  -0.294   6.482   4.023 -0.4617 -1.0539  0.6551
  562MOL0    Cl75780  -0.384   6.321   4.037  0.0418 -0.0134 -0.0514
  562MOL0     C75781   0.199   6.680   4.939  0.9480 -1.7541 -0.2620
  562MOL0     C75782   0.332   6.717   4.895  0.4258 -0.4385 -0.4968
  562MOL0     O75783   0.604   6.594   4.881  0.4691  0.2884 -0.4877
  562MOL0     C75784   0.755   6.732   4.593  0.0342 -0.0451 -0.0047
  562MOL0     C75785   0.879   6.756   4.533 -0.1484  0.0078  0.3291
  562MOL0     N75786   1.542   6.995   4.924 -0.4717 -0.1603  0.5053
  562MOL0     N75787   1.638   7.056   4.982 -0.8203 -0.1597 -0.4444
  562MOL0     C75788   2.948   6.980   4.841 -0.3515  0.2250 -0.1677
  562MOL0     C75789   3.082   6.958   4.796 -0.5226  0.2087 -0.5158
  562MOL0     C75790   3.484   7.115   4.639 -0.1315 -0.3680  0.1502
  562MOL0     C75791   3.574   7.008   4.663 -0.5345  0.0476  0.1312
  562MOL0     C75792   3.705   7.001   4.599  0.0717 -0.2755  0.1340
  562MOL0     C75793   3.746   7.107   4.507  0.4564  0.1583  0.0369
  562MOL0     O75794   3.861   7.104   4.432 -0.2346 -0.3135 -0.6994
  562MOL0     C75795   3.966   7.014   4.457  0.0701 -0.3584  0.1800
  562MOL0     C75796   4.066   7.019   4.344 -0.5894  0.6158  0.3635
  562MOL0     C75797   4.009   6.923   4.233 -0.2643 -0.0380  0.8606
  562MOL0     C75798   4.053   6.968   4.096  0.5389  1.1462  0.3584
  562MOL0     C75799   4.189   6.929   4.082 -0.6903  0.1081  0.2953
  562MOL0     C75800   4.297   6.877   4.060  0.5285  0.0017 -0.0902
  562MOL0     C75801   3.662   7.220   4.488 -0.2161  0.8011  0.5244
  562MOL0     C75802   3.530   7.219   4.550 -0.1552 -0.3638 -0.4134
  562MOL0     H75803   3.237   7.201   4.977 -0.1177 -0.2034 -1.6330
  562MOL0     H75804   3.017   7.195   5.084 -0.2192 -2.9097  2.6838
  562MOL0     H75805   2.655   7.088   4.827 -0.5448 -1.3637 -0.4981
  562MOL0     H75806   2.693   6.947   4.901 -2.1919  0.0387 -0.7802
  562MOL0     H75807   2.617   7.033   5.127 -1.4461  1.8592  0.3316
  562MOL0     H75808   2.544   7.167   5.044  1.7318  1.9813 -0.8181
  562MOL0     H75809   2.434   6.879   5.036  1.1835 -0.8573  3.5523
  562MOL0     H75810   2.368   7.017   5.091 -1.3691 -1.0089 -0.8080
  562MOL0     H75811   2.373   7.119   4.835 -2.8655  0.1077 -0.9060
  562MOL0     H75812   2.448   6.961   4.800  1.3653  1.7656 -0.8623
  562MOL0     H75813   2.214   6.970   4.743  4.5167  0.4791 -0.2008
  562MOL0     H75814   2.242   6.861   4.877  1.3856  0.1321 -0.3819
  562MOL0     H75815   2.133   7.023   5.031  1.3998 -1.4125 -0.6526
  562MOL0     H75816   2.142   7.153   4.911  2.0695  0.2382  0.3327
  562MOL0     H75817   1.981   7.017   4.772  0.3897  1.7226  0.0808
  562MOL0     H75818   1.973   6.902   4.910 -2.8178  0.1087  2.2934
  562MOL0     H75819   1.901   7.206   4.930  0.4242  0.1895  0.8209
  562MOL0     H75820   1.877   7.081   5.044 -0.0203  1.1044 -0.3183
  562MOL0     H75821   1.766   7.002   4.687  0.6495  2.3255  0.8748
  562MOL0     H75822   1.572   6.802   4.642 -1.4771 -1.9338 -1.4337
  562MOL0     H75823   1.436   6.816   4.759  1.0697  0.5727  0.7155
  562MOL0     H75824   1.534   6.989   4.543  1.6263 -2.8879  0.0619
  562MOL0     H75825   1.411   7.050   4.662  0.3074  0.2623  0.6431
  562MOL0     H75826   1.383   6.804   4.489 -2.9149 -2.4494  0.9176
  562MOL0     H75827   1.310   6.955   4.440  1.0468 -1.4694 -1.9365
  562MOL0     H75828   1.194   6.962   4.655  4.1762  0.8288  2.1465
  562MOL0     H75829   1.242   6.800   4.687 -0.8970  1.1658 -0.1208
  562MOL0     H75830   1.071   6.772   4.804  0.1701  0.8185  1.1619
  562MOL0     H75831   0.787   6.730   4.981 -0.2256 -1.4073  1.5049
  562MOL0     H75832   0.854   6.565   4.959 -0.2297  0.3996 -0.2813
  562MOL0     H75833   0.965   6.684   4.996 -0.0882 -3.4323  0.5547
  562MOL0     H75834   0.293   6.636   4.568  2.4138 -0.9835  0.9725
  562MOL0     H75835   0.070   6.604   4.635 -0.3179 -1.9088 -0.4145
  562MOL0     H75836  -0.109   6.534   4.731 -2.9173  0.5797 -0.6381
  562MOL0     H75837  -0.229   6.611   4.839 -0.4700  0.6122  1.6089
  562MOL0     H75838  -0.174   6.842   4.760  0.7154 -0.0321 -0.9751
  562MOL0     H75839  -0.058   6.775   4.651  0.6031  0.5948  0.1809
  562MOL0     H75840  -0.246   6.839   4.528 -2.0798  1.2152  1.0364
  562MOL0     H75841  -0.353   6.750   4.623  0.1862  1.6154  0.2600
  562MOL0     H75842  -0.125   6.620   4.457 -1.2383 -0.2386 -2.5131
  562MOL0     H75843  -0.262   6.541   4.541 -1.1522  0.9337  1.3779
  562MOL0     H75844  -0.299   6.755   4.342 -3.4800  0.5459  0.0529
  562MOL0     H75845  -0.422   6.654   4.414 -0.1945 -0.3183 -1.5630
  562MOL0     H75846  -0.199   6.528   4.260 -1.4509 -0.9189 -3.2658
  562MOL0     H75847  -0.353   6.451   4.306 -2.4700  0.4338 -1.4460
  562MOL0     H75848  -0.330   6.680   4.112 -1.0635  0.6455  0.7844
  562MOL0     H75849  -0.468   6.573   4.128 -0.6887  0.5502  2.8448
  562MOL0     H75850  -0.189   6.461   4.047 -0.1142  1.9729  2.2761
  562MOL0     H75851  -0.305   6.522   3.921  1.3835 -2.3728 -0.1093
  562MOL0     H75852   0.170   6.685   5.044 -0.4794  1.0131 -0.6880
  562MOL0     H75853   0.410   6.750   4.962 -0.4310  0.4482  0.0969
  562MOL0     H75854   0.670   6.727   4.526  0.6521 -0.2782 -0.7835
  562MOL0     H75855   0.879   6.764   4.425  0.1543  0.7906  0.3749
  562MOL0     H75856   2.871   6.919   4.795 -1.6865  2.2080 -0.7347
  562MOL0     H75857   3.115   6.878   4.730 -0.2413 -1.5093  1.6167
  562MOL0     H75858   3.540   6.924   4.723 -0.0571  0.1027  0.4927
  562MOL0     H75859   3.774   6.922   4.629  0.4449 -0.9091 -2.1401
  562MOL0     H75860   4.026   7.063   4.534 -0.1436  2.6762 -1.4477
  562MOL0     H75861   3.923   6.916   4.483  0.2714 -0.5127 -0.0715
  562MOL0     H75862   4.165   6.992   4.382 -0.4329  3.3736  2.1783
  562MOL0     H75863   4.070   7.124   4.313 -2.1597  1.7322  3.4455
  562MOL0     H75864   3.900   6.930   4.236 -0.2327  5.5701  0.6969
  562MOL0     H75865   4.045   6.824   4.260  0.3941 -0.0702 -0.0967
  562MOL0     H75866   4.033   7.074   4.075 -0.2199  0.7131 -1.3125
  562MOL0     H75867   3.990   6.904   4.033 -1.9564  2.6959  1.1508
  562MOL0     H75868   4.395   6.834   4.046  0.9611  0.8028  0.4671
  562MOL0     H75869   3.692   7.304   4.425 -2.0796  0.7159 -0.5594
  562MOL0     H75870   3.465   7.304   4.529 -0.3998 -0.4063  0.1478
  563MOL0     O75871   8.659   6.949   2.149  0.3051 -0.1050  0.3346
  563MOL0     C75872   8.584   6.958   2.060 -0.3707 -0.1476 -0.0851
  563MOL0     O75873   8.611   7.002   1.937 -0.7924  0.5040 -0.3016
  563MOL0     C75874   8.748   7.032   1.920 -0.1758  0.2521 -0.8809
  563MOL0     C75875   8.790   7.167   1.947  0.2700  0.3322  0.3107
  563MOL0     C75876   8.922   7.189   1.928 -0.0992  0.6910 -0.2144
  563MOL0     C75877   9.014   7.098   1.875 -0.0049 -0.1707 -1.3628
  563MOL0     O75878   9.139   7.149   1.847 -0.7422 -0.9363  0.3930
  563MOL0     C75879   9.233   7.086   1.765  0.3782  0.0183 -0.7794
  563MOL0     C75880   9.358   7.157   1.740 -0.4803 -0.2358 -0.3143
  563MOL0     C75881   9.442   7.084   1.635  0.2711 -0.1436  0.9552
  563MOL0     C75882   9.579   7.150   1.613  0.5857  0.4681 -0.7022
  563MOL0     C75883   9.645   7.054   1.513  0.2847 -0.1562 -1.0066
  563MOL0     C75884   9.777   7.111   1.451 -0.3842  0.0781  0.2260
  563MOL0     C75885   9.757   7.245   1.368  0.3190  0.6489 -0.5665
  563MOL0     C75886   9.880   7.287   1.288 -0.4546  0.3556  0.4253
  563MOL0     N75887  10.000   7.290   1.368 -0.7713  0.9203  0.8339
  563MOL0     C75888  10.100   7.191   1.379  0.5119 -0.8470 -0.8095
  563MOL0     C75889  10.168   7.237   1.492  0.0714  1.1877 -0.1058
  563MOL0     C75890  10.280   7.167   1.560 -0.1080 -0.8117 -0.3036
  563MOL0     C75891  10.295   7.020   1.527 -0.3306  0.6950  0.0006
  563MOL0     C75892  10.426   6.983   1.591  0.4496 -0.0780 -0.5467
  563MOL0     C75893  10.462   6.834   1.587 -0.0054  0.4593  0.1437
  563MOL0     O75894  10.538   6.806   1.466 -0.5264 -0.8641  0.0726
  563MOL0     C75895  10.676   6.775   1.457 -0.1118 -0.2486  0.3036
  563MOL0     C75896  10.767   6.816   1.552 -0.5199 -0.9161  0.3527
  563MOL0     C75897  10.902   6.780   1.543 -0.2212 -0.1473 -0.2615
  563MOL0     C75898  11.000   6.841   1.651  0.4294  0.7450  0.6178
  563MOL0     C75899  10.950   6.699   1.443  0.7406  0.4594 -0.1257
  563MOL0     C75900  11.084   6.653   1.414 -0.3874 -0.9404 -0.0779
  563MOL0     O75901  11.105   6.623   1.285  1.1600 -0.5750 -0.4590
  563MOL0     C75902  11.237   6.615   1.258  0.5470 -0.0502  0.4383
  563MOL0     C75903  11.311   6.512   1.311 -0.0969  0.3839  0.5123
  563MOL0     C75904  11.446   6.509   1.278 -1.1849  0.3330 -0.1160
  563MOL0     C75905  11.512   6.603   1.198 -0.2120  0.4909 -0.3843
  563MOL0     O75906  11.650   6.588   1.177 -0.0784  0.2458 -0.0626
  563MOL0     C75907  11.717   6.710   1.210 -0.7465 -0.1419 -0.3824
  563MOL0     C75908  11.874   6.687   1.225 -0.5225  0.0236 -0.2076
  563MOL0     C75909  11.919   6.608   1.352 -0.3821 -0.3681  0.2829
  563MOL0     C75910  12.067   6.563   1.332  0.2597  0.1363 -0.4574
  563MOL0     C75911  12.122   6.516   1.475 -0.5645 -0.1930  0.9646
  563MOL0     C75912  12.272   6.486   1.458  0.3188 -0.7390 -0.1149
  563MOL0     C75913  12.337   6.413   1.573 -1.2229  0.6900 -0.7211
  563MOL0     C75914  12.319   6.489   1.715 -0.0212 -0.0722  1.1207
  563MOL0    Cl75915  12.420   6.406   1.831  0.0140  0.3264 -0.1798
  563MOL0     C75916  11.440   6.709   1.151 -0.4906 -0.6324 -0.0494
  563MOL0     C75917  11.303   6.719   1.179  0.6444 -0.1795 -0.1775
  563MOL0     O75918  11.176   6.685   1.497 -0.4422  0.5366  0.1956
  563MOL0     C75919  10.854   6.667   1.342  0.2344  0.6173 -0.1511
  563MOL0     C75920  10.720   6.699   1.353 -0.2223  0.9153 -0.1844
  563MOL0     N75921  10.125   7.361   1.525 -0.1162 -0.3411 -0.3425
  563MOL0     N75922  10.038   7.390   1.450  0.6261  0.6429  0.7671
  563MOL0     C75923   8.960   6.983   1.828  0.1870  0.0078 -0.1768
  563MOL0     C75924   8.835   6.942   1.872  0.1413 -0.5358 -0.7979
  563MOL0     C75925   8.440   6.947   2.103 -0.0384  0.5688  1.2646
  563MOL0     C75926   8.341   6.943   1.997  0.4706 -0.7364 -0.4412
  563MOL0     C75927   8.211   6.920   2.028  0.4231 -0.0747 -0.2342
  563MOL0     C75928   8.167   6.887   2.156 -0.3346  1.1080 -0.0996
  563MOL0     O75929   8.032   6.873   2.177 -0.0205  0.6432  0.5284
  563MOL0     C75930   7.969   6.828   2.301  0.0171 -0.2352  0.1100
  563MOL0     C75931   7.828   6.862   2.305  0.0662  0.7284  0.2226
  563MOL0     C75932   7.746   6.787   2.196 -0.1301 -0.0501 -0.1170
  563MOL0     C75933   7.597   6.771   2.239 -0.0251  0.8120  0.0328
  563MOL0     C75934   7.525   6.900   2.241  0.6079 -0.3924 -0.6069
  563MOL0     C75935   7.457   6.996   2.260  0.6782  0.3602  0.0982
  563MOL0     C75936   8.258   6.890   2.258  0.2486  0.0370  0.3636
  563MOL0     C75937   8.388   6.926   2.233 -0.7331 -0.6151  0.0474
  563MOL0     H75938   8.711   7.234   1.979  0.0518 -1.1085  3.0813
  563MOL0     H75939   8.976   7.281   1.949  3.6799 -1.5689  0.9501
  563MOL0     H75940   9.260   6.989   1.809  1.3814 -1.1942 -3.8078
  563MOL0     H75941   9.186   7.067   1.669  1.6541 -0.3378 -1.3588
  563MOL0     H75942   9.340   7.261   1.708 -0.5512  0.2261  1.1747
  563MOL0     H75943   9.405   7.159   1.839 -0.4996 -0.2962 -0.3037
  563MOL0     H75944   9.460   6.978   1.656 -1.0804 -0.9597 -1.5279
  563MOL0     H75945   9.384   7.088   1.542  1.9264  0.5747 -0.0976
  563MOL0     H75946   9.575   7.255   1.582  0.6513  0.0941 -2.0248
  563MOL0     H75947   9.636   7.146   1.706  0.1446 -0.2711 -0.4537
  563MOL0     H75948   9.667   6.969   1.578 -2.3462  1.2368  1.9561
  563MOL0     H75949   9.575   7.036   1.431  0.7171  1.8207 -1.8582
  563MOL0     H75950   9.845   7.126   1.535  0.1786 -3.4107  0.5545
  563MOL0     H75951   9.830   7.031   1.398  1.2342  1.8691 -0.9833
  563MOL0     H75952   9.673   7.221   1.301  0.4121 -0.5616 -0.2802
  563MOL0     H75953   9.729   7.327   1.435  1.3747  1.5529 -1.2046
  563MOL0     H75954   9.870   7.385   1.242 -1.3851  0.1242  0.1238
  563MOL0     H75955   9.893   7.217   1.206  1.5238  0.4891  0.5756
  563MOL0     H75956  10.110   7.109   1.309 -2.4317 -1.8198 -0.2232
  563MOL0     H75957  10.374   7.216   1.535  0.2419 -0.2426  1.9137
  563MOL0     H75958  10.263   7.179   1.668 -1.9572 -1.3399 -0.4955
  563MOL0     H75959  10.296   7.006   1.418  2.0574 -0.6964  0.1324
  563MOL0     H75960  10.220   6.961   1.582  1.1222 -0.0495  1.2455
  563MOL0     H75961  10.417   7.007   1.697  2.0238  0.0319 -0.4044
  563MOL0     H75962  10.504   7.041   1.541 -1.3257  2.3489 -0.6252
  563MOL0     H75963  10.365   6.784   1.580  0.5162 -0.6314  0.5719
  563MOL0     H75964  10.525   6.802   1.671 -0.3396  0.9745  0.5969
  563MOL0     H75965  10.749   6.866   1.647  0.6010 -1.2322  0.7529
  563MOL0     H75966  10.952   6.927   1.698  2.5417  2.0555  0.4793
  563MOL0     H75967  11.028   6.762   1.721 -0.9488 -0.5869 -0.2358
  563MOL0     H75968  11.095   6.879   1.613  2.0539 -1.3467  2.3003
  563MOL0     H75969  11.274   6.427   1.368 -0.8357  0.9107  0.8217
  563MOL0     H75970  11.509   6.426   1.310 -0.1984  2.0223  2.7559
  563MOL0     H75971  11.710   6.779   1.126 -0.3731 -2.1300 -2.1459
  563MOL0     H75972  11.676   6.755   1.301 -1.5833  1.1400 -1.3618
  563MOL0     H75973  11.914   6.628   1.141  5.1793 -0.2550  2.2022
  563MOL0     H75974  11.932   6.779   1.213 -2.4206  1.2934 -0.1112
  563MOL0     H75975  11.855   6.522   1.371  1.2677 -1.9428 -0.9268
  563MOL0     H75976  11.896   6.683   1.429 -1.0200  0.8680 -1.0712
  563MOL0     H75977  12.078   6.482   1.260 -0.7639 -0.2118 -0.2390
  563MOL0     H75978  12.124   6.646   1.290 -0.6404  0.9868 -0.0294
  563MOL0     H75979  12.069   6.427   1.509  0.2609 -0.7337  0.8408
  563MOL0     H75980  12.109   6.593   1.552 -0.0510  0.0556  0.8090
  563MOL0     H75981  12.281   6.430   1.364  1.8476  2.0328 -1.7600
  563MOL0     H75982  12.321   6.581   1.434 -0.6064 -0.8574 -2.8570
  563MOL0     H75983  12.439   6.388   1.541 -1.4357 -2.6107  0.6975
  563MOL0     H75984  12.296   6.311   1.578 -0.5345  0.4504  1.5669
  563MOL0     H75985  12.214   6.485   1.745 -0.8370 -1.2234 -1.6133
  563MOL0     H75986  12.353   6.591   1.696 -3.1268  0.8854  0.0487
  563MOL0     H75987  11.491   6.787   1.097 -0.6139  1.6775  2.9155
  563MOL0     H75988  11.240   6.801   1.144  1.5740  0.9519  0.7015
  563MOL0     H75989  10.886   6.595   1.267  3.1670  2.2022 -0.5385
  563MOL0     H75990  10.659   6.665   1.270 -1.4985 -0.3671  1.2195
  563MOL0     H75991   9.011   6.901   1.777  0.7302 -0.3337  0.8753
  563MOL0     H75992   8.806   6.838   1.858 -0.6264 -0.8082  2.1721
  563MOL0     H75993   8.366   6.953   1.892  0.1204  1.7980 -0.3557
  563MOL0     H75994   8.133   6.932   1.953 -2.4031  2.1682  2.7753
  563MOL0     H75995   7.976   6.721   2.322 -1.5755  0.1685  3.3649
  563MOL0     H75996   8.015   6.871   2.390 -0.3202 -0.6383  0.4825
  563MOL0     H75997   7.825   6.971   2.292 -1.7386  0.9527  2.0467
  563MOL0     H75998   7.783   6.842   2.403  0.9092  0.0458  0.4813
  563MOL0     H75999   7.781   6.684   2.184 -0.4182 -0.2841  0.9091
  563MOL0     H76000   7.763   6.828   2.096  1.1475  0.1460  0.1552
  563MOL0     H76001   7.596   6.722   2.337 -0.7448  1.4627  0.3612
  563MOL0     H76002   7.553   6.712   2.157 -0.1833  1.0891 -0.0807
  563MOL0     H76003   7.398   7.081   2.291 -0.1901  0.3432 -1.4143
  563MOL0     H76004   8.230   6.867   2.360 -2.0426  3.6556  0.7224
  563MOL0     H76005   8.458   6.923   2.316  0.7722 -0.6282 -1.1708
  564MOL0     O76006   4.770   5.453   4.492  0.5912  0.1321  0.0754
  564MOL0     C76007   4.784   5.565   4.535 -0.1853 -0.6943 -0.5041
  564MOL0     O76008   4.683   5.647   4.583  0.0078  1.2302  0.0481
  564MOL0     C76009   4.548   5.608   4.562 -0.3775  0.7450  0.1692
  564MOL0     C76010   4.446   5.624   4.657  0.2325  0.5752 -0.2293
  564MOL0     C76011   4.315   5.593   4.632 -0.1347  0.5909  0.0333
  564MOL0     C76012   4.282   5.551   4.504 -1.4472  0.7420  0.0436
  564MOL0     O76013   4.159   5.530   4.459  0.6869  0.1312  0.2650
  564MOL0     C76014   4.083   5.436   4.536  0.5341 -0.2898  0.5729
  564MOL0     C76015   3.939   5.446   4.493  0.2226  0.3451 -0.2631
  564MOL0     C76016   3.889   5.583   4.495  0.2678  0.0738  1.2486
  564MOL0     C76017   3.875   5.635   4.642  0.1563 -0.4026  0.0304
  564MOL0     C76018   3.799   5.774   4.646 -0.3319  0.0314 -0.7713
  564MOL0     C76019   3.660   5.775   4.579  1.3993  0.7229  0.3636
  564MOL0     C76020   3.567   5.883   4.643 -0.9174  1.0550 -0.1740
  564MOL0     C76021   3.615   6.027   4.639 -0.0714 -0.0121  0.7191
  564MOL0     N76022   3.503   6.120   4.603  0.3183  0.0531 -0.0910
  564MOL0     C76023   3.452   6.131   4.479 -0.2686  0.0878 -0.1295
  564MOL0     C76024   3.335   6.199   4.490  0.5192  0.4241  0.2470
  564MOL0     C76025   3.249   6.216   4.372  0.5558 -0.0084 -0.3610
  564MOL0     C76026   3.104   6.193   4.400  0.2314 -0.8171  0.2037
  564MOL0     C76027   3.019   6.231   4.273  0.4399  0.7120 -0.0572
  564MOL0     C76028   2.864   6.226   4.304 -0.1154 -0.4539 -0.0748
  564MOL0     O76029   2.802   6.272   4.187  0.1550 -0.5851 -0.2911
  564MOL0     C76030   2.667   6.298   4.195 -0.2837 -0.1495 -0.0677
  564MOL0     C76031   2.621   6.369   4.081  0.9771  0.2216 -0.0865
  564MOL0     C76032   2.487   6.417   4.071 -0.0317 -0.6752 -0.3615
  564MOL0     C76033   2.456   6.498   3.951  0.0045 -0.6224 -0.7560
  564MOL0     C76034   2.397   6.388   4.187 -0.2472 -0.9155 -0.0624
  564MOL0     C76035   2.263   6.449   4.188  0.6562  0.7396 -0.0555
  564MOL0     O76036   2.193   6.478   4.075  0.2915 -0.0800 -0.8580
  564MOL0     C76037   2.073   6.548   4.095 -1.0082 -0.0677  0.1619
  564MOL0     C76038   2.060   6.680   4.057  0.1887  0.4145  1.2150
  564MOL0     C76039   1.934   6.750   4.044 -0.3193 -0.4730  0.0761
  564MOL0     C76040   1.816   6.683   4.082  0.0985  0.1368 -0.2631
  564MOL0     O76041   1.696   6.738   4.065  0.1671  0.3350  0.1817
  564MOL0     C76042   1.664   6.853   3.977  0.1927  0.6571 -0.8081
  564MOL0     C76043   1.509   6.874   3.985 -0.1938  0.2235  0.2092
  564MOL0     C76044   1.442   6.762   3.907 -0.4039  0.5654  0.5845
  564MOL0     C76045   1.291   6.752   3.926  0.9781 -0.5054 -0.3776
  564MOL0     C76046   1.242   6.637   3.828 -0.2589 -0.1265  0.2673
  564MOL0     C76047   1.094   6.625   3.853 -0.2134  0.1819  0.4205
  564MOL0     C76048   1.031   6.537   3.743 -0.2903 -0.7796  0.3269
  564MOL0     C76049   0.887   6.487   3.784  0.4609 -0.2076 -0.9240
  564MOL0    Cl76050   0.783   6.646   3.778  0.1818  0.2738 -0.3307
  564MOL0     C76051   1.834   6.547   4.110  0.2373 -0.8981  0.4768
  564MOL0     C76052   1.951   6.489   4.122  0.1731 -0.9033 -0.2399
  564MOL0     O76053   2.215   6.463   4.298  0.2418 -0.9521  0.3841
  564MOL0     C76054   2.449   6.317   4.299 -0.2553  0.1110 -0.0996
  564MOL0     C76055   2.579   6.272   4.304 -0.5088  0.1256  1.0855
  564MOL0     N76056   3.313   6.243   4.619  0.1135  1.0815  0.3584
  564MOL0     N76057   3.419   6.193   4.688  0.2162  0.1966  0.3638
  564MOL0     C76058   4.385   5.518   4.413  0.7316 -0.2967 -0.8750
  564MOL0     C76059   4.510   5.553   4.433  0.3847 -0.0414 -0.1033
  564MOL0     C76060   4.915   5.635   4.532 -0.3835  0.1490  0.1648
  564MOL0     C76061   5.037   5.558   4.497  0.8864 -0.0237  0.2744
  564MOL0     C76062   5.161   5.625   4.499  0.9186  0.4540 -0.4672
  564MOL0     C76063   5.163   5.762   4.511 -0.9819 -0.9796 -0.1890
  564MOL0     O76064   5.295   5.810   4.502  0.1970  0.6700 -0.0762
  564MOL0     C76065   5.314   5.949   4.503 -0.0199 -0.1912  1.2300
  564MOL0     C76066   5.306   6.004   4.358 -0.0927  0.2149 -0.3698
  564MOL0     C76067   5.320   6.159   4.369 -1.0203  0.0281 -0.3987
  564MOL0     C76068   5.407   6.234   4.266  0.2104 -0.4768  0.5009
  564MOL0     C76069   5.337   6.225   4.136 -1.0545  0.6627 -0.1732
  564MOL0     C76070   5.282   6.233   4.024 -0.0937 -0.0621  0.1592
  564MOL0     C76071   5.042   5.833   4.519 -0.0860 -0.0084  0.5189
  564MOL0     C76072   4.920   5.768   4.538  0.1531  0.2070  0.3238
  564MOL0     H76073   4.467   5.660   4.758  1.7111  0.1776 -0.3759
  564MOL0     H76074   4.230   5.623   4.693 -1.7788 -1.3507 -1.1573
  564MOL0     H76075   4.124   5.337   4.512  0.2857 -0.6248  1.4728
  564MOL0     H76076   4.090   5.456   4.643  0.2256  1.6099  0.2780
  564MOL0     H76077   3.924   5.405   4.393 -2.4004 -3.0575  1.3002
  564MOL0     H76078   3.875   5.382   4.555 -0.7166  1.1667 -0.3649
  564MOL0     H76079   3.953   5.652   4.440  0.9913 -0.9200  0.8326
  564MOL0     H76080   3.793   5.583   4.443  1.2769 -2.3293 -0.8001
  564MOL0     H76081   3.807   5.570   4.698 -1.0589  0.5219 -0.3434
  564MOL0     H76082   3.976   5.658   4.679  0.6431 -1.0313 -0.8752
  564MOL0     H76083   3.785   5.791   4.753  0.8910 -0.8859 -0.4463
  564MOL0     H76084   3.857   5.855   4.600 -0.7013  0.2994 -0.7706
  564MOL0     H76085   3.670   5.786   4.470  1.6498  1.1151  0.4228
  564MOL0     H76086   3.603   5.682   4.588 -0.2276  1.7459  1.1080
  564MOL0     H76087   3.475   5.871   4.586 -0.2524  1.5681 -1.3872
  564MOL0     H76088   3.552   5.848   4.746  2.1171 -0.8865 -0.2590
  564MOL0     H76089   3.697   6.033   4.566  0.4997 -2.7412  1.0298
  564MOL0     H76090   3.651   6.057   4.738  1.9057 -3.3123  1.1326
  564MOL0     H76091   3.507   6.083   4.399  3.4364  2.1969  0.9303
  564MOL0     H76092   3.265   6.322   4.349  2.8777 -0.1674  0.2549
  564MOL0     H76093   3.275   6.167   4.277 -1.3004 -1.1042 -0.3511
  564MOL0     H76094   3.074   6.269   4.473  2.7236  0.2482  0.2094
  564MOL0     H76095   3.094   6.091   4.438 -0.0534 -1.4240 -1.4536
  564MOL0     H76096   3.038   6.161   4.192 -1.1692  0.4219 -0.2278
  564MOL0     H76097   3.043   6.333   4.241  0.9168  0.6066 -0.0307
  564MOL0     H76098   2.835   6.292   4.387  1.2888  0.6613 -0.4424
  564MOL0     H76099   2.823   6.130   4.337 -0.7605  0.3089  1.4651
  564MOL0     H76100   2.681   6.392   3.993  0.1746  2.3339 -0.1521
  564MOL0     H76101   2.393   6.434   3.889 -4.2796  0.9317  1.5737
  564MOL0     H76102   2.391   6.577   3.990 -4.8147 -3.8977 -1.3026
  564MOL0     H76103   2.539   6.531   3.887  2.0437 -2.4577  0.7638
  564MOL0     H76104   2.152   6.728   4.023  0.1804 -1.6395 -2.2588
  564MOL0     H76105   1.925   6.851   4.007 -1.1076 -0.6082 -0.1294
  564MOL0     H76106   1.712   6.947   4.007 -0.6765  0.8967 -0.1087
  564MOL0     H76107   1.696   6.840   3.873 -0.1657  0.8201 -0.9411
  564MOL0     H76108   1.483   6.887   4.091 -1.0603  0.1014  0.0251
  564MOL0     H76109   1.483   6.969   3.938 -0.1807 -0.3714 -1.0497
  564MOL0     H76110   1.486   6.662   3.910 -2.3326 -0.3939 -0.5749
  564MOL0     H76111   1.458   6.786   3.802  1.8407 -1.4217  0.3906
  564MOL0     H76112   1.269   6.728   4.031  0.3418 -1.6776 -0.7621
  564MOL0     H76113   1.243   6.850   3.916 -0.9611 -1.5538 -2.2707
  564MOL0     H76114   1.286   6.537   3.836  0.7363  0.1719 -1.2134
  564MOL0     H76115   1.265   6.671   3.727  0.2015  0.3359  0.5239
  564MOL0     H76116   1.074   6.565   3.942 -0.3398  2.8310  2.2532
  564MOL0     H76117   1.041   6.720   3.855 -1.0617 -0.1909 -1.4944
  564MOL0     H76118   1.088   6.445   3.728 -2.0147 -1.3814 -3.6841
  564MOL0     H76119   1.034   6.597   3.652 -2.5045 -1.0237  0.0382
  564MOL0     H76120   0.887   6.457   3.889 -0.2277  2.7856  0.0379
  564MOL0     H76121   0.844   6.409   3.720 -1.6207  0.4448 -0.3931
  564MOL0     H76122   1.744   6.490   4.130 -0.7762  0.4733  0.0115
  564MOL0     H76123   1.947   6.382   4.140 -3.9832 -0.9702 -0.4052
  564MOL0     H76124   2.381   6.304   4.383 -1.0926 -1.6576 -0.9875
  564MOL0     H76125   2.616   6.230   4.397 -1.5058  1.2425  2.0249
  564MOL0     H76126   4.359   5.470   4.319 -0.1157 -1.9319  0.1633
  564MOL0     H76127   4.577   5.535   4.350 -0.4883 -1.9847 -0.4459
  564MOL0     H76128   5.035   5.453   4.469 -2.4599  0.3742 -1.5139
  564MOL0     H76129   5.253   5.572   4.477  0.8360  0.0560  0.1272
  564MOL0     H76130   5.234   5.999   4.558 -1.9800 -1.1791 -0.5275
  564MOL0     H76131   5.409   5.978   4.547  0.0680  3.0123 -0.7122
  564MOL0     H76132   5.213   5.978   4.307 -0.1285  0.6039 -0.5081
  564MOL0     H76133   5.388   5.967   4.295  0.0179  2.0449 -1.3728
  564MOL0     H76134   5.360   6.181   4.468 -2.3049 -2.7687  0.8570
  564MOL0     H76135   5.220   6.203   4.376 -2.8723 -3.8610  0.4195
  564MOL0     H76136   5.500   6.177   4.258 -0.3630 -1.2401 -1.4589
  564MOL0     H76137   5.430   6.336   4.301  2.1355 -0.6481 -0.1196
  564MOL0     H76138   5.242   6.250   3.926  0.3360  1.8098  0.2687
  564MOL0     H76139   5.039   5.941   4.506 -1.7813 -0.1921 -1.1719
  564MOL0     H76140   4.835   5.834   4.551 -0.4994 -0.8321  1.7030
  565MOL0     O76141   3.893   3.811   5.315 -0.4704 -0.0123  0.7318
  565MOL0     C76142   3.952   3.740   5.397 -0.2074  0.5330 -0.2561
  565MOL0     O76143   3.907   3.613   5.435  0.0933 -0.2681  0.2359
  565MOL0     C76144   3.772   3.570   5.413  0.3387 -1.5550  0.5599
  565MOL0     C76145   3.662   3.628   5.474  0.6311 -0.0390 -0.4213
  565MOL0     C76146   3.538   3.556   5.469 -0.6056 -0.0678  0.8969
  565MOL0     C76147   3.526   3.435   5.394  0.0632  0.2564  0.7798
  565MOL0     O76148   3.403   3.370   5.401 -0.4024 -0.6179  0.3455
  565MOL0     C76149   3.403   3.222   5.403  0.4505 -0.2166 -0.3807
  565MOL0     C76150   3.279   3.172   5.480 -0.3812  0.5800  0.5047
  565MOL0     C76151   3.154   3.212   5.403 -0.1818 -0.3410 -0.6726
  565MOL0     C76152   3.034   3.183   5.491  0.4024 -0.0411  0.6005
  565MOL0     C76153   2.901   3.209   5.426 -0.4389 -0.0561 -0.3843
  565MOL0     C76154   2.890   3.348   5.358  0.7098 -0.0103 -0.6715
  565MOL0     C76155   2.734   3.376   5.317 -0.0639  0.2270 -0.4494
  565MOL0     C76156   2.645   3.443   5.427 -0.1813  0.1397  0.0168
  565MOL0     N76157   2.505   3.434   5.395  0.3749 -0.4571  0.0110
  565MOL0     C76158   2.445   3.494   5.289  0.0088 -0.4971 -0.2988
  565MOL0     C76159   2.312   3.491   5.315 -0.6775  0.3916 -0.8878
  565MOL0     C76160   2.194   3.524   5.224 -1.3296 -0.3500 -0.7635
  565MOL0     C76161   2.090   3.421   5.238 -0.1556  0.6090  0.3925
  565MOL0     C76162   1.975   3.446   5.135 -0.1360  0.2686  0.4553
  565MOL0     C76163   1.859   3.352   5.145 -0.3207  0.5365  0.5506
  565MOL0     O76164   1.822   3.357   5.290 -0.0258  0.0569  0.0312
  565MOL0     C76165   1.691   3.336   5.324  0.2160  0.0846 -0.5189
  565MOL0     C76166   1.593   3.290   5.238  0.1810  0.2164  0.4062
  565MOL0     C76167   1.457   3.266   5.282 -0.0381 -0.3654  0.3362
  565MOL0     C76168   1.364   3.219   5.180 -0.3534  0.4907 -0.5547
  565MOL0     C76169   1.425   3.273   5.415 -0.6641 -0.2787 -0.6658
  565MOL0     C76170   1.291   3.256   5.471  0.4457  0.3060  0.0251
  565MOL0     O76171   1.288   3.215   5.598 -0.2186 -0.2074  0.1186
  565MOL0     C76172   1.167   3.197   5.657  0.7080  0.0592  0.2768
  565MOL0     C76173   1.109   3.303   5.730 -0.0002  0.3725 -0.5899
  565MOL0     C76174   0.997   3.274   5.812 -0.6124 -0.1210  0.6541
  565MOL0     C76175   0.932   3.153   5.801  0.2368  0.7765  0.5832
  565MOL0     O76176   0.820   3.151   5.876 -0.0763  0.5662  0.2103
  565MOL0     C76177   0.739   3.031   5.875  0.1588  0.6722 -0.2473
  565MOL0     C76178   0.622   3.052   5.970  0.6440 -0.0198 -0.8059
  565MOL0     C76179   0.538   2.925   5.958  0.0979  0.1860  0.7428
  565MOL0     C76180   0.415   2.935   6.044 -0.3100 -0.4964 -0.0149
  565MOL0     C76181   0.353   2.801   6.053  0.4725 -0.0424  0.7853
  565MOL0     C76182   0.279   2.762   5.927  0.2432  0.2683 -0.2663
  565MOL0     C76183   0.224   2.631   5.927  0.2481  0.1597 -0.5862
  565MOL0     C76184   0.133   2.605   6.048 -0.1499  0.1915  0.0668
  565MOL0    Cl76185  -0.000   2.720   6.067  0.0671 -0.5077 -0.0133
  565MOL0     C76186   0.978   3.043   5.712 -0.3483  0.3642 -0.4354
  565MOL0     C76187   1.096   3.076   5.639 -0.2340  0.1358 -0.1491
  565MOL0     O76188   1.191   3.276   5.400  0.4974 -0.6060 -0.3613
  565MOL0     C76189   1.530   3.312   5.501  1.2524  0.4597 -0.8192
  565MOL0     C76190   1.659   3.339   5.457 -0.2021 -0.5021  0.4428
  565MOL0     N76191   2.294   3.408   5.434 -0.1488 -0.6600 -0.2596
  565MOL0     N76192   2.410   3.376   5.479 -0.5832 -0.9601 -0.4526
  565MOL0     C76193   3.635   3.380   5.342 -1.4223  0.3542  0.6436
  565MOL0     C76194   3.759   3.447   5.359  1.1475 -0.1588  0.1970
  565MOL0     C76195   4.083   3.785   5.446  0.7044  0.3072 -0.1029
  565MOL0     C76196   4.128   3.912   5.408  0.5406  0.3471  0.2997
  565MOL0     C76197   4.249   3.959   5.456 -0.2584  0.4193  0.3831
  565MOL0     C76198   4.332   3.879   5.534  0.5213  0.2916  0.5107
  565MOL0     O76199   4.451   3.930   5.580  0.3370  0.3696 -0.3279
  565MOL0     C76200   4.529   3.870   5.691  0.5892  0.8773 -0.2464
  565MOL0     C76201   4.670   3.850   5.641 -0.3304  0.3263 -0.2616
  565MOL0     C76202   4.723   3.989   5.612 -0.3291 -0.0413 -0.5515
  565MOL0     C76203   4.871   3.961   5.589 -0.2796 -0.3044 -0.1369
  565MOL0     C76204   4.953   3.946   5.706 -0.1212  0.1070 -0.8591
  565MOL0     C76205   5.015   3.942   5.807 -0.6105  0.3871  0.6565
  565MOL0     C76206   4.289   3.750   5.560 -0.5636  0.7381 -0.2702
  565MOL0     C76207   4.166   3.700   5.517 -0.1638 -0.2044  0.2876
  565MOL0     H76208   3.670   3.729   5.513 -0.3948  0.1459 -0.6631
  565MOL0     H76209   3.452   3.606   5.512 -0.2239 -0.5223  2.2527
  565MOL0     H76210   3.403   3.172   5.306  0.7207  0.6184 -0.8116
  565MOL0     H76211   3.486   3.183   5.462  0.0801 -0.2578  0.1232
  565MOL0     H76212   3.295   3.066   5.502  0.3162  0.7163  0.6639
  565MOL0     H76213   3.272   3.225   5.575 -0.4284  0.5166  0.5361
  565MOL0     H76214   3.164   3.317   5.376 -1.8092  0.1349  0.4293
  565MOL0     H76215   3.131   3.148   5.317 -0.2104 -0.9775 -0.1974
  565MOL0     H76216   3.039   3.076   5.517  0.2322 -0.9102 -2.5286
  565MOL0     H76217   3.040   3.247   5.580 -0.1956 -1.5132  1.7464
  565MOL0     H76218   2.890   3.135   5.347  1.8922 -0.4700 -0.3930
  565MOL0     H76219   2.818   3.194   5.496 -0.3711 -3.2363 -0.8207
  565MOL0     H76220   2.919   3.430   5.424 -1.3143  2.1277 -2.2643
  565MOL0     H76221   2.951   3.352   5.268  1.5523 -0.1840 -0.1231
  565MOL0     H76222   2.736   3.457   5.243 -0.8211  1.1883  0.5519
  565MOL0     H76223   2.689   3.290   5.266 -0.4196  0.3035 -0.2606
  565MOL0     H76224   2.672   3.549   5.422 -0.5466  0.2089 -0.6768
  565MOL0     H76225   2.667   3.401   5.525  1.8976  0.5187 -0.2378
  565MOL0     H76226   2.492   3.533   5.199 -1.6314  0.8482 -0.6178
  565MOL0     H76227   2.153   3.621   5.253  0.9250  0.9906 -1.7725
  565MOL0     H76228   2.226   3.534   5.120 -2.0047 -2.1200 -1.1833
  565MOL0     H76229   2.050   3.431   5.340 -0.8469  1.4748  0.0524
  565MOL0     H76230   2.126   3.318   5.230  0.3453  0.8028  0.1346
  565MOL0     H76231   2.012   3.461   5.033  1.9390 -1.3077  0.9170
  565MOL0     H76232   1.933   3.545   5.157 -0.5260  0.4784 -1.1024
  565MOL0     H76233   1.893   3.251   5.120  0.6365  1.0581 -0.3488
  565MOL0     H76234   1.777   3.378   5.077 -1.3332 -1.7093  0.8353
  565MOL0     H76235   1.606   3.274   5.132 -0.7518  0.3226  0.2689
  565MOL0     H76236   1.411   3.177   5.091 -0.4411  1.6092 -1.1463
  565MOL0     H76237   1.319   3.130   5.225  0.9472  0.8334  1.5782
  565MOL0     H76238   1.293   3.298   5.155 -1.0014  0.3372  0.7327
  565MOL0     H76239   1.162   3.398   5.722 -1.9872  1.4429 -1.7224
  565MOL0     H76240   0.960   3.357   5.871 -1.0772 -0.8140  1.3483
  565MOL0     H76241   0.689   3.009   5.780 -1.6132 -1.4299  1.0670
  565MOL0     H76242   0.782   2.935   5.906 -0.9056  0.1423 -0.3489
  565MOL0     H76243   0.664   3.069   6.070 -0.7149 -3.0419  0.4157
  565MOL0     H76244   0.565   3.140   5.940 -1.6125 -1.5659 -1.3059
  565MOL0     H76245   0.595   2.839   5.995  0.3375  0.6470  1.4688
  565MOL0     H76246   0.503   2.907   5.856 -0.3985 -1.1415  1.1342
  565MOL0     H76247   0.448   2.972   6.141  0.4403 -2.4559  0.5275
  565MOL0     H76248   0.351   3.013   6.001  1.2906 -0.0606 -1.7473
  565MOL0     H76249   0.283   2.817   6.136 -0.0461  1.4994  0.0689
  565MOL0     H76250   0.423   2.720   6.077  1.1386  0.1400 -0.4502
  565MOL0     H76251   0.200   2.834   5.905 -0.2783 -0.7907 -2.0831
  565MOL0     H76252   0.344   2.764   5.839  1.0499 -1.2315  0.2527
  565MOL0     H76253   0.301   2.554   5.928 -2.3329 -2.6390  0.9268
  565MOL0     H76254   0.164   2.609   5.837  2.2262 -2.0048 -1.4671
  565MOL0     H76255   0.187   2.593   6.142 -0.7284  0.1530  0.4006
  565MOL0     H76256   0.083   2.511   6.026  1.2255 -0.5384 -0.0137
  565MOL0     H76257   0.937   2.943   5.702  2.0917 -0.7502  0.0437
  565MOL0     H76258   1.137   3.003   5.570  3.3238  1.1896  0.6337
  565MOL0     H76259   1.508   3.326   5.607  2.0988  0.1484 -0.5962
  565MOL0     H76260   1.741   3.355   5.527 -0.0078 -2.0129  0.5883
  565MOL0     H76261   3.635   3.283   5.293  1.1134  1.1524 -1.1245
  565MOL0     H76262   3.854   3.401   5.332  2.4143 -0.2294  4.1156
  565MOL0     H76263   4.069   3.970   5.338  0.7289 -1.4960 -1.4897
  565MOL0     H76264   4.279   4.062   5.444 -0.5286  0.5031  0.4261
  565MOL0     H76265   4.512   3.914   5.790 -1.4108  1.4590 -0.8015
  565MOL0     H76266   4.496   3.770   5.720 -1.8933  1.4783 -0.7391
  565MOL0     H76267   4.675   3.796   5.546 -1.0191  4.2280 -2.7693
  565MOL0     H76268   4.734   3.796   5.711  1.7752  0.6647 -1.8028
  565MOL0     H76269   4.710   4.055   5.699  0.1903  1.0618 -1.2900
  565MOL0     H76270   4.680   4.042   5.527 -2.2117  2.7585  1.9130
  565MOL0     H76271   4.910   4.049   5.536 -3.2006  0.2346 -1.6004
  565MOL0     H76272   4.884   3.889   5.507 -1.4665 -0.7250  0.0207
  565MOL0     H76273   5.066   3.940   5.901  2.9320 -0.2831 -1.1206
  565MOL0     H76274   4.346   3.687   5.627  0.0347  2.0669  0.5033
  565MOL0     H76275   4.125   3.604   5.547  0.9281 -0.7142  0.2088
  566MOL0     O76276   2.007  11.047   2.655 -0.8522  0.8414  0.8750
  566MOL0     C76277   2.108  10.984   2.696  0.3305 -0.3123 -0.3107
  566MOL0     O76278   2.137  10.857   2.668  0.3299 -0.1653  0.0123
  566MOL0     C76279   2.037  10.779   2.619  0.4640  0.7607  0.7655
  566MOL0     C76280   1.929  10.729   2.693  1.0384 -0.4597 -0.0805
  566MOL0     C76281   1.841  10.630   2.644  0.5813  0.2614  0.0384
  566MOL0     C76282   1.852  10.585   2.513 -0.6529 -0.7396  0.4937
  566MOL0     O76283   1.758  10.502   2.466  0.1856 -1.0496 -0.1277
  566MOL0     C76284   1.770  10.451   2.340  0.2435 -0.1532  0.3267
  566MOL0     C76285   1.660  10.338   2.326  0.5749 -0.4238  0.3641
  566MOL0     C76286   1.685  10.258   2.210 -0.0032 -0.0483 -0.0115
  566MOL0     C76287   1.580  10.148   2.194  0.4890 -0.2945 -1.0900
  566MOL0     C76288   1.605  10.033   2.094  0.4931 -0.3194  0.7703
  566MOL0     C76289   1.682  10.083   1.976 -0.1362 -0.2335  0.0135
  566MOL0     C76290   1.660   9.980   1.854  0.2920  0.4078  0.2875
  566MOL0     C76291   1.673  10.055   1.717  0.2905  0.4466 -0.4581
  566MOL0     N76292   1.572  10.162   1.710  0.3750  0.0423  0.3065
  566MOL0     C76293   1.444  10.151   1.739  1.6581  0.3043 -0.9165
  566MOL0     C76294   1.402  10.272   1.719 -0.3392 -0.2914 -0.1714
  566MOL0     C76295   1.271  10.325   1.752  0.3476  0.5041 -0.2976
  566MOL0     C76296   1.257  10.384   1.891  0.7147 -0.0489 -0.9996
  566MOL0     C76297   1.241  10.283   2.000 -0.0445 -0.4563  0.5049
  566MOL0     C76298   1.252  10.375   2.131  0.2080  0.4019  0.7620
  566MOL0     O76299   1.247  10.300   2.251 -0.7712 -0.2824 -0.0862
  566MOL0     C76300   1.132  10.234   2.279 -0.1718 -0.6245 -0.0191
  566MOL0     C76301   1.113  10.098   2.253 -0.1785 -0.1507  0.4135
  566MOL0     C76302   0.993  10.029   2.291 -0.8429  0.7614 -0.0557
  566MOL0     C76303   0.993   9.869   2.272  0.5767 -0.4005 -0.0060
  566MOL0     C76304   0.888  10.103   2.346 -0.5618  0.1304  0.4726
  566MOL0     C76305   0.760  10.041   2.381  0.4550  0.1090  0.3156
  566MOL0     O76306   0.688  10.119   2.472  0.0532  0.5082 -0.2238
  566MOL0     C76307   0.563  10.082   2.504 -0.3166  0.2085 -0.0958
  566MOL0     C76308   0.532  10.084   2.642 -0.8802 -0.0599 -0.1692
  566MOL0     C76309   0.408  10.067   2.694  0.1813  0.9085 -0.1345
  566MOL0     C76310   0.303  10.047   2.601  0.9765  0.7082 -0.0408
  566MOL0     O76311   0.171  10.058   2.648  0.4557  0.0985 -0.5253
  566MOL0     C76312   0.054  10.011   2.568 -0.7611 -0.0680 -0.9615
  566MOL0     C76313  -0.065  10.008   2.667  1.2990 -1.0680 -0.3626
  566MOL0     C76314  -0.209   9.957   2.611 -0.0622 -0.3515 -0.6896
  566MOL0     C76315  -0.323  10.021   2.703  0.6499 -0.1587 -0.3635
  566MOL0     C76316  -0.457   9.995   2.629 -0.1137  0.5718 -0.1940
  566MOL0     C76317  -0.575  10.021   2.719  0.5821 -0.1708  0.3474
  566MOL0     C76318  -0.706   9.993   2.638  0.2576 -0.1743 -0.7547
  566MOL0     C76319  -0.825   9.951   2.737 -0.3276 -0.6523 -1.8131
  566MOL0    Cl76320  -0.787   9.782   2.807  0.2980  0.3419  0.0387
  566MOL0     C76321   0.334  10.043   2.456  0.5434  0.3841 -1.3239
  566MOL0     C76322   0.461  10.064   2.418  0.0029 -0.4965  0.3362
  566MOL0     O76323   0.717   9.943   2.327  0.0053 -0.0630 -0.9284
  566MOL0     C76324   0.917  10.229   2.377 -0.4599 -0.1598  0.3015
  566MOL0     C76325   1.030  10.307   2.336 -0.1179  0.4926  0.3186
  566MOL0     N76326   1.503  10.346   1.655 -0.1972 -0.5445 -0.6157
  566MOL0     N76327   1.606  10.274   1.642  0.0307  0.0922 -1.2038
  566MOL0     C76328   1.958  10.635   2.435 -0.0829 -0.3133  0.3198
  566MOL0     C76329   2.058  10.719   2.491 -0.9510 -1.0670  0.4660
  566MOL0     C76330   2.193  11.056   2.788  0.0644 -0.3175 -1.0180
  566MOL0     C76331   2.181  11.190   2.809  0.7546 -0.2266  0.0129
  566MOL0     C76332   2.251  11.259   2.911  0.8940 -0.5075  0.3844
  566MOL0     C76333   2.345  11.192   2.997  0.5529 -0.3916 -0.4244
  566MOL0     O76334   2.418  11.270   3.089  0.1930  0.1472 -0.8008
  566MOL0     C76335   2.527  11.211   3.161 -0.6017  1.0953 -0.4386
  566MOL0     C76336   2.611  11.303   3.254 -0.8586  0.7014  1.3703
  566MOL0     C76337   2.700  11.401   3.173 -0.5048  0.4176 -0.2747
  566MOL0     C76338   2.781  11.490   3.267  0.3285  0.6143  0.2758
  566MOL0     C76339   2.855  11.582   3.175 -0.1281 -0.3931 -1.2720
  566MOL0     C76340   2.898  11.668   3.097 -0.8806 -0.0979  0.3120
  566MOL0     C76341   2.352  11.055   2.978  0.7828  0.6359 -0.2431
  566MOL0     C76342   2.282  10.986   2.873 -0.3462 -0.4606 -0.2135
  566MOL0     H76343   1.911  10.774   2.790  0.9422  2.2838 -1.2754
  566MOL0     H76344   1.757  10.583   2.695  0.3506  0.1175 -0.4684
  566MOL0     H76345   1.758  10.530   2.265 -0.5019 -1.0018 -0.4871
  566MOL0     H76346   1.869  10.405   2.333  0.3406 -0.0728  1.1406
  566MOL0     H76347   1.656  10.277   2.417 -0.1689 -0.8362  0.0621
  566MOL0     H76348   1.569  10.396   2.306  1.0422 -0.2814 -1.4873
  566MOL0     H76349   1.690  10.319   2.119  1.2349 -1.9348 -1.2801
  566MOL0     H76350   1.782  10.210   2.225  0.6036  1.0923 -0.1901
  566MOL0     H76351   1.570  10.113   2.297  1.8160 -1.3898 -1.3041
  566MOL0     H76352   1.490  10.201   2.160 -0.4010  0.1162  1.6624
  566MOL0     H76353   1.661   9.957   2.149  0.3825 -2.3731 -1.7403
  566MOL0     H76354   1.500  10.007   2.077  0.5236 -0.0324  0.1085
  566MOL0     H76355   1.651  10.185   1.952 -2.9826 -0.7364  1.1623
  566MOL0     H76356   1.787  10.106   2.000 -0.8389  2.2826  0.9653
  566MOL0     H76357   1.740   9.905   1.860 -0.9212 -0.8888  0.6159
  566MOL0     H76358   1.568   9.924   1.867  2.3226 -4.0676 -2.4446
  566MOL0     H76359   1.646   9.979   1.643  3.4484  0.3896 -1.7216
  566MOL0     H76360   1.769  10.099   1.689 -1.1847  3.0493 -1.9062
  566MOL0     H76361   1.389  10.077   1.795  0.0666  0.7688 -1.8084
  566MOL0     H76362   1.243  10.392   1.671 -1.4470  1.7045  1.2348
  566MOL0     H76363   1.195  10.246   1.751 -1.6949  2.2126  2.9239
  566MOL0     H76364   1.167  10.447   1.887  0.2596 -0.6422 -0.3721
  566MOL0     H76365   1.341  10.448   1.918 -1.2635  1.6906  1.4648
  566MOL0     H76366   1.313  10.200   1.994  0.0724 -0.2479 -1.7196
  566MOL0     H76367   1.144  10.233   2.000 -0.8810  1.0761  1.8294
  566MOL0     H76368   1.163  10.438   2.135  0.6006  0.9345  1.2010
  566MOL0     H76369   1.341  10.439   2.133  1.0160 -0.6534  0.0317
  566MOL0     H76370   1.185  10.044   2.193  0.5864  0.8958  0.3655
  566MOL0     H76371   1.095   9.834   2.288  0.1154 -0.7311  2.5115
  566MOL0     H76372   0.926   9.836   2.352 -1.6571  0.2338 -1.5097
  566MOL0     H76373   0.955   9.834   2.175 -1.1278 -0.6053  0.7021
  566MOL0     H76374   0.608  10.113   2.713 -1.7028  1.0666  0.2788
  566MOL0     H76375   0.395  10.074   2.801 -1.0551  0.9667 -0.2705
  566MOL0     H76376   0.036  10.087   2.492  0.2856  0.3312 -0.8180
  566MOL0     H76377   0.064   9.909   2.532  2.3393 -0.1253 -0.2045
  566MOL0     H76378  -0.049   9.965   2.767 -0.5286  1.4818  1.1626
  566MOL0     H76379  -0.098  10.112   2.680 -3.9788 -2.1651 -2.5485
  566MOL0     H76380  -0.217   9.849   2.616 -3.5431 -0.1997 -0.6070
  566MOL0     H76381  -0.236   9.989   2.510 -1.6696  1.5981  0.2904
  566MOL0     H76382  -0.325   9.972   2.801  1.2684  0.2640 -0.1328
  566MOL0     H76383  -0.310  10.129   2.719  0.9576 -0.2337 -0.0943
  566MOL0     H76384  -0.464   9.892   2.595 -0.6477  1.1169 -1.8209
  566MOL0     H76385  -0.464  10.060   2.542 -0.0653  0.5556 -0.2100
  566MOL0     H76386  -0.568   9.950   2.802 -1.7898 -1.1395 -0.1960
  566MOL0     H76387  -0.583  10.127   2.749  1.0441  0.3553 -1.3185
  566MOL0     H76388  -0.689   9.904   2.576  1.1066 -1.5878  1.3735
  566MOL0     H76389  -0.721  10.089   2.588 -0.2601  0.6311  0.8921
  566MOL0     H76390  -0.921   9.921   2.693 -1.4506 -2.2435  1.3745
  566MOL0     H76391  -0.844  10.034   2.806  1.1493 -0.7068 -1.3140
  566MOL0     H76392   0.248  10.036   2.390 -0.9085  1.3230  0.3606
  566MOL0     H76393   0.478  10.073   2.311 -0.2018  3.5206  0.4732
  566MOL0     H76394   0.849  10.301   2.421  0.2749 -0.5765  2.2169
  566MOL0     H76395   1.043  10.413   2.357  3.3226 -0.0519  1.5331
  566MOL0     H76396   1.966  10.624   2.327  4.0686 -0.3544  0.4447
  566MOL0     H76397   2.146  10.756   2.439 -1.1757 -1.2853 -0.0721
  566MOL0     H76398   2.102  11.246   2.761 -0.4269 -1.3413  0.5872
  566MOL0     H76399   2.242  11.364   2.937 -0.3569 -0.7399  0.9504
  566MOL0     H76400   2.497  11.124   3.221  3.2833 -0.6571 -0.7594
  566MOL0     H76401   2.602  11.176   3.090 -0.0036  0.0003  0.6961
  566MOL0     H76402   2.664  11.227   3.313 -0.0769  0.5236  0.4656
  566MOL0     H76403   2.554  11.364   3.324 -0.5782  1.6616  0.7752
  566MOL0     H76404   2.641  11.470   3.112 -2.0763 -0.0404  0.6744
  566MOL0     H76405   2.758  11.346   3.098 -1.5124 -1.8560  0.5247
  566MOL0     H76406   2.846  11.429   3.330  0.1551  0.9497  0.7860
  566MOL0     H76407   2.717  11.554   3.329 -0.4623 -0.4912  0.6365
  566MOL0     H76408   2.927  11.745   3.029 -1.8543  0.7643  0.8340
  566MOL0     H76409   2.424  11.008   3.044  1.6299  0.1011 -1.5219
  566MOL0     H76410   2.298  10.879   2.877  2.1141 -0.2700 -2.1444
  567MOL0     O76411   1.774   3.901   1.344 -0.1148 -0.5482 -0.4994
  567MOL0     C76412   1.764   3.812   1.263  0.4327  0.2028 -0.0253
  567MOL0     O76413   1.649   3.778   1.193  0.1958  0.4313  0.2670
  567MOL0     C76414   1.549   3.882   1.184  0.3111  0.2689  0.3480
  567MOL0     C76415   1.565   4.024   1.175 -0.5750 -0.1133  0.0866
  567MOL0     C76416   1.459   4.114   1.181 -0.6238 -0.9754  0.1895
  567MOL0     C76417   1.336   4.061   1.199  0.2090 -0.1210 -0.6127
  567MOL0     O76418   1.221   4.130   1.187  0.4884 -0.5276 -0.1677
  567MOL0     C76419   1.218   4.255   1.117  0.0261 -0.6023 -0.4123
  567MOL0     C76420   1.081   4.319   1.161 -0.1327  0.1663  0.5746
  567MOL0     C76421   0.958   4.216   1.151 -0.2333  0.9321 -0.6973
  567MOL0     C76422   0.816   4.272   1.125 -0.3125  0.9656  0.2733
  567MOL0     C76423   0.705   4.168   1.115  0.4707 -0.1756 -0.0386
  567MOL0     C76424   0.562   4.229   1.146 -0.2915  0.5368  0.0554
  567MOL0     C76425   0.530   4.309   1.268 -0.3311  0.1989  0.2664
  567MOL0     C76426   0.391   4.365   1.259 -0.3223 -0.9373  0.5348
  567MOL0     N76427   0.346   4.411   1.395 -0.6285 -0.0637 -0.0081
  567MOL0     C76428   0.221   4.447   1.422 -0.9379 -0.0462 -0.1411
  567MOL0     C76429   0.230   4.519   1.535 -0.3113 -0.1145  0.0392
  567MOL0     C76430   0.110   4.593   1.591 -0.2796 -0.1837 -0.7146
  567MOL0     C76431   0.098   4.565   1.746  0.3470 -0.4780  0.1872
  567MOL0     C76432   0.071   4.413   1.777 -0.2905 -0.0832  0.3124
  567MOL0     C76433  -0.079   4.392   1.778  0.0345  0.0501 -0.2731
  567MOL0     O76434  -0.111   4.253   1.826 -0.6437  0.3125 -0.4603
  567MOL0     C76435  -0.232   4.241   1.892 -0.2128  0.2765 -0.3784
  567MOL0     C76436  -0.245   4.137   1.987 -0.0777  0.2962  0.3780
  567MOL0     C76437  -0.370   4.107   2.046 -0.6894  0.3651  0.0128
  567MOL0     C76438  -0.373   3.997   2.153 -0.0283  0.2182 -0.3612
  567MOL0     C76439  -0.490   4.172   1.994  0.1829  0.3364  0.0485
  567MOL0     C76440  -0.629   4.147   2.042  0.0130 -1.0289 -0.5897
  567MOL0     O76441  -0.726   4.201   1.961  0.1095 -0.1895 -0.2154
  567MOL0     C76442  -0.859   4.195   1.990  0.2918 -0.2639 -0.4133
  567MOL0     C76443  -0.928   4.159   2.105  0.4907  0.1419 -0.0149
  567MOL0     C76444  -1.068   4.167   2.111 -0.0015  0.1703 -0.2383
  567MOL0     C76445  -1.139   4.216   2.003 -0.0275 -0.9486  0.2078
  567MOL0     O76446  -1.272   4.207   2.008  0.0951  0.5304 -0.5199
  567MOL0     C76447  -1.349   4.278   1.905 -0.0621 -0.3520 -0.7765
  567MOL0     C76448  -1.494   4.277   1.953  0.5443 -0.7977  0.0505
  567MOL0     C76449  -1.578   4.172   1.876  0.1132 -0.4957 -0.7629
  567MOL0     C76450  -1.726   4.168   1.911  0.2875 -0.6149  1.4521
  567MOL0     C76451  -1.790   4.049   1.835  0.9545  0.3013  0.1206
  567MOL0     C76452  -1.925   4.000   1.885  0.4355 -0.0392  0.1669
  567MOL0     C76453  -1.978   3.883   1.798  0.5064 -0.4292 -0.3404
  567MOL0     C76454  -2.116   3.842   1.851 -0.2929 -0.0537 -0.0322
  567MOL0    Cl76455  -2.190   3.715   1.739 -0.6924 -0.0038 -0.4742
  567MOL0     C76456  -1.068   4.259   1.892 -0.8757 -0.8425  0.0879
  567MOL0     C76457  -0.924   4.257   1.885  1.5545 -0.6064 -0.2413
  567MOL0     O76458  -0.651   4.084   2.145 -0.5479 -0.2300  0.4186
  567MOL0     C76459  -0.472   4.288   1.902  0.1293  0.4696 -0.6882
  567MOL0     C76460  -0.348   4.305   1.835 -0.5283 -0.4851 -1.5988
  567MOL0     N76461   0.364   4.516   1.581 -0.3712  0.4573  0.6415
  567MOL0     N76462   0.428   4.464   1.486 -0.1492 -0.6669 -0.0380
  567MOL0     C76463   1.314   3.926   1.199  0.9263 -0.1174  1.1836
  567MOL0     C76464   1.416   3.833   1.196 -0.4159 -1.1388  0.2272
  567MOL0     C76465   1.875   3.716   1.243  0.7849 -0.6379 -0.5418
  567MOL0     C76466   1.850   3.580   1.222 -0.4276  0.0099 -0.0257
  567MOL0     C76467   1.968   3.497   1.211 -0.3333 -0.5206 -0.2655
  567MOL0     C76468   2.100   3.541   1.221  0.2151 -0.5953 -0.9528
  567MOL0     O76469   2.199   3.445   1.197  0.2848 -0.6419 -0.0065
  567MOL0     C76470   2.332   3.498   1.176 -0.6127  0.8072 -0.0911
  567MOL0     C76471   2.430   3.375   1.134 -0.0130 -0.1434 -0.8198
  567MOL0     C76472   2.407   3.302   1.015 -0.4600  0.3906 -0.1002
  567MOL0     C76473   2.515   3.194   0.993  0.2465 -0.6323  0.6227
  567MOL0     C76474   2.485   3.102   0.881 -0.0546 -0.0114 -0.6147
  567MOL0     C76475   2.444   3.021   0.797  0.0940 -0.1778  0.1949
  567MOL0     C76476   2.123   3.681   1.239  0.4131  0.1184  0.5538
  567MOL0     C76477   2.009   3.764   1.267  0.1255 -0.0999  0.7041
  567MOL0     H76478   1.666   4.053   1.148 -1.3609  1.2138 -1.5938
  567MOL0     H76479   1.483   4.220   1.169  2.0400 -1.0869  3.0938
  567MOL0     H76480   1.293   4.331   1.140  0.9598 -0.9167 -2.2965
  567MOL0     H76481   1.218   4.233   1.010 -0.2234  0.0126 -0.5440
  567MOL0     H76482   1.107   4.340   1.265  4.6420  2.4830 -0.8051
  567MOL0     H76483   1.064   4.410   1.102 -1.4311 -0.5789 -0.2416
  567MOL0     H76484   0.972   4.141   1.072 -1.7682 -1.9328  1.5357
  567MOL0     H76485   0.967   4.150   1.238  1.1868  1.4796 -0.4083
  567MOL0     H76486   0.803   4.315   1.224 -3.6678 -2.6604  1.6830
  567MOL0     H76487   0.819   4.341   1.040  0.3818  0.2637 -0.2939
  567MOL0     H76488   0.703   4.124   1.015 -0.5722 -0.8920  0.2748
  567MOL0     H76489   0.716   4.088   1.188 -1.2122 -1.7161 -1.3723
  567MOL0     H76490   0.540   4.294   1.060 -0.8729 -1.2311 -1.1913
  567MOL0     H76491   0.489   4.150   1.125  0.0881  0.0610  0.5075
  567MOL0     H76492   0.521   4.229   1.343 -2.1184  1.7837  1.8313
  567MOL0     H76493   0.601   4.387   1.296  0.5811 -0.8366  0.9492
  567MOL0     H76494   0.335   4.280   1.218  0.6652 -1.0498 -0.6653
  567MOL0     H76495   0.376   4.443   1.183 -2.1127 -2.1746 -0.4669
  567MOL0     H76496   0.134   4.431   1.360  0.0227 -1.5414 -1.1924
  567MOL0     H76497   0.128   4.695   1.556 -1.3617 -0.3435 -1.8144
  567MOL0     H76498   0.013   4.557   1.555 -3.3511  5.8935  0.2071
  567MOL0     H76499   0.023   4.626   1.797  0.8233  1.1743 -0.9782
  567MOL0     H76500   0.193   4.595   1.790  1.0368 -2.7151  0.3165
  567MOL0     H76501   0.109   4.385   1.875  2.1095  0.4429 -0.3936
  567MOL0     H76502   0.118   4.344   1.707 -1.0510  0.4068 -0.7064
  567MOL0     H76503  -0.124   4.405   1.679  0.6377 -3.0403 -1.0690
  567MOL0     H76504  -0.126   4.458   1.851  0.8427 -0.0524  0.3385
  567MOL0     H76505  -0.162   4.071   2.009  0.4734  0.2446 -1.7423
  567MOL0     H76506  -0.437   3.915   2.119  0.4755 -1.4374  2.3646
  567MOL0     H76507  -0.279   3.948   2.180  0.5379  1.2462 -0.4083
  567MOL0     H76508  -0.408   4.039   2.248 -0.5515 -0.4993 -0.2305
  567MOL0     H76509  -0.878   4.110   2.188  0.6073 -1.7002 -1.1074
  567MOL0     H76510  -1.105   4.125   2.204 -0.9312  0.3469 -0.5182
  567MOL0     H76511  -1.311   4.381   1.907  3.2423 -1.4392  2.3427
  567MOL0     H76512  -1.347   4.239   1.803 -0.7256 -0.5019 -0.7346
  567MOL0     H76513  -1.501   4.262   2.062  4.5755 -3.8578  0.0975
  567MOL0     H76514  -1.528   4.375   1.918 -1.6049 -2.1862 -2.0639
  567MOL0     H76515  -1.537   4.076   1.907  0.9379  0.5841  1.7923
  567MOL0     H76516  -1.568   4.177   1.767  0.9443 -1.4409 -0.7411
  567MOL0     H76517  -1.734   4.153   2.019 -1.0344 -2.6845  1.1082
  567MOL0     H76518  -1.779   4.257   1.874  2.1386  0.1824  0.5941
  567MOL0     H76519  -1.716   3.968   1.842  0.8420  0.1777 -0.0990
  567MOL0     H76520  -1.796   4.085   1.731 -0.0530  0.0251  0.0729
  567MOL0     H76521  -1.917   3.970   1.990  0.1576 -0.1100  0.1704
  567MOL0     H76522  -1.993   4.086   1.884  0.6316  0.1271  0.7437
  567MOL0     H76523  -1.897   3.809   1.797  0.9083  0.0069 -1.2820
  567MOL0     H76524  -1.991   3.905   1.692  2.0073 -0.6063 -0.5773
  567MOL0     H76525  -2.175   3.932   1.866 -1.4545 -0.5629 -1.3728
  567MOL0     H76526  -2.087   3.804   1.950  1.7007  0.7500 -0.2589
  567MOL0     H76527  -1.116   4.300   1.804  1.1229 -0.6390 -0.9608
  567MOL0     H76528  -0.883   4.300   1.794  0.4271 -0.2456 -0.5940
  567MOL0     H76529  -0.552   4.343   1.855  0.8122  2.0829 -0.0127
  567MOL0     H76530  -0.349   4.365   1.745  0.7607 -1.0858 -2.0421
  567MOL0     H76531   1.216   3.880   1.202  0.3833  0.1011 -3.7899
  567MOL0     H76532   1.396   3.726   1.191  2.0100 -1.6343 -4.0849
  567MOL0     H76533   1.751   3.535   1.214 -2.0091  2.3590  3.5315
  567MOL0     H76534   1.961   3.393   1.181  1.5422 -0.2563 -1.7812
  567MOL0     H76535   2.354   3.582   1.110 -0.0817  0.1333 -0.7879
  567MOL0     H76536   2.359   3.548   1.270 -2.2113 -1.0427  1.4430
  567MOL0     H76537   2.439   3.310   1.222 -0.2902 -1.3225 -1.6465
  567MOL0     H76538   2.534   3.411   1.130 -0.7657  2.1588 -1.4554
  567MOL0     H76539   2.406   3.371   0.930  2.6235  0.8375  0.1357
  567MOL0     H76540   2.310   3.255   1.038  0.1028 -1.1862 -0.8184
  567MOL0     H76541   2.534   3.130   1.079 -2.2323 -1.0364  0.9594
  567MOL0     H76542   2.610   3.241   0.964 -0.4454  0.2430 -0.3345
  567MOL0     H76543   2.401   2.944   0.736 -0.0019 -0.2726  0.3829
  567MOL0     H76544   2.225   3.711   1.264  0.6863 -0.9541  0.7719
  567MOL0     H76545   2.036   3.865   1.297 -0.3366  0.0818  0.5226
  568MOL0     O76546   1.803   7.859   2.643 -0.4284  0.3712  0.0305
  568MOL0     C76547   1.872   7.759   2.670  0.6769  0.1557  0.2694
  568MOL0     O76548   1.840   7.662   2.760 -0.0783  0.7794  0.6009
  568MOL0     C76549   1.728   7.646   2.831  0.8265 -0.2730 -0.2315
  568MOL0     C76550   1.602   7.677   2.783  0.4461 -0.0041  0.0247
  568MOL0     C76551   1.492   7.676   2.860 -0.0371 -0.8257 -0.0809
  568MOL0     C76552   1.495   7.638   2.994  0.4414 -0.0339  0.6354
  568MOL0     O76553   1.370   7.625   3.061  0.8047 -0.3379 -0.2960
  568MOL0     C76554   1.383   7.661   3.203  0.0116  1.4005 -0.1887
  568MOL0     C76555   1.247   7.696   3.246  1.1344 -0.9763 -0.9447
  568MOL0     C76556   1.239   7.766   3.382  0.0877 -0.6219  0.0061
  568MOL0     C76557   1.102   7.768   3.440  0.4469 -0.1016 -0.2561
  568MOL0     C76558   1.063   7.903   3.509 -0.5756 -0.5335  0.6161
  568MOL0     C76559   0.915   7.916   3.558  0.1231  0.5783 -0.2060
  568MOL0     C76560   0.879   7.842   3.687 -0.7065 -0.4634  0.4474
  568MOL0     C76561   0.902   7.928   3.812 -0.1425 -0.2507 -0.7041
  568MOL0     N76562   0.825   8.051   3.833 -0.4221  0.6486 -0.4779
  568MOL0     C76563   0.714   8.047   3.909 -0.7194  0.7373  0.2828
  568MOL0     C76564   0.678   8.173   3.930  0.1899  0.0739 -0.3627
  568MOL0     C76565   0.573   8.210   4.034  0.5465  0.1329  0.3702
  568MOL0     C76566   0.446   8.262   3.971  0.2782 -0.0703  0.5510
  568MOL0     C76567   0.369   8.167   3.885  0.1202  0.2687 -0.1054
  568MOL0     C76568   0.222   8.220   3.857 -0.8266 -0.6963 -0.0119
  568MOL0     O76569   0.227   8.322   3.760  0.5286 -0.9004 -0.0942
  568MOL0     C76570   0.105   8.360   3.703 -0.5924 -0.4213 -0.6653
  568MOL0     C76571   0.110   8.451   3.596  0.5805 -0.4057 -0.0422
  568MOL0     C76572  -0.007   8.506   3.530 -0.0248  0.3964  0.5471
  568MOL0     C76573   0.005   8.615   3.429  0.1540  0.0312  0.7929
  568MOL0     C76574  -0.132   8.458   3.580  0.1056 -0.3361  1.0682
  568MOL0     C76575  -0.261   8.498   3.522 -0.0190 -0.3334 -0.5299
  568MOL0     O76576  -0.354   8.403   3.478  0.5130 -0.1061 -0.3591
  568MOL0     C76577  -0.477   8.443   3.434  0.3502  0.3478 -0.0971
  568MOL0     C76578  -0.539   8.362   3.344 -1.6290  0.8289  0.7415
  568MOL0     C76579  -0.664   8.390   3.291  0.3227 -0.8662 -0.1963
  568MOL0     C76580  -0.734   8.502   3.327  0.9853 -0.7680  0.4516
  568MOL0     O76581  -0.859   8.528   3.270  0.0597 -0.6437  0.6605
  568MOL0     C76582  -0.923   8.654   3.305 -0.2795  0.2150 -0.5808
  568MOL0     C76583  -1.062   8.663   3.256 -0.0780  0.9781  0.6444
  568MOL0     C76584  -1.072   8.671   3.104  0.7244  0.9872 -0.6984
  568MOL0     C76585  -1.215   8.684   3.047 -0.5744  0.4063 -0.0854
  568MOL0     C76586  -1.203   8.645   2.902 -0.4529 -0.0716  0.5947
  568MOL0     C76587  -1.338   8.630   2.839  0.3980 -0.2546  0.3020
  568MOL0     C76588  -1.384   8.774   2.789  1.0474  0.2054  0.6386
  568MOL0     C76589  -1.526   8.779   2.727 -0.6335 -0.1148  0.5012
  568MOL0    Cl76590  -1.565   8.928   2.637  0.0805 -0.2165  0.0808
  568MOL0     C76591  -0.669   8.585   3.424  1.0841  0.1132 -0.5803
  568MOL0     C76592  -0.552   8.548   3.477 -0.7207 -0.8110 -0.2004
  568MOL0     O76593  -0.280   8.621   3.521 -0.6583  0.9676  0.4863
  568MOL0     C76594  -0.140   8.360   3.680  0.0799 -0.6149  0.2337
  568MOL0     C76595  -0.023   8.313   3.748  0.0609 -0.2747  1.2773
  568MOL0     N76596   0.760   8.248   3.851  0.2353 -0.7636  0.4201
  568MOL0     N76597   0.856   8.176   3.789 -0.0896 -0.1318  0.1819
  568MOL0     C76598   1.617   7.608   3.051  0.2633  0.3559  0.2595
  568MOL0     C76599   1.733   7.609   2.971  0.3562  0.7504  0.8328
  568MOL0     C76600   2.018   7.747   2.618  0.5618 -0.8240  0.0149
  568MOL0     C76601   2.094   7.642   2.656 -0.4258 -0.2323  0.3823
  568MOL0     C76602   2.225   7.619   2.612 -1.1153 -0.1015  0.1191
  568MOL0     C76603   2.286   7.699   2.515  0.2019  0.4639  0.4264
  568MOL0     O76604   2.410   7.668   2.453 -0.4226  0.2139 -0.4566
  568MOL0     C76605   2.420   7.627   2.311  0.4151  0.0698  0.1859
  568MOL0     C76606   2.517   7.725   2.240  0.2454  0.2833 -0.2901
  568MOL0     C76607   2.669   7.693   2.224 -0.8166  0.1130  0.3134
  568MOL0     C76608   2.718   7.578   2.134  0.0930  0.4151  0.1298
  568MOL0     C76609   2.682   7.452   2.200 -0.6123  0.3633  1.1952
  568MOL0     C76610   2.647   7.353   2.262  0.2672  0.7401 -0.1569
  568MOL0     C76611   2.213   7.810   2.470  0.2025 -0.9216 -1.1788
  568MOL0     C76612   2.081   7.844   2.530 -0.4326  0.6808 -0.2414
  568MOL0     H76613   1.598   7.705   2.678  1.9563  2.2539  0.5004
  568MOL0     H76614   1.394   7.706   2.825 -1.1915 -2.0222  1.9341
  568MOL0     H76615   1.425   7.579   3.262  2.1909  1.2079 -1.8479
  568MOL0     H76616   1.443   7.749   3.228 -0.6352  1.2471  2.1162
  568MOL0     H76617   1.207   7.770   3.175  0.6208 -0.7115 -0.3893
  568MOL0     H76618   1.181   7.610   3.255 -0.8220  0.4718 -0.6318
  568MOL0     H76619   1.305   7.716   3.453  2.8969  1.4319 -0.9505
  568MOL0     H76620   1.274   7.869   3.368 -1.8003 -0.1075 -1.3423
  568MOL0     H76621   1.031   7.762   3.357  0.0151  0.8961  0.0251
  568MOL0     H76622   1.085   7.684   3.508 -4.4747 -1.3283 -2.5868
  568MOL0     H76623   1.128   7.933   3.592 -1.1505 -0.3503  1.0067
  568MOL0     H76624   1.075   7.983   3.436  1.4066 -1.5453 -0.2322
  568MOL0     H76625   0.874   8.017   3.550 -0.9999 -0.0028 -3.1413
  568MOL0     H76626   0.859   7.857   3.484 -0.3487 -1.2938  1.5561
  568MOL0     H76627   0.776   7.808   3.692 -0.8064 -0.1662  0.4291
  568MOL0     H76628   0.925   7.743   3.695  0.7834  0.1417 -0.1003
  568MOL0     H76629   1.007   7.958   3.823 -0.0937 -0.0186 -1.7077
  568MOL0     H76630   0.865   7.863   3.892 -0.8281  1.5417  0.4993
  568MOL0     H76631   0.660   7.973   3.966 -0.6037 -0.5896 -1.2300
  568MOL0     H76632   0.555   8.115   4.085 -2.6274  1.2979  1.6872
  568MOL0     H76633   0.607   8.283   4.108 -0.2222  1.1699 -0.2806
  568MOL0     H76634   0.461   8.355   3.915  0.9870 -1.1149 -1.0590
  568MOL0     H76635   0.378   8.275   4.055 -1.3734 -1.0245 -0.5868
  568MOL0     H76636   0.375   8.076   3.945 -1.4325 -0.1841 -0.5872
  568MOL0     H76637   0.425   8.157   3.792 -0.8011  1.7710 -0.8692
  568MOL0     H76638   0.168   8.264   3.942 -1.3116 -1.8599  0.3047
  568MOL0     H76639   0.171   8.133   3.815  2.2899 -2.1051 -1.1431
  568MOL0     H76640   0.202   8.489   3.552  0.7571  0.2942  0.9127
  568MOL0     H76641  -0.046   8.588   3.336  0.4765  0.2566  0.5529
  568MOL0     H76642  -0.032   8.706   3.476  2.6332  2.1473 -1.1040
  568MOL0     H76643   0.109   8.638   3.406  0.4324 -1.5120  0.3628
  568MOL0     H76644  -0.481   8.276   3.313  0.7423  3.3943 -2.5872
  568MOL0     H76645  -0.718   8.328   3.220  2.0104 -1.5563 -0.9205
  568MOL0     H76646  -0.924   8.656   3.414  3.3170 -2.7602 -0.2743
  568MOL0     H76647  -0.865   8.737   3.264  0.0756 -0.9555 -2.6306
  568MOL0     H76648  -1.124   8.583   3.298 -0.6029  0.6081 -0.7922
  568MOL0     H76649  -1.108   8.753   3.298 -0.9530  0.2357  1.3458
  568MOL0     H76650  -1.026   8.580   3.063  0.8108  1.6351 -2.1031
  568MOL0     H76651  -1.008   8.750   3.064  1.3995  0.2211 -1.1723
  568MOL0     H76652  -1.276   8.611   3.100  1.7279 -0.4753  1.5311
  568MOL0     H76653  -1.259   8.784   3.058 -1.7401 -0.2333  1.2818
  568MOL0     H76654  -1.167   8.542   2.906 -1.0951 -0.3736 -0.9165
  568MOL0     H76655  -1.141   8.715   2.845  0.8605 -2.8866 -1.6571
  568MOL0     H76656  -1.329   8.556   2.759 -0.8031  0.1591 -0.2376
  568MOL0     H76657  -1.413   8.594   2.911 -1.9532  3.2812 -0.1467
  568MOL0     H76658  -1.310   8.821   2.724  2.0196  0.2041  1.7112
  568MOL0     H76659  -1.379   8.842   2.875  1.5985  0.1945  0.6196
  568MOL0     H76660  -1.597   8.753   2.806 -0.4441  0.1742  0.7733
  568MOL0     H76661  -1.536   8.701   2.652 -0.1881  0.6360 -0.3627
  568MOL0     H76662  -0.714   8.678   3.455 -4.5545 -2.6256  0.9395
  568MOL0     H76663  -0.518   8.604   3.564 -0.4856  1.1935 -1.5349
  568MOL0     H76664  -0.232   8.309   3.706  1.4791 -1.7378  3.6801
  568MOL0     H76665  -0.027   8.244   3.831  1.6109  0.3785  1.9344
  568MOL0     H76666   1.615   7.568   3.152 -2.5374  1.3176  0.6753
  568MOL0     H76667   1.828   7.580   3.014  0.1795  0.3557  0.9689
  568MOL0     H76668   2.045   7.559   2.707 -0.5699 -0.1190  0.4291
  568MOL0     H76669   2.276   7.532   2.653  0.1059  0.7392  0.4129
  568MOL0     H76670   2.445   7.522   2.297  0.4120  0.2689 -1.4546
  568MOL0     H76671   2.317   7.632   2.275  0.2412 -2.9838  0.0154
  568MOL0     H76672   2.517   7.822   2.290 -2.3275  0.3352 -0.2782
  568MOL0     H76673   2.474   7.741   2.141  0.1683 -2.3656 -0.7576
  568MOL0     H76674   2.701   7.677   2.327  1.0350  0.6299 -0.1417
  568MOL0     H76675   2.725   7.779   2.187  0.5567 -1.8558 -2.5536
  568MOL0     H76676   2.827   7.588   2.123  0.3083  2.5611  2.9700
  568MOL0     H76677   2.667   7.587   2.038  0.3103 -0.3077 -0.0564
  568MOL0     H76678   2.611   7.278   2.328  0.5633  1.2684  0.6186
  568MOL0     H76679   2.248   7.870   2.386  2.3140  1.3997  1.2104
  568MOL0     H76680   2.033   7.928   2.482  1.5377  0.6891 -2.3339
  569MOL0     O76681   5.314   1.250   4.451  0.0332  0.4335  0.4663
  569MOL0     C76682   5.332   1.369   4.483  0.0256  0.3880  1.1686
  569MOL0     O76683   5.417   1.461   4.417  0.0179  0.4013 -0.0498
  569MOL0     C76684   5.507   1.404   4.327 -0.4538 -0.3969  0.6328
  569MOL0     C76685   5.642   1.404   4.351 -0.4550 -0.1629 -0.0772
  569MOL0     C76686   5.725   1.338   4.255  0.2538 -0.6766 -0.5452
  569MOL0     C76687   5.677   1.297   4.133  0.2919 -0.9150 -1.0880
  569MOL0     O76688   5.758   1.245   4.035 -0.1984 -0.5687 -0.6285
  569MOL0     C76689   5.865   1.334   3.998 -0.5251  0.3829 -0.0611
  569MOL0     C76690   5.934   1.279   3.864  0.1577  0.1718 -0.0520
  569MOL0     C76691   5.977   1.131   3.881  0.6644 -0.0748 -0.0544
  569MOL0     C76692   6.102   1.120   3.972  0.2203 -0.2793 -0.0175
  569MOL0     C76693   6.174   0.984   3.955 -1.0922 -0.9550  0.2453
  569MOL0     C76694   6.093   0.869   4.010  0.2185  0.2879 -0.5740
  569MOL0     C76695   6.153   0.724   4.014 -0.2387 -1.1172  1.2894
  569MOL0     C76696   6.238   0.723   4.139  0.2488 -0.3585 -0.1454
  569MOL0     N76697   6.311   0.596   4.161  0.5743  0.2816  0.0936
  569MOL0     C76698   6.293   0.466   4.106  0.3091  0.1388 -0.0281
  569MOL0     C76699   6.394   0.395   4.171  0.1342 -0.4538  0.2692
  569MOL0     C76700   6.416   0.242   4.164  1.0251  0.0062 -0.9888
  569MOL0     C76701   6.462   0.196   4.020  0.2108 -0.4626 -0.0744
  569MOL0     C76702   6.503   0.049   4.011  0.1722 -0.0906 -0.7769
  569MOL0     C76703   6.423  -0.048   4.096 -0.0348 -0.1062  0.1109
  569MOL0     O76704   6.290  -0.052   4.036  0.5348  0.7397  0.3457
  569MOL0     C76705   6.188  -0.045   4.124 -0.5336  0.0405  0.7002
  569MOL0     C76706   6.186  -0.105   4.249 -0.1812  0.1990  0.1967
  569MOL0     C76707   6.068  -0.106   4.328  0.5034  0.5973 -0.0762
  569MOL0     C76708   6.075  -0.168   4.464  1.0507  0.3823 -0.8299
  569MOL0     C76709   5.954  -0.039   4.267 -0.2131 -0.4587  0.9698
  569MOL0     C76710   5.817  -0.024   4.333 -0.1637  0.3555  0.2196
  569MOL0     O76711   5.715   0.026   4.251 -0.0321  0.0826 -0.4511
  569MOL0     C76712   5.586   0.023   4.288 -0.0428 -0.3772  0.7707
  569MOL0     C76713   5.541   0.048   4.414  0.2674 -0.0185  0.1710
  569MOL0     C76714   5.410   0.039   4.437 -0.1236 -0.7092 -0.6706
  569MOL0     C76715   5.318   0.020   4.338  0.6809 -0.7556 -0.2999
  569MOL0     O76716   5.183   0.026   4.379 -0.3678 -0.0405 -0.4200
  569MOL0     C76717   5.091  -0.032   4.293  0.1013  0.4520  0.0203
  569MOL0     C76718   4.951  -0.039   4.336 -0.7897  0.5477  0.0449
  569MOL0     C76719   4.866   0.081   4.292 -0.1196  0.2086  0.7202
  569MOL0     C76720   4.736   0.093   4.374  0.5332  0.7279  0.3339
  569MOL0     C76721   4.684   0.233   4.390 -0.6914  0.0507  0.5639
  569MOL0     C76722   4.554   0.237   4.447 -0.9170  0.4517 -0.5310
  569MOL0     C76723   4.513   0.384   4.484 -0.2429  0.0486 -0.2128
  569MOL0     C76724   4.361   0.401   4.494  0.0995 -1.0543 -0.5148
  569MOL0    Cl76725   4.277   0.391   4.335  0.2443  0.0740  0.1193
  569MOL0     C76726   5.361  -0.006   4.213 -0.1496  0.1639  0.1151
  569MOL0     C76727   5.495   0.010   4.186  0.3901 -0.0698  0.2965
  569MOL0     O76728   5.806  -0.054   4.451 -0.7014  0.4817  0.3222
  569MOL0     C76729   5.958   0.024   4.135  0.3187  0.9844 -0.0342
  569MOL0     C76730   6.081   0.013   4.066  0.3845 -0.3291 -0.6089
  569MOL0     N76731   6.462   0.480   4.253  0.1240 -0.0284  0.4567
  569MOL0     N76732   6.420   0.602   4.238 -0.1675 -0.9157  0.1694
  569MOL0     C76733   5.543   1.301   4.107  1.0670 -0.1845 -0.8275
  569MOL0     C76734   5.460   1.357   4.205  0.8136  0.0251  0.7739
  569MOL0     C76735   5.270   1.424   4.600  0.0672 -0.4524 -0.1761
  569MOL0     C76736   5.154   1.367   4.655 -0.7043  0.1541  0.5713
  569MOL0     C76737   5.101   1.405   4.775  0.1835 -0.9745 -0.3439
  569MOL0     C76738   5.152   1.515   4.845 -0.0722 -0.0166 -0.8811
  569MOL0     O76739   5.113   1.568   4.974 -0.3978  0.1947  0.3621
  569MOL0     C76740   5.009   1.491   5.047 -0.0854 -0.4662 -0.9209
  569MOL0     C76741   5.020   1.542   5.191 -0.3785  0.7156 -0.5014
  569MOL0     C76742   5.169   1.545   5.241  0.3912 -0.5181 -1.5575
  569MOL0     C76743   5.175   1.596   5.384 -0.2693 -0.6465 -0.7751
  569MOL0     C76744   5.123   1.734   5.396 -0.0669 -0.3019 -1.0550
  569MOL0     C76745   5.078   1.848   5.403 -0.3939 -0.1329 -0.3846
  569MOL0     C76746   5.261   1.581   4.785  0.6206  0.3685  0.1621
  569MOL0     C76747   5.319   1.535   4.667 -1.0602  0.2757  0.3163
  569MOL0     H76748   5.677   1.455   4.440 -0.8145 -1.9038  1.1109
  569MOL0     H76749   5.830   1.343   4.284 -0.2200  0.7489  1.1195
  569MOL0     H76750   5.828   1.436   3.990 -1.2903  0.1969  0.8853
  569MOL0     H76751   5.943   1.322   4.075  1.7881  0.9557 -2.1924
  569MOL0     H76752   5.871   1.295   3.776 -2.2028  1.9012  1.8383
  569MOL0     H76753   6.026   1.334   3.842 -0.5398  0.8013 -1.5545
  569MOL0     H76754   5.897   1.068   3.923  2.4509  0.4405  4.7360
  569MOL0     H76755   5.999   1.086   3.784  1.1152  0.7966 -0.3706
  569MOL0     H76756   6.172   1.202   3.952 -0.9519  0.5359 -0.9222
  569MOL0     H76757   6.067   1.134   4.075 -0.1293  3.3962 -0.5094
  569MOL0     H76758   6.189   0.974   3.847 -2.3716  3.0459 -0.4550
  569MOL0     H76759   6.270   0.993   4.008 -0.4330  0.2767 -1.0883
  569MOL0     H76760   6.061   0.901   4.110  3.2859  0.8579  0.3450
  569MOL0     H76761   6.008   0.864   3.942 -2.5516  1.4034  2.5186
  569MOL0     H76762   6.076   0.646   4.014  1.1674 -2.5712  0.4421
  569MOL0     H76763   6.210   0.724   3.921 -1.1825 -1.0023  0.7041
  569MOL0     H76764   6.180   0.742   4.230 -1.7552  0.0968 -1.4715
  569MOL0     H76765   6.314   0.801   4.132  0.1207 -0.1149  0.9066
  569MOL0     H76766   6.235   0.408   4.035  1.3314 -1.0906  0.0957
  569MOL0     H76767   6.483   0.211   4.245  0.6075 -1.4553 -1.1642
  569MOL0     H76768   6.318   0.199   4.183 -0.7897  3.4349 -1.8234
  569MOL0     H76769   6.536   0.268   3.985  0.3512 -0.5152  0.1144
  569MOL0     H76770   6.374   0.198   3.955 -0.2347 -3.2877  0.2777
  569MOL0     H76771   6.608   0.050   4.043 -0.2162 -0.7751  0.6034
  569MOL0     H76772   6.502   0.014   3.908 -1.0124  1.4334 -1.3236
  569MOL0     H76773   6.416  -0.028   4.203  1.6717 -0.0291  0.2270
  569MOL0     H76774   6.469  -0.145   4.078 -0.7754 -0.5433  0.5070
  569MOL0     H76775   6.265  -0.167   4.288 -1.8221 -2.4171 -0.4088
  569MOL0     H76776   6.102  -0.097   4.543 -3.5820  2.4135 -0.7331
  569MOL0     H76777   5.989  -0.225   4.500  0.5216  0.5513 -1.7911
  569MOL0     H76778   6.162  -0.235   4.466  0.1406 -0.8756  1.8362
  569MOL0     H76779   5.603   0.060   4.502 -2.0497 -1.4934  2.1257
  569MOL0     H76780   5.368   0.048   4.537  0.7987  0.5778 -0.3693
  569MOL0     H76781   5.099   0.020   4.197  2.3852 -0.8496 -0.5912
  569MOL0     H76782   5.119  -0.138   4.281 -1.1248  0.2482 -1.2896
  569MOL0     H76783   4.906  -0.132   4.299  0.0199 -0.4572  1.5310
  569MOL0     H76784   4.939  -0.052   4.444 -0.9325  4.2339  0.6104
  569MOL0     H76785   4.846   0.075   4.184 -3.0844  0.1805  1.1657
  569MOL0     H76786   4.917   0.175   4.311 -2.2424  1.0298  2.8974
  569MOL0     H76787   4.665   0.039   4.311  1.3307  0.3619 -0.2653
  569MOL0     H76788   4.754   0.058   4.476  1.4713  0.1096 -0.0369
  569MOL0     H76789   4.691   0.273   4.289  2.6042 -3.8016 -0.9999
  569MOL0     H76790   4.752   0.290   4.455 -0.5550  2.2616 -1.3819
  569MOL0     H76791   4.484   0.200   4.372 -0.5441 -1.4193 -0.0079
  569MOL0     H76792   4.541   0.169   4.532  0.0756  0.9501  0.0451
  569MOL0     H76793   4.555   0.449   4.407  1.6144 -1.6180 -0.6944
  569MOL0     H76794   4.564   0.396   4.581  0.7664  2.1537 -0.9494
  569MOL0     H76795   4.336   0.502   4.529  2.0663 -1.1644  1.4520
  569MOL0     H76796   4.308   0.334   4.562  2.6018 -1.0957  1.5348
  569MOL0     H76797   5.302  -0.026   4.124  1.7680  1.9229 -1.6676
  569MOL0     H76798   5.522  -0.009   4.082  1.7969  1.1300  0.4216
  569MOL0     H76799   5.870   0.066   4.088  0.4265  0.1874 -0.9613
  569MOL0     H76800   6.101   0.047   3.965 -0.1622  3.8001  0.4810
  569MOL0     H76801   5.510   1.250   4.017 -0.2220 -1.0122  0.0919
  569MOL0     H76802   5.355   1.362   4.179  1.3842 -0.1090 -1.9182
  569MOL0     H76803   5.115   1.271   4.621  1.6442 -1.3130  1.7947
  569MOL0     H76804   5.027   1.344   4.826  0.4184 -1.8049 -0.9593
  569MOL0     H76805   4.906   1.513   5.017 -0.5224 -0.8777  0.2053
  569MOL0     H76806   5.027   1.383   5.044  0.2111 -0.4953  0.8323
  569MOL0     H76807   4.951   1.480   5.248  2.5026 -1.7753  0.5413
  569MOL0     H76808   4.980   1.643   5.205  1.7076  1.6484 -0.9424
  569MOL0     H76809   5.229   1.618   5.185  1.4166  0.1735  0.3505
  569MOL0     H76810   5.231   1.456   5.228  2.3061  0.5120 -0.1117
  569MOL0     H76811   5.276   1.613   5.422 -0.5371  1.0101 -0.6962
  569MOL0     H76812   5.123   1.532   5.457  1.5700 -3.3398 -1.6869
  569MOL0     H76813   5.055   1.952   5.410 -0.5447 -0.1614 -0.4568
  569MOL0     H76814   5.294   1.675   4.828 -1.3757  0.0354  2.6325
  569MOL0     H76815   5.387   1.596   4.609 -2.0382 -2.0847 -3.7055
  570MOL0     O76816   1.662   9.482   5.606  0.2733  0.0696 -0.0826
  570MOL0     C76817   1.678   9.521   5.491  0.5431 -0.0202 -1.0971
  570MOL0     O76818   1.589   9.581   5.414  0.5377 -0.4632  0.0995
  570MOL0     C76819   1.464   9.609   5.468 -0.4220 -0.2838  0.8324
  570MOL0     C76820   1.430   9.740   5.481 -0.6210 -0.2956  0.6094
  570MOL0     C76821   1.308   9.781   5.522  0.9099  0.5659  0.1632
  570MOL0     C76822   1.211   9.680   5.539  1.0360 -0.3249  0.0794
  570MOL0     O76823   1.085   9.725   5.540  0.1910 -0.1832  0.6601
  570MOL0     C76824   0.977   9.631   5.505  0.0718 -0.5138 -0.0413
  570MOL0     C76825   0.868   9.719   5.443  0.3584 -0.0809 -0.6416
  570MOL0     C76826   0.784   9.778   5.557  0.5765  0.1950 -0.6877
  570MOL0     C76827   0.652   9.832   5.498 -0.5373 -0.7301 -0.3681
  570MOL0     C76828   0.558   9.878   5.611 -0.8266 -0.5971 -0.5472
  570MOL0     C76829   0.438   9.955   5.553 -0.1058  0.0708 -0.2366
  570MOL0     C76830   0.379  10.044   5.662  0.8249 -0.1109 -0.3551
  570MOL0     C76831   0.292   9.963   5.759  0.3691  0.0055  0.1053
  570MOL0     N76832   0.251  10.035   5.885  0.0875 -0.2235  0.3250
  570MOL0     C76833   0.179  10.153   5.904 -1.2402  0.2314 -0.5960
  570MOL0     C76834   0.198  10.177   6.036  0.2024 -1.1095 -0.2153
  570MOL0     C76835   0.139  10.298   6.103  0.2036  0.0840 -0.2105
  570MOL0     C76836  -0.012  10.320   6.067 -0.5062 -0.1862 -0.0061
  570MOL0     C76837  -0.086  10.375   6.191 -0.7273 -0.8299 -0.5309
  570MOL0     C76838  -0.236  10.366   6.179  0.1942 -0.0668 -0.4491
  570MOL0     O76839  -0.304  10.476   6.244 -0.2749  0.2314  0.4320
  570MOL0     C76840  -0.437  10.460   6.274 -0.6331 -0.3166 -0.2852
  570MOL0     C76841  -0.508  10.345   6.298 -0.3839  0.4478  0.6494
  570MOL0     C76842  -0.644  10.350   6.327 -0.3954  0.4140 -0.1928
  570MOL0     C76843  -0.700  10.212   6.354  0.2150  0.0963  0.6529
  570MOL0     C76844  -0.711  10.467   6.347  0.7126  0.3545  1.0224
  570MOL0     C76845  -0.855  10.485   6.391  0.4571 -0.1158 -0.2347
  570MOL0     O76846  -0.907  10.598   6.393  0.6723 -0.4458  0.2554
  570MOL0     C76847  -1.046  10.621   6.419  0.0415 -0.7301  0.4992
  570MOL0     C76848  -1.068  10.706   6.528  0.9129  0.1865 -0.3143
  570MOL0     C76849  -1.193  10.738   6.573  1.1762 -1.3027  0.6719
  570MOL0     C76850  -1.307  10.689   6.506 -0.0794 -0.5176  0.1547
  570MOL0     O76851  -1.440  10.724   6.531  0.0905  0.7200 -0.0619
  570MOL0     C76852  -1.468  10.835   6.621  0.9876 -0.3251  0.3072
  570MOL0     C76853  -1.617  10.841   6.658  0.2071 -0.1765  0.4393
  570MOL0     C76854  -1.697  10.871   6.529  0.1993  0.2964 -0.0170
  570MOL0     C76855  -1.851  10.870   6.549  0.7126  0.7919  1.2658
  570MOL0     C76856  -1.917  10.972   6.455  0.7066  0.4395 -0.3180
  570MOL0     C76857  -2.053  10.995   6.522 -0.4712  0.2585  0.5601
  570MOL0     C76858  -2.133  11.096   6.448 -0.5760 -0.1847  0.7424
  570MOL0     C76859  -2.087  11.242   6.449 -0.0151  0.0847 -0.0621
  570MOL0    Cl76860  -2.210  11.347   6.370 -0.2850 -0.1381 -0.0625
  570MOL0     C76861  -1.287  10.586   6.407  0.3830  0.2116 -0.1296
  570MOL0     C76862  -1.154  10.555   6.365 -0.1052 -0.6388 -1.0836
  570MOL0     O76863  -0.916  10.384   6.423  0.0246 -0.0356 -0.3146
  570MOL0     C76864  -0.639  10.583   6.324 -0.0094 -0.4080  0.3546
  570MOL0     C76865  -0.503  10.576   6.293  0.2662  0.2480  1.1165
  570MOL0     N76866   0.278  10.080   6.096  0.1513 -0.1399 -0.5540
  570MOL0     N76867   0.313  10.002   6.005 -0.0958  0.1891 -0.3448
  570MOL0     C76868   1.245   9.543   5.534 -0.6997 -0.5366 -0.0011
  570MOL0     C76869   1.376   9.512   5.510  0.5285  0.7993  0.0394
  570MOL0     C76870   1.803   9.491   5.416 -0.2266  0.6330 -0.1511
  570MOL0     C76871   1.889   9.401   5.472 -1.2751 -0.0160  0.1066
  570MOL0     C76872   2.005   9.367   5.393  0.7082  0.0444  0.3392
  570MOL0     C76873   2.039   9.432   5.279 -0.5646 -0.4465  1.1498
  570MOL0     O76874   2.150   9.401   5.200  0.6769 -0.1048  0.3107
  570MOL0     C76875   2.243   9.301   5.249  0.1847  0.9089 -0.2474
  570MOL0     C76876   2.366   9.285   5.161  0.3061 -0.0554  0.0731
  570MOL0     C76877   2.349   9.217   5.027  0.7920 -0.1071  0.3160
  570MOL0     C76878   2.286   9.301   4.917 -0.1129 -0.3751  0.3078
  570MOL0     C76879   2.354   9.426   4.890  0.1753  0.3805 -0.4977
  570MOL0     C76880   2.429   9.524   4.881  0.4949  0.0237  0.9118
  570MOL0     C76881   1.963   9.539   5.228 -0.6034 -0.0007 -0.1315
  570MOL0     C76882   1.840   9.555   5.290  0.2039 -0.5532 -0.0269
  570MOL0     H76883   1.496   9.817   5.443  0.9911 -2.5085 -1.3549
  570MOL0     H76884   1.289   9.888   5.522 -0.5916  0.4021 -2.8131
  570MOL0     H76885   1.008   9.556   5.431 -3.2845  1.5953 -4.0566
  570MOL0     H76886   0.957   9.588   5.603  2.0984  1.3899  1.2971
  570MOL0     H76887   0.906   9.795   5.374 -0.8143 -0.5970 -1.8936
  570MOL0     H76888   0.824   9.649   5.372 -0.8265  0.9079 -0.9196
  570MOL0     H76889   0.759   9.696   5.625 -1.5452  0.1268 -1.4568
  570MOL0     H76890   0.841   9.843   5.624  0.7330 -1.3097  0.6932
  570MOL0     H76891   0.681   9.913   5.429 -2.0861  1.3212  1.2647
  570MOL0     H76892   0.599   9.754   5.443  0.1949  0.3698 -2.7643
  570MOL0     H76893   0.531   9.790   5.669 -2.2822 -0.9544 -1.7094
  570MOL0     H76894   0.629   9.941   5.666 -1.7905 -2.4369  3.1427
  570MOL0     H76895   0.457  10.018   5.466  0.2028 -0.3678 -0.4923
  570MOL0     H76896   0.364   9.882   5.520 -1.3457  0.8814  0.6689
  570MOL0     H76897   0.454  10.109   5.710  0.9457 -0.8026  0.4066
  570MOL0     H76898   0.304  10.107   5.613 -2.1863 -5.1281 -2.9867
  570MOL0     H76899   0.339   9.868   5.785  1.1053 -0.2821 -2.0091
  570MOL0     H76900   0.206   9.931   5.699  1.9035  1.3814 -3.1011
  570MOL0     H76901   0.113  10.208   5.838 -2.5295  0.7639  1.0798
  570MOL0     H76902   0.158  10.281   6.210  2.2805 -0.6796 -0.6454
  570MOL0     H76903   0.189  10.388   6.069 -0.3235  0.9673  1.2708
  570MOL0     H76904  -0.053  10.220   6.049 -0.6428  0.0203 -0.8757
  570MOL0     H76905  -0.026  10.366   5.969  0.4272 -0.0424 -0.0777
  570MOL0     H76906  -0.065  10.481   6.210 -0.6295 -1.1081  1.0049
  570MOL0     H76907  -0.052  10.328   6.283  2.0188  0.1543 -0.9300
  570MOL0     H76908  -0.272  10.270   6.217 -2.4046  0.5876 -1.0527
  570MOL0     H76909  -0.256  10.381   6.072 -0.7083  0.4642 -0.2184
  570MOL0     H76910  -0.453  10.251   6.298 -0.0339  0.6389 -0.4962
  570MOL0     H76911  -0.648  10.139   6.292  0.3226 -1.2719  2.3022
  570MOL0     H76912  -0.695  10.195   6.462 -2.7682  0.3244  0.9004
  570MOL0     H76913  -0.803  10.200   6.321 -0.2218  2.0550  1.1546
  570MOL0     H76914  -0.982  10.752   6.575  0.9715  0.0967 -0.3340
  570MOL0     H76915  -1.206  10.817   6.647 -3.6431 -1.2166  0.0543
  570MOL0     H76916  -1.411  10.821   6.714  2.9310 -1.5325 -0.9765
  570MOL0     H76917  -1.445  10.931   6.574 -0.5254 -0.7661 -1.4455
  570MOL0     H76918  -1.647  10.744   6.698  1.9369 -0.6102  0.7741
  570MOL0     H76919  -1.636  10.914   6.737 -0.3823  0.0570  0.0833
  570MOL0     H76920  -1.673  10.796   6.452 -1.3803 -1.9105  1.5232
  570MOL0     H76921  -1.658  10.965   6.489  0.4950 -1.3317 -4.0893
  570MOL0     H76922  -1.902  10.774   6.532 -1.0607  1.9246 -0.2286
  570MOL0     H76923  -1.859  10.907   6.651  1.8914  1.6738  1.0556
  570MOL0     H76924  -1.923  10.946   6.349 -3.2895 -0.7613  0.0579
  570MOL0     H76925  -1.862  11.067   6.461 -1.1941  1.7059 -1.8693
  570MOL0     H76926  -2.108  10.900   6.525 -0.1535 -0.1143 -2.4249
  570MOL0     H76927  -2.030  11.025   6.625  1.7971  2.3174 -0.4504
  570MOL0     H76928  -2.235  11.090   6.488 -0.9724 -2.0418 -0.4021
  570MOL0     H76929  -2.134  11.053   6.347  1.2111 -1.1511  1.0924
  570MOL0     H76930  -1.987  11.255   6.405 -0.7881  1.6786 -1.5075
  570MOL0     H76931  -2.087  11.277   6.552  2.1774 -1.0728  0.3919
  570MOL0     H76932  -1.380  10.553   6.363 -0.2419  0.8161  0.6960
  570MOL0     H76933  -1.145  10.478   6.290  0.7985 -0.7265 -0.8844
  570MOL0     H76934  -0.674  10.686   6.321  4.1849  1.2593  1.1703
  570MOL0     H76935  -0.458  10.674   6.282  0.4496  0.1964  1.3860
  570MOL0     H76936   1.175   9.462   5.549 -1.1807 -0.1400 -0.0987
  570MOL0     H76937   1.412   9.410   5.507 -0.8339  0.3213 -2.6500
  570MOL0     H76938   1.882   9.339   5.561  1.1964 -2.4791 -1.2537
  570MOL0     H76939   2.059   9.277   5.422 -1.0780 -0.8697  1.0084
  570MOL0     H76940   2.276   9.335   5.348 -0.6179 -0.6067  0.5790
  570MOL0     H76941   2.179   9.214   5.265 -0.5577  1.5984  0.6503
  570MOL0     H76942   2.437   9.227   5.221  0.8556 -1.2694 -1.6827
  570MOL0     H76943   2.412   9.383   5.147 -0.9455  0.7316  1.1960
  570MOL0     H76944   2.288   9.127   5.039 -1.1450  1.3326  2.0243
  570MOL0     H76945   2.445   9.186   4.984 -0.0751  0.3538 -2.1472
  570MOL0     H76946   2.185   9.318   4.956 -0.1608  0.8179 -0.2841
  570MOL0     H76947   2.293   9.237   4.828 -1.7990  0.0388 -0.1755
  570MOL0     H76948   2.492   9.607   4.855  1.4842  0.1216  3.3344
  570MOL0     H76949   1.982   9.585   5.131  0.4067 -1.2397 -0.5464
  570MOL0     H76950   1.763   9.621   5.251 -0.4210 -0.0886  1.8826
  571MOL0     O76951   3.167   1.075   5.739  0.8577  0.9622  0.0914
  571MOL0     C76952   3.140   1.062   5.862 -0.6750  0.1230  0.6009
  571MOL0     O76953   3.228   1.088   5.968 -0.3353 -0.0553  0.2329
  571MOL0     C76954   3.343   1.154   5.952 -0.3450 -0.0949 -0.0836
  571MOL0     C76955   3.456   1.105   6.013 -1.0409  0.1148 -0.3144
  571MOL0     C76956   3.581   1.167   6.000 -0.4595  0.1319  0.6929
  571MOL0     C76957   3.588   1.282   5.918 -0.0088  0.0442 -0.3770
  571MOL0     O76958   3.706   1.341   5.888 -0.3763 -0.5154  0.0155
  571MOL0     C76959   3.826   1.296   5.958  0.2520  1.3048 -0.0631
  571MOL0     C76960   3.949   1.377   5.930 -0.4152  0.5004  0.4357
  571MOL0     C76961   3.947   1.503   6.006  0.8382  0.2977 -0.6524
  571MOL0     C76962   4.063   1.603   5.961 -0.2527  0.4416  0.3848
  571MOL0     C76963   4.115   1.701   6.070  0.2017  0.0566  0.4140
  571MOL0     C76964   4.018   1.781   6.146  0.3553 -0.2276  0.2686
  571MOL0     C76965   4.083   1.873   6.252 -0.5156  0.4402 -0.3501
  571MOL0     C76966   3.976   1.946   6.338 -0.1988  0.3187 -0.3781
  571MOL0     N76967   3.890   1.863   6.421  0.0850 -0.0776 -0.3281
  571MOL0     C76968   3.749   1.857   6.412 -1.1076 -0.1516  0.3973
  571MOL0     C76969   3.704   1.793   6.520 -0.0829  0.9881 -0.5449
  571MOL0     C76970   3.566   1.765   6.561  0.2233 -0.0062  0.4203
  571MOL0     C76971   3.525   1.813   6.693 -0.8689 -0.5896  0.7807
  571MOL0     C76972   3.377   1.788   6.725 -0.9756 -0.4186  0.6945
  571MOL0     C76973   3.328   1.654   6.694 -0.6402 -0.1368 -0.0371
  571MOL0     O76974   3.201   1.642   6.752  0.1582 -0.0879  0.0555
  571MOL0     C76975   3.126   1.544   6.687 -0.4950  0.5627  0.2529
  571MOL0     C76976   3.181   1.452   6.599 -0.1968 -0.2803 -1.0181
  571MOL0     C76977   3.099   1.363   6.522 -0.2245  0.2616 -0.3698
  571MOL0     C76978   3.163   1.270   6.417  0.1753  0.4287 -0.5390
  571MOL0     C76979   2.960   1.355   6.551 -1.2330  0.8777 -0.0931
  571MOL0     C76980   2.861   1.254   6.497  0.7216  0.5555 -0.1370
  571MOL0     O76981   2.748   1.233   6.579 -0.6790 -0.0972  0.3166
  571MOL0     C76982   2.632   1.173   6.520 -0.1638  0.2190 -0.2630
  571MOL0     C76983   2.589   1.181   6.383  0.0607  0.1225  0.1360
  571MOL0     C76984   2.477   1.116   6.339  0.1983 -0.3256  0.0539
  571MOL0     C76985   2.396   1.034   6.425  0.4096 -1.1526  0.3389
  571MOL0     O76986   2.279   0.982   6.377 -0.5676  0.1486 -0.2881
  571MOL0     C76987   2.199   0.904   6.465 -0.2720  0.4740 -0.3660
  571MOL0     C76988   2.059   0.892   6.396 -0.3936 -0.0706 -0.0929
  571MOL0     C76989   1.964   0.808   6.492  0.2781  0.0761  0.1733
  571MOL0     C76990   1.949   0.664   6.455  0.5011 -0.6182 -0.5623
  571MOL0     C76991   1.816   0.615   6.505  0.7488  0.7788  0.3748
  571MOL0     C76992   1.796   0.465   6.517 -0.8266 -0.6725  0.2178
  571MOL0     C76993   1.873   0.415   6.637 -1.2318 -0.2701 -0.3396
  571MOL0     C76994   1.863   0.263   6.631 -0.5284 -0.0300 -0.0990
  571MOL0    Cl76995   1.700   0.194   6.647  0.4125 -0.2423 -0.1447
  571MOL0     C76996   2.440   1.016   6.559  0.1220  0.0494  0.8526
  571MOL0     C76997   2.554   1.090   6.605  0.0220 -0.1590 -0.2724
  571MOL0     O76998   2.896   1.180   6.401 -0.4613 -0.1939  0.0397
  571MOL0     C76999   2.914   1.444   6.651  0.1303  0.5964 -0.4255
  571MOL0     C77000   2.992   1.536   6.715 -0.5691 -0.0734  0.2283
  571MOL0     N77001   3.817   1.767   6.593  0.5727  0.6319 -0.8640
  571MOL0     N77002   3.924   1.803   6.531  0.3415 -0.7931 -0.3388
  571MOL0     C77003   3.473   1.344   5.870 -0.1480  0.4400  0.2857
  571MOL0     C77004   3.351   1.274   5.878  0.1542 -0.1609  0.4121
  571MOL0     C77005   3.007   1.019   5.897  0.3648 -0.0617 -0.2405
  571MOL0     C77006   2.969   1.018   6.032 -0.2903  0.8806 -1.1059
  571MOL0     C77007   2.833   0.992   6.073 -0.1459  0.0217  0.0103
  571MOL0     C77008   2.743   0.956   5.986  0.5704 -0.7201  0.2892
  571MOL0     O77009   2.613   0.927   6.041  0.7007 -0.1593 -0.1256
  571MOL0     C77010   2.511   0.856   5.959 -0.0281 -0.3179  0.2159
  571MOL0     C77011   2.544   0.701   5.976  0.3869  0.4165 -0.3083
  571MOL0     C77012   2.523   0.641   6.118 -0.1359 -0.4466 -0.6968
  571MOL0     C77013   2.403   0.702   6.194  0.2206  0.4850 -0.2944
  571MOL0     C77014   2.286   0.675   6.114  0.0157  0.0947  0.0175
  571MOL0     C77015   2.187   0.669   6.048 -0.5424  0.2699 -0.1952
  571MOL0     C77016   2.787   0.926   5.851 -0.1118  0.6653 -0.2963
  571MOL0     C77017   2.910   0.965   5.806 -0.1718 -0.1794 -0.9677
  571MOL0     H77018   3.450   1.003   6.050  0.6254  0.9221  2.5272
  571MOL0     H77019   3.660   1.115   6.054 -1.0588  0.9450  2.4118
  571MOL0     H77020   3.809   1.309   6.065  1.1668  2.6673 -0.0616
  571MOL0     H77021   3.844   1.190   5.937  0.0879  1.0797  0.8953
  571MOL0     H77022   4.033   1.317   5.964  1.7294  1.3862 -2.8415
  571MOL0     H77023   3.956   1.383   5.821 -3.6429 -2.5037 -0.1163
  571MOL0     H77024   3.850   1.551   5.990  1.0607  0.2998 -2.1015
  571MOL0     H77025   3.966   1.481   6.111 -0.6564  2.6383  0.2005
  571MOL0     H77026   4.148   1.545   5.924 -1.4055 -2.3383  1.7835
  571MOL0     H77027   4.021   1.666   5.882 -0.4721  0.4998  0.5442
  571MOL0     H77028   4.158   1.640   6.150  0.1996  0.0280  0.3931
  571MOL0     H77029   4.193   1.767   6.033 -1.9946  3.5068  1.4323
  571MOL0     H77030   3.957   1.840   6.076 -1.1962  0.9485  2.4788
  571MOL0     H77031   3.941   1.726   6.201 -1.7163  2.9949  0.8990
  571MOL0     H77032   4.152   1.823   6.320 -0.6742  1.0212  0.2546
  571MOL0     H77033   4.143   1.947   6.198 -0.5366 -0.8745 -2.2798
  571MOL0     H77034   3.912   1.994   6.264  0.0363 -0.5285 -1.1538
  571MOL0     H77035   4.018   2.025   6.401  1.0008 -0.9809  0.5273
  571MOL0     H77036   3.707   1.908   6.326 -2.0123 -0.4616  0.6434
  571MOL0     H77037   3.495   1.798   6.484  1.1631  0.5756 -0.2160
  571MOL0     H77038   3.558   1.656   6.573  0.5018 -0.1553 -0.6091
  571MOL0     H77039   3.535   1.922   6.695  1.8692 -0.7687  1.4886
  571MOL0     H77040   3.589   1.776   6.774  0.3888 -0.6365 -0.1878
  571MOL0     H77041   3.321   1.860   6.666  0.5680  1.5434  1.5079
  571MOL0     H77042   3.349   1.797   6.830 -0.1097  0.4037  0.8685
  571MOL0     H77043   3.399   1.585   6.740 -0.5855  0.9028  1.5168
  571MOL0     H77044   3.321   1.645   6.585 -0.9069 -0.1083 -0.0218
  571MOL0     H77045   3.288   1.444   6.583  0.1852 -0.4617  1.2466
  571MOL0     H77046   3.273   1.276   6.415  0.3186 -1.0197  0.6153
  571MOL0     H77047   3.138   1.166   6.440  0.6320  0.8331  2.0756
  571MOL0     H77048   3.120   1.300   6.321 -0.5489  0.7515 -0.1234
  571MOL0     H77049   2.641   1.248   6.315  0.3500  2.6929  2.7116
  571MOL0     H77050   2.460   1.121   6.232  0.0339  4.6623  0.0727
  571MOL0     H77051   2.237   0.802   6.477  1.8841  1.4274  1.6782
  571MOL0     H77052   2.176   0.944   6.564  2.5893 -2.1496  1.5532
  571MOL0     H77053   2.017   0.990   6.375 -0.8823 -0.1144  0.6498
  571MOL0     H77054   2.074   0.850   6.296  0.8440  2.2700 -0.9695
  571MOL0     H77055   1.867   0.858   6.483  0.3979  0.4180  0.7533
  571MOL0     H77056   1.985   0.822   6.599  0.7448 -1.0754  0.2470
  571MOL0     H77057   1.944   0.659   6.346 -1.2674 -0.1369 -0.5447
  571MOL0     H77058   2.041   0.616   6.490  0.9865  0.2429 -0.6240
  571MOL0     H77059   1.732   0.651   6.445 -0.9483 -0.4249  1.9006
  571MOL0     H77060   1.795   0.657   6.604 -0.3308  2.5632 -0.5712
  571MOL0     H77061   1.690   0.457   6.541 -0.8549  1.4439  1.0162
  571MOL0     H77062   1.818   0.416   6.421  0.3279 -0.3080  0.2709
  571MOL0     H77063   1.829   0.454   6.730 -2.8611 -1.9225 -0.3528
  571MOL0     H77064   1.978   0.444   6.640 -0.6117 -2.3535 -0.2751
  571MOL0     H77065   1.922   0.218   6.711  1.0938 -3.2650 -2.8733
  571MOL0     H77066   1.908   0.229   6.537 -2.0973 -1.6938 -0.3110
  571MOL0     H77067   2.372   0.967   6.627  0.5377  0.6926  1.7452
  571MOL0     H77068   2.579   1.087   6.710  3.1656  0.3745 -0.9113
  571MOL0     H77069   2.812   1.435   6.686  0.2679 -3.8835 -0.6463
  571MOL0     H77070   2.953   1.609   6.785  1.7355  2.0083 -0.5153
  571MOL0     H77071   3.476   1.434   5.809  0.0455  0.3742  0.1969
  571MOL0     H77072   3.275   1.321   5.816  1.7114  2.7316  0.5029
  571MOL0     H77073   3.036   1.060   6.106 -0.0330  0.2194 -0.9591
  571MOL0     H77074   2.803   1.017   6.174  2.2107  2.7338  0.1404
  571MOL0     H77075   2.409   0.883   5.988  0.0738 -0.7705  1.0144
  571MOL0     H77076   2.518   0.884   5.853 -1.5280  3.3311  0.9071
  571MOL0     H77077   2.648   0.676   5.951  1.3095  2.3418  1.3413
  571MOL0     H77078   2.479   0.642   5.911 -0.0963 -0.6232  1.0663
  571MOL0     H77079   2.619   0.658   6.168  0.0373 -0.1133 -1.1372
  571MOL0     H77080   2.516   0.532   6.122  1.3839 -0.5307  0.9845
  571MOL0     H77081   2.427   0.809   6.198  0.4737  0.4136  0.1763
  571MOL0     H77082   2.391   0.659   6.294 -3.9650 -2.2288 -1.6986
  571MOL0     H77083   2.095   0.660   5.994  0.6238 -3.2247 -1.8677
  571MOL0     H77084   2.720   0.900   5.770  1.2596  1.3567 -1.7211
  571MOL0     H77085   2.937   0.966   5.701  1.6976 -1.2204 -0.5400
  572MOL0     O77086   5.982   4.217   4.328 -0.2708 -0.1396 -0.2728
  572MOL0     C77087   6.038   4.314   4.283 -0.2399 -0.7477  0.0540
  572MOL0     O77088   5.984   4.431   4.235 -0.4886  0.3494  0.4922
  572MOL0     C77089   5.854   4.446   4.240 -0.5769 -0.4543  0.6013
  572MOL0     C77090   5.806   4.565   4.285  0.4656 -0.3013  0.2571
  572MOL0     C77091   5.673   4.587   4.294 -0.1075 -0.0252  1.4803
  572MOL0     C77092   5.584   4.491   4.248  1.4020  0.6906 -0.0807
  572MOL0     O77093   5.447   4.528   4.267 -1.0844 -0.2834  0.1483
  572MOL0     C77094   5.352   4.437   4.221  0.1564 -0.0859 -0.3127
  572MOL0     C77095   5.203   4.488   4.249  0.2625 -0.3323 -0.5518
  572MOL0     C77096   5.096   4.382   4.254  0.4211 -0.5387  0.2239
  572MOL0     C77097   4.952   4.440   4.254 -0.2940  0.1337  0.4960
  572MOL0     C77098   4.849   4.333   4.231  0.9326  0.5129  0.0213
  572MOL0     C77099   4.857   4.225   4.344 -0.1687 -0.1971  0.2435
  572MOL0     C77100   4.739   4.141   4.343  1.0208 -1.0695 -0.7762
  572MOL0     C77101   4.611   4.206   4.413 -0.7636 -0.3286  0.2077
  572MOL0     N77102   4.505   4.104   4.426 -0.3366  0.5467  0.5067
  572MOL0     C77103   4.393   4.089   4.342 -0.6010  0.2228  0.4668
  572MOL0     C77104   4.326   3.984   4.394  0.5108  0.1801  0.9418
  572MOL0     C77105   4.199   3.906   4.360  0.7065 -0.8788  1.1839
  572MOL0     C77106   4.061   3.978   4.395  0.3251 -0.3526 -0.4386
  572MOL0     C77107   4.059   4.011   4.549  1.1078  0.0185  1.0495
  572MOL0     C77108   4.051   3.887   4.633 -0.1118 -0.5615 -0.5629
  572MOL0     O77109   3.985   3.878   4.764  0.5509  0.4776  0.5551
  572MOL0     C77110   3.871   3.952   4.786  0.7100  0.6343 -0.0863
  572MOL0     C77111   3.866   4.018   4.907 -0.6462  0.0634 -1.1615
  572MOL0     C77112   3.760   4.104   4.937  0.0561  0.8936  0.3470
  572MOL0     C77113   3.749   4.171   5.066  0.0772 -0.4673 -0.6164
  572MOL0     C77114   3.662   4.124   4.836  0.9958 -0.3781 -0.0028
  572MOL0     C77115   3.556   4.232   4.843 -0.3523  0.2616 -0.0082
  572MOL0     O77116   3.443   4.231   4.750  0.3960  0.5323  0.1263
  572MOL0     C77117   3.333   4.300   4.778  0.0078  0.0631  0.4501
  572MOL0     C77118   3.301   4.338   4.910  0.9215 -0.0717  0.3013
  572MOL0     C77119   3.192   4.420   4.931  0.6183  0.0480  0.0920
  572MOL0     C77120   3.108   4.475   4.828 -0.4449 -0.0614  0.2933
  572MOL0     O77121   3.020   4.568   4.861  0.6504  0.1317 -0.7310
  572MOL0     C77122   2.962   4.645   4.755  0.3090 -0.1415  0.3639
  572MOL0     C77123   2.854   4.728   4.835 -0.3191  0.7185 -0.4504
  572MOL0     C77124   2.710   4.660   4.834  0.5128 -0.2697 -0.3147
  572MOL0     C77125   2.602   4.759   4.903 -0.6003  0.6193  0.0456
  572MOL0     C77126   2.466   4.747   4.831 -0.2272  1.2239 -0.1129
  572MOL0     C77127   2.362   4.852   4.879 -0.0514  0.1530 -0.5687
  572MOL0     C77128   2.238   4.874   4.790 -0.3433 -0.0464 -0.2754
  572MOL0     C77129   2.163   5.000   4.831 -0.0137 -0.0121  0.1254
  572MOL0    Cl77130   2.249   5.139   4.774  0.1097 -0.1768  0.0192
  572MOL0     C77131   3.141   4.440   4.696 -0.5768  0.2633  0.6402
  572MOL0     C77132   3.251   4.353   4.674  0.1456 -0.1518 -0.0162
  572MOL0     O77133   3.581   4.325   4.909 -1.0155 -0.2552 -0.5346
  572MOL0     C77134   3.662   4.038   4.723  0.3503 -0.2196  0.6166
  572MOL0     C77135   3.761   3.945   4.695 -0.6032 -0.6702 -0.4801
  572MOL0     N77136   4.407   3.943   4.501  0.2989  0.5957  0.0718
  572MOL0     N77137   4.510   4.008   4.520  0.0357 -0.6600 -0.0169
  572MOL0     C77138   5.629   4.373   4.184 -0.8640 -0.3295  0.3191
  572MOL0     C77139   5.767   4.353   4.183  0.2271  0.2278 -0.2749
  572MOL0     C77140   6.186   4.302   4.297 -0.7723  0.6038  0.1712
  572MOL0     C77141   6.265   4.404   4.238 -0.2697  0.4066 -0.8972
  572MOL0     C77142   6.408   4.398   4.246  0.0436  0.6127 -0.2972
  572MOL0     C77143   6.476   4.278   4.294 -0.8189  1.4927 -0.6324
  572MOL0     O77144   6.610   4.270   4.278 -0.9331 -0.6923 -0.7198
  572MOL0     C77145   6.672   4.148   4.338 -1.1202  0.1252  0.4038
  572MOL0     C77146   6.821   4.167   4.365 -0.0324  0.2200  0.0027
  572MOL0     C77147   6.837   4.195   4.521 -0.1397  0.4278  0.3840
  572MOL0     C77148   6.983   4.229   4.558 -0.6056 -1.0243  0.6648
  572MOL0     C77149   7.025   4.188   4.685  0.0656 -0.1089 -1.4734
  572MOL0     C77150   7.091   4.157   4.779 -0.5673  0.3982  0.1869
  572MOL0     C77151   6.396   4.170   4.339 -0.4490  0.2165  0.1591
  572MOL0     C77152   6.258   4.191   4.346 -0.2803 -0.8349  0.5945
  572MOL0     H77153   5.876   4.645   4.310 -2.2689  2.2749  0.1846
  572MOL0     H77154   5.643   4.687   4.323  0.3533  0.3369  0.7469
  572MOL0     H77155   5.365   4.426   4.113  1.0339  2.0933 -0.4743
  572MOL0     H77156   5.355   4.338   4.266 -0.0384  0.2733  0.5195
  572MOL0     H77157   5.209   4.540   4.345 -0.2545  0.6556 -1.0369
  572MOL0     H77158   5.161   4.562   4.180 -0.7406  1.1049  1.4831
  572MOL0     H77159   5.102   4.317   4.166 -0.7918 -0.5868  0.1576
  572MOL0     H77160   5.116   4.316   4.340  1.9402 -3.5309 -2.2262
  572MOL0     H77161   4.929   4.478   4.354 -1.4203 -2.9881  1.5535
  572MOL0     H77162   4.952   4.509   4.170 -1.1583 -1.4718 -0.9074
  572MOL0     H77163   4.749   4.377   4.237  0.4689 -0.3473 -1.1497
  572MOL0     H77164   4.855   4.286   4.133 -2.8982 -0.1060 -0.0328
  572MOL0     H77165   4.943   4.159   4.329  2.1656  2.2117  2.0263
  572MOL0     H77166   4.876   4.281   4.436 -1.8794  1.6030 -0.4326
  572MOL0     H77167   4.711   4.096   4.247  2.4889 -2.0517 -0.7712
  572MOL0     H77168   4.764   4.053   4.404  0.5486 -1.0691 -0.5751
  572MOL0     H77169   4.577   4.296   4.362 -0.3364  1.1834  2.4120
  572MOL0     H77170   4.641   4.237   4.514  2.6693  1.5799 -1.2486
  572MOL0     H77171   4.370   4.154   4.258 -3.2618  0.5606  1.3595
  572MOL0     H77172   4.211   3.901   4.251  2.0254  0.2646  1.2527
  572MOL0     H77173   4.209   3.805   4.400  1.5169 -1.2538  0.0730
  572MOL0     H77174   3.977   3.914   4.367 -0.1952  0.4616 -0.7760
  572MOL0     H77175   4.049   4.065   4.329 -2.7931  0.9114  1.5991
  572MOL0     H77176   3.964   4.064   4.564  2.1285  2.2093  0.1129
  572MOL0     H77177   4.145   4.068   4.585  1.0645 -0.5724  2.1548
  572MOL0     H77178   4.154   3.857   4.654  0.5772  1.4203 -0.9338
  572MOL0     H77179   4.009   3.804   4.575  0.9927 -1.9303  0.5048
  572MOL0     H77180   3.950   4.007   4.975 -2.4490  1.7105  1.5277
  572MOL0     H77181   3.644   4.185   5.093  0.5793 -1.0658  1.9342
  572MOL0     H77182   3.790   4.107   5.145  0.6516 -2.2647 -2.2757
  572MOL0     H77183   3.793   4.269   5.051 -2.2953  0.7047 -0.3815
  572MOL0     H77184   3.362   4.287   4.984  1.0077 -0.9246 -0.3438
  572MOL0     H77185   3.180   4.451   5.035 -2.8308  0.7474 -0.4196
  572MOL0     H77186   3.032   4.713   4.706 -0.9558  2.3239  1.7507
  572MOL0     H77187   2.916   4.583   4.678  0.5833  0.4120 -0.2556
  572MOL0     H77188   2.892   4.755   4.934  1.4546 -3.3635  0.1951
  572MOL0     H77189   2.840   4.815   4.771 -0.6413  2.1513  1.4929
  572MOL0     H77190   2.706   4.564   4.885 -1.4195 -0.2847 -0.4228
  572MOL0     H77191   2.702   4.643   4.726  1.2599 -0.3696 -0.3599
  572MOL0     H77192   2.590   4.745   5.011  1.7138 -0.6842  0.2021
  572MOL0     H77193   2.639   4.859   4.879  1.9107 -1.0872 -4.3070
  572MOL0     H77194   2.422   4.651   4.859 -3.9486  2.6477 -0.6093
  572MOL0     H77195   2.476   4.752   4.722 -1.0233  0.9265 -0.2022
  572MOL0     H77196   2.320   4.818   4.975  1.1053  0.0831 -0.0732
  572MOL0     H77197   2.414   4.946   4.898 -0.7894  0.4568 -0.0015
  572MOL0     H77198   2.167   4.792   4.807 -0.6839  0.4173  0.6544
  572MOL0     H77199   2.259   4.885   4.684  1.3751  2.6946  0.2627
  572MOL0     H77200   2.162   5.010   4.940 -2.6059  1.3965  0.0349
  572MOL0     H77201   2.059   4.991   4.798 -0.0904  1.2488 -0.0145
  572MOL0     H77202   3.088   4.475   4.608  0.4109 -0.5716 -0.3109
  572MOL0     H77203   3.258   4.311   4.574  0.2569  0.7688 -0.4087
  572MOL0     H77204   3.584   4.061   4.650  0.5012  0.0817  0.5467
  572MOL0     H77205   3.762   3.878   4.610 -1.0815 -0.7260 -0.4469
  572MOL0     H77206   5.562   4.303   4.137 -1.0518  1.1453 -1.7271
  572MOL0     H77207   5.814   4.262   4.145  1.7290  0.5403  0.7313
  572MOL0     H77208   6.220   4.492   4.192 -0.9285  1.1920  1.1369
  572MOL0     H77209   6.480   4.467   4.202  0.4435 -1.2211 -2.7419
  572MOL0     H77210   6.624   4.123   4.433 -0.8048  0.1578  0.5721
  572MOL0     H77211   6.640   4.073   4.265 -2.9135  2.6280 -1.5681
  572MOL0     H77212   6.852   4.257   4.312 -2.6452  2.7866  2.5149
  572MOL0     H77213   6.876   4.073   4.348 -1.7330 -0.8603  0.2337
  572MOL0     H77214   6.811   4.101   4.569 -1.4999 -1.1503 -3.1031
  572MOL0     H77215   6.771   4.275   4.557  0.3222  0.6061  0.8529
  572MOL0     H77216   6.996   4.336   4.541 -1.4413 -1.1905 -1.4006
  572MOL0     H77217   7.058   4.173   4.502 -1.0359 -1.7294  0.7659
  572MOL0     H77218   7.148   4.124   4.864 -0.8990  0.6648  0.5172
  572MOL0     H77219   6.433   4.073   4.368  1.3035 -0.3905 -3.5715
  572MOL0     H77220   6.196   4.108   4.379 -0.9660 -0.4727  0.2253
  573MOL0     O77221   2.969   3.658   5.236  0.2534  0.0958 -0.9913
  573MOL0     C77222   2.969   3.623   5.119  1.0489  0.5980 -0.3271
  573MOL0     O77223   2.884   3.665   5.025  0.0047 -0.0487 -0.3493
  573MOL0     C77224   2.778   3.735   5.065 -0.1544 -0.5679  0.2557
  573MOL0     C77225   2.791   3.864   5.123 -0.4831 -0.4256  0.9367
  573MOL0     C77226   2.678   3.937   5.162  0.2309  0.1933 -0.8442
  573MOL0     C77227   2.546   3.881   5.147 -0.5434 -0.4502 -0.1633
  573MOL0     O77228   2.424   3.923   5.203  0.9139 -0.2201  0.5450
  573MOL0     C77229   2.428   4.050   5.268  0.0302  0.4578 -0.2124
  573MOL0     C77230   2.292   4.068   5.331 -0.3189  0.3118  0.2630
  573MOL0     C77231   2.242   4.212   5.352 -0.6339  0.0311 -0.1496
  573MOL0     C77232   2.121   4.224   5.455 -0.0471 -0.4471  0.3980
  573MOL0     C77233   2.049   4.352   5.438  0.0330 -0.0447 -0.2893
  573MOL0     C77234   1.968   4.364   5.305  0.9202 -0.6825  0.7291
  573MOL0     C77235   1.820   4.347   5.318 -0.7007 -0.0159  0.1601
  573MOL0     C77236   1.780   4.218   5.388  0.3762  0.2282  0.0345
  573MOL0     N77237   1.634   4.201   5.411  0.6178 -0.2291 -0.1327
  573MOL0     C77238   1.552   4.144   5.323  0.2447  0.2367  0.5474
  573MOL0     C77239   1.444   4.109   5.401 -0.6914 -0.0693 -0.2513
  573MOL0     C77240   1.329   4.029   5.342 -0.4394  0.1517 -0.0164
  573MOL0     C77241   1.204   4.109   5.379 -1.1671 -0.1312  0.2861
  573MOL0     C77242   1.082   4.024   5.339  0.3383  0.4470  0.2261
  573MOL0     C77243   0.954   4.099   5.369  0.0700  0.8952  0.3605
  573MOL0     O77244   0.842   4.011   5.340 -0.5407 -0.2265  0.1368
  573MOL0     C77245   0.713   4.060   5.354 -0.2621  0.0569  0.7166
  573MOL0     C77246   0.677   4.166   5.440 -0.1021 -0.4160 -0.2000
  573MOL0     C77247   0.539   4.211   5.445  0.2201 -0.7053 -0.1436
  573MOL0     C77248   0.518   4.330   5.544  0.0033  0.5132  0.0071
  573MOL0     C77249   0.435   4.144   5.381 -0.4677  0.2684 -0.5329
  573MOL0     C77250   0.291   4.178   5.394  0.2553  0.2846 -0.1163
  573MOL0     O77251   0.205   4.111   5.309  0.3760  0.4133 -0.0992
  573MOL0     C77252   0.077   4.104   5.345 -0.0895  0.5502 -0.0195
  573MOL0     C77253   0.040   4.029   5.453 -0.7852 -1.0084  0.7919
  573MOL0     C77254  -0.097   4.001   5.484 -0.4602 -0.3251  0.1618
  573MOL0     C77255  -0.197   4.061   5.403  0.3418  0.3243 -0.4190
  573MOL0     O77256  -0.335   4.031   5.439 -0.3057 -0.0599  0.2128
  573MOL0     C77257  -0.443   4.109   5.381 -0.4997 -0.2987 -0.2725
  573MOL0     C77258  -0.574   4.046   5.428  0.3309  0.2247  0.0763
  573MOL0     C77259  -0.708   4.110   5.397  0.5694  0.1521  0.1904
  573MOL0     C77260  -0.828   4.006   5.422  0.1452 -0.1790  0.5217
  573MOL0     C77261  -0.962   4.074   5.382 -0.1280 -0.1718  0.0193
  573MOL0     C77262  -1.074   3.994   5.433 -0.0625  0.8027 -0.4450
  573MOL0     C77263  -1.205   4.055   5.383  0.2614  0.3380 -0.4686
  573MOL0     C77264  -1.324   3.954   5.384  0.1206 -0.7514  0.3928
  573MOL0    Cl77265  -1.479   4.040   5.354  0.1017 -0.1207 -0.6002
  573MOL0     C77266  -0.157   4.134   5.290  0.4805  0.3577  0.9302
  573MOL0     C77267  -0.020   4.157   5.259 -0.0986 -0.3957 -0.2552
  573MOL0     O77268   0.259   4.265   5.474  0.1538  0.0840  1.1019
  573MOL0     C77269   0.479   4.034   5.302  0.5008 -0.2561  0.1921
  573MOL0     C77270   0.610   3.989   5.287  0.9668 -0.4878 -0.5388
  573MOL0     N77271   1.465   4.152   5.529 -0.1234  0.0178  0.3919
  573MOL0     N77272   1.581   4.201   5.536 -0.2128 -0.7649 -0.1691
  573MOL0     C77273   2.544   3.758   5.081  0.7395 -0.2521  0.2306
  573MOL0     C77274   2.653   3.689   5.035  0.0487  0.2216 -0.7065
  573MOL0     C77275   3.103   3.569   5.068  0.3214  0.5371 -0.0164
  573MOL0     C77276   3.219   3.572   5.154  0.0094 -0.4575  0.4845
  573MOL0     C77277   3.345   3.518   5.107 -0.3523 -0.1007 -0.2182
  573MOL0     C77278   3.361   3.475   4.976  0.4952 -0.4660 -0.0136
  573MOL0     O77279   3.474   3.442   4.916  0.0676  0.2705 -0.3709
  573MOL0     C77280   3.598   3.441   4.995  0.2328 -0.9322 -0.3148
  573MOL0     C77281   3.659   3.577   5.004 -0.6687  0.3974 -0.5019
  573MOL0     C77282   3.690   3.635   4.865 -0.1379 -0.2602  0.3636
  573MOL0     C77283   3.797   3.550   4.792 -0.0740  0.6363  0.1485
  573MOL0     C77284   3.751   3.485   4.672  0.1451 -1.0262 -0.0411
  573MOL0     C77285   3.721   3.425   4.571 -0.1598  0.4086  0.6070
  573MOL0     C77286   3.247   3.471   4.896  0.3239  0.4708  0.4336
  573MOL0     C77287   3.116   3.511   4.942  0.4025  0.3632 -0.1139
  573MOL0     H77288   2.892   3.901   5.140 -0.8776 -0.0267  2.5941
  573MOL0     H77289   2.690   4.033   5.212  0.0557 -0.4249  0.4177
  573MOL0     H77290   2.488   4.044   5.360  0.6335  0.1534 -0.6203
  573MOL0     H77291   2.450   4.125   5.192 -0.3648 -0.4804 -1.2784
  573MOL0     H77292   2.222   4.010   5.269 -1.9217  2.0975  0.3266
  573MOL0     H77293   2.296   4.019   5.429 -1.1361 -1.1456 -0.4006
  573MOL0     H77294   2.332   4.272   5.372  0.9582 -1.2397 -2.9580
  573MOL0     H77295   2.221   4.238   5.248  1.1057 -1.2694 -0.8747
  573MOL0     H77296   2.051   4.141   5.443 -2.1738  1.2889 -0.0442
  573MOL0     H77297   2.160   4.212   5.557  0.7946 -0.4224  0.0834
  573MOL0     H77298   1.980   4.374   5.520 -1.0680  1.6889 -1.6095
  573MOL0     H77299   2.119   4.436   5.442 -0.8733  0.6825  1.8506
  573MOL0     H77300   1.976   4.466   5.268  0.9084 -1.3927 -1.3549
  573MOL0     H77301   2.017   4.306   5.227 -1.5127  2.3444 -3.4376
  573MOL0     H77302   1.787   4.433   5.377  1.8210  1.8722 -0.9953
  573MOL0     H77303   1.778   4.339   5.217 -2.6362  0.3792  0.8889
  573MOL0     H77304   1.824   4.213   5.488 -0.6864  0.1091  0.5081
  573MOL0     H77305   1.818   4.130   5.335  0.6835  0.0084  0.6068
  573MOL0     H77306   1.571   4.116   5.220  2.4241  0.2385  0.8860
  573MOL0     H77307   1.326   4.015   5.234  3.0170 -3.6645  0.1760
  573MOL0     H77308   1.318   3.930   5.386 -2.6517  1.3205  2.3523
  573MOL0     H77309   1.217   4.207   5.333  1.9053  0.1555  1.5805
  573MOL0     H77310   1.212   4.128   5.486 -3.6020  1.1269  0.3260
  573MOL0     H77311   1.066   3.927   5.387 -1.1914  0.1255 -0.8557
  573MOL0     H77312   1.082   4.000   5.232  0.7963  2.3658 -0.2295
  573MOL0     H77313   0.959   4.191   5.311  0.1353  1.5393  1.3656
  573MOL0     H77314   0.965   4.112   5.477 -0.7449 -0.2260  0.5985
  573MOL0     H77315   0.755   4.230   5.479 -0.3490 -0.0500 -0.2939
  573MOL0     H77316   0.619   4.356   5.576  2.5206 -2.8503 -4.0889
  573MOL0     H77317   0.468   4.415   5.496  0.0602 -0.2694 -1.5303
  573MOL0     H77318   0.467   4.292   5.633 -0.1597  2.0736  0.5989
  573MOL0     H77319   0.119   4.001   5.521 -0.8617 -2.7238  0.2144
  573MOL0     H77320  -0.122   3.930   5.562 -0.9826  4.2774  4.7524
  573MOL0     H77321  -0.435   4.214   5.412 -1.8224 -0.9724  2.7005
  573MOL0     H77322  -0.431   4.095   5.273  1.8175  0.3082 -0.1536
  573MOL0     H77323  -0.578   3.942   5.394 -0.8847 -0.0013  0.8359
  573MOL0     H77324  -0.571   4.018   5.534  0.1388 -1.2054 -0.2664
  573MOL0     H77325  -0.709   4.118   5.288  2.2952 -0.6940  0.0694
  573MOL0     H77326  -0.717   4.206   5.448  1.1800  0.6856 -0.6874
  573MOL0     H77327  -0.804   3.919   5.359  2.9080  0.1550  0.9679
  573MOL0     H77328  -0.826   3.975   5.527  0.1970 -0.3347  0.4753
  573MOL0     H77329  -0.955   4.099   5.276  2.9676  3.9324  0.9278
  573MOL0     H77330  -0.959   4.170   5.433 -0.6407 -0.0123 -0.2434
  573MOL0     H77331  -1.057   3.889   5.408 -0.8830  0.0575  1.8949
  573MOL0     H77332  -1.076   3.992   5.543  2.9090  0.1473 -0.3268
  573MOL0     H77333  -1.198   4.085   5.278 -2.6562 -0.9202 -1.1440
  573MOL0     H77334  -1.226   4.138   5.452  1.6518 -0.0313  0.4166
  573MOL0     H77335  -1.325   3.911   5.484  0.4054  1.7356  1.5165
  573MOL0     H77336  -1.314   3.880   5.303 -0.5480 -1.3214  0.8240
  573MOL0     H77337  -0.230   4.174   5.220  0.7847 -1.4315 -0.4745
  573MOL0     H77338   0.013   4.207   5.169 -1.0815  0.9863  0.1151
  573MOL0     H77339   0.405   3.991   5.234  0.6697 -0.2876  0.0272
  573MOL0     H77340   0.628   3.898   5.231 -2.7096 -1.3608 -0.5780
  573MOL0     H77341   2.452   3.710   5.050  1.0007 -2.2474  2.2299
  573MOL0     H77342   2.641   3.598   4.977 -1.0782  0.1599 -0.3982
  573MOL0     H77343   3.221   3.613   5.254 -1.5518  0.6720  0.0905
  573MOL0     H77344   3.422   3.506   5.181 -2.1561 -4.0418  1.3364
  573MOL0     H77345   3.585   3.405   5.097  3.2137 -0.2759  0.3640
  573MOL0     H77346   3.670   3.370   4.954 -0.6554 -1.4824 -0.9865
  573MOL0     H77347   3.751   3.557   5.060  0.7778 -0.1811 -2.9354
  573MOL0     H77348   3.588   3.645   5.052 -1.6114  1.6187 -3.3581
  573MOL0     H77349   3.731   3.735   4.886  1.1238 -0.6508 -0.1553
  573MOL0     H77350   3.600   3.648   4.805  0.9417 -0.2153 -1.2973
  573MOL0     H77351   3.841   3.470   4.853  4.6454  1.6755 -1.5404
  573MOL0     H77352   3.877   3.615   4.757 -0.8473 -1.0055 -5.6087
  573MOL0     H77353   3.701   3.385   4.474 -0.2814  0.1968  0.7177
  573MOL0     H77354   3.269   3.428   4.799  0.0386  2.7005 -0.6944
  573MOL0     H77355   3.033   3.505   4.872  1.0455  0.1166 -0.8640
  574MOL0     O77356   7.506   7.318   2.185 -0.4748  0.2759 -0.3749
  574MOL0     C77357   7.487   7.439   2.192 -0.0381  0.9504  0.3439
  574MOL0     O77358   7.368   7.496   2.173  0.7805  0.3586  0.5142
  574MOL0     C77359   7.253   7.421   2.141  0.0340  0.4624 -0.0378
  574MOL0     C77360   7.185   7.333   2.227 -0.0596  0.0883  1.0320
  574MOL0     C77361   7.065   7.286   2.188 -0.1965  0.5828  0.8943
  574MOL0     C77362   7.011   7.319   2.067 -0.3222  0.8350 -0.2082
  574MOL0     O77363   6.890   7.265   2.035 -0.3071 -0.1423 -0.0786
  574MOL0     C77364   6.790   7.363   2.001 -0.8693 -0.2192  0.2127
  574MOL0     C77365   6.719   7.426   2.123 -0.2035 -0.0486 -0.1759
  574MOL0     C77366   6.662   7.318   2.214 -0.5561  0.4115 -0.4787
  574MOL0     C77367   6.557   7.232   2.147 -0.4169 -0.4312  0.1269
  574MOL0     C77368   6.503   7.152   2.264  0.8942  0.0583  0.5464
  574MOL0     C77369   6.388   7.071   2.213 -0.0173  0.3836  0.5121
  574MOL0     C77370   6.357   6.960   2.309 -0.0865  0.3413 -0.4655
  574MOL0     C77371   6.260   6.856   2.255  0.4137 -0.1485 -0.3781
  574MOL0     N77372   6.121   6.907   2.264  0.3580 -0.5843 -0.5518
  574MOL0     C77373   6.060   6.955   2.154 -0.5884  0.3259 -1.0311
  574MOL0     C77374   5.940   6.999   2.203 -0.1932  0.0040  0.2644
  574MOL0     C77375   5.840   7.069   2.119 -0.0772 -0.3903 -0.0276
  574MOL0     C77376   5.766   6.963   2.045  0.5883  0.0515 -0.9798
  574MOL0     C77377   5.692   6.860   2.146 -0.1958 -0.0478 -0.0493
  574MOL0     C77378   5.552   6.914   2.182 -0.3937 -0.3051  0.4144
  574MOL0     O77379   5.464   6.906   2.069  0.3098  0.1174 -0.1696
  574MOL0     C77380   5.339   6.963   2.084 -0.1911 -0.4595 -0.6622
  574MOL0     C77381   5.294   7.034   2.200  0.7385  0.1586 -0.3241
  574MOL0     C77382   5.157   7.086   2.213 -1.1899  0.3267  0.6732
  574MOL0     C77383   5.129   7.170   2.338  0.0492 -0.0592 -0.2086
  574MOL0     C77384   5.076   7.068   2.093  0.9418 -0.0079  1.1421
  574MOL0     C77385   4.932   7.120   2.091  0.4574 -0.1385  0.3854
  574MOL0     O77386   4.875   7.122   1.961 -0.7275  0.9482  0.1145
  574MOL0     C77387   4.746   7.136   1.925 -0.9407  0.0600 -0.1795
  574MOL0     C77388   4.654   7.074   2.009  0.3012 -0.3274 -0.9338
  574MOL0     C77389   4.520   7.064   1.964  0.0079  0.5245 -0.3065
  574MOL0     C77390   4.485   7.116   1.840  0.6579  0.2283  0.6033
  574MOL0     O77391   4.358   7.108   1.787  0.3169 -0.8128 -0.2711
  574MOL0     C77392   4.259   7.025   1.847 -0.0115 -0.3020  0.5194
  574MOL0     C77393   4.163   7.002   1.730 -0.4595 -0.0970  0.6185
  574MOL0     C77394   4.104   7.139   1.692 -0.6102  0.4379  1.1552
  574MOL0     C77395   3.989   7.118   1.592  0.5739  0.8230  0.8014
  574MOL0     C77396   3.923   7.254   1.535 -0.0836  0.2067  0.6355
  574MOL0     C77397   3.844   7.338   1.642 -0.4415 -0.7899  0.0297
  574MOL0     C77398   3.789   7.470   1.589 -0.3669 -0.7317 -0.0291
  574MOL0     C77399   3.673   7.515   1.678  0.4501 -0.6210  0.1661
  574MOL0    Cl77400   3.530   7.416   1.638 -0.2418 -0.0809 -0.2017
  574MOL0     C77401   4.582   7.179   1.763 -0.8923  0.4205  0.6387
  574MOL0     C77402   4.713   7.187   1.800 -0.6605 -0.2030 -0.7675
  574MOL0     O77403   4.871   7.155   2.193  0.7897  0.0343  0.1500
  574MOL0     C77404   5.127   7.012   1.984 -0.2139 -0.0047 -0.0065
  574MOL0     C77405   5.253   6.950   1.978  0.5673 -0.7222  0.2636
  574MOL0     N77406   5.931   6.971   2.332 -0.1138  0.2002 -0.8512
  574MOL0     N77407   6.042   6.921   2.372  0.1304  0.1416 -0.7889
  574MOL0     C77408   7.072   7.390   1.971 -0.9562 -0.0301  0.3268
  574MOL0     C77409   7.196   7.437   2.009  1.2670 -0.2044 -0.3855
  574MOL0     C77410   7.612   7.520   2.214 -0.1513  0.0809 -0.3376
  574MOL0     C77411   7.598   7.654   2.233  0.5091 -0.2589 -0.3119
  574MOL0     C77412   7.708   7.731   2.263  0.3419  0.1959 -0.3163
  574MOL0     C77413   7.836   7.677   2.279  0.2700  0.1418  0.7166
  574MOL0     O77414   7.931   7.764   2.308  0.0659  0.8215 -0.2702
  574MOL0     C77415   8.066   7.734   2.279  0.8466 -0.0522 -0.3624
  574MOL0     C77416   8.138   7.861   2.297 -0.1927 -0.6437 -0.2014
  574MOL0     C77417   8.295   7.846   2.292  0.0571 -0.0206 -0.1537
  574MOL0     C77418   8.359   7.961   2.362 -0.3540 -0.3042 -0.2839
  574MOL0     C77419   8.508   7.950   2.355 -0.0103 -0.8476  0.0461
  574MOL0     C77420   8.627   7.928   2.331 -0.0444  0.5021 -0.4574
  574MOL0     C77421   7.849   7.542   2.251 -0.6401 -0.5325  0.0706
  574MOL0     C77422   7.739   7.460   2.226 -0.5004 -0.3877 -0.1008
  574MOL0     H77423   7.230   7.301   2.321 -0.1131 -1.6138  0.5059
  574MOL0     H77424   7.021   7.216   2.258  2.4386  0.0815  2.1996
  574MOL0     H77425   6.830   7.440   1.933 -0.7756 -0.3474  0.1214
  574MOL0     H77426   6.711   7.315   1.943 -2.2966  0.8640  1.1947
  574MOL0     H77427   6.777   7.489   2.191 -0.7193  0.9029 -0.5987
  574MOL0     H77428   6.640   7.493   2.088 -1.0524  1.0015  3.3566
  574MOL0     H77429   6.742   7.260   2.262  0.1264  0.6142 -1.3552
  574MOL0     H77430   6.621   7.370   2.301  1.3732  3.1388 -1.0683
  574MOL0     H77431   6.487   7.303   2.101  0.9948  0.3982 -0.8350
  574MOL0     H77432   6.585   7.161   2.070 -1.5851  0.5096 -1.2141
  574MOL0     H77433   6.580   7.089   2.309  1.1083  0.5015  0.8060
  574MOL0     H77434   6.465   7.218   2.344  1.0411 -0.2721  0.8916
  574MOL0     H77435   6.312   7.146   2.191 -2.9704 -2.2672  1.0254
  574MOL0     H77436   6.417   7.024   2.119 -2.1871 -0.4060  0.1865
  574MOL0     H77437   6.451   6.904   2.311 -2.0880 -3.3605  0.9749
  574MOL0     H77438   6.332   6.982   2.414  1.8356 -0.3642  0.1803
  574MOL0     H77439   6.276   6.764   2.312 -0.8082  1.7136  3.2782
  574MOL0     H77440   6.291   6.838   2.151 -1.9926 -1.1603 -0.9732
  574MOL0     H77441   6.090   6.961   2.050 -0.5741  1.6125 -0.9750
  574MOL0     H77442   5.787   7.116   2.201  1.3489 -2.0584  1.9523
  574MOL0     H77443   5.886   7.138   2.047  2.9580 -4.6712 -2.7066
  574MOL0     H77444   5.833   6.902   1.984 -0.4932 -1.2671 -0.8826
  574MOL0     H77445   5.684   7.000   1.983 -0.4090 -0.2845  0.0944
  574MOL0     H77446   5.763   6.828   2.223  0.4420 -0.8403 -0.9402
  574MOL0     H77447   5.673   6.765   2.095 -2.3844  0.4575 -0.2932
  574MOL0     H77448   5.565   7.021   2.197  2.5221 -0.6148  0.7695
  574MOL0     H77449   5.515   6.866   2.273  1.5945  0.4273  1.6885
  574MOL0     H77450   5.359   7.029   2.286  0.8603 -0.6818 -0.4581
  574MOL0     H77451   5.092   7.268   2.309  0.4573  0.3571  0.6386
  574MOL0     H77452   5.057   7.127   2.408  0.9186  2.3646  2.3313
  574MOL0     H77453   5.218   7.189   2.398 -1.1902 -1.1476  2.1023
  574MOL0     H77454   4.673   7.032   2.107 -0.0526  2.5389  0.4434
  574MOL0     H77455   4.437   7.032   2.027  1.1723 -0.7949  0.6288
  574MOL0     H77456   4.300   6.936   1.896  0.6500  0.7759  1.9767
  574MOL0     H77457   4.220   7.080   1.933  0.2358  0.0293  0.4221
  574MOL0     H77458   4.199   6.955   1.638 -1.8602  1.2850 -0.6995
  574MOL0     H77459   4.086   6.937   1.773 -0.1764 -2.4749 -2.1680
  574MOL0     H77460   4.184   7.198   1.646  1.0843 -3.0502 -0.8017
  574MOL0     H77461   4.062   7.184   1.782 -0.8524 -1.3255  1.9826
  574MOL0     H77462   4.022   7.074   1.498 -2.0843  1.1724 -0.3804
  574MOL0     H77463   3.906   7.056   1.627  1.3908 -0.9633 -0.3191
  574MOL0     H77464   3.858   7.235   1.449 -0.4236 -0.1883  0.9723
  574MOL0     H77465   4.001   7.321   1.500 -0.6520 -0.3242 -1.8008
  574MOL0     H77466   3.760   7.278   1.678  0.1599 -2.0951 -0.6664
  574MOL0     H77467   3.904   7.368   1.729 -1.4903 -0.2766  0.5943
  574MOL0     H77468   3.745   7.447   1.492  0.7787 -0.1101 -0.7145
  574MOL0     H77469   3.869   7.545   1.580 -0.0143 -0.7844  2.0417
  574MOL0     H77470   3.650   7.621   1.664  1.3300 -0.3953  0.3850
  574MOL0     H77471   3.702   7.503   1.783  0.5791 -0.5117  0.1440
  574MOL0     H77472   4.556   7.234   1.672  0.7640 -0.1506 -0.2097
  574MOL0     H77473   4.788   7.239   1.741 -1.0138  1.6788  0.3704
  574MOL0     H77474   5.059   6.987   1.903 -1.5168 -2.3276  1.6952
  574MOL0     H77475   5.276   6.893   1.888  3.4188 -1.3883  1.3116
  574MOL0     H77476   7.044   7.395   1.866  0.4019  1.0991 -0.0109
  574MOL0     H77477   7.241   7.501   1.933 -0.0849 -0.3308 -1.3191
  574MOL0     H77478   7.504   7.701   2.207  0.1190 -0.3202  0.9370
  574MOL0     H77479   7.700   7.839   2.266  0.6920  0.2200 -0.2243
  574MOL0     H77480   8.102   7.656   2.346  3.7354  1.7698  0.4340
  574MOL0     H77481   8.078   7.689   2.180  1.9121 -2.9762  1.0025
  574MOL0     H77482   8.102   7.910   2.388 -1.4461 -0.4385 -0.7882
  574MOL0     H77483   8.111   7.922   2.211  0.1625 -2.0073 -1.3122
  574MOL0     H77484   8.317   7.851   2.185  0.6870 -0.5442 -0.0533
  574MOL0     H77485   8.328   7.749   2.332  3.1491  0.5107 -1.1850
  574MOL0     H77486   8.335   7.960   2.468 -0.9500 -0.5991 -0.4117
  574MOL0     H77487   8.332   8.059   2.322  3.2515  2.4101  3.2327
  574MOL0     H77488   8.721   7.903   2.286  0.0033  3.2461 -2.1720
  574MOL0     H77489   7.949   7.502   2.235  0.4593  1.7747  0.6606
  574MOL0     H77490   7.759   7.359   2.193 -0.4521 -0.3908 -0.0621
  575MOL0     O77491   3.569   7.001   7.232 -0.2863 -0.0639 -0.1032
  575MOL0     C77492   3.601   7.013   7.348  0.4481 -0.9070  0.5614
  575MOL0     O77493   3.531   6.972   7.457 -0.6474 -0.3086  0.5046
  575MOL0     C77494   3.410   6.911   7.446 -0.1111 -0.1513  0.7548
  575MOL0     C77495   3.392   6.806   7.536  0.5498 -0.2819  0.1885
  575MOL0     C77496   3.286   6.716   7.526 -0.4935  0.4888 -0.5533
  575MOL0     C77497   3.190   6.741   7.426 -0.2914  0.2504  0.0441
  575MOL0     O77498   3.074   6.666   7.420 -0.0211  0.4764  0.4172
  575MOL0     C77499   3.032   6.584   7.528 -1.2173 -0.2136 -0.4810
  575MOL0     C77500   2.896   6.525   7.490  0.5672  0.1599 -0.9460
  575MOL0     C77501   2.875   6.461   7.353 -0.2787  0.0069 -0.1191
  575MOL0     C77502   2.755   6.367   7.343  0.3530 -0.7599  0.1327
  575MOL0     C77503   2.758   6.238   7.431 -0.1406  0.0124 -0.1996
  575MOL0     C77504   2.856   6.134   7.391  0.6311  0.2741  0.3737
  575MOL0     C77505   2.828   6.089   7.251 -0.7051 -0.1019 -0.1493
  575MOL0     C77506   2.889   5.949   7.224  0.8296 -0.2360 -0.1451
  575MOL0     N77507   2.808   5.878   7.123 -0.3851 -0.4183 -0.6220
  575MOL0     C77508   2.688   5.810   7.141  0.1173 -0.2550  0.9782
  575MOL0     C77509   2.655   5.782   7.015 -0.2554 -0.3437  0.5389
  575MOL0     C77510   2.543   5.688   6.978 -0.3007 -0.8173  0.7326
  575MOL0     C77511   2.405   5.700   7.055 -0.1240  0.5005 -0.4751
  575MOL0     C77512   2.308   5.590   7.009  0.3350  0.7777 -1.0491
  575MOL0     C77513   2.180   5.591   7.099 -0.0321 -0.3458 -0.0566
  575MOL0     O77514   2.127   5.725   7.095 -0.4628 -0.1644  0.0026
  575MOL0     C77515   2.002   5.728   7.158 -0.2526 -0.5861  0.3935
  575MOL0     C77516   1.974   5.667   7.281  0.0365 -0.1135  0.3440
  575MOL0     C77517   1.838   5.666   7.333 -1.0539  0.3099  0.3942
  575MOL0     C77518   1.805   5.562   7.436  0.0379  0.0747  0.4359
  575MOL0     C77519   1.740   5.753   7.273 -0.3733 -0.7621 -1.0288
  575MOL0     C77520   1.605   5.781   7.330 -0.7110 -0.4320 -0.4550
  575MOL0     O77521   1.503   5.815   7.248 -0.2968 -0.8940  0.0230
  575MOL0     C77522   1.368   5.807   7.289 -0.1231 -0.2716 -0.7296
  575MOL0     C77523   1.274   5.753   7.194 -1.1133  0.0043 -1.3255
  575MOL0     C77524   1.144   5.754   7.222 -0.1489  0.3013 -0.0765
  575MOL0     C77525   1.089   5.810   7.333  0.2309 -0.1959 -1.0473
  575MOL0     O77526   0.950   5.810   7.342 -0.2133 -0.3926 -0.3278
  575MOL0     C77527   0.878   5.867   7.455 -1.1166 -0.1520  0.2320
  575MOL0     C77528   0.752   5.793   7.482  0.2722  0.2102 -0.0462
  575MOL0     C77529   0.747   5.639   7.454  0.8998  0.4667  1.2067
  575MOL0     C77530   0.608   5.590   7.426  0.2056 -0.3333 -0.1845
  575MOL0     C77531   0.598   5.442   7.433  0.3120 -0.6011 -0.7540
  575MOL0     C77532   0.465   5.395   7.381 -1.1706  0.3848 -0.1055
  575MOL0     C77533   0.481   5.337   7.236 -0.7837 -0.9787  0.1874
  575MOL0     C77534   0.409   5.207   7.218  0.0616 -0.9673 -0.4901
  575MOL0    Cl77535   0.232   5.237   7.236 -0.1808 -0.0306 -0.2066
  575MOL0     C77536   1.177   5.863   7.433 -0.4978 -1.1167  0.1944
  575MOL0     C77537   1.320   5.854   7.413  0.1259 -0.8715 -0.3810
  575MOL0     O77538   1.598   5.767   7.449 -0.4808  0.3014  0.7552
  575MOL0     C77539   1.767   5.806   7.152 -0.4512 -0.1069 -0.1345
  575MOL0     C77540   1.895   5.796   7.096  0.4698 -0.4684  0.8472
  575MOL0     N77541   2.743   5.838   6.929  0.4677 -0.3444  0.5091
  575MOL0     N77542   2.833   5.903   6.994  0.2285 -0.1723  0.2741
  575MOL0     C77543   3.207   6.849   7.340  0.0719 -1.2730  0.8385
  575MOL0     C77544   3.318   6.927   7.338 -0.3523  0.7731  0.1068
  575MOL0     C77545   3.720   7.080   7.373  0.4202 -0.0452 -0.1342
  575MOL0     C77546   3.793   7.122   7.262 -0.5914 -0.7809  0.1957
  575MOL0     C77547   3.911   7.205   7.280  0.4660 -0.0976 -0.1045
  575MOL0     C77548   3.967   7.233   7.400  0.0025 -0.2266 -1.4224
  575MOL0     O77549   4.083   7.308   7.407 -0.1280  0.0394 -0.2566
  575MOL0     C77550   4.199   7.220   7.411 -0.7218 -0.2484  0.4047
  575MOL0     C77551   4.322   7.270   7.330  0.2601 -0.3453 -0.6969
  575MOL0     C77552   4.309   7.243   7.180 -0.6497  0.4605  0.4907
  575MOL0     C77553   4.419   7.311   7.108  1.1347  0.6859 -0.1949
  575MOL0     C77554   4.534   7.227   7.107  0.1456 -0.1628 -0.3958
  575MOL0     C77555   4.640   7.166   7.099  0.3740 -0.0755  0.6771
  575MOL0     C77556   3.887   7.201   7.519 -0.5731  0.3512  0.1776
  575MOL0     C77557   3.768   7.125   7.498  0.5022 -0.1173 -0.7025
  575MOL0     H77558   3.471   6.797   7.609 -0.1878  1.4623  1.2803
  575MOL0     H77559   3.293   6.628   7.589  1.1650  0.1907 -1.0806
  575MOL0     H77560   3.110   6.511   7.552  0.6643  1.6553 -0.6178
  575MOL0     H77561   3.016   6.654   7.611 -4.1916  0.4153 -1.4685
  575MOL0     H77562   2.878   6.447   7.565  1.0575 -1.9359 -2.8893
  575MOL0     H77563   2.824   6.605   7.507  2.0675  1.1888  0.7971
  575MOL0     H77564   2.872   6.538   7.275  2.4868  1.5289  1.1409
  575MOL0     H77565   2.968   6.406   7.336  0.1030  0.2528  1.0974
  575MOL0     H77566   2.671   6.431   7.370  1.3263  1.1217 -0.9983
  575MOL0     H77567   2.760   6.341   7.237 -1.9870 -0.7000 -0.0455
  575MOL0     H77568   2.790   6.266   7.532 -1.0837  2.2923 -0.4523
  575MOL0     H77569   2.658   6.194   7.436 -0.7657  0.4085 -4.6164
  575MOL0     H77570   2.964   6.150   7.398  1.1914 -2.6362 -0.0551
  575MOL0     H77571   2.844   6.059   7.470  0.4707 -0.0384  0.0587
  575MOL0     H77572   2.720   6.073   7.244 -0.9804  0.9602  1.2632
  575MOL0     H77573   2.851   6.159   7.170 -2.9662  0.1280 -0.6479
  575MOL0     H77574   2.889   5.895   7.319 -1.3280 -0.3042 -0.1294
  575MOL0     H77575   2.996   5.955   7.204  0.6105 -2.2436 -2.4442
  575MOL0     H77576   2.643   5.778   7.235 -0.2294  3.7118  2.3494
  575MOL0     H77577   2.519   5.681   6.872  1.7056 -0.8015  0.2302
  575MOL0     H77578   2.582   5.593   7.014  3.1840  0.3243  0.3425
  575MOL0     H77579   2.359   5.798   7.038  1.0543  0.9899 -0.9329
  575MOL0     H77580   2.417   5.676   7.160  0.2641 -3.1597 -1.2416
  575MOL0     H77581   2.349   5.492   7.036  3.0331  1.8983 -0.7210
  575MOL0     H77582   2.289   5.594   6.901  1.4941 -1.5814 -1.4160
  575MOL0     H77583   2.219   5.558   7.195 -0.6083 -3.0293 -0.6697
  575MOL0     H77584   2.115   5.507   7.072  0.1256 -0.6086  0.3842
  575MOL0     H77585   2.050   5.606   7.329  0.9546 -1.2593 -2.3488
  575MOL0     H77586   1.715   5.503   7.418  0.3759  0.3167 -2.5050
  575MOL0     H77587   1.895   5.499   7.438  1.1414  1.3342 -2.8202
  575MOL0     H77588   1.806   5.611   7.534  0.2312 -2.5131  1.8182
  575MOL0     H77589   1.320   5.712   7.104  3.2925 -1.5875  1.3376
  575MOL0     H77590   1.080   5.717   7.142 -0.0321  0.0680 -0.0643
  575MOL0     H77591   0.933   5.864   7.549  0.1487 -1.3258 -0.4992
  575MOL0     H77592   0.865   5.972   7.428 -3.5118 -1.2574 -3.7245
  575MOL0     H77593   0.730   5.798   7.589 -4.2250  4.5137 -0.8147
  575MOL0     H77594   0.669   5.835   7.425  0.5871  0.7504 -0.1107
  575MOL0     H77595   0.782   5.583   7.541 -4.5258  0.5564  3.8656
  575MOL0     H77596   0.805   5.618   7.364 -0.3561  1.1590  0.1940
  575MOL0     H77597   0.549   5.634   7.507 -0.0618  1.2867 -1.2142
  575MOL0     H77598   0.569   5.621   7.329  1.3103 -3.1028 -1.6477
  575MOL0     H77599   0.621   5.419   7.537  0.8838  1.4554 -0.3667
  575MOL0     H77600   0.690   5.399   7.393  2.9310  2.3430  1.6109
  575MOL0     H77601   0.432   5.309   7.439  2.0084 -0.1859  1.0922
  575MOL0     H77602   0.390   5.474   7.391 -0.4224  1.3741 -1.8107
  575MOL0     H77603   0.586   5.306   7.228  0.4843  2.6291  1.0334
  575MOL0     H77604   0.439   5.406   7.163 -0.6181  0.3075  1.2787
  575MOL0     H77605   0.450   5.140   7.294 -0.5706 -0.7575  0.0450
  575MOL0     H77606   0.430   5.169   7.117 -2.0104  1.4848 -1.9537
  575MOL0     H77607   1.145   5.901   7.530  0.6082 -0.9359  0.5042
  575MOL0     H77608   1.384   5.898   7.489 -1.2577 -1.3534  1.1352
  575MOL0     H77609   1.684   5.847   7.095  0.3323 -0.6678 -1.7503
  575MOL0     H77610   1.896   5.840   6.997 -1.9893  0.4212  1.1434
  575MOL0     H77611   3.133   6.865   7.262  1.4035 -0.3816 -0.2958
  575MOL0     H77612   3.322   6.994   7.253  0.1265  0.4968 -0.0949
  575MOL0     H77613   3.775   7.109   7.156 -2.7174  0.0411  0.4046
  575MOL0     H77614   3.966   7.244   7.195  1.0453 -0.9395 -0.1316
  575MOL0     H77615   4.234   7.207   7.514 -2.2593 -2.9136  0.6705
  575MOL0     H77616   4.167   7.119   7.386 -1.0223 -0.6027  2.1223
  575MOL0     H77617   4.410   7.219   7.369  2.5989  2.5091 -1.7997
  575MOL0     H77618   4.333   7.377   7.354 -1.3152 -0.3975  0.4979
  575MOL0     H77619   4.217   7.292   7.146  0.7405  2.8337 -0.0691
  575MOL0     H77620   4.318   7.138   7.152  0.1939  0.8881 -0.9821
  575MOL0     H77621   4.442   7.402   7.165 -0.3490 -1.1215  3.6760
  575MOL0     H77622   4.377   7.331   7.009 -1.0833  0.8626  0.7214
  575MOL0     H77623   4.728   7.104   7.102 -0.1157 -0.8313 -0.0759
  575MOL0     H77624   3.918   7.219   7.621  0.7407  1.2278 -0.3518
  575MOL0     H77625   3.721   7.086   7.587  0.1861  1.1559 -0.2832
  576MOL0     O77626   0.852   2.609   5.286 -0.3390  0.4934  0.1609
  576MOL0     C77627   0.936   2.658   5.365 -0.4073 -0.5027 -0.0511
  576MOL0     O77628   0.900   2.746   5.475 -0.3059  0.6818  0.5543
  576MOL0     C77629   0.767   2.768   5.487 -0.9418 -0.7246  0.7077
  576MOL0     C77630   0.674   2.670   5.508  0.1970  0.1231  0.3934
  576MOL0     C77631   0.542   2.697   5.533  0.5241 -0.6686 -0.2716
  576MOL0     C77632   0.489   2.830   5.537  0.2741  0.2118 -0.7162
  576MOL0     O77633   0.356   2.855   5.554  0.1880 -0.1670  0.0104
  576MOL0     C77634   0.295   2.986   5.531  0.0649  0.2178  0.7462
  576MOL0     C77635   0.140   2.973   5.533 -0.3120  0.5014  0.4417
  576MOL0     C77636   0.083   2.881   5.412 -0.1989 -0.6696  0.0274
  576MOL0     C77637  -0.065   2.912   5.363 -0.2070  0.2766 -0.4908
  576MOL0     C77638  -0.124   2.868   5.219 -0.1203  0.3028 -0.8310
  576MOL0     C77639  -0.081   2.732   5.158 -0.4464 -0.7215 -0.0118
  576MOL0     C77640  -0.139   2.616   5.243 -0.3731  0.4678  0.3774
  576MOL0     C77641  -0.103   2.487   5.168  0.0617  0.2432 -0.1191
  576MOL0     N77642  -0.189   2.379   5.221 -0.2767 -0.5308  0.1972
  576MOL0     C77643  -0.215   2.351   5.357 -0.0930 -0.1570  0.3011
  576MOL0     C77644  -0.260   2.220   5.350  1.2415 -0.2691 -0.4269
  576MOL0     C77645  -0.329   2.140   5.469 -0.3114 -1.1230 -0.2475
  576MOL0     C77646  -0.466   2.195   5.494  0.7183 -0.3223 -0.2218
  576MOL0     C77647  -0.544   2.119   5.600  0.1084 -0.2264 -0.3827
  576MOL0     C77648  -0.665   2.201   5.662 -0.4714  0.6271  0.5944
  576MOL0     O77649  -0.749   2.269   5.564  0.4745  0.3870 -0.9033
  576MOL0     C77650  -0.871   2.221   5.541  0.2397  1.3627  1.5499
  576MOL0     C77651  -0.945   2.296   5.445  0.3273  0.3667 -0.4458
  576MOL0     C77652  -1.069   2.252   5.396  0.7033  0.0888  0.6633
  576MOL0     C77653  -1.138   2.339   5.290 -0.4502  0.1920  1.2912
  576MOL0     C77654  -1.128   2.130   5.440 -0.8272 -0.2694 -0.8364
  576MOL0     C77655  -1.260   2.067   5.405 -0.7179 -0.0846 -0.0511
  576MOL0     O77656  -1.318   2.099   5.288  0.2842 -0.2840 -0.6831
  576MOL0     C77657  -1.452   2.081   5.283 -0.4504  0.7804  0.1735
  576MOL0     C77658  -1.545   2.177   5.301 -0.1435  0.4425 -0.2662
  576MOL0     C77659  -1.687   2.143   5.282 -0.4004 -0.0517  0.1763
  576MOL0     C77660  -1.729   2.015   5.248  0.5567  0.2990 -0.0081
  576MOL0     O77661  -1.866   1.983   5.241 -0.4471 -0.1220 -0.0797
  576MOL0     C77662  -1.930   2.030   5.123  0.7403 -0.2756  0.1757
  576MOL0     C77663  -2.076   2.046   5.148  0.1915 -0.8903  0.0785
  576MOL0     C77664  -2.148   2.091   5.029  1.0475  0.7955  0.1735
  576MOL0     C77665  -2.236   2.211   5.055 -0.3693 -0.3011 -0.2777
  576MOL0     C77666  -2.295   2.265   4.924 -0.0507  0.4288 -0.5494
  576MOL0     C77667  -2.435   2.333   4.952 -0.6733  0.4065 -0.2380
  576MOL0     C77668  -2.430   2.461   5.036  0.6557 -0.6811 -0.0048
  576MOL0     C77669  -2.537   2.559   4.994  0.0188  0.3828 -0.1170
  576MOL0    Cl77670  -2.489   2.724   5.046  0.1415  0.0374 -0.1656
  576MOL0     C77671  -1.632   1.913   5.239  0.6463  0.2984  0.6257
  576MOL0     C77672  -1.498   1.952   5.258  0.1008  0.5526 -0.1667
  576MOL0     O77673  -1.312   1.989   5.487  0.1181 -0.6228  0.3780
  576MOL0     C77674  -1.057   2.061   5.546 -0.1495  0.0342 -0.2243
  576MOL0     C77675  -0.931   2.112   5.599  0.4731  0.2526 -0.1803
  576MOL0     N77676  -0.256   2.171   5.219  0.7625 -0.1950 -0.5562
  576MOL0     N77677  -0.222   2.264   5.143  0.1803  0.6277  0.3816
  576MOL0     C77678   0.580   2.931   5.524 -0.6930  0.7280 -1.6883
  576MOL0     C77679   0.723   2.901   5.502  1.1391 -0.4929  0.1108
  576MOL0     C77680   1.079   2.633   5.349  0.2580 -0.5746 -0.8186
  576MOL0     C77681   1.175   2.708   5.418  0.0581  0.3739  0.6435
  576MOL0     C77682   1.308   2.687   5.409  0.1456 -1.0344  0.0327
  576MOL0     C77683   1.361   2.584   5.331  1.0549 -0.3874  0.0340
  576MOL0     O77684   1.494   2.566   5.312 -0.1584  0.0057  0.0740
  576MOL0     C77685   1.586   2.624   5.401 -0.9451 -0.2189 -0.4580
  576MOL0     C77686   1.734   2.572   5.379 -0.1557 -1.0530  1.0596
  576MOL0     C77687   1.782   2.610   5.232  0.4822  0.0448 -1.1531
  576MOL0     C77688   1.933   2.574   5.222  0.1250  0.1139  0.1555
  576MOL0     C77689   1.989   2.611   5.094  0.0122 -0.5231  1.0576
  576MOL0     C77690   2.030   2.623   4.978 -0.5421 -0.2563  0.3092
  576MOL0     C77691   1.267   2.507   5.265 -0.0967 -0.3550  0.5584
  576MOL0     C77692   1.124   2.526   5.277 -0.0508  0.5053  0.2660
  576MOL0     H77693   0.696   2.564   5.506  0.0238  0.0336  1.9072
  576MOL0     H77694   0.472   2.617   5.554  0.7083 -0.7738 -0.0488
  576MOL0     H77695   0.333   3.064   5.598  2.3069  2.1914 -2.5382
  576MOL0     H77696   0.318   3.023   5.430 -1.5559  0.8260  0.5744
  576MOL0     H77697   0.121   2.936   5.634 -1.7834  0.6520  0.2358
  576MOL0     H77698   0.089   3.068   5.515 -0.4716 -0.1625 -3.3440
  576MOL0     H77699   0.154   2.891   5.330 -0.0002 -1.5894  0.0782
  576MOL0     H77700   0.094   2.775   5.437  0.5779 -0.5270  0.3275
  576MOL0     H77701  -0.137   2.885   5.440  1.9460  0.2207  1.6297
  576MOL0     H77702  -0.071   3.021   5.372  1.8693  0.2626  2.6540
  576MOL0     H77703  -0.232   2.885   5.228  0.2699  3.1262 -0.3006
  576MOL0     H77704  -0.087   2.939   5.144 -2.6134  1.8116 -0.7683
  576MOL0     H77705  -0.128   2.719   5.060  1.6560  1.7153 -1.4594
  576MOL0     H77706   0.027   2.724   5.142 -0.5125 -0.6444 -0.4921
  576MOL0     H77707  -0.085   2.612   5.337  0.1719  0.5772  0.0723
  576MOL0     H77708  -0.246   2.624   5.264 -0.7065 -2.6203  0.2510
  576MOL0     H77709  -0.002   2.454   5.193 -1.1975 -2.2783  1.9840
  576MOL0     H77710  -0.090   2.497   5.059  0.9898 -1.3917 -0.1838
  576MOL0     H77711  -0.217   2.420   5.441  3.3578 -0.1546  0.5136
  576MOL0     H77712  -0.339   2.034   5.446 -1.0447 -1.0284 -0.3741
  576MOL0     H77713  -0.267   2.138   5.559  2.2477  0.7443 -1.8379
  576MOL0     H77714  -0.527   2.207   5.404 -1.4499 -0.5877  1.1130
  576MOL0     H77715  -0.451   2.296   5.533  2.3913 -1.0663  1.1959
  576MOL0     H77716  -0.477   2.084   5.679 -0.1979  1.3224  0.6044
  576MOL0     H77717  -0.590   2.026   5.563  1.0394 -0.0477 -2.1018
  576MOL0     H77718  -0.621   2.284   5.717 -3.1448  0.6552  2.9462
  576MOL0     H77719  -0.725   2.142   5.733 -0.3671 -0.8915 -0.5146
  576MOL0     H77720  -0.910   2.393   5.411 -0.4600  0.1366 -2.0003
  576MOL0     H77721  -1.207   2.297   5.217  0.0922  2.5429 -0.7472
  576MOL0     H77722  -1.185   2.424   5.340 -0.6176  1.4922 -0.9248
  576MOL0     H77723  -1.062   2.372   5.218  0.8713  1.2908  3.0809
  576MOL0     H77724  -1.529   2.284   5.309 -3.3874  1.0776 -0.5386
  576MOL0     H77725  -1.764   2.217   5.302 -0.7326 -0.6240  1.0583
  576MOL0     H77726  -1.888   2.124   5.086  0.7461  0.3886  1.7807
  576MOL0     H77727  -1.911   1.951   5.050  0.8199 -0.3705  0.2985
  576MOL0     H77728  -2.108   1.948   5.184 -2.7554 -0.2689 -0.6333
  576MOL0     H77729  -2.084   2.117   5.231  1.4793  1.0196 -1.3317
  576MOL0     H77730  -2.217   2.018   4.985  1.4093 -0.9258  2.2608
  576MOL0     H77731  -2.084   2.117   4.944  0.9809 -1.4442 -0.6302
  576MOL0     H77732  -2.310   2.189   5.133  1.6880 -1.6238  1.4131
  576MOL0     H77733  -2.174   2.288   5.101 -0.7556  1.3825 -2.4037
  576MOL0     H77734  -2.322   2.186   4.853  0.2549  0.4343 -0.6700
  576MOL0     H77735  -2.225   2.335   4.878  1.5745 -1.3230 -0.8396
  576MOL0     H77736  -2.483   2.344   4.854  0.4178 -0.8383 -0.9463
  576MOL0     H77737  -2.485   2.249   5.001  0.9523 -0.9478 -0.8100
  576MOL0     H77738  -2.332   2.509   5.025  0.7594 -0.9801 -0.3964
  576MOL0     H77739  -2.431   2.444   5.144  0.4156 -0.0116  0.1059
  576MOL0     H77740  -2.636   2.535   5.034  0.5906 -2.7290 -0.2843
  576MOL0     H77741  -2.540   2.555   4.884 -2.3348 -3.0808 -0.0940
  576MOL0     H77742  -1.651   1.810   5.213  0.9457  0.6073 -0.9402
  576MOL0     H77743  -1.424   1.872   5.251  0.1175  0.6632 -1.5579
  576MOL0     H77744  -1.105   1.982   5.602 -1.0987  0.4670 -0.4104
  576MOL0     H77745  -0.893   2.044   5.675 -0.9148 -1.6643 -1.1271
  576MOL0     H77746   0.557   3.036   5.534 -0.0748  0.6499  1.4582
  576MOL0     H77747   0.793   2.978   5.471  0.3276 -0.1550 -0.9405
  576MOL0     H77748   1.131   2.787   5.478 -1.6867 -0.9366  1.1896
  576MOL0     H77749   1.369   2.753   5.469 -2.0422  2.1880 -1.0491
  576MOL0     H77750   1.588   2.733   5.392  0.3983 -0.0262  1.5571
  576MOL0     H77751   1.563   2.596   5.504  3.0447 -0.3856  0.5488
  576MOL0     H77752   1.731   2.464   5.389  0.0151 -1.0642  0.9963
  576MOL0     H77753   1.797   2.616   5.457 -0.8703 -1.5650  1.9383
  576MOL0     H77754   1.775   2.718   5.223  2.3039  0.1054 -2.3583
  576MOL0     H77755   1.719   2.565   5.154  0.9707 -1.3482 -0.7822
  576MOL0     H77756   1.944   2.467   5.242 -1.3703 -0.8048 -3.2111
  576MOL0     H77757   1.998   2.641   5.279  4.4855 -3.3082 -0.3208
  576MOL0     H77758   2.048   2.636   4.873  0.4733  0.8690  0.6123
  576MOL0     H77759   1.301   2.427   5.199 -0.0647 -1.1591  1.5354
  576MOL0     H77760   1.049   2.466   5.227 -1.5768  2.0326  0.6097
  577MOL0     O77761   1.434   5.367   5.900 -0.2645  0.9001  0.7076
  577MOL0     C77762   1.475   5.342   5.786  0.9781  0.6921 -0.0459
  577MOL0     O77763   1.403   5.359   5.667  0.6909 -1.0587 -0.3964
  577MOL0     C77764   1.272   5.408   5.670 -0.5793  0.2539  0.6899
  577MOL0     C77765   1.214   5.418   5.542 -0.4021  0.0685  0.6034
  577MOL0     C77766   1.091   5.473   5.519 -0.0732 -0.8139 -0.0836
  577MOL0     C77767   1.009   5.520   5.627  0.0155  0.1231  0.0740
  577MOL0     O77768   0.892   5.581   5.597  0.6003 -0.2462 -0.0776
  577MOL0     C77769   0.855   5.691   5.690  0.5724  0.3402 -0.5615
  577MOL0     C77770   0.739   5.787   5.643 -0.6673  0.2695 -0.1263
  577MOL0     C77771   0.626   5.708   5.576  0.4943 -0.1880  0.1048
  577MOL0     C77772   0.494   5.792   5.573 -0.1251  0.6249  0.0011
  577MOL0     C77773   0.389   5.753   5.470 -0.3921  0.0608  0.2693
  577MOL0     C77774   0.261   5.841   5.464 -0.1458  0.0447 -0.2435
  577MOL0     C77775   0.177   5.838   5.587 -0.1382 -0.3946  0.8010
  577MOL0     C77776   0.108   5.703   5.599 -0.8575 -0.2847  0.2711
  577MOL0     N77777   0.005   5.714   5.705  0.3043 -0.1398  0.2862
  577MOL0     C77778  -0.123   5.759   5.683 -0.5678 -0.3210 -0.0290
  577MOL0     C77779  -0.185   5.742   5.796  0.5064  0.4723  0.0374
  577MOL0     C77780  -0.336   5.757   5.799  0.2731 -0.1918 -0.2936
  577MOL0     C77781  -0.390   5.876   5.878 -0.0891 -0.0055 -0.2227
  577MOL0     C77782  -0.545   5.878   5.903 -0.0283 -0.0525  0.1496
  577MOL0     C77783  -0.634   5.886   5.783 -0.8946  0.4473 -0.5395
  577MOL0     O77784  -0.761   5.868   5.824  0.6282 -0.1450 -0.1308
  577MOL0     C77785  -0.842   5.777   5.760 -0.3282  0.7053 -0.0438
  577MOL0     C77786  -0.822   5.636   5.766  0.4639 -0.3947  0.2651
  577MOL0     C77787  -0.919   5.553   5.704 -0.3685  0.4082 -0.5412
  577MOL0     C77788  -0.882   5.404   5.700 -1.1845  0.3243 -0.3181
  577MOL0     C77789  -1.041   5.604   5.634 -0.5144  0.8082 -1.0548
  577MOL0     C77790  -1.152   5.512   5.592  0.5841  0.1452  0.0737
  577MOL0     O77791  -1.268   5.572   5.568 -0.4191  0.5323  0.0605
  577MOL0     C77792  -1.369   5.514   5.499 -0.6273 -0.0840  0.1805
  577MOL0     C77793  -1.355   5.443   5.374  0.6194  0.3165 -0.1051
  577MOL0     C77794  -1.468   5.394   5.315  0.9528 -0.7469  0.4488
  577MOL0     C77795  -1.594   5.421   5.367 -0.2495  0.1743  0.3037
  577MOL0     O77796  -1.704   5.371   5.302 -0.3435 -0.3891  0.2041
  577MOL0     C77797  -1.832   5.403   5.349  0.0508  0.3986  0.2792
  577MOL0     C77798  -1.884   5.314   5.471 -0.4592  0.2267  0.2713
  577MOL0     C77799  -2.032   5.344   5.494  0.1043 -0.4388  0.4706
  577MOL0     C77800  -2.119   5.237   5.569  0.2542  0.0897 -0.5115
  577MOL0     C77801  -2.254   5.297   5.612 -0.2643 -0.1768 -0.3926
  577MOL0     C77802  -2.331   5.176   5.653  0.4609 -0.7087 -0.4768
  577MOL0     C77803  -2.471   5.215   5.701 -0.1906 -0.2067 -0.7001
  577MOL0     C77804  -2.470   5.269   5.852  0.3083 -0.4844 -0.4417
  577MOL0    Cl77805  -2.372   5.157   5.955  0.2749 -0.2100 -0.3286
  577MOL0     C77806  -1.607   5.500   5.475  0.2806 -0.5980  0.9851
  577MOL0     C77807  -1.496   5.542   5.550  0.2312 -0.8561  0.0418
  577MOL0     O77808  -1.136   5.386   5.570 -0.1149 -0.9617 -0.2388
  577MOL0     C77809  -1.051   5.745   5.635  0.3287 -0.4848  0.7173
  577MOL0     C77810  -0.952   5.827   5.688  0.5727  0.3481 -0.6334
  577MOL0     N77811  -0.094   5.704   5.896 -0.3310  0.3049 -0.6501
  577MOL0     N77812   0.021   5.685   5.837 -0.1620  0.0059  0.7431
  577MOL0     C77813   1.057   5.501   5.760  0.3072  0.8363  0.0062
  577MOL0     C77814   1.183   5.443   5.778  1.0307 -0.1364  0.7815
  577MOL0     C77815   1.610   5.294   5.775  0.0662  0.1687  0.8421
  577MOL0     C77816   1.667   5.224   5.885 -0.3426 -0.1233  0.6757
  577MOL0     C77817   1.797   5.163   5.881 -0.0452 -0.4962 -0.9571
  577MOL0     C77818   1.867   5.164   5.755 -0.9031 -0.2183 -0.5975
  577MOL0     O77819   1.985   5.105   5.730 -1.2807  0.1241 -0.2639
  577MOL0     C77820   2.059   5.092   5.859 -0.9319 -0.1428  0.2201
  577MOL0     C77821   2.203   5.068   5.832  0.9593  0.2161  0.2432
  577MOL0     C77822   2.269   5.180   5.740 -0.1932  0.7862 -0.6069
  577MOL0     C77823   2.411   5.150   5.727 -0.6306  0.3339  0.1215
  577MOL0     C77824   2.495   5.251   5.665  0.0171 -0.3203 -0.8561
  577MOL0     C77825   2.557   5.349   5.623  0.3941  0.8993  0.1253
  577MOL0     C77826   1.803   5.233   5.646 -0.4462  0.2220 -0.0255
  577MOL0     C77827   1.679   5.306   5.656  0.4846 -0.0078 -0.0029
  577MOL0     H77828   1.286   5.392   5.465  0.6169  0.4806  1.3769
  577MOL0     H77829   1.077   5.496   5.414  1.2054 -0.2126 -0.1363
  577MOL0     H77830   0.829   5.645   5.786 -0.2539  1.4904 -0.2006
  577MOL0     H77831   0.946   5.744   5.720  0.2567  0.5398  0.0585
  577MOL0     H77832   0.694   5.845   5.724  0.3200  0.4010  0.3438
  577MOL0     H77833   0.774   5.867   5.577 -3.9604  0.7521 -1.4882
  577MOL0     H77834   0.661   5.680   5.476 -3.1979 -0.3182 -1.2970
  577MOL0     H77835   0.610   5.613   5.629  2.4804 -0.4881  0.2272
  577MOL0     H77836   0.446   5.789   5.671  0.5103  2.4401  0.3985
  577MOL0     H77837   0.519   5.895   5.547 -0.1732  0.7830  0.5747
  577MOL0     H77838   0.431   5.741   5.370  1.4743  0.7298  0.9347
  577MOL0     H77839   0.370   5.652   5.508  0.2857  0.5970  2.1467
  577MOL0     H77840   0.303   5.940   5.444  3.7288 -1.2082  0.9285
  577MOL0     H77841   0.212   5.811   5.370 -1.5112 -0.4333  0.5947
  577MOL0     H77842   0.232   5.861   5.679  0.1407 -0.2465  0.6002
  577MOL0     H77843   0.095   5.909   5.577 -0.3044 -0.8717 -2.2909
  577MOL0     H77844   0.167   5.611   5.613 -1.3555 -1.5145 -4.1831
  577MOL0     H77845   0.080   5.689   5.494  3.7090  1.0806 -1.3772
  577MOL0     H77846  -0.150   5.795   5.584  4.0807  1.3322 -0.9643
  577MOL0     H77847  -0.376   5.771   5.698  0.6187  0.8630 -0.2936
  577MOL0     H77848  -0.376   5.665   5.844 -1.5659 -0.6655 -2.6947
  577MOL0     H77849  -0.355   5.970   5.833 -0.6190 -0.3811 -1.4512
  577MOL0     H77850  -0.348   5.869   5.979 -0.0227  2.3075 -0.0199
  577MOL0     H77851  -0.578   5.965   5.961  0.3954 -0.1981  0.6140
  577MOL0     H77852  -0.570   5.788   5.960  1.5942  1.0343  2.7326
  577MOL0     H77853  -0.596   5.816   5.709  0.0060  1.0046 -0.6148
  577MOL0     H77854  -0.633   5.979   5.726 -3.2392 -1.2854 -3.7669
  577MOL0     H77855  -0.745   5.586   5.824 -0.0528 -2.1099 -0.4721
  577MOL0     H77856  -0.967   5.341   5.728 -0.9839 -0.8580 -2.1626
  577MOL0     H77857  -0.870   5.378   5.594  3.3164 -2.7700  0.6334
  577MOL0     H77858  -0.788   5.370   5.746 -0.5175  1.0186 -1.1388
  577MOL0     H77859  -1.260   5.412   5.331 -0.1657 -0.1692 -1.5881
  577MOL0     H77860  -1.449   5.330   5.229  0.2035  0.1785 -0.4366
  577MOL0     H77861  -1.852   5.508   5.372 -1.9861  0.0775  0.1535
  577MOL0     H77862  -1.896   5.376   5.265  4.4984 -1.9963 -2.7883
  577MOL0     H77863  -1.872   5.210   5.440  1.8141  0.7102 -0.6931
  577MOL0     H77864  -1.833   5.323   5.567 -1.6859 -4.1022  1.5534
  577MOL0     H77865  -2.078   5.363   5.397 -0.1169 -3.0690  0.0078
  577MOL0     H77866  -2.030   5.439   5.548  2.1094 -0.2067  0.0900
  577MOL0     H77867  -2.144   5.154   5.502 -1.5912  0.6478 -0.5620
  577MOL0     H77868  -2.070   5.196   5.658  1.0470 -0.9870 -1.4190
  577MOL0     H77869  -2.308   5.351   5.534  0.2707  1.5589  0.3822
  577MOL0     H77870  -2.239   5.364   5.697  1.0039 -1.6348  0.5966
  577MOL0     H77871  -2.358   5.110   5.570  0.1535 -1.5606  0.2869
  577MOL0     H77872  -2.272   5.111   5.719  0.7296 -1.0798 -1.0721
  577MOL0     H77873  -2.542   5.133   5.689 -1.9021  0.8501  1.4820
  577MOL0     H77874  -2.520   5.296   5.646 -0.8246 -0.5798 -0.6934
  577MOL0     H77875  -2.571   5.270   5.893  0.7254  0.4327  0.6197
  577MOL0     H77876  -2.419   5.366   5.850  0.2058 -0.4188 -0.0499
  577MOL0     H77877  -1.704   5.526   5.515 -0.0902 -1.1247  0.4453
  577MOL0     H77878  -1.510   5.601   5.640  2.7859  0.7926 -0.5264
  577MOL0     H77879  -1.130   5.800   5.585 -0.5105 -2.8097 -0.6360
  577MOL0     H77880  -0.983   5.931   5.695 -1.9348 -0.2800 -1.3424
  577MOL0     H77881   1.002   5.521   5.852 -0.5338 -3.5561  0.6724
  577MOL0     H77882   1.213   5.427   5.882  1.9653 -1.7969  0.2915
  577MOL0     H77883   1.615   5.203   5.977  0.2964 -0.4773  0.9635
  577MOL0     H77884   1.840   5.117   5.969  0.3139 -1.8477 -1.7932
  577MOL0     H77885   2.055   5.192   5.904  3.3363  1.4342 -2.2868
  577MOL0     H77886   2.019   5.013   5.922 -1.7405 -0.8369 -1.1194
  577MOL0     H77887   2.212   4.966   5.793 -2.8896 -0.5359  0.9027
  577MOL0     H77888   2.261   5.048   5.922  1.2275 -2.5358 -0.4258
  577MOL0     H77889   2.259   5.281   5.782  1.4559  0.5818  0.3365
  577MOL0     H77890   2.222   5.186   5.641  1.0520  1.2452 -1.1862
  577MOL0     H77891   2.421   5.054   5.675 -0.0889 -0.0693  0.9419
  577MOL0     H77892   2.445   5.128   5.829 -0.1361 -0.2783 -0.1693
  577MOL0     H77893   2.627   5.427   5.597  1.3417 -0.1215 -0.4734
  577MOL0     H77894   1.860   5.250   5.555  1.9706  2.5134  1.7472
  577MOL0     H77895   1.652   5.370   5.573 -0.5518 -1.0318 -0.4943
  578MOL0     O77896   3.755   9.521   6.502  0.7097 -0.0227  0.3065
  578MOL0     C77897   3.777   9.629   6.449  0.9672  0.0286  0.4990
  578MOL0     O77898   3.696   9.747   6.448  0.0653 -0.0366  0.8011
  578MOL0     C77899   3.566   9.739   6.496  0.5714  0.3675  0.1394
  578MOL0     C77900   3.462   9.654   6.439  0.1161 -0.5274 -0.7089
  578MOL0     C77901   3.338   9.658   6.504 -0.6201  0.2951 -0.1099
  578MOL0     C77902   3.308   9.737   6.615  0.3365 -0.7380 -0.5520
  578MOL0     O77903   3.183   9.736   6.663  0.7562  0.1589  0.8532
  578MOL0     C77904   3.139   9.818   6.771  0.1821 -0.3928  0.0803
  578MOL0     C77905   3.000   9.776   6.831  0.5299 -0.1318 -0.6306
  578MOL0     C77906   2.946   9.882   6.924 -0.8368 -0.8279 -0.7594
  578MOL0     C77907   2.819   9.824   6.982 -0.3284 -0.4745  0.1008
  578MOL0     C77908   2.755   9.902   7.094  0.1532 -0.9513 -0.0030
  578MOL0     C77909   2.841   9.949   7.213 -0.3316 -0.5520 -0.0963
  578MOL0     C77910   2.755   9.997   7.331 -0.3282  0.8291  0.8625
  578MOL0     C77911   2.689  10.123   7.291 -0.0680 -0.0861  0.2434
  578MOL0     N77912   2.592  10.162   7.392 -0.1456 -0.7015  0.2563
  578MOL0     C77913   2.469  10.112   7.399  0.4874 -1.3638  0.9115
  578MOL0     C77914   2.416  10.166   7.510 -0.7398 -0.1595 -0.2639
  578MOL0     C77915   2.276  10.133   7.548 -0.5706 -0.2804  0.0993
  578MOL0     C77916   2.171  10.215   7.478 -0.1097  0.6706  0.7746
  578MOL0     C77917   2.199  10.363   7.475  0.2138 -0.2523 -0.4640
  578MOL0     C77918   2.194  10.426   7.612 -0.0727 -1.0020  0.2505
  578MOL0     O77919   2.221  10.566   7.610 -0.0117  0.0168  0.4472
  578MOL0     C77920   2.131  10.657   7.568  0.5823  0.4723 -0.0736
  578MOL0     C77921   2.164  10.799   7.562  0.1696 -0.9281 -0.1831
  578MOL0     C77922   2.070  10.895   7.524 -0.2903  0.0336  0.9503
  578MOL0     C77923   2.100  11.040   7.560 -0.0399  1.0333 -0.9854
  578MOL0     C77924   1.938  10.853   7.476 -0.8275 -0.7526 -0.9571
  578MOL0     C77925   1.847  10.967   7.444 -0.0481  0.7659  0.5337
  578MOL0     O77926   1.748  11.003   7.530 -0.1142  0.2187  0.4171
  578MOL0     C77927   1.628  11.050   7.481  0.9419  0.3654  1.0695
  578MOL0     C77928   1.565  11.133   7.573  0.0631  0.3307  0.3157
  578MOL0     C77929   1.447  11.188   7.548 -0.0242 -0.4303  1.3699
  578MOL0     C77930   1.375  11.173   7.429  0.6690  0.0229  0.2160
  578MOL0     O77931   1.246  11.217   7.406  0.5606 -0.1536 -0.7379
  578MOL0     C77932   1.182  11.318   7.483 -0.3608 -0.6640 -0.3460
  578MOL0     C77933   1.047  11.338   7.409  0.3074  0.3229 -0.2915
  578MOL0     C77934   1.058  11.419   7.276 -0.4246  0.2362 -0.0445
  578MOL0     C77935   0.928  11.495   7.254  0.1281 -0.0209  0.6162
  578MOL0     C77936   0.942  11.565   7.121 -0.0544  0.6424 -0.5322
  578MOL0     C77937   0.876  11.707   7.113  0.2589  0.0496 -0.8617
  578MOL0     C77938   0.928  11.798   7.001 -0.1327 -0.0001 -0.2219
  578MOL0     C77939   0.872  11.750   6.863 -0.4803  0.4394 -0.9274
  578MOL0    Cl77940   0.687  11.794   6.853  0.0628  0.2291  0.4011
  578MOL0     C77941   1.443  11.089   7.336 -0.4068 -0.7574 -0.0886
  578MOL0     C77942   1.563  11.027   7.362  0.2204  0.6087 -0.8373
  578MOL0     O77943   1.861  11.015   7.334  1.0332 -0.0749  0.6434
  578MOL0     C77944   1.907  10.713   7.468 -0.2968  0.4461 -1.2461
  578MOL0     C77945   2.007  10.618   7.515  0.3271 -0.7405  0.9535
  578MOL0     N77946   2.510  10.244   7.572  0.2027 -0.4005  0.4701
  578MOL0     N77947   2.613  10.249   7.496 -0.4164 -0.1545 -0.5961
  578MOL0     C77948   3.409   9.810   6.676  0.1287  0.5729 -1.1992
  578MOL0     C77949   3.534   9.812   6.612 -0.6662 -0.0397  0.2738
  578MOL0     C77950   3.905   9.646   6.367 -0.4355 -0.1586  0.0298
  578MOL0     C77951   3.961   9.765   6.338 -0.5819 -0.0677 -0.8187
  578MOL0     C77952   4.088   9.784   6.274  0.1201 -0.1378  0.2740
  578MOL0     C77953   4.165   9.667   6.238 -0.0620 -0.3775  0.5756
  578MOL0     O77954   4.287   9.680   6.176  0.2125  0.0576  0.0554
  578MOL0     C77955   4.348   9.556   6.128  0.6530 -1.0149 -0.1519
  578MOL0     C77956   4.459   9.574   6.026  0.1979 -0.4562 -0.3653
  578MOL0     C77957   4.570   9.663   6.065 -0.1255 -0.5091 -1.0901
  578MOL0     C77958   4.556   9.815   6.021  0.2226  0.6295  0.4071
  578MOL0     C77959   4.676   9.886   6.064  1.0407  0.0477  0.2741
  578MOL0     C77960   4.765   9.949   6.111 -0.5035  0.6277  0.2772
  578MOL0     C77961   4.094   9.544   6.258 -0.1189 -0.1138  0.6152
  578MOL0     C77962   3.978   9.540   6.332 -0.3069  0.7688  0.5974
  578MOL0     H77963   3.482   9.584   6.359  2.2406 -0.1953 -0.5273
  578MOL0     H77964   3.244   9.612   6.475 -0.5457 -0.4148  0.7521
  578MOL0     H77965   3.211   9.814   6.854  0.7544  4.7399  0.1257
  578MOL0     H77966   3.134   9.924   6.747  1.1437 -0.1721  0.8205
  578MOL0     H77967   2.928   9.755   6.751  0.1481 -0.3222 -0.2464
  578MOL0     H77968   3.026   9.683   6.882  2.4461  1.5297  1.6235
  578MOL0     H77969   3.016   9.903   7.005 -1.2690  2.9030 -1.1685
  578MOL0     H77970   2.921   9.973   6.868 -1.9863  0.0390  1.0761
  578MOL0     H77971   2.741   9.821   6.905  1.2042  1.0858 -1.6452
  578MOL0     H77972   2.846   9.728   7.026  1.9683  1.5620  3.6554
  578MOL0     H77973   2.706   9.992   7.056 -2.2996 -1.6832  1.1775
  578MOL0     H77974   2.680   9.842   7.146  0.1190  0.0638  1.1580
  578MOL0     H77975   2.911   9.877   7.255  0.7130 -0.1621 -1.1119
  578MOL0     H77976   2.898  10.035   7.176  0.6216 -1.2916 -0.3835
  578MOL0     H77977   2.684   9.924   7.371  1.8821 -0.8109  2.0200
  578MOL0     H77978   2.816  10.022   7.418  1.5933 -1.7341  0.3670
  578MOL0     H77979   2.619  10.101   7.210 -1.6650 -0.1238  1.5832
  578MOL0     H77980   2.758  10.200   7.256 -0.6665  0.1473 -0.4407
  578MOL0     H77981   2.418  10.048   7.329 -0.1531  0.1008 -0.0188
  578MOL0     H77982   2.254  10.027   7.529 -0.7575 -0.0774 -0.8439
  578MOL0     H77983   2.275  10.156   7.655 -0.9490  1.9260 -0.3348
  578MOL0     H77984   2.075  10.197   7.526  1.1360 -1.8684  2.5516
  578MOL0     H77985   2.159  10.185   7.373  2.8338 -1.1955  0.8511
  578MOL0     H77986   2.128  10.419   7.414  0.1574  0.2800  0.0790
  578MOL0     H77987   2.298  10.374   7.431  0.5286 -2.3416 -0.3675
  578MOL0     H77988   2.279  10.383   7.666  2.8598  2.1238 -1.4691
  578MOL0     H77989   2.102  10.416   7.669 -1.0766  1.9319 -0.6484
  578MOL0     H77990   2.260  10.825   7.604 -0.3088 -1.1395  1.0779
  578MOL0     H77991   2.016  11.076   7.621  0.4528 -1.6318  1.5074
  578MOL0     H77992   2.186  11.046   7.628  0.2516  1.0448 -1.3528
  578MOL0     H77993   2.129  11.110   7.481 -0.3972 -1.5029 -3.4734
  578MOL0     H77994   1.619  11.158   7.664  1.7196  0.0385 -0.5492
  578MOL0     H77995   1.420  11.266   7.618 -0.2894  0.6689  0.0746
  578MOL0     H77996   1.160  11.293   7.587  1.6664  0.7123  0.4726
  578MOL0     H77997   1.250  11.403   7.491 -0.4134 -0.5551 -0.9708
  578MOL0     H77998   1.002  11.241   7.387 -0.7235  0.6535  0.2701
  578MOL0     H77999   0.978  11.384   7.481  0.3103  0.5007 -0.4016
  578MOL0     H78000   1.076  11.334   7.209  2.0240 -0.0724  0.9039
  578MOL0     H78001   1.147  11.482   7.282 -0.5387  0.2265  3.1950
  578MOL0     H78002   0.837  11.434   7.251 -1.1621  1.7889  1.1624
  578MOL0     H78003   0.912  11.565   7.336  3.2818  3.0998 -1.1744
  578MOL0     H78004   0.913  11.496   7.041  1.1985  0.0477 -0.4833
  578MOL0     H78005   1.046  11.591   7.102  0.0410  0.0603 -0.8173
  578MOL0     H78006   0.768  11.686   7.112  0.9588 -4.4971 -1.5303
  578MOL0     H78007   0.888  11.755   7.210  2.1410  0.8606 -1.4540
  578MOL0     H78008   1.037  11.789   7.004 -0.2237 -1.6631 -1.0878
  578MOL0     H78009   0.885  11.897   7.023  1.2523  1.3150 -2.9283
  578MOL0     H78010   0.898  11.645   6.843  1.4102  0.7806 -0.4960
  578MOL0     H78011   0.927  11.811   6.790  0.7335 -0.0478 -0.4543
  578MOL0     H78012   1.405  11.090   7.234  2.1101 -0.1028 -1.1026
  578MOL0     H78013   1.600  10.963   7.283 -1.3784 -0.4164 -0.8118
  578MOL0     H78014   1.816  10.674   7.423 -3.7062  4.7083  1.1850
  578MOL0     H78015   1.982  10.513   7.507 -1.5310 -0.2402 -0.5156
  578MOL0     H78016   3.401   9.869   6.766  0.5587  0.9758 -1.4205
  578MOL0     H78017   3.610   9.884   6.641  0.5492 -0.6387 -1.2699
  578MOL0     H78018   3.907   9.850   6.380  0.4614  0.1307  0.1847
  578MOL0     H78019   4.132   9.879   6.248  1.3289 -0.2201  1.8289
  578MOL0     H78020   4.380   9.508   6.221  0.8972  2.4927  1.7408
  578MOL0     H78021   4.274   9.496   6.073 -1.0911 -0.7884  1.7997
  578MOL0     H78022   4.403   9.607   5.939 -3.0903  0.0432  1.7596
  578MOL0     H78023   4.504   9.475   6.009  1.7732 -0.2835  2.2142
  578MOL0     H78024   4.664   9.611   6.045 -0.3916 -2.4506  2.0875
  578MOL0     H78025   4.579   9.668   6.173  1.5030 -0.9230 -1.1719
  578MOL0     H78026   4.476   9.861   6.080  0.3191 -0.9721  1.8637
  578MOL0     H78027   4.544   9.825   5.913 -1.3990  0.3410  0.5380
  578MOL0     H78028   4.862   9.989   6.134  1.3569 -2.9677 -0.5430
  578MOL0     H78029   4.138   9.451   6.223 -1.5396 -1.0652  1.2565
  578MOL0     H78030   3.930   9.444   6.350 -0.1776  0.7953  1.0815
  579MOL0     O78031   3.098  10.768   6.205  0.3021  0.1081 -0.3776
  579MOL0     C78032   3.062  10.678   6.284  0.0227 -0.4128  0.8498
  579MOL0     O78033   3.039  10.551   6.249  0.1476  0.4249  0.3085
  579MOL0     C78034   3.103  10.513   6.132  0.1628 -0.0935  0.0079
  579MOL0     C78035   3.228  10.444   6.142  0.0587 -0.4396  0.5949
  579MOL0     C78036   3.280  10.371   6.033  0.2079 -0.3057  0.7376
  579MOL0     C78037   3.218  10.376   5.911  0.3008  0.3102  0.1337
  579MOL0     O78038   3.281  10.305   5.815  0.3100  0.3341 -0.4829
  579MOL0     C78039   3.285  10.354   5.678  0.2524 -0.5936  0.0996
  579MOL0     C78040   3.354  10.488   5.665  0.4936 -0.5799  0.5843
  579MOL0     C78041   3.498  10.481   5.722  0.0647  0.1579 -0.7156
  579MOL0     C78042   3.570  10.613   5.723  0.5518 -0.1174  0.0486
  579MOL0     C78043   3.717  10.590   5.759 -0.3790 -0.4201  0.5636
  579MOL0     C78044   3.742  10.633   5.899 -0.6314  0.1464  0.1517
  579MOL0     C78045   3.891  10.646   5.943 -0.0924 -0.3264  0.6847
  579MOL0     C78046   3.973  10.519   5.917  0.2080 -0.0235 -0.2513
  579MOL0     N78047   3.926  10.397   5.990  0.3062 -0.7045  0.2758
  579MOL0     C78048   3.804  10.332   5.967 -0.7417 -0.7355 -0.2532
  579MOL0     C78049   3.804  10.231   6.065  0.1908 -0.3349 -0.1989
  579MOL0     C78050   3.681  10.144   6.085  1.1121 -0.0886 -0.3129
  579MOL0     C78051   3.701   9.993   6.121  0.3968  0.6027 -0.5865
  579MOL0     C78052   3.573   9.912   6.145  0.8658 -0.1388 -0.4608
  579MOL0     C78053   3.570   9.768   6.089 -0.6226 -1.6064 -0.5381
  579MOL0     O78054   3.443   9.711   6.101 -0.7039 -0.8513  0.2504
  579MOL0     C78055   3.338   9.764   6.025  0.7122  0.4526 -0.0475
  579MOL0     C78056   3.211   9.744   6.081  0.5570 -0.3405  0.1323
  579MOL0     C78057   3.094   9.813   6.036 -0.4003 -0.8026  0.4549
  579MOL0     C78058   2.965   9.760   6.101 -0.3994 -0.2930  0.3285
  579MOL0     C78059   3.103   9.909   5.929  0.4791  0.8811  0.7283
  579MOL0     C78060   2.983   9.978   5.871  0.5577 -0.0945 -0.1698
  579MOL0     O78061   3.001  10.041   5.761 -0.5300 -0.0524  0.4756
  579MOL0     C78062   2.888  10.072   5.684  0.8236 -0.2827  0.1549
  579MOL0     C78063   2.871  10.209   5.650 -0.1875  0.8773 -0.5023
  579MOL0     C78064   2.750  10.247   5.586 -0.1636 -0.3306  0.1091
  579MOL0     C78065   2.648  10.152   5.548 -0.3688  0.2519  0.2024
  579MOL0     O78066   2.532  10.183   5.486  0.3165  0.1355 -0.2694
  579MOL0     C78067   2.466  10.294   5.558  0.1852  0.8351 -0.6266
  579MOL0     C78068   2.320  10.248   5.571 -0.6783  0.7651  0.3196
  579MOL0     C78069   2.244  10.195   5.449 -0.0505  0.7486 -0.0533
  579MOL0     C78070   2.122  10.107   5.496  0.1235  0.4571 -0.5281
  579MOL0     C78071   2.022  10.049   5.401  0.8492 -0.3293 -0.5058
  579MOL0     C78072   1.928  10.142   5.307 -0.0646  0.1991 -0.8934
  579MOL0     C78073   1.830  10.068   5.222  0.5807  0.7285  0.3583
  579MOL0     C78074   1.748  10.164   5.122  0.5266 -0.1508  0.4396
  579MOL0    Cl78075   1.703  10.319   5.199 -0.6673 -0.0549 -0.4634
  579MOL0     C78076   2.680  10.016   5.566 -0.4094  0.5327  0.7589
  579MOL0     C78077   2.801   9.978   5.639 -0.5742  0.8559 -0.2012
  579MOL0     O78078   2.873   9.956   5.920  0.5373 -0.3498 -0.8288
  579MOL0     C78079   3.233   9.949   5.884  0.6200 -0.0519  0.6184
  579MOL0     C78080   3.349   9.873   5.924  0.2652 -0.4627 -0.2087
  579MOL0     N78081   3.923  10.225   6.134  0.4235 -0.1200  0.2519
  579MOL0     N78082   3.992  10.335   6.098  0.6642  0.2301  0.1279
  579MOL0     C78083   3.098  10.457   5.896 -0.6895 -0.0922 -0.0650
  579MOL0     C78084   3.035  10.510   6.009  0.0384 -0.7760  0.1709
  579MOL0     C78085   3.021  10.703   6.425  0.0331  0.1334  0.2894
  579MOL0     C78086   2.979  10.828   6.456  0.0160 -0.0559  0.1164
  579MOL0     C78087   2.958  10.848   6.589 -0.5399 -0.4938  0.0668
  579MOL0     C78088   2.971  10.750   6.685 -0.4442 -0.1833  0.2547
  579MOL0     O78089   2.948  10.765   6.822 -0.2241  0.0411  0.0050
  579MOL0     C78090   3.058  10.834   6.888  0.3919  0.0943  0.8742
  579MOL0     C78091   2.994  10.907   7.017 -0.1862 -0.0485 -0.4568
  579MOL0     C78092   2.894  11.019   6.979  0.1636  0.2520  0.1649
  579MOL0     C78093   2.955  11.159   7.005 -0.0671  0.3609 -0.7419
  579MOL0     C78094   2.933  11.191   7.144  0.0449  0.1532  0.1730
  579MOL0     C78095   2.919  11.235   7.256 -0.0483  0.0370 -0.5306
  579MOL0     C78096   3.007  10.622   6.651 -0.5222 -0.1911 -0.4664
  579MOL0     C78097   3.026  10.597   6.520 -0.7525 -0.1555 -0.0036
  579MOL0     H78098   3.279  10.448   6.238  1.8254  0.6264 -0.3350
  579MOL0     H78099   3.373  10.318   6.055  1.3918 -0.3444 -3.5329
  579MOL0     H78100   3.342  10.283   5.617  2.0647 -1.2732  2.4278
  579MOL0     H78101   3.177  10.364   5.662 -0.3133 -0.1097  3.3567
  579MOL0     H78102   3.357  10.520   5.561 -1.4379 -1.6485  0.1599
  579MOL0     H78103   3.301  10.573   5.711  1.2361 -0.3791  1.0797
  579MOL0     H78104   3.494  10.472   5.831  2.6878  0.8627 -0.4806
  579MOL0     H78105   3.568  10.414   5.671  2.1292  3.4697 -2.6421
  579MOL0     H78106   3.570  10.662   5.625  1.5877 -0.2544 -0.0297
  579MOL0     H78107   3.525  10.693   5.782 -0.5255 -1.7490  1.4952
  579MOL0     H78108   3.753  10.488   5.744  2.9190  0.5586  0.8785
  579MOL0     H78109   3.773  10.658   5.695  0.1280 -1.4741 -0.1378
  579MOL0     H78110   3.690  10.728   5.910 -2.4995 -0.8453  0.2461
  579MOL0     H78111   3.691  10.567   5.970  0.5724  1.2042  2.0832
  579MOL0     H78112   3.939  10.730   5.892 -1.7251 -0.0299 -0.4075
  579MOL0     H78113   3.886  10.658   6.051 -0.1080 -0.8992  0.7535
  579MOL0     H78114   4.071  10.532   5.965 -1.1716  0.3111  2.6553
  579MOL0     H78115   3.976  10.507   5.808  0.0940 -0.3242 -0.2228
  579MOL0     H78116   3.724  10.357   5.898 -0.0539  0.3974 -0.6723
  579MOL0     H78117   3.638  10.195   6.172 -1.0817 -2.2099 -0.0444
  579MOL0     H78118   3.615  10.155   5.999 -0.2426 -0.6416  0.6279
  579MOL0     H78119   3.758   9.997   6.214 -1.5441  1.5663  0.6285
  579MOL0     H78120   3.766   9.957   6.042 -0.7736  0.7780 -1.6659
  579MOL0     H78121   3.486   9.967   6.109  0.2915  0.0153  1.0545
  579MOL0     H78122   3.557   9.903   6.253  2.9802  1.9620  0.1202
  579MOL0     H78123   3.648   9.710   6.137  3.4192  1.5114 -2.7087
  579MOL0     H78124   3.590   9.774   5.981 -0.0445 -1.6004 -0.4341
  579MOL0     H78125   3.196   9.666   6.155 -0.6298 -2.0438 -1.7937
  579MOL0     H78126   2.982   9.667   6.155  1.1878 -1.6956 -2.3168
  579MOL0     H78127   2.920   9.834   6.167  0.2480  1.4051 -1.0256
  579MOL0     H78128   2.906   9.727   6.015  0.6819 -1.0233 -0.1622
  579MOL0     H78129   2.950  10.275   5.684  0.5572 -0.5553  0.6396
  579MOL0     H78130   2.747  10.355   5.570 -2.1466 -0.4297 -0.4882
  579MOL0     H78131   2.486  10.321   5.662  0.9050  1.4934 -0.9220
  579MOL0     H78132   2.467  10.389   5.503 -1.1335  1.3682  0.2221
  579MOL0     H78133   2.313  10.167   5.645  1.4901  0.7868  0.6176
  579MOL0     H78134   2.255  10.321   5.620 -1.4163  0.1875  0.2133
  579MOL0     H78135   2.304  10.133   5.383 -2.7523 -1.5180 -0.5475
  579MOL0     H78136   2.199  10.276   5.391 -3.6534  0.8850  2.6123
  579MOL0     H78137   2.148  10.020   5.555 -4.3375 -0.5273  0.3664
  579MOL0     H78138   2.073  10.168   5.572 -1.5462  0.1570 -1.3102
  579MOL0     H78139   1.951   9.992   5.462  0.5468 -1.8808 -2.2118
  579MOL0     H78140   2.071   9.980   5.331 -0.3328 -1.8288  0.0643
  579MOL0     H78141   1.885  10.214   5.378  1.1751 -0.6754  0.8336
  579MOL0     H78142   1.990  10.201   5.239  0.2545  0.7190 -0.1746
  579MOL0     H78143   1.756  10.022   5.288  2.0222 -1.5492  0.5153
  579MOL0     H78144   1.884   9.989   5.169 -1.8275 -0.7161 -0.0906
  579MOL0     H78145   1.657  10.116   5.084  1.3108 -0.0371 -1.7313
  579MOL0     H78146   1.817  10.186   5.040  1.1942 -1.6552  0.5721
  579MOL0     H78147   2.610   9.939   5.535 -0.1464  0.4186  0.4479
  579MOL0     H78148   2.815   9.873   5.664  1.2292  0.9336 -0.7702
  579MOL0     H78149   3.238  10.019   5.802  1.0905 -1.0761 -0.2562
  579MOL0     H78150   3.440   9.911   5.879  1.9838 -0.9975  2.5609
  579MOL0     H78151   3.050  10.463   5.799 -2.2837 -1.2805  0.6047
  579MOL0     H78152   2.941  10.562   5.997 -0.2958 -1.0676  1.3707
  579MOL0     H78153   2.971  10.909   6.384 -0.7320  0.2230  0.5084
  579MOL0     H78154   2.925  10.942   6.631 -0.7427 -0.1120 -0.9174
  579MOL0     H78155   3.138  10.764   6.914  1.7523  2.1766  2.6305
  579MOL0     H78156   3.107  10.906   6.822  1.6560 -0.4471  1.2015
  579MOL0     H78157   3.078  10.946   7.074  1.8672 -0.7065 -2.8661
  579MOL0     H78158   2.949  10.832   7.083  1.1917 -0.2310  0.3212
  579MOL0     H78159   2.798  11.015   7.030  0.3079 -1.1894  0.3748
  579MOL0     H78160   2.873  11.001   6.873  1.6538 -0.4834 -0.0311
  579MOL0     H78161   2.902  11.235   6.947 -2.0769 -0.8877 -0.6285
  579MOL0     H78162   3.063  11.172   6.991 -0.2758  3.3977 -0.0733
  579MOL0     H78163   2.921  11.274   7.356 -0.0120  0.8674 -0.8517
  579MOL0     H78164   3.014  10.541   6.722 -0.7682 -0.1365 -0.3799
  579MOL0     H78165   3.047  10.496   6.485 -1.1044  0.6364 -2.7131
  580MOL0     O78166   4.823   0.334   2.376  0.3969  0.6244  0.1319
  580MOL0     C78167   4.874   0.434   2.425 -0.9151  0.0299  0.6598
  580MOL0     O78168   4.825   0.563   2.416 -0.2118  0.1097 -0.8007
  580MOL0     C78169   4.695   0.589   2.366  0.3003 -0.8175  1.1120
  580MOL0     C78170   4.582   0.506   2.358 -0.5118  0.1770 -0.3723
  580MOL0     C78171   4.469   0.544   2.305  0.7526  0.0280 -1.0449
  580MOL0     C78172   4.456   0.670   2.246  1.1158 -0.5465 -1.0065
  580MOL0     O78173   4.328   0.688   2.194  0.7581  0.7128 -0.5521
  580MOL0     C78174   4.299   0.808   2.132 -0.1667 -0.2531  0.1905
  580MOL0     C78175   4.151   0.835   2.088  1.0867 -0.1135 -1.2760
  580MOL0     C78176   4.061   0.814   2.205 -0.2161  0.0044 -0.2808
  580MOL0     C78177   3.917   0.847   2.163  0.8470 -0.3352 -0.3943
  580MOL0     C78178   3.820   0.852   2.286  0.4832 -0.3402  0.5252
  580MOL0     C78179   3.673   0.901   2.241 -1.1365 -0.2955 -0.4162
  580MOL0     C78180   3.568   0.875   2.345  0.4363  0.0179 -0.3498
  580MOL0     C78181   3.539   0.997   2.426 -0.9480  0.1407  0.5147
  580MOL0     N78182   3.427   0.994   2.511 -0.0107 -0.0740 -0.6149
  580MOL0     C78183   3.306   0.926   2.502  0.0908 -0.0978 -0.2829
  580MOL0     C78184   3.227   0.974   2.605  0.1592 -0.3938 -0.4707
  580MOL0     C78185   3.082   0.929   2.639 -0.7697 -0.1443 -0.2678
  580MOL0     C78186   3.072   0.773   2.680  0.2285  0.2515 -0.5496
  580MOL0     C78187   2.941   0.735   2.753  0.0825  0.0467 -0.5702
  580MOL0     C78188   2.946   0.600   2.821 -0.6104  0.8785 -0.2205
  580MOL0     O78189   2.949   0.479   2.732 -0.0085 -0.4657 -0.3004
  580MOL0     C78190   3.048   0.385   2.749  0.0154 -0.1864  0.0538
  580MOL0     C78191   3.020   0.250   2.716  0.0470 -0.5109  0.3750
  580MOL0     C78192   3.117   0.148   2.712 -0.5521  0.2252 -0.6366
  580MOL0     C78193   3.066   0.021   2.646 -0.0382 -0.8461  0.8977
  580MOL0     C78194   3.257   0.174   2.746  0.8513 -1.3761  0.6100
  580MOL0     C78195   3.361   0.066   2.744  0.3062  1.0497  0.0372
  580MOL0     O78196   3.494   0.102   2.746 -0.2795 -0.2991  0.2535
  580MOL0     C78197   3.581   0.014   2.798  1.0668 -1.0373  0.0498
  580MOL0     C78198   3.657   0.065   2.905 -0.2425  0.1685  0.4818
  580MOL0     C78199   3.764  -0.003   2.955 -0.3175 -0.0425 -0.0875
  580MOL0     C78200   3.803  -0.126   2.890  0.2550  0.0726  0.2790
  580MOL0     O78201   3.907  -0.193   2.937 -0.3349  0.7806  0.1222
  580MOL0     C78202   3.996  -0.258   2.845  1.1204  0.1256  0.8595
  580MOL0     C78203   4.131  -0.278   2.919  0.0364  0.5159  0.1020
  580MOL0     C78204   4.135  -0.365   3.040  0.0493  0.3332  0.4526
  580MOL0     C78205   4.281  -0.407   3.070  0.3740 -0.9288 -0.3423
  580MOL0     C78206   4.300  -0.467   3.214 -0.2957 -0.7069  0.9842
  580MOL0     C78207   4.447  -0.503   3.241  0.7173 -0.3713  0.4989
  580MOL0     C78208   4.455  -0.512   3.398 -1.1574  0.8826 -0.2265
  580MOL0     C78209   4.547  -0.628   3.433 -0.3449 -0.0232 -0.0015
  580MOL0    Cl78210   4.471  -0.788   3.416  0.5053 -0.0001 -0.0271
  580MOL0     C78211   3.727  -0.173   2.789 -0.0527 -0.1053 -0.3686
  580MOL0     C78212   3.621  -0.107   2.739 -0.2234 -0.3282  0.7401
  580MOL0     O78213   3.319  -0.055   2.754 -0.1442 -0.2034  0.7842
  580MOL0     C78214   3.280   0.307   2.789  0.1299  0.1289 -0.5383
  580MOL0     C78215   3.182   0.413   2.787 -0.1840  0.1692  1.1880
  580MOL0     N78216   3.298   1.071   2.670  0.1631  0.0851  0.0161
  580MOL0     N78217   3.407   1.096   2.602  0.2279  0.3958 -0.0972
  580MOL0     C78218   4.564   0.760   2.239 -0.0452  0.8139 -0.1051
  580MOL0     C78219   4.683   0.721   2.307  0.4737  0.9460 -0.0342
  580MOL0     C78220   5.008   0.414   2.473  0.2863  0.2019 -0.4852
  580MOL0     C78221   5.062   0.287   2.481  0.7318  0.4455 -0.5807
  580MOL0     C78222   5.195   0.270   2.530  0.4150 -0.3595  0.8844
  580MOL0     C78223   5.264   0.383   2.574 -0.0017  0.4174  0.6797
  580MOL0     O78224   5.375   0.371   2.637 -0.1557 -0.6597  0.2076
  580MOL0     C78225   5.481   0.283   2.589  0.9360  0.2828 -0.4741
  580MOL0     C78226   5.617   0.342   2.621 -0.4113  0.2568  0.1296
  580MOL0     C78227   5.662   0.341   2.764  1.1411  0.6007 -0.4706
  580MOL0     C78228   5.809   0.307   2.789 -0.3930  0.2086 -0.0457
  580MOL0     C78229   5.858   0.171   2.771 -0.3523  0.0780  0.5860
  580MOL0     C78230   5.890   0.058   2.748  0.4223  0.4965 -0.9152
  580MOL0     C78231   5.213   0.507   2.547 -0.8548  0.3969  0.5932
  580MOL0     C78232   5.086   0.524   2.495 -0.6699  1.0106  0.4885
  580MOL0     H78233   4.589   0.403   2.390  1.4426  0.7312  1.1930
  580MOL0     H78234   4.379   0.483   2.302  0.6255  0.1992 -0.7438
  580MOL0     H78235   4.339   0.887   2.196  2.4729  0.9714 -2.7320
  580MOL0     H78236   4.352   0.819   2.037  2.2630  0.6566  1.5478
  580MOL0     H78237   4.140   0.941   2.065  0.1954  0.4088  1.3086
  580MOL0     H78238   4.120   0.768   2.007  0.2619 -1.8550  0.4192
  580MOL0     H78239   4.065   0.718   2.256 -4.6627  2.0375  4.8131
  580MOL0     H78240   4.090   0.878   2.289  0.8067  0.0319 -0.6416
  580MOL0     H78241   3.909   0.940   2.107 -1.2984 -0.4165 -0.3075
  580MOL0     H78242   3.877   0.770   2.096 -0.3430  0.0367 -0.1382
  580MOL0     H78243   3.807   0.749   2.319  0.6026 -0.6438 -0.3499
  580MOL0     H78244   3.859   0.932   2.350  0.2695  2.3231 -2.4203
  580MOL0     H78245   3.679   1.004   2.206  3.4155 -1.1076 -2.7932
  580MOL0     H78246   3.645   0.849   2.149 -1.2757 -1.6562  0.3776
  580MOL0     H78247   3.472   0.856   2.296 -0.3936  2.1676  0.3047
  580MOL0     H78248   3.583   0.786   2.406 -3.7381  0.3971  1.5927
  580MOL0     H78249   3.520   1.071   2.348  0.2194 -1.0849 -1.0218
  580MOL0     H78250   3.625   1.016   2.490 -1.1623 -0.0241  0.8557
  580MOL0     H78251   3.271   0.852   2.432 -1.1739 -1.5572  1.7697
  580MOL0     H78252   3.048   0.994   2.720  2.1474  1.8973 -0.5306
  580MOL0     H78253   3.017   0.950   2.554  1.2149  1.6916 -1.4402
  580MOL0     H78254   3.158   0.740   2.739 -0.7566  0.7492  1.2377
  580MOL0     H78255   3.069   0.706   2.594 -1.8488 -0.7251  0.2212
  580MOL0     H78256   2.857   0.721   2.685  0.3899  0.5345 -1.0598
  580MOL0     H78257   2.915   0.817   2.822 -0.0351  2.0744 -2.8925
  580MOL0     H78258   2.856   0.589   2.883  0.4316 -0.7572  1.0948
  580MOL0     H78259   3.033   0.602   2.887 -2.4349 -2.8345  2.7102
  580MOL0     H78260   2.920   0.225   2.682  0.2082  0.4248 -0.8466
  580MOL0     H78261   2.993   0.045   2.569  1.3586  2.4562  0.4330
  580MOL0     H78262   3.148  -0.031   2.596 -1.2533 -0.2840 -1.8170
  580MOL0     H78263   3.021  -0.039   2.726 -0.5550  0.1316  1.3549
  580MOL0     H78264   3.626   0.159   2.950 -0.2441  0.6874 -0.5625
  580MOL0     H78265   3.824   0.046   3.032 -0.9003  2.1015 -0.9371
  580MOL0     H78266   3.941  -0.352   2.830 -1.2982  1.6848 -0.5128
  580MOL0     H78267   4.016  -0.211   2.749  1.8291  1.1974  1.5135
  580MOL0     H78268   4.206  -0.308   2.846  0.3932 -1.3205  1.1793
  580MOL0     H78269   4.160  -0.181   2.960 -2.6034  1.1126  0.7687
  580MOL0     H78270   4.080  -0.456   3.015  0.1371 -0.2600  2.2735
  580MOL0     H78271   4.094  -0.323   3.131  1.5041  0.2129  1.1977
  580MOL0     H78272   4.323  -0.463   2.985  1.3256 -0.2389 -0.3358
  580MOL0     H78273   4.340  -0.315   3.063 -1.7030  0.3766 -2.9795
  580MOL0     H78274   4.235  -0.554   3.222 -1.0486 -0.4203 -1.2628
  580MOL0     H78275   4.268  -0.387   3.280  1.1138 -0.9618  2.0336
  580MOL0     H78276   4.468  -0.596   3.188  3.0844 -0.0371  0.7519
  580MOL0     H78277   4.514  -0.424   3.205 -1.0274  0.5162 -0.9734
  580MOL0     H78278   4.355  -0.522   3.441 -2.0057  0.0648 -2.2774
  580MOL0     H78279   4.504  -0.424   3.441  2.6807 -1.0652 -0.1807
  580MOL0     H78280   4.589  -0.617   3.534 -1.1030 -1.2309  0.4690
  580MOL0     H78281   4.634  -0.608   3.370 -0.3416  1.2036  0.3614
  580MOL0     H78282   3.750  -0.269   2.746  0.3885  0.4399 -1.3837
  580MOL0     H78283   3.570  -0.153   2.655 -0.9623  0.2050  0.8818
  580MOL0     H78284   3.384   0.334   2.808  1.4163 -3.9188 -0.9790
  580MOL0     H78285   3.217   0.514   2.805  0.6221  0.9770 -3.5538
  580MOL0     H78286   4.550   0.856   2.191 -1.9759 -0.5444 -2.4618
  580MOL0     H78287   4.762   0.794   2.319 -1.2316  3.0376 -0.9139
  580MOL0     H78288   5.011   0.192   2.475  0.4193  0.4939  0.9847
  580MOL0     H78289   5.224   0.170   2.561  2.6177  0.5757  2.0873
  580MOL0     H78290   5.473   0.175   2.599 -0.5753  0.1254 -2.7408
  580MOL0     H78291   5.486   0.300   2.481 -1.5930 -1.9568 -1.0276
  580MOL0     H78292   5.624   0.442   2.578  0.0436 -0.2360 -0.9840
  580MOL0     H78293   5.693   0.284   2.568 -1.3214 -2.4903  1.6348
  580MOL0     H78294   5.599   0.266   2.813 -2.3650  2.3616 -1.8714
  580MOL0     H78295   5.640   0.434   2.818 -0.4656 -0.3255  0.5301
  580MOL0     H78296   5.838   0.331   2.891 -1.5693  0.9449  0.1286
  580MOL0     H78297   5.877   0.367   2.728  0.1265  0.2169  0.5311
  580MOL0     H78298   5.908  -0.047   2.734 -1.4503 -0.3390  2.0625
  580MOL0     H78299   5.266   0.592   2.590 -1.6361 -0.2718  3.0607
  580MOL0     H78300   5.047   0.625   2.482 -0.3815  0.8152 -2.5675
  581MOL0     O78301   8.745   8.352   8.385  0.2872  0.7073 -0.5332
  581MOL0     C78302   8.813   8.395   8.294  0.2380  0.2628 -1.4046
  581MOL0     O78303   8.766   8.452   8.179 -0.2351 -0.2571 -1.5113
  581MOL0     C78304   8.630   8.445   8.148 -0.1234 -0.5826 -0.1565
  581MOL0     C78305   8.552   8.565   8.140 -0.4708 -0.4581  0.2068
  581MOL0     C78306   8.427   8.560   8.100  0.9666 -0.0921  1.1504
  581MOL0     C78307   8.368   8.451   8.059 -1.2408  0.4745  0.8773
  581MOL0     O78308   8.240   8.452   8.025 -0.5707  0.4863 -0.3190
  581MOL0     C78309   8.212   8.389   7.895  0.5039 -0.2968 -0.7285
  581MOL0     C78310   8.058   8.381   7.895 -0.6168  0.5212  0.0846
  581MOL0     C78311   8.013   8.286   8.004  0.4453  0.1809  0.5158
  581MOL0     C78312   7.875   8.226   7.983  0.3161 -0.7018  0.6107
  581MOL0     C78313   7.760   8.325   8.002  0.4342  0.4310  0.1662
  581MOL0     C78314   7.629   8.254   8.007 -0.3311  0.5290 -0.6486
  581MOL0     C78315   7.507   8.347   8.002 -0.0086  0.1003  0.4346
  581MOL0     C78316   7.374   8.274   7.996 -0.5683  0.0281  0.1237
  581MOL0     N78317   7.354   8.204   8.131 -0.2078  0.3985  0.2442
  581MOL0     C78318   7.342   8.271   8.244  0.9405  0.5334 -0.6883
  581MOL0     C78319   7.347   8.167   8.339 -0.0563  0.6065  0.0256
  581MOL0     C78320   7.335   8.175   8.493  0.1211  0.0144 -1.1313
  581MOL0     C78321   7.474   8.175   8.557 -0.4533  0.0442  0.9114
  581MOL0     C78322   7.564   8.050   8.520  0.2242 -0.4136  0.8745
  581MOL0     C78323   7.493   7.913   8.566  0.5267  0.2168 -0.5092
  581MOL0     O78324   7.485   7.907   8.710  0.4547 -0.2762  0.4607
  581MOL0     C78325   7.592   7.865   8.772 -0.1462 -0.2864 -1.1093
  581MOL0     C78326   7.590   7.892   8.910  0.0639 -0.4189  0.4421
  581MOL0     C78327   7.695   7.857   8.994  1.5329  0.2852 -0.6397
  581MOL0     C78328   7.679   7.895   9.141 -0.0510 -0.1570 -0.1080
  581MOL0     C78329   7.806   7.788   8.935 -0.1912 -0.6964 -0.1952
  581MOL0     C78330   7.923   7.742   9.015  0.4500 -0.5946 -0.0458
  581MOL0     O78331   8.048   7.753   8.948 -0.0285 -0.2977 -0.1658
  581MOL0     C78332   8.153   7.706   9.015  0.6262  1.0417  0.7246
  581MOL0     C78333   8.185   7.572   8.995  0.3904 -0.2356  0.7266
  581MOL0     C78334   8.312   7.533   9.052  0.3302 -0.1659  0.3018
  581MOL0     C78335   8.379   7.615   9.142 -0.7659  1.1279 -0.0020
  581MOL0     O78336   8.476   7.559   9.227  0.5494 -0.3838 -0.1916
  581MOL0     C78337   8.514   7.617   9.358  0.5250 -0.7551 -0.3363
  581MOL0     C78338   8.627   7.708   9.335  0.0981  0.0948 -0.4163
  581MOL0     C78339   8.701   7.761   9.457 -0.6366 -0.3770  0.1220
  581MOL0     C78340   8.608   7.809   9.558 -0.0206 -0.3002  0.3265
  581MOL0     C78341   8.675   7.872   9.684 -0.6679 -0.4268 -0.1787
  581MOL0     C78342   8.747   7.763   9.779 -0.0527 -0.7698 -0.2742
  581MOL0     C78343   8.827   7.823   9.899  0.2906 -0.9324 -0.8110
  581MOL0     C78344   8.746   7.866  10.021  1.0825  0.1134 -1.3694
  581MOL0    Cl78345   8.622   7.745  10.075 -0.2489 -0.4660  0.5972
  581MOL0     C78346   8.340   7.750   9.158 -0.7006  0.1916 -0.2188
  581MOL0     C78347   8.227   7.793   9.096 -0.1796 -0.0293  0.4662
  581MOL0     O78348   7.905   7.674   9.113  0.7869 -0.4851  0.1501
  581MOL0     C78349   7.808   7.760   8.805  0.7337  0.6098  0.9582
  581MOL0     C78350   7.707   7.804   8.718 -0.2167 -1.0184 -0.4386
  581MOL0     N78351   7.366   8.044   8.274 -0.1033  0.2292  0.1699
  581MOL0     N78352   7.377   8.063   8.147  0.2299 -0.7480 -0.0654
  581MOL0     C78353   8.440   8.326   8.060 -0.8971  0.1170  0.7861
  581MOL0     C78354   8.565   8.326   8.110 -0.1279 -0.4960  0.0704
  581MOL0     C78355   8.957   8.387   8.322 -0.2912  0.1616  0.0655
  581MOL0     C78356   9.012   8.352   8.447  0.0715 -0.0487  0.0427
  581MOL0     C78357   9.148   8.344   8.459 -0.1991 -1.2057 -0.0059
  581MOL0     C78358   9.231   8.388   8.358  0.3176 -0.4935  1.3899
  581MOL0     O78359   9.370   8.372   8.365 -0.1050  0.3161 -0.2203
  581MOL0     C78360   9.437   8.478   8.428  0.3462  0.0213 -0.5594
  581MOL0     C78361   9.563   8.522   8.350  0.5681  0.4691 -0.6830
  581MOL0     C78362   9.682   8.460   8.410  0.6276  1.2264  0.2596
  581MOL0     C78363   9.820   8.505   8.364  0.6807 -0.2921  0.8401
  581MOL0     C78364   9.856   8.641   8.405  0.3902 -0.5929  0.1847
  581MOL0     C78365   9.882   8.746   8.457  0.1467 -0.2095  0.0534
  581MOL0     C78366   9.178   8.397   8.229  0.1548  0.0431 -1.1876
  581MOL0     C78367   9.042   8.411   8.212 -0.1777 -0.0322 -0.2552
  581MOL0     H78368   8.601   8.647   8.191  0.3717 -0.4707 -0.5638
  581MOL0     H78369   8.360   8.646   8.099  0.6561 -0.2682 -1.4662
  581MOL0     H78370   8.242   8.467   7.824  2.2167  1.3374  1.6225
  581MOL0     H78371   8.244   8.287   7.872  1.4330  0.1670 -1.6064
  581MOL0     H78372   8.007   8.475   7.917  0.3174  0.8589  0.8767
  581MOL0     H78373   8.017   8.347   7.800  0.3369  1.7955 -0.8235
  581MOL0     H78374   8.079   8.200   7.992  1.6315  0.8881  1.7509
  581MOL0     H78375   8.033   8.314   8.108  1.2804 -2.6731  1.2175
  581MOL0     H78376   7.881   8.186   7.882  0.1043 -2.3855  1.2312
  581MOL0     H78377   7.864   8.144   8.055  1.7516 -0.2613  1.3688
  581MOL0     H78378   7.768   8.389   8.090 -5.2901  2.1284 -0.0821
  581MOL0     H78379   7.763   8.384   7.910  0.7525  0.1205 -0.0243
  581MOL0     H78380   7.624   8.184   7.922  2.6837  1.6371 -1.8939
  581MOL0     H78381   7.630   8.203   8.103 -1.0854 -0.0264 -0.9272
  581MOL0     H78382   7.512   8.404   8.095 -0.4608  0.6920  0.1005
  581MOL0     H78383   7.524   8.417   7.919 -1.1891  0.5596  0.5600
  581MOL0     H78384   7.378   8.198   7.917  2.6773 -0.2496  0.4189
  581MOL0     H78385   7.303   8.356   7.980  1.5757  2.8207  3.3843
  581MOL0     H78386   7.320   8.372   8.276  0.2103 -0.2125  1.3070
  581MOL0     H78387   7.283   8.269   8.516  1.3276  0.3156  0.4991
  581MOL0     H78388   7.268   8.093   8.519 -1.1464  0.0691 -3.8516
  581MOL0     H78389   7.461   8.174   8.666 -3.4233 -0.7345  0.6384
  581MOL0     H78390   7.531   8.258   8.515 -1.8663 -0.6518 -2.8119
  581MOL0     H78391   7.656   8.062   8.578  1.6423 -1.6384 -0.9986
  581MOL0     H78392   7.594   8.046   8.415  0.3402 -1.5803  0.9420
  581MOL0     H78393   7.548   7.831   8.519  0.2787  0.6856 -1.6731
  581MOL0     H78394   7.393   7.911   8.523 -0.7463 -1.2028  2.2869
  581MOL0     H78395   7.502   7.940   8.952  2.1712  0.9029  3.7694
  581MOL0     H78396   7.734   7.847   9.223  0.0690 -1.1586 -0.7454
  581MOL0     H78397   7.709   8.000   9.145  0.0495 -0.1279 -1.2932
  581MOL0     H78398   7.574   7.890   9.170 -0.7142  1.6985 -2.0187
  581MOL0     H78399   8.117   7.510   8.938  1.9823 -0.7821 -0.6544
  581MOL0     H78400   8.349   7.433   9.030 -0.4092 -0.2505 -0.6410
  581MOL0     H78401   8.425   7.667   9.398  1.1779  1.2113 -1.2028
  581MOL0     H78402   8.539   7.534   9.425  2.4537  0.0540  0.0350
  581MOL0     H78403   8.701   7.655   9.274  0.2036 -2.6047  1.8418
  581MOL0     H78404   8.602   7.794   9.273 -1.2506 -0.3120 -0.4712
  581MOL0     H78405   8.780   7.829   9.424  0.6169 -2.5951 -1.7032
  581MOL0     H78406   8.751   7.676   9.504 -2.8445 -3.5019 -2.6816
  581MOL0     H78407   8.551   7.895   9.521  0.3379  0.1461  0.7955
  581MOL0     H78408   8.530   7.742   9.596 -2.7021  3.2759  1.7191
  581MOL0     H78409   8.597   7.911   9.749 -1.7515  0.0301 -1.7170
  581MOL0     H78410   8.748   7.948   9.654 -2.1049  0.4518 -1.6116
  581MOL0     H78411   8.668   7.699   9.819 -0.8706  0.5500  0.3357
  581MOL0     H78412   8.816   7.692   9.734  1.7321  0.7251 -0.0440
  581MOL0     H78413   8.897   7.898   9.861  0.5270 -0.2596  0.8522
  581MOL0     H78414   8.897   7.751   9.943 -0.7953  0.0068  2.8552
  581MOL0     H78415   8.685   7.951   9.992 -1.7101 -1.3201 -0.0759
  581MOL0     H78416   8.803   7.887  10.113 -2.5234 -0.6017  1.2522
  581MOL0     H78417   8.401   7.827   9.202 -0.7662  0.6156 -0.8585
  581MOL0     H78418   8.190   7.893   9.115 -0.5502  0.4005 -2.0579
  581MOL0     H78419   7.891   7.698   8.773  0.3423 -0.1078  1.3029
  581MOL0     H78420   7.728   7.779   8.614 -0.3555 -2.2523 -0.1926
  581MOL0     H78421   8.400   8.238   8.011  1.7333 -0.4845 -0.4631
  581MOL0     H78422   8.630   8.240   8.106  1.1611  0.4941 -1.6682
  581MOL0     H78423   8.946   8.341   8.533  0.4212  1.4469  0.5351
  581MOL0     H78424   9.193   8.312   8.553  2.0588  0.1721 -0.5281
  581MOL0     H78425   9.375   8.568   8.428  0.5082  0.1933 -3.1843
  581MOL0     H78426   9.461   8.451   8.531 -0.4027 -3.5251 -1.2041
  581MOL0     H78427   9.571   8.631   8.355  2.9879  0.2970  0.8479
  581MOL0     H78428   9.556   8.497   8.244  0.6721 -1.6121 -0.2497
  581MOL0     H78429   9.667   8.354   8.387  0.7319  0.9503  1.4254
  581MOL0     H78430   9.676   8.455   8.519 -1.0969 -3.3969  0.1861
  581MOL0     H78431   9.833   8.508   8.256 -0.8411 -1.4917  0.5911
  581MOL0     H78432   9.897   8.433   8.394  2.1195  0.7637 -0.1571
  581MOL0     H78433   9.912   8.839   8.501 -1.6063 -0.0997  1.1266
  581MOL0     H78434   9.242   8.386   8.143 -1.7344 -2.1451 -2.4533
  581MOL0     H78435   8.999   8.430   8.114 -1.1056  1.2546  0.3640
  582MOL0     O78436   0.653   1.060   9.095  0.6879 -0.3098  0.0866
  582MOL0     C78437   0.561   0.992   9.146  0.8143  0.1082  0.6452
  582MOL0     O78438   0.505   0.881   9.093  0.5165 -0.5681 -0.1592
  582MOL0     C78439   0.565   0.825   8.979  0.6740  0.4230  0.4418
  582MOL0     C78440   0.687   0.766   8.978  0.2233  0.9296  0.6508
  582MOL0     C78441   0.739   0.715   8.852 -0.4397  0.1636  1.0438
  582MOL0     C78442   0.671   0.736   8.731  0.8216 -0.4112  0.0403
  582MOL0     O78443   0.715   0.705   8.604 -0.5196  0.2475  0.0597
  582MOL0     C78444   0.861   0.696   8.579 -0.2844  0.8090 -0.4643
  582MOL0     C78445   0.900   0.667   8.430 -0.4650 -0.3627  0.2337
  582MOL0     C78446   1.051   0.689   8.409 -0.5317  0.0812  0.5128
  582MOL0     C78447   1.115   0.551   8.435  0.4567 -0.9627 -0.1175
  582MOL0     C78448   1.260   0.550   8.386  0.8973 -0.4970  0.3012
  582MOL0     C78449   1.341   0.651   8.470 -0.2221  0.0507  0.4529
  582MOL0     C78450   1.488   0.653   8.443  1.0735 -0.3139 -0.0883
  582MOL0     C78451   1.576   0.580   8.548  0.4455  0.3827  0.4789
  582MOL0     N78452   1.574   0.642   8.684 -0.0529  0.6292 -0.1458
  582MOL0     C78453   1.595   0.777   8.709 -0.5769 -0.0262  0.2399
  582MOL0     C78454   1.554   0.796   8.835  0.5429  0.4759  0.4588
  582MOL0     C78455   1.565   0.920   8.905  0.0131  0.5579 -0.0826
  582MOL0     C78456   1.552   0.901   9.054  0.7052 -0.2456  0.4958
  582MOL0     C78457   1.555   1.030   9.133 -0.3511 -0.2685 -0.5573
  582MOL0     C78458   1.534   0.993   9.281  0.2659 -0.1342  0.5316
  582MOL0     O78459   1.395   0.952   9.301 -0.2229 -0.0541 -0.3007
  582MOL0     C78460   1.350   0.924   9.427 -0.2682 -0.5469  0.3348
  582MOL0     C78461   1.255   0.824   9.444 -0.5394  1.2099  0.5083
  582MOL0     C78462   1.204   0.800   9.575  0.9507  0.0367  0.6349
  582MOL0     C78463   1.083   0.705   9.583 -0.7263  0.9622  0.0566
  582MOL0     C78464   1.247   0.867   9.686 -0.1526  0.4001 -0.0980
  582MOL0     C78465   1.193   0.866   9.820 -0.3785  0.0793 -1.3260
  582MOL0     O78466   1.062   0.869   9.834  0.5615  0.2393  0.6736
  582MOL0     C78467   0.991   0.861   9.947 -0.4747  0.4787  0.1082
  582MOL0     C78468   0.866   0.808   9.940 -0.7228  0.6092 -0.1662
  582MOL0     C78469   0.788   0.791  10.056 -0.3630 -0.0296 -0.8467
  582MOL0     C78470   0.838   0.829  10.181 -0.1341  0.3810  0.3943
  582MOL0     O78471   0.788   0.815  10.304  0.2157 -0.4387  0.3659
  582MOL0     C78472   0.651   0.847  10.329  0.4409 -0.9848  0.2939
  582MOL0     C78473   0.575   0.725  10.381 -0.3522  0.2133 -0.8139
  582MOL0     C78474   0.438   0.769  10.427  0.4039 -0.7825  0.4681
  582MOL0     C78475   0.361   0.809  10.298  0.6024 -0.5512 -1.0013
  582MOL0     C78476   0.213   0.817  10.325 -0.5100 -0.8708  0.8487
  582MOL0     C78477   0.129   0.687  10.326  0.4324  0.2981  0.2358
  582MOL0     C78478   0.123   0.607  10.457 -0.2572  0.5334  0.6714
  582MOL0     C78479  -0.013   0.521  10.460 -0.1214 -0.7145  0.1353
  582MOL0    Cl78480  -0.040   0.398  10.327 -0.3901  0.2842 -0.6087
  582MOL0     C78481   0.964   0.899  10.185  0.6715 -0.8398  0.3702
  582MOL0     C78482   1.040   0.917  10.065 -0.6533 -0.0691  0.2398
  582MOL0     O78483   1.274   0.860   9.918 -0.1682  1.3679  0.6023
  582MOL0     C78484   1.348   0.965   9.668  0.1055  0.5718  0.3817
  582MOL0     C78485   1.395   0.991   9.539  0.7261 -0.3280 -0.2600
  582MOL0     N78486   1.518   0.666   8.891  1.0193  0.5898 -0.3883
  582MOL0     N78487   1.535   0.574   8.805 -1.8966  0.1954  0.6274
  582MOL0     C78488   0.549   0.802   8.741  0.4128  0.0827  0.0241
  582MOL0     C78489   0.491   0.831   8.863 -0.0203  0.2837  0.0942
  582MOL0     C78490   0.495   1.036   9.266  0.3742 -1.0619  0.8077
  582MOL0     C78491   0.563   1.104   9.364 -0.6489 -0.2991 -0.1778
  582MOL0     C78492   0.506   1.143   9.480  0.3085 -0.2347  0.5540
  582MOL0     C78493   0.379   1.116   9.514 -0.7174  0.6987  0.7190
  582MOL0     O78494   0.315   1.143   9.633  0.2679  0.8966 -0.0174
  582MOL0     C78495   0.380   1.112   9.755  1.1084  0.2678 -0.0288
  582MOL0     C78496   0.418   0.967   9.780  0.0352  0.2751 -0.3522
  582MOL0     C78497   0.292   0.900   9.833  0.0336  0.3027  0.5159
  582MOL0     C78498   0.333   0.747   9.832 -0.4435 -0.5358 -0.0776
  582MOL0     C78499   0.234   0.660   9.893 -0.3658 -0.5699  0.5711
  582MOL0     C78500   0.154   0.598   9.948  0.1585 -0.3251  0.0862
  582MOL0     C78501   0.297   1.049   9.417 -0.2813 -0.6925  0.1223
  582MOL0     C78502   0.360   1.013   9.290 -0.4334  0.3223 -0.5070
  582MOL0     H78503   0.743   0.749   9.069 -1.4946  0.5152  1.6752
  582MOL0     H78504   0.834   0.662   8.859  0.4603  1.0733 -2.2719
  582MOL0     H78505   0.908   0.793   8.598  2.1545 -0.0799 -1.5130
  582MOL0     H78506   0.906   0.619   8.643  0.2582  0.5948 -1.0862
  582MOL0     H78507   0.877   0.563   8.406  1.2994 -0.1244 -3.0661
  582MOL0     H78508   0.839   0.734   8.370 -0.2809  0.0671  0.5163
  582MOL0     H78509   1.066   0.745   8.316  1.5731  0.6602  1.1409
  582MOL0     H78510   1.090   0.762   8.480  0.6064  1.0311 -1.0094
  582MOL0     H78511   1.116   0.530   8.543 -1.7449  0.8066  0.3231
  582MOL0     H78512   1.062   0.470   8.384 -1.9111 -0.3272  1.1903
  582MOL0     H78513   1.307   0.453   8.403  3.4766  0.9688  2.3216
  582MOL0     H78514   1.255   0.575   8.280  0.7609  1.3358  0.7055
  582MOL0     H78515   1.297   0.751   8.461 -0.3405  0.3139  3.1267
  582MOL0     H78516   1.334   0.630   8.577  0.4433 -0.5815  0.3797
  582MOL0     H78517   1.520   0.632   8.340  0.7949 -1.0005 -0.0404
  582MOL0     H78518   1.508   0.760   8.455  3.8092 -0.6977 -0.6339
  582MOL0     H78519   1.677   0.580   8.506  0.4064  0.2280  0.3849
  582MOL0     H78520   1.552   0.474   8.558  1.7517 -0.0917 -1.1245
  582MOL0     H78521   1.636   0.849   8.639 -1.2836  0.8715  0.7269
  582MOL0     H78522   1.663   0.961   8.878 -1.2862  2.5511 -2.0503
  582MOL0     H78523   1.486   0.989   8.873 -0.7618 -0.6186 -0.7577
  582MOL0     H78524   1.628   0.830   9.087 -0.2507 -2.8661 -2.4867
  582MOL0     H78525   1.450   0.861   9.061 -0.5334  2.8081  2.0533
  582MOL0     H78526   1.470   1.094   9.108 -2.7119 -0.6631  4.9911
  582MOL0     H78527   1.639   1.096   9.113 -1.5679  1.2043 -1.0126
  582MOL0     H78528   1.558   1.085   9.335  2.4036  0.3568 -1.1166
  582MOL0     H78529   1.601   0.910   9.306  2.1365 -0.1268 -3.6885
  582MOL0     H78530   1.206   0.788   9.355 -0.9443  3.3784 -0.2135
  582MOL0     H78531   1.112   0.617   9.641 -1.9656  0.3790 -0.1923
  582MOL0     H78532   0.995   0.739   9.637 -1.8903 -0.3916 -0.9020
  582MOL0     H78533   1.035   0.664   9.494  1.4705 -2.5589  0.2721
  582MOL0     H78534   0.821   0.777   9.847 -1.5941  1.4067 -0.0227
  582MOL0     H78535   0.688   0.750  10.040  0.0339 -1.7867  0.7707
  582MOL0     H78536   0.655   0.929  10.401 -1.9712  0.9874 -1.6656
  582MOL0     H78537   0.606   0.882  10.236  0.9129 -1.1696 -0.0096
  582MOL0     H78538   0.560   0.638  10.316 -2.6664 -0.9266  1.1116
  582MOL0     H78539   0.631   0.687  10.467  1.2953  2.4812 -0.7870
  582MOL0     H78540   0.453   0.850  10.499  1.7774  0.3027 -0.9661
  582MOL0     H78541   0.382   0.685  10.469  0.3435 -0.4287  1.1150
  582MOL0     H78542   0.399   0.906  10.267  0.6839 -0.4199 -0.5013
  582MOL0     H78543   0.370   0.737  10.216  1.4103 -0.2519 -1.1867
  582MOL0     H78544   0.174   0.890  10.253  1.2673  1.3362  1.9800
  582MOL0     H78545   0.191   0.869  10.418 -2.2534  0.9758 -0.5015
  582MOL0     H78546   0.031   0.731  10.306  0.7229  0.6810 -0.3698
  582MOL0     H78547   0.151   0.613  10.248 -2.2009 -0.8700  0.5058
  582MOL0     H78548   0.119   0.679  10.539  0.1904  0.9856  0.2979
  582MOL0     H78549   0.212   0.544  10.471 -0.1312  0.2049 -1.2728
  582MOL0     H78550  -0.097   0.589  10.443 -2.4851 -2.2767  4.1721
  582MOL0     H78551  -0.019   0.482  10.562 -1.3732 -1.6108 -0.2533
  582MOL0     H78552   1.016   0.941  10.270  1.2598  1.5765 -1.0733
  582MOL0     H78553   1.134   0.970  10.068 -0.8253  0.4466 -1.8764
  582MOL0     H78554   1.395   1.017   9.751  0.9567  0.7515 -0.1980
  582MOL0     H78555   1.466   1.072   9.521  1.3435 -1.2522 -2.1987
  582MOL0     H78556   0.498   0.815   8.646 -1.5772  1.8576  1.2489
  582MOL0     H78557   0.388   0.861   8.881 -0.0930 -0.1156  0.3525
  582MOL0     H78558   0.669   1.126   9.358 -0.3376 -1.2449  1.3630
  582MOL0     H78559   0.569   1.204   9.545 -2.0406  1.2019  1.6428
  582MOL0     H78560   0.475   1.166   9.769  1.1673 -0.1562  1.3537
  582MOL0     H78561   0.329   1.151   9.843 -1.1070 -1.0308 -0.6737
  582MOL0     H78562   0.490   0.949   9.860  1.4031 -0.7306 -1.7565
  582MOL0     H78563   0.459   0.920   9.691  2.5128 -1.3680  1.5256
  582MOL0     H78564   0.204   0.916   9.769 -2.4322 -3.4334  2.6295
  582MOL0     H78565   0.261   0.947   9.927  1.0327  0.5272  0.7498
  582MOL0     H78566   0.427   0.724   9.883 -0.9326 -1.8576  0.2601
  582MOL0     H78567   0.337   0.706   9.731 -2.1015  0.5247 -0.6078
  582MOL0     H78568   0.084   0.556  10.017 -1.8559  1.3155 -0.8467
  582MOL0     H78569   0.189   1.035   9.420 -0.7635  2.1032 -0.7798
  582MOL0     H78570   0.300   0.979   9.206 -0.7552  0.8621 -0.5038
  583MOL0     O78571   9.452  10.595   4.267 -0.1084 -0.1719  0.6568
  583MOL0     C78572   9.468  10.479   4.293 -1.3157  0.9210 -0.4262
  583MOL0     O78573   9.374  10.386   4.337 -0.0132  0.2485 -0.0713
  583MOL0     C78574   9.250  10.430   4.358  0.6140  0.2376 -0.4154
  583MOL0     C78575   9.185  10.428   4.477  0.1460 -0.0385  0.3792
  583MOL0     C78576   9.046  10.456   4.492 -0.0736  0.2837 -0.6281
  583MOL0     C78577   8.971  10.487   4.382  0.7059  1.2820  0.5863
  583MOL0     O78578   8.836  10.506   4.388 -0.1070 -0.2355  0.2631
  583MOL0     C78579   8.798  10.622   4.461  0.1398 -0.2333  1.2500
  583MOL0     C78580   8.657  10.622   4.510  0.1496  0.8764 -0.7207
  583MOL0     C78581   8.549  10.597   4.415 -1.3965  0.2148  0.2463
  583MOL0     C78582   8.416  10.558   4.469  0.8733  0.3352  0.3137
  583MOL0     C78583   8.322  10.493   4.366 -1.0572 -0.4365 -0.1888
  583MOL0     C78584   8.182  10.472   4.416  0.6191 -0.2372 -0.7100
  583MOL0     C78585   8.092  10.590   4.396 -0.1513  0.6237 -0.4019
  583MOL0     C78586   7.945  10.536   4.399  0.1141  0.3455  0.8960
  583MOL0     N78587   7.904  10.535   4.535  0.1352  0.0032 -0.1780
  583MOL0     C78588   7.910  10.424   4.621  0.0844 -0.3082  0.2613
  583MOL0     C78589   7.878  10.468   4.740  0.2626 -0.2617 -0.2861
  583MOL0     C78590   7.860  10.392   4.868 -0.4349 -0.3844 -0.1474
  583MOL0     C78591   7.967  10.294   4.904  0.6431  0.8957 -0.1190
  583MOL0     C78592   8.102  10.362   4.914  0.2824 -0.1255  0.4091
  583MOL0     C78593   8.207  10.275   4.978 -0.6604  0.1671 -0.4834
  583MOL0     O78594   8.208  10.146   4.914  0.1262 -0.5066 -0.7020
  583MOL0     C78595   8.291  10.039   4.958  0.3099 -0.5350 -0.1767
  583MOL0     C78596   8.406  10.059   5.033 -0.3334 -0.3691 -0.3775
  583MOL0     C78597   8.491   9.959   5.079 -0.1271 -0.1014  0.2856
  583MOL0     C78598   8.615  10.003   5.151  0.2676 -0.2412 -0.3656
  583MOL0     C78599   8.455   9.828   5.052 -0.2975 -0.1483 -0.6909
  583MOL0     C78600   8.552   9.716   5.089 -0.1152  1.1599  0.3921
  583MOL0     O78601   8.685   9.746   5.066 -0.3601  0.6785  0.5221
  583MOL0     C78602   8.791   9.655   5.083  0.2721 -1.0770  0.0694
  583MOL0     C78603   8.900   9.682   4.996  0.2015 -0.4948  0.6450
  583MOL0     C78604   9.010   9.598   5.010 -0.8313  0.7497  1.1540
  583MOL0     C78605   9.007   9.476   5.084 -0.0422  0.7873 -0.0195
  583MOL0     O78606   9.120   9.393   5.073 -0.0482 -0.4307 -0.5915
  583MOL0     C78607   9.092   9.252   5.058  0.1804  0.6659 -1.2936
  583MOL0     C78608   9.214   9.163   5.041 -0.5072  0.1680 -0.4380
  583MOL0     C78609   9.289   9.150   5.183  0.8537 -0.1159  0.6396
  583MOL0     C78610   9.423   9.088   5.177  0.2346 -0.7243  0.0192
  583MOL0     C78611   9.490   9.081   5.316  0.2654  0.0130 -0.6696
  583MOL0     C78612   9.627   9.010   5.319  0.3393 -0.0570  0.8409
  583MOL0     C78613   9.745   9.078   5.239  0.0613  0.0090 -0.2207
  583MOL0     C78614   9.872   8.994   5.251 -0.1064  0.3043 -0.7246
  583MOL0    Cl78615   9.916   8.966   5.425 -0.0323  0.2127 -0.7175
  583MOL0     C78616   8.897   9.452   5.173  0.2187 -0.2783 -0.2063
  583MOL0     C78617   8.794   9.545   5.174  0.9637  0.1216 -0.2949
  583MOL0     O78618   8.498   9.603   5.110  0.7185  0.5861  0.0446
  583MOL0     C78619   8.337   9.805   4.983  0.2107  0.2724  1.3492
  583MOL0     C78620   8.265   9.906   4.928 -0.6897 -0.2013  0.0483
  583MOL0     N78621   7.847  10.605   4.736 -0.5424 -0.0731 -0.5335
  583MOL0     N78622   7.857  10.645   4.609 -1.1588  0.2052  0.3571
  583MOL0     C78623   9.031  10.493   4.260  0.3584 -0.4818  0.4322
  583MOL0     C78624   9.171  10.472   4.246 -0.0273  0.2772 -0.1275
  583MOL0     C78625   9.607  10.433   4.292  0.0631  0.9073 -0.3699
  583MOL0     C78626   9.643  10.300   4.321 -0.9289  1.3645  0.1853
  583MOL0     C78627   9.773  10.256   4.311 -0.7127  0.0215  0.5103
  583MOL0     C78628   9.880  10.342   4.277  0.9143  0.1822 -0.2049
  583MOL0     O78629  10.005  10.289   4.283 -0.7170 -0.2435 -0.5862
  583MOL0     C78630  10.121  10.358   4.238  0.5543 -0.1341  0.4233
  583MOL0     C78631  10.127  10.360   4.080 -1.1639 -0.2437 -0.0177
  583MOL0     C78632  10.273  10.367   4.030  0.8488  0.7976 -0.8425
  583MOL0     C78633  10.273  10.385   3.878  0.4399  0.1969 -1.1312
  583MOL0     C78634  10.398  10.329   3.824  0.2799  0.3118  1.0468
  583MOL0     C78635  10.495  10.262   3.792 -0.4310  0.1211 -0.0234
  583MOL0     C78636   9.844  10.474   4.259 -0.3342 -0.0144 -0.2347
  583MOL0     C78637   9.711  10.517   4.255 -0.1591  0.3137  0.1770
  583MOL0     H78638   9.241  10.396   4.565  0.8859 -0.6554 -0.2984
  583MOL0     H78639   8.995  10.444   4.588 -1.9148  0.9874 -1.4618
  583MOL0     H78640   8.862  10.628   4.550  2.5936 -3.1458 -0.1584
  583MOL0     H78641   8.819  10.715   4.407 -1.0062 -0.8013 -0.2307
  583MOL0     H78642   8.665  10.551   4.593  0.9940  1.6554 -0.1088
  583MOL0     H78643   8.628  10.713   4.562 -0.3437 -0.6586  1.8975
  583MOL0     H78644   8.547  10.686   4.351  3.8419 -0.2340 -1.0166
  583MOL0     H78645   8.585  10.518   4.348 -0.5596  0.4019  0.4614
  583MOL0     H78646   8.445  10.497   4.555  1.9815 -0.6990 -0.7627
  583MOL0     H78647   8.363  10.647   4.505  1.1032 -0.7743  3.7386
  583MOL0     H78648   8.324  10.574   4.292  1.6564  0.3501  0.5920
  583MOL0     H78649   8.377  10.408   4.324  4.0061  1.0364  2.4693
  583MOL0     H78650   8.132  10.392   4.360 -0.2716 -1.9839  2.3158
  583MOL0     H78651   8.178  10.445   4.522 -1.6286  1.0709 -0.3858
  583MOL0     H78652   8.106  10.668   4.471 -0.9631  2.3097 -1.9102
  583MOL0     H78653   8.103  10.645   4.302  2.5699  0.4609 -0.2367
  583MOL0     H78654   7.928  10.437   4.355 -1.7466  1.7459 -1.8745
  583MOL0     H78655   7.884  10.607   4.342  2.4746  1.9617  0.2395
  583MOL0     H78656   7.949  10.324   4.602  0.2839 -0.4946  1.5302
  583MOL0     H78657   7.859  10.467   4.948  2.6132 -1.5791  1.1740
  583MOL0     H78658   7.767  10.337   4.860 -0.4878 -1.4013  4.4306
  583MOL0     H78659   7.974  10.223   4.821 -0.7765  0.5705  0.0158
  583MOL0     H78660   7.930  10.238   4.991  0.5769  1.2217  0.0646
  583MOL0     H78661   8.106  10.459   4.964  2.7375  0.4869 -0.8586
  583MOL0     H78662   8.145  10.380   4.816  1.1840  1.3103  1.0360
  583MOL0     H78663   8.196  10.269   5.087  3.3598 -0.5196  0.0625
  583MOL0     H78664   8.307  10.319   4.968 -1.4754  2.4372  0.8088
  583MOL0     H78665   8.441  10.160   5.048 -1.7949 -0.1959  2.7319
  583MOL0     H78666   8.611  10.112   5.142  0.4025 -0.2607 -0.6781
  583MOL0     H78667   8.618   9.968   5.254 -2.0517 -2.5666 -0.9556
  583MOL0     H78668   8.712   9.971   5.114 -0.1252 -0.8070 -0.9351
  583MOL0     H78669   8.906   9.775   4.941 -2.2647  0.4507  1.8063
  583MOL0     H78670   9.093   9.609   4.941 -2.0170 -2.6682 -1.0290
  583MOL0     H78671   9.047   9.222   5.153 -0.6407  0.7887 -1.6398
  583MOL0     H78672   9.031   9.225   4.972 -0.2102  1.5197 -1.2908
  583MOL0     H78673   9.184   9.066   4.999  0.4682 -0.4430  0.2448
  583MOL0     H78674   9.274   9.210   4.963  2.4136 -2.3333  0.1154
  583MOL0     H78675   9.230   9.083   5.247  1.5745 -0.7829  0.6193
  583MOL0     H78676   9.301   9.246   5.233  0.3412 -0.6345  1.8036
  583MOL0     H78677   9.419   8.990   5.129 -1.0478 -0.3369 -0.7043
  583MOL0     H78678   9.496   9.150   5.124  1.0180  0.0933  1.9732
  583MOL0     H78679   9.428   9.023   5.384  2.4564 -0.7376  0.7943
  583MOL0     H78680   9.499   9.179   5.362 -1.4623 -0.2080  0.1943
  583MOL0     H78681   9.655   9.005   5.425  0.4114  1.2606  0.8942
  583MOL0     H78682   9.616   8.906   5.288  1.8420 -0.4048  1.3681
  583MOL0     H78683   9.756   9.182   5.272 -1.5188  0.6880 -1.6216
  583MOL0     H78684   9.712   9.075   5.134 -1.6732 -2.6631  0.3156
  583MOL0     H78685   9.955   9.049   5.206 -0.7965  2.6740  0.7100
  583MOL0     H78686   9.868   8.901   5.194  1.1602  0.8043 -1.6818
  583MOL0     H78687   8.894   9.363   5.235  1.7586  0.1978  0.5824
  583MOL0     H78688   8.704   9.534   5.233  0.1627  1.7927 -1.1284
  583MOL0     H78689   8.299   9.706   4.958  1.1220  0.2222  0.0733
  583MOL0     H78690   8.179   9.886   4.866 -2.2215 -2.0492  2.5706
  583MOL0     H78691   8.965  10.492   4.174  1.4011  0.1828 -0.3998
  583MOL0     H78692   9.219  10.479   4.149  1.6152  0.8187  0.6762
  583MOL0     H78693   9.561  10.232   4.339  0.4082 -0.2493  0.3844
  583MOL0     H78694   9.789  10.149   4.324 -0.9093  0.0165  0.7316
  583MOL0     H78695  10.148  10.453   4.284  0.5245 -0.2228  0.6255
  583MOL0     H78696  10.206  10.296   4.270  1.5228  0.9567  0.0304
  583MOL0     H78697  10.067  10.432   4.024  0.9093 -0.6524 -2.9580
  583MOL0     H78698  10.082  10.270   4.039 -1.1488 -0.1997 -0.1325
  583MOL0     H78699  10.318  10.274   4.064  0.0636  1.0406  0.9943
  583MOL0     H78700  10.329  10.447   4.080  1.2068 -0.0098  0.0749
  583MOL0     H78701  10.270  10.492   3.854 -0.6247  0.3992 -0.2131
  583MOL0     H78702  10.189  10.334   3.830  1.4045  0.4302 -3.1265
  583MOL0     H78703  10.573  10.191   3.779 -0.5799  0.0895 -0.7996
  583MOL0     H78704   9.930  10.537   4.238 -0.1081 -1.4839 -4.8284
  583MOL0     H78705   9.690  10.618   4.220  2.7756  0.7220 -0.6134
  584MOL0     O78706   0.114   2.189   8.134 -0.0147  0.0695 -1.3866
  584MOL0     C78707   0.215   2.155   8.068 -0.5274  0.6007 -0.1621
  584MOL0     O78708   0.225   2.051   7.981 -0.5038 -1.2167  0.7309
  584MOL0     C78709   0.105   2.006   7.942  0.1209  0.0400 -0.0985
  584MOL0     C78710   0.019   1.933   8.030 -0.4364  0.4262 -0.1691
  584MOL0     C78711  -0.106   1.885   7.984  0.5220 -1.1128 -0.6443
  584MOL0     C78712  -0.151   1.918   7.854  0.4040  0.4087 -0.3998
  584MOL0     O78713  -0.280   1.872   7.816 -0.1649  0.5162 -0.6359
  584MOL0     C78714  -0.312   1.859   7.671 -0.9884  0.3385 -0.1013
  584MOL0     C78715  -0.437   1.771   7.662  0.1932 -0.6563 -0.1364
  584MOL0     C78716  -0.428   1.639   7.741  0.1965  0.3483  0.0298
  584MOL0     C78717  -0.549   1.556   7.694  0.3964 -1.1267 -0.8653
  584MOL0     C78718  -0.546   1.411   7.744 -0.0748  0.2144 -0.2443
  584MOL0     C78719  -0.664   1.328   7.687  1.3768 -0.3591  0.6398
  584MOL0     C78720  -0.798   1.383   7.717  0.9429  1.0660 -0.2175
  584MOL0     C78721  -0.917   1.312   7.638 -0.4609  0.0586  0.4299
  584MOL0     N78722  -1.045   1.350   7.705 -0.7962  0.0182  0.1427
  584MOL0     C78723  -1.131   1.259   7.758  0.0679  0.3950  0.4025
  584MOL0     C78724  -1.238   1.328   7.806 -0.0802  0.6176  0.1511
  584MOL0     C78725  -1.358   1.285   7.883 -0.7974  1.2001 -0.0822
  584MOL0     C78726  -1.481   1.291   7.786 -0.2506 -0.0785  0.6650
  584MOL0     C78727  -1.604   1.236   7.853  0.5615  0.0414 -0.0845
  584MOL0     C78728  -1.736   1.245   7.767 -0.1558  0.5882 -1.4157
  584MOL0     O78729  -1.784   1.377   7.752  0.0005  0.7764  0.1642
  584MOL0     C78730  -1.917   1.398   7.711  0.9503  0.2688  1.1330
  584MOL0     C78731  -1.957   1.532   7.687 -0.0703  0.2580  0.5819
  584MOL0     C78732  -2.083   1.573   7.648 -0.1160  0.0905  0.5608
  584MOL0     C78733  -2.103   1.721   7.624  0.0104 -0.6138 -0.2312
  584MOL0     C78734  -2.182   1.479   7.634 -0.2442  0.5196 -0.2234
  584MOL0     C78735  -2.325   1.509   7.620  0.4680 -0.4845 -0.0046
  584MOL0     O78736  -2.400   1.417   7.548  0.1102 -0.3276  0.7161
  584MOL0     C78737  -2.536   1.417   7.556  0.6240 -0.2461  0.5580
  584MOL0     C78738  -2.607   1.456   7.672  0.3425  0.5272  0.4276
  584MOL0     C78739  -2.745   1.461   7.667 -0.4351 -0.7507 -0.0095
  584MOL0     C78740  -2.817   1.426   7.549 -0.6102  0.0466  0.6884
  584MOL0     O78741  -2.946   1.460   7.552 -0.0193 -0.0137 -0.0896
  584MOL0     C78742  -3.016   1.450   7.426  1.2203 -0.2081  0.1014
  584MOL0     C78743  -3.127   1.347   7.436 -0.1995  0.0811 -0.4505
  584MOL0     C78744  -3.079   1.204   7.390  0.1729  0.8356 -0.4137
  584MOL0     C78745  -3.177   1.093   7.447  0.3018  0.1354 -0.0579
  584MOL0     C78746  -3.150   0.946   7.403  0.2106 -0.2174  0.4020
  584MOL0     C78747  -3.153   0.911   7.259 -0.4704 -0.6148  0.3698
  584MOL0     C78748  -3.141   0.765   7.228 -0.0277  0.2695  0.4265
  584MOL0     C78749  -3.125   0.743   7.078  1.1195  0.2763  0.6871
  584MOL0    Cl78750  -3.036   0.585   7.048 -0.0394  0.0431 -0.2749
  584MOL0     C78751  -2.746   1.375   7.437 -0.6499 -0.6551 -0.5448
  584MOL0     C78752  -2.604   1.380   7.443  0.0281 -0.4797  0.2526
  584MOL0     O78753  -2.362   1.615   7.666  0.0315 -0.3916 -0.8631
  584MOL0     C78754  -2.152   1.346   7.652 -0.7307  0.2081  0.3110
  584MOL0     C78755  -2.022   1.304   7.694 -0.2903 -0.5037  0.1157
  584MOL0     N78756  -1.214   1.459   7.760 -0.0086  0.1476 -0.2733
  584MOL0     N78757  -1.107   1.468   7.701  0.7720  0.4375 -0.2724
  584MOL0     C78758  -0.062   1.982   7.766  0.2838 -0.2872 -0.7211
  584MOL0     C78759   0.069   2.014   7.811  0.0002 -0.0039  0.2633
  584MOL0     C78760   0.338   2.236   8.097  1.1971  0.1798  0.6279
  584MOL0     C78761   0.466   2.185   8.059  1.1093  0.0654  0.0541
  584MOL0     C78762   0.574   2.266   8.070 -0.0949  0.4992  0.9368
  584MOL0     C78763   0.572   2.389   8.129  0.0905 -0.0818  0.2645
  584MOL0     O78764   0.689   2.467   8.141 -0.1615  0.5792  0.1153
  584MOL0     C78765   0.681   2.607   8.173  0.2387  0.3713  0.1823
  584MOL0     C78766   0.805   2.665   8.110  0.5253  0.0359  0.5400
  584MOL0     C78767   0.931   2.684   8.205  0.4572 -0.0427  0.9223
  584MOL0     C78768   0.948   2.565   8.309 -0.1890  0.1063 -0.2325
  584MOL0     C78769   1.089   2.551   8.353 -0.7223 -0.1863 -0.1920
  584MOL0     C78770   1.207   2.541   8.363  0.5240 -0.1079 -0.7340
  584MOL0     C78771   0.446   2.439   8.170 -0.0271 -0.3173  0.9536
  584MOL0     C78772   0.332   2.363   8.155  0.0720  0.3220  1.1096
  584MOL0     H78773   0.043   1.917   8.135 -0.7586 -3.0579 -0.5052
  584MOL0     H78774  -0.164   1.812   8.039 -0.1131 -0.7270 -0.7952
  584MOL0     H78775  -0.327   1.957   7.626  2.9212  1.9771  1.6790
  584MOL0     H78776  -0.229   1.809   7.620 -0.6806 -0.1810  0.8748
  584MOL0     H78777  -0.520   1.831   7.701 -0.4150 -1.6558  0.1286
  584MOL0     H78778  -0.464   1.757   7.557  2.6036 -5.1169 -0.3844
  584MOL0     H78779  -0.334   1.586   7.722  0.2638  1.2698 -2.6950
  584MOL0     H78780  -0.444   1.664   7.846 -0.7483  3.3593 -0.7081
  584MOL0     H78781  -0.639   1.613   7.722  1.1422 -0.6426  0.6439
  584MOL0     H78782  -0.550   1.544   7.586 -0.1896 -0.5609 -0.9365
  584MOL0     H78783  -0.452   1.369   7.707  1.4895  1.8395  1.6062
  584MOL0     H78784  -0.544   1.419   7.853 -0.8074 -2.2671  0.0017
  584MOL0     H78785  -0.657   1.327   7.578  1.1406 -2.0784  0.6114
  584MOL0     H78786  -0.641   1.222   7.703  0.7730 -0.6202 -0.2114
  584MOL0     H78787  -0.828   1.360   7.820  0.8629 -1.6476 -0.7747
  584MOL0     H78788  -0.800   1.491   7.705  2.4398  1.3356  1.4558
  584MOL0     H78789  -0.904   1.204   7.648 -2.4478 -0.3599 -0.8103
  584MOL0     H78790  -0.920   1.346   7.534  1.4361 -0.3735  0.2055
  584MOL0     H78791  -1.112   1.152   7.757  4.3546  1.0123 -1.0846
  584MOL0     H78792  -1.351   1.182   7.920 -2.5266  0.7320 -0.9448
  584MOL0     H78793  -1.372   1.357   7.965 -2.7482 -0.9186  1.5858
  584MOL0     H78794  -1.470   1.240   7.690  0.4850 -0.2141  0.8173
  584MOL0     H78795  -1.498   1.392   7.747  0.9244 -1.0626 -2.8269
  584MOL0     H78796  -1.621   1.286   7.949 -0.1481 -0.9061  0.2916
  584MOL0     H78797  -1.593   1.129   7.871  0.8755  0.4184  2.1971
  584MOL0     H78798  -1.800   1.179   7.826  1.2818 -1.2641 -1.8445
  584MOL0     H78799  -1.738   1.190   7.673 -0.5678  0.8336 -1.5534
  584MOL0     H78800  -1.880   1.609   7.689  2.7075 -2.2589 -1.5060
  584MOL0     H78801  -2.115   1.764   7.724 -0.8673 -1.9115  0.2568
  584MOL0     H78802  -2.013   1.742   7.567 -1.0996  0.1072 -1.7631
  584MOL0     H78803  -2.187   1.743   7.558  0.3482  1.9020  0.0788
  584MOL0     H78804  -2.559   1.494   7.762  1.0996  0.5796  0.0056
  584MOL0     H78805  -2.796   1.503   7.753  1.5169 -2.7146  2.2611
  584MOL0     H78806  -3.077   1.541   7.416  0.6033 -0.7515 -1.4236
  584MOL0     H78807  -2.958   1.441   7.333  0.0195  0.7138 -0.7826
  584MOL0     H78808  -3.166   1.349   7.538 -2.6893  1.3386 -1.3459
  584MOL0     H78809  -3.214   1.361   7.371  0.1959 -0.2595 -1.0663
  584MOL0     H78810  -2.976   1.184   7.422  0.2960  0.4882 -1.0176
  584MOL0     H78811  -3.082   1.198   7.281  0.0704 -2.6484 -0.3510
  584MOL0     H78812  -3.181   1.108   7.556 -3.8452 -0.5901  0.0578
  584MOL0     H78813  -3.281   1.114   7.419 -0.1281  2.3908  2.7692
  584MOL0     H78814  -3.219   0.888   7.466  1.2823 -0.2605  1.5770
  584MOL0     H78815  -3.056   0.919   7.452  1.4014  1.3138 -0.9381
  584MOL0     H78816  -3.252   0.942   7.223 -0.2377 -0.0440  0.2125
  584MOL0     H78817  -3.085   0.977   7.204 -0.8662 -1.0742 -0.7068
  584MOL0     H78818  -3.235   0.715   7.251 -0.7165  1.9526  1.5165
  584MOL0     H78819  -3.060   0.719   7.285  0.4998 -1.4898 -1.6245
  584MOL0     H78820  -3.066   0.824   7.035 -0.1093  0.2204 -1.2257
  584MOL0     H78821  -3.223   0.738   7.030  0.2755 -1.3002  2.4513
  584MOL0     H78822  -2.794   1.338   7.346  1.4281 -1.6879 -1.2950
  584MOL0     H78823  -2.548   1.350   7.356 -0.0193 -0.9001  0.3645
  584MOL0     H78824  -2.233   1.274   7.644 -0.7071  0.0447  1.3740
  584MOL0     H78825  -2.004   1.200   7.722 -0.3168 -0.5940 -0.1962
  584MOL0     H78826  -0.107   2.003   7.669 -2.9619  0.5642  0.8215
  584MOL0     H78827   0.129   2.070   7.740 -0.7671  1.8200  0.9689
  584MOL0     H78828   0.478   2.086   8.014  0.7082 -0.1249  0.3628
  584MOL0     H78829   0.671   2.233   8.033 -0.3945 -0.8542  1.2971
  584MOL0     H78830   0.595   2.651   8.121 -0.2456 -1.4018 -0.5893
  584MOL0     H78831   0.674   2.617   8.281  0.9699 -1.4370  0.4298
  584MOL0     H78832   0.785   2.751   8.046  0.6569  0.2180  0.7407
  584MOL0     H78833   0.833   2.586   8.039  1.6201  2.3833 -1.7648
  584MOL0     H78834   0.921   2.774   8.265 -1.1931  0.2396  0.2600
  584MOL0     H78835   1.019   2.701   8.141  0.8220 -1.6960  0.9327
  584MOL0     H78836   0.899   2.474   8.273  0.2298 -0.8378  1.4731
  584MOL0     H78837   0.883   2.602   8.389 -0.8767 -1.0588 -0.2218
  584MOL0     H78838   1.313   2.523   8.367  0.7963  0.7086 -3.0537
  584MOL0     H78839   0.434   2.536   8.218  1.1049  0.7975 -0.9284
  584MOL0     H78840   0.233   2.401   8.178 -0.4696 -0.4778  0.1907
  585MOL0     O78841  10.001   0.837   7.415  0.9722 -0.7493  0.4632
  585MOL0     C78842  10.062   0.941   7.439 -0.2888  0.2012 -0.4678
  585MOL0     O78843  10.041   1.017   7.552 -1.1476 -0.1298 -0.0834
  585MOL0     C78844   9.946   0.960   7.639 -0.5842 -0.0001  0.6836
  585MOL0     C78845   9.984   0.889   7.753 -0.4988 -0.1280 -1.1053
  585MOL0     C78846   9.884   0.813   7.817  0.0066  0.2092  0.4624
  585MOL0     C78847   9.747   0.819   7.774  0.1348  0.1364 -1.1610
  585MOL0     O78848   9.663   0.739   7.859  0.4219 -0.6298  0.6574
  585MOL0     C78849   9.525   0.729   7.834  0.3919  0.4490 -0.0923
  585MOL0     C78850   9.452   0.632   7.936 -0.0899 -0.7254  0.2972
  585MOL0     C78851   9.533   0.499   7.976 -0.0806  0.4106 -0.6585
  585MOL0     C78852   9.468   0.403   8.082  0.0320  0.9230 -0.0854
  585MOL0     C78853   9.571   0.289   8.090  0.3238  0.1632 -0.3829
  585MOL0     C78854   9.508   0.187   8.189 -0.5233  0.3505 -0.9740
  585MOL0     C78855   9.597   0.072   8.237 -0.0913  0.9830 -0.1661
  585MOL0     C78856   9.716   0.117   8.328 -0.6517 -0.4761 -0.4257
  585MOL0     N78857   9.809   0.010   8.327 -0.5360 -0.8899 -0.0406
  585MOL0     C78858   9.796  -0.117   8.363 -0.4433 -0.6032 -0.6558
  585MOL0     C78859   9.922  -0.166   8.364  0.0773 -0.9621 -0.1500
  585MOL0     C78860   9.958  -0.306   8.390 -0.9309  0.4270  0.2418
  585MOL0     C78861  10.056  -0.321   8.506  0.2141 -0.4646  0.1530
  585MOL0     C78862  10.081  -0.474   8.525 -0.2283 -0.4183 -0.0911
  585MOL0     C78863  10.199  -0.506   8.621 -0.1820  0.1407  0.0919
  585MOL0     O78864  10.190  -0.437   8.745 -0.1359  1.0349  0.3153
  585MOL0     C78865  10.086  -0.455   8.834 -0.4658  0.4190  0.4504
  585MOL0     C78866   9.999  -0.563   8.831  0.8651  0.9821 -0.1014
  585MOL0     C78867   9.889  -0.583   8.920 -0.1478 -1.6177  1.2669
  585MOL0     C78868   9.802  -0.700   8.903  0.6276  0.7872 -0.3120
  585MOL0     C78869   9.877  -0.486   9.025  0.4302  1.0998  0.1907
  585MOL0     C78870   9.761  -0.490   9.123  0.6268 -0.4554  0.3087
  585MOL0     O78871   9.738  -0.378   9.195 -0.1648 -0.5668 -0.4650
  585MOL0     C78872   9.654  -0.381   9.307 -0.2714  0.2058  0.2224
  585MOL0     C78873   9.593  -0.253   9.331 -0.3239  0.1042  0.3165
  585MOL0     C78874   9.496  -0.239   9.440 -0.1978 -0.0479 -0.2639
  585MOL0     C78875   9.463  -0.348   9.514  0.3547  0.9590 -0.0644
  585MOL0     O78876   9.367  -0.339   9.608  0.2297 -0.3797  0.2421
  585MOL0     C78877   9.364  -0.410   9.728  0.7013  0.5039  0.8747
  585MOL0     C78878   9.389  -0.309   9.844 -0.0287  0.0280  0.5482
  585MOL0     C78879   9.539  -0.278   9.847  0.0194  0.0559  0.2766
  585MOL0     C78880   9.585  -0.178   9.956 -0.3949 -0.1717 -0.0879
  585MOL0     C78881   9.735  -0.137   9.928  0.1439  0.0078 -0.3281
  585MOL0     C78882   9.835  -0.249   9.966 -0.3651 -0.6717 -0.2029
  585MOL0     C78883   9.974  -0.195   9.974 -1.3259 -0.0205  0.3726
  585MOL0     C78884  10.041  -0.167   9.840  0.6959 -0.1404 -0.5600
  585MOL0    Cl78885  10.028  -0.298   9.722 -0.2639  0.3418 -0.6349
  585MOL0     C78886   9.523  -0.474   9.493 -0.2121  0.9017 -0.2975
  585MOL0     C78887   9.614  -0.490   9.387  0.5368 -0.1807 -0.9836
  585MOL0     O78888   9.688  -0.586   9.123 -0.1770 -0.3510 -0.0326
  585MOL0     C78889   9.963  -0.374   9.026  0.6334 -0.2229  0.4720
  585MOL0     C78890  10.067  -0.365   8.940 -0.1217  0.5687 -0.2910
  585MOL0     N78891  10.009  -0.063   8.319  0.1890 -0.0091  0.1491
  585MOL0     N78892   9.934   0.043   8.302 -0.5164  0.5192  0.5337
  585MOL0     C78893   9.717   0.900   7.674 -0.0357 -0.0383  0.4794
  585MOL0     C78894   9.808   0.975   7.608 -0.0157 -0.6457  0.3505
  585MOL0     C78895  10.159   0.993   7.334 -0.7352 -0.4789 -0.8765
  585MOL0     C78896  10.266   1.074   7.367  0.4867 -0.2331  0.2409
  585MOL0     C78897  10.342   1.133   7.274 -0.3278  0.0651  0.3909
  585MOL0     C78898  10.306   1.129   7.144  0.4947 -0.0088 -0.4233
  585MOL0     O78899  10.378   1.205   7.058 -0.1611  0.3555  0.6091
  585MOL0     C78900  10.348   1.210   6.915 -0.9566 -1.0756 -0.4303
  585MOL0     C78901  10.470   1.273   6.851  0.7768 -0.3248  0.1220
  585MOL0     C78902  10.447   1.263   6.704  0.7450 -0.9513  0.2930
  585MOL0     C78903  10.518   1.369   6.602 -0.4846  0.0259  0.3087
  585MOL0     C78904  10.664   1.393   6.623  0.7914  0.0555 -0.4535
  585MOL0     C78905  10.787   1.416   6.627 -0.0767  0.2163  0.9332
  585MOL0     C78906  10.198   1.052   7.104  0.3121 -1.0538 -0.0389
  585MOL0     C78907  10.128   0.990   7.200  0.6263  0.7473  0.3021
  585MOL0     H78908  10.090   0.872   7.769 -0.1504  0.6268 -2.4673
  585MOL0     H78909   9.897   0.756   7.909  0.6579  1.5303  1.2271
  585MOL0     H78910   9.489   0.831   7.850 -0.9629 -0.0667  0.2042
  585MOL0     H78911   9.499   0.703   7.731 -0.0330  2.7103 -0.6166
  585MOL0     H78912   9.418   0.693   8.021 -0.1226 -2.4145  1.5526
  585MOL0     H78913   9.361   0.605   7.881  0.0226  1.8521 -1.3485
  585MOL0     H78914   9.557   0.446   7.884 -1.3263  0.8537 -1.2636
  585MOL0     H78915   9.630   0.532   8.014 -0.1630  1.2720 -1.1677
  585MOL0     H78916   9.445   0.448   8.179 -1.5295 -0.2342  0.1098
  585MOL0     H78917   9.372   0.375   8.039  0.9535 -0.2917 -1.4475
  585MOL0     H78918   9.594   0.244   7.993 -0.2030 -1.7455  0.3369
  585MOL0     H78919   9.665   0.332   8.126  1.6384 -0.9190 -2.3679
  585MOL0     H78920   9.492   0.244   8.281  2.3006 -2.2597  1.3556
  585MOL0     H78921   9.413   0.153   8.149 -0.7212  0.5689 -0.6928
  585MOL0     H78922   9.543   0.012   8.310  3.9067 -1.0286  1.4647
  585MOL0     H78923   9.631   0.008   8.155  0.2009  0.5512  0.2877
  585MOL0     H78924   9.670   0.133   8.425 -3.0380 -0.9305 -1.4193
  585MOL0     H78925   9.757   0.209   8.284  1.7976 -2.5083 -2.7672
  585MOL0     H78926   9.701  -0.160   8.395 -2.4496  1.0088 -3.9504
  585MOL0     H78927   9.869  -0.364   8.414 -1.2078  0.0561 -1.5138
  585MOL0     H78928  10.011  -0.350   8.305  1.5655 -1.5412  2.6437
  585MOL0     H78929  10.006  -0.287   8.597  1.0021 -0.2274  0.5008
  585MOL0     H78930  10.153  -0.271   8.500  1.0382 -2.0815 -0.6546
  585MOL0     H78931  10.122  -0.517   8.433  2.8866  0.4323  0.7782
  585MOL0     H78932   9.992  -0.531   8.551  2.0240 -3.9163  0.7281
  585MOL0     H78933  10.282  -0.452   8.574  2.3073 -1.3112  2.5127
  585MOL0     H78934  10.234  -0.609   8.632 -0.4085  0.1259  0.7031
  585MOL0     H78935  10.020  -0.637   8.754 -1.5873 -0.7925  0.8158
  585MOL0     H78936   9.700  -0.665   8.885 -0.4403 -2.8955 -2.4937
  585MOL0     H78937   9.827  -0.758   8.814 -0.2109 -3.3479  1.9190
  585MOL0     H78938   9.815  -0.761   8.992 -0.2707  0.1871 -0.5871
  585MOL0     H78939   9.617  -0.166   9.271  0.5798  0.0609  0.6083
  585MOL0     H78940   9.460  -0.142   9.474  0.6289  0.3970 -0.6434
  585MOL0     H78941   9.262  -0.449   9.733  1.2492 -0.8052  2.3416
  585MOL0     H78942   9.432  -0.495   9.732 -1.6163 -1.5498 -0.1387
  585MOL0     H78943   9.338  -0.213   9.830 -2.0905 -1.3478 -2.3924
  585MOL0     H78944   9.365  -0.348   9.943  1.6554  0.2751  1.0784
  585MOL0     H78945   9.567  -0.237   9.750  0.5260 -1.2304 -0.1462
  585MOL0     H78946   9.599  -0.370   9.848 -1.9647 -1.3767 -1.7848
  585MOL0     H78947   9.515  -0.096   9.971 -1.8056 -1.0783 -1.4450
  585MOL0     H78948   9.588  -0.228  10.054  0.9037 -0.5015 -0.2854
  585MOL0     H78949   9.752  -0.040   9.977 -0.1607 -0.7040  1.2543
  585MOL0     H78950   9.729  -0.119   9.821 -0.9824  0.4389 -0.2081
  585MOL0     H78951   9.806  -0.285  10.065 -1.4193 -2.9796 -1.2885
  585MOL0     H78952   9.818  -0.326   9.890 -2.2343  0.9701 -1.5560
  585MOL0     H78953  10.037  -0.267  10.026  0.3893  0.8809 -0.3692
  585MOL0     H78954   9.980  -0.109  10.041  0.5241 -1.4444  2.1396
  585MOL0     H78955  10.148  -0.145   9.848  0.5265  0.6166 -0.2263
  585MOL0     H78956   9.994  -0.085   9.785  0.2768 -0.1477 -0.2148
  585MOL0     H78957   9.475  -0.561   9.536  0.4162  0.5857 -0.2299
  585MOL0     H78958   9.654  -0.585   9.355 -2.3318 -0.8780 -2.8493
  585MOL0     H78959   9.943  -0.295   9.098 -3.1420 -0.5119 -0.0445
  585MOL0     H78960  10.140  -0.287   8.961 -2.2096  2.0642  1.8614
  585MOL0     H78961   9.619   0.925   7.634  0.6215  1.6883 -0.1667
  585MOL0     H78962   9.778   1.043   7.529  0.3069  0.9319  1.5197
  585MOL0     H78963  10.268   1.098   7.473 -0.5927  1.5861 -0.0930
  585MOL0     H78964  10.439   1.178   7.294  0.4105 -1.6740  0.8795
  585MOL0     H78965  10.342   1.105   6.885  2.5116 -2.9400  4.2717
  585MOL0     H78966  10.260   1.272   6.893 -0.1650  0.1807 -0.1526
  585MOL0     H78967  10.569   1.228   6.860  0.9514  0.2380  1.1749
  585MOL0     H78968  10.487   1.379   6.875 -2.6001  0.4258 -0.2815
  585MOL0     H78969  10.342   1.282   6.680  0.4523 -3.3533 -0.6122
  585MOL0     H78970  10.471   1.162   6.669  1.0950 -0.7409 -0.0891
  585MOL0     H78971  10.459   1.460   6.612 -1.4169 -0.7953  3.4398
  585MOL0     H78972  10.502   1.331   6.501  0.0754  2.7462 -0.9046
  585MOL0     H78973  10.892   1.439   6.627  0.3127 -1.3200 -0.6933
  585MOL0     H78974  10.170   1.031   7.001 -1.0866 -4.2400  0.8696
  585MOL0     H78975  10.039   0.934   7.173  0.3863  1.2582  0.0112
  586MOL0     O78976   7.670  10.596   6.447 -0.7811  0.2495  1.0877
  586MOL0     C78977   7.700  10.515   6.365  0.7766 -0.1788  0.7894
  586MOL0     O78978   7.614  10.454   6.284 -0.7524  0.1524 -0.0871
  586MOL0     C78979   7.479  10.472   6.290 -0.0536  0.3293 -0.7413
  586MOL0     C78980   7.398  10.363   6.246 -0.8861 -0.4424  0.2404
  586MOL0     C78981   7.266  10.372   6.227  0.3801 -0.6539 -0.3701
  586MOL0     C78982   7.200  10.497   6.264 -0.7840  0.3761  0.5679
  586MOL0     O78983   7.069  10.525   6.243  0.5123 -0.0355 -0.1917
  586MOL0     C78984   6.992  10.420   6.178  0.2843 -0.1554  0.7891
  586MOL0     C78985   6.844  10.457   6.160  0.8635  0.4603  1.6934
  586MOL0     C78986   6.754  10.476   6.283  0.8468 -0.0754  0.1401
  586MOL0     C78987   6.594  10.473   6.256 -0.6711 -0.8114  0.1856
  586MOL0     C78988   6.542  10.601   6.178 -0.4413  0.5892 -0.2887
  586MOL0     C78989   6.408  10.567   6.114  0.0764  0.5677 -0.3302
  586MOL0     C78990   6.364  10.678   6.012 -0.8046  0.3235 -0.9443
  586MOL0     C78991   6.254  10.616   5.925 -0.2865  0.2659  0.1126
  586MOL0     N78992   6.139  10.565   6.004  0.0126 -0.0334 -0.1921
  586MOL0     C78993   6.047  10.637   6.077 -0.7782 -0.0587  0.0787
  586MOL0     C78994   5.951  10.541   6.104 -0.8528 -0.1197 -0.4433
  586MOL0     C78995   5.821  10.568   6.167  0.1188  1.2629 -0.1939
  586MOL0     C78996   5.787  10.456   6.268  0.3190 -0.7193 -0.7649
  586MOL0     C78997   5.646  10.471   6.329  0.4179  0.0469  0.9511
  586MOL0     C78998   5.602  10.354   6.418 -0.0789 -0.2889 -1.0346
  586MOL0     O78999   5.500  10.405   6.508  0.8164  0.4852 -0.0692
  586MOL0     C79000   5.370  10.371   6.488 -0.2535  0.1315  0.2466
  586MOL0     C79001   5.298  10.356   6.601  0.1636 -0.2176  0.3572
  586MOL0     C79002   5.168  10.306   6.595  0.6202  0.5511 -0.9772
  586MOL0     C79003   5.110  10.246   6.718  0.1168 -0.3780  0.1305
  586MOL0     C79004   5.114  10.288   6.464 -0.4382  0.4320 -1.3010
  586MOL0     C79005   4.988  10.213   6.451 -0.5107 -0.7380 -0.3036
  586MOL0     O79006   4.880  10.265   6.531 -0.0814  0.1582  0.0602
  586MOL0     C79007   4.764  10.190   6.535 -0.2885 -0.0120 -0.6105
  586MOL0     C79008   4.709  10.140   6.655  0.0362  0.1249  0.0457
  586MOL0     C79009   4.596  10.065   6.660  0.5281  0.4045 -0.5310
  586MOL0     C79010   4.531  10.029   6.536  0.0006  0.7317 -0.3142
  586MOL0     O79011   4.417   9.948   6.527  0.6255  0.1620 -0.6911
  586MOL0     C79012   4.357   9.902   6.646 -0.3188  0.4972  0.2161
  586MOL0     C79013   4.231   9.836   6.617 -0.0958  0.7976  0.6790
  586MOL0     C79014   4.150   9.788   6.737 -0.1673 -0.4947 -0.3913
  586MOL0     C79015   4.031   9.712   6.684  0.3959  0.5984  0.0303
  586MOL0     C79016   3.924   9.673   6.792 -0.8697  0.3496  0.0772
  586MOL0     C79017   3.874   9.787   6.876 -0.5564  0.5561  0.3016
  586MOL0     C79018   3.789   9.706   6.976 -0.1796 -0.6566  0.7113
  586MOL0     C79019   3.698   9.787   7.073  0.6881  0.3785 -0.1392
  586MOL0    Cl79020   3.579   9.866   6.974  0.1613  0.1865 -0.2826
  586MOL0     C79021   4.580  10.088   6.416  0.5094  0.6213 -0.7311
  586MOL0     C79022   4.697  10.158   6.416 -0.2327 -0.2772 -0.3408
  586MOL0     O79023   4.978  10.125   6.370  0.1599 -0.8935 -0.1766
  586MOL0     C79024   5.181  10.314   6.346 -0.0165 -0.1926  0.2988
  586MOL0     C79025   5.307  10.368   6.360  0.2109  1.0128 -0.3015
  586MOL0     N79026   5.993  10.415   6.062  0.3942 -0.7616  0.3817
  586MOL0     N79027   6.106  10.430   6.004  0.3256 -0.1337 -0.5335
  586MOL0     C79028   7.280  10.599   6.324  0.5283  0.1053 -0.1875
  586MOL0     C79029   7.412  10.585   6.339 -0.8047 -0.1738 -0.9804
  586MOL0     C79030   7.844  10.493   6.351  0.4223 -0.0462  0.1352
  586MOL0     C79031   7.886  10.382   6.282 -0.2277  0.6879  0.0336
  586MOL0     C79032   8.024  10.365   6.252 -0.4619 -0.6779 -0.0581
  586MOL0     C79033   8.128  10.447   6.320  0.4759 -0.0167  0.4624
  586MOL0     O79034   8.268  10.419   6.309  0.6605  0.0848  0.4086
  586MOL0     C79035   8.310  10.301   6.235  0.4034  0.2923 -0.0742
  586MOL0     C79036   8.464  10.285   6.234  0.0769  0.5496 -0.7769
  586MOL0     C79037   8.518  10.286   6.386  0.4730  0.6861  0.2929
  586MOL0     C79038   8.519  10.149   6.454  0.1538 -0.6909  1.0150
  586MOL0     C79039   8.584  10.163   6.585  0.1226 -0.1630  0.1430
  586MOL0     C79040   8.624  10.192   6.695  0.0444  0.1663  0.6104
  586MOL0     C79041   8.083  10.557   6.401  0.7186  0.0603  0.0120
  586MOL0     C79042   7.938  10.581   6.413 -0.1628 -0.0549 -0.7608
  586MOL0     H79043   7.435  10.268   6.211 -2.2350 -0.3208 -1.6996
  586MOL0     H79044   7.217  10.286   6.183  0.0246 -0.4167 -0.4408
  586MOL0     H79045   7.029  10.409   6.075  0.5566 -4.0734  1.1757
  586MOL0     H79046   7.005  10.321   6.222  0.1737 -1.4551 -1.8612
  586MOL0     H79047   6.834  10.551   6.106 -1.2372 -1.1050 -0.8661
  586MOL0     H79048   6.797  10.375   6.106  0.2936  1.9531 -0.1766
  586MOL0     H79049   6.781  10.391   6.346  1.9423 -0.0029 -0.2132
  586MOL0     H79050   6.779  10.556   6.354  1.8315  0.4674 -0.7893
  586MOL0     H79051   6.569  10.378   6.206  0.4728 -1.3352  0.5725
  586MOL0     H79052   6.545  10.468   6.353 -1.7948  0.0552 -0.3137
  586MOL0     H79053   6.544  10.692   6.239 -1.7266 -1.0734  2.4390
  586MOL0     H79054   6.619  10.617   6.103 -1.3071 -1.0687 -1.6038
  586MOL0     H79055   6.395  10.466   6.074 -2.0223  0.6008  0.1575
  586MOL0     H79056   6.341  10.572   6.201  1.0530 -1.3760  0.5927
  586MOL0     H79057   6.325  10.765   6.065  1.3545  1.8224 -1.6818
  586MOL0     H79058   6.447  10.698   5.944  0.6787 -1.1544  0.3590
  586MOL0     H79059   6.289  10.529   5.869  0.0916  0.1527  0.5219
  586MOL0     H79060   6.217  10.684   5.848  0.4759 -0.3440 -0.8209
  586MOL0     H79061   6.039  10.745   6.091 -0.1893  0.0575 -0.4590
  586MOL0     H79062   5.820  10.671   6.204  1.1737  0.4685  2.3057
  586MOL0     H79063   5.743  10.563   6.091 -3.1980  1.0416  2.9431
  586MOL0     H79064   5.867  10.446   6.341 -0.9456  0.3030  0.8369
  586MOL0     H79065   5.780  10.367   6.204 -0.0150 -1.9931  0.9658
  586MOL0     H79066   5.575  10.486   6.247 -0.7646  2.3121  2.3131
  586MOL0     H79067   5.641  10.553   6.401 -1.5927 -0.3841  1.3619
  586MOL0     H79068   5.698  10.325   6.463  0.0739 -0.2553 -1.3368
  586MOL0     H79069   5.578  10.257   6.376 -0.6914 -1.9431  2.7147
  586MOL0     H79070   5.355  10.347   6.693  2.7940 -0.5823 -1.2131
  586MOL0     H79071   5.057  10.152   6.698 -1.2339  0.6694 -1.5219
  586MOL0     H79072   5.187  10.238   6.795  1.8056 -0.8269 -1.5374
  586MOL0     H79073   5.034  10.313   6.759  0.5682  0.7973 -0.8662
  586MOL0     H79074   4.773  10.168   6.738  0.0811  1.7053 -0.4690
  586MOL0     H79075   4.565  10.041   6.761 -1.9020  2.1247 -0.7867
  586MOL0     H79076   4.417   9.833   6.706 -1.7195 -2.2743 -1.3436
  586MOL0     H79077   4.317   9.982   6.709 -0.6583  1.5348 -1.2509
  586MOL0     H79078   4.163   9.903   6.564 -0.2443 -0.3707 -0.6632
  586MOL0     H79079   4.243   9.757   6.542  0.5827  1.5672 -0.0522
  586MOL0     H79080   4.109   9.879   6.781 -1.5516  0.0777 -2.6947
  586MOL0     H79081   4.216   9.731   6.803  1.6332  3.1185  1.2262
  586MOL0     H79082   3.974   9.771   6.612 -0.2390  0.3842  0.3400
  586MOL0     H79083   4.078   9.623   6.640  0.7402  0.4486  0.6796
  586MOL0     H79084   3.968   9.598   6.859 -2.8172  1.0310  2.2666
  586MOL0     H79085   3.847   9.628   6.728 -2.6699  0.3875  2.1031
  586MOL0     H79086   3.959   9.833   6.927  0.2690 -1.6939  1.0759
  586MOL0     H79087   3.827   9.852   6.802  1.5956  1.8801  0.0275
  586MOL0     H79088   3.835   9.631   7.040 -2.3858 -1.6883  1.1790
  586MOL0     H79089   3.714   9.651   6.918 -1.9595  1.3761  0.9536
  586MOL0     H79090   3.753   9.861   7.131 -1.4760  1.4601  0.6530
  586MOL0     H79091   3.653   9.719   7.146  0.5588  1.1881  0.5526
  586MOL0     H79092   4.539  10.072   6.317  2.0144 -0.6725 -1.1853
  586MOL0     H79093   4.734  10.201   6.323 -2.2844  1.7873 -0.3074
  586MOL0     H79094   5.127  10.307   6.252  0.5137  1.6811 -0.1942
  586MOL0     H79095   5.354  10.409   6.271  1.0665  1.2039  0.2265
  586MOL0     H79096   7.239  10.699   6.331  0.5217  0.1705 -1.0223
  586MOL0     H79097   7.464  10.679   6.354 -1.5322  0.2692 -1.2163
  586MOL0     H79098   7.821  10.312   6.231  1.3487 -0.6189 -0.2868
  586MOL0     H79099   8.057  10.274   6.202 -0.5609 -1.5884  1.4820
  586MOL0     H79100   8.260  10.214   6.280 -2.9190  0.9984 -2.0348
  586MOL0     H79101   8.268  10.306   6.134  0.0019  0.1189  0.0799
  586MOL0     H79102   8.512  10.366   6.177  0.3835 -0.2598 -1.6938
  586MOL0     H79103   8.493  10.191   6.186  2.2017  1.0447 -0.5951
  586MOL0     H79104   8.455  10.351   6.448 -1.9295  1.0327 -2.2782
  586MOL0     H79105   8.620  10.324   6.380  2.3764 -3.4479  2.3181
  586MOL0     H79106   8.582  10.079   6.398  0.4097  1.8306 -2.1015
  586MOL0     H79107   8.424  10.097   6.468  0.0518 -1.5831 -2.3000
  586MOL0     H79108   8.673  10.229   6.783  1.3301 -4.5531  2.2071
  586MOL0     H79109   8.149  10.628   6.450 -1.1006  0.3041  2.3474
  586MOL0     H79110   7.909  10.667   6.472  0.3248 -1.3392  1.4934
  587MOL0     O79111   3.427   4.003   9.072  0.2116  0.3570  0.0983
  587MOL0     C79112   3.382   4.105   9.030  0.6101  1.2357 -0.0597
  587MOL0     O79113   3.245   4.131   9.018  0.4356  0.4415 -0.1652
  587MOL0     C79114   3.163   4.040   9.079 -0.1612 -0.3704  0.3681
  587MOL0     C79115   3.127   4.067   9.205  0.4182  0.8936  0.5266
  587MOL0     C79116   3.042   3.973   9.279  0.5944  0.6408 -0.7394
  587MOL0     C79117   2.978   3.866   9.216 -0.1853  0.0836 -0.1573
  587MOL0     O79118   2.911   3.782   9.299 -0.5142  0.0222  0.3528
  587MOL0     C79119   2.800   3.711   9.243  0.1272 -0.3237 -0.6832
  587MOL0     C79120   2.694   3.686   9.347  0.5370  0.2299 -0.7631
  587MOL0     C79121   2.576   3.603   9.308 -0.5201  0.3655  0.2958
  587MOL0     C79122   2.498   3.543   9.427 -1.4369  0.2298  0.1056
  587MOL0     C79123   2.358   3.498   9.377 -1.0828  0.5904  0.5986
  587MOL0     C79124   2.294   3.422   9.497 -0.9322  0.7827  0.3169
  587MOL0     C79125   2.153   3.364   9.454  0.6554  0.2922 -0.0129
  587MOL0     C79126   2.151   3.282   9.337 -0.1665 -0.1267  0.0215
  587MOL0     N79127   2.016   3.225   9.312  1.0289  0.6163  0.4901
  587MOL0     C79128   1.945   3.161   9.411  0.0635 -0.0719  0.1186
  587MOL0     C79129   1.824   3.141   9.353  0.4271  0.0307  0.8134
  587MOL0     C79130   1.705   3.079   9.417 -0.4184 -0.7534  0.3247
  587MOL0     C79131   1.647   3.176   9.519 -0.3093  0.8721 -0.3686
  587MOL0     C79132   1.560   3.279   9.444  0.2320  0.3678 -0.4419
  587MOL0     C79133   1.481   3.373   9.535  1.0844 -1.0318 -0.0569
  587MOL0     O79134   1.370   3.298   9.596 -0.2530 -0.1118  1.2172
  587MOL0     C79135   1.251   3.349   9.626  0.1506 -0.0674  0.2031
  587MOL0     C79136   1.226   3.482   9.633 -0.6854 -0.4125  0.7231
  587MOL0     C79137   1.099   3.527   9.655 -0.3630 -0.1075  0.0734
  587MOL0     C79138   1.079   3.680   9.645  0.5680 -0.5673 -0.1491
  587MOL0     C79139   0.992   3.441   9.665  0.3172  0.3347  0.7476
  587MOL0     C79140   0.858   3.482   9.693  0.0581 -0.9070 -0.5944
  587MOL0     O79141   0.758   3.405   9.626  0.0814  0.0594 -0.5261
  587MOL0     C79142   0.631   3.442   9.654 -0.4061 -0.7522  0.1149
  587MOL0     C79143   0.568   3.464   9.785 -0.3240 -0.6064  0.4430
  587MOL0     C79144   0.431   3.480   9.798  0.1458 -0.0170 -0.3050
  587MOL0     C79145   0.349   3.462   9.688 -0.7195  0.2762  0.5180
  587MOL0     O79146   0.217   3.461   9.672  0.4731  0.3331 -0.0294
  587MOL0     C79147   0.126   3.491   9.789 -0.3855 -0.6643  0.0347
  587MOL0     C79148  -0.019   3.505   9.740  0.4558 -0.2866  0.4790
  587MOL0     C79149  -0.046   3.638   9.669  0.2841 -0.1599 -0.4215
  587MOL0     C79150  -0.170   3.627   9.581  1.0670 -0.0203 -0.0454
  587MOL0     C79151  -0.206   3.766   9.523 -1.0392 -0.2590  0.1745
  587MOL0     C79152  -0.331   3.759   9.429  0.2337 -0.5076  0.2531
  587MOL0     C79153  -0.297   3.693   9.297  0.4961 -1.2832 -0.3436
  587MOL0     C79154  -0.428   3.672   9.224  0.0741  0.3724  0.0447
  587MOL0    Cl79155  -0.408   3.598   9.052 -0.2386 -0.3879 -0.0203
  587MOL0     C79156   0.406   3.444   9.560  0.3207 -0.9367 -0.7832
  587MOL0     C79157   0.544   3.439   9.548  0.0503 -0.6873  0.3841
  587MOL0     O79158   0.837   3.575   9.775 -0.2517 -0.1725 -0.1938
  587MOL0     C79159   1.021   3.304   9.650 -0.0111  0.6143  0.2253
  587MOL0     C79160   1.155   3.254   9.641 -0.7226  0.2642  0.4270
  587MOL0     N79161   1.828   3.197   9.228 -0.1836  0.3710  0.1986
  587MOL0     N79162   1.943   3.250   9.200  0.7281 -1.4093  0.6664
  587MOL0     C79163   3.015   3.848   9.086 -0.2609 -0.6396  0.1661
  587MOL0     C79164   3.111   3.933   9.021  0.4055 -0.2112 -0.5365
  587MOL0     C79165   3.484   4.202   8.985  0.2337 -0.5499  1.2733
  587MOL0     C79166   3.438   4.327   8.928  0.0576  0.8984  0.0774
  587MOL0     C79167   3.537   4.421   8.878 -0.9357 -0.0361 -0.1898
  587MOL0     C79168   3.672   4.395   8.900 -0.1306 -0.4560 -0.4600
  587MOL0     O79169   3.776   4.481   8.878  0.3296  0.0718 -0.3674
  587MOL0     C79170   3.735   4.610   8.859 -0.3141 -0.0967  0.9284
  587MOL0     C79171   3.857   4.704   8.861  0.1576  0.1404 -0.2856
  587MOL0     C79172   3.925   4.725   8.999 -0.0633  0.6805  1.1747
  587MOL0     C79173   4.059   4.785   9.001 -0.3879  0.0769  0.1092
  587MOL0     C79174   4.073   4.917   8.926  0.6362 -0.4750  0.5692
  587MOL0     C79175   4.086   5.030   8.869 -0.2286 -0.5412 -0.6705
  587MOL0     C79176   3.711   4.283   8.976  0.0171 -0.1083 -0.4002
  587MOL0     C79177   3.616   4.191   9.006 -0.2024 -0.2342  0.2089
  587MOL0     H79178   3.169   4.156   9.251 -1.5593  1.4514  1.3465
  587MOL0     H79179   3.019   3.987   9.385  0.7624 -1.0050 -0.4497
  587MOL0     H79180   2.759   3.763   9.156 -0.6544 -0.2449 -0.2802
  587MOL0     H79181   2.836   3.614   9.206  0.8057 -1.1312  1.8539
  587MOL0     H79182   2.732   3.625   9.430 -1.4561  2.2821  1.7998
  587MOL0     H79183   2.661   3.783   9.384 -0.1365 -0.6502  1.0739
  587MOL0     H79184   2.505   3.660   9.247 -1.7767 -2.7502 -1.3559
  587MOL0     H79185   2.609   3.518   9.248 -1.6962  1.3063 -1.7946
  587MOL0     H79186   2.558   3.464   9.472  0.2562  1.0235 -0.6591
  587MOL0     H79187   2.483   3.621   9.502  2.2321  1.0425  0.1839
  587MOL0     H79188   2.303   3.588   9.350 -0.0167  0.3738 -2.7340
  587MOL0     H79189   2.375   3.436   9.289 -0.2353  1.3090  0.2369
  587MOL0     H79190   2.365   3.342   9.521 -1.1991 -1.0406 -4.0501
  587MOL0     H79191   2.277   3.482   9.587  0.7693  0.7108  0.7144
  587MOL0     H79192   2.115   3.304   9.536 -0.9892  1.4878  0.1637
  587MOL0     H79193   2.078   3.442   9.439 -1.5955 -2.0479 -1.6089
  587MOL0     H79194   2.234   3.211   9.344 -0.3466 -0.1567  2.6404
  587MOL0     H79195   2.179   3.340   9.249 -0.3113 -1.1327 -0.7095
  587MOL0     H79196   1.977   3.122   9.507  2.0852 -1.7160 -1.1461
  587MOL0     H79197   1.628   3.050   9.345 -2.4764  2.0270  1.2003
  587MOL0     H79198   1.746   2.989   9.464  1.1331  0.5035  1.5080
  587MOL0     H79199   1.720   3.218   9.588 -1.3796  0.3080  1.1539
  587MOL0     H79200   1.586   3.119   9.590  0.5914 -3.2867 -2.6123
  587MOL0     H79201   1.497   3.233   9.368  1.1099  2.1664 -2.3879
  587MOL0     H79202   1.635   3.329   9.381 -1.0423  0.0011 -2.3600
  587MOL0     H79203   1.445   3.457   9.475 -0.2077  1.2113  3.5296
  587MOL0     H79204   1.541   3.424   9.611 -0.2528 -1.5219  1.4012
  587MOL0     H79205   1.316   3.543   9.625  0.4746 -1.9697  1.1674
  587MOL0     H79206   1.001   3.699   9.570 -2.0332 -1.4277  2.1748
  587MOL0     H79207   1.049   3.725   9.740  2.7341 -0.1311  0.3794
  587MOL0     H79208   1.178   3.723   9.623 -0.0485  1.2141  0.3543
  587MOL0     H79209   0.629   3.459   9.874  2.8716 -1.1414 -1.6233
  587MOL0     H79210   0.388   3.478   9.898  2.9420 -0.4219  0.9880
  587MOL0     H79211   0.129   3.400   9.850  0.6689  0.5548  1.8960
  587MOL0     H79212   0.159   3.577   9.848  0.9774  0.1533 -1.8538
  587MOL0     H79213  -0.024   3.426   9.665  0.4366  1.2349 -1.1774
  587MOL0     H79214  -0.080   3.488   9.829  1.4321  3.3967  2.0349
  587MOL0     H79215   0.035   3.670   9.602  1.8285  1.2081  1.9551
  587MOL0     H79216  -0.053   3.719   9.743 -0.1456  0.4448 -1.1074
  587MOL0     H79217  -0.163   3.549   9.506 -2.1710 -2.0211  1.5145
  587MOL0     H79218  -0.255   3.599   9.644  2.5404 -0.4555  1.8216
  587MOL0     H79219  -0.114   3.799   9.474 -1.5030 -0.8599 -1.1385
  587MOL0     H79220  -0.231   3.836   9.604 -1.4486 -0.1398 -0.0506
  587MOL0     H79221  -0.413   3.713   9.485  1.5959 -0.8026  2.1201
  587MOL0     H79222  -0.364   3.860   9.400 -3.8190 -1.7551 -0.1165
  587MOL0     H79223  -0.258   3.594   9.324  5.8162  0.6641  0.2493
  587MOL0     H79224  -0.225   3.748   9.236 -0.6740 -1.4193 -1.9117
  587MOL0     H79225  -0.492   3.759   9.210  0.3450  0.9846  2.2552
  587MOL0     H79226  -0.490   3.601   9.280 -0.0326 -1.1685 -1.8990
  587MOL0     H79227   0.337   3.440   9.476  0.5669 -2.1904 -0.9448
  587MOL0     H79228   0.582   3.434   9.447  2.0488 -0.1611  1.0598
  587MOL0     H79229   0.943   3.230   9.667 -0.2784  1.0998  1.1833
  587MOL0     H79230   1.171   3.147   9.633 -1.0045  0.2874 -0.5287
  587MOL0     H79231   2.977   3.760   9.036 -0.2950 -0.4602 -0.1237
  587MOL0     H79232   3.145   3.914   8.920  1.5392  1.5304 -0.5238
  587MOL0     H79233   3.331   4.336   8.917 -0.2468 -3.0345 -2.1185
  587MOL0     H79234   3.501   4.510   8.827  0.2632  1.5676  1.6233
  587MOL0     H79235   3.693   4.614   8.758  0.4095  0.0975  0.6310
  587MOL0     H79236   3.664   4.659   8.926  0.0109 -0.2781  1.4042
  587MOL0     H79237   3.825   4.804   8.830  0.0405  0.7968  1.8001
  587MOL0     H79238   3.937   4.680   8.789  0.0005  0.7406 -0.6659
  587MOL0     H79239   3.943   4.626   9.042  0.8797  0.2674 -0.1160
  587MOL0     H79240   3.857   4.782   9.063 -1.9829 -0.9703  0.7293
  587MOL0     H79241   4.126   4.714   8.950  2.4861  2.9201 -0.4073
  587MOL0     H79242   4.095   4.811   9.101  0.3068  3.0626 -0.8108
  587MOL0     H79243   4.111   5.124   8.825 -0.6456 -0.3182 -0.4393
  587MOL0     H79244   3.815   4.263   8.998  0.2154 -0.7180 -1.8128
  587MOL0     H79245   3.649   4.110   9.071 -0.8337  1.4763  2.8440
  588MOL0     O79246   1.130   4.403  10.677  0.3200  0.1231 -0.6976
  588MOL0     C79247   1.172   4.314  10.745  0.1797  0.5478  0.2873
  588MOL0     O79248   1.106   4.269  10.865  0.0793 -0.1331  1.0000
  588MOL0     C79249   0.974   4.312  10.892 -0.6092 -0.2854  0.6931
  588MOL0     C79250   0.875   4.329  10.792  0.4878 -1.1598  0.4656
  588MOL0     C79251   0.752   4.372  10.842 -0.6515  0.7801  0.5258
  588MOL0     C79252   0.730   4.385  10.980  0.2312 -0.2158  0.1488
  588MOL0     O79253   0.607   4.426  11.019 -0.2065 -0.5999 -0.2774
  588MOL0     C79254   0.536   4.346  11.116  0.3242  0.0570 -1.1655
  588MOL0     C79255   0.391   4.399  11.132  0.6306  0.2102  0.3776
  588MOL0     C79256   0.330   4.346  10.998 -0.0194 -0.8819 -0.0361
  588MOL0     C79257   0.174   4.374  10.993 -0.1341  1.1621 -0.7862
  588MOL0     C79258   0.130   4.515  10.969 -0.0272 -0.0860 -0.2691
  588MOL0     C79259  -0.022   4.529  10.953 -0.3519  0.2817 -0.3000
  588MOL0     C79260  -0.091   4.488  11.089  0.4583  0.7688  0.5776
  588MOL0     C79261  -0.242   4.510  11.065 -0.2747  0.8176 -0.4135
  588MOL0     N79262  -0.334   4.447  11.162  0.5698 -0.4398  0.0539
  588MOL0     C79263  -0.446   4.501  11.210  0.5707  0.6340  0.1575
  588MOL0     C79264  -0.493   4.418  11.300  1.1274  0.2782  0.1786
  588MOL0     C79265  -0.623   4.433  11.377 -0.4128  0.4121  0.5554
  588MOL0     C79266  -0.743   4.376  11.300  0.2272 -0.5432  0.2465
  588MOL0     C79267  -0.879   4.363  11.383  0.4872  0.0472 -0.4787
  588MOL0     C79268  -0.861   4.282  11.513 -0.4300 -0.4094 -0.2741
  588MOL0     O79269  -0.798   4.156  11.501 -1.3652  0.5233 -0.2557
  588MOL0     C79270  -0.879   4.045  11.474  0.5569  0.3074 -0.2426
  588MOL0     C79271  -1.014   4.044  11.434 -0.6571  0.2753  0.1830
  588MOL0     C79272  -1.069   3.914  11.402  1.4622 -0.5831  0.6495
  588MOL0     C79273  -1.216   3.907  11.363 -0.0356  0.3327  0.2264
  588MOL0     C79274  -0.996   3.796  11.412  0.7111  0.4007 -0.6298
  588MOL0     C79275  -1.056   3.663  11.398 -0.3484  0.1884 -0.0690
  588MOL0     O79276  -1.038   3.580  11.505 -0.1950  0.7466  0.0249
  588MOL0     C79277  -1.100   3.455  11.487 -0.6494 -0.4860 -0.5373
  588MOL0     C79278  -1.245   3.441  11.478  0.7283  0.5961 -0.1232
  588MOL0     C79279  -1.304   3.315  11.456 -0.1903 -0.1726  0.0627
  588MOL0     C79280  -1.233   3.200  11.435 -0.3769  0.0322 -0.2604
  588MOL0     O79281  -1.281   3.077  11.400  0.4560  0.2319 -0.1465
  588MOL0     C79282  -1.420   3.071  11.355  0.4130 -0.1537 -0.3484
  588MOL0     C79283  -1.441   3.107  11.204 -0.2289  0.6658 -0.3117
  588MOL0     C79284  -1.587   3.114  11.162  0.0690  0.6643  1.2752
  588MOL0     C79285  -1.627   3.118  11.010 -0.6597 -0.4583 -0.4843
  588MOL0     C79286  -1.627   3.262  10.948  0.1219 -0.1411  0.0639
  588MOL0     C79287  -1.684   3.253  10.796  1.4676  1.1179 -0.1159
  588MOL0     C79288  -1.621   3.358  10.698 -0.4113 -0.2574  0.5152
  588MOL0     C79289  -1.661   3.499  10.730 -0.3265  0.4748 -0.5418
  588MOL0    Cl79290  -1.834   3.524  10.707  0.1912  0.1209  0.0934
  588MOL0     C79291  -1.098   3.212  11.462  0.4675  0.2719  1.0622
  588MOL0     C79292  -1.029   3.331  11.473 -0.4885 -0.4693  0.2150
  588MOL0     O79293  -1.104   3.635  11.287 -0.5092 -0.7282 -0.0627
  588MOL0     C79294  -0.863   3.803  11.445  0.4976 -1.2379  0.2572
  588MOL0     C79295  -0.802   3.923  11.478  0.0348 -0.2541 -0.1158
  588MOL0     N79296  -0.404   4.312  11.310 -0.0534 -0.0840  0.0560
  588MOL0     N79297  -0.314   4.332  11.228 -0.1883 -0.1786 -0.2469
  588MOL0     C79298   0.824   4.357  11.072 -0.4863 -1.2578  0.3380
  588MOL0     C79299   0.953   4.332  11.032 -0.0452  0.1974  0.8670
  588MOL0     C79300   1.310   4.269  10.733 -0.7303 -0.0526  0.6687
  588MOL0     C79301   1.352   4.136  10.771 -0.2267 -0.3230  0.4498
  588MOL0     C79302   1.491   4.093  10.773  0.0306 -0.1867  0.0655
  588MOL0     C79303   1.593   4.183  10.753  0.5171 -0.0896 -0.5190
  588MOL0     O79304   1.723   4.150  10.784 -0.1634  0.8170  0.9246
  588MOL0     C79305   1.828   4.246  10.756 -0.3416 -0.7222  0.2037
  588MOL0     C79306   1.978   4.191  10.766  0.5705 -0.0478 -0.1624
  588MOL0     C79307   2.073   4.306  10.726 -0.2718  0.3748 -0.0085
  588MOL0     C79308   2.230   4.279  10.731 -0.4682 -0.1005  0.9025
  588MOL0     C79309   2.274   4.253  10.864  0.7428  0.5793  0.8066
  588MOL0     C79310   2.289   4.233  10.981 -0.2017 -0.2637  0.4653
  588MOL0     C79311   1.549   4.308  10.710  0.3466 -0.3721  0.0921
  588MOL0     C79312   1.417   4.351  10.696 -0.7269  0.1845 -0.3592
  588MOL0     H79313   0.885   4.325  10.684 -4.3005  0.2657 -0.2823
  588MOL0     H79314   0.672   4.382  10.769 -1.7622  2.0760  1.8539
  588MOL0     H79315   0.548   4.240  11.090  2.8821 -0.0649  0.2109
  588MOL0     H79316   0.586   4.350  11.213 -3.8765  0.4173  1.2486
  588MOL0     H79317   0.337   4.341  11.207 -1.3234  1.2543 -0.1556
  588MOL0     H79318   0.380   4.506  11.151 -0.4415  0.3433 -0.8219
  588MOL0     H79319   0.388   4.398  10.922 -0.9052  0.9400  0.4826
  588MOL0     H79320   0.351   4.239  10.998  2.2917 -0.4956  1.3828
  588MOL0     H79321   0.136   4.302  10.920  4.7588 -1.1239 -1.5441
  588MOL0     H79322   0.138   4.339  11.090 -1.5905  0.3827 -1.5814
  588MOL0     H79323   0.169   4.584  11.045 -3.2024  2.1780 -0.5289
  588MOL0     H79324   0.178   4.550  10.877  2.6344  1.1802  1.4467
  588MOL0     H79325  -0.038   4.634  10.926  2.2645  1.5714  2.4881
  588MOL0     H79326  -0.060   4.460  10.877  0.1958  1.3536 -1.5882
  588MOL0     H79327  -0.074   4.386  11.127  1.4155  0.6301 -0.1650
  588MOL0     H79328  -0.055   4.560  11.162 -1.3314  1.8796  0.4094
  588MOL0     H79329  -0.263   4.444  10.980  2.2347 -1.6558  0.7267
  588MOL0     H79330  -0.273   4.611  11.037 -1.2153  0.2702 -1.4444
  588MOL0     H79331  -0.496   4.592  11.181 -1.5369 -0.2229  0.8956
  588MOL0     H79332  -0.620   4.387  11.477 -1.4041  0.4541  0.6156
  588MOL0     H79333  -0.631   4.540  11.400 -0.7474  0.7997 -1.2082
  588MOL0     H79334  -0.710   4.281  11.257 -2.3388 -1.1397 -0.6264
  588MOL0     H79335  -0.746   4.446  11.216  1.8094 -1.2438 -0.4405
  588MOL0     H79336  -0.944   4.310  11.313 -1.4271 -0.0923  1.2923
  588MOL0     H79337  -0.917   4.462  11.408  2.7386  1.0520 -0.7641
  588MOL0     H79338  -0.962   4.269  11.553 -0.6674  0.1453 -0.6880
  588MOL0     H79339  -0.805   4.344  11.583  0.5277 -2.4092  0.8244
  588MOL0     H79340  -1.078   4.130  11.413 -3.0297 -1.6361 -0.9527
  588MOL0     H79341  -1.217   3.860  11.265  1.3416 -1.7734  1.1480
  588MOL0     H79342  -1.268   3.839  11.432  0.5333 -0.7031 -0.3414
  588MOL0     H79343  -1.265   4.005  11.365  0.7558  0.7867 -1.4954
  588MOL0     H79344  -1.303   3.533  11.482 -0.5873 -0.2414  1.2748
  588MOL0     H79345  -1.409   3.332  11.437 -0.6072 -0.4487  1.9297
  588MOL0     H79346  -1.450   2.966  11.358 -3.5363  0.7304 -1.8854
  588MOL0     H79347  -1.488   3.132  11.416  0.0931  0.1999 -1.0426
  588MOL0     H79348  -1.411   3.211  11.187 -0.1229  0.8033  0.6966
  588MOL0     H79349  -1.390   3.037  11.137 -3.7652 -0.5718 -1.9992
  588MOL0     H79350  -1.639   3.194  11.215 -2.7208  0.0684 -0.3842
  588MOL0     H79351  -1.624   3.015  11.190  2.0548 -0.5378 -0.1018
  588MOL0     H79352  -1.565   3.056  10.945 -0.6843 -0.8883 -0.0991
  588MOL0     H79353  -1.729   3.082  10.993 -0.8152  0.5362 -1.8526
  588MOL0     H79354  -1.526   3.299  10.929 -0.2495  0.1676 -1.4757
  588MOL0     H79355  -1.686   3.330  11.009  2.4010 -0.3456  2.6899
  588MOL0     H79356  -1.673   3.155  10.750 -0.7971 -0.3548  2.2472
  588MOL0     H79357  -1.792   3.259  10.806  1.4141 -1.3028  1.5080
  588MOL0     H79358  -1.659   3.339  10.598 -0.4234  2.3513 -0.0551
  588MOL0     H79359  -1.511   3.355  10.701 -0.3329 -0.3835 -1.3133
  588MOL0     H79360  -1.605   3.574  10.674  1.5210 -0.3404  0.1423
  588MOL0     H79361  -1.646   3.518  10.836 -0.0452  3.6683 -1.0673
  588MOL0     H79362  -1.053   3.114  11.446  0.7462  0.4171  0.9305
  588MOL0     H79363  -0.921   3.331  11.468 -0.4348  2.9444 -1.5600
  588MOL0     H79364  -0.803   3.713  11.457 -0.0917 -1.8957 -1.4387
  588MOL0     H79365  -0.702   3.933  11.519 -1.3106  0.5241  3.3342
  588MOL0     H79366   0.811   4.367  11.179 -0.6594  3.8859  0.0636
  588MOL0     H79367   1.025   4.323  11.113  0.3298  0.3964  0.5531
  588MOL0     H79368   1.273   4.066  10.795 -0.3239 -0.2140  0.4484
  588MOL0     H79369   1.514   3.988  10.792 -1.3243 -0.4468  0.3582
  588MOL0     H79370   1.810   4.277  10.653  0.7541 -0.2191  0.1526
  588MOL0     H79371   1.813   4.332  10.823  0.6641  0.7158 -1.3341
  588MOL0     H79372   1.985   4.102  10.704 -2.2102  0.4513 -1.3634
  588MOL0     H79373   1.993   4.164  10.871 -0.9401 -1.2571 -0.2224
  588MOL0     H79374   2.046   4.394  10.785  2.3405  2.4201 -1.5949
  588MOL0     H79375   2.047   4.333  10.623 -3.1850  0.2969  0.6481
  588MOL0     H79376   2.283   4.365  10.690 -0.3832 -0.3663  0.4510
  588MOL0     H79377   2.255   4.191  10.670  0.8417  0.2387  0.9224
  588MOL0     H79378   2.298   4.201  11.083 -2.5696 -0.3172  0.6994
  588MOL0     H79379   1.627   4.378  10.680  0.1922 -0.1931  0.1090
  588MOL0     H79380   1.408   4.452  10.657  0.1685 -0.5149 -2.5673
  589MOL0     O79381   4.923   6.534   5.199 -0.3505  0.2238  0.1669
  589MOL0     C79382   4.961   6.594   5.097  0.4526 -0.6613  0.3104
  589MOL0     O79383   4.891   6.611   4.982  0.7778 -0.0287 -0.4859
  589MOL0     C79384   4.753   6.583   4.976 -0.8601  0.4323 -0.7036
  589MOL0     C79385   4.650   6.620   5.075  0.1692  0.1315  0.1626
  589MOL0     C79386   4.520   6.591   5.055 -0.0866  1.2333  0.4031
  589MOL0     C79387   4.477   6.522   4.936  0.4637  0.2471 -0.0910
  589MOL0     O79388   4.349   6.489   4.903 -0.0679 -0.4024  0.4388
  589MOL0     C79389   4.241   6.496   4.992  0.4613  0.3697 -0.3199
  589MOL0     C79390   4.132   6.410   4.949 -0.4974  0.5314 -0.2464
  589MOL0     C79391   3.997   6.435   5.006  0.0666  0.7563  0.1884
  589MOL0     C79392   3.905   6.319   4.962  0.3758  0.7971  0.0265
  589MOL0     C79393   3.770   6.323   5.032  0.6201 -0.8553 -0.8230
  589MOL0     C79394   3.671   6.232   4.973  0.0438  0.4420  0.5713
  589MOL0     C79395   3.546   6.224   5.064 -0.7116 -0.0058  1.0806
  589MOL0     C79396   3.459   6.341   5.042  0.2482  0.5129 -0.4707
  589MOL0     N79397   3.348   6.348   5.127 -0.1173 -0.1665  0.2852
  589MOL0     C79398   3.311   6.451   5.213 -0.4144 -1.0633  0.4610
  589MOL0     C79399   3.185   6.423   5.245  0.2021  0.1699  1.4593
  589MOL0     C79400   3.083   6.507   5.321 -0.3307 -0.3165 -0.1341
  589MOL0     C79401   3.063   6.462   5.466  0.4452 -0.0903 -0.0199
  589MOL0     C79402   2.936   6.531   5.528  0.1822 -0.4364 -0.3280
  589MOL0     C79403   2.912   6.466   5.662 -0.5054 -0.2347  0.0136
  589MOL0     O79404   2.797   6.521   5.734 -0.2699 -0.4545 -0.0409
  589MOL0     C79405   2.705   6.443   5.806 -0.4131 -0.3257 -0.2488
  589MOL0     C79406   2.712   6.305   5.839 -0.4351 -0.3366  0.7016
  589MOL0     C79407   2.605   6.244   5.911  1.0142 -0.3446  0.2724
  589MOL0     C79408   2.616   6.098   5.940 -0.0838 -0.3544  0.2945
  589MOL0     C79409   2.501   6.324   5.967 -0.7847  0.0942  1.1515
  589MOL0     C79410   2.392   6.277   6.047  0.0747 -0.1156 -0.0687
  589MOL0     O79411   2.348   6.148   6.011  0.2625  0.5539 -0.1194
  589MOL0     C79412   2.254   6.080   6.078  0.2502  0.4376 -0.2918
  589MOL0     C79413   2.228   5.958   6.010 -0.2727  0.0412  0.0919
  589MOL0     C79414   2.130   5.869   6.060  0.0212 -0.0709 -1.6852
  589MOL0     C79415   2.061   5.893   6.177 -0.3170 -0.0902 -0.5189
  589MOL0     O79416   1.982   5.788   6.220  0.1696  0.3075  0.6797
  589MOL0     C79417   1.905   5.799   6.339  0.7854 -0.0356  0.5526
  589MOL0     C79418   1.783   5.881   6.309  0.4235 -0.1269 -0.4302
  589MOL0     C79419   1.664   5.823   6.387 -0.3041 -0.2549  0.0404
  589MOL0     C79420   1.528   5.891   6.355 -0.8648  0.7760 -0.3613
  589MOL0     C79421   1.412   5.832   6.437 -0.0163 -0.8631  0.1420
  589MOL0     C79422   1.279   5.909   6.422 -0.1591 -0.7154 -0.1958
  589MOL0     C79423   1.162   5.876   6.523  0.4594  0.2911  0.2448
  589MOL0     C79424   1.031   5.953   6.496  0.2448  0.3776  0.3492
  589MOL0    Cl79425   0.892   5.893   6.583  0.4523  0.4137  0.1016
  589MOL0     C79426   2.084   6.015   6.240 -0.0551 -0.1551  0.3076
  589MOL0     C79427   2.178   6.108   6.192 -0.4419  0.6131  0.1701
  589MOL0     O79428   2.343   6.348   6.134  0.6238  0.5596  0.2022
  589MOL0     C79429   2.497   6.453   5.934 -1.1377  0.3558 -1.2660
  589MOL0     C79430   2.604   6.515   5.862 -0.2113 -0.7898 -0.2278
  589MOL0     N79431   3.150   6.294   5.193 -0.8082  0.5038  0.3560
  589MOL0     N79432   3.255   6.247   5.132 -0.0770 -0.1804 -0.4566
  589MOL0     C79433   4.577   6.491   4.841 -0.2787 -0.0378 -0.0549
  589MOL0     C79434   4.715   6.517   4.849 -0.2003  0.4400 -0.6408
  589MOL0     C79435   5.104   6.635   5.087 -0.1843 -1.0727 -0.6572
  589MOL0     C79436   5.195   6.610   5.190  0.1335 -0.2939  0.1305
  589MOL0     C79437   5.329   6.656   5.190 -0.0721 -0.9669  0.6443
  589MOL0     C79438   5.383   6.707   5.076  0.8472 -0.4468 -0.1354
  589MOL0     O79439   5.515   6.744   5.059 -0.3662 -0.5639 -0.5204
  589MOL0     C79440   5.591   6.786   5.175 -0.1185 -0.1454 -0.0311
  589MOL0     C79441   5.737   6.834   5.149 -0.2881 -0.0808  0.4479
  589MOL0     C79442   5.746   6.961   5.068  0.0025  0.4538  0.4216
  589MOL0     C79443   5.886   7.007   5.035  0.5111  0.3735 -0.4249
  589MOL0     C79444   5.979   7.002   5.148 -0.4678  0.0277 -0.6458
  589MOL0     C79445   6.063   7.004   5.240 -1.1153 -0.1941  0.3200
  589MOL0     C79446   5.298   6.717   4.966 -0.1397 -0.0606 -0.4878
  589MOL0     C79447   5.156   6.698   4.968 -0.7735  0.0406 -0.0959
  589MOL0     H79448   4.680   6.688   5.155  0.2925  0.8319 -0.4674
  589MOL0     H79449   4.449   6.617   5.132  1.0667  1.0444  1.5708
  589MOL0     H79450   4.270   6.457   5.090 -0.7034 -0.1110 -0.1491
  589MOL0     H79451   4.208   6.600   4.993  1.2016  0.6218 -1.0355
  589MOL0     H79452   4.121   6.425   4.841 -1.4233 -0.1935 -0.2673
  589MOL0     H79453   4.155   6.304   4.967 -3.1196 -0.0215  0.2270
  589MOL0     H79454   4.004   6.437   5.115 -2.4674 -0.6900  0.4575
  589MOL0     H79455   3.950   6.530   4.978  0.1652  1.1390  1.2712
  589MOL0     H79456   3.878   6.337   4.858  1.7692 -1.3839 -0.7658
  589MOL0     H79457   3.945   6.218   4.973  1.5361  1.3076  0.6797
  589MOL0     H79458   3.786   6.295   5.137 -4.7999  0.3867  0.6136
  589MOL0     H79459   3.720   6.420   5.037  1.7124 -0.2826 -0.6415
  589MOL0     H79460   3.637   6.271   4.876 -3.0166  2.3487  2.2557
  589MOL0     H79461   3.715   6.132   4.967 -1.4901 -0.1745 -2.5025
  589MOL0     H79462   3.496   6.134   5.027  0.4836 -0.4325  0.4624
  589MOL0     H79463   3.576   6.215   5.169 -2.2421  0.3026  1.5647
  589MOL0     H79464   3.437   6.349   4.935 -1.0931  6.1498 -0.0862
  589MOL0     H79465   3.515   6.428   5.077  0.4485  0.9891 -1.9267
  589MOL0     H79466   3.372   6.537   5.236  0.1913 -1.3559 -0.0335
  589MOL0     H79467   3.117   6.611   5.323 -0.1350 -0.3786  1.1513
  589MOL0     H79468   2.990   6.483   5.270 -0.2999  1.2188 -0.9625
  589MOL0     H79469   3.147   6.484   5.532  0.3047 -0.7549  0.3950
  589MOL0     H79470   3.045   6.355   5.470 -0.3793  0.0696  1.2815
  589MOL0     H79471   2.848   6.503   5.469 -0.7817  1.4349  0.1488
  589MOL0     H79472   2.938   6.640   5.535  1.5552 -0.4890  0.4123
  589MOL0     H79473   3.003   6.483   5.720 -0.4065 -0.2865 -0.1269
  589MOL0     H79474   2.905   6.360   5.634 -0.2399  0.3736 -2.6503
  589MOL0     H79475   2.790   6.241   5.799  0.7469  1.5065 -0.0438
  589MOL0     H79476   2.712   6.064   5.901 -0.6913 -1.4943 -0.2718
  589MOL0     H79477   2.615   6.076   6.047  2.8062  0.3330  0.5350
  589MOL0     H79478   2.546   6.032   5.887  1.7314 -0.5465 -2.0199
  589MOL0     H79479   2.291   5.925   5.927  1.4496  3.7552 -0.3205
  589MOL0     H79480   2.121   5.781   5.997  1.1501 -2.8326  1.6771
  589MOL0     H79481   1.867   5.701   6.369 -0.8221  0.3051 -0.2666
  589MOL0     H79482   1.961   5.844   6.421 -0.6522  0.4194  1.3088
  589MOL0     H79483   1.799   5.981   6.350  3.5180 -0.7841  0.1836
  589MOL0     H79484   1.749   5.885   6.205 -1.5465 -2.6276  0.0048
  589MOL0     H79485   1.695   5.843   6.490 -0.3419 -0.4423  0.0889
  589MOL0     H79486   1.659   5.714   6.377  2.2437 -0.7115  2.4088
  589MOL0     H79487   1.523   5.999   6.372  2.6524  0.7521  1.6661
  589MOL0     H79488   1.515   5.876   6.247  2.5504  2.7985 -1.1818
  589MOL0     H79489   1.438   5.841   6.543 -1.8194  2.0852  0.4503
  589MOL0     H79490   1.399   5.725   6.419  2.8421 -1.1747 -0.6694
  589MOL0     H79491   1.296   6.017   6.424 -1.4671 -0.3898 -2.6789
  589MOL0     H79492   1.245   5.887   6.320  0.0323 -0.2294 -0.3654
  589MOL0     H79493   1.201   5.907   6.620 -1.2485 -0.6049  1.2853
  589MOL0     H79494   1.136   5.769   6.525  2.3275 -0.2689  4.0067
  589MOL0     H79495   1.013   5.923   6.392 -0.0105 -3.4535  1.3438
  589MOL0     H79496   1.043   6.059   6.523  1.0923  0.0189  1.4539
  589MOL0     H79497   2.028   6.047   6.327  2.1252 -0.2514  1.8261
  589MOL0     H79498   2.181   6.204   6.242  1.6085  0.9426 -0.4735
  589MOL0     H79499   2.409   6.513   5.956 -0.8375  0.0231  1.1937
  589MOL0     H79500   2.620   6.621   5.845  1.0748 -1.3569 -3.0166
  589MOL0     H79501   4.533   6.432   4.762 -0.9749  1.9408 -1.2103
  589MOL0     H79502   4.786   6.476   4.778  1.1081  0.2942  0.6861
  589MOL0     H79503   5.166   6.550   5.276  0.8163 -3.5882 -1.7962
  589MOL0     H79504   5.385   6.635   5.281  0.9486 -2.8074 -0.3545
  589MOL0     H79505   5.542   6.869   5.228 -0.6145 -1.9048  2.4221
  589MOL0     H79506   5.597   6.702   5.244 -2.0904 -0.5468 -0.2755
  589MOL0     H79507   5.790   6.750   5.104 -0.8852  0.0315 -0.4940
  589MOL0     H79508   5.791   6.858   5.241  3.0192  1.2362 -1.6395
  589MOL0     H79509   5.692   7.045   5.114 -1.5596 -0.5016  0.3802
  589MOL0     H79510   5.691   6.951   4.974 -0.1960  4.4545 -0.0774
  589MOL0     H79511   5.876   7.112   5.006  2.0300  1.8983  3.7269
  589MOL0     H79512   5.917   6.945   4.951  0.6717  1.4113 -1.1527
  589MOL0     H79513   6.141   7.013   5.313  1.0001  0.0492 -1.8545
  589MOL0     H79514   5.328   6.760   4.871 -2.1059  1.4089 -0.5147
  589MOL0     H79515   5.111   6.724   4.873  3.9252 -0.1047 -2.6295
  590MOL0     O79516   7.064   0.514  10.702 -0.6222  0.2527 -0.3209
  590MOL0     C79517   7.084   0.421  10.623 -0.9508  0.4959 -0.1070
  590MOL0     O79518   6.982   0.357  10.544  0.4865 -0.7163 -0.2401
  590MOL0     C79519   6.867   0.429  10.542 -0.2431 -0.0703 -0.4378
  590MOL0     C79520   6.749   0.364  10.594 -0.6286 -0.6785 -0.1709
  590MOL0     C79521   6.629   0.421  10.570 -0.4747  0.4054 -0.8697
  590MOL0     C79522   6.610   0.547  10.507  0.4746 -0.4567 -0.1598
  590MOL0     O79523   6.502   0.621  10.515  1.3230 -0.2243  0.2153
  590MOL0     C79524   6.382   0.568  10.460 -0.0679  1.4195 -0.0217
  590MOL0     C79525   6.319   0.667  10.374  0.3189  0.1027  0.0372
  590MOL0     C79526   6.406   0.704  10.250 -0.7625  0.0448  0.3169
  590MOL0     C79527   6.350   0.806  10.159 -0.2138 -0.3583  0.1049
  590MOL0     C79528   6.430   0.845  10.036 -0.8500  0.9215  0.3089
  590MOL0     C79529   6.382   0.975   9.971  0.3578 -0.1912 -0.9441
  590MOL0     C79530   6.238   0.975   9.927  0.0193 -0.0198 -0.6108
  590MOL0     C79531   6.210   0.906   9.799 -0.0257  0.1440 -0.4145
  590MOL0     N79532   6.081   0.958   9.738 -0.2349 -0.2464  0.5125
  590MOL0     C79533   5.957   0.945   9.790 -0.0405  0.3018 -0.0356
  590MOL0     C79534   5.883   1.041   9.744  0.2614 -0.5823 -0.1809
  590MOL0     C79535   5.735   1.074   9.771 -0.3467  0.4929  0.4845
  590MOL0     C79536   5.694   1.208   9.703  0.2234 -0.2440  0.5280
  590MOL0     C79537   5.665   1.193   9.555  0.7008  0.1458 -0.0803
  590MOL0     C79538   5.631   1.326   9.478  0.2183 -0.9079 -0.0226
  590MOL0     O79539   5.596   1.298   9.342 -0.1745 -0.1722 -0.6468
  590MOL0     C79540   5.462   1.279   9.321 -0.0894 -0.0993 -0.1211
  590MOL0     C79541   5.401   1.153   9.317  0.1347  0.5219  0.3117
  590MOL0     C79542   5.262   1.135   9.294  0.1426  0.3260  0.0468
  590MOL0     C79543   5.223   0.985   9.298 -0.5053 -0.1103  0.0144
  590MOL0     C79544   5.183   1.238   9.249 -0.0444  0.1001  0.1892
  590MOL0     C79545   5.046   1.223   9.200  0.3713 -0.0111  0.0568
  590MOL0     O79546   4.965   1.330   9.230  0.5786  0.4109  0.3660
  590MOL0     C79547   4.845   1.351   9.162  0.4395 -0.1678  0.5261
  590MOL0     C79548   4.854   1.423   9.044  0.0019  0.4034  0.6483
  590MOL0     C79549   4.741   1.462   8.972 -0.2628  0.2384  0.6971
  590MOL0     C79550   4.615   1.426   9.012 -0.3847  0.5038  0.2240
  590MOL0     O79551   4.515   1.464   8.931 -0.1797 -0.2628 -0.5068
  590MOL0     C79552   4.449   1.352   8.877 -1.0875  0.2110  0.0799
  590MOL0     C79553   4.330   1.407   8.792 -0.6352  0.1789 -0.5029
  590MOL0     C79554   4.194   1.411   8.859 -0.7530 -0.4341 -0.6613
  590MOL0     C79555   4.120   1.274   8.852 -0.0694 -0.1376  0.2467
  590MOL0     C79556   3.978   1.292   8.911 -0.1083 -0.3382 -0.2781
  590MOL0     C79557   3.909   1.157   8.919 -0.2168  0.4149 -0.0543
  590MOL0     C79558   3.799   1.158   8.817 -0.1297 -0.2380  0.0858
  590MOL0     C79559   3.711   1.038   8.846 -0.8018  0.4080  0.1275
  590MOL0    Cl79560   3.540   1.060   8.776 -0.1748  0.0393 -0.5128
  590MOL0     C79561   4.610   1.353   9.132 -0.1853  0.7762  0.2098
  590MOL0     C79562   4.721   1.313   9.209 -0.0192  1.0779 -0.0019
  590MOL0     O79563   5.019   1.131   9.126  0.3490 -0.2211  0.2586
  590MOL0     C79564   5.250   1.370   9.235  0.4625  0.3985  0.4359
  590MOL0     C79565   5.382   1.388   9.289  0.4984  0.0881 -0.1641
  590MOL0     N79566   5.959   1.109   9.655  0.2679 -0.4579 -0.1738
  590MOL0     N79567   6.076   1.064   9.654 -0.4442 -0.1887  0.8239
  590MOL0     C79568   6.728   0.615  10.468  0.5438  0.3645  0.1582
  590MOL0     C79569   6.853   0.551  10.482  0.5138 -0.8441 -0.2105
  590MOL0     C79570   7.228   0.376  10.594  0.6363 -0.0443 -0.0212
  590MOL0     C79571   7.324   0.392  10.691  0.5491 -0.2981  0.0520
  590MOL0     C79572   7.444   0.337  10.679  0.2362  0.0562 -0.1826
  590MOL0     C79573   7.482   0.259  10.575  0.3461  0.6934 -0.6811
  590MOL0     O79574   7.603   0.190  10.581 -0.6002  0.0898 -0.7954
  590MOL0     C79575   7.580   0.045  10.593 -0.7279  0.4301 -0.2859
  590MOL0     C79576   7.637  -0.004  10.729 -0.2298 -0.6487 -0.5422
  590MOL0     C79577   7.600  -0.147  10.769 -0.7014  0.9911 -0.0503
  590MOL0     C79578   7.617  -0.250  10.653  0.0598  0.7403 -0.4721
  590MOL0     C79579   7.755  -0.257  10.591  0.9542 -0.3797  0.5888
  590MOL0     C79580   7.865  -0.259  10.543 -0.0039  0.4150  1.0715
  590MOL0     C79581   7.391   0.249  10.470 -0.3809 -0.2174  0.1435
  590MOL0     C79582   7.256   0.293  10.484  0.1210 -0.2798  0.5860
  590MOL0     H79583   6.765   0.265  10.635 -0.0618 -0.3178  0.5131
  590MOL0     H79584   6.540   0.371  10.607 -0.3077  0.5656 -0.2505
  590MOL0     H79585   6.390   0.472  10.408  1.7779  0.0584  2.5468
  590MOL0     H79586   6.312   0.561  10.544 -1.5001 -1.2120 -1.3310
  590MOL0     H79587   6.223   0.620  10.350 -1.4447  2.6135  1.6995
  590MOL0     H79588   6.302   0.754  10.438 -0.0429  0.1423 -0.1101
  590MOL0     H79589   6.504   0.744  10.276  0.5309 -0.0830 -3.7160
  590MOL0     H79590   6.427   0.615  10.190  2.0655  0.6129  0.3522
  590MOL0     H79591   6.253   0.767  10.129  0.7469 -1.4593 -1.6845
  590MOL0     H79592   6.355   0.894  10.225  1.5612  0.7501 -1.3868
  590MOL0     H79593   6.539   0.847  10.050 -0.5785  0.3785 -1.4229
  590MOL0     H79594   6.426   0.765   9.961  2.0933 -0.0509  1.0321
  590MOL0     H79595   6.400   1.059  10.038  2.1584 -0.3037 -1.2350
  590MOL0     H79596   6.454   0.991   9.890  2.6695 -2.8885  0.4050
  590MOL0     H79597   6.168   0.951  10.008  0.1817 -1.3618 -0.8491
  590MOL0     H79598   6.219   1.081   9.906  1.6028  0.7823  1.6021
  590MOL0     H79599   6.193   0.799   9.815 -4.0724  0.7895  0.6196
  590MOL0     H79600   6.293   0.932   9.732 -1.0106 -1.5052 -2.4022
  590MOL0     H79601   5.934   0.882   9.876  4.0639 -2.4881 -0.6739
  590MOL0     H79602   5.664   0.992   9.751  3.1683 -2.0262 -3.1215
  590MOL0     H79603   5.735   1.097   9.878 -1.7356  3.6274 -0.0737
  590MOL0     H79604   5.779   1.275   9.719  1.6812 -2.0701  0.7110
  590MOL0     H79605   5.603   1.247   9.750 -0.8697  0.5596 -2.0733
  590MOL0     H79606   5.591   1.113   9.561  2.3670 -1.5514 -1.1298
  590MOL0     H79607   5.748   1.149   9.498  3.4792  2.1637  2.1324
  590MOL0     H79608   5.716   1.392   9.458 -0.5063 -0.2143 -0.9038
  590MOL0     H79609   5.564   1.392   9.533  2.3424  2.3755 -1.0711
  590MOL0     H79610   5.464   1.066   9.330  0.7117  0.6131 -1.4949
  590MOL0     H79611   5.215   0.955   9.403  0.3077  1.5736  0.5968
  590MOL0     H79612   5.125   0.957   9.256 -0.4598  1.6810 -1.4234
  590MOL0     H79613   5.302   0.926   9.251 -0.5849  1.8328 -2.8214
  590MOL0     H79614   4.948   1.458   9.002  1.0240 -0.8570  1.8153
  590MOL0     H79615   4.744   1.508   8.874  0.7889 -0.9417  0.1482
  590MOL0     H79616   4.516   1.295   8.812  2.2466  1.3320  2.2684
  590MOL0     H79617   4.418   1.285   8.958 -0.0727  1.3234  1.4349
  590MOL0     H79618   4.357   1.503   8.747  1.5090 -0.3391 -0.4345
  590MOL0     H79619   4.327   1.337   8.708  1.9527  0.6435 -1.0863
  590MOL0     H79620   4.136   1.488   8.807 -1.8027 -1.4821 -1.0752
  590MOL0     H79621   4.218   1.434   8.963 -1.6049  0.3759 -0.6356
  590MOL0     H79622   4.126   1.240   8.748 -0.8773  0.4489  0.0039
  590MOL0     H79623   4.179   1.208   8.917 -1.6806 -0.4138  1.4918
  590MOL0     H79624   3.919   1.373   8.867 -0.5014  0.3236  1.3908
  590MOL0     H79625   3.990   1.315   9.017 -0.0824 -0.2725 -0.2956
  590MOL0     H79626   3.976   1.071   8.906 -1.5845 -0.2119 -4.6381
  590MOL0     H79627   3.865   1.148   9.019 -0.9625 -0.5817 -0.4565
  590MOL0     H79628   3.837   1.160   8.714  0.7577 -3.3614  0.2565
  590MOL0     H79629   3.732   1.243   8.833  0.4698  0.1292  0.7194
  590MOL0     H79630   3.701   1.014   8.952  3.9573 -0.6475  0.5559
  590MOL0     H79631   3.757   0.949   8.802 -0.1718  1.2716 -1.0086
  590MOL0     H79632   4.509   1.324   9.160  0.7298 -0.1160  2.9124
  590MOL0     H79633   4.688   1.265   9.301 -2.2283  0.4269 -1.0626
  590MOL0     H79634   5.187   1.452   9.203 -0.4028 -0.1305  0.7509
  590MOL0     H79635   5.415   1.492   9.287  0.1550  0.1991 -1.3471
  590MOL0     H79636   6.707   0.709  10.417 -0.6616 -1.5295 -3.1413
  590MOL0     H79637   6.950   0.586  10.447  1.7159 -3.6939  0.0372
  590MOL0     H79638   7.308   0.457  10.776  2.6709 -1.0506  1.0771
  590MOL0     H79639   7.515   0.351  10.760  0.3125 -4.7735  0.8891
  590MOL0     H79640   7.473   0.025  10.592 -1.1422  2.4175 -0.8571
  590MOL0     H79641   7.623  -0.005  10.507 -0.6665  1.6041 -0.9588
  590MOL0     H79642   7.599   0.058  10.810  0.2129 -0.0596 -0.7718
  590MOL0     H79643   7.747  -0.010  10.728 -0.1697  0.1655  0.1426
  590MOL0     H79644   7.493  -0.141  10.789 -1.0511 -0.8041 -1.1884
  590MOL0     H79645   7.640  -0.187  10.863 -2.1967 -1.2028 -0.2696
  590MOL0     H79646   7.537  -0.225  10.582 -0.0736  1.2239 -0.1589
  590MOL0     H79647   7.595  -0.350  10.690  1.4161 -0.1896 -2.0399
  590MOL0     H79648   7.962  -0.271  10.500  0.0227  1.1328  0.9124
  590MOL0     H79649   7.412   0.197  10.377 -0.6276  0.4820 -0.3103
  590MOL0     H79650   7.178   0.265  10.414 -1.5900 -2.9490  3.3055
  591MOL0     O79651   4.963   2.605   7.153  0.7319 -1.1168 -0.1862
  591MOL0     C79652   4.928   2.722   7.158  0.3268 -0.2869  0.1537
  591MOL0     O79653   4.795   2.766   7.161 -0.6316  0.1399  0.2553
  591MOL0     C79654   4.694   2.675   7.160  0.0164  0.3188  0.0930
  591MOL0     C79655   4.665   2.600   7.042 -0.3136 -0.0386  0.0963
  591MOL0     C79656   4.565   2.503   7.051  0.1837  0.3517  1.1128
  591MOL0     C79657   4.487   2.495   7.164  0.5684 -0.3519 -0.6683
  591MOL0     O79658   4.379   2.411   7.146 -0.4888  0.2511 -0.2822
  591MOL0     C79659   4.288   2.398   7.248  0.9592 -0.3760  0.1906
  591MOL0     C79660   4.170   2.493   7.243  0.6930  0.7818 -0.5335
  591MOL0     C79661   4.081   2.453   7.365 -0.5910  0.2386  0.6135
  591MOL0     C79662   3.961   2.550   7.359 -0.9692 -0.3978 -0.0875
  591MOL0     C79663   3.837   2.500   7.448 -0.4550 -0.6117 -0.8376
  591MOL0     C79664   3.717   2.592   7.444 -0.1942  0.4530 -0.2388
  591MOL0     C79665   3.618   2.564   7.559 -0.1306 -0.2355  0.0440
  591MOL0     C79666   3.498   2.661   7.564 -0.8018 -0.0121 -0.2567
  591MOL0     N79667   3.435   2.699   7.438  0.0812 -0.2799  0.0381
  591MOL0     C79668   3.394   2.612   7.340  0.1755 -0.4197 -0.3610
  591MOL0     C79669   3.327   2.683   7.250  0.0431  0.7586 -0.2439
  591MOL0     C79670   3.280   2.635   7.119 -0.6716 -0.2782 -0.4133
  591MOL0     C79671   3.156   2.548   7.141  0.5459  0.3911  0.1775
  591MOL0     C79672   3.027   2.622   7.205 -0.1290 -0.5899  0.0960
  591MOL0     C79673   2.995   2.763   7.165  0.2562  0.1192  1.0203
  591MOL0     O79674   2.862   2.807   7.200 -0.1209 -0.7972  0.6768
  591MOL0     C79675   2.829   2.845   7.330 -0.0871 -0.5867  0.0708
  591MOL0     C79676   2.924   2.901   7.415 -0.1806 -0.6718  0.0041
  591MOL0     C79677   2.898   2.945   7.549  0.6190  0.7382  0.7000
  591MOL0     C79678   3.022   2.990   7.634  0.6363 -0.2971 -0.0896
  591MOL0     C79679   2.761   2.930   7.593 -0.0515 -0.5062 -0.1673
  591MOL0     C79680   2.720   2.960   7.736 -0.2494 -0.1499  0.2028
  591MOL0     O79681   2.612   2.893   7.789  0.4564 -0.6477  0.0157
  591MOL0     C79682   2.584   2.907   7.924  0.6115  0.5888 -0.0609
  591MOL0     C79683   2.476   2.984   7.964 -0.4022 -0.4621  0.6287
  591MOL0     C79684   2.438   3.005   8.094  0.0754  0.3908  0.5034
  591MOL0     C79685   2.504   2.935   8.205 -0.0408 -0.4109  0.3690
  591MOL0     O79686   2.462   2.960   8.329  0.1342 -0.4881 -0.5425
  591MOL0     C79687   2.400   2.851   8.400 -0.2315  0.0452  0.1665
  591MOL0     C79688   2.488   2.821   8.519 -0.0581  0.0618  0.0204
  591MOL0     C79689   2.420   2.716   8.608  0.7013  0.3251  0.1170
  591MOL0     C79690   2.482   2.669   8.737 -0.4854 -0.1117  0.3921
  591MOL0     C79691   2.630   2.610   8.705  1.1112 -0.5971  0.2385
  591MOL0     C79692   2.741   2.707   8.718  0.2293  0.0075  0.0743
  591MOL0     C79693   2.873   2.635   8.701 -0.2184 -0.2243 -0.1974
  591MOL0     C79694   2.987   2.730   8.746  0.6576  0.7508  0.3818
  591MOL0    Cl79695   3.127   2.619   8.764  0.2041  0.2302  0.0511
  591MOL0     C79696   2.613   2.857   8.163 -0.6436 -0.3333 -1.2501
  591MOL0     C79697   2.654   2.847   8.028 -0.0378  0.5445  0.5079
  591MOL0     O79698   2.786   3.045   7.793  0.5720  0.2027  0.6088
  591MOL0     C79699   2.670   2.880   7.499  0.4352 -0.0348 -0.9224
  591MOL0     C79700   2.701   2.845   7.376 -0.0883  0.0022 -1.1711
  591MOL0     N79701   3.341   2.812   7.293  1.1749  0.1925  0.2351
  591MOL0     N79702   3.400   2.826   7.401  0.1712 -0.4108 -0.9757
  591MOL0     C79703   4.507   2.580   7.276 -0.3514 -0.1677  0.6412
  591MOL0     C79704   4.612   2.671   7.270 -0.0258  0.4121  0.0479
  591MOL0     C79705   5.039   2.823   7.135 -0.1455  0.4474  0.7926
  591MOL0     C79706   5.172   2.778   7.105 -0.1506 -0.4972 -0.3931
  591MOL0     C79707   5.266   2.880   7.089 -0.1561  0.0493  0.1040
  591MOL0     C79708   5.235   3.013   7.088 -0.3492 -0.6128 -0.1776
  591MOL0     O79709   5.314   3.124   7.057  0.5462  0.3327  0.3855
  591MOL0     C79710   5.450   3.135   7.083  0.5396 -0.2221  0.1053
  591MOL0     C79711   5.475   3.126   7.241 -0.1377 -0.0511 -0.1115
  591MOL0     C79712   5.389   3.216   7.322  1.1068  0.1372 -0.0271
  591MOL0     C79713   5.455   3.279   7.450  0.0610  0.2427 -0.0960
  591MOL0     C79714   5.489   3.169   7.543 -0.3287  1.3028 -0.0729
  591MOL0     C79715   5.536   3.077   7.611  0.4702  0.0452  0.2018
  591MOL0     C79716   5.101   3.051   7.112 -0.3020  0.4601  0.6470
  591MOL0     C79717   5.006   2.955   7.128  0.2172 -0.3457  0.3177
  591MOL0     H79718   4.727   2.622   6.956  2.5124 -1.3550  1.6706
  591MOL0     H79719   4.547   2.453   6.957  1.9991 -1.6137  1.7477
  591MOL0     H79720   4.249   2.298   7.229  0.2696 -0.0386 -0.2033
  591MOL0     H79721   4.323   2.412   7.351 -1.2309  2.8798  0.6340
  591MOL0     H79722   4.206   2.596   7.237 -0.0913  1.1417  0.6127
  591MOL0     H79723   4.123   2.467   7.148  2.7827  0.8519 -1.6504
  591MOL0     H79724   4.050   2.349   7.365 -0.6503  0.2506  1.1002
  591MOL0     H79725   4.140   2.467   7.457 -0.7374 -0.6270  0.8440
  591MOL0     H79726   3.992   2.651   7.387  0.6518 -0.5306 -1.2469
  591MOL0     H79727   3.917   2.546   7.258 -1.6193 -4.0189  0.2319
  591MOL0     H79728   3.814   2.395   7.427 -0.0545 -1.4356  2.3558
  591MOL0     H79729   3.874   2.495   7.551 -0.9655  0.1799 -0.6125
  591MOL0     H79730   3.748   2.696   7.453  0.2876  0.5805 -2.8202
  591MOL0     H79731   3.666   2.592   7.347 -0.7044  3.7893 -0.0737
  591MOL0     H79732   3.568   2.467   7.551 -1.1449  0.3500 -1.0760
  591MOL0     H79733   3.680   2.560   7.648  1.2238 -0.4496 -0.8813
  591MOL0     H79734   3.539   2.754   7.606 -4.6233  0.8729  1.9882
  591MOL0     H79735   3.427   2.615   7.633  0.8788 -1.1929  0.7719
  591MOL0     H79736   3.407   2.504   7.330 -2.5583 -0.9265  0.5987
  591MOL0     H79737   3.261   2.718   7.050  1.5515 -0.6653 -1.5908
  591MOL0     H79738   3.363   2.577   7.077 -0.4190 -0.8603  0.8378
  591MOL0     H79739   3.188   2.459   7.197  3.7635  1.6095  0.4695
  591MOL0     H79740   3.116   2.509   7.047 -0.2297  0.1040  0.6206
  591MOL0     H79741   3.039   2.637   7.313  0.1029  1.2445 -0.1607
  591MOL0     H79742   2.936   2.563   7.194 -1.6336  1.6180  0.1010
  591MOL0     H79743   2.991   2.757   7.056  1.3357 -3.4046  1.0401
  591MOL0     H79744   3.074   2.834   7.191  1.4545 -0.9226  0.3193
  591MOL0     H79745   3.027   2.909   7.382 -0.3242  0.3489 -0.2246
  591MOL0     H79746   3.025   2.921   7.719  1.7059 -2.1983 -1.5898
  591MOL0     H79747   3.119   2.976   7.587  2.6442  1.6197  3.1406
  591MOL0     H79748   3.009   3.095   7.661 -1.7409 -0.5110 -0.1494
  591MOL0     H79749   2.420   3.025   7.880  2.3903  0.0567 -1.1318
  591MOL0     H79750   2.342   3.056   8.103 -0.6409 -0.2994 -2.3302
  591MOL0     H79751   2.295   2.863   8.427 -0.4894  0.6268 -1.0049
  591MOL0     H79752   2.392   2.756   8.345 -3.3848 -0.0993  0.6891
  591MOL0     H79753   2.586   2.789   8.481 -0.6942 -1.8273 -0.1497
  591MOL0     H79754   2.515   2.910   8.576 -2.1243  0.3858  0.5729
  591MOL0     H79755   2.415   2.622   8.552 -0.2146  0.5393 -0.1764
  591MOL0     H79756   2.319   2.746   8.639  1.2448 -0.2780  2.7442
  591MOL0     H79757   2.509   2.754   8.801  4.6201 -1.0897 -0.0109
  591MOL0     H79758   2.436   2.583   8.787 -1.7759  0.7564  0.7532
  591MOL0     H79759   2.633   2.575   8.601 -2.2959 -1.6296  0.3686
  591MOL0     H79760   2.648   2.520   8.764 -0.1071 -2.0207 -1.4332
  591MOL0     H79761   2.721   2.793   8.654 -1.9677  1.2235  2.2123
  591MOL0     H79762   2.730   2.745   8.820 -0.2076 -1.5809  0.6503
  591MOL0     H79763   2.891   2.609   8.596 -3.0125 -1.0427 -0.5639
  591MOL0     H79764   2.868   2.545   8.764 -1.3335  0.4925  0.7848
  591MOL0     H79765   2.965   2.784   8.838  0.3945 -0.4961  1.0684
  591MOL0     H79766   3.015   2.805   8.671 -2.2679  0.1911 -1.4493
  591MOL0     H79767   2.670   2.800   8.236  1.7370  0.0263 -2.7390
  591MOL0     H79768   2.737   2.782   7.999 -1.2048 -0.7931  0.0447
  591MOL0     H79769   2.569   2.851   7.523  0.6309 -2.8464 -2.8977
  591MOL0     H79770   2.625   2.811   7.306 -0.2468 -1.4388 -0.3398
  591MOL0     H79771   4.437   2.584   7.359 -0.1123 -0.9026  0.8822
  591MOL0     H79772   4.634   2.740   7.351  3.0821 -1.0483  0.5771
  591MOL0     H79773   5.193   2.672   7.112  2.6518 -0.0310 -0.8603
  591MOL0     H79774   5.372   2.862   7.084  0.1356  1.7856 -0.6734
  591MOL0     H79775   5.509   3.057   7.033 -0.9701 -1.2859 -0.0778
  591MOL0     H79776   5.491   3.226   7.038  2.5021 -0.1011  1.9975
  591MOL0     H79777   5.583   3.141   7.253  0.6843 -1.3363 -4.2509
  591MOL0     H79778   5.456   3.024   7.277 -0.3371 -0.2762 -0.8405
  591MOL0     H79779   5.297   3.159   7.340 -0.4072  2.5215  0.2268
  591MOL0     H79780   5.352   3.295   7.256 -0.4150 -0.6762 -0.2070
  591MOL0     H79781   5.385   3.347   7.499  0.7476 -0.9281  2.7539
  591MOL0     H79782   5.549   3.328   7.422  0.5010 -0.6183 -0.1688
  591MOL0     H79783   5.575   2.992   7.663 -0.6490 -1.1939 -0.9233
  591MOL0     H79784   5.081   3.157   7.098  0.2535  0.5434  0.4523
  591MOL0     H79785   4.901   2.982   7.142 -0.5188 -3.1386  0.8258
  592MOL0     O79786   6.671   4.841   2.104 -0.0165 -0.5311  0.4836
  592MOL0     C79787   6.657   4.866   2.224 -0.5839  0.1384  0.8308
  592MOL0     O79788   6.736   4.816   2.324 -0.9119 -0.6522 -0.1743
  592MOL0     C79789   6.847   4.741   2.291 -0.6547  0.4341  0.7721
  592MOL0     C79790   6.956   4.771   2.204  0.4443  0.2917 -0.5733
  592MOL0     C79791   7.066   4.694   2.192 -0.2063  0.6007 -0.5533
  592MOL0     C79792   7.068   4.570   2.261  0.4644 -0.8988 -0.8139
  592MOL0     O79793   7.164   4.474   2.252  0.7333 -0.1812 -0.6592
  592MOL0     C79794   7.302   4.520   2.262  0.1850 -0.0503 -1.0349
  592MOL0     C79795   7.372   4.402   2.326  0.3036 -0.3290  0.0184
  592MOL0     C79796   7.376   4.283   2.231  0.3259 -0.3778  0.4107
  592MOL0     C79797   7.456   4.167   2.297  0.4997  0.4592 -0.1209
  592MOL0     C79798   7.474   4.046   2.207 -0.4844  0.2531 -0.2070
  592MOL0     C79799   7.334   3.995   2.168  0.7113 -0.1012  0.1902
  592MOL0     C79800   7.328   3.847   2.110 -0.9848  0.4626 -0.0855
  592MOL0     C79801   7.361   3.840   1.966 -0.2399 -0.3820 -0.5115
  592MOL0     N79802   7.371   3.701   1.928  0.4611 -0.3696  0.4064
  592MOL0     C79803   7.486   3.632   1.930 -0.1419 -0.4687 -0.7173
  592MOL0     C79804   7.452   3.501   1.915  0.6312 -0.1574 -1.1066
  592MOL0     C79805   7.545   3.384   1.906 -0.5632  0.0584 -0.4630
  592MOL0     C79806   7.614   3.346   2.034  0.0283 -0.5722 -0.0300
  592MOL0     C79807   7.532   3.268   2.142 -0.5177 -0.5553  0.0884
  592MOL0     C79808   7.416   3.347   2.213 -1.6020  0.4275  0.1763
  592MOL0     O79809   7.456   3.430   2.322  0.0883  0.3791  0.3109
  592MOL0     C79810   7.365   3.529   2.363 -0.9232 -0.9861 -0.4940
  592MOL0     C79811   7.413   3.643   2.418 -0.1481  0.0628 -0.3955
  592MOL0     C79812   7.329   3.744   2.465 -0.2584  0.0172 -0.3075
  592MOL0     C79813   7.393   3.867   2.546 -0.0977  0.5506 -0.3167
  592MOL0     C79814   7.192   3.735   2.438 -1.0862  0.9658  0.4175
  592MOL0     C79815   7.093   3.832   2.470 -0.5963 -0.4658  0.0270
  592MOL0     O79816   6.973   3.818   2.409 -0.3732 -0.6268 -0.2353
  592MOL0     C79817   6.886   3.921   2.417 -0.7359 -1.3414 -0.5970
  592MOL0     C79818   6.763   3.900   2.496 -0.6058  0.0318  0.0356
  592MOL0     C79819   6.667   3.995   2.507  0.7482  0.2688 -0.1118
  592MOL0     C79820   6.673   4.116   2.438  0.8070  0.9022  0.5546
  592MOL0     O79821   6.563   4.197   2.445 -0.3452 -0.5984  1.0876
  592MOL0     C79822   6.518   4.267   2.328 -0.4582 -0.9073 -0.2282
  592MOL0     C79823   6.416   4.379   2.369  0.0708 -1.2070  0.3316
  592MOL0     C79824   6.406   4.488   2.258  0.2459  0.6835 -0.3773
  592MOL0     C79825   6.265   4.567   2.261 -0.0232 -0.3790  0.4286
  592MOL0     C79826   6.247   4.642   2.131  0.5110  0.7583 -0.3666
  592MOL0     C79827   6.140   4.764   2.141 -0.5534 -1.1556 -0.1865
  592MOL0     C79828   6.101   4.812   2.001 -0.5422 -0.0797 -0.1270
  592MOL0     C79829   6.019   4.937   2.004  1.1769  0.2631  0.6949
  592MOL0    Cl79830   5.859   4.880   1.961  0.4186 -0.9522  0.0274
  592MOL0     C79831   6.792   4.147   2.375 -0.2435  0.5194 -0.1216
  592MOL0     C79832   6.906   4.051   2.364 -0.1303 -0.6489 -0.6264
  592MOL0     O79833   7.115   3.908   2.562 -0.4505 -0.5381 -0.3119
  592MOL0     C79834   7.136   3.620   2.382  0.0976 -0.1936 -0.8086
  592MOL0     C79835   7.228   3.517   2.349 -0.3293 -0.4346 -0.2921
  592MOL0     N79836   7.316   3.489   1.917  0.4893 -0.3135  0.7315
  592MOL0     N79837   7.265   3.614   1.916  0.0717  0.5123  0.3914
  592MOL0     C79838   6.966   4.546   2.355 -0.3681 -0.5233 -0.2353
  592MOL0     C79839   6.855   4.623   2.355  0.2087  0.0885  0.3928
  592MOL0     C79840   6.539   4.951   2.261 -1.0601 -0.0824  0.6828
  592MOL0     C79841   6.456   5.000   2.166  0.6452 -0.5166  1.2338
  592MOL0     C79842   6.332   5.067   2.209  0.7008  0.7919 -0.4058
  592MOL0     C79843   6.297   5.061   2.341  0.4146 -0.2982 -0.4271
  592MOL0     O79844   6.169   5.107   2.371  0.3192 -0.4225 -0.1318
  592MOL0     C79845   6.119   5.066   2.498  0.0233  0.6244  0.2268
  592MOL0     C79846   5.966   5.090   2.495 -0.0564  0.5397  0.3697
  592MOL0     C79847   5.896   5.020   2.370 -0.1036 -1.0582  0.2012
  592MOL0     C79848   5.743   5.014   2.384  1.3255  0.2343  0.2043
  592MOL0     C79849   5.683   4.968   2.507 -0.8423  0.3425 -0.0675
  592MOL0     C79850   5.636   4.951   2.619  0.6737 -0.2598  0.2772
  592MOL0     C79851   6.380   5.004   2.438 -0.5982 -0.0235  0.6348
  592MOL0     C79852   6.500   4.946   2.392  0.7697 -0.5246 -0.0624
  592MOL0     H79853   6.955   4.870   2.159  1.3545  0.9302  0.7063
  592MOL0     H79854   7.147   4.719   2.123 -1.1872  3.4345 -0.7970
  592MOL0     H79855   7.352   4.548   2.169  1.5559  0.9044 -0.0496
  592MOL0     H79856   7.311   4.606   2.329 -2.5984  0.4564 -1.1982
  592MOL0     H79857   7.475   4.416   2.359 -0.3032 -2.8119  3.4689
  592MOL0     H79858   7.306   4.384   2.412  1.3295 -2.3783  0.4424
  592MOL0     H79859   7.274   4.253   2.206  0.4575  0.1220 -0.7648
  592MOL0     H79860   7.438   4.301   2.143 -0.3148  1.9637  0.3840
  592MOL0     H79861   7.545   4.216   2.338  0.7765  0.5100 -0.7829
  592MOL0     H79862   7.395   4.131   2.381 -1.0046 -0.9557 -1.7205
  592MOL0     H79863   7.530   4.069   2.115 -1.2894 -1.2926 -1.1250
  592MOL0     H79864   7.527   3.972   2.268  2.9766  2.4405 -0.2763
  592MOL0     H79865   7.268   3.984   2.255 -2.1468 -0.9464 -1.9468
  592MOL0     H79866   7.273   4.057   2.102  1.6201 -0.4874 -1.0337
  592MOL0     H79867   7.401   3.781   2.159 -1.9246  1.2672  2.5741
  592MOL0     H79868   7.233   3.804   2.143  0.6281  0.0668  4.8720
  592MOL0     H79869   7.459   3.881   1.941 -1.3708  0.3727 -4.3966
  592MOL0     H79870   7.282   3.894   1.913 -0.6923  0.7769  1.2831
  592MOL0     H79871   7.585   3.676   1.932  1.9746 -4.6663  0.6219
  592MOL0     H79872   7.487   3.299   1.868 -0.3634 -1.1652  1.8199
  592MOL0     H79873   7.625   3.411   1.836  0.1459  0.1595  0.3805
  592MOL0     H79874   7.655   3.444   2.062 -1.1114  0.0646 -0.5373
  592MOL0     H79875   7.697   3.282   2.004  1.5233  1.9391 -1.6773
  592MOL0     H79876   7.596   3.216   2.214 -0.2450 -0.4418 -0.0677
  592MOL0     H79877   7.487   3.192   2.078  1.1387  0.5828 -2.6323
  592MOL0     H79878   7.366   3.260   2.256 -0.3594  0.5585  1.9838
  592MOL0     H79879   7.346   3.380   2.136  1.2267  1.6725 -2.0591
  592MOL0     H79880   7.522   3.642   2.422 -0.1194 -2.3850  0.2506
  592MOL0     H79881   7.502   3.862   2.549  0.2226 -1.1125 -5.3640
  592MOL0     H79882   7.367   3.961   2.497  2.5048  1.4858 -0.0383
  592MOL0     H79883   7.349   3.863   2.646 -3.1331 -1.3400 -1.5863
  592MOL0     H79884   6.760   3.809   2.555  1.2292  0.3556  0.7223
  592MOL0     H79885   6.581   3.976   2.570  0.9606 -1.5843 -0.3292
  592MOL0     H79886   6.597   4.321   2.275 -0.9442  0.5325  0.4589
  592MOL0     H79887   6.478   4.196   2.256  0.9258 -0.8634 -1.0760
  592MOL0     H79888   6.316   4.345   2.396 -0.5808 -0.2508 -0.8065
  592MOL0     H79889   6.455   4.428   2.459  0.4140 -2.1496  0.7055
  592MOL0     H79890   6.420   4.433   2.164 -0.0968 -0.9549  0.4907
  592MOL0     H79891   6.488   4.559   2.261  1.3948 -0.5745 -0.7290
  592MOL0     H79892   6.177   4.503   2.271 -2.2073  1.6776 -3.3666
  592MOL0     H79893   6.257   4.638   2.343 -0.9386 -0.9872  0.8896
  592MOL0     H79894   6.212   4.569   2.057 -1.8979  2.6841 -1.2625
  592MOL0     H79895   6.346   4.674   2.095  2.5874 -3.3111  1.1044
  592MOL0     H79896   6.047   4.746   2.195 -0.6197  2.8641  1.3354
  592MOL0     H79897   6.201   4.835   2.197  2.0145 -3.7417  0.5830
  592MOL0     H79898   6.037   4.735   1.956 -2.6834  0.7307  1.3335
  592MOL0     H79899   6.197   4.831   1.952  0.9609 -0.1913  2.6095
  592MOL0     H79900   6.059   4.998   1.922  2.2854 -2.5762 -1.0285
  592MOL0     H79901   6.014   4.997   2.095 -1.8505  0.0746  0.7716
  592MOL0     H79902   6.808   4.249   2.341  1.7554  0.1412 -0.4283
  592MOL0     H79903   6.999   4.076   2.315  0.7570  1.3936  1.9183
  592MOL0     H79904   7.032   3.599   2.358  0.6144 -1.3144 -2.1771
  592MOL0     H79905   7.197   3.428   2.295 -3.3592 -0.1695  0.8542
  592MOL0     H79906   6.979   4.457   2.417 -1.8300 -2.3882 -2.4233
  592MOL0     H79907   6.769   4.585   2.409 -0.6666  1.0375 -0.3156
  592MOL0     H79908   6.488   4.988   2.063 -2.5547 -2.4789  0.3386
  592MOL0     H79909   6.261   5.098   2.133 -0.8206 -1.8528 -0.1840
  592MOL0     H79910   6.134   4.959   2.512  1.1015  0.9271  1.5399
  592MOL0     H79911   6.175   5.117   2.577 -0.7497  0.6204  0.7890
  592MOL0     H79912   5.942   5.196   2.501  0.1301  0.5602  0.8040
  592MOL0     H79913   5.932   5.047   2.590 -2.1195  1.8505  0.2758
  592MOL0     H79914   5.940   4.921   2.362  0.5701 -0.6960 -0.7149
  592MOL0     H79915   5.925   5.079   2.282  0.1549  0.6211  1.3763
  592MOL0     H79916   5.713   4.946   2.304  1.0141 -1.0380  1.3703
  592MOL0     H79917   5.703   5.114   2.360  2.3760  0.3410 -1.2671
  592MOL0     H79918   5.616   4.950   2.724  0.0228  0.1946  0.1644
  592MOL0     H79919   6.356   5.011   2.544  0.7804  3.3677  0.8585
  592MOL0     H79920   6.568   4.900   2.464 -0.3292 -1.3641  0.4749
  593MOL0     O79921   9.034   7.234   8.936 -0.4902 -0.0872 -0.1056
  593MOL0     C79922   9.046   7.125   8.997  0.4570 -0.6152 -0.3915
  593MOL0     O79923   8.986   7.013   8.955 -0.1704  0.1376 -0.1096
  593MOL0     C79924   8.965   7.024   8.820  0.1170  0.2861 -0.1506
  593MOL0     C79925   8.833   7.046   8.771  0.1181 -0.0398  0.0513
  593MOL0     C79926   8.806   7.060   8.635 -0.1583 -0.2282 -0.4402
  593MOL0     C79927   8.906   7.048   8.545 -0.0378 -0.1146  0.3347
  593MOL0     O79928   8.868   7.039   8.406  1.0757 -1.0605  0.3854
  593MOL0     C79929   8.914   6.928   8.329 -0.6591  0.4737  0.2462
  593MOL0     C79930   8.854   6.905   8.187  0.3870 -0.3118  0.0715
  593MOL0     C79931   8.703   6.925   8.195 -0.2165  0.0770 -0.2296
  593MOL0     C79932   8.629   6.862   8.066 -0.3999 -0.6569 -0.4337
  593MOL0     C79933   8.477   6.884   8.074 -0.5857  0.4757  0.0649
  593MOL0     C79934   8.415   6.824   7.949  0.4089 -0.2318 -0.5536
  593MOL0     C79935   8.275   6.884   7.926 -0.4070  0.7735  0.3595
  593MOL0     C79936   8.184   6.828   8.030 -0.1901  0.5208 -0.6516
  593MOL0     N79937   8.044   6.864   8.010 -0.4755  0.4955 -0.2238
  593MOL0     C79938   7.962   6.838   7.907  0.6967  0.3742 -0.2255
  593MOL0     C79939   7.854   6.924   7.922  0.0217 -0.2534  0.1076
  593MOL0     C79940   7.743   6.955   7.832  0.4548  0.4700  0.0910
  593MOL0     C79941   7.615   6.876   7.853  0.0950 -0.1959 -1.3735
  593MOL0     C79942   7.486   6.933   7.777 -1.5862  0.0358 -1.1650
  593MOL0     C79943   7.396   6.812   7.760 -0.6679  1.1227  0.1267
  593MOL0     O79944   7.262   6.853   7.746  0.6092  0.1957 -0.3518
  593MOL0     C79945   7.166   6.757   7.710 -0.1523  0.1040 -0.0086
  593MOL0     C79946   7.183   6.617   7.728 -0.3530 -0.1868  0.6287
  593MOL0     C79947   7.091   6.525   7.667  0.1889 -0.0027 -0.4358
  593MOL0     C79948   7.126   6.380   7.698  0.1038 -0.1300  0.0803
  593MOL0     C79949   6.967   6.572   7.609 -0.4093 -0.1725 -0.5977
  593MOL0     C79950   6.861   6.492   7.554  0.0329 -0.5217 -0.0365
  593MOL0     O79951   6.772   6.545   7.465 -0.9603  0.1928 -0.4002
  593MOL0     C79952   6.724   6.471   7.359  0.1073 -0.6062 -0.1109
  593MOL0     C79953   6.605   6.518   7.307  1.1803 -0.5900  0.0737
  593MOL0     C79954   6.536   6.455   7.200 -0.3946 -0.1734  0.7776
  593MOL0     C79955   6.588   6.341   7.144  0.3287 -0.1449  0.7323
  593MOL0     O79956   6.535   6.281   7.034 -0.0632 -0.0660 -0.7152
  593MOL0     C79957   6.517   6.139   7.043 -0.4570 -0.1764  0.4114
  593MOL0     C79958   6.524   6.074   6.910 -0.1591  0.6794  0.5015
  593MOL0     C79959   6.387   6.104   6.848 -0.5000 -0.3042 -0.1849
  593MOL0     C79960   6.280   6.005   6.894  0.0735  0.5625  0.3779
  593MOL0     C79961   6.284   5.863   6.820 -0.3505 -0.1870  0.6876
  593MOL0     C79962   6.176   5.773   6.879  0.5592 -0.3473 -0.0198
  593MOL0     C79963   6.037   5.804   6.825  0.5146 -0.2271 -0.3882
  593MOL0     C79964   5.948   5.679   6.839 -0.3713  1.2808 -0.7417
  593MOL0    Cl79965   5.766   5.704   6.830  0.2075  0.3673 -0.1357
  593MOL0     C79966   6.719   6.303   7.180  0.4032  0.1546 -0.8835
  593MOL0     C79967   6.787   6.361   7.291 -0.8100 -0.9648 -0.2797
  593MOL0     O79968   6.857   6.377   7.596  0.6901  0.3585  0.4316
  593MOL0     C79969   6.951   6.711   7.589  0.2992 -0.6097 -0.4071
  593MOL0     C79970   7.044   6.796   7.648 -0.2803  0.2349  0.3595
  593MOL0     N79971   7.868   6.995   8.043 -0.0897 -0.0071 -0.2638
  593MOL0     N79972   7.986   6.955   8.091  0.1245 -0.2040 -1.1779
  593MOL0     C79973   9.033   7.019   8.584 -0.3218 -1.2298  0.3750
  593MOL0     C79974   9.064   7.003   8.724 -0.3060 -0.2057 -0.7001
  593MOL0     C79975   9.120   7.132   9.125  0.5613 -0.1355  0.0953
  593MOL0     C79976   9.170   7.249   9.179 -0.2618 -0.2017 -0.0082
  593MOL0     C79977   9.245   7.253   9.297 -0.4482  0.5594  0.8932
  593MOL0     C79978   9.264   7.133   9.367  0.5704  0.4590  0.3048
  593MOL0     O79979   9.320   7.119   9.491  0.1987  0.0318  0.5505
  593MOL0     C79980   9.395   7.226   9.540 -0.1996 -0.4155 -0.2318
  593MOL0     C79981   9.452   7.199   9.682  0.3136  1.0006  0.0894
  593MOL0     C79982   9.533   7.068   9.684 -0.9746  0.2274 -0.0336
  593MOL0     C79983   9.598   7.058   9.830  0.5087 -0.7784 -1.0353
  593MOL0     C79984   9.569   6.930   9.889  0.0676 -0.0400  0.1776
  593MOL0     C79985   9.533   6.827   9.944 -0.4156  0.5964 -0.0249
  593MOL0     C79986   9.231   7.015   9.309  0.2326  0.4003 -0.4701
  593MOL0     C79987   9.153   7.016   9.193 -0.1545 -0.7366  0.1381
  593MOL0     H79988   8.755   7.058   8.845 -1.6449  0.2961 -1.7565
  593MOL0     H79989   8.713   7.092   8.589  0.4015  2.1864 -0.0532
  593MOL0     H79990   9.022   6.939   8.314 -0.1468 -2.0091  1.5814
  593MOL0     H79991   8.895   6.837   8.387  0.9590  0.7980  1.3430
  593MOL0     H79992   8.896   6.970   8.109  4.7725 -1.6926  0.9602
  593MOL0     H79993   8.887   6.806   8.151  0.1365 -0.3559 -0.0362
  593MOL0     H79994   8.671   6.881   8.290  2.1897  0.6154  0.9106
  593MOL0     H79995   8.683   7.032   8.201 -1.4203 -0.1867  0.7458
  593MOL0     H79996   8.684   6.898   7.978  1.7704 -3.2113 -0.2456
  593MOL0     H79997   8.645   6.754   8.060  1.2725 -0.5833  1.4118
  593MOL0     H79998   8.431   6.832   8.159 -1.8546  0.1509 -0.8101
  593MOL0     H79999   8.458   6.991   8.089  2.0369  0.9429  0.5470
  593MOL0     H80000   8.470   6.862   7.863 -0.4325  0.8392 -0.6417
  593MOL0     H80001   8.413   6.715   7.941 -3.6330 -0.2413 -1.3988
  593MOL0     H80002   8.284   6.993   7.929  0.7751  0.7035  3.7323
  593MOL0     H80003   8.246   6.849   7.827  1.2944 -0.4349  0.2394
  593MOL0     H80004   8.214   6.879   8.123 -0.4939  0.8333 -0.7230
  593MOL0     H80005   8.191   6.719   8.036 -1.2010  0.4621 -0.2461
  593MOL0     H80006   7.981   6.777   7.819  0.7525 -0.4645  0.3496
  593MOL0     H80007   7.713   7.059   7.846 -0.7977  0.0264  0.9481
  593MOL0     H80008   7.760   6.943   7.725 -2.7595  0.7507 -0.5691
  593MOL0     H80009   7.588   6.867   7.959  0.4943  3.0535 -0.8665
  593MOL0     H80010   7.642   6.776   7.820  1.6701 -0.6238  0.9384
  593MOL0     H80011   7.521   6.975   7.683  2.2622  0.1739  0.1403
  593MOL0     H80012   7.433   7.016   7.823 -1.5414 -0.4750 -0.1533
  593MOL0     H80013   7.390   6.745   7.847 -2.3867  2.3950  1.0408
  593MOL0     H80014   7.432   6.750   7.678  0.0839  0.6025  0.8309
  593MOL0     H80015   7.270   6.583   7.784  2.1328  0.0965 -2.7249
  593MOL0     H80016   7.234   6.370   7.710  0.1921 -3.2757 -1.9774
  593MOL0     H80017   7.075   6.345   7.788  1.8176 -2.4032  0.2595
  593MOL0     H80018   7.092   6.325   7.610  0.6581  1.5133 -1.1902
  593MOL0     H80019   6.566   6.603   7.362  2.0066  0.0953 -0.3788
  593MOL0     H80020   6.439   6.493   7.168 -0.5772 -0.7531  0.6371
  593MOL0     H80021   6.594   6.098   7.110 -0.4942  0.7611  1.0474
  593MOL0     H80022   6.426   6.119   7.100 -0.3451  0.0326  0.6713
  593MOL0     H80023   6.609   6.117   6.856 -1.0656  3.5167  1.1213
  593MOL0     H80024   6.522   5.966   6.922 -4.9588  0.5797  0.8319
  593MOL0     H80025   6.399   6.094   6.740 -0.7434  0.1757 -0.2605
  593MOL0     H80026   6.351   6.205   6.871 -1.2741 -1.1711  2.8479
  593MOL0     H80027   6.278   5.981   7.001  0.1482  0.0267  0.2630
  593MOL0     H80028   6.187   6.052   6.860 -1.1425 -0.7276  1.7576
  593MOL0     H80029   6.379   5.810   6.825 -1.2988 -1.8879  1.5145
  593MOL0     H80030   6.266   5.875   6.713 -3.5384  2.2448  1.3414
  593MOL0     H80031   6.198   5.671   6.845 -2.2351 -0.2061 -2.7001
  593MOL0     H80032   6.170   5.776   6.988  0.4592  0.0073 -0.0351
  593MOL0     H80033   6.047   5.827   6.718 -2.4596  2.1419 -0.2846
  593MOL0     H80034   6.008   5.896   6.877 -0.0348 -0.6877  0.1352
  593MOL0     H80035   5.972   5.620   6.928  4.1010 -0.7984 -3.0247
  593MOL0     H80036   5.983   5.610   6.762 -2.0002 -1.0325  0.4341
  593MOL0     H80037   6.772   6.223   7.128  0.5834 -0.3796  0.0975
  593MOL0     H80038   6.884   6.332   7.329 -1.4582 -3.3426 -0.2808
  593MOL0     H80039   6.863   6.759   7.547  1.6352  1.8016 -0.6491
  593MOL0     H80040   7.032   6.904   7.642  1.8074  0.4649 -0.3687
  593MOL0     H80041   9.108   7.007   8.507 -1.7546 -2.2997 -0.9061
  593MOL0     H80042   9.166   6.982   8.755 -0.5941  1.1528  1.3744
  593MOL0     H80043   9.139   7.347   9.143  0.9267  0.7954  1.5281
  593MOL0     H80044   9.266   7.350   9.340  0.2849  0.8844 -0.1483
  593MOL0     H80045   9.486   7.242   9.481 -0.3754 -0.1807 -0.4420
  593MOL0     H80046   9.334   7.316   9.553 -1.7118 -1.6476  1.7978
  593MOL0     H80047   9.375   7.201   9.760 -1.5156  1.6170 -1.6395
  593MOL0     H80048   9.521   7.280   9.705  1.3428  1.8458 -4.7654
  593MOL0     H80049   9.601   7.074   9.598  0.3893  1.2504  1.0711
  593MOL0     H80050   9.467   6.982   9.666 -0.8321 -0.8075  3.6351
  593MOL0     H80051   9.568   7.143   9.892  1.2835 -0.7888 -0.6310
  593MOL0     H80052   9.705   7.076   9.820 -0.0285  1.9288 -3.1994
  593MOL0     H80053   9.491   6.736   9.981  2.5468 -0.2756  1.4692
  593MOL0     H80054   9.238   6.922   9.364  2.4341  0.6706 -0.1805
  593MOL0     H80055   9.110   6.928   9.148 -1.4038  1.5275 -3.5493
  594MOL0     O80056  10.186   5.108  10.224 -0.0334 -0.2806 -0.1958
  594MOL0     C80057  10.198   5.109  10.104 -0.1533  0.1192 -0.9131
  594MOL0     O80058  10.105   5.058  10.025 -0.1427  0.2523 -0.2896
  594MOL0     C80059   9.976   5.049  10.063 -0.2460 -0.4540  0.8019
  594MOL0     C80060   9.889   4.949  10.013 -0.1733  0.8889 -0.6800
  594MOL0     C80061   9.748   4.947  10.043 -0.8113 -0.5084  0.0588
  594MOL0     C80062   9.699   5.037  10.138 -0.8222  0.3690  0.5985
  594MOL0     O80063   9.569   5.035  10.171 -0.5221  0.3539  0.7257
  594MOL0     C80064   9.541   5.032  10.308 -0.1751  0.2125 -0.5152
  594MOL0     C80065   9.410   4.948  10.326 -0.7825 -0.8364 -0.3350
  594MOL0     C80066   9.392   4.898  10.468  0.0648 -0.6077 -0.1474
  594MOL0     C80067   9.250   4.835  10.478  0.4163 -0.1482 -0.4328
  594MOL0     C80068   9.238   4.762  10.617  0.5656  0.3764  0.7744
  594MOL0     C80069   9.098   4.704  10.631 -0.6831  0.0572 -0.3409
  594MOL0     C80070   9.081   4.655  10.774  0.3339 -0.6285 -0.0719
  594MOL0     C80071   8.930   4.624  10.810  0.0475 -0.4888 -0.2162
  594MOL0     N80072   8.859   4.754  10.847  0.6607  0.3851  0.5314
  594MOL0     C80073   8.747   4.802  10.785  0.7036  0.3654 -0.0082
  594MOL0     C80074   8.710   4.911  10.854  0.3407  0.2596 -0.0940
  594MOL0     C80075   8.595   5.002  10.828 -0.5993  0.5908 -0.2604
  594MOL0     C80076   8.497   5.009  10.943  0.1298 -0.4129 -0.4634
  594MOL0     C80077   8.386   5.095  10.889 -0.4437 -0.6653  0.5842
  594MOL0     C80078   8.263   5.102  10.981 -0.6360  0.0727 -0.7734
  594MOL0     O80079   8.152   5.154  10.913 -0.2419 -0.5008 -0.2062
  594MOL0     C80080   8.021   5.129  10.956  0.9386  0.0936 -0.2195
  594MOL0     C80081   7.983   5.058  11.068  0.6906  0.3844 -0.3346
  594MOL0     C80082   7.845   5.043  11.107  0.2071 -0.3657  0.4735
  594MOL0     C80083   7.816   4.943  11.216 -0.0573  0.1992  0.1307
  594MOL0     C80084   7.752   5.125  11.032 -1.3168  0.5780 -0.0276
  594MOL0     C80085   7.608   5.125  11.073  0.0824  0.1149  0.6419
  594MOL0     O80086   7.527   5.180  10.979  0.1262 -0.3945 -0.3634
  594MOL0     C80087   7.392   5.193  11.008 -0.6688  0.8387 -0.7738
  594MOL0     C80088   7.299   5.120  10.924 -1.5777 -0.6143 -0.5119
  594MOL0     C80089   7.163   5.132  10.941  0.0472  0.0150 -0.5393
  594MOL0     C80090   7.117   5.227  11.038  0.0557  0.3491  0.7175
  594MOL0     O80091   6.980   5.236  11.057 -0.6466 -0.3428  0.1048
  594MOL0     C80092   6.932   5.370  11.038  0.0650  0.5192 -0.5347
  594MOL0     C80093   6.790   5.387  11.094 -0.1304  0.2239 -0.0663
  594MOL0     C80094   6.730   5.528  11.058 -0.7910  0.7495 -0.0937
  594MOL0     C80095   6.587   5.534  11.077  1.0431 -0.0782  0.1022
  594MOL0     C80096   6.516   5.652  11.019 -0.7901 -0.2220 -0.2533
  594MOL0     C80097   6.362   5.660  11.015 -0.8452 -0.1613  0.5355
  594MOL0     C80098   6.290   5.598  11.138  0.1810  0.7995  0.4623
  594MOL0     C80099   6.139   5.608  11.110  0.2183  0.2719 -0.5524
  594MOL0    Cl80100   6.083   5.516  10.977 -0.2881  0.1185 -0.7698
  594MOL0     C80101   7.209   5.291  11.121 -0.8739  0.3969 -0.3219
  594MOL0     C80102   7.352   5.276  11.111  0.0454  0.0269 -0.5635
  594MOL0     O80103   7.569   5.082  11.182  0.3464  0.4802  0.6283
  594MOL0     C80104   7.793   5.196  10.928  0.8646 -0.4220  0.5760
  594MOL0     C80105   7.922   5.199  10.889 -0.3565  0.0066 -0.5793
  594MOL0     N80106   8.806   4.935  10.952  0.1378 -0.1285  0.0220
  594MOL0     N80107   8.890   4.836  10.955 -0.1598 -0.8976 -0.4414
  594MOL0     C80108   9.788   5.135  10.183 -0.2338  0.3887  0.1071
  594MOL0     C80109   9.916   5.142  10.141 -0.3328 -0.5200 -0.6230
  594MOL0     C80110  10.332   5.150  10.052 -0.0488  0.8328  0.2689
  594MOL0     C80111  10.448   5.146  10.137  0.4843 -0.2658  0.7543
  594MOL0     C80112  10.572   5.183  10.078 -0.2940 -0.4338  0.7745
  594MOL0     C80113  10.585   5.226   9.946 -0.5699  0.5500 -0.0403
  594MOL0     O80114  10.719   5.270   9.915  0.2492  0.6222 -0.2221
  594MOL0     C80115  10.743   5.354   9.803  0.3329 -1.0353 -0.1385
  594MOL0     C80116  10.892   5.405   9.792  0.9031 -0.2223  0.2476
  594MOL0     C80117  11.005   5.301   9.814  0.1733 -0.2782 -1.0579
  594MOL0     C80118  11.140   5.310   9.749  1.1215 -0.0023  0.8072
  594MOL0     C80119  11.138   5.199   9.651  0.1551  0.2428 -0.3650
  594MOL0     C80120  11.138   5.121   9.560  0.1335  0.4316 -0.6347
  594MOL0     C80121  10.473   5.224   9.861  0.1130  0.4556  0.5232
  594MOL0     C80122  10.352   5.184   9.910  0.1915 -0.1111 -0.8282
  594MOL0     H80123   9.921   4.871   9.944 -2.2618  1.2154 -2.1022
  594MOL0     H80124   9.680   4.872  10.002  0.9091 -1.7112 -0.7610
  594MOL0     H80125   9.615   4.975  10.364 -1.4430 -1.1906 -0.1691
  594MOL0     H80126   9.530   5.125  10.364 -1.8143  1.5619 -2.8649
  594MOL0     H80127   9.322   4.997  10.284 -0.6475 -0.4759 -0.1915
  594MOL0     H80128   9.414   4.859  10.261  0.8747 -1.1563  0.1776
  594MOL0     H80129   9.472   4.825  10.483  0.8551 -0.4778 -3.0150
  594MOL0     H80130   9.404   4.990  10.526 -0.6089 -0.5514 -0.0922
  594MOL0     H80131   9.175   4.914  10.470 -1.2997 -1.6417  0.2485
  594MOL0     H80132   9.244   4.765  10.394  0.0507  0.8286 -1.2450
  594MOL0     H80133   9.313   4.683  10.619  2.8591  2.4203  1.4273
  594MOL0     H80134   9.253   4.834  10.699 -0.2956 -2.2058  3.3854
  594MOL0     H80135   9.020   4.777  10.611 -1.3032 -0.7268 -0.8695
  594MOL0     H80136   9.084   4.624  10.558 -2.0141 -1.0900  1.0964
  594MOL0     H80137   9.136   4.561  10.782 -0.3027 -1.1247 -1.2067
  594MOL0     H80138   9.124   4.730  10.841 -1.7867 -0.5960  1.3281
  594MOL0     H80139   8.926   4.563  10.901 -0.4204 -1.2247 -0.7163
  594MOL0     H80140   8.881   4.582  10.721 -1.5641  2.5180 -0.8840
  594MOL0     H80141   8.691   4.763  10.701  0.1016 -0.4060  0.7225
  594MOL0     H80142   8.633   5.101  10.805 -0.3693  0.5025 -0.2607
  594MOL0     H80143   8.550   4.977  10.731 -3.7392  1.1188  0.9567
  594MOL0     H80144   8.547   5.054  11.029  0.0003 -0.6303 -0.2726
  594MOL0     H80145   8.452   4.914  10.976 -0.0029 -0.0447  0.4526
  594MOL0     H80146   8.355   5.051  10.794  1.0636  1.3657 -0.9600
  594MOL0     H80147   8.408   5.201  10.869 -2.9254 -0.1725  0.1538
  594MOL0     H80148   8.284   5.169  11.065 -1.0431 -1.0216  0.2230
  594MOL0     H80149   8.245   5.001  11.019  3.3552 -1.2414 -1.8502
  594MOL0     H80150   8.058   4.996  11.115 -1.1304 -0.4982  1.6091
  594MOL0     H80151   7.725   4.885  11.200 -0.4981  0.5393  1.3134
  594MOL0     H80152   7.897   4.870  11.226 -1.5372 -1.1962  2.8983
  594MOL0     H80153   7.793   5.009  11.300  0.5987  2.0529 -1.0748
  594MOL0     H80154   7.340   5.053  10.849 -1.0802  1.3037 -2.0524
  594MOL0     H80155   7.090   5.079  10.882 -0.9427  1.0863 -0.3052
  594MOL0     H80156   6.985   5.445  11.098  0.0548 -1.1712  1.7238
  594MOL0     H80157   6.937   5.406  10.935 -0.6668 -0.6544 -0.9871
  594MOL0     H80158   6.720   5.306  11.069  1.0951 -1.4543  1.6856
  594MOL0     H80159   6.795   5.370  11.202 -1.4370 -1.2234 -0.1912
  594MOL0     H80160   6.745   5.546  10.951  0.0414 -1.9302 -0.4945
  594MOL0     H80161   6.789   5.592  11.125 -0.0611 -3.1704  3.4682
  594MOL0     H80162   6.536   5.453  11.024 -0.6758 -1.1569  3.1682
  594MOL0     H80163   6.551   5.516  11.179  1.2428 -0.0637  0.1755
  594MOL0     H80164   6.558   5.663  10.918  2.5694  1.8965  1.1977
  594MOL0     H80165   6.554   5.741  11.069 -0.4770  0.7592 -2.1301
  594MOL0     H80166   6.330   5.763  11.001  0.5252  0.1909 -0.1212
  594MOL0     H80167   6.332   5.607  10.924 -0.9382  0.2212  0.3449
  594MOL0     H80168   6.319   5.650  11.230  0.7855  0.7370  0.3066
  594MOL0     H80169   6.307   5.490  11.144 -0.4103  0.6876  0.2207
  594MOL0     H80170   6.101   5.710  11.100  0.2070  0.2019 -1.2755
  594MOL0     H80171   6.086   5.567  11.197 -0.4129 -0.5824 -1.3132
  594MOL0     H80172   7.161   5.334  11.208  0.1751 -2.1144  1.6087
  594MOL0     H80173   7.426   5.331  11.167  0.1428 -1.3600  0.7246
  594MOL0     H80174   7.720   5.252  10.870 -0.4764 -1.6792  0.9934
  594MOL0     H80175   7.952   5.253  10.799  2.7162  1.4564  1.1463
  594MOL0     H80176   9.747   5.222  10.234  0.5415  0.4920  0.5648
  594MOL0     H80177   9.967   5.232  10.173  0.6515 -0.1976 -2.8919
  594MOL0     H80178  10.451   5.124  10.244  0.2524  1.6141  1.1812
  594MOL0     H80179  10.666   5.183  10.133 -0.0485 -1.1202  0.3767
  594MOL0     H80180  10.707   5.300   9.716 -2.9007  0.0642  0.3528
  594MOL0     H80181  10.682   5.445   9.814 -0.7055 -1.6171 -0.9710
  594MOL0     H80182  10.897   5.485   9.867  0.3605 -0.6138  0.7188
  594MOL0     H80183  10.903   5.449   9.692  1.1931  0.2599  0.4858
  594MOL0     H80184  10.957   5.203   9.816 -0.0687 -0.2277  3.1460
  594MOL0     H80185  11.029   5.316   9.919  1.6591 -0.2082 -1.3948
  594MOL0     H80186  11.217   5.279   9.820  2.8899 -0.9932 -1.4216
  594MOL0     H80187  11.149   5.413   9.713  1.2387  0.1717  1.3185
  594MOL0     H80188  11.131   5.073   9.464  0.0381  2.7337 -1.8649
  594MOL0     H80189  10.485   5.250   9.756  2.3194 -2.1054  0.0262
  594MOL0     H80190  10.271   5.176   9.838 -0.9897 -2.2620  0.6355
  595MOL0     O80191   0.559   2.612   6.268  0.2099 -0.1278  0.0522
  595MOL0     C80192   0.591   2.518   6.343 -0.8713  0.0823  0.6635
  595MOL0     O80193   0.508   2.468   6.440 -0.0295  0.5683  0.2506
  595MOL0     C80194   0.376   2.513   6.442  1.0422 -0.4830  0.5338
  595MOL0     C80195   0.340   2.647   6.461  0.5421  0.3672 -0.1473
  595MOL0     C80196   0.204   2.692   6.457 -0.8002 -0.5872 -0.7538
  595MOL0     C80197   0.101   2.603   6.449  0.4425 -0.2967  0.5461
  595MOL0     O80198  -0.024   2.656   6.445  0.4134 -1.3144 -0.1978
  595MOL0     C80199  -0.137   2.582   6.408 -0.4822 -0.6625  0.3093
  595MOL0     C80200  -0.240   2.672   6.344 -0.2112 -0.2054  0.1498
  595MOL0     C80201  -0.376   2.609   6.360 -0.7917  0.3567 -0.3122
  595MOL0     C80202  -0.435   2.634   6.500 -0.4834 -0.4459  0.8125
  595MOL0     C80203  -0.569   2.557   6.514 -0.5805  0.0346  0.5424
  595MOL0     C80204  -0.667   2.576   6.403 -0.2529 -0.1919 -0.1178
  595MOL0     C80205  -0.720   2.718   6.395  0.7586 -0.2733 -0.4028
  595MOL0     C80206  -0.826   2.736   6.501 -0.2804 -0.4786  0.4566
  595MOL0     N80207  -0.958   2.683   6.478  1.2010 -0.0641 -0.5197
  595MOL0     C80208  -1.041   2.723   6.374 -0.1280  0.0137  0.0206
  595MOL0     C80209  -1.167   2.701   6.426 -0.2399 -0.0870  0.1052
  595MOL0     C80210  -1.299   2.734   6.352 -0.1838 -1.1920 -0.8546
  595MOL0     C80211  -1.309   2.650   6.220 -1.1055  0.5772 -0.0704
  595MOL0     C80212  -1.302   2.500   6.256 -0.0674  1.0749 -0.6221
  595MOL0     C80213  -1.325   2.419   6.123 -0.6757  0.5656 -0.6176
  595MOL0     O80214  -1.296   2.274   6.141  0.4323  0.1486 -0.1133
  595MOL0     C80215  -1.378   2.184   6.191  0.0708  0.4550  0.1812
  595MOL0     C80216  -1.336   2.058   6.209 -0.1705 -0.2711  0.6861
  595MOL0     C80217  -1.419   1.950   6.253 -0.6807  0.2486 -1.0286
  595MOL0     C80218  -1.355   1.824   6.290  0.0893  0.0633  0.0116
  595MOL0     C80219  -1.558   1.979   6.271 -0.0712  0.0952 -0.5476
  595MOL0     C80220  -1.660   1.878   6.314  0.8391 -0.2190 -0.3110
  595MOL0     O80221  -1.629   1.742   6.307 -0.5050  0.3895  0.5001
  595MOL0     C80222  -1.715   1.640   6.344 -0.1931  0.0645  0.0357
  595MOL0     C80223  -1.660   1.509   6.325  0.1244  0.0111  0.5640
  595MOL0     C80224  -1.737   1.393   6.356 -0.0935 -0.2336  0.9493
  595MOL0     C80225  -1.871   1.401   6.397 -0.8127  0.5956 -0.9770
  595MOL0     O80226  -1.951   1.294   6.421 -0.0501 -0.8511  0.3198
  595MOL0     C80227  -1.893   1.159   6.407  0.2063 -0.1354 -0.4065
  595MOL0     C80228  -2.002   1.059   6.434 -0.7808  0.1910 -0.1272
  595MOL0     C80229  -2.125   1.071   6.343  0.0407  0.1064 -1.1276
  595MOL0     C80230  -2.237   0.970   6.381 -0.6270 -0.1136 -0.3037
  595MOL0     C80231  -2.343   0.982   6.273  0.3994 -0.1798 -0.5799
  595MOL0     C80232  -2.481   0.935   6.339  0.0768  0.1096  0.5293
  595MOL0     C80233  -2.589   0.888   6.235  0.8584 -0.0125 -0.3241
  595MOL0     C80234  -2.723   0.863   6.297 -0.2077 -0.5355  0.2964
  595MOL0    Cl80235  -2.778   1.005   6.389 -0.0348 -0.1112  0.0962
  595MOL0     C80236  -1.921   1.529   6.413  0.2474 -1.2433 -0.4428
  595MOL0     C80237  -1.843   1.644   6.388  1.1952 -0.0792 -0.1864
  595MOL0     O80238  -1.772   1.917   6.324  0.5747  0.4901 -0.6570
  595MOL0     C80239  -1.593   2.114   6.255 -0.5821 -0.1609  0.2308
  595MOL0     C80240  -1.509   2.210   6.217  0.2713 -0.4200  0.3694
  595MOL0     N80241  -1.156   2.618   6.539  0.8884  0.3096 -0.2601
  595MOL0     N80242  -1.030   2.608   6.562 -0.5595  0.0348 -0.9612
  595MOL0     C80243   0.137   2.462   6.445  0.2377  0.0048 -0.5893
  595MOL0     C80244   0.272   2.418   6.448 -0.1231  0.0822  0.7981
  595MOL0     C80245   0.733   2.483   6.344  0.5561  0.4626  0.1597
  595MOL0     C80246   0.792   2.423   6.457  0.0535  0.1858  0.2350
  595MOL0     C80247   0.931   2.410   6.453 -0.0144  0.6371  0.4791
  595MOL0     C80248   1.018   2.448   6.351 -1.2485  0.1654 -0.2931
  595MOL0     O80249   1.156   2.436   6.368  0.8386 -0.1049  0.5443
  595MOL0     C80250   1.239   2.468   6.257 -0.0391 -0.2412  1.1002
  595MOL0     C80251   1.382   2.462   6.296  0.7230  0.4418 -0.0221
  595MOL0     C80252   1.459   2.404   6.179  0.4915 -0.0698  0.1633
  595MOL0     C80253   1.603   2.354   6.211  0.1994 -0.6731  0.5286
  595MOL0     C80254   1.702   2.462   6.222  0.1716 -0.6725 -0.0564
  595MOL0     C80255   1.770   2.570   6.215  0.0561 -0.5184 -0.3954
  595MOL0     C80256   0.953   2.507   6.239 -0.1714  0.2102 -0.0070
  595MOL0     C80257   0.816   2.527   6.230  0.7325  0.7703 -0.1613
  595MOL0     H80258   0.423   2.717   6.471  0.7216 -0.1789  3.1991
  595MOL0     H80259   0.179   2.794   6.486 -0.1481 -0.8533  0.8843
  595MOL0     H80260  -0.112   2.508   6.332  2.0799  1.3081 -0.9154
  595MOL0     H80261  -0.177   2.534   6.498 -1.2912  1.1339  0.9561
  595MOL0     H80262  -0.225   2.778   6.367  1.1412 -0.7602  2.1023
  595MOL0     H80263  -0.222   2.667   6.236 -2.3233  0.1648 -0.2693
  595MOL0     H80264  -0.435   2.661   6.285 -1.6828  0.5949  0.5203
  595MOL0     H80265  -0.373   2.502   6.337 -1.2861 -0.2296  2.0500
  595MOL0     H80266  -0.358   2.617   6.576  2.7683 -1.0394 -2.3107
  595MOL0     H80267  -0.454   2.741   6.507 -1.7325 -0.6924  1.3518
  595MOL0     H80268  -0.539   2.452   6.507  2.8336  0.9122 -0.4270
  595MOL0     H80269  -0.610   2.580   6.613  0.8198 -1.6712  1.5788
  595MOL0     H80270  -0.618   2.540   6.312  0.8945 -0.5217  0.6089
  595MOL0     H80271  -0.747   2.510   6.436 -1.6434  1.5357  0.1448
  595MOL0     H80272  -0.638   2.788   6.413  0.4057 -0.7160  4.4891
  595MOL0     H80273  -0.778   2.737   6.304 -1.1770  1.1576  1.0233
  595MOL0     H80274  -0.835   2.844   6.518  0.6036  0.1050 -2.2444
  595MOL0     H80275  -0.792   2.692   6.596  1.1295 -1.2235 -0.3585
  595MOL0     H80276  -1.015   2.771   6.280 -0.4467 -0.5826 -0.3785
  595MOL0     H80277  -1.384   2.731   6.420 -1.5917  3.0112 -2.1333
  595MOL0     H80278  -1.286   2.840   6.326  2.5833 -0.9542  1.0621
  595MOL0     H80279  -1.233   2.687   6.151 -0.5464  0.5849  0.5346
  595MOL0     H80280  -1.405   2.667   6.171 -1.4888  0.0904  0.4982
  595MOL0     H80281  -1.388   2.476   6.321  1.4238  1.5315  1.6313
  595MOL0     H80282  -1.206   2.469   6.297 -1.4091 -2.5843  0.1314
  595MOL0     H80283  -1.253   2.456   6.050  0.1950 -0.2263 -0.1913
  595MOL0     H80284  -1.426   2.434   6.083 -0.7985  0.5178 -0.3258
  595MOL0     H80285  -1.232   2.036   6.187  0.5113  2.3487  0.9021
  595MOL0     H80286  -1.248   1.843   6.305 -0.4050  2.1623  1.3402
  595MOL0     H80287  -1.396   1.779   6.381 -0.1615  0.9563  0.3556
  595MOL0     H80288  -1.368   1.749   6.212  1.9700 -1.4624  1.0851
  595MOL0     H80289  -1.555   1.500   6.302  1.5803  3.5050  4.6099
  595MOL0     H80290  -1.698   1.292   6.348 -2.8422 -1.2405 -2.1890
  595MOL0     H80291  -1.857   1.150   6.304  2.0721  3.2681 -0.1935
  595MOL0     H80292  -1.806   1.143   6.472 -0.2584 -1.3895 -0.0664
  595MOL0     H80293  -1.970   0.954   6.435 -2.6302 -0.4352  2.5206
  595MOL0     H80294  -2.028   1.068   6.540 -0.8821  1.0712 -0.2253
  595MOL0     H80295  -2.100   1.050   6.239 -0.5947 -2.3703 -0.8357
  595MOL0     H80296  -2.174   1.169   6.353  1.3804  0.6641  0.4145
  595MOL0     H80297  -2.205   0.865   6.378 -1.0416 -0.2590  0.1636
  595MOL0     H80298  -2.274   0.984   6.483  1.5013 -1.0994  0.6622
  595MOL0     H80299  -2.318   0.909   6.195  0.2721  1.0737 -1.8391
  595MOL0     H80300  -2.365   1.071   6.214 -2.1949  0.0259  0.5529
  595MOL0     H80301  -2.455   0.841   6.390  0.9408  0.3327  0.5237
  595MOL0     H80302  -2.515   1.015   6.406  1.2110  1.8902 -0.9188
  595MOL0     H80303  -2.561   0.795   6.185  1.0162 -0.7738  1.1188
  595MOL0     H80304  -2.595   0.966   6.158  0.9968 -0.9455 -1.3038
  595MOL0     H80305  -2.703   0.782   6.368 -0.1906 -1.0517 -0.2908
  595MOL0     H80306  -2.793   0.847   6.214 -0.8242  1.2429  0.4375
  595MOL0     H80307  -2.020   1.552   6.452  0.3403  1.5426 -1.6555
  595MOL0     H80308  -1.900   1.735   6.401 -0.1832 -0.9987  0.4189
  595MOL0     H80309  -1.697   2.146   6.265 -0.5942 -0.0095 -0.3889
  595MOL0     H80310  -1.551   2.306   6.189 -1.8065 -1.2920  0.3049
  595MOL0     H80311   0.058   2.388   6.457 -0.2283  0.5197 -0.4319
  595MOL0     H80312   0.299   2.313   6.446 -1.0352 -0.1579 -1.2566
  595MOL0     H80313   0.742   2.390   6.548 -0.5130  1.5142  0.4203
  595MOL0     H80314   0.973   2.357   6.538 -2.2760 -2.2267 -0.0254
  595MOL0     H80315   1.219   2.404   6.170  0.1180  3.3066 -1.7492
  595MOL0     H80316   1.216   2.568   6.221 -1.8275 -0.6351  1.0705
  595MOL0     H80317   1.393   2.388   6.376  1.6768  1.2593  0.6257
  595MOL0     H80318   1.420   2.561   6.320  0.0165  0.5365  0.7367
  595MOL0     H80319   1.458   2.478   6.100  3.1272 -2.2119 -2.0815
  595MOL0     H80320   1.401   2.317   6.146 -5.0486  3.0415  0.4761
  595MOL0     H80321   1.630   2.277   6.139 -0.8362  0.2101 -0.8523
  595MOL0     H80322   1.597   2.294   6.302 -1.5748 -0.8862  0.3042
  595MOL0     H80323   1.821   2.664   6.212 -1.1577  0.1520 -2.0860
  595MOL0     H80324   1.006   2.536   6.148  1.7996 -0.3224  0.9073
  595MOL0     H80325   0.763   2.559   6.141 -0.2402 -0.1068  0.0796
  596MOL0     O80326   2.665   1.791   8.760  0.4376 -0.4437 -0.1597
  596MOL0     C80327   2.699   1.684   8.717 -0.3502 -0.4100  0.2221
  596MOL0     O80328   2.626   1.570   8.723 -0.1514 -0.2293 -0.3455
  596MOL0     C80329   2.498   1.575   8.777 -0.8600  0.5126 -0.5190
  596MOL0     C80330   2.402   1.673   8.758  0.6446  0.9470 -1.2340
  596MOL0     C80331   2.274   1.659   8.816  0.0432 -0.2653 -0.3438
  596MOL0     C80332   2.248   1.555   8.909 -0.4610 -0.2612  0.7767
  596MOL0     O80333   2.111   1.542   8.935 -0.0649 -0.4470 -0.3399
  596MOL0     C80334   2.066   1.406   8.941  0.0418 -0.1059  0.6154
  596MOL0     C80335   2.051   1.356   8.804 -0.1557  0.7424  0.7857
  596MOL0     C80336   2.014   1.213   8.814 -0.3701  1.1509 -0.5687
  596MOL0     C80337   1.963   1.160   8.685 -0.6158  0.1646 -0.3904
  596MOL0     C80338   1.813   1.176   8.664  0.2956 -0.7688  0.4614
  596MOL0     C80339   1.759   1.118   8.527 -0.7426 -0.6600 -0.5073
  596MOL0     C80340   1.615   1.157   8.519 -0.3239 -0.0527  0.9075
  596MOL0     C80341   1.563   1.092   8.400  0.7978  0.0980  0.2500
  596MOL0     N80342   1.424   1.099   8.391 -0.4696 -0.6739  0.0506
  596MOL0     C80343   1.362   1.222   8.379  0.2443 -0.0836  0.9148
  596MOL0     C80344   1.231   1.197   8.355 -0.3001  0.0081 -0.3538
  596MOL0     C80345   1.113   1.285   8.337  0.1075 -0.4054  0.9585
  596MOL0     C80346   1.077   1.346   8.200  0.7155 -0.1377  1.3224
  596MOL0     C80347   1.020   1.497   8.203 -0.2493  0.0575 -0.7225
  596MOL0     C80348   0.879   1.509   8.251  0.0747  0.0039 -0.7072
  596MOL0     O80349   0.860   1.492   8.397  0.5435  0.1998  0.0695
  596MOL0     C80350   0.747   1.419   8.425  0.0121  0.6935  0.8201
  596MOL0     C80351   0.753   1.319   8.514 -0.6098  0.9212  0.0496
  596MOL0     C80352   0.639   1.262   8.576  0.2235 -0.3098  0.4828
  596MOL0     C80353   0.653   1.169   8.693  0.2780  0.0995  0.4396
  596MOL0     C80354   0.512   1.304   8.529  1.7583 -0.3845 -0.4440
  596MOL0     C80355   0.388   1.264   8.594  0.7165  0.2853 -0.0527
  596MOL0     O80356   0.384   1.141   8.660  0.3994 -0.1134 -0.0562
  596MOL0     C80357   0.281   1.105   8.735 -0.4315  0.0894  0.2651
  596MOL0     C80358   0.276   1.189   8.854  0.3453  0.3432  1.0113
  596MOL0     C80359   0.184   1.156   8.954  0.4628  1.1800 -0.5129
  596MOL0     C80360   0.093   1.042   8.939 -0.4012 -0.6001 -0.8683
  596MOL0     O80361   0.016   1.026   9.052 -0.4805  0.2123 -0.3011
  596MOL0     C80362  -0.010   0.888   9.086  0.2979 -0.5617 -0.3342
  596MOL0     C80363  -0.053   0.889   9.232 -0.2613 -0.2936 -0.6861
  596MOL0     C80364  -0.199   0.936   9.255 -0.3870 -0.7814  0.2843
  596MOL0     C80365  -0.316   0.837   9.220  0.6710 -0.0554 -0.3644
  596MOL0     C80366  -0.448   0.884   9.278  0.6578 -0.9563 -1.1286
  596MOL0     C80367  -0.577   0.800   9.259 -0.6655 -0.5318  0.1700
  596MOL0     C80368  -0.620   0.779   9.115 -0.5637  0.2324  0.0119
  596MOL0     C80369  -0.737   0.672   9.105 -0.0362  0.2340 -0.0996
  596MOL0    Cl80370  -0.827   0.707   8.957  0.0426  0.0350 -0.1685
  596MOL0     C80371   0.084   0.976   8.813 -0.1529 -0.3113 -0.6782
  596MOL0     C80372   0.189   1.001   8.719  0.0457 -0.7185  0.5913
  596MOL0     O80373   0.296   1.346   8.593  0.2416  0.2317  0.0211
  596MOL0     C80374   0.503   1.399   8.419  0.3703 -0.0192  0.7628
  596MOL0     C80375   0.618   1.455   8.373 -0.4679 -0.8355  0.6678
  596MOL0     N80376   1.215   1.060   8.356  0.2783  0.6464  0.0527
  596MOL0     N80377   1.330   1.000   8.383 -0.1293  0.3261  0.1042
  596MOL0     C80378   2.357   1.471   8.938  0.3296 -0.1114 -0.2775
  596MOL0     C80379   2.468   1.475   8.872 -0.5695 -0.3572  0.4142
  596MOL0     C80380   2.833   1.669   8.659 -0.2693  0.0972  0.0057
  596MOL0     C80381   2.921   1.761   8.689  0.6559  0.2725 -0.0519
  596MOL0     C80382   3.057   1.741   8.664 -0.5151 -0.1813  0.4700
  596MOL0     C80383   3.110   1.621   8.615  0.2640  0.2220  0.4065
  596MOL0     O80384   3.246   1.612   8.589  0.3349 -1.0795  0.9096
  596MOL0     C80385   3.296   1.475   8.579  0.0321  0.1657 -0.0486
  596MOL0     C80386   3.447   1.479   8.559  0.4800  0.8290  0.1172
  596MOL0     C80387   3.523   1.525   8.678 -0.2641  0.1275  0.4820
  596MOL0     C80388   3.681   1.544   8.645  0.2436 -0.2276  0.1519
  596MOL0     C80389   3.732   1.644   8.743 -0.2794 -0.9782  0.4232
  596MOL0     C80390   3.783   1.738   8.797 -0.0576  0.1514  0.0422
  596MOL0     C80391   3.010   1.524   8.584 -0.0039  0.3600  0.4525
  596MOL0     C80392   2.878   1.543   8.611  0.8126 -0.0907  1.0916
  596MOL0     H80393   2.427   1.756   8.693  3.0972  0.2886 -1.2479
  596MOL0     H80394   2.205   1.738   8.788  0.9570  0.2745 -1.1251
  596MOL0     H80395   2.127   1.344   9.007 -1.2960 -1.2641  0.8058
  596MOL0     H80396   1.965   1.416   8.982 -0.8890 -0.2115 -1.5019
  596MOL0     H80397   1.970   1.399   8.744 -1.8480 -2.5429  0.4679
  596MOL0     H80398   2.144   1.357   8.748 -0.7564 -0.8099 -0.3135
  596MOL0     H80399   2.107   1.166   8.845 -0.3538  1.1435 -0.6305
  596MOL0     H80400   1.936   1.195   8.889 -0.5775  2.6431 -0.3829
  596MOL0     H80401   2.024   1.214   8.612 -0.5857  0.4649 -0.1422
  596MOL0     H80402   2.001   1.057   8.684  0.5392  0.5665 -1.5397
  596MOL0     H80403   1.767   1.124   8.749  0.0915 -0.6305  0.4381
  596MOL0     H80404   1.792   1.283   8.672  0.4066 -0.5814 -1.2979
  596MOL0     H80405   1.820   1.157   8.445  0.8966 -1.4437  0.2765
  596MOL0     H80406   1.770   1.009   8.530  1.3620 -0.5152 -1.0328
  596MOL0     H80407   1.564   1.126   8.611 -0.8859 -0.9904  0.3043
  596MOL0     H80408   1.609   1.264   8.499  2.2438 -0.2486 -1.5444
  596MOL0     H80409   1.578   0.983   8.399 -0.4357 -0.1145 -2.5969
  596MOL0     H80410   1.609   1.124   8.306 -1.4518 -1.7586 -1.5930
  596MOL0     H80411   1.401   1.323   8.383 -0.4872  0.2787 -0.4322
  596MOL0     H80412   1.034   1.221   8.377  1.0427 -2.2920 -0.0830
  596MOL0     H80413   1.128   1.367   8.409 -0.5918  1.6384 -1.1015
  596MOL0     H80414   1.000   1.287   8.150  1.8595 -1.2120  0.7699
  596MOL0     H80415   1.162   1.340   8.132 -0.9600  0.9776 -1.0125
  596MOL0     H80416   1.027   1.535   8.101 -1.6733  2.4061 -0.0285
  596MOL0     H80417   1.084   1.559   8.268 -0.5042  0.3481 -0.7481
  596MOL0     H80418   0.819   1.438   8.193  3.7908 -2.0331 -2.3696
  596MOL0     H80419   0.846   1.609   8.221  1.9146 -0.2583 -4.1102
  596MOL0     H80420   0.854   1.293   8.543  1.6782  5.1435 -2.9275
  596MOL0     H80421   0.759   1.174   8.717  0.6254  2.3450 -1.2332
  596MOL0     H80422   0.598   1.200   8.782  2.6995  0.3422  1.9321
  596MOL0     H80423   0.618   1.071   8.660 -1.3874 -0.0317  2.3987
  596MOL0     H80424   0.353   1.266   8.862  1.9094 -0.7595 -2.1104
  596MOL0     H80425   0.173   1.223   9.038  4.3484  2.4751 -0.8354
  596MOL0     H80426  -0.104   0.870   9.032 -0.3964  2.2521 -0.2215
  596MOL0     H80427   0.072   0.823   9.053 -0.0913 -0.9652 -0.5289
  596MOL0     H80428  -0.044   0.787   9.271  0.0261 -0.3337 -0.8604
  596MOL0     H80429   0.017   0.943   9.296 -0.6123  1.2899 -1.5761
  596MOL0     H80430  -0.218   1.034   9.209 -0.6069 -1.3693 -0.9160
  596MOL0     H80431  -0.215   0.968   9.358  0.1488  0.4044  0.0225
  596MOL0     H80432  -0.320   0.836   9.111 -0.2415 -1.3908 -0.3376
  596MOL0     H80433  -0.289   0.739   9.260 -0.7485  0.1440  1.1780
  596MOL0     H80434  -0.473   0.980   9.232 -2.1069 -1.7359 -1.4423
  596MOL0     H80435  -0.436   0.886   9.386 -1.6455  0.1394 -0.8379
  596MOL0     H80436  -0.557   0.708   9.314  1.1371  1.5926  3.4001
  596MOL0     H80437  -0.661   0.845   9.314  0.2962  0.5124  0.8388
  596MOL0     H80438  -0.528   0.759   9.059  3.3846  0.1492  5.6660
  596MOL0     H80439  -0.655   0.872   9.068 -3.3866  0.5229  2.4090
  596MOL0     H80440  -0.799   0.668   9.195  2.5143  2.0766  1.8728
  596MOL0     H80441  -0.687   0.577   9.086  2.2955  1.2492  0.6182
  596MOL0     H80442   0.021   0.889   8.800 -0.9504 -0.1583  1.7159
  596MOL0     H80443   0.203   0.947   8.626  0.0583  2.1710 -1.2060
  596MOL0     H80444   0.408   1.429   8.377  2.1114  1.3907 -2.5656
  596MOL0     H80445   0.626   1.535   8.300  0.8483  2.7580  4.4169
  596MOL0     H80446   2.339   1.397   9.015  0.5859  2.0231  1.9370
  596MOL0     H80447   2.549   1.404   8.889 -0.1194 -0.4018 -1.5958
  596MOL0     H80448   2.901   1.848   8.751 -1.1038 -0.5638  0.6194
  596MOL0     H80449   3.121   1.828   8.671  0.1537 -0.7623  1.7173
  596MOL0     H80450   3.273   1.411   8.664 -1.5925 -3.4371 -2.9606
  596MOL0     H80451   3.253   1.436   8.486  2.3710  0.5780 -1.4111
  596MOL0     H80452   3.463   1.545   8.473  0.9045  1.0995  0.3977
  596MOL0     H80453   3.482   1.376   8.549  1.1028  1.0211  0.2174
  596MOL0     H80454   3.513   1.460   8.765  0.8317 -2.5458 -1.2906
  596MOL0     H80455   3.482   1.626   8.691 -0.3672  0.2737 -0.8435
  596MOL0     H80456   3.705   1.540   8.538  1.3450 -4.9164  0.3589
  596MOL0     H80457   3.718   1.448   8.681  2.0432 -1.0362 -3.4293
  596MOL0     H80458   3.841   1.812   8.848  1.8650 -1.1441 -0.1847
  596MOL0     H80459   3.043   1.433   8.536 -0.3401  0.5104 -0.0831
  596MOL0     H80460   2.801   1.472   8.584  0.9564  0.7933 -2.0766
  597MOL0     O80461   0.884   2.547   9.572  0.1555  0.6491  0.0331
  597MOL0     C80462   1.003   2.516   9.587  0.3555 -0.7875 -0.2229
  597MOL0     O80463   1.082   2.451   9.502 -0.0762  0.6005  0.5565
  597MOL0     C80464   1.036   2.403   9.376  0.0721  0.2714 -0.8274
  597MOL0     C80465   1.124   2.399   9.267  0.0777  0.1236 -0.2764
  597MOL0     C80466   1.083   2.329   9.153 -0.5860  0.3762  0.3162
  597MOL0     C80467   0.957   2.276   9.140 -0.2310  0.7142  0.1430
  597MOL0     O80468   0.937   2.203   9.023  0.1488  0.1010 -0.3923
  597MOL0     C80469   0.828   2.119   9.013  0.7227  0.6124  0.4232
  597MOL0     C80470   0.716   2.179   8.925 -0.7326 -0.4919 -0.8796
  597MOL0     C80471   0.585   2.124   8.975  0.4941 -0.4513 -0.1093
  597MOL0     C80472   0.470   2.176   8.882  0.3222 -0.2860 -0.3962
  597MOL0     C80473   0.338   2.160   8.957 -0.1494 -0.1218  0.3106
  597MOL0     C80474   0.210   2.151   8.870  0.4613  0.4666  0.2408
  597MOL0     C80475   0.075   2.148   8.949 -0.1208  0.0447  0.2894
  597MOL0     C80476  -0.041   2.181   8.851 -0.0862 -0.2823  0.0160
  597MOL0     N80477  -0.168   2.156   8.919 -0.2543  0.3804  0.0418
  597MOL0     C80478  -0.269   2.244   8.952  0.7750  0.1272  0.3972
  597MOL0     C80479  -0.375   2.150   8.972 -0.5285  0.2202 -0.7107
  597MOL0     C80480  -0.512   2.191   8.995  1.5254 -0.0165  0.3342
  597MOL0     C80481  -0.564   2.287   8.889 -0.4701 -0.6983 -0.6013
  597MOL0     C80482  -0.711   2.305   8.902 -0.2505  0.0932  0.1607
  597MOL0     C80483  -0.763   2.364   9.030 -0.3669 -0.1650 -0.7729
  597MOL0     O80484  -0.825   2.265   9.122 -0.7711  0.3749 -0.1235
  597MOL0     C80485  -0.952   2.215   9.087  0.2142  0.0617 -0.1238
  597MOL0     C80486  -1.004   2.105   9.148 -0.2348  0.1056  0.2023
  597MOL0     C80487  -1.125   2.049   9.103 -0.2826  0.1350 -0.4875
  597MOL0     C80488  -1.175   1.926   9.189  0.1265 -0.1947 -0.4981
  597MOL0     C80489  -1.191   2.101   8.994 -0.1452 -0.4978 -0.6535
  597MOL0     C80490  -1.313   2.049   8.940  0.4241  0.5296  0.5342
  597MOL0     O80491  -1.327   1.921   8.940  0.1930  0.4958  0.7832
  597MOL0     C80492  -1.452   1.869   8.942  0.2123  0.1374 -0.4524
  597MOL0     C80493  -1.544   1.909   9.038 -0.2769 -1.4601 -0.6300
  597MOL0     C80494  -1.670   1.856   9.031  0.6216 -0.5610  0.8627
  597MOL0     C80495  -1.706   1.763   8.930  0.4198 -0.5501 -0.0638
  597MOL0     O80496  -1.825   1.697   8.922  0.1109 -0.2779  0.1494
  597MOL0     C80497  -1.929   1.717   9.028  1.0717  0.3511 -0.3799
  597MOL0     C80498  -2.042   1.612   9.006 -0.0397  0.5854 -0.2381
  597MOL0     C80499  -2.122   1.662   8.888 -0.5738 -0.0554 -0.7645
  597MOL0     C80500  -2.215   1.559   8.831  0.1704  0.0861  0.5732
  597MOL0     C80501  -2.307   1.599   8.710 -0.2673  0.2787 -0.8014
  597MOL0     C80502  -2.420   1.507   8.683 -1.1607  0.0234  0.3574
  597MOL0     C80503  -2.500   1.548   8.565  0.2815 -1.1257  0.3682
  597MOL0     C80504  -2.609   1.450   8.537  0.3006  0.3206  0.2376
  597MOL0    Cl80505  -2.698   1.495   8.396  0.4546  0.7486 -0.1318
  597MOL0     C80506  -1.613   1.720   8.842 -0.0219 -0.4837 -0.8263
  597MOL0     C80507  -1.486   1.774   8.841 -0.0896  0.1633  0.8680
  597MOL0     O80508  -1.392   2.125   8.887  0.3384  0.2141  0.7386
  597MOL0     C80509  -1.144   2.224   8.935  0.5592 -0.9196 -0.3935
  597MOL0     C80510  -1.029   2.281   8.981 -0.7118  0.3393  0.6685
  597MOL0     N80511  -0.337   2.021   8.962 -0.0075 -0.2125  0.9183
  597MOL0     N80512  -0.205   2.021   8.936 -0.2626 -0.8057  0.3959
  597MOL0     C80513   0.866   2.293   9.238  0.8701  1.0564 -1.0382
  597MOL0     C80514   0.902   2.356   9.361 -0.3842  0.7555  0.4966
  597MOL0     C80515   1.061   2.553   9.718 -0.2876  0.1622 -0.3954
  597MOL0     C80516   1.017   2.674   9.777 -0.6801  0.4158 -0.2993
  597MOL0     C80517   1.090   2.727   9.892 -0.5954 -0.5352 -0.6126
  597MOL0     C80518   1.186   2.650   9.960  0.9213  0.8593 -0.4560
  597MOL0     O80519   1.241   2.697  10.078  0.1850 -0.3170  0.2198
  597MOL0     C80520   1.358   2.635  10.137  0.4062  0.4523  0.4405
  597MOL0     C80521   1.487   2.653  10.053 -0.4803 -0.0201  0.4578
  597MOL0     C80522   1.587   2.540  10.067 -0.1634  0.5375 -0.4249
  597MOL0     C80523   1.670   2.547  10.201  0.1846 -0.5883  1.1335
  597MOL0     C80524   1.747   2.674  10.218 -0.3133  0.5572 -0.0242
  597MOL0     C80525   1.808   2.783  10.234 -0.4782 -0.1516  1.1055
  597MOL0     C80526   1.207   2.519   9.907 -0.1400  0.3613  0.0637
  597MOL0     C80527   1.147   2.471   9.793  0.2832  0.4027 -0.5111
  597MOL0     H80528   1.226   2.434   9.280  0.3846 -0.7771 -0.1839
  597MOL0     H80529   1.157   2.324   9.074  1.0138  0.6804  1.7354
  597MOL0     H80530   0.861   2.032   8.955 -0.5823 -0.2294  0.9045
  597MOL0     H80531   0.796   2.077   9.109  1.9364 -1.9220 -0.1932
  597MOL0     H80532   0.721   2.286   8.949 -2.8056 -0.5859  0.1897
  597MOL0     H80533   0.730   2.169   8.817  0.5716 -0.4773 -0.7292
  597MOL0     H80534   0.587   2.014   8.972 -0.3359 -0.4656 -0.3441
  597MOL0     H80535   0.566   2.156   9.078  0.8018 -3.4952  1.0077
  597MOL0     H80536   0.478   2.284   8.865  4.0040  0.4322  4.0201
  597MOL0     H80537   0.468   2.116   8.791 -1.8526  1.1327 -1.3667
  597MOL0     H80538   0.344   2.069   9.018 -1.8247 -1.2299 -1.0682
  597MOL0     H80539   0.325   2.243   9.027  0.6607  0.1863  0.1056
  597MOL0     H80540   0.204   2.244   8.812 -2.0077 -0.1194 -0.5457
  597MOL0     H80541   0.229   2.075   8.793  0.3115  1.1931 -0.5245
  597MOL0     H80542   0.068   2.049   8.994 -0.0063 -1.0726 -1.9721
  597MOL0     H80543   0.078   2.221   9.030 -1.9962 -0.5543  0.9713
  597MOL0     H80544  -0.025   2.118   8.763  0.2953 -0.7316  0.3969
  597MOL0     H80545  -0.042   2.289   8.836 -0.4743 -0.1394  0.9637
  597MOL0     H80546  -0.261   2.352   8.956 -0.2494  0.1978  0.6655
  597MOL0     H80547  -0.570   2.098   8.999 -0.5489  1.1621 -0.6317
  597MOL0     H80548  -0.527   2.236   9.093  1.6983 -3.2508  1.9800
  597MOL0     H80549  -0.543   2.243   8.791  1.1436  2.3920 -1.7930
  597MOL0     H80550  -0.511   2.383   8.892 -1.6797 -0.0352  1.7069
  597MOL0     H80551  -0.768   2.214   8.883 -0.0292 -0.0690  0.2772
  597MOL0     H80552  -0.737   2.364   8.814 -2.3007 -0.0862  0.5976
  597MOL0     H80553  -0.827   2.450   9.009  0.7507  0.8629 -0.0997
  597MOL0     H80554  -0.681   2.416   9.080  0.7713 -1.0718 -1.6494
  597MOL0     H80555  -0.941   2.053   9.219  1.2876  0.4772 -0.8289
  597MOL0     H80556  -1.135   1.923   9.291 -0.2582  2.4390 -0.2050
  597MOL0     H80557  -1.284   1.931   9.195  0.1801 -0.3685  0.9944
  597MOL0     H80558  -1.158   1.830   9.140 -3.4051 -1.6743  0.7974
  597MOL0     H80559  -1.517   1.970   9.123 -1.7991  2.0186 -2.4489
  597MOL0     H80560  -1.732   1.882   9.116  3.0983 -0.2444  2.6859
  597MOL0     H80561  -1.881   1.696   9.124 -1.4431 -0.9580  0.6702
  597MOL0     H80562  -1.967   1.818   9.042 -1.5379 -0.9453  2.9991
  597MOL0     H80563  -1.986   1.521   8.982 -0.2561  0.0380  1.2406
  597MOL0     H80564  -2.103   1.588   9.094  1.3827  1.8340  1.1549
  597MOL0     H80565  -2.055   1.690   8.807  2.4607 -2.6423  0.6418
  597MOL0     H80566  -2.193   1.742   8.912 -0.4003  0.1736 -1.0148
  597MOL0     H80567  -2.171   1.462   8.806  1.3074  0.7723 -0.1818
  597MOL0     H80568  -2.280   1.521   8.910  1.1101 -3.0658 -0.0249
  597MOL0     H80569  -2.240   1.607   8.625  1.4604  1.7138  0.6012
  597MOL0     H80570  -2.343   1.702   8.724  0.4941  0.6185 -1.2746
  597MOL0     H80571  -2.380   1.406   8.674  2.4812  1.2590  1.0227
  597MOL0     H80572  -2.486   1.510   8.770 -3.9667 -3.8611 -1.3280
  597MOL0     H80573  -2.432   1.563   8.481 -0.1146  0.1143  0.2445
  597MOL0     H80574  -2.553   1.641   8.589  0.3692 -1.1936  0.8372
  597MOL0     H80575  -2.674   1.441   8.624  1.4219  1.8346  1.2799
  597MOL0     H80576  -2.567   1.351   8.518 -0.7490  0.2123 -1.7731
  597MOL0     H80577  -1.649   1.651   8.767 -3.1284  0.2150 -0.1609
  597MOL0     H80578  -1.414   1.755   8.762  3.0658  1.4650  3.2036
  597MOL0     H80579  -1.200   2.274   8.856 -0.4649  1.3285  1.6307
  597MOL0     H80580  -0.994   2.370   8.929  0.1935 -1.4431 -1.9895
  597MOL0     H80581   0.761   2.265   9.232  0.6055  1.6976  0.2003
  597MOL0     H80582   0.832   2.351   9.444  1.6254 -1.5979  2.2148
  597MOL0     H80583   0.952   2.741   9.722 -0.3857 -0.0280 -1.2077
  597MOL0     H80584   1.071   2.826   9.932 -1.9621 -1.0491  0.0843
  597MOL0     H80585   1.378   2.689  10.231 -1.6571  2.0849  0.0319
  597MOL0     H80586   1.349   2.528  10.155  1.6123  0.2648  0.0285
  597MOL0     H80587   1.535   2.751  10.060 -0.4644 -0.1596  2.8368
  597MOL0     H80588   1.459   2.651   9.947  0.8359  2.2669  0.0019
  597MOL0     H80589   1.654   2.533   9.980 -1.7019  1.0457 -1.6904
  597MOL0     H80590   1.531   2.446  10.070  2.2455 -0.9593  2.3719
  597MOL0     H80591   1.731   2.456  10.196  0.1118 -0.6107  0.5152
  597MOL0     H80592   1.596   2.538  10.281 -0.6523 -0.5539  0.3859
  597MOL0     H80593   1.853   2.880  10.236 -1.2063  0.2686 -0.5419
  597MOL0     H80594   1.271   2.454   9.966  2.9374  0.4755 -2.8322
  597MOL0     H80595   1.164   2.368   9.763 -4.4944 -1.1942  1.2865
  598MOL0     O80596   4.256   7.450   6.663  0.8398  0.8839 -0.2692
  598MOL0     C80597   4.211   7.566   6.661 -0.1612  0.0114 -1.3738
  598MOL0     O80598   4.079   7.596   6.690 -0.1128 -0.2364  0.4499
  598MOL0     C80599   3.994   7.501   6.747  0.3218 -0.4115 -0.1645
  598MOL0     C80600   3.989   7.362   6.725  0.7050  0.4082 -0.0028
  598MOL0     C80601   3.881   7.286   6.758 -0.1944  0.2157 -0.0583
  598MOL0     C80602   3.774   7.344   6.828  0.1719  0.5476  0.6920
  598MOL0     O80603   3.661   7.270   6.848  0.1831  0.0858 -0.3378
  598MOL0     C80604   3.586   7.315   6.967  0.6863  0.7302 -1.2362
  598MOL0     C80605   3.448   7.258   6.968  1.0006 -0.5120 -0.7456
  598MOL0     C80606   3.354   7.334   6.876  0.9916 -0.9282  0.0724
  598MOL0     C80607   3.286   7.470   6.922 -0.0102 -0.3180 -0.2520
  598MOL0     C80608   3.175   7.513   6.828  0.3618  0.5528  0.1092
  598MOL0     C80609   3.130   7.658   6.876 -0.8495  0.1758 -0.0840
  598MOL0     C80610   2.981   7.684   6.851 -0.5311  0.0317  0.7792
  598MOL0     C80611   2.896   7.624   6.970 -0.3868 -0.3030 -1.0171
  598MOL0     N80612   2.754   7.615   6.938  0.8541  0.0761 -0.9016
  598MOL0     C80613   2.661   7.701   6.889 -0.6395  0.6038  0.3729
  598MOL0     C80614   2.543   7.637   6.881 -0.3899 -0.1474  0.2912
  598MOL0     C80615   2.410   7.692   6.832 -0.4695 -0.2014  0.2139
  598MOL0     C80616   2.311   7.758   6.934 -0.2467  0.3319  0.1963
  598MOL0     C80617   2.167   7.763   6.876 -0.2595 -0.8713 -0.2423
  598MOL0     C80618   2.087   7.877   6.938  0.2401 -0.3732 -0.0472
  598MOL0     O80619   2.073   7.874   7.075  0.4070 -0.4544 -0.1260
  598MOL0     C80620   1.959   7.939   7.126  0.2461 -0.3157  0.3467
  598MOL0     C80621   1.950   7.927   7.263 -0.7172  0.4075  0.5873
  598MOL0     C80622   1.845   7.978   7.336  0.7829 -0.0625 -0.3479
  598MOL0     C80623   1.859   7.982   7.482  0.3358  0.2367 -0.3674
  598MOL0     C80624   1.742   8.053   7.271 -0.0258  0.0558  1.0510
  598MOL0     C80625   1.632   8.127   7.339 -0.3700  0.0516  0.0719
  598MOL0     O80626   1.601   8.126   7.474 -0.0270  0.5044 -0.2312
  598MOL0     C80627   1.471   8.167   7.504 -0.7291 -1.3390 -0.9486
  598MOL0     C80628   1.350   8.134   7.446  0.2257  0.4802  0.6216
  598MOL0     C80629   1.234   8.190   7.502  0.0799  0.0288 -0.4771
  598MOL0     C80630   1.232   8.277   7.604 -0.8824  0.8133  0.4436
  598MOL0     O80631   1.110   8.331   7.628 -0.3292  0.6249 -0.3395
  598MOL0     C80632   1.092   8.381   7.753  0.7876 -0.1045 -0.0140
  598MOL0     C80633   0.966   8.451   7.755  1.1249 -0.0621  0.1473
  598MOL0     C80634   0.857   8.352   7.710 -0.4315 -0.0213 -0.3167
  598MOL0     C80635   0.720   8.393   7.760  0.7631 -0.4553  1.0864
  598MOL0     C80636   0.628   8.289   7.698  0.0228 -0.0898  0.2901
  598MOL0     C80637   0.483   8.313   7.730  0.0275 -0.1013 -0.4982
  598MOL0     C80638   0.401   8.227   7.626 -0.4377 -0.5012  0.1993
  598MOL0     C80639   0.422   8.076   7.636 -0.1772 -1.4485 -0.0359
  598MOL0    Cl80640   0.396   8.010   7.789 -0.1125 -0.5260  0.0513
  598MOL0     C80641   1.345   8.307   7.668  0.5309  0.4384 -0.2983
  598MOL0     C80642   1.461   8.251   7.617 -0.4176  0.7269 -0.0430
  598MOL0     O80643   1.572   8.198   7.260 -0.0228 -0.0211  0.0046
  598MOL0     C80644   1.755   8.068   7.121  1.0905  1.0963 -1.4224
  598MOL0     C80645   1.860   8.011   7.055  0.7842  0.0775  0.5079
  598MOL0     N80646   2.565   7.509   6.938  0.1862 -0.5261  0.6107
  598MOL0     N80647   2.689   7.503   6.971  0.1039  0.0683  0.3008
  598MOL0     C80648   3.780   7.482   6.859  0.3746  1.0302 -0.6747
  598MOL0     C80649   3.883   7.558   6.811 -0.3843  0.0564  0.0137
  598MOL0     C80650   4.311   7.680   6.658  0.2467  0.3555 -0.7735
  598MOL0     C80651   4.438   7.661   6.604  0.1390  0.9896 -1.0033
  598MOL0     C80652   4.545   7.757   6.615 -0.3247 -0.1356  0.1401
  598MOL0     C80653   4.515   7.884   6.668 -0.0387  0.8623  0.1608
  598MOL0     O80654   4.607   7.988   6.692  0.2268  0.0308 -0.3203
  598MOL0     C80655   4.749   7.970   6.656  0.0946  0.2267 -0.1895
  598MOL0     C80656   4.835   8.089   6.704  0.7050 -0.2280  0.0376
  598MOL0     C80657   4.794   8.139   6.849  0.2406  0.4356  0.3730
  598MOL0     C80658   4.856   8.268   6.893  0.1151 -1.4782 -0.2810
  598MOL0     C80659   4.987   8.249   6.953 -0.5771  0.1526 -0.1670
  598MOL0     C80660   5.098   8.252   6.996 -0.9612  0.5298  0.2924
  598MOL0     C80661   4.387   7.894   6.721 -0.3844 -0.3383 -0.4408
  598MOL0     C80662   4.280   7.801   6.706 -0.3745 -0.0142  0.1771
  598MOL0     H80663   4.065   7.319   6.660  1.7061  0.3241  1.1876
  598MOL0     H80664   3.866   7.190   6.710 -0.8054  1.3840 -2.3864
  598MOL0     H80665   3.633   7.281   7.060  2.2040  2.7706 -1.1860
  598MOL0     H80666   3.571   7.423   6.974 -0.1227  0.5563 -0.2061
  598MOL0     H80667   3.449   7.154   6.934 -1.7527 -1.3396  1.3609
  598MOL0     H80668   3.412   7.262   7.071 -1.2767  0.1301 -1.5153
  598MOL0     H80669   3.404   7.360   6.782  2.0448  0.2128  0.9070
  598MOL0     H80670   3.269   7.267   6.860  1.4682 -1.7301  0.8170
  598MOL0     H80671   3.247   7.456   7.023  4.1545 -1.4802  1.4260
  598MOL0     H80672   3.364   7.547   6.923  0.2897 -0.6216  0.9071
  598MOL0     H80673   3.215   7.516   6.726  0.9419  2.9278  0.3420
  598MOL0     H80674   3.103   7.431   6.833  0.3821  0.5128 -0.2196
  598MOL0     H80675   3.159   7.669   6.981 -0.7296  0.5708 -0.1583
  598MOL0     H80676   3.179   7.730   6.810  0.4685 -0.4866  0.1339
  598MOL0     H80677   2.957   7.790   6.846  1.1987  0.3860 -2.0850
  598MOL0     H80678   2.952   7.632   6.759  1.7815  1.9627 -1.1407
  598MOL0     H80679   2.908   7.683   7.061 -1.1129 -1.9549  0.1980
  598MOL0     H80680   2.914   7.522   7.006 -2.0573 -1.6008 -3.5307
  598MOL0     H80681   2.683   7.794   6.836  3.0282 -1.5221 -2.2802
  598MOL0     H80682   2.430   7.768   6.756  1.4875  1.9975  2.7223
  598MOL0     H80683   2.353   7.609   6.790 -1.4482  1.9080 -2.8804
  598MOL0     H80684   2.344   7.860   6.957 -1.0365  1.0741 -1.7443
  598MOL0     H80685   2.316   7.698   7.026  2.1150 -1.3194 -0.9112
  598MOL0     H80686   2.119   7.670   6.907  0.3351 -0.8849  0.6639
  598MOL0     H80687   2.168   7.763   6.767  0.6971  1.2688 -0.2906
  598MOL0     H80688   1.992   7.865   6.884  0.1141  0.3520 -0.0036
  598MOL0     H80689   2.127   7.975   6.911  2.2931 -0.6701  1.6190
  598MOL0     H80690   2.034   7.880   7.312  0.7813  0.9041 -1.3572
  598MOL0     H80691   1.800   7.920   7.550  0.0982  2.0633  1.1962
  598MOL0     H80692   1.964   7.958   7.503  0.3081  1.5571  1.5970
  598MOL0     H80693   1.855   8.085   7.519  0.3158  0.1295 -0.0639
  598MOL0     H80694   1.359   8.074   7.356  2.1191 -1.0247  1.7294
  598MOL0     H80695   1.145   8.150   7.455 -0.9676 -0.0458  1.4805
  598MOL0     H80696   1.086   8.296   7.821  3.5650  1.5596  2.5969
  598MOL0     H80697   1.167   8.452   7.791  1.3338  0.5674 -2.1779
  598MOL0     H80698   0.946   8.484   7.857  0.2672 -0.0759 -0.0056
  598MOL0     H80699   0.969   8.538   7.689 -0.0486  0.5111  0.8085
  598MOL0     H80700   0.891   8.253   7.743 -1.6320 -0.3700 -0.0755
  598MOL0     H80701   0.862   8.341   7.602  3.1250  1.8511 -0.5135
  598MOL0     H80702   0.721   8.396   7.869 -1.5725  3.4101  1.1777
  598MOL0     H80703   0.701   8.496   7.731  2.2231 -0.6861 -0.9365
  598MOL0     H80704   0.659   8.190   7.733  1.0688 -0.4248 -1.4319
  598MOL0     H80705   0.639   8.284   7.589  3.4920 -1.8787  0.5758
  598MOL0     H80706   0.469   8.285   7.835  0.5736 -0.0341 -0.4057
  598MOL0     H80707   0.454   8.419   7.724 -1.2395 -0.4199 -0.3078
  598MOL0     H80708   0.435   8.255   7.526 -0.9061  0.6454  0.3427
  598MOL0     H80709   0.296   8.258   7.630 -0.1843  0.4882 -0.3745
  598MOL0     H80710   0.527   8.059   7.609  0.7836  2.9394  0.2158
  598MOL0     H80711   0.354   8.025   7.567 -0.4765  1.3825 -1.9987
  598MOL0     H80712   1.351   8.374   7.752  1.1471 -0.4470  0.3877
  598MOL0     H80713   1.545   8.275   7.682 -0.4682 -0.8675  0.6606
  598MOL0     H80714   1.682   8.116   7.058  0.6188 -1.7232 -3.1742
  598MOL0     H80715   1.861   8.019   6.947 -0.2632 -0.7946  0.4170
  598MOL0     H80716   3.697   7.538   6.901  0.0327  0.9781 -1.2766
  598MOL0     H80717   3.897   7.662   6.839  1.5998  0.1160 -1.0544
  598MOL0     H80718   4.452   7.560   6.567 -0.5090  0.7114 -0.5284
  598MOL0     H80719   4.643   7.733   6.575 -0.7589 -1.2281 -0.3130
  598MOL0     H80720   4.782   7.877   6.703  1.1020  0.8098  0.3055
  598MOL0     H80721   4.757   7.968   6.547 -1.7886  3.3931 -0.5362
  598MOL0     H80722   4.831   8.173   6.635  0.4349 -1.5998 -1.6760
  598MOL0     H80723   4.941   8.064   6.707  0.7541  0.0005  1.9942
  598MOL0     H80724   4.821   8.058   6.917 -1.0666 -2.0729 -1.8984
  598MOL0     H80725   4.685   8.138   6.855  0.1917 -1.9588  0.0066
  598MOL0     H80726   4.791   8.304   6.974 -0.0153 -0.5083 -0.8074
  598MOL0     H80727   4.846   8.345   6.816 -1.1061 -1.7244 -0.3872
  598MOL0     H80728   5.191   8.244   7.047  0.2022  2.8820 -1.2523
  598MOL0     H80729   4.354   7.991   6.755  2.2732 -0.2406  2.3058
  598MOL0     H80730   4.180   7.836   6.724  0.4292  2.3561  0.3607
  599MOL0     O80731   1.766   1.813   8.865 -0.0121 -0.4881  0.5038
  599MOL0     C80732   1.846   1.775   8.783 -0.6640  0.5106 -0.8699
  599MOL0     O80733   1.828   1.669   8.699 -0.1533 -0.0184  0.2057
  599MOL0     C80734   1.724   1.583   8.725 -0.1361  0.0637 -0.0792
  599MOL0     C80735   1.717   1.501   8.842 -0.3029 -0.6666 -0.0466
  599MOL0     C80736   1.613   1.420   8.866 -0.1494  0.2492  0.3771
  599MOL0     C80737   1.512   1.401   8.764 -0.7173  0.1519  0.0633
  599MOL0     O80738   1.408   1.318   8.785 -0.5057  0.2705  0.0770
  599MOL0     C80739   1.349   1.338   8.912 -0.1063 -0.5727 -0.2020
  599MOL0     C80740   1.215   1.279   8.905  0.5382  0.1069  0.2422
  599MOL0     C80741   1.219   1.133   8.894 -0.3341  0.2827  0.0528
  599MOL0     C80742   1.128   1.074   8.793  0.0341 -0.5770  0.2912
  599MOL0     C80743   1.093   0.931   8.822 -0.3590  0.2019 -0.4491
  599MOL0     C80744   1.199   0.828   8.815 -0.3751  0.7326  0.2239
  599MOL0     C80745   1.154   0.689   8.868 -0.3264  0.4219  0.5033
  599MOL0     C80746   1.174   0.676   9.020 -0.3054 -0.5161  0.4813
  599MOL0     N80747   1.070   0.600   9.090 -0.1440  0.6390  0.1197
  599MOL0     C80748   1.055   0.468   9.072  0.2971 -0.3440 -0.0309
  599MOL0     C80749   0.932   0.439   9.123 -0.1785  1.7250 -0.2563
  599MOL0     C80750   0.863   0.306   9.131  0.6877 -0.8898 -0.0170
  599MOL0     C80751   0.793   0.268   9.002  0.7094  0.0004 -0.3467
  599MOL0     C80752   0.668   0.349   8.968 -0.0949  0.0882 -1.1605
  599MOL0     C80753   0.603   0.309   8.841 -0.2728 -0.3621  0.2084
  599MOL0     O80754   0.497   0.407   8.816 -0.3101  0.9067 -0.0290
  599MOL0     C80755   0.386   0.409   8.893  0.5471 -0.0471  0.1026
  599MOL0     C80756   0.343   0.306   8.980 -0.3400 -0.6357  0.0818
  599MOL0     C80757   0.220   0.313   9.050  0.2115  0.2583 -0.1947
  599MOL0     C80758   0.176   0.197   9.131 -0.0683  0.8766  0.5011
  599MOL0     C80759   0.139   0.421   9.038  0.9820  0.1616 -1.1417
  599MOL0     C80760   0.003   0.442   9.101 -0.6271  0.2336  0.4688
  599MOL0     O80761  -0.079   0.336   9.117  0.1377 -0.4975  0.7974
  599MOL0     C80762  -0.208   0.365   9.166 -0.5550 -0.8676 -0.0875
  599MOL0     C80763  -0.237   0.306   9.291  0.3439 -0.6347 -0.0928
  599MOL0     C80764  -0.365   0.306   9.338  0.3121 -0.1313  0.7014
  599MOL0     C80765  -0.467   0.360   9.256  0.0899 -0.6721 -0.0568
  599MOL0     O80766  -0.597   0.362   9.291  0.7854  0.5033 -0.8558
  599MOL0     C80767  -0.661   0.262   9.383  0.7103  0.4513 -0.2561
  599MOL0     C80768  -0.696   0.138   9.307 -0.2055 -0.4495  0.0926
  599MOL0     C80769  -0.813   0.151   9.208 -0.1947  1.0265 -0.0987
  599MOL0     C80770  -0.945   0.148   9.279 -0.0678  0.2204 -0.0486
  599MOL0     C80771  -1.071   0.154   9.184 -0.3938 -0.3049  0.0627
  599MOL0     C80772  -1.200   0.106   9.259  0.0127  0.4514 -0.3996
  599MOL0     C80773  -1.297   0.018   9.185  0.9333 -0.2305 -0.5297
  599MOL0     C80774  -1.425  -0.025   9.257  0.2022  0.0557 -0.2622
  599MOL0    Cl80775  -1.389  -0.149   9.378  0.2785  0.3176 -0.2971
  599MOL0     C80776  -0.436   0.423   9.142 -0.1530 -0.0328 -0.0387
  599MOL0     C80777  -0.302   0.421   9.091  0.5225 -0.9032  0.5070
  599MOL0     O80778  -0.018   0.556   9.144 -0.0676 -0.5509 -0.2068
  599MOL0     C80779   0.185   0.531   8.958 -0.3916  0.4242  0.1300
  599MOL0     C80780   0.305   0.520   8.885  1.4718  0.5492 -0.1165
  599MOL0     N80781   0.884   0.557   9.181 -0.5554 -0.1059 -0.3511
  599MOL0     N80782   0.969   0.652   9.157 -0.6159  0.0233 -0.2516
  599MOL0     C80783   1.532   1.467   8.647  0.5778 -0.2738  0.0001
  599MOL0     C80784   1.627   1.568   8.624 -0.9967 -0.3190  0.1352
  599MOL0     C80785   1.950   1.868   8.762  0.9767 -0.0861 -0.2324
  599MOL0     C80786   1.987   1.954   8.863  0.0769 -0.9158  1.1895
  599MOL0     C80787   2.077   2.058   8.843 -0.0813  0.4087 -0.8212
  599MOL0     C80788   2.141   2.066   8.725 -0.3240 -0.7297  0.2338
  599MOL0     O80789   2.241   2.167   8.716  0.5040  0.1266 -0.8695
  599MOL0     C80790   2.368   2.120   8.670 -0.3647  0.3168  0.3547
  599MOL0     C80791   2.447   2.233   8.604 -0.6185  0.6169  0.8111
  599MOL0     C80792   2.364   2.302   8.490 -0.5150 -0.9908  0.4290
  599MOL0     C80793   2.273   2.220   8.399  0.4998 -0.6202  0.8822
  599MOL0     C80794   2.329   2.096   8.343  0.8513  1.1017  0.2942
  599MOL0     C80795   2.381   1.987   8.317 -0.0836  0.5312 -0.3246
  599MOL0     C80796   2.117   1.971   8.624  0.0609  0.6572  0.4138
  599MOL0     C80797   2.026   1.866   8.643 -0.0444 -0.4992  0.1415
  599MOL0     H80798   1.787   1.521   8.923  1.8701 -3.1425 -1.2014
  599MOL0     H80799   1.619   1.362   8.957 -1.0711 -1.7695 -0.7773
  599MOL0     H80800   1.409   1.286   8.987 -1.5672  0.9078  2.1252
  599MOL0     H80801   1.345   1.445   8.933 -0.2307 -0.9776  2.1845
  599MOL0     H80802   1.145   1.309   8.983 -1.6524  0.6313 -1.7853
  599MOL0     H80803   1.167   1.308   8.811  2.4184 -0.6150 -0.9881
  599MOL0     H80804   1.322   1.099   8.877 -0.6929 -1.8385  1.7516
  599MOL0     H80805   1.189   1.097   8.993 -0.7292 -0.4722 -0.3331
  599MOL0     H80806   1.030   1.121   8.802 -1.2324 -3.2249  1.4827
  599MOL0     H80807   1.168   1.086   8.691  0.8053 -0.7443  0.5658
  599MOL0     H80808   1.053   0.928   8.924  1.1416  0.6945  0.1918
  599MOL0     H80809   1.005   0.904   8.764 -1.0319  1.3998 -0.0046
  599MOL0     H80810   1.231   0.835   8.710 -0.7338  1.3164  0.1542
  599MOL0     H80811   1.294   0.857   8.861  0.1729 -0.5914 -0.0236
  599MOL0     H80812   1.050   0.673   8.838 -0.1283 -0.1030  0.0616
  599MOL0     H80813   1.214   0.606   8.829  1.0516  0.8469  1.6517
  599MOL0     H80814   1.173   0.778   9.058 -1.9982  0.7686 -2.5851
  599MOL0     H80815   1.276   0.639   9.025  1.3992  2.7897 -3.5514
  599MOL0     H80816   1.119   0.403   9.013  2.5376  1.7597 -0.1194
  599MOL0     H80817   0.936   0.231   9.164  1.1284 -0.1264  0.7931
  599MOL0     H80818   0.791   0.307   9.213 -1.0570  3.0461 -1.3572
  599MOL0     H80819   0.751   0.168   9.016 -1.1450  1.0570  2.8172
  599MOL0     H80820   0.869   0.293   8.928 -0.5184  0.1108 -1.6021
  599MOL0     H80821   0.683   0.458   8.967 -1.0045  0.2325 -0.7028
  599MOL0     H80822   0.599   0.328   9.051  0.4583 -0.1066 -0.7493
  599MOL0     H80823   0.567   0.206   8.854  0.2286 -0.4752  0.7495
  599MOL0     H80824   0.667   0.311   8.753 -2.2633 -0.0997 -1.3045
  599MOL0     H80825   0.406   0.220   8.999  2.2562  0.8893 -1.0774
  599MOL0     H80826   0.082   0.154   9.096 -0.5059  0.6202  1.9271
  599MOL0     H80827   0.245   0.112   9.121 -1.2281 -0.3050  2.0561
  599MOL0     H80828   0.162   0.228   9.235  2.4730 -1.8197  1.8084
  599MOL0     H80829  -0.166   0.243   9.343 -0.2559 -1.4744 -0.2543
  599MOL0     H80830  -0.393   0.275   9.438 -0.4541  2.1909  1.2656
  599MOL0     H80831  -0.589   0.233   9.461 -0.5366 -2.2122 -0.0044
  599MOL0     H80832  -0.755   0.304   9.420 -0.5169 -1.4940 -1.0371
  599MOL0     H80833  -0.604   0.113   9.253 -1.2741 -0.9978 -1.5647
  599MOL0     H80834  -0.708   0.050   9.372 -1.6996 -0.8554 -0.6668
  599MOL0     H80835  -0.792   0.065   9.144  3.0663  2.4989 -1.2150
  599MOL0     H80836  -0.804   0.247   9.156  1.5317  1.9042  1.6754
  599MOL0     H80837  -0.939   0.061   9.344  2.4013  0.0616 -0.3719
  599MOL0     H80838  -0.952   0.227   9.355  0.3077 -0.5379  0.7886
  599MOL0     H80839  -1.044   0.092   9.098 -0.2452  1.1079 -0.9334
  599MOL0     H80840  -1.082   0.257   9.150  0.2838 -0.0752  0.5224
  599MOL0     H80841  -1.184   0.051   9.352 -1.5406 -1.7377 -1.3442
  599MOL0     H80842  -1.256   0.200   9.271 -1.8793 -0.6125 -0.6016
  599MOL0     H80843  -1.250  -0.074   9.148 -1.8462 -1.4421 -1.2715
  599MOL0     H80844  -1.342   0.080   9.107  2.4844  0.3390 -1.0241
  599MOL0     H80845  -1.494  -0.077   9.190  0.7706 -2.7120  1.1585
  599MOL0     H80846  -1.476   0.059   9.305  1.1312  0.3817  0.1740
  599MOL0     H80847  -0.512   0.463   9.076  0.8519 -1.7777 -2.3841
  599MOL0     H80848  -0.268   0.458   8.995 -1.4185  0.1013  0.1523
  599MOL0     H80849   0.126   0.622   8.950 -0.1009  0.5649 -0.5035
  599MOL0     H80850   0.331   0.602   8.819  1.1555  0.8578  0.1374
  599MOL0     H80851   1.463   1.449   8.565  0.4258 -0.5006  0.1779
  599MOL0     H80852   1.638   1.626   8.533  0.4788 -0.2620  0.3241
  599MOL0     H80853   1.950   1.966   8.964  1.2390  1.5422  1.4065
  599MOL0     H80854   2.082   2.136   8.918  0.3440  2.1360 -2.5821
  599MOL0     H80855   2.416   2.092   8.764  1.4555 -1.0621 -0.9090
  599MOL0     H80856   2.359   2.031   8.607 -0.2717 -1.8725  3.2309
  599MOL0     H80857   2.547   2.203   8.572 -1.4050 -0.3711 -0.8327
  599MOL0     H80858   2.459   2.308   8.683  1.9886  0.3982  0.6940
  599MOL0     H80859   2.432   2.360   8.427  0.6104  0.9168  3.1885
  599MOL0     H80860   2.310   2.388   8.530 -1.4782 -0.6400 -1.5236
  599MOL0     H80861   2.241   2.284   8.316  4.7300  0.7665  0.1068
  599MOL0     H80862   2.175   2.197   8.442 -1.1443  0.6936 -1.8843
  599MOL0     H80863   2.430   1.893   8.301 -2.0094 -0.4544 -0.8197
  599MOL0     H80864   2.173   1.967   8.531  0.5620  0.0434  0.7286
  599MOL0     H80865   2.020   1.784   8.571  1.1248 -1.3303  0.9510
  600MOL0     O80866   1.128  11.097   5.531  0.5495 -0.8676  0.0024
  600MOL0     C80867   1.223  11.156   5.472  0.0931  0.6402 -0.7982
  600MOL0     O80868   1.229  11.192   5.340 -1.0113 -0.1435  0.1101
  600MOL0     C80869   1.108  11.195   5.276  0.0902  0.3658  0.2718
  600MOL0     C80870   1.025  11.301   5.297  0.0270  0.2040 -1.0333
  600MOL0     C80871   0.911  11.311   5.220 -0.1308  0.1697 -0.3016
  600MOL0     C80872   0.874  11.209   5.130 -0.0661 -1.0467  0.4344
  600MOL0     O80873   0.755  11.226   5.060 -0.2764 -0.5384 -0.4081
  600MOL0     C80874   0.722  11.131   4.963 -0.0703 -0.3559  0.1588
  600MOL0     C80875   0.623  11.185   4.856  0.9375 -0.3157 -0.5689
  600MOL0     C80876   0.487  11.221   4.917  0.3636 -0.6581 -0.1905
  600MOL0     C80877   0.375  11.268   4.821  0.1401  0.5461 -0.0381
  600MOL0     C80878   0.411  11.414   4.786  0.2883 -0.8411  0.7518
  600MOL0     C80879   0.340  11.462   4.649  0.2228 -0.7060 -0.3611
  600MOL0     C80880   0.188  11.440   4.639  0.6084  0.0975 -0.4724
  600MOL0     C80881   0.122  11.496   4.762 -0.1489 -0.4302  1.2124
  600MOL0     N80882  -0.018  11.496   4.744 -0.1947  0.1489  0.2280
  600MOL0     C80883  -0.090  11.612   4.759 -0.2909  0.3616 -0.8621
  600MOL0     C80884  -0.211  11.593   4.700 -0.3048 -0.6279 -0.5835
  600MOL0     C80885  -0.326  11.694   4.699 -0.2406  0.4606  0.1600
  600MOL0     C80886  -0.358  11.763   4.562 -0.6467 -0.5667  0.0749
  600MOL0     C80887  -0.403  11.679   4.449  0.1348  0.7487 -0.4854
  600MOL0     C80888  -0.542  11.608   4.465 -0.4682  0.1366  0.1227
  600MOL0     O80889  -0.646  11.704   4.507 -0.8010 -0.7272  0.5393
  600MOL0     C80890  -0.776  11.661   4.528  0.1517 -0.2158  0.0006
  600MOL0     C80891  -0.807  11.530   4.548 -0.3881  0.2401 -0.1453
  600MOL0     C80892  -0.940  11.497   4.539  0.2451  0.7283 -0.2335
  600MOL0     C80893  -0.969  11.345   4.524 -0.4058  0.1808 -0.2973
  600MOL0     C80894  -1.047  11.595   4.536 -0.3431 -0.1240  0.1910
  600MOL0     C80895  -1.191  11.571   4.535 -0.1464  0.0549  0.1937
  600MOL0     O80896  -1.247  11.471   4.459 -0.1160  0.1006  0.2627
  600MOL0     C80897  -1.382  11.467   4.442  0.8104  0.2009  0.3026
  600MOL0     C80898  -1.468  11.424   4.547  0.0377  0.0099  0.6774
  600MOL0     C80899  -1.596  11.389   4.516  0.3982 -0.0968 -0.5105
  600MOL0     C80900  -1.650  11.406   4.386  0.4631  0.3080  0.2062
  600MOL0     O80901  -1.782  11.383   4.366  0.5079 -0.1228 -0.6345
  600MOL0     C80902  -1.875  11.442   4.452 -0.0346 -0.1913 -0.3548
  600MOL0     C80903  -2.007  11.415   4.383  0.5599  0.7858 -0.6040
  600MOL0     C80904  -2.123  11.456   4.468  0.2284  0.0737  0.1922
  600MOL0     C80905  -2.265  11.403   4.430 -0.4000  0.5312  1.2866
  600MOL0     C80906  -2.374  11.484   4.500  0.0570  0.0747 -0.4106
  600MOL0     C80907  -2.507  11.416   4.460  1.0977  0.4421 -0.4744
  600MOL0     C80908  -2.636  11.473   4.521  0.2541 -0.7678 -0.4211
  600MOL0     C80909  -2.634  11.480   4.672 -0.1567  1.1869 -0.1458
  600MOL0    Cl80910  -2.771  11.579   4.719  0.5689  0.4682  0.0921
  600MOL0     C80911  -1.573  11.459   4.279 -0.0346 -1.3651 -0.1202
  600MOL0     C80912  -1.436  11.484   4.314  0.4589  0.1479  0.8143
  600MOL0     O80913  -1.249  11.649   4.602 -0.6555  0.3358 -0.3957
  600MOL0     C80914  -1.004  11.725   4.550 -0.7873 -0.0867  0.9534
  600MOL0     C80915  -0.874  11.758   4.529  0.8686 -0.9047  0.5467
  600MOL0     N80916  -0.212  11.463   4.651 -0.3282 -0.2617 -0.7079
  600MOL0     N80917  -0.092  11.409   4.685  0.4822  0.1713  0.5848
  600MOL0     C80918   0.960  11.098   5.128  1.4538 -0.0227  0.0079
  600MOL0     C80919   1.080  11.082   5.200  0.0949 -1.0059 -0.2977
  600MOL0     C80920   1.331  11.189   5.559  0.7633  0.5225 -0.6272
  600MOL0     C80921   1.444  11.239   5.509 -0.3201  0.3080  0.1843
  600MOL0     C80922   1.551  11.275   5.590  0.4402  0.1780  0.4007
  600MOL0     C80923   1.537  11.287   5.725 -0.5636  0.8840 -0.5423
  600MOL0     O80924   1.634  11.336   5.814  0.0817 -0.5083 -0.1215
  600MOL0     C80925   1.765  11.314   5.780  0.5333 -0.2930  0.9605
  600MOL0     C80926   1.832  11.440   5.715  0.4726 -0.1799  0.3738
  600MOL0     C80927   1.962  11.402   5.639  0.1337 -0.1698 -0.2038
  600MOL0     C80928   2.062  11.330   5.740 -0.4149 -0.4328  0.1963
  600MOL0     C80929   2.201  11.348   5.704 -0.7043  0.3525 -0.4682
  600MOL0     C80930   2.318  11.349   5.669 -0.1323  0.0070 -0.3068
  600MOL0     C80931   1.416  11.247   5.780  0.3072 -0.2424  0.1083
  600MOL0     C80932   1.320  11.188   5.704 -0.2577 -0.1789  0.3413
  600MOL0     H80933   1.042  11.384   5.364  0.3770  0.6233 -1.6286
  600MOL0     H80934   0.842  11.392   5.238 -0.3224 -0.6978  3.6902
  600MOL0     H80935   0.813  11.100   4.910 -0.7008  0.4973 -1.4826
  600MOL0     H80936   0.698  11.034   5.007 -1.4067  0.1881  0.6899
  600MOL0     H80937   0.667  11.272   4.806 -0.1231  0.6125  0.0650
  600MOL0     H80938   0.601  11.103   4.787 -4.0985  1.7317 -1.8548
  600MOL0     H80939   0.446  11.132   4.967 -1.8896 -1.0495 -2.5267
  600MOL0     H80940   0.505  11.307   4.983  1.5752  1.9954 -3.6783
  600MOL0     H80941   0.378  11.201   4.735 -2.1138 -3.4459  2.6797
  600MOL0     H80942   0.277  11.251   4.867  0.6650  2.5132  2.0265
  600MOL0     H80943   0.376  11.484   4.863  1.0662  0.5788 -0.1300
  600MOL0     H80944   0.517  11.438   4.774  0.2307 -0.3019  1.2312
  600MOL0     H80945   0.363  11.568   4.638 -0.2221  0.1725  4.6592
  600MOL0     H80946   0.392  11.418   4.564  1.6361 -0.1521  0.1853
  600MOL0     H80947   0.149  11.480   4.545 -1.4190 -1.0186 -0.1773
  600MOL0     H80948   0.171  11.332   4.628  3.8190 -0.3440 -2.3232
  600MOL0     H80949   0.164  11.594   4.787  1.3719 -0.9755  0.8741
  600MOL0     H80950   0.138  11.433   4.849 -2.6751 -2.3604  0.4105
  600MOL0     H80951  -0.050  11.699   4.810 -2.2263  1.0354 -0.4013
  600MOL0     H80952  -0.414  11.635   4.725 -0.9486  1.6690  0.5599
  600MOL0     H80953  -0.310  11.781   4.764  0.9383  0.0778  0.4189
  600MOL0     H80954  -0.261  11.802   4.529 -1.0220 -0.0486 -0.4453
  600MOL0     H80955  -0.420  11.852   4.582 -1.7064 -0.6685 -2.3399
  600MOL0     H80956  -0.328  11.607   4.415  1.3674  0.5544  2.4451
  600MOL0     H80957  -0.418  11.744   4.362 -4.9434  1.7201  0.7643
  600MOL0     H80958  -0.540  11.529   4.540 -2.3122  0.4458  0.5275
  600MOL0     H80959  -0.573  11.559   4.372 -1.2279  0.5704  0.1355
  600MOL0     H80960  -0.723  11.464   4.535 -0.5303  0.2103 -0.9476
  600MOL0     H80961  -0.951  11.302   4.624 -1.2008 -1.1876 -0.7070
  600MOL0     H80962  -1.070  11.321   4.490 -0.0449 -0.9351 -0.6245
  600MOL0     H80963  -0.896  11.286   4.469 -0.5001 -2.3822  2.0996
  600MOL0     H80964  -1.433  11.399   4.647  1.1538  0.9435  0.5466
  600MOL0     H80965  -1.655  11.352   4.599  1.5713 -1.0962 -0.0858
  600MOL0     H80966  -1.870  11.396   4.552 -0.1267 -1.0194 -0.7173
  600MOL0     H80967  -1.852  11.548   4.466 -1.1743 -0.2073  2.2610
  600MOL0     H80968  -2.001  11.455   4.281  5.0908 -0.8003 -1.2014
  600MOL0     H80969  -2.026  11.309   4.368 -0.0231  0.8796 -0.5442
  600MOL0     H80970  -2.113  11.565   4.461 -0.4411  0.1646  0.5020
  600MOL0     H80971  -2.103  11.415   4.568  1.6897 -2.1121 -0.9155
  600MOL0     H80972  -2.275  11.412   4.322 -0.3304 -1.2572  1.1156
  600MOL0     H80973  -2.268  11.297   4.457  1.3449 -0.2956 -1.4384
  600MOL0     H80974  -2.374  11.587   4.465 -1.5151  0.8359  1.6337
  600MOL0     H80975  -2.363  11.486   4.609 -0.1635  0.3114 -0.3937
  600MOL0     H80976  -2.520  11.428   4.352 -2.1727  0.5525 -0.1833
  600MOL0     H80977  -2.510  11.308   4.481  1.0256  0.3674 -0.8412
  600MOL0     H80978  -2.720  11.408   4.495 -0.3800 -1.2223  2.4389
  600MOL0     H80979  -2.654  11.572   4.477 -2.7697  0.2558  2.6276
  600MOL0     H80980  -2.548  11.535   4.712 -0.2105 -0.5608  2.6822
  600MOL0     H80981  -2.636  11.376   4.706  0.9128  0.7085 -1.4556
  600MOL0     H80982  -1.601  11.482   4.177 -0.4776 -0.3672  0.2145
  600MOL0     H80983  -1.371  11.514   4.232 -3.0550  1.0135 -1.9320
  600MOL0     H80984  -1.068  11.812   4.562  0.5826  0.8490  1.7899
  600MOL0     H80985  -0.851  11.863   4.518 -1.0087 -0.6169 -1.0862
  600MOL0     H80986   0.928  11.012   5.069 -0.2454  1.5595 -1.4890
  600MOL0     H80987   1.150  11.001   5.182 -1.6736 -2.7501  0.2694
  600MOL0     H80988   1.454  11.242   5.401 -0.2450  0.5385  0.1971
  600MOL0     H80989   1.639  11.310   5.537 -0.6610  2.0796 -0.2947
  600MOL0     H80990   1.818  11.299   5.874  2.2918  1.6463  0.3807
  600MOL0     H80991   1.769  11.220   5.725  1.2239  0.8376 -1.0577
  600MOL0     H80992   1.858  11.503   5.801  1.5866 -3.1300  2.3487
  600MOL0     H80993   1.761  11.486   5.647  0.7755 -2.7981 -1.8793
  600MOL0     H80994   2.012  11.495   5.609 -3.0263  1.8540  0.3237
  600MOL0     H80995   1.950  11.338   5.551  3.2246  0.8019 -1.4588
  600MOL0     H80996   2.044  11.225   5.768  0.7580 -1.2647 -1.9554
  600MOL0     H80997   2.058  11.378   5.838  1.3364  0.4852 -0.1361
  600MOL0     H80998   2.418  11.365   5.634  0.1051  1.9692  1.0799
  600MOL0     H80999   1.406  11.262   5.887  2.2033  2.5283 -0.0055
  600MOL0     H81000   1.231  11.159   5.759 -1.5876 -1.6193 -2.3896
  601MOL0     O81001   3.551   4.336   0.796  0.0846 -0.1764 -0.5746
  601MOL0     C81002   3.613   4.237   0.764  0.6058  0.1401 -1.2434
  601MOL0     O81003   3.552   4.122   0.713 -0.0294 -0.2328 -0.3787
  601MOL0     C81004   3.417   4.116   0.733  0.1631 -0.3636  0.1379
  601MOL0     C81005   3.363   4.039   0.845 -0.1314  0.4761  0.0796
  601MOL0     C81006   3.230   4.010   0.864  0.2759  0.6954 -0.1972
  601MOL0     C81007   3.132   4.062   0.780  0.1228  0.0619 -0.6258
  601MOL0     O81008   3.002   4.025   0.815 -0.2582  0.1994  0.4859
  601MOL0     C81009   2.902   4.001   0.714 -0.6336 -0.1423 -0.5963
  601MOL0     C81010   2.938   3.875   0.628  0.1873 -0.0305 -0.5122
  601MOL0     C81011   2.843   3.859   0.503  0.2491 -0.5385 -0.9719
  601MOL0     C81012   2.699   3.838   0.541  0.4021  0.1039 -0.1091
  601MOL0     C81013   2.611   3.822   0.417  0.4795  0.6272  0.8109
  601MOL0     C81014   2.467   3.779   0.462 -1.0571  1.0951 -0.6583
  601MOL0     C81015   2.364   3.767   0.356 -0.0722 -0.5190 -0.1826
  601MOL0     C81016   2.390   3.651   0.260  0.6325 -0.1788  0.4857
  601MOL0     N81017   2.389   3.529   0.330  0.0363 -0.0879 -0.2338
  601MOL0     C81018   2.290   3.458   0.398  0.4579 -0.0355 -0.4745
  601MOL0     C81019   2.364   3.360   0.465  0.7482  0.2160  0.1333
  601MOL0     C81020   2.315   3.267   0.574  0.9865  0.4675 -0.2199
  601MOL0     C81021   2.235   3.151   0.519 -0.1722 -0.0538  0.0869
  601MOL0     C81022   2.320   3.054   0.433 -0.4019 -0.3595 -0.2965
  601MOL0     C81023   2.234   2.939   0.399 -0.8283 -0.8787  0.1536
  601MOL0     O81024   2.190   2.941   0.262 -0.8948  0.0699  0.7841
  601MOL0     C81025   2.065   2.985   0.237  0.6362  0.4885 -0.2383
  601MOL0     C81026   2.040   3.074   0.135 -0.7316  0.0805 -0.4461
  601MOL0     C81027   1.914   3.111   0.087  0.0867 -0.2384  0.6382
  601MOL0     C81028   1.902   3.194  -0.038 -0.4176 -0.8189  0.8720
  601MOL0     C81029   1.799   3.050   0.152 -0.4147  0.3615 -0.0312
  601MOL0     C81030   1.657   3.084   0.129 -0.0020  0.4497  0.0291
  601MOL0     O81031   1.563   2.984   0.161 -0.1543 -0.1069 -0.6147
  601MOL0     C81032   1.428   2.996   0.152 -0.1524  0.1625  0.5286
  601MOL0     C81033   1.360   3.112   0.110  0.0278  0.0301  0.2594
  601MOL0     C81034   1.224   3.115   0.080 -0.3193  0.2180 -0.0177
  601MOL0     C81035   1.148   3.002   0.100 -0.0851  0.1595  0.0230
  601MOL0     O81036   1.020   2.990   0.069  0.6459 -0.6371 -0.2445
  601MOL0     C81037   0.956   3.073  -0.021 -0.3377 -0.9140  0.0042
  601MOL0     C81038   0.827   3.014  -0.064 -0.6794 -0.6384 -0.2508
  601MOL0     C81039   0.749   3.093  -0.160 -0.4497 -0.6156  0.6278
  601MOL0     C81040   0.610   3.039  -0.188  0.5242  0.3351  0.0269
  601MOL0     C81041   0.542   3.096  -0.313  0.1763 -0.0924  0.1893
  601MOL0     C81042   0.475   3.231  -0.279 -0.0129  0.1207  0.5798
  601MOL0     C81043   0.406   3.299  -0.386  0.3006  0.3498 -0.4059
  601MOL0     C81044   0.272   3.234  -0.427  0.1468  0.9070 -0.3939
  601MOL0    Cl81045   0.177   3.327  -0.548  0.2457  0.0041 -0.1408
  601MOL0     C81046   1.210   2.889   0.148 -0.2125  0.4817 -0.2268
  601MOL0     C81047   1.348   2.884   0.168  0.0970  0.4043 -0.6024
  601MOL0     O81048   1.635   3.195   0.089  0.0834  0.5168 -0.4649
  601MOL0     C81049   1.821   2.959   0.256 -0.1313  0.2179 -0.2032
  601MOL0     C81050   1.952   2.920   0.291  0.3889  0.1589  0.3070
  601MOL0     N81051   2.498   3.358   0.429  0.5352 -0.3135 -0.5458
  601MOL0     N81052   2.506   3.460   0.347  0.8914  0.5539  0.7276
  601MOL0     C81053   3.181   4.138   0.665  0.3295  0.6738  0.1814
  601MOL0     C81054   3.320   4.161   0.642 -0.0035  0.6220 -0.5857
  601MOL0     C81055   3.759   4.240   0.775 -0.1905  0.6570 -0.2174
  601MOL0     C81056   3.836   4.125   0.739  0.2950  0.4717 -0.4652
  601MOL0     C81057   3.980   4.136   0.736  0.2967 -0.0387  0.5041
  601MOL0     C81058   4.047   4.251   0.770  0.5585  1.2032 -0.1172
  601MOL0     O81059   4.189   4.251   0.759  0.6280  0.1375  0.0284
  601MOL0     C81060   4.260   4.363   0.804 -0.2561 -0.9458 -0.6215
  601MOL0     C81061   4.420   4.343   0.776 -0.1851 -0.1487 -0.9632
  601MOL0     C81062   4.508   4.472   0.765 -0.0908  0.0654  0.2874
  601MOL0     C81063   4.659   4.427   0.760 -0.4841 -0.2104 -0.0847
  601MOL0     C81064   4.741   4.547   0.734 -0.4261 -0.5533  0.2940
  601MOL0     C81065   4.817   4.633   0.701 -0.1366 -0.0438  0.6787
  601MOL0     C81066   3.972   4.364   0.806  0.0475 -0.1375  0.5351
  601MOL0     C81067   3.831   4.354   0.807  0.2848 -0.7917 -0.9963
  601MOL0     H81068   3.421   3.996   0.926  0.0013  0.8766  0.1959
  601MOL0     H81069   3.202   3.942   0.943  0.1858  0.8334 -0.1090
  601MOL0     H81070   2.808   3.973   0.763  0.4141 -0.7922  1.1097
  601MOL0     H81071   2.885   4.089   0.651  0.4797  0.2828 -0.3211
  601MOL0     H81072   3.037   3.888   0.583  0.3749 -2.8127 -1.0618
  601MOL0     H81073   2.946   3.784   0.688  0.7817 -0.6545 -1.5079
  601MOL0     H81074   2.844   3.957   0.456  0.1021  0.5973  1.2848
  601MOL0     H81075   2.869   3.775   0.438 -1.5073 -1.5044 -0.5115
  601MOL0     H81076   2.689   3.751   0.608  0.2891  0.6652  0.6190
  601MOL0     H81077   2.658   3.914   0.608 -2.5417 -1.1081 -0.3518
  601MOL0     H81078   2.608   3.923   0.374  1.0103 -0.4865 -2.0747
  601MOL0     H81079   2.664   3.762   0.343  1.2278  1.8722  0.3119
  601MOL0     H81080   2.475   3.680   0.506 -0.2684  0.9646 -1.0815
  601MOL0     H81081   2.432   3.837   0.548  1.0344  2.6542 -0.7663
  601MOL0     H81082   2.269   3.749   0.407  1.1505 -1.1630  1.9909
  601MOL0     H81083   2.363   3.854   0.291  1.2538  0.7123  1.3600
  601MOL0     H81084   2.481   3.656   0.198  0.8715  1.0433  0.9215
  601MOL0     H81085   2.309   3.654   0.187  2.3174  0.0581 -1.5020
  601MOL0     H81086   2.185   3.482   0.392  0.7760  2.8708  2.5795
  601MOL0     H81087   2.408   3.230   0.618  1.0809  2.1715  1.1248
  601MOL0     H81088   2.261   3.321   0.653  4.6096 -0.0284  2.9416
  601MOL0     H81089   2.157   3.185   0.451 -2.3067 -0.9382  1.9564
  601MOL0     H81090   2.177   3.094   0.592  1.4799 -1.0381  0.6917
  601MOL0     H81091   2.404   3.026   0.496  0.2272  0.4958 -0.7261
  601MOL0     H81092   2.360   3.096   0.340 -0.6182  0.3122 -0.0939
  601MOL0     H81093   2.145   2.925   0.461  0.1415 -0.1716  1.7710
  601MOL0     H81094   2.288   2.845   0.416 -0.2508 -0.1155  3.0938
  601MOL0     H81095   2.127   3.101   0.076 -0.4400 -2.4728 -1.3321
  601MOL0     H81096   1.858   3.135  -0.120 -2.2141  2.5845 -0.8433
  601MOL0     H81097   1.836   3.281  -0.024  0.7675  0.2626 -0.0924
  601MOL0     H81098   2.003   3.219  -0.069 -0.5754 -0.6885  0.4593
  601MOL0     H81099   1.413   3.204   0.085 -0.1885  0.2269  0.5225
  601MOL0     H81100   1.184   3.201   0.027  0.8223  1.7133  1.4451
  601MOL0     H81101   0.931   3.166   0.031 -2.6487 -0.2417 -2.0670
  601MOL0     H81102   1.025   3.097  -0.103  2.0449  0.8695  2.3927
  601MOL0     H81103   0.850   2.920  -0.116  1.2250 -0.0994 -0.4689
  601MOL0     H81104   0.770   2.995   0.027 -0.1877 -3.0991 -0.3688
  601MOL0     H81105   0.801   3.107  -0.255 -1.4479 -1.0881  0.0016
  601MOL0     H81106   0.737   3.193  -0.117  0.7502 -0.0637 -0.2792
  601MOL0     H81107   0.606   2.930  -0.198 -2.0239  0.5301 -2.3716
  601MOL0     H81108   0.558   3.063  -0.095  1.0878  3.9318 -0.4653
  601MOL0     H81109   0.468   3.020  -0.342 -1.5668  0.8036  2.0423
  601MOL0     H81110   0.619   3.114  -0.388 -2.8752  0.3343 -3.0876
  601MOL0     H81111   0.410   3.228  -0.191  3.0299 -1.3340  2.9609
  601MOL0     H81112   0.555   3.294  -0.238 -2.6243  1.3993  4.2927
  601MOL0     H81113   0.476   3.310  -0.470  1.4591 -0.8641  0.3483
  601MOL0     H81114   0.388   3.394  -0.335  3.2551  0.8015 -0.0083
  601MOL0     H81115   0.218   3.224  -0.332  1.3866 -0.7916  0.1697
  601MOL0     H81116   0.285   3.135  -0.471 -0.6319  1.0159 -0.8963
  601MOL0     H81117   1.147   2.801   0.156  0.6387 -0.3003 -1.7593
  601MOL0     H81118   1.396   2.790   0.190  1.1744  1.0278 -0.2303
  601MOL0     H81119   1.737   2.914   0.308  1.3728 -1.6616  0.7115
  601MOL0     H81120   1.957   2.840   0.364 -1.7404  0.0665  0.4170
  601MOL0     H81121   3.101   4.179   0.604  0.6057 -0.4421 -0.9749
  601MOL0     H81122   3.348   4.220   0.556 -0.7094 -0.0079 -1.2568
  601MOL0     H81123   3.787   4.030   0.720  1.1658 -1.0352  3.6733
  601MOL0     H81124   4.040   4.048   0.714 -0.3433 -0.5076  0.6297
  601MOL0     H81125   4.226   4.450   0.749  2.2398  2.3411  2.5674
  601MOL0     H81126   4.240   4.372   0.911 -2.2229 -0.0740 -1.0324
  601MOL0     H81127   4.431   4.308   0.673  3.3740 -0.8300 -0.4886
  601MOL0     H81128   4.468   4.266   0.837 -0.9891  0.4069  0.3965
  601MOL0     H81129   4.485   4.527   0.856 -1.4280  0.9818 -0.5674
  601MOL0     H81130   4.469   4.534   0.683 -4.2549 -1.8050  0.5838
  601MOL0     H81131   4.675   4.368   0.669 -1.8105  1.5548 -1.5274
  601MOL0     H81132   4.699   4.375   0.848  0.6040  0.1148 -0.3694
  601MOL0     H81133   4.886   4.711   0.678  1.4241 -1.5124  0.1358
  601MOL0     H81134   4.014   4.458   0.842  1.7784 -0.4626 -0.5326
  601MOL0     H81135   3.776   4.447   0.818  0.5302 -0.6893 -0.6097
  602MOL0     O81136   2.332   6.819   0.019 -0.3556 -0.0190  0.2398
  602MOL0     C81137   2.343   6.733   0.101  0.2478 -0.2718  0.6140
  602MOL0     O81138   2.245   6.690   0.178  0.1975 -0.3834  0.7262
  602MOL0     C81139   2.118   6.734   0.167  0.3422  0.2167  0.0845
  602MOL0     C81140   2.051   6.775   0.045  0.0125 -0.3559  0.3021
  602MOL0     C81141   1.924   6.818   0.036 -0.1134  1.0824  0.3729
  602MOL0     C81142   1.856   6.830   0.160 -0.0487  0.8149 -0.5830
  602MOL0     O81143   1.728   6.880   0.145 -0.1536  0.2538 -0.1598
  602MOL0     C81144   1.617   6.799   0.194  0.4025  0.6566 -0.2239
  602MOL0     C81145   1.592   6.686   0.095  0.7388 -0.0621 -0.2478
  602MOL0     C81146   1.488   6.591   0.154 -0.1688  0.4327 -0.4673
  602MOL0     C81147   1.468   6.469   0.066  0.3215  0.4655  0.8325
  602MOL0     C81148   1.402   6.352   0.140 -0.1447 -0.7843 -0.4939
  602MOL0     C81149   1.254   6.385   0.160  0.4725 -0.0569  0.4223
  602MOL0     C81150   1.197   6.257   0.230  0.0890 -0.2252  0.9355
  602MOL0     C81151   1.035   6.259   0.240  0.3563 -0.1496 -0.4375
  602MOL0     N81152   0.986   6.294   0.105  0.0993 -0.6473  0.6885
  602MOL0     C81153   0.981   6.204   0.003  0.0827  0.3524  0.3534
  602MOL0     C81154   0.955   6.271  -0.114 -0.3711 -0.0853  0.6755
  602MOL0     C81155   0.923   6.201  -0.248  0.1527 -0.6689 -0.3307
  602MOL0     C81156   1.040   6.146  -0.334  0.5562 -1.1861  1.0143
  602MOL0     C81157   0.982   6.087  -0.468  0.4336  0.0394 -0.8751
  602MOL0     C81158   0.855   6.005  -0.458  0.0490  0.2348  0.3980
  602MOL0     O81159   0.810   5.943  -0.575 -0.0569 -0.5464  0.7589
  602MOL0     C81160   0.779   6.008  -0.697 -0.0480 -0.2440 -0.2945
  602MOL0     C81161   0.770   6.146  -0.703  0.2273 -0.1238  0.5695
  602MOL0     C81162   0.729   6.214  -0.822 -0.3968  0.2812  0.2105
  602MOL0     C81163   0.737   6.359  -0.822  0.3300  0.4129 -0.4755
  602MOL0     C81164   0.691   6.129  -0.933 -0.0827 -0.0545 -1.0203
  602MOL0     C81165   0.626   6.188  -1.050 -0.3279 -0.5415 -0.1566
  602MOL0     O81166   0.612   6.108  -1.160  0.0925  0.7141 -0.4626
  602MOL0     C81167   0.571   6.168  -1.276 -0.4567 -0.2311  0.0638
  602MOL0     C81168   0.646   6.185  -1.393 -0.4436  0.6108 -0.2824
  602MOL0     C81169   0.583   6.225  -1.510 -0.3689 -0.6140 -0.4129
  602MOL0     C81170   0.449   6.259  -1.520  0.6456 -0.0067  0.7443
  602MOL0     O81171   0.392   6.283  -1.645 -0.0284 -0.7482 -0.2131
  602MOL0     C81172   0.275   6.362  -1.645  0.2056  0.6121  1.4055
  602MOL0     C81173   0.150   6.273  -1.679  0.9897 -0.3787  0.0854
  602MOL0     C81174   0.179   6.177  -1.795  1.0884 -0.7315 -0.1621
  602MOL0     C81175   0.053   6.106  -1.854  0.3907 -0.0444 -0.5466
  602MOL0     C81176   0.075   5.961  -1.902  0.5370  0.3813  0.2121
  602MOL0     C81177  -0.063   5.902  -1.947  0.1748 -0.5929 -0.6920
  602MOL0     C81178  -0.184   5.918  -1.840  0.6081  1.0612 -0.4001
  602MOL0     C81179  -0.298   5.814  -1.863 -0.2480 -0.4051  0.0996
  602MOL0    Cl81180  -0.265   5.687  -1.748  0.5114 -0.2083  0.0924
  602MOL0     C81181   0.372   6.247  -1.401 -0.3908 -0.1588  0.8001
  602MOL0     C81182   0.432   6.199  -1.286 -0.6897 -0.3267  0.0360
  602MOL0     O81183   0.592   6.304  -1.048  0.7116 -0.5434 -0.8679
  602MOL0     C81184   0.705   5.989  -0.923 -0.8067 -0.3442  0.1879
  602MOL0     C81185   0.742   5.932  -0.804  0.4747 -0.7258  0.2191
  602MOL0     N81186   0.943   6.403  -0.075 -0.3830 -0.5913  0.0139
  602MOL0     N81187   0.960   6.418   0.052  0.4570 -0.0472 -0.1148
  602MOL0     C81188   1.910   6.791   0.286 -0.0772 -0.4725  0.5185
  602MOL0     C81189   2.041   6.739   0.284  0.2987 -0.1516  0.8129
  602MOL0     C81190   2.477   6.674   0.131 -0.2020  0.7927 -0.2715
  602MOL0     C81191   2.503   6.577   0.225 -0.4018 -0.0602 -0.1070
  602MOL0     C81192   2.628   6.516   0.220 -0.0830  0.1936  0.2607
  602MOL0     C81193   2.748   6.567   0.152  0.4067  1.2348  0.8762
  602MOL0     O81194   2.867   6.506   0.172 -0.3128  0.1788  0.1846
  602MOL0     C81195   2.984   6.541   0.091  0.3776 -0.1071 -0.5809
  602MOL0     C81196   3.097   6.452   0.138  0.0314  0.3123  0.1723
  602MOL0     C81197   3.174   6.505   0.257  0.0464 -0.7052  0.2041
  602MOL0     C81198   3.079   6.511   0.379 -0.0918  0.0683 -0.7027
  602MOL0     C81199   3.141   6.561   0.506 -0.3416 -0.0561  0.5444
  602MOL0     C81200   3.177   6.608   0.608  0.0015 -0.4392 -0.2400
  602MOL0     C81201   2.724   6.674   0.072 -0.1518 -0.8509  0.0235
  602MOL0     C81202   2.592   6.721   0.058 -0.1932 -0.1411 -0.4511
  602MOL0     H81203   2.108   6.773  -0.047 -0.8616 -0.9433 -0.2387
  602MOL0     H81204   1.879   6.830  -0.062  0.0796  2.3735  0.4308
  602MOL0     H81205   1.630   6.762   0.296 -2.6642 -0.7083 -0.2174
  602MOL0     H81206   1.526   6.860   0.204 -0.1054 -0.0621 -0.4379
  602MOL0     H81207   1.542   6.737   0.012 -2.2253 -0.7010  1.0192
  602MOL0     H81208   1.687   6.645   0.058 -0.5404 -2.3770 -1.1677
  602MOL0     H81209   1.524   6.540   0.243 -1.8694  2.0413  1.2260
  602MOL0     H81210   1.394   6.642   0.178  0.6605  0.4114  3.5342
  602MOL0     H81211   1.411   6.504  -0.021  0.7754 -1.3118 -0.2195
  602MOL0     H81212   1.565   6.435   0.029 -0.5167  0.9545 -2.0917
  602MOL0     H81213   1.406   6.259   0.083 -2.0733 -1.1924 -0.0510
  602MOL0     H81214   1.453   6.346   0.237  0.8836  5.0283 -0.2680
  602MOL0     H81215   1.242   6.476   0.220 -3.2739  2.1301 -3.1035
  602MOL0     H81216   1.220   6.395   0.057  2.7278 -2.1215 -0.6189
  602MOL0     H81217   1.229   6.174   0.165  4.4428  1.6464  0.3145
  602MOL0     H81218   1.241   6.265   0.330  2.2594  1.6634 -0.0780
  602MOL0     H81219   1.012   6.344   0.305  1.1484 -0.1884 -0.1015
  602MOL0     H81220   0.994   6.162   0.271  2.3642 -0.3587  1.8218
  602MOL0     H81221   0.999   6.097  -0.001  0.9789  0.4930  0.4015
  602MOL0     H81222   0.850   6.122  -0.225 -0.0594 -0.9813 -1.9659
  602MOL0     H81223   0.859   6.257  -0.317 -0.7946  1.4960  2.1594
  602MOL0     H81224   1.092   6.058  -0.294 -3.0378 -3.8902  0.2514
  602MOL0     H81225   1.106   6.229  -0.361 -2.0421  0.3803 -0.9471
  602MOL0     H81226   1.057   6.013  -0.498 -2.3813 -2.5518 -2.0624
  602MOL0     H81227   0.976   6.169  -0.541 -0.4151  1.1217  0.3761
  602MOL0     H81228   0.773   6.064  -0.414  0.2988  0.6114  0.3650
  602MOL0     H81229   0.889   5.921  -0.397  3.3251 -0.1522 -1.7206
  602MOL0     H81230   0.792   6.213  -0.621 -1.1572  0.4831  0.4748
  602MOL0     H81231   0.633   6.391  -0.823 -0.1653 -1.1460 -1.1657
  602MOL0     H81232   0.794   6.395  -0.736  1.4048 -1.7013 -0.2437
  602MOL0     H81233   0.784   6.405  -0.910  1.6092 -1.8250 -1.0467
  602MOL0     H81234   0.747   6.148  -1.382  0.0122  2.0044  0.5091
  602MOL0     H81235   0.644   6.239  -1.599  2.1352  2.2924  1.5562
  602MOL0     H81236   0.266   6.421  -1.553 -0.6490  2.4802  0.1758
  602MOL0     H81237   0.276   6.430  -1.731  3.4603  0.7344  1.4239
  602MOL0     H81238   0.120   6.211  -1.594 -1.5263 -1.1745 -1.3070
  602MOL0     H81239   0.065   6.334  -1.710 -2.6534 -3.3237  3.2687
  602MOL0     H81240   0.251   6.101  -1.762  1.2063  0.1610  1.8197
  602MOL0     H81241   0.229   6.244  -1.866  1.6974 -0.4576  0.5092
  602MOL0     H81242  -0.019   6.112  -1.772  4.0831  1.4048  2.9166
  602MOL0     H81243   0.017   6.161  -1.942 -2.6840 -0.5055  0.3157
  602MOL0     H81244   0.124   5.905  -1.822 -2.6674 -0.8371  1.4573
  602MOL0     H81245   0.142   5.963  -1.988 -0.2908 -0.8092 -0.4925
  602MOL0     H81246  -0.102   5.955  -2.034 -3.0684 -0.4942  0.6697
  602MOL0     H81247  -0.049   5.797  -1.972  0.1567 -0.2361 -2.3284
  602MOL0     H81248  -0.231   6.014  -1.867  1.5097  1.2783 -1.2763
  602MOL0     H81249  -0.150   5.928  -1.737 -0.2893  0.9143 -0.0872
  602MOL0     H81250  -0.301   5.767  -1.962 -1.2305 -2.6845  1.1304
  602MOL0     H81251  -0.394   5.862  -1.841  0.1492  1.0670 -1.2313
  602MOL0     H81252   0.267   6.270  -1.405 -0.3420 -0.0145  0.2371
  602MOL0     H81253   0.360   6.190  -1.205  0.5548 -3.3418  0.9467
  602MOL0     H81254   0.682   5.932  -1.012  0.0574  2.9454 -2.3754
  602MOL0     H81255   0.750   5.824  -0.792 -0.2465 -0.5220  3.8659
  602MOL0     H81256   1.844   6.805   0.371 -2.1263  0.6918 -1.1640
  602MOL0     H81257   2.088   6.718   0.380 -0.8158  0.1170  1.4334
  602MOL0     H81258   2.431   6.553   0.302 -1.9617  0.3307 -1.3990
  602MOL0     H81259   2.636   6.438   0.295 -3.8605  0.9873  1.7045
  602MOL0     H81260   2.967   6.510  -0.013  1.2069 -0.5110 -0.5996
  602MOL0     H81261   3.012   6.647   0.098  0.5781 -0.1508 -0.7036
  602MOL0     H81262   3.168   6.438   0.055  2.6354  1.0154  2.1371
  602MOL0     H81263   3.072   6.348   0.159  0.2241  0.0709 -0.7409
  602MOL0     H81264   3.213   6.597   0.213 -1.6975 -1.6871 -3.8223
  602MOL0     H81265   3.260   6.449   0.295  0.6161  0.5914  0.8834
  602MOL0     H81266   3.054   6.407   0.400  0.0307 -0.3668 -2.5828
  602MOL0     H81267   2.995   6.577   0.354  1.3824  1.5368 -1.9673
  602MOL0     H81268   3.229   6.646   0.693  2.9510 -1.6115 -1.3696
  602MOL0     H81269   2.804   6.719   0.014 -1.2228 -0.2264 -1.0038
  602MOL0     H81270   2.575   6.797  -0.017  4.4212  0.6081 -0.9935
  603MOL0     O81271   3.533   9.428   0.949 -0.4477  0.1880  0.0814
  603MOL0     C81272   3.548   9.325   0.889 -0.8614 -0.1654  0.3855
  603MOL0     O81273   3.446   9.240   0.849  0.0927 -0.0806 -0.5259
  603MOL0     C81274   3.324   9.254   0.915  0.0255 -0.2447  0.3321
  603MOL0     C81275   3.233   9.348   0.867  0.6995 -0.1833  0.7624
  603MOL0     C81276   3.118   9.359   0.930  0.1277 -0.4207  0.1428
  603MOL0     C81277   3.088   9.284   1.047 -0.2029 -0.4993 -0.7180
  603MOL0     O81278   2.982   9.303   1.131  0.1368  0.3774  0.0298
  603MOL0     C81279   2.857   9.365   1.077  0.4257 -0.6972 -0.2675
  603MOL0     C81280   2.750   9.299   1.153  0.8304 -0.4683 -0.0084
  603MOL0     C81281   2.617   9.328   1.089 -0.6397 -0.6705  0.7997
  603MOL0     C81282   2.500   9.295   1.177  0.1938 -0.1093  0.1419
  603MOL0     C81283   2.365   9.339   1.116 -0.9071 -0.5892  0.2877
  603MOL0     C81284   2.256   9.249   1.164 -0.9042 -0.6330 -0.4165
  603MOL0     C81285   2.139   9.247   1.066 -0.3669 -0.1260 -0.2998
  603MOL0     C81286   2.042   9.135   1.113  0.4095  0.3793  1.0128
  603MOL0     N81287   1.906   9.160   1.069 -0.5203  0.1470 -0.1149
  603MOL0     C81288   1.804   9.167   1.156 -0.0337  0.5189 -0.3097
  603MOL0     C81289   1.693   9.163   1.078  0.8782  0.6275  0.2361
  603MOL0     C81290   1.549   9.153   1.129 -0.1546  0.3037  0.6284
  603MOL0     C81291   1.492   9.261   1.224  0.2524  0.5479  1.2074
  603MOL0     C81292   1.503   9.224   1.371 -0.7445 -0.2302 -0.1829
  603MOL0     C81293   1.398   9.291   1.464 -1.2920 -0.2038 -0.2804
  603MOL0     O81294   1.266   9.262   1.415 -0.6990  0.0432 -0.1269
  603MOL0     C81295   1.158   9.299   1.486  0.0622  1.2241  0.3204
  603MOL0     C81296   1.146   9.417   1.567 -0.1293  0.0588 -0.6855
  603MOL0     C81297   1.026   9.447   1.634 -0.7704 -0.3127  0.2013
  603MOL0     C81298   1.020   9.578   1.707 -0.2186 -0.0461  0.2068
  603MOL0     C81299   0.923   9.348   1.633  0.7646  0.2310  0.1709
  603MOL0     C81300   0.807   9.352   1.726 -0.4578 -0.8158 -0.4450
  603MOL0     O81301   0.767   9.483   1.757 -0.8381  0.0052  0.1354
  603MOL0     C81302   0.677   9.510   1.863  0.2384  0.5587  0.8240
  603MOL0     C81303   0.629   9.422   1.967 -0.2199  0.1817  0.0341
  603MOL0     C81304   0.534   9.468   2.056 -0.2173  0.0207  0.1221
  603MOL0     C81305   0.489   9.604   2.053 -0.4838  0.9296  0.7353
  603MOL0     O81306   0.414   9.647   2.155 -0.5411  0.0223 -0.1357
  603MOL0     C81307   0.389   9.788   2.176  0.0909 -0.0886  0.1247
  603MOL0     C81308   0.248   9.818   2.118 -0.4168  0.0884 -1.2844
  603MOL0     C81309   0.138   9.733   2.185  0.6488 -0.1157 -0.2602
  603MOL0     C81310  -0.006   9.760   2.119  0.2607  0.1346  0.0253
  603MOL0     C81311  -0.100   9.646   2.153  0.0901  0.0047  0.0597
  603MOL0     C81312  -0.252   9.662   2.116  1.1393 -0.7082  0.0611
  603MOL0     C81313  -0.317   9.763   2.216  0.4611  0.0176 -0.2490
  603MOL0     C81314  -0.466   9.751   2.213 -0.0481  0.1518 -0.3298
  603MOL0    Cl81315  -0.569   9.846   2.310 -0.5053  0.3234 -0.3972
  603MOL0     C81316   0.546   9.692   1.954  0.1317 -0.1590  0.5354
  603MOL0     C81317   0.646   9.641   1.864  0.2998 -0.2773 -0.6896
  603MOL0     O81318   0.754   9.251   1.769  0.6286 -0.5320  0.6265
  603MOL0     C81319   0.936   9.239   1.549  0.3157 -0.1019  0.4295
  603MOL0     C81320   1.055   9.208   1.488  0.0489  0.2357 -0.2816
  603MOL0     N81321   1.724   9.180   0.946 -0.0619 -0.2956  0.4513
  603MOL0     N81322   1.860   9.176   0.944  0.3391 -0.0770  0.2174
  603MOL0     C81323   3.176   9.180   1.088 -0.1242 -0.1567 -0.6643
  603MOL0     C81324   3.294   9.171   1.020 -0.2269  0.0685 -0.8165
  603MOL0     C81325   3.688   9.276   0.857  0.3009  0.6707 -0.0423
  603MOL0     C81326   3.797   9.368   0.866  0.0207  0.2363 -0.4292
  603MOL0     C81327   3.925   9.314   0.835 -0.9424 -0.1390  0.3828
  603MOL0     C81328   3.942   9.190   0.772  0.1810  0.6354  0.6489
  603MOL0     O81329   4.071   9.166   0.745  0.7199 -0.1694  1.1104
  603MOL0     C81330   4.130   9.059   0.815  0.2503  0.4432  0.5310
  603MOL0     C81331   4.277   9.028   0.764  0.5354  0.4064 -0.1979
  603MOL0     C81332   4.383   9.126   0.827 -0.2150 -0.3567  0.1271
  603MOL0     C81333   4.406   9.114   0.984  0.0788  0.9764 -0.1693
  603MOL0     C81334   4.526   9.180   1.040  0.2510 -1.4005  0.0359
  603MOL0     C81335   4.633   9.226   1.084  0.4505  0.4422 -0.2478
  603MOL0     C81336   3.835   9.105   0.759  0.5401 -0.2807  0.3931
  603MOL0     C81337   3.711   9.148   0.798  0.4663 -0.0306  0.3087
  603MOL0     H81338   3.242   9.413   0.780 -0.8162 -2.8473 -1.5253
  603MOL0     H81339   3.053   9.444   0.910 -3.2996 -3.0379 -0.9462
  603MOL0     H81340   2.861   9.472   1.098 -0.3783 -1.2115  3.0010
  603MOL0     H81341   2.841   9.354   0.969  0.7165  0.8650 -0.4922
  603MOL0     H81342   2.779   9.194   1.151  0.7593 -0.4837 -0.9610
  603MOL0     H81343   2.736   9.333   1.256 -0.0109 -0.6062 -0.0665
  603MOL0     H81344   2.621   9.431   1.053  3.6628 -0.2003  2.0005
  603MOL0     H81345   2.613   9.260   1.002  1.8055  0.4583 -0.3092
  603MOL0     H81346   2.496   9.186   1.183 -1.0185 -0.2326 -2.1349
  603MOL0     H81347   2.513   9.333   1.279 -4.4152  3.4624 -0.2749
  603MOL0     H81348   2.333   9.443   1.132 -2.1049 -0.6051 -1.7165
  603MOL0     H81349   2.378   9.334   1.008  1.8610 -3.4350  0.5922
  603MOL0     H81350   2.294   9.148   1.179 -0.6370 -0.5723 -0.6743
  603MOL0     H81351   2.231   9.284   1.265 -1.5745 -4.5794  0.9465
  603MOL0     H81352   2.091   9.344   1.082 -1.6843 -0.1102 -3.5802
  603MOL0     H81353   2.177   9.235   0.964 -2.6366 -0.5846 -1.1534
  603MOL0     H81354   2.056   9.112   1.219  1.3883 -0.9193  0.6344
  603MOL0     H81355   2.089   9.051   1.060  1.6826  2.2565 -1.0139
  603MOL0     H81356   1.811   9.162   1.264  0.4388  2.9465 -0.1703
  603MOL0     H81357   1.481   9.150   1.043  0.7313  0.2172 -0.0871
  603MOL0     H81358   1.552   9.053   1.174  1.6622 -0.0316 -0.1393
  603MOL0     H81359   1.388   9.266   1.190  0.8014  1.0525 -0.4934
  603MOL0     H81360   1.543   9.355   1.201 -0.4606  0.7975  0.6256
  603MOL0     H81361   1.602   9.258   1.404 -1.7322  0.3422  2.4351
  603MOL0     H81362   1.495   9.116   1.384 -4.7027 -0.2077 -1.2482
  603MOL0     H81363   1.412   9.397   1.437  1.3889 -0.7451 -1.2775
  603MOL0     H81364   1.419   9.262   1.567 -1.2933 -3.7607 -1.1548
  603MOL0     H81365   1.235   9.476   1.582 -0.0144 -0.3156  0.1922
  603MOL0     H81366   0.948   9.646   1.659 -0.9445 -1.0089 -0.1074
  603MOL0     H81367   0.984   9.554   1.807  1.1208  1.8645  1.2147
  603MOL0     H81368   1.120   9.623   1.705 -0.5445  0.8579 -3.4058
  603MOL0     H81369   0.677   9.327   1.988 -1.3529  0.1398  2.8806
  603MOL0     H81370   0.506   9.401   2.137  1.2540 -1.1118 -0.2646
  603MOL0     H81371   0.377   9.804   2.284  0.0214  0.2333  0.0703
  603MOL0     H81372   0.449   9.868   2.130 -2.4900  3.4850  2.4469
  603MOL0     H81373   0.228   9.925   2.131  0.2121 -0.0717  1.9076
  603MOL0     H81374   0.242   9.810   2.009  1.1953 -1.0551 -1.3274
  603MOL0     H81375   0.129   9.776   2.285 -0.8849  3.2639 -1.6916
  603MOL0     H81376   0.155   9.625   2.184  1.2821 -0.0380 -2.6770
  603MOL0     H81377  -0.046   9.852   2.162  1.5768 -0.1732  2.1109
  603MOL0     H81378   0.008   9.777   2.012  1.7136 -0.4676  0.0851
  603MOL0     H81379  -0.095   9.608   2.256  1.7352  1.5156  0.5989
  603MOL0     H81380  -0.069   9.554   2.101  0.1755  0.2458 -0.3168
  603MOL0     H81381  -0.267   9.699   2.014  0.0277  0.7951  0.7276
  603MOL0     H81382  -0.296   9.562   2.116  0.4477 -0.4096 -0.6340
  603MOL0     H81383  -0.284   9.866   2.197  0.2293 -0.1239 -1.4562
  603MOL0     H81384  -0.293   9.742   2.321 -0.7609 -0.4255 -0.0394
  603MOL0     H81385  -0.491   9.646   2.231 -1.1717  0.2217 -1.3435
  603MOL0     H81386  -0.498   9.761   2.109 -0.1649 -1.0219 -0.4245
  603MOL0     H81387   0.528   9.799   1.953  1.2261  0.0636  1.8748
  603MOL0     H81388   0.699   9.715   1.803 -0.4686  0.1405 -0.8557
  603MOL0     H81389   0.859   9.165   1.530 -0.4664  0.1660  2.2838
  603MOL0     H81390   1.066   9.131   1.412 -1.2770  1.0694 -1.3676
  603MOL0     H81391   3.147   9.112   1.167  1.4400 -1.0312 -0.8132
  603MOL0     H81392   3.372   9.113   1.068 -0.4192  0.9212  0.5699
  603MOL0     H81393   3.775   9.472   0.886 -0.8711 -0.4134  2.3827
  603MOL0     H81394   4.008   9.382   0.853 -0.9702 -0.0677  0.2420
  603MOL0     H81395   4.133   9.085   0.921 -0.9357  0.6339  0.5370
  603MOL0     H81396   4.063   8.972   0.807  0.8424 -0.7132  5.1956
  603MOL0     H81397   4.291   9.019   0.656  2.3056  3.3420 -0.3387
  603MOL0     H81398   4.284   8.928   0.808  2.3383  0.7915  0.4805
  603MOL0     H81399   4.352   9.226   0.798 -0.7969 -0.9165 -1.2642
  603MOL0     H81400   4.482   9.103   0.786  1.6160  2.7190  2.4133
  603MOL0     H81401   4.407   9.013   1.024  1.4635  1.6661  1.6661
  603MOL0     H81402   4.317   9.163   1.025 -0.8505 -1.0465  0.3601
  603MOL0     H81403   4.726   9.271   1.115  0.7241 -1.0295  1.2419
  603MOL0     H81404   3.836   9.007   0.712  2.4371  0.3091 -0.9248
  603MOL0     H81405   3.631   9.078   0.776  0.6050 -0.0091 -0.2674
  604MOL0     O81406   0.243   8.807   1.902 -0.5685  0.3847  0.1307
  604MOL0     C81407   0.220   8.698   1.856 -0.4725  0.1453 -0.7239
  604MOL0     O81408   0.115   8.665   1.786  0.2257 -0.0847 -0.0378
  604MOL0     C81409   0.013   8.749   1.764  0.1753 -0.1443 -0.2616
  604MOL0     C81410  -0.116   8.692   1.775 -0.1419  0.0047 -0.8390
  604MOL0     C81411  -0.222   8.772   1.752 -0.5728  0.9827 -0.3476
  604MOL0     C81412  -0.217   8.903   1.721  0.5553  0.1299  0.8183
  604MOL0     O81413  -0.325   8.978   1.696  0.2764 -0.0167 -0.0286
  604MOL0     C81414  -0.453   8.905   1.683 -0.2576  0.0278  0.2643
  604MOL0     C81415  -0.548   9.018   1.642  0.1521 -0.7876 -0.0611
  604MOL0     C81416  -0.689   8.982   1.656  0.8659 -0.8800 -0.1827
  604MOL0     C81417  -0.779   9.105   1.634 -0.0353 -0.0838  0.9476
  604MOL0     C81418  -0.925   9.096   1.676  0.5104 -0.6407 -0.0031
  604MOL0     C81419  -1.000   9.226   1.639 -0.2378  0.3367  0.4165
  604MOL0     C81420  -1.145   9.241   1.689 -0.2881 -0.2985 -0.0136
  604MOL0     C81421  -1.211   9.373   1.629  0.7069 -0.6063 -0.1460
  604MOL0     N81422  -1.350   9.380   1.673 -0.4757 -0.4670 -0.1676
  604MOL0     C81423  -1.383   9.457   1.774 -0.7156 -0.4142  0.1814
  604MOL0     C81424  -1.521   9.476   1.760 -0.7138 -0.6145  0.4825
  604MOL0     C81425  -1.615   9.558   1.842 -0.4046  0.1378  0.3976
  604MOL0     C81426  -1.687   9.668   1.759 -0.0645 -1.4137  1.3934
  604MOL0     C81427  -1.768   9.772   1.834  0.2353 -0.6090  0.8706
  604MOL0     C81428  -1.873   9.822   1.744 -0.0874  0.1569  0.8228
  604MOL0     O81429  -1.970   9.895   1.812 -1.0453  0.0033  0.4208
  604MOL0     C81430  -1.981  10.026   1.773 -0.4882 -0.5828  0.4971
  604MOL0     C81431  -2.082  10.073   1.691 -0.8536 -0.1748  1.5426
  604MOL0     C81432  -2.097  10.216   1.672 -0.0094  0.9609  0.2359
  604MOL0     C81433  -2.215  10.257   1.592  0.1048  0.5176  0.5660
  604MOL0     C81434  -2.009  10.301   1.736 -0.1109 -0.2943  0.7689
  604MOL0     C81435  -2.028  10.458   1.719 -0.3399  0.5861  0.2209
  604MOL0     O81436  -2.028  10.532   1.831  0.8353 -0.4379  0.4795
  604MOL0     C81437  -2.062  10.661   1.815  0.8609  0.1256  0.0095
  604MOL0     C81438  -2.190  10.719   1.799 -0.6002  0.0712  0.4242
  604MOL0     C81439  -2.202  10.854   1.769  1.0550 -0.2229 -0.4930
  604MOL0     C81440  -2.092  10.940   1.769 -0.0631  1.2036 -1.7352
  604MOL0     O81441  -2.110  11.069   1.743  0.2590 -0.4630 -0.1624
  604MOL0     C81442  -2.204  11.129   1.836  0.1741  0.6524 -0.3109
  604MOL0     C81443  -2.161  11.117   1.989 -0.5568 -0.1891  1.0280
  604MOL0     C81444  -2.242  11.211   2.077 -0.2758 -0.0659  0.4447
  604MOL0     C81445  -2.390  11.153   2.088  0.8191  0.5554 -0.0892
  604MOL0     C81446  -2.489  11.257   2.135  0.4682  0.2200  0.0657
  604MOL0     C81447  -2.627  11.262   2.053  0.1938  0.7124 -0.6964
  604MOL0     C81448  -2.722  11.155   2.103  0.1869 -0.9659 -0.3619
  604MOL0     C81449  -2.810  11.094   1.992 -0.6555  0.2661 -0.9082
  604MOL0    Cl81450  -2.720  11.039   1.854 -0.0925  0.5480  0.4023
  604MOL0     C81451  -1.966  10.891   1.788 -0.6612 -0.2740  0.9431
  604MOL0     C81452  -1.957  10.748   1.804 -0.2285  0.6214 -0.6950
  604MOL0     O81453  -2.061  10.500   1.610  0.1778 -1.3007 -0.8371
  604MOL0     C81454  -1.900  10.254   1.805  0.0059 -0.7544  0.5227
  604MOL0     C81455  -1.884  10.117   1.815 -0.9590  0.6437  0.2403
  604MOL0     N81456  -1.555   9.391   1.656  0.1226  0.4351  0.1689
  604MOL0     N81457  -1.453   9.329   1.608 -0.3980 -0.2682 -0.1961
  604MOL0     C81458  -0.092   8.968   1.720  0.3775  0.2595 -0.1657
  604MOL0     C81459   0.024   8.887   1.741  0.3147 -0.8249  0.6579
  604MOL0     C81460   0.321   8.592   1.873 -1.0880 -0.2808 -0.1933
  604MOL0     C81461   0.312   8.473   1.797 -0.2090 -0.6775  0.8665
  604MOL0     C81462   0.401   8.366   1.822 -0.1492  0.1057 -0.4305
  604MOL0     C81463   0.499   8.376   1.913 -0.1398  0.4348 -0.5307
  604MOL0     O81464   0.567   8.252   1.933 -0.0846 -0.1461 -0.2213
  604MOL0     C81465   0.692   8.270   1.998  0.2907  0.7846 -0.3490
  604MOL0     C81466   0.774   8.141   1.980 -0.5133 -0.3272  0.4093
  604MOL0     C81467   0.875   8.123   2.091  0.5401  0.1771 -0.3917
  604MOL0     C81468   0.954   7.988   2.071 -0.3457 -1.5052  0.6316
  604MOL0     C81469   1.016   7.979   1.941 -0.0310  0.4708 -0.1447
  604MOL0     C81470   1.061   7.980   1.836  0.5002 -0.7691  1.8007
  604MOL0     C81471   0.522   8.495   1.985  0.0778  0.6650 -0.6431
  604MOL0     C81472   0.430   8.596   1.970  0.6453 -0.0094  0.8257
  604MOL0     H81473  -0.143   8.591   1.802 -2.4573  1.1517  1.4393
  604MOL0     H81474  -0.314   8.719   1.774  0.1789  0.2527  1.1689
  604MOL0     H81475  -0.447   8.826   1.607 -1.9633  1.9389 -2.0246
  604MOL0     H81476  -0.487   8.854   1.774  0.9736 -1.2854  0.0231
  604MOL0     H81477  -0.526   9.115   1.688  0.1840 -1.0859  0.5686
  604MOL0     H81478  -0.539   9.042   1.536 -1.6836 -1.8697 -0.5004
  604MOL0     H81479  -0.734   8.907   1.590 -0.7327 -1.4707  1.4943
  604MOL0     H81480  -0.712   8.951   1.758  0.0133 -2.1091 -0.7162
  604MOL0     H81481  -0.733   9.180   1.698  1.5732  0.9332 -1.2517
  604MOL0     H81482  -0.780   9.144   1.531 -1.3845  2.2729  1.7706
  604MOL0     H81483  -0.981   9.010   1.637 -0.6105 -0.8166  1.8374
  604MOL0     H81484  -0.911   9.084   1.784  0.0306 -2.5572 -0.1100
  604MOL0     H81485  -0.946   9.306   1.690  0.7481 -1.0022  1.5220
  604MOL0     H81486  -0.990   9.235   1.530 -0.3614 -0.8886  0.2846
  604MOL0     H81487  -1.195   9.156   1.641 -0.2369  0.0926 -0.7786
  604MOL0     H81488  -1.159   9.225   1.796 -2.3554 -6.0727 -0.7975
  604MOL0     H81489  -1.211   9.375   1.520  0.6669  3.0527 -0.2107
  604MOL0     H81490  -1.161   9.464   1.664 -0.3208  1.2512 -3.1166
  604MOL0     H81491  -1.316   9.508   1.842  0.1867 -0.1942 -0.8393
  604MOL0     H81492  -1.695   9.497   1.885 -0.2478 -0.1529  0.2822
  604MOL0     H81493  -1.556   9.585   1.930  0.9300 -1.6470  0.1063
  604MOL0     H81494  -1.750   9.613   1.689  0.0790 -2.1700  1.8482
  604MOL0     H81495  -1.611   9.722   1.701 -0.3866 -1.7389  0.6527
  604MOL0     H81496  -1.692   9.845   1.864 -0.0957  0.2249 -0.2642
  604MOL0     H81497  -1.810   9.733   1.928  0.6252  1.3386  1.9147
  604MOL0     H81498  -1.924   9.738   1.696 -2.3807  1.9876 -0.1207
  604MOL0     H81499  -1.828   9.870   1.656 -2.1597 -0.5499 -0.6981
  604MOL0     H81500  -2.156  10.008   1.646  0.3459  0.0703 -0.9006
  604MOL0     H81501  -2.194  10.318   1.503 -0.9879  1.5135  0.9571
  604MOL0     H81502  -2.279  10.173   1.563  0.5206  1.7309 -4.9783
  604MOL0     H81503  -2.283  10.320   1.651 -0.5385  1.3241 -0.9611
  604MOL0     H81504  -2.278  10.659   1.816 -0.4238  0.4219  2.9611
  604MOL0     H81505  -2.299  10.900   1.755  1.8766  1.8495  0.1404
  604MOL0     H81506  -2.214  11.236   1.817 -0.4287  0.3869 -1.5280
  604MOL0     H81507  -2.300  11.085   1.808 -0.5018  1.5345  0.5316
  604MOL0     H81508  -2.165  11.013   2.023 -3.6778 -1.3364 -2.1623
  604MOL0     H81509  -2.057  11.145   2.006  0.1628 -1.1951 -1.3373
  604MOL0     H81510  -2.243  11.310   2.032 -2.3083 -0.8282 -1.3406
  604MOL0     H81511  -2.190  11.218   2.173  2.1643  3.3038 -0.9080
  604MOL0     H81512  -2.424  11.117   1.990  1.9832 -0.5711 -0.1011
  604MOL0     H81513  -2.396  11.060   2.146  0.4466  0.9767  0.5647
  604MOL0     H81514  -2.455  11.361   2.127 -0.3412  0.5287  0.5434
  604MOL0     H81515  -2.502  11.250   2.244  1.4384 -0.6982  0.1463
  604MOL0     H81516  -2.682  11.356   2.064  0.6392  1.2654 -2.7434
  604MOL0     H81517  -2.615  11.248   1.945 -0.1106  0.0132 -0.6397
  604MOL0     H81518  -2.786  11.201   2.179  0.3168  1.2913 -1.5494
  604MOL0     H81519  -2.669  11.075   2.156  0.5561 -0.2360  0.3929
  604MOL0     H81520  -2.884  11.165   1.957 -0.6539 -0.4007 -2.3256
  604MOL0     H81521  -2.852  11.005   2.040  1.2731  0.3375  1.1365
  604MOL0     H81522  -1.881  10.958   1.790  0.9225 -2.1923  0.1909
  604MOL0     H81523  -1.855  10.709   1.806 -0.6807 -0.5742  0.0499
  604MOL0     H81524  -1.833  10.321   1.859 -0.2726 -0.1571  0.1331
  604MOL0     H81525  -1.795  10.088   1.870 -0.8236  2.7571  1.2176
  604MOL0     H81526  -0.081   9.074   1.699 -0.8027  0.3174 -0.5650
  604MOL0     H81527   0.116   8.944   1.729  1.4790 -2.5557  0.9814
  604MOL0     H81528   0.247   8.467   1.710 -0.5469  0.3686  1.0358
  604MOL0     H81529   0.388   8.275   1.763 -2.6835 -0.6980  1.2206
  604MOL0     H81530   0.753   8.351   1.957  0.9505  0.2191 -0.4969
  604MOL0     H81531   0.681   8.299   2.103  3.3875 -0.1024  0.3283
  604MOL0     H81532   0.835   8.151   1.889  0.6878  1.6853  1.3672
  604MOL0     H81533   0.712   8.051   1.972 -3.1755  1.4823 -0.6479
  604MOL0     H81534   0.839   8.115   2.194 -1.4379 -0.7182 -1.1070
  604MOL0     H81535   0.941   8.210   2.090 -0.3616  0.9341  1.1836
  604MOL0     H81536   0.887   7.906   2.097 -0.9986 -0.7753  1.3423
  604MOL0     H81537   1.038   8.000   2.140  1.6132 -0.0381 -1.7977
  604MOL0     H81538   1.097   7.979   1.735 -2.2893 -1.9425  0.7199
  604MOL0     H81539   0.606   8.515   2.051  0.3063  0.9228 -1.0127
  604MOL0     H81540   0.439   8.685   2.031 -0.2712  0.6120  0.0651
  605MOL0     O81541   0.123   0.131  10.203  0.3435  0.4709 -0.7015
  605MOL0     C81542   0.138   0.162  10.089  0.5910  0.2573  0.4790
  605MOL0     O81543   0.054   0.132   9.989  0.1607 -0.2992 -0.0127
  605MOL0     C81544  -0.036   0.026  10.001  0.1382  0.1676 -1.4729
  605MOL0     C81545  -0.157   0.033   9.937 -0.5888  0.2709 -0.1605
  605MOL0     C81546  -0.255  -0.068   9.959 -0.5856 -0.1747  0.4889
  605MOL0     C81547  -0.221  -0.176  10.033 -0.4443  0.3965 -0.5796
  605MOL0     O81548  -0.314  -0.279  10.040 -0.0224  0.0601 -0.1128
  605MOL0     C81549  -0.278  -0.400   9.965  0.0953  0.4926 -0.0307
  605MOL0     C81550  -0.402  -0.499   9.952 -0.2900  0.3940  0.1294
  605MOL0     C81551  -0.473  -0.522  10.085  0.4387 -0.2759  0.1052
  605MOL0     C81552  -0.598  -0.608  10.072  0.1159 -0.1255 -0.6935
  605MOL0     C81553  -0.682  -0.642  10.196  0.4487 -0.6918  0.4974
  605MOL0     C81554  -0.739  -0.530  10.276  0.6480  0.5456  0.0584
  605MOL0     C81555  -0.782  -0.584  10.414  0.0990 -0.8166 -0.4887
  605MOL0     C81556  -0.829  -0.472  10.503 -0.5353  0.2040  0.1540
  605MOL0     N81557  -0.856  -0.509  10.637 -0.5757  0.0657 -0.4530
  605MOL0     C81558  -0.766  -0.504  10.737  0.6380 -0.6448 -0.3870
  605MOL0     C81559  -0.831  -0.557  10.845  0.2156 -0.7823 -0.6839
  605MOL0     C81560  -0.764  -0.588  10.979  0.3837  0.2043  0.6172
  605MOL0     C81561  -0.748  -0.468  11.070  0.1641 -0.0671  0.0074
  605MOL0     C81562  -0.639  -0.375  11.030 -0.1588  0.4561 -0.5710
  605MOL0     C81563  -0.496  -0.430  11.063  0.6787  0.3218  0.2524
  605MOL0     O81564  -0.392  -0.334  11.052 -0.3639 -0.0295  0.5659
  605MOL0     C81565  -0.265  -0.363  11.070 -0.5889 -0.9476  0.2961
  605MOL0     C81566  -0.175  -0.268  11.022 -0.1353  0.9634  0.2225
  605MOL0     C81567  -0.035  -0.281  11.021  0.4632  0.0110  0.1575
  605MOL0     C81568   0.039  -0.173  10.950 -0.4183 -1.0727  0.4274
  605MOL0     C81569   0.015  -0.394  11.081 -0.8080  0.0463 -0.5156
  605MOL0     C81570   0.153  -0.424  11.112 -0.9445  0.6820  0.5092
  605MOL0     O81571   0.214  -0.329  11.190  0.1829 -0.6939 -0.0482
  605MOL0     C81572   0.342  -0.360  11.218 -0.4888 -0.3670  0.0352
  605MOL0     C81573   0.386  -0.411  11.339 -0.2081 -0.3498  0.0257
  605MOL0     C81574   0.520  -0.421  11.365  0.6518  0.4082  0.1312
  605MOL0     C81575   0.612  -0.401  11.259  0.0080  0.4310  0.6052
  605MOL0     O81576   0.741  -0.431  11.291  0.4242 -0.4427  0.3747
  605MOL0     C81577   0.838  -0.353  11.214 -0.8055 -0.2187 -0.7412
  605MOL0     C81578   0.972  -0.348  11.295 -0.5404 -0.6416 -0.7308
  605MOL0     C81579   1.048  -0.484  11.302  0.4420 -0.3059  1.2168
  605MOL0     C81580   1.149  -0.495  11.417 -0.2044  0.2141 -0.2145
  605MOL0     C81581   1.291  -0.547  11.373 -0.7790  0.0125 -0.2844
  605MOL0     C81582   1.391  -0.529  11.483 -0.5865  0.0446  0.2948
  605MOL0     C81583   1.537  -0.560  11.431  0.7570  0.1195 -0.1000
  605MOL0     C81584   1.619  -0.512  11.552  0.8028  0.3586 -1.2886
  605MOL0    Cl81585   1.784  -0.571  11.547 -0.7836 -0.3011  0.0426
  605MOL0     C81586   0.567  -0.353  11.135 -0.5361  0.8031  0.3561
  605MOL0     C81587   0.432  -0.322  11.121  0.7166 -0.5118  0.6720
  605MOL0     O81588   0.205  -0.532  11.069  0.2767  0.0916  0.8707
  605MOL0     C81589  -0.067  -0.493  11.131 -0.3930 -0.4475  0.7105
  605MOL0     C81590  -0.207  -0.478  11.116  0.3863 -0.0389 -0.3493
  605MOL0     N81591  -0.963  -0.577  10.819 -0.5961  0.0238 -0.2056
  605MOL0     N81592  -0.973  -0.564  10.692 -0.4527  0.0970  1.4119
  605MOL0     C81593  -0.089  -0.191  10.087 -0.7924  0.0115  0.0859
  605MOL0     C81594   0.005  -0.089  10.073 -0.5435 -0.1098  1.2840
  605MOL0     C81595   0.265   0.227  10.050  0.0579  0.3845  0.1045
  605MOL0     C81596   0.350   0.281  10.144 -1.0006 -0.2053 -0.4871
  605MOL0     C81597   0.470   0.342  10.106 -0.4379  0.6454  0.1235
  605MOL0     C81598   0.507   0.348   9.970 -0.4602  0.3097  0.0893
  605MOL0     O81599   0.637   0.380   9.937  0.2117 -0.1969  0.3519
  605MOL0     C81600   0.684   0.352   9.806  0.3485 -0.2299 -0.5686
  605MOL0     C81601   0.826   0.409   9.798  0.7163  0.7505  1.1784
  605MOL0     C81602   0.892   0.388   9.661 -0.2013 -0.6563 -0.2538
  605MOL0     C81603   1.034   0.332   9.673  0.8837 -0.8227 -0.2851
  605MOL0     C81604   1.088   0.341   9.539  0.4350 -0.5650 -0.4729
  605MOL0     C81605   1.123   0.337   9.425  0.0664 -0.7860 -0.3506
  605MOL0     C81606   0.412   0.293   9.879 -0.9222  0.6351  0.1909
  605MOL0     C81607   0.294   0.234   9.915  0.0359  0.1677  0.6203
  605MOL0     H81608  -0.193   0.123   9.889 -1.1696 -0.3799 -0.9672
  605MOL0     H81609  -0.352  -0.045   9.916  0.2234 -3.0522 -3.4582
  605MOL0     H81610  -0.244  -0.383   9.863  0.1030  2.8671  0.3123
  605MOL0     H81611  -0.189  -0.437  10.017  0.9727  2.0639 -0.3570
  605MOL0     H81612  -0.479  -0.450   9.891 -2.7859 -0.3660  2.4767
  605MOL0     H81613  -0.386  -0.600   9.913  2.3628  0.1824  1.4681
  605MOL0     H81614  -0.408  -0.568  10.161 -0.8295  1.2032  2.1748
  605MOL0     H81615  -0.500  -0.423  10.121  1.3322  0.1051 -0.2436
  605MOL0     H81616  -0.664  -0.553  10.004 -0.6460  0.8904  0.8300
  605MOL0     H81617  -0.568  -0.700  10.022  3.4116  0.7847 -0.6519
  605MOL0     H81618  -0.764  -0.710  10.172 -0.2768  0.3326  0.0017
  605MOL0     H81619  -0.614  -0.698  10.261 -0.9173 -1.3247  1.4548
  605MOL0     H81620  -0.666  -0.449  10.281  0.6013  0.7778 -1.9296
  605MOL0     H81621  -0.821  -0.486  10.218  1.2072  1.1734 -0.2586
  605MOL0     H81622  -0.864  -0.655  10.408 -1.5680  0.9474  0.3928
  605MOL0     H81623  -0.699  -0.639  10.460  0.9557  0.6534 -0.1739
  605MOL0     H81624  -0.920  -0.443  10.450 -1.2032 -0.1163  1.1120
  605MOL0     H81625  -0.752  -0.395  10.493 -0.2905 -0.1369 -0.6337
  605MOL0     H81626  -0.668  -0.457  10.746 -0.0755  0.6738  0.7438
  605MOL0     H81627  -0.820  -0.668  11.027 -0.9093  1.1881  0.8107
  605MOL0     H81628  -0.669  -0.637  10.953 -0.5436 -1.2865 -0.0883
  605MOL0     H81629  -0.738  -0.499  11.175 -0.4261  0.7864  0.3322
  605MOL0     H81630  -0.842  -0.412  11.062  1.0497  1.5194  0.2783
  605MOL0     H81631  -0.647  -0.281  11.085  2.1884  1.4211 -1.7435
  605MOL0     H81632  -0.648  -0.353  10.924  0.6821 -2.1369 -1.2556
  605MOL0     H81633  -0.468  -0.519  11.007  1.0675  0.8475 -0.3994
  605MOL0     H81634  -0.490  -0.468  11.165  4.3752 -2.0257 -0.6709
  605MOL0     H81635  -0.218  -0.180  10.975  0.4756  2.0589  1.6788
  605MOL0     H81636   0.055  -0.093  11.023  1.8560  0.4097 -1.5522
  605MOL0     H81637   0.143  -0.200  10.933  0.3119  0.9124  1.3862
  605MOL0     H81638  -0.011  -0.135  10.861 -2.4950 -1.2287  1.4532
  605MOL0     H81639   0.317  -0.446  11.414 -0.7076 -0.4376 -0.4741
  605MOL0     H81640   0.544  -0.463  11.462 -0.0690  0.7014  0.4456
  605MOL0     H81641   0.845  -0.389  11.111 -0.6748 -2.0595 -0.1277
  605MOL0     H81642   0.799  -0.251  11.205  0.7237  0.2913 -1.8395
  605MOL0     H81643   1.031  -0.273  11.241  0.3575 -0.6863  0.1664
  605MOL0     H81644   0.941  -0.324  11.397  2.5655 -2.0080  0.6719
  605MOL0     H81645   1.103  -0.490  11.208  0.8613 -2.7227  1.5512
  605MOL0     H81646   0.976  -0.565  11.308 -1.8101  1.6582  2.4235
  605MOL0     H81647   1.150  -0.404  11.479 -0.4449 -0.2254  0.4385
  605MOL0     H81648   1.117  -0.574  11.485  0.9072 -0.2813 -0.2525
  605MOL0     H81649   1.325  -0.493  11.285 -1.1805  0.3195 -0.2546
  605MOL0     H81650   1.276  -0.649  11.336 -1.7134  0.7087 -1.9253
  605MOL0     H81651   1.380  -0.429  11.526 -2.2208 -0.3447  0.8558
  605MOL0     H81652   1.364  -0.599  11.563 -4.8325  0.0067 -0.9422
  605MOL0     H81653   1.565  -0.507  11.339 -1.3405 -1.1766 -1.6127
  605MOL0     H81654   1.546  -0.667  11.407 -0.5364  0.1923 -1.0347
  605MOL0     H81655   1.576  -0.554  11.644  1.2787  0.1020 -1.1772
  605MOL0     H81656   1.608  -0.404  11.564 -0.7110 -0.0343  2.4982
  605MOL0     H81657   0.635  -0.329  11.053 -0.7845  4.3032  1.0447
  605MOL0     H81658   0.394  -0.280  11.028  0.9333 -0.4887  0.5921
  605MOL0     H81659  -0.025  -0.579  11.182  0.0606 -0.3833  0.4447
  605MOL0     H81660  -0.272  -0.554  11.157  1.6070 -0.5102  0.7902
  605MOL0     H81661  -0.058  -0.277  10.145  0.7357 -1.2544 -2.4239
  605MOL0     H81662   0.111  -0.101  10.094  0.3420  1.1490 -1.8617
  605MOL0     H81663   0.326   0.266  10.249  2.3357 -2.8719  0.0570
  605MOL0     H81664   0.535   0.378  10.185  0.1768 -0.2364  0.0447
  605MOL0     H81665   0.677   0.244   9.790 -4.7821 -0.6692  2.5832
  605MOL0     H81666   0.622   0.397   9.728  0.8506 -0.9889 -1.4153
  605MOL0     H81667   0.881   0.362   9.879  2.0861  2.6304  1.4113
  605MOL0     H81668   0.817   0.518   9.808  0.2449  0.7474  0.8019
  605MOL0     H81669   0.902   0.491   9.626  0.9930  0.2843  2.5769
  605MOL0     H81670   0.820   0.331   9.601 -3.6489  1.9562  1.0820
  605MOL0     H81671   1.028   0.231   9.716  2.0058 -0.7924 -0.0281
  605MOL0     H81672   1.110   0.386   9.730  0.2655 -0.6703  0.4098
  605MOL0     H81673   1.148   0.326   9.322 -0.2970  0.6686 -0.6117
  605MOL0     H81674   0.440   0.290   9.775 -2.0219 -0.5215 -0.0861
  605MOL0     H81675   0.238   0.195   9.831 -0.4983 -0.9960  1.4829
  606MOL0     O81676   5.605  11.048   5.494 -0.5579  0.2279 -0.6357
  606MOL0     C81677   5.606  10.948   5.426  1.4323 -1.2183 -0.3271
  606MOL0     O81678   5.697  10.912   5.337 -0.3699 -0.5566  0.1465
  606MOL0     C81679   5.811  10.987   5.302  0.7171  0.0919 -0.8799
  606MOL0     C81680   5.853  10.945   5.180 -0.4568  0.0206 -0.3050
  606MOL0     C81681   5.967  11.001   5.122  0.3427 -0.1300  0.1098
  606MOL0     C81682   6.021  11.118   5.179 -0.1306  0.3564  0.4920
  606MOL0     O81683   6.132  11.200   5.132  0.4018  0.6287 -0.0046
  606MOL0     C81684   6.175  11.177   5.004  0.2394  0.0182  1.1678
  606MOL0     C81685   6.274  11.281   4.961 -0.8003  0.0381 -0.5712
  606MOL0     C81686   6.336  11.261   4.826  0.0910 -0.3867  0.4366
  606MOL0     C81687   6.427  11.381   4.782 -0.1156  0.4881  0.1701
  606MOL0     C81688   6.510  11.352   4.653 -0.2682  0.3846 -0.3647
  606MOL0     C81689   6.618  11.463   4.637  0.0323  0.1533  0.4410
  606MOL0     C81690   6.668  11.462   4.493 -0.6203 -0.6648 -0.0595
  606MOL0     C81691   6.744  11.334   4.468 -0.0909 -1.0056  0.3897
  606MOL0     N81692   6.781  11.316   4.329 -0.3857  0.8272 -0.3919
  606MOL0     C81693   6.887  11.382   4.270 -0.4384 -1.1885 -0.0124
  606MOL0     C81694   6.912  11.324   4.153 -0.1980  0.4301  1.3678
  606MOL0     C81695   7.033  11.359   4.056  0.3919  0.3386 -0.3780
  606MOL0     C81696   6.987  11.439   3.939 -0.8219  0.4324 -0.7362
  606MOL0     C81697   6.976  11.578   3.986  0.0387  0.5352  0.4335
  606MOL0     C81698   6.972  11.695   3.892  0.0842  0.7610  0.1547
  606MOL0     O81699   6.937  11.807   3.969 -0.2136 -0.0665 -0.5493
  606MOL0     C81700   6.857  11.891   3.911  0.7206  0.6596  0.1459
  606MOL0     C81701   6.719  11.874   3.901 -0.1751  0.2908 -1.0036
  606MOL0     C81702   6.628  11.962   3.834 -0.2052  0.5008 -0.0942
  606MOL0     C81703   6.475  11.940   3.835  0.0064  0.2336  0.9140
  606MOL0     C81704   6.684  12.077   3.782 -0.2222 -0.0368  0.5567
  606MOL0     C81705   6.603  12.179   3.721  0.9367  0.4241  0.5395
  606MOL0     O81706   6.625  12.313   3.746 -0.6283 -0.3243 -0.4027
  606MOL0     C81707   6.550  12.412   3.697  0.1749 -0.1206  0.3242
  606MOL0     C81708   6.607  12.541   3.668 -0.3173 -0.7217 -1.2757
  606MOL0     C81709   6.528  12.652   3.617  0.2545  0.3039  0.4667
  606MOL0     C81710   6.389  12.626   3.595  0.8410  0.3692  0.6075
  606MOL0     O81711   6.291  12.718   3.561 -0.1493  0.4600 -0.3993
  606MOL0     C81712   6.322  12.853   3.607 -0.3273  0.5270  0.2367
  606MOL0     C81713   6.203  12.947   3.574  0.7673  1.1976  0.3863
  606MOL0     C81714   6.060  12.893   3.617 -0.2218 -0.8270 -0.1334
  606MOL0     C81715   5.953  12.995   3.577 -0.0151  0.2124 -0.4608
  606MOL0     C81716   5.824  12.961   3.659  0.8569 -0.2614 -0.9716
  606MOL0     C81717   5.698  13.028   3.600  0.5029 -0.3624  0.5411
  606MOL0     C81718   5.671  13.160   3.665 -0.1739  0.0923  0.0595
  606MOL0     C81719   5.536  13.206   3.613 -0.1217  0.1215 -0.5582
  606MOL0    Cl81720   5.548  13.236   3.444 -0.1843 -0.1465  0.1247
  606MOL0     C81721   6.329  12.500   3.613 -0.4264 -0.0694 -0.0439
  606MOL0     C81722   6.412  12.397   3.659 -0.0149 -0.6615 -0.3653
  606MOL0     O81723   6.524  12.138   3.634 -0.2061 -0.5116  0.1929
  606MOL0     C81724   6.827  12.103   3.791 -0.2076  1.1886  0.4024
  606MOL0     C81725   6.906  12.009   3.859 -0.6238 -0.2876 -0.1209
  606MOL0     N81726   6.820  11.227   4.131 -0.6274 -0.9665  0.2275
  606MOL0     N81727   6.745  11.218   4.232 -0.1922  0.2161  0.0372
  606MOL0     C81728   5.981  11.151   5.307  0.4086 -0.2266 -0.2544
  606MOL0     C81729   5.876  11.086   5.365  0.5293  0.6043 -0.0665
  606MOL0     C81730   5.480  10.866   5.428  0.3628 -0.2939 -1.1039
  606MOL0     C81731   5.379  10.880   5.525 -0.3131  0.3889 -0.5134
  606MOL0     C81732   5.254  10.818   5.505 -0.4554 -0.1471 -0.5014
  606MOL0     C81733   5.238  10.731   5.397 -0.3362  0.0859 -0.0004
  606MOL0     O81734   5.112  10.676   5.372  0.1670 -0.3265 -0.0526
  606MOL0     C81735   5.091  10.533   5.395  0.5096  0.0058 -0.7144
  606MOL0     C81736   5.036  10.517   5.536  0.5001 -0.1861 -0.5832
  606MOL0     C81737   4.886  10.516   5.545  0.1153  0.4064 -0.5554
  606MOL0     C81738   4.804  10.645   5.509  0.0515  0.1358 -0.4465
  606MOL0     C81739   4.840  10.764   5.590 -0.4434 -0.4735 -0.1253
  606MOL0     C81740   4.894  10.861   5.646  0.3314  0.4675  0.3853
  606MOL0     C81741   5.330  10.716   5.301 -0.4477 -0.2090  0.1259
  606MOL0     C81742   5.445  10.785   5.318 -0.3402  0.4016 -0.1568
  606MOL0     H81743   5.809  10.854   5.141 -1.0588  0.6090 -1.0401
  606MOL0     H81744   6.010  10.959   5.032  2.5683  0.9685  0.5810
  606MOL0     H81745   6.219  11.077   5.011 -4.4391 -2.1976  2.8219
  606MOL0     H81746   6.096  11.186   4.929  1.3811 -0.8972 -0.2063
  606MOL0     H81747   6.239  11.382   4.983 -0.3416  0.3984 -1.4534
  606MOL0     H81748   6.363  11.277   5.025  1.1403  0.5550 -3.0783
  606MOL0     H81749   6.405  11.176   4.827  0.1427 -0.4774 -2.6886
  606MOL0     H81750   6.259  11.240   4.752 -0.4685 -0.0058  0.8953
  606MOL0     H81751   6.368  11.470   4.758 -2.8925 -1.6804 -1.7443
  606MOL0     H81752   6.499  11.391   4.863 -1.6736  0.1651  1.6430
  606MOL0     H81753   6.559  11.255   4.665  0.6884  0.6818 -1.5958
  606MOL0     H81754   6.449  11.339   4.563  1.9364 -2.4677 -1.6330
  606MOL0     H81755   6.580  11.561   4.667  0.6618  0.8689 -0.9904
  606MOL0     H81756   6.692  11.425   4.709 -1.2346 -2.7294  0.3700
  606MOL0     H81757   6.586  11.474   4.422  0.0368 -2.3018 -1.1492
  606MOL0     H81758   6.734  11.546   4.469  0.5286 -2.2969 -3.0330
  606MOL0     H81759   6.681  11.250   4.497 -1.5974  0.1954  0.6863
  606MOL0     H81760   6.836  11.342   4.528 -0.1382  1.4565  0.2490
  606MOL0     H81761   6.956  11.456   4.310 -0.3439 -1.9107  1.1821
  606MOL0     H81762   7.121  11.402   4.105  1.8313 -3.4109  0.6868
  606MOL0     H81763   7.062  11.260   4.020 -0.9791 -0.0507 -0.4640
  606MOL0     H81764   6.888  11.410   3.903 -1.1051  0.5019 -0.0323
  606MOL0     H81765   7.062  11.433   3.860  1.7789  1.0351  1.5149
  606MOL0     H81766   7.059  11.582   4.057  1.1531 -1.1910 -0.6836
  606MOL0     H81767   6.881  11.592   4.039 -0.4696  1.6707 -0.7130
  606MOL0     H81768   6.898  11.669   3.816  3.0192 -1.1533 -2.3149
  606MOL0     H81769   7.065  11.712   3.837  1.0020 -0.7187  1.1551
  606MOL0     H81770   6.676  11.787   3.950 -0.1775  0.7728 -0.1300
  606MOL0     H81771   6.442  11.914   3.734  0.1051  1.8013  0.4403
  606MOL0     H81772   6.452  11.864   3.909 -0.8026  0.4885  0.9255
  606MOL0     H81773   6.412  12.025   3.862  2.7636  1.9539  2.4116
  606MOL0     H81774   6.714  12.561   3.676 -0.0285 -2.5145  0.0451
  606MOL0     H81775   6.570  12.748   3.587  3.6647 -1.9036 -2.6366
  606MOL0     H81776   6.345  12.862   3.713  0.9642  1.1904 -0.0842
  606MOL0     H81777   6.414  12.877   3.553  0.5542 -0.3012  1.3345
  606MOL0     H81778   6.218  13.046   3.617 -2.6746  2.8598 -1.7481
  606MOL0     H81779   6.195  12.952   3.465  1.2199 -0.3488  0.2520
  606MOL0     H81780   6.057  12.887   3.727 -2.5798 -1.1428 -0.1644
  606MOL0     H81781   6.051  12.786   3.599  1.5560 -1.2216  0.9924
  606MOL0     H81782   5.985  13.091   3.619  0.7903 -0.1848 -0.1629
  606MOL0     H81783   5.934  12.988   3.470  1.6365  1.3509 -0.8644
  606MOL0     H81784   5.836  12.989   3.764  0.3375 -4.0482  0.2678
  606MOL0     H81785   5.810  12.852   3.652 -0.4658 -0.4769  2.7357
  606MOL0     H81786   5.708  13.048   3.493 -0.0967 -0.8833  0.3860
  606MOL0     H81787   5.610  12.966   3.620 -0.1769 -0.2968 -1.9722
  606MOL0     H81788   5.750  13.225   3.625  0.2769 -1.3823 -1.5982
  606MOL0     H81789   5.679  13.156   3.774 -0.0803  2.7293  0.2084
  606MOL0     H81790   5.501  13.298   3.662 -0.6230  0.7056 -1.9671
  606MOL0     H81791   5.456  13.137   3.641  1.9244 -2.3196 -0.4109
  606MOL0     H81792   6.225  12.490   3.586 -0.3573 -2.8543  0.4601
  606MOL0     H81793   6.363  12.302   3.675 -0.3262 -0.9363 -2.6227
  606MOL0     H81794   6.846  12.198   3.743 -1.2324  0.3881 -1.6919
  606MOL0     H81795   7.011  12.036   3.861 -0.1339 -1.8485  3.1221
  606MOL0     H81796   6.027  11.235   5.358 -0.5609 -0.0500  0.3524
  606MOL0     H81797   5.843  11.111   5.465  0.4315  2.3950 -0.5053
  606MOL0     H81798   5.398  10.927   5.622  0.4263 -1.6513  0.3846
  606MOL0     H81799   5.178  10.810   5.582  1.0951  0.1830  1.1325
  606MOL0     H81800   5.019  10.493   5.323 -0.7042  0.9580 -0.0691
  606MOL0     H81801   5.186  10.480   5.391  2.5955  3.3485  0.5109
  606MOL0     H81802   5.083  10.585   5.608  3.0221 -0.5169 -1.7979
  606MOL0     H81803   5.072  10.417   5.562  1.7315  0.4141  0.1131
  606MOL0     H81804   4.867  10.507   5.653  2.7779 -0.1333 -0.0454
  606MOL0     H81805   4.852  10.423   5.498 -0.0586  0.5347 -0.6831
  606MOL0     H81806   4.700  10.619   5.534  0.5958  0.8137  2.9652
  606MOL0     H81807   4.817  10.660   5.401  0.7750  0.7009 -0.2820
  606MOL0     H81808   4.929  10.952   5.692  0.3045  1.7555 -1.9869
  606MOL0     H81809   5.313  10.655   5.212 -1.5948  0.1887  0.0603
  606MOL0     H81810   5.519  10.757   5.244 -1.2150  0.9954 -1.2891
  607MOL0     O81811  10.469   1.166   2.369  0.4988  0.0871 -0.5251
  607MOL0     C81812  10.477   1.261   2.447  0.7653  0.1504  0.5870
  607MOL0     O81813  10.381   1.355   2.477  0.6931 -0.0938  0.2163
  607MOL0     C81814  10.277   1.367   2.386  0.2077 -0.0800 -0.7473
  607MOL0     C81815  10.186   1.262   2.362  1.0000  0.3728 -0.2057
  607MOL0     C81816  10.083   1.286   2.269 -0.2283  0.5268 -0.0675
  607MOL0     C81817  10.063   1.410   2.206  0.2696  0.3533  0.1030
  607MOL0     O81818   9.956   1.421   2.124  0.6157  0.0380 -0.5247
  607MOL0     C81819   9.854   1.515   2.151  0.8814  0.2070 -0.2890
  607MOL0     C81820   9.797   1.496   2.299 -0.3581  0.6498  0.2448
  607MOL0     C81821   9.719   1.362   2.305  0.2232 -0.1304  1.3625
  607MOL0     C81822   9.676   1.327   2.443  0.4828 -0.3331 -0.2046
  607MOL0     C81823   9.575   1.202   2.432 -0.5183 -0.5322 -0.1443
  607MOL0     C81824   9.426   1.234   2.428 -0.1682  0.3497 -0.4488
  607MOL0     C81825   9.354   1.100   2.447  0.3343 -0.8139  0.1615
  607MOL0     C81826   9.203   1.119   2.481 -0.1699  0.9502 -0.1759
  607MOL0     N81827   9.146   1.220   2.391  0.2779 -0.3820  0.0434
  607MOL0     C81828   9.170   1.213   2.259 -0.5287 -0.5466  0.4595
  607MOL0     C81829   9.122   1.319   2.199  0.8826 -0.7493  0.0227
  607MOL0     C81830   9.150   1.361   2.064 -0.4548 -0.6293  0.5860
  607MOL0     C81831   9.060   1.290   1.960  0.3048 -0.6435 -1.4224
  607MOL0     C81832   9.039   1.371   1.834 -0.0711 -0.3456  0.6057
  607MOL0     C81833   8.944   1.307   1.730  0.0415  0.3542  0.3056
  607MOL0     O81834   8.812   1.292   1.785  0.0779 -0.0609  0.2912
  607MOL0     C81835   8.720   1.205   1.729  0.8283 -0.3791 -0.2273
  607MOL0     C81836   8.587   1.226   1.773  0.7249 -0.1834 -0.4299
  607MOL0     C81837   8.479   1.148   1.733  1.0588  0.2648  0.2032
  607MOL0     C81838   8.334   1.174   1.774 -0.2753  0.1914  0.1095
  607MOL0     C81839   8.505   1.033   1.643  0.1321 -0.1135 -1.0206
  607MOL0     C81840   8.404   0.939   1.594 -0.8550  0.1707  0.4531
  607MOL0     O81841   8.453   0.835   1.518 -0.2424 -0.2508 -0.0656
  607MOL0     C81842   8.359   0.739   1.498  0.2136 -0.1415  0.1728
  607MOL0     C81843   8.365   0.626   1.566 -0.8835  0.7147 -0.0353
  607MOL0     C81844   8.293   0.509   1.527 -0.3227 -0.1378 -0.6058
  607MOL0     C81845   8.204   0.510   1.418 -0.0447  0.6019  0.0460
  607MOL0     O81846   8.122   0.393   1.395 -0.6108  0.8061 -0.2335
  607MOL0     C81847   8.064   0.383   1.264  0.1904 -0.2439 -0.0331
  607MOL0     C81848   8.051   0.239   1.212 -0.2436 -0.1142  0.7785
  607MOL0     C81849   8.179   0.186   1.144 -0.0302 -0.2607  0.5455
  607MOL0     C81850   8.203   0.038   1.166  0.2552  0.1646 -0.6576
  607MOL0     C81851   8.310  -0.016   1.069 -0.4446  0.1466  0.6292
  607MOL0     C81852   8.286  -0.171   1.064  0.2675  0.1608 -0.2534
  607MOL0     C81853   8.427  -0.222   1.023  0.4453  0.7880  0.4061
  607MOL0     C81854   8.433  -0.375   1.007  0.0987 -0.3619 -0.0345
  607MOL0    Cl81855   8.274  -0.441   0.939 -0.3053 -0.3041  0.2470
  607MOL0     C81856   8.198   0.631   1.348 -1.0515 -0.6799  0.1689
  607MOL0     C81857   8.273   0.741   1.387  1.0390 -0.3214 -0.3699
  607MOL0     O81858   8.285   0.955   1.613  0.0454 -0.1911 -0.0262
  607MOL0     C81859   8.644   1.018   1.599  0.3035 -0.7387  0.5688
  607MOL0     C81860   8.738   1.111   1.634 -0.1591 -0.2841 -0.0259
  607MOL0     N81861   9.068   1.391   2.299  0.2888 -0.3412  0.2799
  607MOL0     N81862   9.086   1.336   2.413 -0.4541 -0.7177  0.0110
  607MOL0     C81863  10.159   1.507   2.230 -0.4175 -0.1803  0.9156
  607MOL0     C81864  10.264   1.483   2.312  0.2624 -0.7280 -1.3548
  607MOL0     C81865  10.594   1.278   2.515 -0.7396  0.3673  0.3363
  607MOL0     C81866  10.639   1.185   2.613  0.5243  0.2181  0.2902
  607MOL0     C81867  10.747   1.210   2.693 -1.4456  0.4793 -0.1960
  607MOL0     C81868  10.814   1.335   2.687  0.1982  0.4777  0.6604
  607MOL0     O81869  10.901   1.379   2.776  0.5421  0.6015  0.1123
  607MOL0     C81870  10.982   1.285   2.850  0.3683 -0.8660  0.1012
  607MOL0     C81871  11.106   1.354   2.895  0.6502 -0.0166  0.6354
  607MOL0     C81872  11.187   1.404   2.776 -0.2860  0.5617 -1.2657
  607MOL0     C81873  11.317   1.464   2.850 -1.1727 -0.1483  0.2449
  607MOL0     C81874  11.414   1.491   2.736 -0.3140  0.9126 -0.4954
  607MOL0     C81875  11.501   1.516   2.650  0.8386 -0.4430 -1.1899
  607MOL0     C81876  10.768   1.417   2.584 -0.0226  0.2861 -0.3878
  607MOL0     C81877  10.663   1.393   2.495  0.5578  0.5554  0.2825
  607MOL0     H81878  10.206   1.163   2.403  0.2901  0.3121  0.0067
  607MOL0     H81879  10.013   1.203   2.265 -0.1310  0.3945  0.7602
  607MOL0     H81880   9.893   1.614   2.128  0.2292  1.3374  2.9012
  607MOL0     H81881   9.766   1.495   2.089 -0.7084 -2.3328  2.4784
  607MOL0     H81882   9.879   1.489   2.371  0.1365  2.8043 -0.0554
  607MOL0     H81883   9.729   1.577   2.325 -1.3121 -0.7768  2.5238
  607MOL0     H81884   9.632   1.375   2.240  0.7860  2.7616  1.0382
  607MOL0     H81885   9.772   1.280   2.256  0.4908  1.9775 -2.2626
  607MOL0     H81886   9.767   1.313   2.502  0.9986 -0.0013 -0.8953
  607MOL0     H81887   9.626   1.415   2.486  1.8585  0.2464  0.2724
  607MOL0     H81888   9.603   1.141   2.345 -2.3318  2.6993 -3.2979
  607MOL0     H81889   9.599   1.158   2.529  1.0268  0.6413  0.0511
  607MOL0     H81890   9.410   1.304   2.510 -0.0168 -0.2106  0.0674
  607MOL0     H81891   9.399   1.293   2.340  1.8704  1.8410 -0.1382
  607MOL0     H81892   9.365   1.042   2.355 -3.0057  1.2715 -1.7618
  607MOL0     H81893   9.405   1.038   2.521 -0.0360 -1.8733 -0.4605
  607MOL0     H81894   9.188   1.144   2.587  1.9652 -1.6865  0.8733
  607MOL0     H81895   9.148   1.027   2.460 -0.7676  1.8188 -2.7120
  607MOL0     H81896   9.234   1.148   2.201 -0.8464  0.8739 -1.6041
  607MOL0     H81897   9.141   1.470   2.056  0.7342 -0.4593  1.2258
  607MOL0     H81898   9.254   1.338   2.037 -0.7682  1.8025 -3.4854
  607MOL0     H81899   8.967   1.278   2.017  0.2466  1.3722 -1.0240
  607MOL0     H81900   9.095   1.190   1.933 -1.9817 -1.3899 -1.7837
  607MOL0     H81901   9.141   1.385   1.796 -0.4395  2.3400  0.3472
  607MOL0     H81902   9.008   1.474   1.855 -0.2872 -0.3803  0.4552
  607MOL0     H81903   8.984   1.214   1.690 -1.3257  0.5388 -1.6592
  607MOL0     H81904   8.940   1.379   1.647  0.9308  1.2368  1.0007
  607MOL0     H81905   8.559   1.309   1.837  0.0996 -0.2493 -0.6089
  607MOL0     H81906   8.273   1.186   1.684 -0.8847 -0.6502  0.3969
  607MOL0     H81907   8.281   1.096   1.830 -3.9442  1.6080 -1.0452
  607MOL0     H81908   8.336   1.263   1.838  0.7222 -0.9351  1.7234
  607MOL0     H81909   8.437   0.623   1.647 -1.3308  1.0175  0.3787
  607MOL0     H81910   8.310   0.420   1.587  1.1844 -0.3810 -1.3575
  607MOL0     H81911   7.973   0.443   1.268  0.2979 -0.0806  3.6524
  607MOL0     H81912   8.130   0.434   1.194 -2.5236  0.6795 -2.0998
  607MOL0     H81913   8.002   0.182   1.292 -1.6815  0.6341  0.4629
  607MOL0     H81914   7.983   0.245   1.127  1.0298  0.5670 -0.2379
  607MOL0     H81915   8.267   0.239   1.180 -0.6583  1.4661 -0.3139
  607MOL0     H81916   8.166   0.207   1.038 -2.1404 -1.3710  0.5236
  607MOL0     H81917   8.242   0.022   1.267  1.1880  0.7777 -0.9074
  607MOL0     H81918   8.112  -0.022   1.152  0.8509 -0.8517 -0.3070
  607MOL0     H81919   8.403   0.020   1.113 -0.9332 -0.9716  2.7076
  607MOL0     H81920   8.286   0.039   0.977 -3.9697 -1.9048  0.1256
  607MOL0     H81921   8.256  -0.212   1.162  1.7490  3.8205  1.9068
  607MOL0     H81922   8.203  -0.190   0.995 -0.7920 -1.3636  1.3417
  607MOL0     H81923   8.504  -0.191   1.094  0.2122  0.2718  0.8929
  607MOL0     H81924   8.448  -0.185   0.922  1.2655  0.3483  0.4124
  607MOL0     H81925   8.444  -0.426   1.104  0.6529  0.9487  0.6167
  607MOL0     H81926   8.520  -0.405   0.948 -0.1326  0.1411 -0.6396
  607MOL0     H81927   8.138   0.637   1.258 -1.3807  0.5231  0.4508
  607MOL0     H81928   8.271   0.828   1.322  2.6202  0.3614  0.4255
  607MOL0     H81929   8.672   0.935   1.535 -2.1671 -1.6580  0.5564
  607MOL0     H81930   8.839   1.090   1.600 -0.6847 -2.1014 -0.6008
  607MOL0     H81931  10.137   1.598   2.177 -2.3332 -1.2279 -0.1807
  607MOL0     H81932  10.331   1.565   2.337  0.7990 -2.0362  2.0514
  607MOL0     H81933  10.601   1.083   2.616  2.0941 -0.5276 -1.9949
  607MOL0     H81934  10.778   1.137   2.767 -2.5629 -1.6353 -1.6939
  607MOL0     H81935  10.928   1.261   2.942  1.5285  1.3081  1.4200
  607MOL0     H81936  11.017   1.200   2.790  0.8002  0.5270 -1.6986
  607MOL0     H81937  11.170   1.284   2.950  0.8131 -2.4604 -2.3969
  607MOL0     H81938  11.075   1.432   2.966 -3.3599  1.8460 -2.7697
  607MOL0     H81939  11.129   1.483   2.727 -0.8820  0.4537 -0.7466
  607MOL0     H81940  11.217   1.321   2.711  0.3020 -0.1809 -0.0911
  607MOL0     H81941  11.367   1.388   2.912 -1.7317 -0.4898  0.2875
  607MOL0     H81942  11.287   1.556   2.901 -2.0347 -0.9955  1.3493
  607MOL0     H81943  11.583   1.527   2.582  2.0176  1.2511  0.4073
  607MOL0     H81944  10.823   1.511   2.582  0.0058  0.8187  5.7745
  607MOL0     H81945  10.629   1.475   2.433 -0.2637 -0.5500 -0.7877
  608MOL0     O81946   2.106  10.423   5.826  0.3261 -0.0540  0.9611
  608MOL0     C81947   2.016  10.478   5.890  0.2839  0.1239  0.6913
  608MOL0     O81948   1.880  10.478   5.865 -0.0842  0.2953 -0.1034
  608MOL0     C81949   1.836  10.398   5.765  0.4937  0.2021  0.7520
  608MOL0     C81950   1.861  10.260   5.769  1.0085  0.5833 -0.1050
  608MOL0     C81951   1.783  10.178   5.678 -0.6980 -0.3863 -0.7216
  608MOL0     C81952   1.696  10.223   5.590  0.4475 -0.3997 -0.1539
  608MOL0     O81953   1.631  10.137   5.511 -0.5058 -0.6222  0.1310
  608MOL0     C81954   1.494  10.158   5.523 -0.0576  0.4280  0.8097
  608MOL0     C81955   1.450  10.198   5.386  0.2132  0.3242  0.0098
  608MOL0     C81956   1.298  10.217   5.371 -0.1414 -0.5436 -0.8212
  608MOL0     C81957   1.245  10.257   5.231 -0.4992  0.5150  0.3388
  608MOL0     C81958   1.099  10.271   5.239 -0.0555 -0.5374  0.5290
  608MOL0     C81959   1.023  10.131   5.231  0.9437  0.6064 -0.1744
  608MOL0     C81960   0.867  10.150   5.243 -0.5471  0.0864  0.3307
  608MOL0     C81961   0.817  10.150   5.092  0.4551 -0.3061 -0.6985
  608MOL0     N81962   0.668  10.147   5.096 -0.0293 -0.7901  0.1148
  608MOL0     C81963   0.598  10.036   5.127 -0.9710 -0.6329  0.1496
  608MOL0     C81964   0.473  10.064   5.091 -1.4815 -1.0180  0.1448
  608MOL0     C81965   0.362   9.963   5.082 -0.4370  0.0578  0.5024
  608MOL0     C81966   0.249   9.983   5.183  0.3763  0.4888  0.6990
  608MOL0     C81967   0.200   9.858   5.245 -0.4098 -0.3664  0.6232
  608MOL0     C81968   0.073   9.900   5.320 -0.9899  0.1291 -0.1354
  608MOL0     O81969   0.124   9.959   5.439 -0.5425  0.1821  0.0309
  608MOL0     C81970   0.045  10.065   5.482 -0.3453  1.1217 -0.0500
  608MOL0     C81971  -0.082  10.041   5.547 -0.3607 -0.8127  0.8850
  608MOL0     C81972  -0.159  10.143   5.593  0.4972 -0.8546  0.1289
  608MOL0     C81973  -0.299  10.118   5.652  0.0794  0.5206 -0.2076
  608MOL0     C81974  -0.096  10.275   5.593  0.5234 -0.1821  0.5719
  608MOL0     C81975  -0.162  10.401   5.647 -0.5826  0.4560 -0.1586
  608MOL0     O81976  -0.220  10.389   5.766 -0.3834  0.0743  0.3298
  608MOL0     C81977  -0.300  10.494   5.798  0.2056 -0.2969 -0.0864
  608MOL0     C81978  -0.269  10.590   5.894  0.5730  0.4758 -0.2168
  608MOL0     C81979  -0.364  10.692   5.924 -0.3893  0.3174 -0.0102
  608MOL0     C81980  -0.490  10.694   5.864  0.0548 -0.0415  1.1606
  608MOL0     O81981  -0.584  10.793   5.884  0.2376  0.5121 -0.7755
  608MOL0     C81982  -0.726  10.742   5.885  0.1441 -0.0805 -0.2446
  608MOL0     C81983  -0.792  10.807   6.003  0.6603  0.4393 -1.0655
  608MOL0     C81984  -0.938  10.771   6.022 -0.0257 -0.0073  0.8307
  608MOL0     C81985  -1.035  10.823   5.919  0.3009 -0.3919 -0.4850
  608MOL0     C81986  -1.175  10.779   5.935  0.6974  1.2357 -0.8712
  608MOL0     C81987  -1.243  10.809   6.073 -0.2510  0.7179 -0.0841
  608MOL0     C81988  -1.382  10.747   6.088  0.4116  0.2273  0.0065
  608MOL0     C81989  -1.466  10.830   6.185 -1.4184  0.5051  0.1096
  608MOL0    Cl81990  -1.625  10.756   6.188  0.0859 -0.1865  0.0159
  608MOL0     C81991  -0.515  10.597   5.773  0.3742 -0.2378  0.7163
  608MOL0     C81992  -0.424  10.494   5.735  0.0895  0.0593  0.4066
  608MOL0     O81993  -0.140  10.505   5.579 -0.0356 -0.0042 -0.2646
  608MOL0     C81994   0.038  10.295   5.544 -0.1071  0.3217 -1.1655
  608MOL0     C81995   0.104  10.194   5.482 -0.2970  0.5510 -0.2032
  608MOL0     N81996   0.464  10.194   5.057  0.2864  0.0482  0.7858
  608MOL0     N81997   0.585  10.248   5.059  0.0674 -0.2148  0.3717
  608MOL0     C81998   1.691  10.365   5.576  0.0362  0.2696  0.2046
  608MOL0     C81999   1.750  10.452   5.665 -0.8473 -0.3437  0.5481
  608MOL0     C82000   2.053  10.534   6.020 -0.1856 -0.8994 -0.1201
  608MOL0     C82001   1.959  10.581   6.119 -0.7606 -1.3029  0.3217
  608MOL0     C82002   2.003  10.636   6.238 -0.2423 -0.4322  0.7506
  608MOL0     C82003   2.146  10.633   6.265 -0.0339 -0.3018  0.8543
  608MOL0     O82004   2.195  10.680   6.382  0.0929  0.0635  0.3537
  608MOL0     C82005   2.202  10.825   6.393 -0.4656 -0.6543 -0.2833
  608MOL0     C82006   2.330  10.899   6.353 -0.4982  1.6202  0.0471
  608MOL0     C82007   2.310  10.985   6.228  1.1634  0.1126 -0.2275
  608MOL0     C82008   2.439  11.050   6.189 -0.2120  0.0401  0.6331
  608MOL0     C82009   2.459  11.174   6.271  1.2364 -0.4001  0.4138
  608MOL0     C82010   2.451  11.281   6.339  0.5628  0.4796  0.2946
  608MOL0     C82011   2.228  10.604   6.166 -0.0157  1.1971  0.7459
  608MOL0     C82012   2.191  10.550   6.044  0.2577  0.2450 -0.8397
  608MOL0     H82013   1.933  10.221   5.840  0.3656 -1.6614 -0.5974
  608MOL0     H82014   1.801  10.071   5.678 -1.0328 -0.4447 -1.1255
  608MOL0     H82015   1.461  10.057   5.550 -2.3259  0.8882 -0.0285
  608MOL0     H82016   1.464  10.235   5.595  2.5713  2.7187 -0.3450
  608MOL0     H82017   1.495  10.293   5.356 -1.1241  0.7590 -0.7136
  608MOL0     H82018   1.490  10.120   5.320  0.3413 -0.4397  0.9639
  608MOL0     H82019   1.244  10.128   5.405 -0.1653 -0.3781 -0.4196
  608MOL0     H82020   1.254  10.302   5.424 -1.4329 -0.7049 -1.5773
  608MOL0     H82021   1.290  10.346   5.186  0.1829 -1.2649 -2.7388
  608MOL0     H82022   1.262  10.176   5.161 -2.0255  0.4073  0.0517
  608MOL0     H82023   1.072  10.328   5.329  1.8642  2.2602 -0.5076
  608MOL0     H82024   1.067  10.325   5.150 -0.6660 -1.9463 -0.1296
  608MOL0     H82025   1.054  10.076   5.142 -1.5477 -2.2296  0.5513
  608MOL0     H82026   1.052  10.065   5.313 -1.3031 -1.3820 -0.8621
  608MOL0     H82027   0.830  10.063   5.297 -0.0454 -0.6850 -0.5325
  608MOL0     H82028   0.829  10.237   5.299  3.6370  2.8224 -0.5782
  608MOL0     H82029   0.858  10.065   5.036  2.5182  0.2860 -0.1762
  608MOL0     H82030   0.859  10.240   5.047 -1.5783  1.2099  0.2832
  608MOL0     H82031   0.632   9.936   5.150 -1.9012 -1.5847 -2.3352
  608MOL0     H82032   0.341   9.967   4.974  1.3746 -0.3031  0.1114
  608MOL0     H82033   0.412   9.873   5.118 -1.0204 -0.3427  0.3230
  608MOL0     H82034   0.174  10.045   5.133  1.2054 -0.1220 -1.4083
  608MOL0     H82035   0.276  10.054   5.262 -0.5402  0.5322  0.9839
  608MOL0     H82036   0.277   9.824   5.315  1.0529  1.2006 -0.1503
  608MOL0     H82037   0.179   9.786   5.165  0.6885  0.8996 -0.8576
  608MOL0     H82038   0.005   9.815   5.325 -2.3962  1.2574  0.8309
  608MOL0     H82039   0.018   9.971   5.258 -1.5432  1.5695  1.8789
  608MOL0     H82040  -0.119   9.940   5.534  2.6288 -1.6610 -3.0457
  608MOL0     H82041  -0.295  10.024   5.707 -0.2375  1.6093  1.7480
  608MOL0     H82042  -0.333  10.191   5.726 -1.4800  0.5838 -0.9404
  608MOL0     H82043  -0.377  10.096   5.578 -3.4095  0.4980  3.1761
  608MOL0     H82044  -0.169  10.592   5.936  1.5746 -0.8248 -2.3713
  608MOL0     H82045  -0.327  10.769   5.990 -1.4830 -0.6718  1.8464
  608MOL0     H82046  -0.778  10.768   5.792  1.0534  0.1260 -0.7099
  608MOL0     H82047  -0.730  10.634   5.898 -1.2441 -0.2124 -1.4660
  608MOL0     H82048  -0.738  10.777   6.094  0.0775 -0.2333 -0.9237
  608MOL0     H82049  -0.775  10.914   5.992  0.8253  0.7557  1.5661
  608MOL0     H82050  -0.969  10.817   6.116 -0.1711 -0.2302  0.8926
  608MOL0     H82051  -0.941  10.662   6.034  0.8828 -0.1186  0.1874
  608MOL0     H82052  -1.023  10.932   5.920 -0.7419 -0.1122 -3.9554
  608MOL0     H82053  -1.020  10.787   5.816 -2.6149 -1.2176 -0.7099
  608MOL0     H82054  -1.192  10.672   5.920 -0.6125  1.3010 -0.0696
  608MOL0     H82055  -1.236  10.825   5.856 -2.5366 -0.4412  0.4332
  608MOL0     H82056  -1.191  10.774   6.163 -1.2032  0.5466  0.4197
  608MOL0     H82057  -1.246  10.917   6.060  1.0235  0.7245 -0.4994
  608MOL0     H82058  -1.376  10.642   6.120  1.4111  0.0775 -0.6137
  608MOL0     H82059  -1.425  10.758   5.988  0.3951  0.4955  0.0420
  608MOL0     H82060  -1.477  10.931   6.146 -1.0834  0.7675  0.6812
  608MOL0     H82061  -1.428  10.833   6.287  0.6678  2.5805 -0.6478
  608MOL0     H82062  -0.603  10.608   5.709  2.5440  3.8257 -1.9677
  608MOL0     H82063  -0.459  10.425   5.659  1.5675 -0.7158  0.4093
  608MOL0     H82064   0.088  10.391   5.551  0.6551 -0.0857 -0.8460
  608MOL0     H82065   0.206  10.205   5.446  0.0992  0.1304  0.7361
  608MOL0     H82066   1.630  10.410   5.498  0.7879  0.9042 -0.0372
  608MOL0     H82067   1.731  10.557   5.648  0.7719  0.3725  2.6870
  608MOL0     H82068   1.852  10.576   6.098 -0.8092  2.3409 -1.0716
  608MOL0     H82069   1.927  10.665   6.310  1.9223  1.6926  2.3582
  608MOL0     H82070   2.118  10.866   6.337  0.8318 -1.9830 -3.4823
  608MOL0     H82071   2.190  10.846   6.499  1.6174  0.2655 -0.1706
  608MOL0     H82072   2.397  10.819   6.320 -2.4776 -0.4502  0.7776
  608MOL0     H82073   2.388  10.948   6.432 -0.1517 -1.3167  1.7340
  608MOL0     H82074   2.237  11.059   6.262 -0.2851 -2.2562  2.1245
  608MOL0     H82075   2.261  10.929   6.148  0.1953  1.8235 -0.8947
  608MOL0     H82076   2.436  11.089   6.087 -1.3084 -0.7403  0.3555
  608MOL0     H82077   2.532  10.992   6.196  0.0355 -0.0612 -2.2376
  608MOL0     H82078   2.438  11.371   6.395 -1.1383  1.3161 -1.3353
  608MOL0     H82079   2.336  10.605   6.181  0.2534 -2.8457  0.2886
  608MOL0     H82080   2.269  10.528   5.973  1.1387 -0.5352  0.3471
  609MOL0     O82081   5.790   2.315   3.098 -0.0137 -0.2465 -0.3462
  609MOL0     C82082   5.729   2.211   3.079  0.9524  0.1392 -0.2172
  609MOL0     O82083   5.767   2.087   3.118  0.6494 -0.1735 -0.3660
  609MOL0     C82084   5.897   2.060   3.159 -0.2489 -0.4066  0.7778
  609MOL0     C82085   5.906   1.973   3.266 -1.2009  0.1846 -0.2853
  609MOL0     C82086   6.028   1.933   3.322  0.9356  0.3088 -1.0795
  609MOL0     C82087   6.148   1.988   3.275  0.4109  0.1052  0.0683
  609MOL0     O82088   6.263   1.959   3.342 -0.1604  0.1776 -0.3639
  609MOL0     C82089   6.364   1.910   3.252  0.0989 -0.7169 -0.7066
  609MOL0     C82090   6.468   1.834   3.326 -0.1377 -0.8950 -0.1663
  609MOL0     C82091   6.538   1.930   3.434 -0.1385  0.8804  0.2049
  609MOL0     C82092   6.674   1.867   3.475  0.4535  1.1703  0.1937
  609MOL0     C82093   6.751   1.935   3.594  0.9102 -0.1339 -0.1793
  609MOL0     C82094   6.890   1.877   3.626 -0.3051 -0.3504 -0.8319
  609MOL0     C82095   6.992   1.942   3.532  0.7128 -0.0284  0.5128
  609MOL0     C82096   7.083   1.839   3.472 -0.7177  0.3330 -0.0643
  609MOL0     N82097   7.021   1.742   3.373 -0.1138 -0.4605  0.0023
  609MOL0     C82098   6.979   1.617   3.407  0.1499  0.7200  0.0076
  609MOL0     C82099   6.966   1.547   3.294 -0.2085 -0.2317  0.0317
  609MOL0     C82100   6.922   1.401   3.291 -0.8675 -0.3111  0.1969
  609MOL0     C82101   6.772   1.384   3.319 -0.6681  0.5291  0.2849
  609MOL0     C82102   6.686   1.485   3.249 -0.7560  0.2872  0.4981
  609MOL0     C82103   6.535   1.452   3.250  0.1237 -0.8918 -0.7195
  609MOL0     O82104   6.462   1.533   3.167 -0.1467 -0.5590  0.4139
  609MOL0     C82105   6.331   1.517   3.160  0.8334 -0.3471 -0.5923
  609MOL0     C82106   6.247   1.432   3.237  0.4392  0.5158  0.4614
  609MOL0     C82107   6.104   1.427   3.225 -0.1891  1.1923 -0.0665
  609MOL0     C82108   6.030   1.330   3.325  0.0802 -0.1466  0.2999
  609MOL0     C82109   6.049   1.505   3.133  0.2604 -0.8848  0.0785
  609MOL0     C82110   5.899   1.494   3.102  0.3931 -0.4487 -0.4512
  609MOL0     O82111   5.863   1.580   2.996 -0.0250  0.0964  0.0334
  609MOL0     C82112   5.731   1.600   2.965 -0.1189 -0.1130  0.7943
  609MOL0     C82113   5.622   1.508   2.975 -0.6202 -0.3730  0.5161
  609MOL0     C82114   5.496   1.546   2.949  0.0005 -0.6512  0.3363
  609MOL0     C82115   5.463   1.673   2.914 -0.0550 -0.1309  0.7402
  609MOL0     O82116   5.341   1.728   2.885  0.0828  0.1136 -0.1710
  609MOL0     C82117   5.234   1.632   2.895 -0.8650 -0.0871  0.0998
  609MOL0     C82118   5.108   1.698   2.849 -0.0468  0.0904  0.3091
  609MOL0     C82119   4.979   1.626   2.887 -0.0550 -0.0891 -0.1786
  609MOL0     C82120   4.854   1.681   2.824  0.4252  0.4021 -0.4180
  609MOL0     C82121   4.743   1.583   2.845  0.1003 -0.5039  0.5407
  609MOL0     C82122   4.604   1.656   2.850  0.1271  0.6069 -0.2459
  609MOL0     C82123   4.569   1.691   2.708 -0.1404  0.5410  0.4683
  609MOL0     C82124   4.468   1.600   2.640 -0.2665  0.0957  0.2134
  609MOL0    Cl82125   4.539   1.435   2.615  0.2162  0.5939 -0.3894
  609MOL0     C82126   5.568   1.765   2.894 -1.6598 -0.5169 -0.0878
  609MOL0     C82127   5.700   1.725   2.907 -0.5698 -0.3730 -0.7424
  609MOL0     O82128   5.822   1.414   3.147 -0.3492  0.3681 -0.1022
  609MOL0     C82129   6.125   1.605   3.062  0.9182  0.3103  0.3301
  609MOL0     C82130   6.266   1.599   3.067  1.5102 -0.0730 -0.0646
  609MOL0     N82131   6.984   1.643   3.193  0.5200  0.0914  0.2930
  609MOL0     N82132   7.017   1.758   3.237  0.4517  0.4577  0.6651
  609MOL0     C82133   6.138   2.082   3.164 -0.4976  0.0084  0.5410
  609MOL0     C82134   6.015   2.114   3.109 -0.0843 -0.3484  0.9363
  609MOL0     C82135   5.590   2.239   3.029  0.2471  0.6851 -0.2562
  609MOL0     C82136   5.542   2.366   2.998  0.5291 -0.9969 -0.8673
  609MOL0     C82137   5.415   2.377   2.959  0.4401 -0.0339 -0.2958
  609MOL0     C82138   5.331   2.267   2.921  0.0769 -0.5580 -0.2082
  609MOL0     O82139   5.202   2.279   2.872 -0.2908 -0.1584  0.1514
  609MOL0     C82140   5.126   2.403   2.901  0.0990  0.5429  0.6584
  609MOL0     C82141   4.985   2.377   2.849  0.3529  0.2249  0.0533
  609MOL0     C82142   4.921   2.246   2.913  0.6592  0.4498  0.8714
  609MOL0     C82143   4.779   2.225   2.854 -0.2751 -0.6227 -0.5854
  609MOL0     C82144   4.762   2.110   2.777 -0.2426  0.5053  0.1049
  609MOL0     C82145   4.747   2.017   2.701  0.0652 -0.7098 -0.0748
  609MOL0     C82146   5.381   2.138   2.938 -0.8813 -0.1409 -0.1843
  609MOL0     C82147   5.509   2.127   2.998 -0.7822  0.7235  0.7514
  609MOL0     H82148   5.819   1.922   3.306 -0.0204 -0.9863  0.8400
  609MOL0     H82149   6.035   1.862   3.404  1.7877  1.2091 -0.3435
  609MOL0     H82150   6.304   1.853   3.181 -2.0311  0.9272 -0.3303
  609MOL0     H82151   6.408   2.000   3.207 -0.8833  1.4128  2.2374
  609MOL0     H82152   6.425   1.748   3.379 -2.0621 -1.0046 -1.7928
  609MOL0     H82153   6.540   1.795   3.253  0.1651  0.3511 -0.5555
  609MOL0     H82154   6.554   2.030   3.394 -1.3161  0.4066 -1.5391
  609MOL0     H82155   6.483   1.947   3.527  0.5451 -0.6206  0.9228
  609MOL0     H82156   6.652   1.763   3.497 -0.9076  0.3313 -4.1322
  609MOL0     H82157   6.745   1.869   3.391 -0.4777 -0.3305 -0.6776
  609MOL0     H82158   6.752   2.040   3.566  0.1838 -0.6928 -2.5940
  609MOL0     H82159   6.686   1.938   3.682 -1.3992  1.4205 -1.8434
  609MOL0     H82160   6.923   1.909   3.726 -0.0556 -0.7900 -0.7730
  609MOL0     H82161   6.889   1.768   3.627 -3.8005 -0.4383  0.1604
  609MOL0     H82162   6.947   1.985   3.442  2.9731  0.1216 -0.6282
  609MOL0     H82163   7.053   2.025   3.568  1.6971 -0.5705  0.1279
  609MOL0     H82164   7.137   1.780   3.546 -2.3670 -0.2787  0.7092
  609MOL0     H82165   7.163   1.883   3.413 -0.5084  0.7403  0.5115
  609MOL0     H82166   6.963   1.572   3.505  2.9868 -0.5097 -0.0041
  609MOL0     H82167   6.965   1.348   3.205 -0.6620 -1.2539  0.8682
  609MOL0     H82168   6.974   1.339   3.365 -1.6651 -2.3956 -0.8781
  609MOL0     H82169   6.757   1.382   3.427 -1.6786  1.5428  0.1854
  609MOL0     H82170   6.744   1.283   3.289 -0.4776  0.4657  0.3174
  609MOL0     H82171   6.715   1.506   3.145  2.4715 -0.4728  1.1536
  609MOL0     H82172   6.715   1.578   3.300  2.0601 -1.4778  2.3772
  609MOL0     H82173   6.502   1.451   3.354 -0.8207 -0.6375 -1.0051
  609MOL0     H82174   6.524   1.347   3.220 -3.2084 -1.0253  0.5489
  609MOL0     H82175   6.289   1.359   3.306  1.6531 -0.0751 -0.8346
  609MOL0     H82176   6.088   1.291   3.409  2.9351 -2.2019 -2.3799
  609MOL0     H82177   5.951   1.391   3.369  1.6042  0.8125  1.8281
  609MOL0     H82178   5.986   1.244   3.273  0.7481 -0.9367  1.0165
  609MOL0     H82179   5.626   1.403   3.004 -0.2290 -0.7319 -0.7446
  609MOL0     H82180   5.421   1.468   2.960 -2.3681  0.9843 -2.7469
  609MOL0     H82181   5.249   1.541   2.836 -2.3764 -0.7629  0.7205
  609MOL0     H82182   5.226   1.605   3.000 -1.3094 -1.6342 -0.3113
  609MOL0     H82183   5.096   1.798   2.889  0.0855  0.7856 -1.2997
  609MOL0     H82184   5.109   1.707   2.740 -1.8631  1.3760  0.3419
  609MOL0     H82185   4.969   1.609   2.995 -2.6051  2.1406  0.0644
  609MOL0     H82186   4.999   1.530   2.840 -1.5812  0.3432 -1.8097
  609MOL0     H82187   4.832   1.782   2.859  1.7065  0.0731  1.4793
  609MOL0     H82188   4.870   1.700   2.717 -1.0117  1.2206 -0.5107
  609MOL0     H82189   4.760   1.540   2.944  1.3314  2.1610  1.5767
  609MOL0     H82190   4.746   1.503   2.770  0.1977 -1.0339  1.0984
  609MOL0     H82191   4.532   1.585   2.893  1.4426  0.2456  1.4642
  609MOL0     H82192   4.612   1.740   2.919  2.9215  1.3289 -1.3276
  609MOL0     H82193   4.651   1.705   2.637 -0.0103 -3.2941 -0.3766
  609MOL0     H82194   4.518   1.786   2.726 -0.2804  0.3884  0.8953
  609MOL0     H82195   4.449   1.651   2.545  0.9265  4.8074  2.2373
  609MOL0     H82196   4.381   1.590   2.706 -0.4049 -0.6686 -0.0836
  609MOL0     H82197   5.567   1.868   2.861  3.5967  0.3815  1.7107
  609MOL0     H82198   5.776   1.801   2.889  2.3757 -3.2817 -1.6479
  609MOL0     H82199   6.091   1.668   2.981  0.4067 -0.1527  0.1760
  609MOL0     H82200   6.327   1.662   3.002  0.6108  1.9070  0.9292
  609MOL0     H82201   6.230   2.130   3.134  0.7389 -2.4388  0.1388
  609MOL0     H82202   6.005   2.184   3.026  2.2612 -1.8287 -0.7321
  609MOL0     H82203   5.601   2.457   3.008 -3.0870  1.7069 -2.1465
  609MOL0     H82204   5.381   2.479   2.949  0.8425  0.2182  0.7766
  609MOL0     H82205   5.114   2.408   3.010 -2.2708 -0.6364  0.5170
  609MOL0     H82206   5.173   2.495   2.864  4.1686 -1.9706 -1.1772
  609MOL0     H82207   4.982   2.365   2.741 -0.7436  2.6594 -0.2391
  609MOL0     H82208   4.933   2.470   2.874  0.6299  0.9091 -1.7821
  609MOL0     H82209   4.925   2.237   3.022  0.9906  1.7466  0.9837
  609MOL0     H82210   4.982   2.167   2.868  1.9268  2.1900 -0.6307
  609MOL0     H82211   4.744   2.305   2.788 -3.0849 -2.1522 -1.1227
  609MOL0     H82212   4.703   2.227   2.932 -1.3962 -0.0918 -1.6520
  609MOL0     H82213   4.732   1.940   2.628  0.5460  1.9914 -3.2797
  609MOL0     H82214   5.314   2.054   2.923 -0.0626 -1.0318  1.0063
  609MOL0     H82215   5.541   2.029   3.032  2.4479  0.4090 -2.6026
  610MOL0     O82216  10.707   2.331  10.524 -0.1393  0.5540  0.1085
  610MOL0     C82217  10.725   2.400  10.429  0.1811  0.1500 -0.3000
  610MOL0     O82218  10.642   2.495  10.383  0.0687  0.8506 -0.1135
  610MOL0     C82219  10.522   2.517  10.455 -0.2825  0.2271 -0.1433
  610MOL0     C82220  10.404   2.518  10.373 -0.3345 -0.1245 -0.1505
  610MOL0     C82221  10.280   2.549  10.445 -0.2085  0.0128 -0.1040
  610MOL0     C82222  10.270   2.584  10.580 -0.3039  0.4774  0.5949
  610MOL0     O82223  10.140   2.591  10.628  0.6572  0.1286  0.0331
  610MOL0     C82224  10.116   2.613  10.770 -0.3150  0.1850 -0.1308
  610MOL0     C82225   9.975   2.607  10.804  0.0560 -0.2173  0.5575
  610MOL0     C82226   9.900   2.711  10.727  1.4435 -0.6361 -0.1656
  610MOL0     C82227   9.762   2.728  10.773 -0.5175  0.1478  0.0197
  610MOL0     C82228   9.692   2.856  10.713 -0.2613  0.9132 -0.0654
  610MOL0     C82229   9.675   2.853  10.557  0.2925  0.1858 -0.3358
  610MOL0     C82230   9.576   2.963  10.508  0.2551  0.4702  0.6572
  610MOL0     C82231   9.546   2.959  10.359 -0.0537  0.8418 -0.1491
  610MOL0     N82232   9.461   3.062  10.307 -0.3056 -0.1399  0.3660
  610MOL0     C82233   9.457   3.195  10.338  0.4880 -0.8154 -0.1521
  610MOL0     C82234   9.336   3.240  10.277 -1.7663 -0.2642 -0.0827
  610MOL0     C82235   9.278   3.376  10.267  0.1738 -0.5332  0.4563
  610MOL0     C82236   9.280   3.455  10.398  0.2152  0.9938  0.2419
  610MOL0     C82237   9.274   3.607  10.381  0.2715  0.0416  0.2065
  610MOL0     C82238   9.141   3.646  10.319 -0.1919 -0.1359 -1.1085
  610MOL0     O82239   9.045   3.639  10.420  0.4813 -0.0540 -0.2738
  610MOL0     C82240   8.915   3.650  10.378  0.5040  0.5579  0.1390
  610MOL0     C82241   8.829   3.539  10.383 -0.4153  0.1570  0.3908
  610MOL0     C82242   8.687   3.546  10.360  0.1429  0.3094 -0.0591
  610MOL0     C82243   8.605   3.428  10.406  0.0863  0.5145 -0.6426
  610MOL0     C82244   8.630   3.667  10.317 -0.1498  0.8655  0.3549
  610MOL0     C82245   8.489   3.680  10.289 -0.4385 -0.2261  0.3443
  610MOL0     O82246   8.443   3.800  10.320 -0.1598  0.1497 -0.2152
  610MOL0     C82247   8.317   3.842  10.296  0.4008  0.2668 -0.1231
  610MOL0     C82248   8.285   3.977  10.314  0.2046 -0.0800  0.0829
  610MOL0     C82249   8.153   4.026  10.315  0.2683 -0.1436  0.2116
  610MOL0     C82250   8.041   3.949  10.298  0.4847  0.3513 -0.2310
  610MOL0     O82251   7.916   4.000  10.280 -0.4372  1.2782 -0.3653
  610MOL0     C82252   7.895   4.142  10.256 -0.1911 -0.1766  0.1320
  610MOL0     C82253   7.739   4.156  10.221 -0.1607 -0.3502  0.1007
  610MOL0     C82254   7.646   4.120  10.338 -0.0881 -0.1814  0.0846
  610MOL0     C82255   7.502   4.120  10.280 -1.1403 -0.7148 -0.4363
  610MOL0     C82256   7.399   4.114  10.392 -0.6652  0.1275  1.3313
  610MOL0     C82257   7.403   4.249  10.469 -0.5049 -0.2460 -0.1410
  610MOL0     C82258   7.342   4.242  10.612 -0.4680 -0.1140  0.0194
  610MOL0     C82259   7.312   4.380  10.680 -0.0179 -1.6230  0.1804
  610MOL0    Cl82260   7.174   4.457  10.603 -0.0635  0.4992 -0.0456
  610MOL0     C82261   8.067   3.808  10.279  0.6742 -0.1504  0.0656
  610MOL0     C82262   8.198   3.758  10.278  0.4268  0.6266 -0.1064
  610MOL0     O82263   8.427   3.591  10.229  0.5297  0.6881 -0.3735
  610MOL0     C82264   8.722   3.780  10.297  0.0186  0.1254 -0.1766
  610MOL0     C82265   8.862   3.769  10.339  0.6955  0.7148 -0.5299
  610MOL0     N82266   9.287   3.135  10.206  0.9461  0.1633 -0.8359
  610MOL0     N82267   9.360   3.036  10.219  0.4365 -0.2685 -0.4071
  610MOL0     C82268  10.389   2.585  10.652 -0.1836 -0.2524 -0.5509
  610MOL0     C82269  10.508   2.552  10.588  0.4119  0.4444 -0.0058
  610MOL0     C82270  10.847   2.394  10.346 -0.0370  1.2291 -0.1835
  610MOL0     C82271  10.952   2.318  10.397 -0.2916  0.1924 -0.8247
  610MOL0     C82272  11.069   2.302  10.323 -0.0036  0.6394 -0.4884
  610MOL0     C82273  11.084   2.363  10.203  0.6626 -0.3342 -0.0579
  610MOL0     O82274  11.196   2.362  10.118  0.3587  0.2377  0.3931
  610MOL0     C82275  11.274   2.239  10.119 -0.0594 -0.6725  0.1939
  610MOL0     C82276  11.388   2.254  10.214 -0.4493 -0.8642  0.0450
  610MOL0     C82277  11.503   2.337  10.150 -0.5090  0.4284  0.3676
  610MOL0     C82278  11.468   2.486  10.106 -0.1338 -0.4220  0.2062
  610MOL0     C82279  11.586   2.553  10.050 -0.6223 -0.2722  1.6386
  610MOL0     C82280  11.684   2.612  10.007 -1.1313  0.8475 -0.6054
  610MOL0     C82281  10.985   2.452  10.161  0.5305 -0.4919  0.1242
  610MOL0     C82282  10.864   2.468  10.234 -0.2355 -0.3557  0.1289
  610MOL0     H82283  10.416   2.485  10.271  1.6597  0.0342  0.0018
  610MOL0     H82284  10.192   2.535  10.382  0.6654 -2.9374 -0.8057
  610MOL0     H82285  10.161   2.530  10.826  0.8103 -1.3241 -3.0615
  610MOL0     H82286  10.156   2.711  10.798 -0.9911  0.4971 -0.2445
  610MOL0     H82287   9.938   2.507  10.778  0.2961  0.1108 -1.1755
  610MOL0     H82288   9.956   2.621  10.911  1.4155 -0.3548  0.8341
  610MOL0     H82289   9.943   2.810  10.744 -3.1779  1.4246  1.0559
  610MOL0     H82290   9.914   2.690  10.620  4.1106 -0.9040  0.1709
  610MOL0     H82291   9.703   2.637  10.763  1.1894 -1.5880  3.8497
  610MOL0     H82292   9.763   2.755  10.879  2.1928  0.8662 -0.1209
  610MOL0     H82293   9.600   2.881  10.767 -1.2659  0.6350 -1.5890
  610MOL0     H82294   9.752   2.944  10.737 -1.9238  2.0161  0.2163
  610MOL0     H82295   9.770   2.865  10.505  0.8418 -1.8619  0.1288
  610MOL0     H82296   9.622   2.765  10.519 -1.8490 -0.2622  3.2478
  610MOL0     H82297   9.479   2.943  10.556 -0.0635 -2.1661 -0.9343
  610MOL0     H82298   9.621   3.059  10.533 -0.0070  0.8291 -0.2142
  610MOL0     H82299   9.500   2.860  10.355  1.3968  0.0398  1.5685
  610MOL0     H82300   9.637   2.947  10.299 -0.1116 -3.0188  0.2433
  610MOL0     H82301   9.521   3.248  10.408 -0.1829 -3.0217  2.2997
  610MOL0     H82302   9.346   3.435  10.204 -3.4287  1.3229 -2.0335
  610MOL0     H82303   9.177   3.374  10.226 -0.2424  0.9432  1.3699
  610MOL0     H82304   9.376   3.438  10.448  0.9431  0.0422 -1.3928
  610MOL0     H82305   9.196   3.427  10.462  2.0081  0.2344  2.3925
  610MOL0     H82306   9.356   3.647  10.320  0.4152  0.4504  0.6579
  610MOL0     H82307   9.283   3.662  10.475  1.0866  1.6037 -0.7386
  610MOL0     H82308   9.110   3.587  10.232 -1.7501 -2.2275  0.7633
  610MOL0     H82309   9.143   3.752  10.293  0.6807 -0.5224 -2.7475
  610MOL0     H82310   8.865   3.448  10.428 -0.3777  0.9046  1.9544
  610MOL0     H82311   8.552   3.383  10.321  3.6480  0.9585 -3.3135
  610MOL0     H82312   8.675   3.355  10.446  2.1507  1.9816 -1.4020
  610MOL0     H82313   8.540   3.453  10.490 -1.8476  1.8329 -2.4154
  610MOL0     H82314   8.370   4.041  10.336  0.9587 -0.1503 -2.3281
  610MOL0     H82315   8.132   4.132  10.325 -0.0051 -0.0889 -0.9114
  610MOL0     H82316   7.911   4.190  10.353  3.3475 -1.5694  0.3739
  610MOL0     H82317   7.953   4.208  10.191 -2.2699  4.1598  2.2085
  610MOL0     H82318   7.722   4.262  10.200 -0.8259 -0.5538 -0.4260
  610MOL0     H82319   7.719   4.092  10.135  2.1346 -0.3313 -0.5304
  610MOL0     H82320   7.656   4.184  10.427 -2.2172  1.4685 -0.7733
  610MOL0     H82321   7.664   4.019  10.377 -1.1145 -0.1326  0.7300
  610MOL0     H82322   7.485   4.214  10.226  2.0936 -0.4260 -1.1118
  610MOL0     H82323   7.486   4.035  10.213  0.3115  0.5427 -2.5016
  610MOL0     H82324   7.407   4.030  10.462 -1.3304  0.9934  2.4879
  610MOL0     H82325   7.303   4.113  10.339  0.5436  2.5059 -1.1679
  610MOL0     H82326   7.507   4.280  10.485 -0.8626  2.2058 -1.9641
  610MOL0     H82327   7.365   4.326  10.402  1.5080  0.3676 -0.6230
  610MOL0     H82328   7.412   4.189  10.677  0.8358 -1.7002 -2.4890
  610MOL0     H82329   7.241   4.200  10.612  0.1503 -1.6620 -0.2252
  610MOL0     H82330   7.405   4.438  10.687  0.3219 -2.1024 -0.2865
  610MOL0     H82331   7.271   4.367  10.781 -1.3403 -0.3278 -0.1605
  610MOL0     H82332   7.981   3.747  10.251 -1.0157  0.4219  3.4738
  610MOL0     H82333   8.209   3.650  10.278  0.6035  0.6448 -0.0621
  610MOL0     H82334   8.691   3.880  10.269  0.9689  0.4967  0.0497
  610MOL0     H82335   8.915   3.862  10.325 -1.6136  2.5336  1.7809
  610MOL0     H82336  10.398   2.611  10.757 -0.6003 -1.8959 -0.0728
  610MOL0     H82337  10.600   2.563  10.644  0.6083 -3.1200  0.5590
  610MOL0     H82338  10.953   2.267  10.493  2.1251 -0.6048 -1.1934
  610MOL0     H82339  11.153   2.237  10.348  0.6715 -0.2182 -4.2588
  610MOL0     H82340  11.213   2.151  10.140 -1.8218  0.2350 -0.9084
  610MOL0     H82341  11.313   2.214  10.020  0.2361  0.9925 -0.1378
  610MOL0     H82342  11.443   2.160  10.227  0.5749 -0.8549 -3.3129
  610MOL0     H82343  11.359   2.305  10.306 -3.0655  2.0186 -2.1852
  610MOL0     H82344  11.540   2.280  10.064 -0.7368 -1.4755  1.4772
  610MOL0     H82345  11.575   2.347  10.232  0.7268 -1.8394 -0.3438
  610MOL0     H82346  11.434   2.537  10.197 -4.1047 -1.5401 -0.4623
  610MOL0     H82347  11.389   2.492  10.031 -1.8278 -2.1545  1.7259
  610MOL0     H82348  11.770   2.660   9.965  0.7686  0.9523  3.0194
  610MOL0     H82349  10.987   2.497  10.062  0.4951 -1.0756 -0.1524
  610MOL0     H82350  10.792   2.538  10.193 -0.7028 -0.7463  0.2668
  611MOL0     O82351  10.449   1.115   5.850 -0.2096 -0.4329 -0.2294
  611MOL0     C82352  10.490   1.231   5.829 -0.1885 -1.3053  0.1388
  611MOL0     O82353  10.423   1.326   5.754 -0.4238  0.5272 -0.8532
  611MOL0     C82354  10.310   1.288   5.685  0.5507  0.3102 -0.0607
  611MOL0     C82355  10.312   1.273   5.547  0.3554  0.3051  0.2734
  611MOL0     C82356  10.195   1.234   5.471 -0.0331  0.5135  0.2485
  611MOL0     C82357  10.077   1.224   5.542  0.5249  0.2910 -0.2628
  611MOL0     O82358   9.952   1.194   5.480 -0.4315  0.1047 -0.3811
  611MOL0     C82359   9.927   1.287   5.379 -0.6079  1.1729  0.4813
  611MOL0     C82360   9.780   1.303   5.343  0.3147 -0.0773 -0.1743
  611MOL0     C82361   9.748   1.438   5.274  0.7979 -0.6065  0.6580
  611MOL0     C82362   9.612   1.415   5.200  0.4101 -0.2036  0.6229
  611MOL0     C82363   9.529   1.540   5.175 -0.6870  0.5165 -0.3343
  611MOL0     C82364   9.394   1.511   5.098  0.5101 -1.3326  0.1344
  611MOL0     C82365   9.307   1.627   5.066  0.4808 -0.0242 -0.0101
  611MOL0     C82366   9.178   1.582   4.994  0.3257  0.4002 -0.5138
  611MOL0     N82367   9.080   1.689   4.969  0.2032  0.5546  0.0153
  611MOL0     C82368   9.039   1.734   4.845 -0.2207 -0.1122  0.0021
  611MOL0     C82369   8.939   1.824   4.863  0.3452  0.2533 -0.1287
  611MOL0     C82370   8.859   1.890   4.752  0.7991  0.1355 -0.5185
  611MOL0     C82371   8.734   1.819   4.705 -0.5662 -0.7933 -0.6880
  611MOL0     C82372   8.759   1.673   4.673 -0.5866 -0.4408  0.8360
  611MOL0     C82373   8.631   1.606   4.593  0.9512  0.0622 -0.3921
  611MOL0     O82374   8.523   1.601   4.685  0.6563 -0.3317 -0.1443
  611MOL0     C82375   8.407   1.540   4.654  0.5389 -0.0923  0.5791
  611MOL0     C82376   8.386   1.475   4.527  1.2921  0.3053  0.2457
  611MOL0     C82377   8.260   1.414   4.497 -0.5823  0.0586  0.5142
  611MOL0     C82378   8.241   1.352   4.358  0.4285 -0.1829 -0.0424
  611MOL0     C82379   8.162   1.428   4.593  1.1169 -0.4251 -0.6971
  611MOL0     C82380   8.044   1.347   4.582 -1.5190 -0.9466  0.5390
  611MOL0     O82381   8.055   1.225   4.523 -0.6617  0.1125 -1.2226
  611MOL0     C82382   7.955   1.136   4.553  0.5580 -1.0018 -0.3253
  611MOL0     C82383   7.861   1.107   4.453 -1.0125  0.4526 -0.7953
  611MOL0     C82384   7.758   1.018   4.472 -0.3176 -0.2861  1.0706
  611MOL0     C82385   7.753   0.953   4.593  0.0180  0.1513  0.2020
  611MOL0     O82386   7.665   0.847   4.598  0.1139 -0.0223 -0.1842
  611MOL0     C82387   7.635   0.785   4.721  0.7399 -0.3115  0.1543
  611MOL0     C82388   7.507   0.703   4.702 -0.3794  0.9603  0.3684
  611MOL0     C82389   7.376   0.783   4.723 -0.1559  0.3412 -0.4343
  611MOL0     C82390   7.254   0.698   4.675  0.7384  0.1527  0.5379
  611MOL0     C82391   7.123   0.761   4.729 -0.7673 -0.2672 -0.3290
  611MOL0     C82392   7.081   0.895   4.665  0.1713  0.4461 -0.1065
  611MOL0     C82393   6.935   0.925   4.671 -0.4789 -0.1724 -0.1505
  611MOL0     C82394   6.900   1.055   4.604 -0.2008 -0.1104  0.4656
  611MOL0    Cl82395   6.719   1.096   4.632  0.0392  0.2826  0.0934
  611MOL0     C82396   7.843   0.988   4.698  0.2686 -0.2015  0.2198
  611MOL0     C82397   7.936   1.087   4.687 -0.7437  0.4740  0.6681
  611MOL0     O82398   7.943   1.392   4.637  0.4974  0.5184  0.2501
  611MOL0     C82399   8.187   1.492   4.715 -0.7133  0.1626 -0.5967
  611MOL0     C82400   8.312   1.544   4.751  0.3612 -0.2279 -0.0861
  611MOL0     N82401   8.928   1.839   5.001  0.2154 -0.9199  0.4735
  611MOL0     N82402   9.011   1.755   5.065 -0.1369 -0.1970  0.0519
  611MOL0     C82403  10.070   1.250   5.679  0.3634 -0.3961 -0.4189
  611MOL0     C82404  10.191   1.273   5.757 -0.9684 -0.0841  0.2406
  611MOL0     C82405  10.607   1.289   5.906  0.2298 -0.0483 -0.0069
  611MOL0     C82406  10.665   1.412   5.872  0.4753 -0.2274  0.2823
  611MOL0     C82407  10.783   1.452   5.933 -0.3929  0.6902  0.0202
  611MOL0     C82408  10.855   1.366   6.023  0.5500 -0.5444 -0.0738
  611MOL0     O82409  10.970   1.405   6.087  0.9626 -0.2916 -0.5877
  611MOL0     C82410  11.086   1.321   6.099  0.5830  0.0738 -0.7519
  611MOL0     C82411  11.206   1.373   6.023 -0.6985 -0.1664  0.1843
  611MOL0     C82412  11.325   1.281   6.049 -0.7534  0.4995  0.3008
  611MOL0     C82413  11.455   1.331   5.982 -0.5073 -0.1843  0.1868
  611MOL0     C82414  11.572   1.316   6.065 -0.3915  0.5974 -0.1500
  611MOL0     C82415  11.675   1.303   6.132  0.5939  0.4650 -0.4145
  611MOL0     C82416  10.800   1.243   6.055  0.0007 -0.2755 -0.3982
  611MOL0     C82417  10.685   1.207   5.996  0.8703 -0.6231 -0.4372
  611MOL0     H82418  10.412   1.280   5.505  1.4777 -6.4548  0.5706
  611MOL0     H82419  10.197   1.209   5.366 -0.9760  2.3876 -0.2664
  611MOL0     H82420   9.955   1.390   5.404 -1.3965  2.1998 -2.4491
  611MOL0     H82421   9.976   1.256   5.286 -0.5334  2.0026  0.2337
  611MOL0     H82422   9.750   1.222   5.278 -0.1023 -3.2651  3.6012
  611MOL0     H82423   9.720   1.286   5.433  1.3381  0.2194  0.5874
  611MOL0     H82424   9.743   1.519   5.348  1.0219  1.3072 -1.3021
  611MOL0     H82425   9.821   1.459   5.195 -1.3280  0.8993 -1.0334
  611MOL0     H82426   9.634   1.373   5.102  0.4013 -3.3489  1.8439
  611MOL0     H82427   9.551   1.332   5.237  1.3195 -0.9990  0.3820
  611MOL0     H82428   9.514   1.592   5.270  0.3049  1.8361 -0.8675
  611MOL0     H82429   9.596   1.607   5.120  2.1368 -0.1700  2.0452
  611MOL0     H82430   9.435   1.457   5.012  0.6252 -1.8718  0.5213
  611MOL0     H82431   9.338   1.441   5.160  0.0293 -1.6362 -0.6229
  611MOL0     H82432   9.262   1.667   5.158 -2.0741  0.0922 -1.2321
  611MOL0     H82433   9.361   1.704   5.010 -1.4311 -0.5692 -2.8054
  611MOL0     H82434   9.130   1.490   5.029 -0.9377  1.0566 -0.4650
  611MOL0     H82435   9.220   1.550   4.898  1.4314 -0.1103  0.1149
  611MOL0     H82436   9.059   1.696   4.745  1.4252  2.0769 -0.5854
  611MOL0     H82437   8.820   1.985   4.791  0.7603 -0.5666  1.1953
  611MOL0     H82438   8.926   1.907   4.667 -0.3096  4.8949 -0.7295
  611MOL0     H82439   8.717   1.862   4.607  1.1654 -1.8957 -1.5202
  611MOL0     H82440   8.646   1.832   4.770 -1.2689  0.0523 -1.7768
  611MOL0     H82441   8.764   1.613   4.764 -3.5879 -0.8257  0.8294
  611MOL0     H82442   8.855   1.655   4.623 -0.6148  0.0297  0.6091
  611MOL0     H82443   8.651   1.504   4.559  2.2875  0.5591 -1.1715
  611MOL0     H82444   8.603   1.662   4.503  0.7853 -0.4513 -0.6625
  611MOL0     H82445   8.471   1.469   4.459  0.6573  0.9445 -0.6256
  611MOL0     H82446   8.313   1.398   4.289 -1.6052  2.2012 -0.7388
  611MOL0     H82447   8.255   1.244   4.372  2.1398  0.1664  1.1819
  611MOL0     H82448   8.141   1.362   4.313  0.8877  1.8003 -0.7398
  611MOL0     H82449   7.878   1.130   4.348 -0.2143  2.2747 -0.3078
  611MOL0     H82450   7.690   0.982   4.395 -3.1856  1.2093  2.7462
  611MOL0     H82451   7.713   0.716   4.756  0.4080 -0.6797  0.1728
  611MOL0     H82452   7.615   0.853   4.804  0.1865 -2.9822  2.3512
  611MOL0     H82453   7.510   0.664   4.600  2.0213  1.4729  0.1651
  611MOL0     H82454   7.494   0.627   4.781 -1.0852  0.2704 -0.3971
  611MOL0     H82455   7.387   0.882   4.679 -1.1725  1.9605  2.6372
  611MOL0     H82456   7.344   0.804   4.825 -1.7855  2.4501 -1.3107
  611MOL0     H82457   7.246   0.704   4.566 -2.4400 -1.4886  0.5686
  611MOL0     H82458   7.261   0.599   4.720 -1.1190 -0.6200 -0.7344
  611MOL0     H82459   7.122   0.774   4.838  0.1204  2.6969 -0.5799
  611MOL0     H82460   7.040   0.692   4.709  0.4960 -1.7670 -0.5701
  611MOL0     H82461   7.123   0.964   4.739  0.8866 -0.7685  0.6527
  611MOL0     H82462   7.118   0.911   4.563  0.7827  0.0695  0.0525
  611MOL0     H82463   6.915   0.934   4.778  1.8985 -2.6620  0.5959
  611MOL0     H82464   6.869   0.847   4.632 -0.0703 -0.9033  0.5862
  611MOL0     H82465   6.927   1.059   4.498  3.4209  0.0562  1.2800
  611MOL0     H82466   6.959   1.138   4.644  3.3517 -1.9235 -0.6464
  611MOL0     H82467   7.836   0.940   4.796 -2.1078  3.1698  1.8979
  611MOL0     H82468   8.009   1.123   4.760  1.1375  0.1932 -0.9707
  611MOL0     H82469   8.107   1.479   4.788  0.1475 -0.2434  0.2980
  611MOL0     H82470   8.332   1.581   4.851 -0.8525  1.1951 -0.3400
  611MOL0     H82471   9.977   1.238   5.733  1.0098 -0.3760  0.7380
  611MOL0     H82472  10.196   1.296   5.864  1.9122  0.9607 -0.0242
  611MOL0     H82473  10.618   1.485   5.807  2.6337  1.1826  0.2406
  611MOL0     H82474  10.818   1.553   5.916  1.5436  0.1059  0.3835
  611MOL0     H82475  11.119   1.324   6.203 -0.3183  0.9419 -0.4715
  611MOL0     H82476  11.055   1.218   6.081 -3.5814  1.0517 -0.0382
  611MOL0     H82477  11.221   1.476   6.055  1.7599 -0.4876  0.2036
  611MOL0     H82478  11.186   1.399   5.918  0.1221 -0.0873  0.0441
  611MOL0     H82479  11.299   1.179   6.019  0.5420  0.6343 -1.4704
  611MOL0     H82480  11.339   1.279   6.157 -2.7593 -3.9697  0.7090
  611MOL0     H82481  11.455   1.439   5.968 -1.3980 -0.4054 -1.8645
  611MOL0     H82482  11.473   1.276   5.889 -2.9088  0.8580 -0.9777
  611MOL0     H82483  11.774   1.322   6.168 -0.1052 -0.4592  2.2083
  611MOL0     H82484  10.849   1.192   6.138 -2.1405  2.9624  3.1945
  611MOL0     H82485  10.653   1.112   6.036  1.5601  0.0015  1.7934
  612MOL0     O82486   2.416   9.095   2.405  0.2622  0.1208  1.2805
  612MOL0     C82487   2.441   9.206   2.447  0.1636 -0.0644  0.2714
  612MOL0     O82488   2.363   9.264   2.546 -0.6079 -0.2219 -0.0940
  612MOL0     C82489   2.237   9.226   2.586  0.0141 -0.3657  0.5176
  612MOL0     C82490   2.204   9.269   2.719 -0.7517 -0.7861  0.7581
  612MOL0     C82491   2.087   9.238   2.778 -0.6191 -0.4263 -0.0104
  612MOL0     C82492   1.985   9.175   2.705 -0.4841  0.0973  0.3734
  612MOL0     O82493   1.867   9.144   2.771 -0.2733  0.1945 -0.0687
  612MOL0     C82494   1.877   9.047   2.873  0.1516  0.4331 -0.9071
  612MOL0     C82495   1.813   8.919   2.821 -0.0589  0.8374 -0.3668
  612MOL0     C82496   1.659   8.912   2.797 -0.4618 -0.1818 -0.3475
  612MOL0     C82497   1.615   8.981   2.664 -0.2174  0.5726 -0.8402
  612MOL0     C82498   1.459   8.951   2.648  0.2971 -0.2777 -0.3797
  612MOL0     C82499   1.393   9.043   2.552 -0.1678 -0.1174 -0.6140
  612MOL0     C82500   1.239   9.040   2.558  0.9404  0.0524  0.2068
  612MOL0     C82501   1.167   9.124   2.463  0.5845  0.3440 -0.5376
  612MOL0     N82502   1.195   9.265   2.510 -0.1078  0.8347  0.2611
  612MOL0     C82503   1.135   9.326   2.610  0.5199  0.6338 -0.7844
  612MOL0     C82504   1.187   9.447   2.619  1.1046 -0.3276 -0.3595
  612MOL0     C82505   1.151   9.540   2.730  0.1723 -0.7032  0.2338
  612MOL0     C82506   1.241   9.544   2.849  0.0808 -0.3162 -0.4767
  612MOL0     C82507   1.235   9.413   2.928 -0.5334  0.9924 -0.1807
  612MOL0     C82508   1.096   9.355   2.977 -0.2032  0.0114  0.2140
  612MOL0     O82509   0.980   9.447   2.981  0.1720  0.6919  0.0583
  612MOL0     C82510   0.854   9.392   2.978  0.3904 -0.3274 -0.1855
  612MOL0     C82511   0.812   9.263   3.024 -0.6155 -0.3013  0.1315
  612MOL0     C82512   0.677   9.233   3.025  0.7811  0.6176  0.7275
  612MOL0     C82513   0.646   9.097   3.079  0.0688 -0.2928 -0.3772
  612MOL0     C82514   0.577   9.324   2.975  0.1090  0.4029 -0.3227
  612MOL0     C82515   0.432   9.293   2.973 -0.7200 -0.8275  0.4627
  612MOL0     O82516   0.346   9.400   2.956 -0.9971 -0.7410 -0.0441
  612MOL0     C82517   0.207   9.375   2.959  0.2274  0.2334  0.7817
  612MOL0     C82518   0.159   9.312   2.841 -0.2169  0.5854  0.1710
  612MOL0     C82519   0.031   9.253   2.850  0.4520  1.0240 -1.1354
  612MOL0     C82520  -0.054   9.267   2.961  0.0793  0.8598 -0.2885
  612MOL0     O82521  -0.183   9.214   2.970  0.0116  0.6935  0.1448
  612MOL0     C82522  -0.249   9.159   2.854  0.1165 -0.1619 -0.1475
  612MOL0     C82523  -0.396   9.125   2.890 -1.2450 -0.0859  0.5431
  612MOL0     C82524  -0.492   9.237   2.854 -0.3947 -0.1204  1.0826
  612MOL0     C82525  -0.639   9.201   2.868 -0.1029 -0.5560  0.0180
  612MOL0     C82526  -0.732   9.317   2.869  0.5076 -0.1276 -0.4942
  612MOL0     C82527  -0.881   9.270   2.882 -0.3363 -0.1106 -0.7437
  612MOL0     C82528  -0.978   9.386   2.905 -0.2349  0.4041  0.5651
  612MOL0     C82529  -1.107   9.332   2.978  1.4710  0.3232  0.4314
  612MOL0    Cl82530  -1.232   9.462   2.967 -0.1405  0.0319  0.1434
  612MOL0     C82531  -0.001   9.325   3.074 -0.1415 -0.4680  0.4046
  612MOL0     C82532   0.123   9.383   3.071 -0.2519  0.1544 -0.2649
  612MOL0     O82533   0.397   9.176   2.948 -0.2132 -0.0532  0.4065
  612MOL0     C82534   0.618   9.452   2.940 -0.2397 -0.5189 -0.9595
  612MOL0     C82535   0.753   9.485   2.955  1.4211 -0.0558 -0.6766
  612MOL0     N82536   1.266   9.458   2.506  0.1779  0.0744  0.2584
  612MOL0     N82537   1.274   9.348   2.447  0.2073  0.4432 -0.5462
  612MOL0     C82538   2.013   9.139   2.573 -0.4482  0.2392  0.0932
  612MOL0     C82539   2.135   9.164   2.515 -0.2770  0.6284 -0.3369
  612MOL0     C82540   2.563   9.276   2.400  0.1721  0.2438  0.3024
  612MOL0     C82541   2.620   9.383   2.473 -0.0863  0.2250 -0.1978
  612MOL0     C82542   2.753   9.426   2.443 -0.3869 -0.2359 -0.5832
  612MOL0     C82543   2.813   9.380   2.329 -0.7384 -0.0474 -0.3389
  612MOL0     O82544   2.927   9.434   2.276 -0.2774  0.3522  0.2392
  612MOL0     C82545   3.040   9.362   2.304  1.4304 -0.7256 -0.2637
  612MOL0     C82546   3.155   9.444   2.250 -0.1815 -0.0898 -0.1660
  612MOL0     C82547   3.164   9.441   2.099 -0.3813 -0.8001 -0.3152
  612MOL0     C82548   3.073   9.537   2.023  0.3626 -0.2074  0.1207
  612MOL0     C82549   3.124   9.543   1.887  0.4164 -0.3383  0.5558
  612MOL0     C82550   3.164   9.540   1.781 -0.2425 -0.5444  1.4970
  612MOL0     C82551   2.746   9.288   2.239 -0.5296 -0.8082 -0.3432
  612MOL0     C82552   2.631   9.225   2.284 -0.1744 -0.1001 -0.1582
  612MOL0     H82553   2.281   9.315   2.780 -0.7729  0.4841 -0.1240
  612MOL0     H82554   2.056   9.278   2.874  0.9002  1.5946 -0.3078
  612MOL0     H82555   1.982   9.028   2.894 -0.0347 -1.2248 -1.3355
  612MOL0     H82556   1.835   9.095   2.962 -1.7423 -0.0648 -1.4674
  612MOL0     H82557   1.860   8.882   2.729 -2.1660 -2.9830 -0.0993
  612MOL0     H82558   1.823   8.843   2.899 -2.8592  0.5332 -0.2120
  612MOL0     H82559   1.626   8.808   2.807  2.2406 -0.9089  2.2897
  612MOL0     H82560   1.618   8.973   2.878  0.0820  1.3247 -1.1649
  612MOL0     H82561   1.636   9.088   2.663 -1.3246  0.8059 -2.3403
  612MOL0     H82562   1.670   8.936   2.580  0.7401  0.9429 -0.4247
  612MOL0     H82563   1.452   8.848   2.611 -0.5112  0.3796 -2.1660
  612MOL0     H82564   1.404   8.954   2.743  2.9080 -0.3208  1.2564
  612MOL0     H82565   1.435   9.143   2.565  0.7062 -0.6819  1.2295
  612MOL0     H82566   1.423   9.009   2.452  2.0077 -3.4156  0.9826
  612MOL0     H82567   1.203   8.938   2.543  0.2938  0.2043  0.6822
  612MOL0     H82568   1.207   9.069   2.659  1.0544  0.5683  0.0952
  612MOL0     H82569   1.060   9.106   2.482  1.0151 -1.1374  0.6423
  612MOL0     H82570   1.194   9.104   2.359  0.2719 -1.7880 -0.2532
  612MOL0     H82571   1.062   9.281   2.676 -1.8043 -0.3432 -3.7691
  612MOL0     H82572   1.142   9.635   2.676 -1.2747 -1.6349 -1.2884
  612MOL0     H82573   1.047   9.519   2.756  0.0945 -2.0505 -1.0129
  612MOL0     H82574   1.207   9.634   2.901 -0.9210  0.7254 -2.7888
  612MOL0     H82575   1.345   9.551   2.815  0.4877  0.9362  0.9418
  612MOL0     H82576   1.297   9.428   3.017 -0.4429 -2.5229  0.4791
  612MOL0     H82577   1.285   9.340   2.865  2.0871  1.1929  1.5161
  612MOL0     H82578   1.103   9.299   3.071  1.5074 -1.4317 -0.6995
  612MOL0     H82579   1.071   9.276   2.906 -0.1876 -0.1892  0.4304
  612MOL0     H82580   0.880   9.188   3.063 -0.2719  0.3582  0.8349
  612MOL0     H82581   0.683   9.019   3.012  2.6626  0.1457  0.4683
  612MOL0     H82582   0.701   9.081   3.172 -0.1314  3.6410  0.5896
  612MOL0     H82583   0.544   9.067   3.105 -0.0553  0.6722  0.2919
  612MOL0     H82584   0.214   9.307   2.748  0.0128 -0.7947  0.3615
  612MOL0     H82585  -0.011   9.198   2.767 -0.1033  1.5085 -1.1821
  612MOL0     H82586  -0.243   9.228   2.769  0.9684 -1.1679 -0.9452
  612MOL0     H82587  -0.198   9.066   2.826  0.7037 -0.2485  1.1323
  612MOL0     H82588  -0.422   9.025   2.855 -0.8691 -1.1407  3.0360
  612MOL0     H82589  -0.416   9.122   2.998 -3.0592 -2.4211  0.2206
  612MOL0     H82590  -0.475   9.253   2.747  1.8276  0.1397  1.4224
  612MOL0     H82591  -0.457   9.322   2.912  1.2651  0.3934 -0.5511
  612MOL0     H82592  -0.667   9.131   2.789 -2.6097  0.2461  0.1341
  612MOL0     H82593  -0.655   9.154   2.965 -1.3447 -0.9198 -0.3486
  612MOL0     H82594  -0.719   9.390   2.789 -2.4160  0.2477 -0.7308
  612MOL0     H82595  -0.711   9.372   2.961 -2.8429  2.1738 -0.9522
  612MOL0     H82596  -0.912   9.220   2.790 -2.0440 -0.7946  0.1483
  612MOL0     H82597  -0.884   9.186   2.952 -0.0543  0.9982  0.6336
  612MOL0     H82598  -1.001   9.427   2.806 -0.5813  2.1916  1.3389
  612MOL0     H82599  -0.943   9.472   2.964  1.3822  0.7168 -0.8007
  612MOL0     H82600  -1.087   9.316   3.084  1.6064  1.8344  0.6575
  612MOL0     H82601  -1.147   9.236   2.942 -0.1884  0.2140  2.3901
  612MOL0     H82602  -0.066   9.337   3.160  2.8082 -0.3880  2.7785
  612MOL0     H82603   0.165   9.437   3.156  2.1426 -3.2633  0.9783
  612MOL0     H82604   0.553   9.527   2.895 -0.9249  0.7407  1.8849
  612MOL0     H82605   0.789   9.583   2.924  0.2562 -0.2937 -2.9501
  612MOL0     H82606   1.924   9.092   2.531  0.2212 -1.7917  0.8049
  612MOL0     H82607   2.148   9.119   2.418  1.4760 -2.3712  1.1413
  612MOL0     H82608   2.564   9.429   2.553  0.1475 -0.7109  0.5205
  612MOL0     H82609   2.798   9.502   2.507  1.9085 -2.1957  0.2791
  612MOL0     H82610   3.062   9.354   2.411  2.0425 -1.0647 -0.4074
  612MOL0     H82611   3.034   9.262   2.261 -1.8368 -0.5845 -0.3732
  612MOL0     H82612   3.248   9.405   2.292 -0.9145 -2.4768 -0.5871
  612MOL0     H82613   3.151   9.550   2.277 -0.1990 -0.0532 -0.3113
  612MOL0     H82614   3.167   9.341   2.056  3.3966 -1.7299  1.7146
  612MOL0     H82615   3.260   9.487   2.074 -0.4885 -0.8271 -0.7924
  612MOL0     H82616   3.064   9.635   2.071  2.3583 -0.1776  0.4930
  612MOL0     H82617   2.977   9.484   2.026  1.2886 -2.0070 -0.4482
  612MOL0     H82618   3.186   9.528   1.677 -1.5477  2.3408  0.7854
  612MOL0     H82619   2.798   9.257   2.149  1.1477 -1.3858  0.7839
  612MOL0     H82620   2.586   9.138   2.237 -1.6358 -0.2949  1.4880
  613MOL0     O82621   5.521   2.011   6.967 -0.9602  0.3807  0.0126
  613MOL0     C82622   5.526   1.991   6.845  0.6075  0.3294  0.0793
  613MOL0     O82623   5.627   1.939   6.776  0.6366  0.2538 -0.2389
  613MOL0     C82624   5.726   1.884   6.855  0.8033  0.7316  0.4474
  613MOL0     C82625   5.705   1.763   6.929  0.2604 -0.1490  0.5274
  613MOL0     C82626   5.812   1.717   7.008  0.2261 -0.5457  0.0130
  613MOL0     C82627   5.922   1.785   7.026 -0.7802  0.2205 -0.7889
  613MOL0     O82628   6.022   1.721   7.090  0.2549 -0.0279 -0.1887
  613MOL0     C82629   6.031   1.787   7.219 -0.0441  0.0753 -0.9423
  613MOL0     C82630   6.162   1.734   7.287  0.2855  0.7382 -0.9884
  613MOL0     C82631   6.286   1.825   7.262  0.8076 -0.5656 -0.1469
  613MOL0     C82632   6.345   1.794   7.116 -0.2926 -0.0317  0.9183
  613MOL0     C82633   6.476   1.885   7.094 -0.0672  0.0789 -0.4475
  613MOL0     C82634   6.534   1.863   6.955  0.2577 -0.5418  0.1060
  613MOL0     C82635   6.667   1.936   6.938 -0.4790 -0.1184 -0.2293
  613MOL0     C82636   6.648   2.093   6.940  0.0987 -0.6987 -0.2019
  613MOL0     N82637   6.549   2.135   6.836 -0.6705 -0.3279  0.9590
  613MOL0     C82638   6.562   2.112   6.698 -0.4505 -0.1228  0.2747
  613MOL0     C82639   6.451   2.152   6.638 -0.4112 -0.0131  0.2215
  613MOL0     C82640   6.419   2.129   6.495 -0.2834 -0.4677  0.3709
  613MOL0     C82641   6.342   2.001   6.479  0.1049 -0.2212 -0.1302
  613MOL0     C82642   6.201   1.980   6.548 -0.0373  0.3276  0.0594
  613MOL0     C82643   6.101   2.075   6.496 -0.2044 -0.4038  0.5486
  613MOL0     O82644   5.959   2.055   6.529 -0.0042  0.5839 -0.1940
  613MOL0     C82645   5.871   2.143   6.473  0.0393  0.4066 -0.4217
  613MOL0     C82646   5.901   2.252   6.392 -0.0771  0.7902  0.4358
  613MOL0     C82647   5.802   2.328   6.323  0.5708 -0.8075 -0.4669
  613MOL0     C82648   5.846   2.445   6.245 -0.7375 -0.1233  0.0996
  613MOL0     C82649   5.658   2.295   6.337 -0.4117  0.7518 -0.5886
  613MOL0     C82650   5.553   2.372   6.268 -0.2831 -0.1422  0.3459
  613MOL0     O82651   5.427   2.345   6.308  0.2192  0.2530  0.3844
  613MOL0     C82652   5.321   2.421   6.246  0.0373 -0.2678 -0.8083
  613MOL0     C82653   5.321   2.557   6.208  0.4632  0.3234 -0.4013
  613MOL0     C82654   5.211   2.630   6.167  1.3201 -0.2880  0.1958
  613MOL0     C82655   5.092   2.562   6.148 -0.1361  0.8390 -0.1625
  613MOL0     O82656   4.997   2.636   6.085 -0.3007  0.6830 -0.5985
  613MOL0     C82657   4.871   2.577   6.053 -0.6524 -0.1583 -0.5843
  613MOL0     C82658   4.799   2.687   5.983  1.2735  0.0451 -0.7581
  613MOL0     C82659   4.647   2.662   5.955  0.4755 -0.0591 -0.5168
  613MOL0     C82660   4.620   2.529   5.896  0.5785  0.1605  0.3506
  613MOL0     C82661   4.469   2.497   5.891  0.0067 -0.3402  0.2044
  613MOL0     C82662   4.409   2.449   6.029  0.1329 -0.0946  1.0425
  613MOL0     C82663   4.261   2.436   6.017  0.7250  0.2482  0.2439
  613MOL0     C82664   4.186   2.394   6.146 -0.4230 -0.2170 -0.9011
  613MOL0    Cl82665   4.037   2.306   6.123  0.2937 -0.0485 -1.0531
  613MOL0     C82666   5.085   2.427   6.177 -0.0319 -0.4006 -1.1765
  613MOL0     C82667   5.194   2.364   6.235 -0.7865  0.3050 -0.0427
  613MOL0     O82668   5.587   2.443   6.170 -0.1965 -0.1741  0.0989
  613MOL0     C82669   5.632   2.188   6.426 -0.7705 -0.0578  0.3400
  613MOL0     C82670   5.733   2.122   6.500 -0.4311 -0.0498 -0.6374
  613MOL0     N82671   6.368   2.208   6.737 -0.4370 -0.1180  0.1012
  613MOL0     N82672   6.436   2.209   6.852  0.4762  0.1351  0.6115
  613MOL0     C82673   5.945   1.901   6.946 -0.5831  1.3364 -0.1680
  613MOL0     C82674   5.845   1.953   6.864  0.9386 -0.4787  0.8379
  613MOL0     C82675   5.402   2.016   6.773  0.4237 -0.1516 -1.0325
  613MOL0     C82676   5.392   1.952   6.649  0.0752 -0.3995  0.9467
  613MOL0     C82677   5.286   1.983   6.558 -0.4470 -0.0898  0.0983
  613MOL0     C82678   5.190   2.076   6.591  0.5123 -0.6682 -0.5371
  613MOL0     O82679   5.096   2.117   6.499 -0.2346  0.5608  0.8225
  613MOL0     C82680   4.967   2.140   6.542  0.0430 -0.2090  0.1343
  613MOL0     C82681   4.885   2.168   6.409 -0.5655  0.3260 -0.0210
  613MOL0     C82682   4.739   2.190   6.430 -0.3661 -0.2123 -0.4604
  613MOL0     C82683   4.657   2.264   6.318 -0.1155 -0.1689 -0.1997
  613MOL0     C82684   4.704   2.250   6.177  0.4307  0.2231  0.4469
  613MOL0     C82685   4.745   2.237   6.060  0.5480  0.6466  0.4737
  613MOL0     C82686   5.195   2.135   6.719 -0.1508  0.4010  0.0289
  613MOL0     C82687   5.300   2.110   6.808 -0.2805 -0.1137  0.3192
  613MOL0     H82688   5.602   1.727   6.929  0.4453 -0.6785  0.4063
  613MOL0     H82689   5.794   1.637   7.079 -2.3271  2.1659  2.7075
  613MOL0     H82690   6.033   1.895   7.205 -2.3227  0.6421  2.1012
  613MOL0     H82691   5.940   1.760   7.275 -1.5643 -0.7350 -3.5922
  613MOL0     H82692   6.149   1.719   7.395  1.3077 -2.8059 -1.2428
  613MOL0     H82693   6.179   1.630   7.258 -0.8675  0.3403 -0.3092
  613MOL0     H82694   6.257   1.929   7.274 -1.7796 -1.0466 -1.4506
  613MOL0     H82695   6.362   1.800   7.336  0.2872 -1.5036  0.0921
  613MOL0     H82696   6.370   1.688   7.108 -2.2046 -0.5227  1.0914
  613MOL0     H82697   6.271   1.812   7.037  1.5451  2.8432 -0.3038
  613MOL0     H82698   6.453   1.989   7.117  3.0974  1.1209 -1.5384
  613MOL0     H82699   6.554   1.850   7.162  1.9420  1.8256 -1.7514
  613MOL0     H82700   6.542   1.754   6.950 -1.2222 -0.7192  0.7857
  613MOL0     H82701   6.462   1.893   6.878  0.9112  0.4052 -0.1533
  613MOL0     H82702   6.735   1.906   7.018  0.1952 -2.4431 -1.5756
  613MOL0     H82703   6.728   1.913   6.850 -1.0775  2.2056 -1.3206
  613MOL0     H82704   6.742   2.144   6.915 -0.4010  0.4495  0.1548
  613MOL0     H82705   6.620   2.131   7.039 -1.0494 -0.3628 -0.6408
  613MOL0     H82706   6.644   2.058   6.652 -0.5885  0.7336 -1.0382
  613MOL0     H82707   6.372   2.212   6.443  1.2973 -1.6302 -3.2184
  613MOL0     H82708   6.515   2.127   6.442  0.9441  3.2189  2.1002
  613MOL0     H82709   6.411   1.926   6.519  0.0937  0.4114  1.1418
  613MOL0     H82710   6.334   1.980   6.372 -0.1508  1.4871 -0.4644
  613MOL0     H82711   6.206   1.991   6.657 -2.4632 -0.3250  0.2867
  613MOL0     H82712   6.175   1.876   6.527 -1.1656  0.2139  1.8154
  613MOL0     H82713   6.115   2.087   6.388 -0.4347  2.7021  0.7612
  613MOL0     H82714   6.119   2.174   6.539 -0.6618 -0.2606  0.4116
  613MOL0     H82715   6.006   2.282   6.385  0.6657 -1.8863 -1.0086
  613MOL0     H82716   5.954   2.452   6.258 -0.9278 -1.1154  3.0458
  613MOL0     H82717   5.827   2.443   6.137  2.1696  0.9047 -0.5307
  613MOL0     H82718   5.800   2.538   6.280 -2.4633 -1.0276  0.3165
  613MOL0     H82719   5.419   2.603   6.216  1.5004 -1.3586 -2.3418
  613MOL0     H82720   5.224   2.731   6.129 -0.5663 -0.3538 -0.7656
  613MOL0     H82721   4.879   2.489   5.989 -3.7993 -0.0439 -1.2832
  613MOL0     H82722   4.824   2.538   6.143  0.1168 -0.4243 -0.2872
  613MOL0     H82723   4.795   2.779   6.042  0.1822  0.1158 -0.9135
  613MOL0     H82724   4.852   2.716   5.892 -0.3064  2.5245 -0.9924
  613MOL0     H82725   4.618   2.745   5.890 -0.8832 -0.4491 -0.4572
  613MOL0     H82726   4.596   2.658   6.052 -1.0821  0.2509 -1.2834
  613MOL0     H82727   4.658   2.535   5.793  0.2729  0.8800  0.2720
  613MOL0     H82728   4.674   2.451   5.950 -0.5608  0.9293  2.7086
  613MOL0     H82729   4.464   2.416   5.817  2.4415 -0.7840  0.4393
  613MOL0     H82730   4.418   2.587   5.858  2.0463  1.2793  1.2240
  613MOL0     H82731   4.457   2.354   6.053  2.6346  0.8984  0.3470
  613MOL0     H82732   4.438   2.513   6.113 -0.0979  0.8623  0.4069
  613MOL0     H82733   4.250   2.355   5.944 -1.0683 -2.3891  3.1893
  613MOL0     H82734   4.209   2.523   5.977 -2.1801  0.2351  3.5124
  613MOL0     H82735   4.156   2.485   6.200 -2.6878 -1.1529 -0.4852
  613MOL0     H82736   4.243   2.327   6.211  1.1959  0.9187 -1.0890
  613MOL0     H82737   4.994   2.371   6.161  1.3769 -2.9521 -0.8305
  613MOL0     H82738   5.197   2.257   6.254  0.2764 -0.0199 -1.8320
  613MOL0     H82739   5.531   2.162   6.455 -0.7748  0.4903  0.8556
  613MOL0     H82740   5.712   2.044   6.573  1.2646  0.7382  0.7596
  613MOL0     H82741   6.029   1.968   6.935 -1.2670  2.2458  0.0256
  613MOL0     H82742   5.867   2.041   6.803  0.5100 -0.6927  0.3657
  613MOL0     H82743   5.472   1.885   6.619  0.4081 -0.5375  2.0631
  613MOL0     H82744   5.290   1.965   6.451 -1.9646  4.7993 -0.9925
  613MOL0     H82745   4.918   2.061   6.600 -2.6403  1.5628  0.4619
  613MOL0     H82746   4.963   2.234   6.597 -0.2840 -1.0109  1.5180
  613MOL0     H82747   4.891   2.080   6.344 -0.2707  0.8826 -0.7556
  613MOL0     H82748   4.939   2.244   6.352  1.2895  0.3517  1.6701
  613MOL0     H82749   4.717   2.224   6.531  1.5270 -0.5014  0.0970
  613MOL0     H82750   4.690   2.092   6.423 -0.9665  0.0586 -0.0575
  613MOL0     H82751   4.658   2.371   6.338  2.0245 -0.5471  2.1173
  613MOL0     H82752   4.555   2.226   6.334  0.9697 -2.6452  1.4516
  613MOL0     H82753   4.776   2.234   5.957  1.2825  3.2781  0.5576
  613MOL0     H82754   5.121   2.209   6.747  2.6112  2.9900  1.0266
  613MOL0     H82755   5.324   2.178   6.888  0.0192 -0.5952  0.6399
  614MOL0     O82756  10.281   6.887   2.422 -0.6676 -0.2125  0.3823
  614MOL0     C82757  10.379   6.964   2.399 -1.2649 -0.0610  0.6208
  614MOL0     O82758  10.410   7.015   2.271 -0.2345 -0.3980 -0.0192
  614MOL0     C82759  10.310   6.996   2.172 -0.9139 -1.3865 -0.6848
  614MOL0     C82760  10.184   7.068   2.177 -0.0275  0.2523  0.6400
  614MOL0     C82761  10.104   7.060   2.059 -0.3526  0.5699  0.0334
  614MOL0     C82762  10.146   6.993   1.942  0.3372 -0.5232  0.0871
  614MOL0     O82763  10.067   6.974   1.831 -0.0454  0.1209 -0.1026
  614MOL0     C82764   9.923   6.999   1.834  0.2412  0.4889  0.5846
  614MOL0     C82765   9.845   6.889   1.917  0.7902 -1.0088 -0.2653
  614MOL0     C82766   9.698   6.920   1.907 -0.6757 -0.7599  0.0239
  614MOL0     C82767   9.614   6.826   1.995  1.0165  1.2104 -0.2807
  614MOL0     C82768   9.463   6.859   1.974  0.7924  0.5071  0.6064
  614MOL0     C82769   9.370   6.757   2.043  0.3579  0.0529 -0.1079
  614MOL0     C82770   9.231   6.768   1.977 -0.5391  0.4091  0.3244
  614MOL0     C82771   9.137   6.675   2.057  0.0649  0.1334  0.5708
  614MOL0     N82772   9.107   6.736   2.194  0.1273  0.2582  0.1645
  614MOL0     C82773   9.033   6.854   2.208 -0.2715  0.5460  1.1492
  614MOL0     C82774   9.004   6.853   2.338  0.3312 -0.0877  0.9590
  614MOL0     C82775   8.911   6.951   2.404 -0.1820  0.1235 -0.6145
  614MOL0     C82776   8.812   6.891   2.500  0.5609  0.3633 -0.4688
  614MOL0     C82777   8.691   6.992   2.520  0.0634 -0.1450  0.5047
  614MOL0     C82778   8.577   6.931   2.606  0.0732 -0.9460 -0.3445
  614MOL0     O82779   8.469   7.029   2.611  0.3663 -0.2398 -0.4440
  614MOL0     C82780   8.336   6.992   2.636  0.0595  0.4531 -0.0333
  614MOL0     C82781   8.290   6.857   2.646 -0.2416  0.1890  1.0258
  614MOL0     C82782   8.157   6.811   2.659 -0.5424 -0.0309 -0.0570
  614MOL0     C82783   8.137   6.661   2.676 -0.0537 -1.2694  0.8455
  614MOL0     C82784   8.062   6.912   2.673 -0.2460 -0.3034 -0.6391
  614MOL0     C82785   7.917   6.879   2.686 -0.3876  0.4379  0.1250
  614MOL0     O82786   7.867   6.753   2.662  0.2653 -0.1848 -0.8125
  614MOL0     C82787   7.728   6.724   2.675  0.1756  0.7186 -0.0701
  614MOL0     C82788   7.623   6.816   2.649  0.5334  0.2992  0.7376
  614MOL0     C82789   7.491   6.776   2.651 -0.7194 -0.3335 -0.4631
  614MOL0     C82790   7.454   6.649   2.690  0.4813  0.0715 -0.1436
  614MOL0     O82791   7.328   6.599   2.713  0.4437  0.0777 -0.2126
  614MOL0     C82792   7.219   6.687   2.743 -0.2223 -0.6274  0.5134
  614MOL0     C82793   7.091   6.607   2.780 -0.1111 -0.8572  0.1465
  614MOL0     C82794   7.024   6.518   2.672 -1.0764 -0.7373  0.0153
  614MOL0     C82795   6.978   6.597   2.544  0.2581 -0.1062 -0.0514
  614MOL0     C82796   6.855   6.688   2.555 -0.0779  0.1367  1.0100
  614MOL0     C82797   6.729   6.634   2.617 -1.1199 -0.3212 -0.1322
  614MOL0     C82798   6.616   6.741   2.641 -0.6523 -0.0845  0.0474
  614MOL0     C82799   6.484   6.670   2.646 -0.2686  0.4563  0.2516
  614MOL0    Cl82800   6.341   6.788   2.700  0.2594  0.1956 -0.2417
  614MOL0     C82801   7.560   6.555   2.718  0.6726 -0.1808 -0.4083
  614MOL0     C82802   7.690   6.592   2.703 -0.1456 -0.6435  0.8112
  614MOL0     O82803   7.850   6.967   2.740  0.3801 -0.0500 -0.1574
  614MOL0     C82804   8.110   7.051   2.683  0.1663  0.4387  0.1174
  614MOL0     C82805   8.244   7.090   2.672 -0.2361 -0.6477 -0.5511
  614MOL0     N82806   9.066   6.744   2.399  0.3057  0.6285 -0.3993
  614MOL0     N82807   9.121   6.672   2.311  0.0038 -0.7072 -0.0555
  614MOL0     C82808  10.261   6.927   1.941 -0.2449  0.1032 -0.2064
  614MOL0     C82809  10.348   6.928   2.057  0.1116 -0.2128  1.2214
  614MOL0     C82810  10.473   6.994   2.505 -1.8709 -0.3964  0.5999
  614MOL0     C82811  10.606   7.035   2.471 -0.1401  0.9626  0.1885
  614MOL0     C82812  10.706   7.060   2.574 -0.2121  0.4205 -0.0847
  614MOL0     C82813  10.673   7.030   2.706  0.4067 -0.3987 -0.1789
  614MOL0     O82814  10.769   7.040   2.805 -0.2806 -0.5788  0.0915
  614MOL0     C82815  10.909   7.030   2.773  0.0247 -0.3549  0.6203
  614MOL0     C82816  11.002   7.028   2.889 -0.0145  0.7157 -0.7452
  614MOL0     C82817  11.142   6.996   2.843 -0.3419 -0.0805  0.0053
  614MOL0     C82818  11.236   6.988   2.956  0.5347  0.3212 -0.5691
  614MOL0     C82819  11.229   6.860   3.027 -0.9684 -0.2650 -0.7415
  614MOL0     C82820  11.222   6.753   3.084 -0.5954  0.4148 -0.2187
  614MOL0     C82821  10.541   6.999   2.738  0.5576 -0.3584 -0.5629
  614MOL0     C82822  10.445   6.972   2.641  0.7289  0.1867 -0.8241
  614MOL0     H82823  10.144   7.129   2.258  1.5079 -0.1461  1.7511
  614MOL0     H82824  10.014   7.120   2.064 -0.7127  0.1481 -1.0130
  614MOL0     H82825   9.901   7.101   1.866 -1.4170  1.0196 -2.0187
  614MOL0     H82826   9.888   7.002   1.731 -1.2336 -2.8946  0.8615
  614MOL0     H82827   9.856   6.788   1.877  2.0198 -0.8811 -0.2758
  614MOL0     H82828   9.876   6.882   2.021  0.5319 -1.5143 -0.2194
  614MOL0     H82829   9.678   7.025   1.932 -1.3898 -0.6519 -0.9306
  614MOL0     H82830   9.658   6.908   1.806 -0.3049 -2.5940  0.0662
  614MOL0     H82831   9.632   6.722   1.964  0.4271  1.3824 -1.2420
  614MOL0     H82832   9.631   6.834   2.103 -1.5204 -0.6978  0.3697
  614MOL0     H82833   9.448   6.958   2.018 -0.9048  0.1211  0.9324
  614MOL0     H82834   9.431   6.876   1.870  2.2508  2.2659  0.3765
  614MOL0     H82835   9.412   6.656   2.038 -2.8833 -1.6450  2.7963
  614MOL0     H82836   9.373   6.784   2.149  4.5763  2.4768 -0.6449
  614MOL0     H82837   9.181   6.865   1.975  1.0069  1.2569 -2.1959
  614MOL0     H82838   9.226   6.737   1.872 -1.6475  3.4189 -0.6452
  614MOL0     H82839   9.184   6.576   2.065  2.0474  1.0892  1.4192
  614MOL0     H82840   9.046   6.675   1.996  0.1479  1.7801  0.3956
  614MOL0     H82841   9.000   6.922   2.130  0.9132  1.3430  1.3206
  614MOL0     H82842   8.971   7.017   2.467 -1.9971 -1.4412  3.0457
  614MOL0     H82843   8.854   7.001   2.325 -0.1695 -0.5184 -1.0409
  614MOL0     H82844   8.856   6.865   2.596 -3.1539  2.2196  1.9614
  614MOL0     H82845   8.764   6.802   2.458  1.3689 -0.6807  0.7721
  614MOL0     H82846   8.647   7.026   2.425  2.4897  2.8651  0.3105
  614MOL0     H82847   8.737   7.076   2.571 -0.0396 -0.3389  0.9191
  614MOL0     H82848   8.617   6.909   2.705 -1.2600 -0.2548  0.3757
  614MOL0     H82849   8.556   6.831   2.567 -0.6373 -0.0327 -2.4413
  614MOL0     H82850   8.364   6.779   2.628  0.2266  0.8514 -0.0172
  614MOL0     H82851   8.226   6.598   2.685 -0.3101 -1.6393  0.8295
  614MOL0     H82852   8.083   6.656   2.771 -2.5209  2.4721 -0.1290
  614MOL0     H82853   8.071   6.629   2.595 -0.3452 -0.1578  0.6329
  614MOL0     H82854   7.650   6.915   2.615 -0.0925  0.8867  1.8900
  614MOL0     H82855   7.408   6.840   2.624 -2.6460 -2.3734  0.3022
  614MOL0     H82856   7.246   6.760   2.819 -0.1668 -1.8638  1.7158
  614MOL0     H82857   7.195   6.743   2.653  1.1801 -0.5469  0.1645
  614MOL0     H82858   7.119   6.541   2.863  0.0961 -0.4423  0.4105
  614MOL0     H82859   7.027   6.672   2.840 -1.5070 -2.7161  0.7594
  614MOL0     H82860   6.931   6.470   2.705  0.0755 -0.7868  3.6088
  614MOL0     H82861   7.097   6.441   2.645 -1.3241 -0.5130 -1.4205
  614MOL0     H82862   7.060   6.659   2.507  1.3609 -2.0582 -1.0365
  614MOL0     H82863   6.955   6.526   2.465  1.7443  0.4932 -1.0651
  614MOL0     H82864   6.828   6.708   2.451  0.4092  1.8289  1.1807
  614MOL0     H82865   6.884   6.773   2.617  1.1667  0.4097  0.0876
  614MOL0     H82866   6.700   6.557   2.545 -0.0057  0.6613 -1.6904
  614MOL0     H82867   6.741   6.590   2.716 -4.2588 -0.3954  0.3250
  614MOL0     H82868   6.619   6.819   2.564 -0.3200 -1.1458 -1.0387
  614MOL0     H82869   6.636   6.789   2.737  0.3682 -2.2923  1.0150
  614MOL0     H82870   6.483   6.577   2.703  0.5612  0.7120  0.6915
  614MOL0     H82871   6.468   6.642   2.541  2.2278  0.0417 -0.0671
  614MOL0     H82872   7.529   6.459   2.759  1.8711  0.0548  1.1201
  614MOL0     H82873   7.771   6.522   2.719  1.9440  1.7815  1.5386
  614MOL0     H82874   8.035   7.127   2.703 -0.6110 -0.6984  1.7056
  614MOL0     H82875   8.274   7.192   2.692 -0.7639 -0.9661  2.2657
  614MOL0     H82876  10.277   6.875   1.846 -0.6591 -2.3026  0.9644
  614MOL0     H82877  10.439   6.870   2.064 -0.3634 -1.5413 -1.8208
  614MOL0     H82878  10.631   7.051   2.367  3.4568 -0.1443  0.7616
  614MOL0     H82879  10.800   7.095   2.533  0.0067 -0.0717 -0.0098
  614MOL0     H82880  10.923   6.938   2.714  0.0235  0.6552 -1.0420
  614MOL0     H82881  10.943   7.112   2.708  2.5169 -0.3225  1.8200
  614MOL0     H82882  10.966   6.952   2.959  2.4080  1.0903  1.0091
  614MOL0     H82883  11.002   7.127   2.936  3.1059  0.6679 -0.4512
  614MOL0     H82884  11.175   7.076   2.776 -1.7422  1.8843  1.5150
  614MOL0     H82885  11.147   6.900   2.792  2.1453 -2.3767  4.0218
  614MOL0     H82886  11.211   7.069   3.026 -0.1189 -2.0184  2.0722
  614MOL0     H82887  11.335   7.012   2.915  2.8392 -0.0173  4.1642
  614MOL0     H82888  11.202   6.660   3.132  2.5970  2.1869  5.4542
  614MOL0     H82889  10.512   6.987   2.842 -2.5546 -1.0030 -1.3807
  614MOL0     H82890  10.346   6.938   2.671  0.1964  0.4486 -2.2046
  615MOL0     O82891   4.774   2.815   3.152 -0.1217  0.4295 -0.4357
  615MOL0     C82892   4.812   2.908   3.226  0.3265 -0.1522  0.1339
  615MOL0     O82893   4.775   2.931   3.360 -0.8300  0.1990 -0.2122
  615MOL0     C82894   4.694   2.850   3.437 -0.3644 -0.6530 -0.9116
  615MOL0     C82895   4.652   2.911   3.558  0.3548  0.1831  0.8574
  615MOL0     C82896   4.563   2.845   3.642 -0.1929  0.2640  0.4553
  615MOL0     C82897   4.512   2.723   3.614  0.2944  0.3184  0.3472
  615MOL0     O82898   4.406   2.674   3.694 -0.0557 -0.8226  0.1002
  615MOL0     C82899   4.374   2.724   3.824 -1.0906 -0.2508 -0.5873
  615MOL0     C82900   4.298   2.620   3.891  0.3355 -0.1062 -0.3600
  615MOL0     C82901   4.158   2.606   3.840 -1.3545 -0.1299  0.2020
  615MOL0     C82902   4.064   2.520   3.942  0.2692 -1.1938  1.2416
  615MOL0     C82903   3.923   2.512   3.889 -0.7668  0.1465 -0.3333
  615MOL0     C82904   3.826   2.425   3.979 -0.0802 -0.3936 -0.0746
  615MOL0     C82905   3.679   2.438   3.941  0.0534 -0.2825  1.1168
  615MOL0     C82906   3.596   2.340   4.013 -0.4538 -0.1633 -0.1313
  615MOL0     N82907   3.456   2.353   3.995 -0.4337 -0.3902  0.0379
  615MOL0     C82908   3.371   2.264   3.936 -0.2489  0.3239 -0.7400
  615MOL0     C82909   3.255   2.327   3.927 -0.1979  0.4323 -0.4355
  615MOL0     C82910   3.119   2.261   3.890 -0.2240  0.9383 -0.5685
  615MOL0     C82911   3.035   2.336   3.785 -0.3925 -0.1650 -0.3877
  615MOL0     C82912   2.886   2.300   3.804  0.3931  0.3326  0.3935
  615MOL0     C82913   2.804   2.323   3.669 -0.0127  0.3036 -0.3271
  615MOL0     O82914   2.746   2.453   3.650  0.0672 -0.2703 -0.2702
  615MOL0     C82915   2.616   2.479   3.682  1.1410  0.5354 -0.7372
  615MOL0     C82916   2.526   2.388   3.744  0.1136  0.3976 -0.0091
  615MOL0     C82917   2.393   2.419   3.776  0.6479 -0.7034 -0.0825
  615MOL0     C82918   2.314   2.305   3.848  0.0552 -0.0574  0.1045
  615MOL0     C82919   2.337   2.549   3.747 -0.5926  0.2350 -0.1446
  615MOL0     C82920   2.197   2.597   3.784  0.3340 -0.3040  0.6341
  615MOL0     O82921   2.111   2.498   3.803  0.4192  0.5504  0.9445
  615MOL0     C82922   1.977   2.523   3.804  0.6945 -0.1757  0.1078
  615MOL0     C82923   1.903   2.476   3.911 -0.7719  0.1971  0.2230
  615MOL0     C82924   1.770   2.495   3.925  0.3923  0.8090  0.1162
  615MOL0     C82925   1.698   2.562   3.825  0.2648  0.1768  0.5891
  615MOL0     O82926   1.562   2.577   3.838 -0.0590  0.0803  0.5556
  615MOL0     C82927   1.495   2.492   3.930  0.3090 -0.2187 -0.1465
  615MOL0     C82928   1.339   2.518   3.917  0.5553 -0.2179 -0.5535
  615MOL0     C82929   1.291   2.483   3.767  0.2000 -0.5863 -0.3330
  615MOL0     C82930   1.177   2.567   3.711  0.3674  0.1033  0.6774
  615MOL0     C82931   1.055   2.529   3.788  0.3337  0.8056  0.0536
  615MOL0     C82932   0.948   2.618   3.733  0.7556 -0.3014 -0.3211
  615MOL0     C82933   0.825   2.631   3.823 -0.4661  0.1490  0.3605
  615MOL0     C82934   0.704   2.694   3.759  0.1009 -0.7758 -0.4583
  615MOL0    Cl82935   0.682   2.634   3.589  0.4885  0.1944 -0.1556
  615MOL0     C82936   1.767   2.609   3.716 -0.7418 -0.1159  0.1274
  615MOL0     C82937   1.907   2.596   3.706 -0.1616  0.0297  0.5052
  615MOL0     O82938   2.176   2.714   3.794  0.1374 -0.1232  0.1000
  615MOL0     C82939   2.433   2.639   3.680  0.3749  0.1122 -1.0736
  615MOL0     C82940   2.569   2.605   3.666  0.6639  0.2133  0.5539
  615MOL0     N82941   3.266   2.456   3.984  0.2691  0.1221 -0.0465
  615MOL0     N82942   3.384   2.465   4.026 -0.1471  0.3044  0.6794
  615MOL0     C82943   4.548   2.660   3.498 -1.5263 -0.0969  0.6840
  615MOL0     C82944   4.645   2.723   3.411 -0.7083  0.1496  0.4276
  615MOL0     C82945   4.917   2.994   3.159 -0.4436  0.2832  0.2884
  615MOL0     C82946   4.971   2.953   3.031 -0.6159  0.2792 -0.2353
  615MOL0     C82947   5.072   3.032   2.972  0.8131 -0.1323  0.2209
  615MOL0     C82948   5.108   3.159   3.022 -0.2835  1.0284 -0.2167
  615MOL0     O82949   5.219   3.218   2.969 -0.1189  0.6788 -0.3885
  615MOL0     C82950   5.222   3.364   2.972 -0.3455 -0.4879  1.6055
  615MOL0     C82951   5.332   3.412   2.876 -1.4351 -0.4837 -0.7417
  615MOL0     C82952   5.319   3.383   2.729 -0.7715 -0.2948 -0.4131
  615MOL0     C82953   5.442   3.425   2.644 -0.6642 -0.4524 -0.7075
  615MOL0     C82954   5.554   3.330   2.663 -0.5910 -0.4087 -1.0971
  615MOL0     C82955   5.647   3.254   2.678 -0.0409  0.1946 -0.2489
  615MOL0     C82956   5.042   3.205   3.136 -0.8515  0.9985 -0.0672
  615MOL0     C82957   4.944   3.125   3.202 -0.0325  0.5633 -0.0321
  615MOL0     H82958   4.674   3.016   3.572 -0.5187  1.4415 -4.7949
  615MOL0     H82959   4.541   2.905   3.730 -1.2495 -0.9889  1.0769
  615MOL0     H82960   4.465   2.748   3.879 -0.8501 -0.8225 -0.7370
  615MOL0     H82961   4.324   2.822   3.823  2.6156  1.8178 -0.3535
  615MOL0     H82962   4.335   2.517   3.891  0.8163  0.0257  1.2023
  615MOL0     H82963   4.309   2.635   3.999  1.8870  1.7981 -0.7219
  615MOL0     H82964   4.117   2.705   3.816  0.4987  0.0786 -2.5746
  615MOL0     H82965   4.166   2.546   3.749 -2.2446  3.1367 -2.2493
  615MOL0     H82966   4.100   2.420   3.963 -3.5958 -2.8213  1.0244
  615MOL0     H82967   4.071   2.574   4.036 -0.5894 -0.7836  1.0895
  615MOL0     H82968   3.870   2.607   3.876 -1.4926 -0.0068  1.2816
  615MOL0     H82969   3.929   2.469   3.788 -2.3537 -0.2035 -0.3074
  615MOL0     H82970   3.857   2.320   3.972  2.9205  0.4426 -1.1611
  615MOL0     H82971   3.856   2.453   4.081  0.3624  0.8343 -0.5316
  615MOL0     H82972   3.647   2.541   3.964  0.7997 -0.3260  2.4046
  615MOL0     H82973   3.660   2.432   3.833 -1.1609 -0.1026  1.3035
  615MOL0     H82974   3.614   2.363   4.118 -4.5813  4.3953 -0.0459
  615MOL0     H82975   3.635   2.240   3.991  0.5275  0.6059 -2.0988
  615MOL0     H82976   3.400   2.167   3.897  0.8200  0.0956  0.5547
  615MOL0     H82977   3.139   2.158   3.861 -1.9103 -0.5147  2.8963
  615MOL0     H82978   3.062   2.262   3.983  1.6365  2.2005  0.6422
  615MOL0     H82979   3.073   2.310   3.685  2.5594  1.3400  0.2365
  615MOL0     H82980   3.044   2.443   3.804  0.1546 -0.0506 -1.2225
  615MOL0     H82981   2.839   2.359   3.883  0.6297 -1.1315  1.6617
  615MOL0     H82982   2.885   2.193   3.826  1.6858 -0.1112 -1.4510
  615MOL0     H82983   2.724   2.252   3.649  0.4596 -0.7482  1.3008
  615MOL0     H82984   2.867   2.317   3.579 -0.3390 -1.6392 -0.4639
  615MOL0     H82985   2.574   2.294   3.768  1.6389  0.3362 -2.8552
  615MOL0     H82986   2.388   2.226   3.866  2.6157  2.1401 -0.0024
  615MOL0     H82987   2.272   2.350   3.938 -2.5176  0.1130 -1.0949
  615MOL0     H82988   2.225   2.273   3.795  1.3999  0.6817 -2.8316
  615MOL0     H82989   1.960   2.445   3.998  2.1530  0.3968 -1.5134
  615MOL0     H82990   1.722   2.455   4.014 -2.6874 -0.1182 -1.8070
  615MOL0     H82991   1.519   2.388   3.906  2.9506  0.3733 -0.2851
  615MOL0     H82992   1.527   2.513   4.032  1.5184  0.2313 -0.6032
  615MOL0     H82993   1.280   2.461   3.990  2.3968 -0.6338  0.7085
  615MOL0     H82994   1.320   2.624   3.932 -2.1512 -0.7454  0.4312
  615MOL0     H82995   1.272   2.376   3.755 -1.3889 -0.2171 -1.3091
  615MOL0     H82996   1.375   2.503   3.701  0.2547 -2.1344 -0.7630
  615MOL0     H82997   1.193   2.674   3.721 -0.2851  0.3722 -0.8948
  615MOL0     H82998   1.163   2.548   3.604 -2.5526  2.1821  0.5753
  615MOL0     H82999   1.073   2.550   3.894  1.3073  1.1579 -0.1709
  615MOL0     H83000   1.022   2.426   3.773  2.9772 -0.0481 -0.2989
  615MOL0     H83001   0.972   2.722   3.708  1.0134 -0.6224 -1.4775
  615MOL0     H83002   0.930   2.581   3.632  1.0658  2.5068 -1.4907
  615MOL0     H83003   0.851   2.693   3.910 -1.5284  0.1056  0.7283
  615MOL0     H83004   0.795   2.531   3.856  1.9688 -0.3818  1.2033
  615MOL0     H83005   0.725   2.801   3.758 -1.7058 -0.3873  0.5760
  615MOL0     H83006   0.613   2.672   3.815 -1.4003 -0.0205 -2.4865
  615MOL0     H83007   1.711   2.669   3.645  0.1577  0.2056 -0.3267
  615MOL0     H83008   1.963   2.637   3.623  0.3408 -1.8938 -0.1369
  615MOL0     H83009   2.390   2.738   3.669 -1.9485 -0.5852  0.9181
  615MOL0     H83010   2.631   2.686   3.628  1.0759 -0.3593 -0.0186
  615MOL0     H83011   4.516   2.558   3.477  1.7007 -0.5711 -3.1973
  615MOL0     H83012   4.674   2.677   3.317 -5.0512  1.2102 -1.6945
  615MOL0     H83013   4.942   2.854   2.995  0.3394 -0.5572  1.1980
  615MOL0     H83014   5.116   2.996   2.879 -1.5006 -0.0129 -1.0162
  615MOL0     H83015   5.127   3.408   2.940 -0.7896  0.1133  3.5965
  615MOL0     H83016   5.249   3.394   3.073  2.0441  1.2067  0.5440
  615MOL0     H83017   5.427   3.368   2.910 -2.3324 -1.9450 -0.0423
  615MOL0     H83018   5.335   3.521   2.888  0.0932 -0.6550  0.9173
  615MOL0     H83019   5.238   3.445   2.690 -1.3597  0.2594  1.5866
  615MOL0     H83020   5.295   3.277   2.714 -0.8755 -0.2449 -0.6049
  615MOL0     H83021   5.481   3.525   2.665 -0.3681 -1.2756  3.7435
  615MOL0     H83022   5.415   3.418   2.539  2.5816  0.6984 -1.7306
  615MOL0     H83023   5.731   3.190   2.696  1.0169  1.7161  0.3329
  615MOL0     H83024   5.073   3.301   3.176  3.1046 -0.3311  0.4922
  615MOL0     H83025   4.900   3.165   3.293  1.9598  1.1552  0.7217
  616MOL0     O83026   6.784   5.934   8.478  0.8992  0.0801 -0.6482
  616MOL0     C83027   6.828   6.018   8.402 -0.6344 -0.7813  0.9706
  616MOL0     O83028   6.782   6.138   8.405  0.8723 -0.1290 -0.5698
  616MOL0     C83029   6.703   6.182   8.505  1.0532  0.5502 -0.0720
  616MOL0     C83030   6.562   6.191   8.493 -0.5744  0.3104  1.2929
  616MOL0     C83031   6.490   6.229   8.602 -0.7282  0.2590 -0.7403
  616MOL0     C83032   6.550   6.270   8.723  0.5241 -0.1659  0.4677
  616MOL0     O83033   6.487   6.300   8.838 -0.1551  0.5575 -0.2612
  616MOL0     C83034   6.345   6.275   8.831 -0.3544 -0.3153 -0.0261
  616MOL0     C83035   6.288   6.310   8.970  0.2512 -0.1643 -0.6692
  616MOL0     C83036   6.135   6.283   8.955 -0.2233  0.8736 -0.1966
  616MOL0     C83037   6.061   6.283   9.090 -0.2651  0.7911  0.0168
  616MOL0     C83038   5.911   6.276   9.060  0.5753 -0.3744 -0.2073
  616MOL0     C83039   5.830   6.307   9.190 -0.7758 -0.3815  0.3475
  616MOL0     C83040   5.686   6.340   9.167  0.7745  0.2036 -0.3509
  616MOL0     C83041   5.598   6.319   9.291  0.2253  0.5656 -0.1234
  616MOL0     N83042   5.464   6.368   9.269 -0.1226 -0.2637 -0.0752
  616MOL0     C83043   5.409   6.490   9.288 -0.2104 -0.4156 -0.2566
  616MOL0     C83044   5.283   6.476   9.321  1.2285  0.1382 -0.4935
  616MOL0     C83045   5.182   6.588   9.351 -1.4207 -0.1599 -0.0159
  616MOL0     C83046   5.036   6.547   9.326  0.5102 -0.3212 -0.1092
  616MOL0     C83047   4.945   6.655   9.395  0.0354  0.0769 -1.4221
  616MOL0     C83048   4.801   6.621   9.345  0.1000  0.4154  0.2287
  616MOL0     O83049   4.719   6.736   9.356 -0.8155 -0.2543 -1.2327
  616MOL0     C83050   4.592   6.725   9.316 -0.1770  0.0401  1.0150
  616MOL0     C83051   4.535   6.611   9.259  0.0244  0.3495  0.3259
  616MOL0     C83052   4.401   6.618   9.205  0.1375 -0.0616 -0.1978
  616MOL0     C83053   4.351   6.497   9.141  0.6657  0.1480  0.9863
  616MOL0     C83054   4.321   6.740   9.217 -0.3075  0.8904 -0.4066
  616MOL0     C83055   4.182   6.757   9.176 -0.9262 -0.0293 -0.2879
  616MOL0     O83056   4.139   6.886   9.158 -0.6641  0.2545 -0.1362
  616MOL0     C83057   4.004   6.901   9.143 -0.0865 -0.0446  0.1200
  616MOL0     C83058   3.933   6.853   9.029  0.0916 -0.3879 -0.6252
  616MOL0     C83059   3.796   6.873   9.022  0.3755 -0.8038 -0.1837
  616MOL0     C83060   3.724   6.942   9.126  0.7675 -0.2542  0.0596
  616MOL0     O83061   3.582   6.963   9.125  0.7204  0.0659 -0.2368
  616MOL0     C83062   3.519   6.989   9.001 -0.1630 -0.1239  0.2985
  616MOL0     C83063   3.373   7.025   9.012  0.4473  0.6253 -0.0994
  616MOL0     C83064   3.361   7.174   9.069  0.2391  0.1799  0.0648
  616MOL0     C83065   3.212   7.209   9.058  0.1490  0.6261 -0.8738
  616MOL0     C83066   3.191   7.347   9.124  0.7384 -0.8025 -1.0235
  616MOL0     C83067   3.045   7.389   9.087 -1.2391 -0.4553 -0.0535
  616MOL0     C83068   2.998   7.524   9.148 -1.3465  0.4218  0.3623
  616MOL0     C83069   2.852   7.558   9.099 -0.3198  0.0170  0.4596
  616MOL0    Cl83070   2.858   7.632   8.932  0.1425 -0.1339 -0.0393
  616MOL0     C83071   3.794   6.990   9.237 -1.1829  0.0500 -0.4297
  616MOL0     C83072   3.936   6.979   9.241 -0.1437 -0.2615 -0.5519
  616MOL0     O83073   4.113   6.654   9.170 -0.3804  0.5406 -0.2868
  616MOL0     C83074   4.391   6.851   9.271 -0.0751  0.4934  0.1084
  616MOL0     C83075   4.516   6.846   9.319  0.1140 -0.5662  0.6650
  616MOL0     N83076   5.250   6.343   9.320 -0.2646  0.8384  0.6177
  616MOL0     N83077   5.359   6.280   9.281 -0.8534 -0.6001  0.0418
  616MOL0     C83078   6.688   6.275   8.732  0.6802 -0.2924  0.3036
  616MOL0     C83079   6.766   6.216   8.624  0.4336 -0.4472  0.0415
  616MOL0     C83080   6.903   5.970   8.287 -0.6700  0.7470 -0.5003
  616MOL0     C83081   6.982   6.054   8.211  0.0306  0.2732 -0.4393
  616MOL0     C83082   7.044   6.013   8.095  0.3316 -0.2170  0.2827
  616MOL0     C83083   7.043   5.881   8.053  0.6228 -0.7511 -0.3548
  616MOL0     O83084   7.095   5.832   7.937 -0.1750  0.1514  1.0542
  616MOL0     C83085   7.162   5.922   7.855 -0.7881 -0.2847  0.2272
  616MOL0     C83086   7.309   5.917   7.899  0.4108 -0.6227  0.1268
  616MOL0     C83087   7.372   5.776   7.914 -0.7982 -0.4921 -0.5916
  616MOL0     C83088   7.516   5.812   7.954  0.5356 -0.3000 -0.2348
  616MOL0     C83089   7.596   5.693   7.945 -0.0267  0.2005 -0.1443
  616MOL0     C83090   7.668   5.595   7.933 -0.9003 -0.8296 -0.2716
  616MOL0     C83091   6.981   5.787   8.144  0.3045  0.0293  0.2114
  616MOL0     C83092   6.903   5.835   8.245 -0.0311  0.7805 -0.0008
  616MOL0     H83093   6.499   6.160   8.410 -1.9987  0.2880  2.3377
  616MOL0     H83094   6.382   6.239   8.591 -0.8950 -0.8443 -0.1649
  616MOL0     H83095   6.305   6.341   8.754 -0.7464  1.4490  1.5988
  616MOL0     H83096   6.328   6.168   8.814  0.7525 -0.7472  1.3250
  616MOL0     H83097   6.339   6.256   9.050  0.4219 -0.5618 -1.0422
  616MOL0     H83098   6.302   6.416   8.989 -0.9392 -0.1733  0.4382
  616MOL0     H83099   6.092   6.350   8.881 -1.9540 -2.1060 -2.0902
  616MOL0     H83100   6.114   6.188   8.905  0.1885  1.1881 -0.9722
  616MOL0     H83101   6.103   6.200   9.148 -2.1353 -0.4556 -0.3025
  616MOL0     H83102   6.096   6.368   9.148  0.1772 -2.2153  4.7120
  616MOL0     H83103   5.898   6.352   8.982  0.6473 -1.1437 -0.9799
  616MOL0     H83104   5.874   6.178   9.028  0.8948 -0.6948  0.4074
  616MOL0     H83105   5.841   6.221   9.257 -0.8539 -1.8402 -1.4091
  616MOL0     H83106   5.890   6.390   9.229  0.6236 -0.7859 -0.8571
  616MOL0     H83107   5.677   6.446   9.141 -1.4897  0.4894  1.3332
  616MOL0     H83108   5.637   6.282   9.088  0.5138 -0.5219  0.3332
  616MOL0     H83109   5.634   6.366   9.383  1.6072 -0.1025 -0.2886
  616MOL0     H83110   5.584   6.211   9.305 -1.6713  0.8328  0.2663
  616MOL0     H83111   5.459   6.585   9.271  0.9861 -1.3636 -2.2689
  616MOL0     H83112   5.192   6.583   9.460  0.5110 -0.2460 -0.1657
  616MOL0     H83113   5.202   6.691   9.319 -0.5650  0.1069  1.2573
  616MOL0     H83114   5.022   6.449   9.371  2.8799 -1.3288 -1.3982
  616MOL0     H83115   5.015   6.530   9.220  2.9754 -3.2769 -0.2771
  616MOL0     H83116   4.977   6.753   9.357 -0.0867  1.2069  1.1650
  616MOL0     H83117   4.935   6.660   9.504 -2.7191  2.9071 -1.6555
  616MOL0     H83118   4.756   6.544   9.408  0.2913  1.2762  1.4397
  616MOL0     H83119   4.807   6.586   9.241  2.0842  0.1273  0.4061
  616MOL0     H83120   4.585   6.516   9.247 -1.1319 -0.3231  0.6835
  616MOL0     H83121   4.257   6.462   9.187  0.3465 -1.3552 -0.6900
  616MOL0     H83122   4.335   6.508   9.034 -1.9373 -1.0391  1.1714
  616MOL0     H83123   4.417   6.412   9.160 -0.3142 -0.6580  0.8607
  616MOL0     H83124   3.989   6.789   8.962  0.9633 -0.1780 -0.1163
  616MOL0     H83125   3.733   6.832   8.943  1.0460  0.2861 -1.3172
  616MOL0     H83126   3.569   7.078   8.961 -0.3503  1.6229  3.5635
  616MOL0     H83127   3.535   6.905   8.933 -2.5433 -1.6079  1.4373
  616MOL0     H83128   3.324   7.021   8.914 -1.3530 -1.3061  0.8107
  616MOL0     H83129   3.329   6.955   9.083 -0.5523  1.7622  0.4385
  616MOL0     H83130   3.427   7.238   9.010  0.5612  0.2059  0.4483
  616MOL0     H83131   3.400   7.188   9.170 -0.0624  1.7491 -0.0123
  616MOL0     H83132   3.175   7.208   8.955 -1.4052  1.7774 -0.3453
  616MOL0     H83133   3.154   7.140   9.121 -0.5439  1.3657 -0.6888
  616MOL0     H83134   3.265   7.422   9.093 -0.5916  1.7939  1.5800
  616MOL0     H83135   3.191   7.339   9.233 -1.5601 -0.2039 -0.9130
  616MOL0     H83136   3.040   7.400   8.978 -0.5799  0.2509 -0.0205
  616MOL0     H83137   2.969   7.312   9.103 -0.7408 -1.3661 -1.7333
  616MOL0     H83138   3.060   7.609   9.122 -0.1990  0.0015  1.5922
  616MOL0     H83139   3.001   7.510   9.257  1.6294 -1.2150  0.1598
  616MOL0     H83140   2.814   7.641   9.160  1.2540  1.2101 -0.1242
  616MOL0     H83141   2.794   7.465   9.107 -2.1788  1.0858  0.0167
  616MOL0     H83142   3.739   7.047   9.311  0.2396 -2.1541  2.5253
  616MOL0     H83143   3.985   7.029   9.325 -1.5237  2.7151 -1.3839
  616MOL0     H83144   4.340   6.946   9.281 -4.7575 -1.7070 -0.2084
  616MOL0     H83145   4.555   6.942   9.353  0.5545 -1.1102  1.7403
  616MOL0     H83146   6.730   6.319   8.822  1.0057 -0.8203  0.4104
  616MOL0     H83147   6.874   6.215   8.627  0.6752  4.0143  2.7204
  616MOL0     H83148   6.984   6.155   8.251 -1.2988  0.0166  0.3389
  616MOL0     H83149   7.104   6.088   8.044  1.0054 -1.8356 -1.4385
  616MOL0     H83150   7.147   5.889   7.752  0.8975 -1.9500  0.4644
  616MOL0     H83151   7.120   6.023   7.853  1.7610  0.8430 -0.5751
  616MOL0     H83152   7.314   5.967   7.996 -0.1692 -1.5840  0.6676
  616MOL0     H83153   7.359   5.980   7.824  1.9898 -1.2954  0.5761
  616MOL0     H83154   7.356   5.724   7.819  0.8374 -1.6990 -0.2420
  616MOL0     H83155   7.327   5.715   7.993  0.9959 -0.9758  0.1077
  616MOL0     H83156   7.520   5.826   8.062 -0.6089 -4.3963  0.5112
  616MOL0     H83157   7.550   5.902   7.901 -2.9288  0.8234 -0.8306
  616MOL0     H83158   7.732   5.509   7.941 -2.0982 -1.6355  1.6935
  616MOL0     H83159   6.971   5.680   8.127  3.3583 -0.5376  1.4233
  616MOL0     H83160   6.841   5.760   8.293  1.0507 -1.2768 -1.6543
  617MOL0     O83161   6.671  10.312   5.373  0.3132 -1.0453 -0.5256
  617MOL0     C83162   6.637  10.410   5.314  0.3275  0.0843 -0.0518
  617MOL0     O83163   6.517  10.463   5.319  0.0165 -0.5604 -0.3326
  617MOL0     C83164   6.405  10.400   5.364  0.4842  0.4185 -0.3202
  617MOL0     C83165   6.362  10.272   5.316 -0.0340 -0.4740  0.0014
  617MOL0     C83166   6.249  10.216   5.357  0.1912  0.2962 -0.0276
  617MOL0     C83167   6.161  10.282   5.447  1.0828  0.3871 -0.1515
  617MOL0     O83168   6.037  10.223   5.481 -0.3678 -0.7710 -0.5372
  617MOL0     C83169   6.000  10.086   5.437  0.4218 -0.4768  0.0674
  617MOL0     C83170   5.864  10.036   5.491  0.1141  0.0233 -0.7003
  617MOL0     C83171   5.800   9.923   5.408  0.7952 -0.2122 -0.2521
  617MOL0     C83172   5.648   9.920   5.445 -0.1052 -0.1488 -0.0933
  617MOL0     C83173   5.566   9.796   5.397 -0.3997  0.9362  0.0684
  617MOL0     C83174   5.513   9.832   5.257 -0.1815  0.5947  0.2757
  617MOL0     C83175   5.427   9.707   5.210  0.0806 -0.5337 -0.1564
  617MOL0     C83176   5.398   9.709   5.058  0.9432 -0.5847 -0.1410
  617MOL0     N83177   5.255   9.660   5.039 -0.5957 -0.4707  0.3408
  617MOL0     C83178   5.147   9.739   5.065 -1.1070 -0.3226  0.3775
  617MOL0     C83179   5.038   9.670   5.034 -0.2832  1.1282  0.2825
  617MOL0     C83180   4.896   9.717   5.063  0.0197 -0.0542 -0.3730
  617MOL0     C83181   4.789   9.607   5.042 -0.7674  0.0074  0.2184
  617MOL0     C83182   4.668   9.644   5.104  0.2034 -0.4031 -0.1902
  617MOL0     C83183   4.606   9.780   5.048 -0.3061 -0.2789  0.0599
  617MOL0     O83184   4.480   9.808   5.110 -0.2382  0.3969 -0.4831
  617MOL0     C83185   4.374   9.745   5.053  0.3700  1.0724  0.2658
  617MOL0     C83186   4.254   9.756   5.124 -0.5034 -0.0163 -0.5206
  617MOL0     C83187   4.133   9.705   5.081 -0.6844  0.4978 -0.1304
  617MOL0     C83188   4.020   9.721   5.185 -0.5530 -0.0511  0.0317
  617MOL0     C83189   4.125   9.641   4.954  0.2015  0.1670 -0.0156
  617MOL0     C83190   4.002   9.598   4.888  0.3055  0.5787 -0.6544
  617MOL0     O83191   3.901   9.549   4.960  0.1791  0.5954  0.1968
  617MOL0     C83192   3.787   9.518   4.896  0.5070  0.3705  0.6210
  617MOL0     C83193   3.727   9.600   4.799  0.0463 -0.2535  0.6381
  617MOL0     C83194   3.601   9.566   4.742 -1.3857 -0.1544  0.1319
  617MOL0     C83195   3.538   9.447   4.786  0.8206 -0.5532  0.1215
  617MOL0     O83196   3.404   9.430   4.733 -0.3878 -0.6173 -0.0662
  617MOL0     C83197   3.334   9.312   4.779 -0.3058 -0.7188  0.2255
  617MOL0     C83198   3.236   9.292   4.664 -0.2369 -0.4261  0.1322
  617MOL0     C83199   3.317   9.225   4.552 -0.3904  0.6324  0.4534
  617MOL0     C83200   3.244   9.156   4.437 -0.0408 -0.4162  0.7779
  617MOL0     C83201   3.181   9.266   4.340  0.2513  0.1992 -0.7198
  617MOL0     C83202   3.099   9.194   4.241  0.1663  0.8635  0.7688
  617MOL0     C83203   2.971   9.133   4.287  0.0879  0.0887 -0.3681
  617MOL0     C83204   2.863   9.241   4.309  0.1785 -0.8180  0.0745
  617MOL0    Cl83205   2.711   9.158   4.364  0.1186 -0.5205  0.3734
  617MOL0     C83206   3.608   9.358   4.863  0.2944  0.2251 -0.4917
  617MOL0     C83207   3.735   9.392   4.914 -1.1597  0.1327 -0.5613
  617MOL0     O83208   3.996   9.618   4.770 -0.2542 -0.4261  1.2619
  617MOL0     C83209   4.248   9.630   4.881  0.3927 -0.4375  0.0155
  617MOL0     C83210   4.364   9.677   4.932  0.3679  1.1045 -0.3304
  617MOL0     N83211   5.080   9.544   4.990  0.4132 -0.4549 -0.3671
  617MOL0     N83212   5.204   9.545   4.990 -1.0113 -0.0019 -0.2070
  617MOL0     C83213   6.191  10.413   5.481 -0.5745  0.0533  0.2690
  617MOL0     C83214   6.307  10.468   5.442 -0.3503 -0.7920  0.5912
  617MOL0     C83215   6.727  10.492   5.242  0.8524  0.2105 -0.0392
  617MOL0     C83216   6.812  10.426   5.150 -0.5444 -0.4399  0.2813
  617MOL0     C83217   6.917  10.502   5.092 -0.4150  0.1006 -0.1438
  617MOL0     C83218   6.922  10.642   5.113  1.2615 -0.8438  0.5776
  617MOL0     O83219   7.027  10.716   5.060  0.2311 -0.2582 -0.2996
  617MOL0     C83220   6.992  10.762   4.921 -0.3900  1.1543  0.1638
  617MOL0     C83221   7.006  10.913   4.908 -0.4390  0.0469 -0.3306
  617MOL0     C83222   7.151  10.957   4.938  0.2228 -0.0090 -0.0091
  617MOL0     C83223   7.266  10.861   4.911 -0.1907  0.3646  0.0225
  617MOL0     C83224   7.266  10.799   4.777 -0.5169  0.4081  0.2935
  617MOL0     C83225   7.255  10.763   4.665 -0.8490  0.2334 -0.1459
  617MOL0     C83226   6.831  10.709   5.194  0.6240  0.2064  0.0745
  617MOL0     C83227   6.733  10.630   5.254 -0.0909 -0.1821  0.4231
  617MOL0     H83228   6.430  10.209   5.259 -0.2122  1.7038 -2.8813
  617MOL0     H83229   6.236  10.119   5.311  0.0637  0.0637  0.4994
  617MOL0     H83230   5.993  10.085   5.328  2.6041  0.7743 -0.1476
  617MOL0     H83231   6.074  10.009   5.464  0.8954  0.0183  0.2065
  617MOL0     H83232   5.865  10.009   5.597  0.3055 -1.5400 -1.0716
  617MOL0     H83233   5.801  10.121   5.465 -0.1619  0.2020  0.4999
  617MOL0     H83234   5.807   9.945   5.301 -0.4008  1.0432 -0.1121
  617MOL0     H83235   5.856   9.830   5.416  1.2743  0.1152  0.2842
  617MOL0     H83236   5.636   9.920   5.554 -1.3048 -0.5554 -0.2086
  617MOL0     H83237   5.603  10.015   5.414 -0.7017  0.2187  1.7589
  617MOL0     H83238   5.631   9.708   5.399 -1.2716  0.2941  1.2104
  617MOL0     H83239   5.487   9.765   5.466  0.2543 -1.5684 -0.2141
  617MOL0     H83240   5.450   9.921   5.259 -0.6817  0.5045 -3.7724
  617MOL0     H83241   5.586   9.854   5.178 -0.3927 -2.2139 -0.7883
  617MOL0     H83242   5.487   9.617   5.229 -0.9943 -1.0594  0.8410
  617MOL0     H83243   5.337   9.700   5.270 -0.2754  0.3568 -0.5692
  617MOL0     H83244   5.461   9.639   5.001  2.8241  0.1644  0.9282
  617MOL0     H83245   5.401   9.808   5.013 -0.6546  0.5598  2.1035
  617MOL0     H83246   5.142   9.846   5.082 -0.2540 -0.3795  1.0616
  617MOL0     H83247   4.895   9.757   5.165 -2.2191 -0.4565 -0.1962
  617MOL0     H83248   4.873   9.800   4.995  1.8748 -0.3694 -1.4759
  617MOL0     H83249   4.816   9.511   5.087 -1.5669 -0.4151 -0.1805
  617MOL0     H83250   4.783   9.587   4.935 -0.6751 -0.9462  0.3788
  617MOL0     H83251   4.688   9.666   5.210 -0.3473 -0.2290 -0.1169
  617MOL0     H83252   4.589   9.568   5.105 -1.2266  1.0293 -0.3394
  617MOL0     H83253   4.601   9.777   4.938  1.9416  0.6599 -0.1125
  617MOL0     H83254   4.667   9.867   5.069 -0.5810 -0.3629  1.2517
  617MOL0     H83255   4.263   9.815   5.215 -0.0781  1.1013 -1.2643
  617MOL0     H83256   4.018   9.645   5.263 -1.6223 -0.4698 -0.3794
  617MOL0     H83257   4.031   9.818   5.235  1.7713  0.1919 -0.8675
  617MOL0     H83258   3.918   9.718   5.144 -0.0585 -1.7563 -1.1848
  617MOL0     H83259   3.776   9.693   4.772 -0.4071  0.0155  0.7484
  617MOL0     H83260   3.555   9.621   4.661 -0.9347 -1.3653 -0.9916
  617MOL0     H83261   3.395   9.222   4.789 -1.9546 -1.6596  3.0552
  617MOL0     H83262   3.286   9.323   4.877  1.1659  4.0641  0.6413
  617MOL0     H83263   3.165   9.218   4.701  0.2386 -0.4878  0.9570
  617MOL0     H83264   3.183   9.385   4.640 -0.5282 -0.3234  1.1284
  617MOL0     H83265   3.375   9.144   4.597 -2.1456 -1.0045 -0.0805
  617MOL0     H83266   3.383   9.302   4.509 -0.6456  0.7250  0.2221
  617MOL0     H83267   3.306   9.084   4.383  1.0146  1.5927 -0.8254
  617MOL0     H83268   3.174   9.091   4.491  0.3937 -3.8653 -2.3747
  617MOL0     H83269   3.252   9.337   4.297 -0.3719 -1.2289 -4.5043
  617MOL0     H83270   3.107   9.325   4.393 -2.0806 -0.8750 -2.5913
  617MOL0     H83271   3.076   9.267   4.163 -0.5953 -3.1837 -3.2431
  617MOL0     H83272   3.157   9.118   4.186  0.8930  1.0789  1.2239
  617MOL0     H83273   2.973   9.077   4.380  1.3958 -0.6038 -0.7882
  617MOL0     H83274   2.947   9.064   4.206  0.7452  1.5259 -1.8410
  617MOL0     H83275   2.842   9.300   4.220 -2.3034  0.3463  1.3252
  617MOL0     H83276   2.901   9.303   4.390 -0.3296 -3.3800  2.4562
  617MOL0     H83277   3.566   9.261   4.888 -2.3105  1.7023  1.3608
  617MOL0     H83278   3.787   9.317   4.973 -0.3035  1.7354  0.8170
  617MOL0     H83279   4.244   9.573   4.788 -1.2151 -0.4744  0.0812
  617MOL0     H83280   4.451   9.657   4.869 -0.6978  0.4740 -1.6656
  617MOL0     H83281   6.140  10.483   5.546 -0.1468  2.1316 -1.5375
  617MOL0     H83282   6.325  10.573   5.461  2.2402 -0.6101 -2.1270
  617MOL0     H83283   6.807  10.320   5.129  1.8223 -0.3475 -1.2091
  617MOL0     H83284   6.994  10.457   5.030 -1.7296 -1.0438 -0.9850
  617MOL0     H83285   7.055  10.701   4.856  0.6541  1.3296  0.9803
  617MOL0     H83286   6.887  10.748   4.894 -0.4786  3.2898 -0.7898
  617MOL0     H83287   6.937  10.968   4.973  0.4701 -0.3544  1.0329
  617MOL0     H83288   6.994  10.928   4.801 -0.3864 -0.7552 -0.4566
  617MOL0     H83289   7.162  10.989   5.042 -0.6958  1.1293 -0.2419
  617MOL0     H83290   7.172  11.043   4.874 -0.7828  0.2967  0.0532
  617MOL0     H83291   7.266  10.788   4.993 -1.5435  0.7488  0.3840
  617MOL0     H83292   7.350  10.931   4.920  0.8823 -0.9361  0.5077
  617MOL0     H83293   7.254  10.715   4.569  2.6447 -0.9576  0.2614
  617MOL0     H83294   6.844  10.817   5.198  0.0077  0.4171 -2.3201
  617MOL0     H83295   6.666  10.684   5.320 -0.0713  0.0798  0.2312
  618MOL0     O83296  10.126   9.048   3.348 -0.0095 -0.0709  0.1261
  618MOL0     C83297  10.158   9.065   3.466  0.2358 -0.7589  0.4378
  618MOL0     O83298  10.280   9.066   3.521 -0.3915  0.2789 -0.5529
  618MOL0     C83299  10.396   9.048   3.444  0.8479 -0.2955 -0.1916
  618MOL0     C83300  10.420   9.052   3.303 -0.3141 -0.0806 -0.5592
  618MOL0     C83301  10.548   9.028   3.251  0.6655  0.9017 -0.3687
  618MOL0     C83302  10.653   8.994   3.335  0.5633 -0.1151 -0.1323
  618MOL0     O83303  10.767   8.957   3.277  0.3706  0.4599 -0.0234
  618MOL0     C83304  10.882   9.030   3.321  0.2040  0.1024 -0.4864
  618MOL0     C83305  11.000   8.962   3.266  0.1351  0.5783  0.1901
  618MOL0     C83306  11.135   9.041   3.283 -0.3201  0.4173  0.1063
  618MOL0     C83307  11.189   9.056   3.424 -0.6571  0.0483 -0.6913
  618MOL0     C83308  11.325   9.141   3.434 -0.4101 -0.2871  0.1600
  618MOL0     C83309  11.429   9.087   3.336 -0.1011  0.2697  0.7828
  618MOL0     C83310  11.568   9.139   3.356  0.8397  0.1567 -0.2743
  618MOL0     C83311  11.632   9.086   3.489 -0.4259 -0.0691  0.1729
  618MOL0     N83312  11.751   9.152   3.536  0.5463 -0.6986 -0.0202
  618MOL0     C83313  11.853   9.180   3.460 -0.8014  0.3897  0.1240
  618MOL0     C83314  11.939   9.242   3.538 -0.2582  0.4021  0.0698
  618MOL0     C83315  12.082   9.273   3.502  0.1453  0.2664 -0.1987
  618MOL0     C83316  12.101   9.391   3.392 -0.4531 -0.1773  0.7822
  618MOL0     C83317  12.251   9.403   3.370 -0.2129 -0.2998  0.8125
  618MOL0     C83318  12.288   9.533   3.304  0.0964  0.1205 -0.6625
  618MOL0     O83319  12.429   9.532   3.309 -0.2257  0.3829 -0.0843
  618MOL0     C83320  12.500   9.625   3.232  0.5974  0.9457 -0.3863
  618MOL0     C83321  12.449   9.717   3.143  0.6855  0.7465  0.3923
  618MOL0     C83322  12.530   9.813   3.079 -0.4750 -0.2492 -0.2444
  618MOL0     C83323  12.477   9.912   2.974 -0.0008 -0.1703 -0.1059
  618MOL0     C83324  12.672   9.809   3.110 -0.1462 -0.2114 -0.1802
  618MOL0     C83325  12.766   9.902   3.046 -0.0743 -0.2346 -0.1283
  618MOL0     O83326  12.898   9.862   3.057 -0.2799  0.3846  0.2655
  618MOL0     C83327  12.994   9.952   3.011  0.4138 -0.1153  0.3527
  618MOL0     C83328  13.001   9.980   2.874 -0.5708 -1.1209  0.9226
  618MOL0     C83329  13.096  10.074   2.826 -0.2003  0.9465  0.0604
  618MOL0     C83330  13.194  10.125   2.920  0.6248 -0.3909 -0.3409
  618MOL0     O83331  13.285  10.215   2.874  0.0347 -0.6810  0.4164
  618MOL0     C83332  13.297  10.283   2.751 -0.4058  0.1097 -0.3587
  618MOL0     C83333  13.401  10.230   2.654  0.5213  0.0525  0.0125
  618MOL0     C83334  13.419  10.314   2.530  0.5330  0.5105 -0.4749
  618MOL0     C83335  13.544  10.299   2.451 -0.1710  0.6884  0.6626
  618MOL0     C83336  13.540  10.164   2.377 -0.1312 -1.0229  0.0551
  618MOL0     C83337  13.644  10.144   2.275  0.3137  0.1639 -0.3733
  618MOL0     C83338  13.787  10.155   2.342  0.7716  0.2041  0.0668
  618MOL0     C83339  13.871  10.269   2.295 -0.0975 -0.3696  0.7502
  618MOL0    Cl83340  14.039  10.237   2.368  0.6095  0.3253 -0.1218
  618MOL0     C83341  13.192  10.087   3.051  0.4451  0.4612  0.6828
  618MOL0     C83342  13.097   9.995   3.100 -0.6234  0.0378  0.6425
  618MOL0     O83343  12.731  10.008   2.994  0.6193 -0.3604  0.0451
  618MOL0     C83344  12.723   9.706   3.193  0.0098  0.1591  0.2246
  618MOL0     C83345  12.636   9.615   3.254  1.2702 -0.6958 -0.0606
  618MOL0     N83346  11.884   9.259   3.661 -0.2177 -0.0907  0.3910
  618MOL0     N83347  11.775   9.187   3.666 -0.8089 -0.5957  0.3785
  618MOL0     C83348  10.635   8.985   3.473 -0.9161 -0.3024  0.0052
  618MOL0     C83349  10.510   9.018   3.523 -0.9371  0.5402 -0.0470
  618MOL0     C83350  10.042   9.100   3.562 -0.2669  0.2558  0.3821
  618MOL0     C83351   9.906   9.087   3.525 -0.1484 -0.7353 -0.5748
  618MOL0     C83352   9.810   9.142   3.617  0.6929  0.5481 -0.7934
  618MOL0     C83353   9.844   9.163   3.755 -0.6542  0.1305  0.4722
  618MOL0     O83354   9.765   9.188   3.865 -0.3776  0.2288 -0.5457
  618MOL0     C83355   9.626   9.181   3.836 -0.0675 -0.5270 -0.1781
  618MOL0     C83356   9.562   9.207   3.967 -0.2768 -0.3270 -0.6715
  618MOL0     C83357   9.591   9.100   4.080  0.5189 -0.0268 -0.4157
  618MOL0     C83358   9.514   9.143   4.213 -0.5323 -0.1569  0.4826
  618MOL0     C83359   9.366   9.125   4.194  0.2196  1.6799 -0.3862
  618MOL0     C83360   9.244   9.116   4.193 -0.5292  0.4274 -0.5792
  618MOL0     C83361   9.980   9.157   3.784  0.0277  0.2065  0.0504
  618MOL0     C83362  10.072   9.130   3.693  0.4831 -0.3425  0.5361
  618MOL0     H83363  10.340   9.075   3.233 -0.5255 -2.0604 -1.0094
  618MOL0     H83364  10.573   9.040   3.146  1.5819 -0.4357 -0.3200
  618MOL0     H83365  10.885   9.131   3.279  0.0526  0.8287  1.1741
  618MOL0     H83366  10.900   9.033   3.429 -1.7229 -0.8570 -0.1013
  618MOL0     H83367  10.990   8.861   3.308 -0.9887  0.5477 -0.1203
  618MOL0     H83368  10.996   8.956   3.157  1.4844 -2.6788  0.2025
  618MOL0     H83369  11.202   8.976   3.227 -1.9893 -0.9475 -0.4044
  618MOL0     H83370  11.134   9.139   3.234  1.6462 -0.1409 -1.1696
  618MOL0     H83371  11.125   9.103   3.499 -0.4909 -0.4052 -0.2580
  618MOL0     H83372  11.204   8.960   3.476  1.0533  1.9796  2.7263
  618MOL0     H83373  11.298   9.244   3.410 -1.2502 -1.0453 -2.5982
  618MOL0     H83374  11.357   9.131   3.538  2.0022  1.1572 -0.3746
  618MOL0     H83375  11.429   8.980   3.357 -3.3680  0.0767  0.2624
  618MOL0     H83376  11.393   9.106   3.234 -1.1453  0.0190  1.1010
  618MOL0     H83377  11.623   9.111   3.266  0.1779  1.1730 -1.0076
  618MOL0     H83378  11.560   9.248   3.352 -0.2131  0.0921 -0.1370
  618MOL0     H83379  11.648   8.979   3.474 -0.1370 -0.7289  4.0260
  618MOL0     H83380  11.566   9.085   3.576 -0.2723 -2.1086  0.3143
  618MOL0     H83381  11.860   9.150   3.356  1.9972  1.4616 -0.0769
  618MOL0     H83382  12.132   9.302   3.594 -0.9822  1.3185  0.1180
  618MOL0     H83383  12.138   9.185   3.469  1.3678  0.7223  0.6278
  618MOL0     H83384  12.060   9.483   3.434 -0.9935  0.3232 -0.7609
  618MOL0     H83385  12.046   9.360   3.303 -0.2101 -2.4726  1.3705
  618MOL0     H83386  12.288   9.323   3.305 -1.1263  2.0772 -2.9656
  618MOL0     H83387  12.304   9.397   3.465 -0.5465  2.2235  1.2277
  618MOL0     H83388  12.238   9.608   3.366 -1.2980 -1.3921  0.1222
  618MOL0     H83389  12.253   9.534   3.201  1.3701  0.0036 -1.1075
  618MOL0     H83390  12.348   9.710   3.106  1.2175 -0.9483 -0.8732
  618MOL0     H83391  12.511  10.016   2.982  0.6401 -0.2990 -0.9995
  618MOL0     H83392  12.503   9.888   2.871 -1.4856 -0.6190 -0.4010
  618MOL0     H83393  12.368   9.914   2.983  0.1793  0.8735  3.5562
  618MOL0     H83394  12.934   9.939   2.800 -1.5808 -1.9371  2.2465
  618MOL0     H83395  13.098  10.097   2.721  3.6894 -0.9123 -0.4545
  618MOL0     H83396  13.195  10.278   2.711 -2.1510  1.9506  3.4018
  618MOL0     H83397  13.311  10.389   2.772  1.4556 -0.0753 -0.5615
  618MOL0     H83398  13.491  10.236   2.717 -0.1246 -0.0799  0.9804
  618MOL0     H83399  13.380  10.127   2.626  0.3397 -0.4603  1.8991
  618MOL0     H83400  13.424  10.417   2.567 -0.6242  0.1803  0.6953
  618MOL0     H83401  13.322  10.300   2.480  1.3765  0.0264 -2.0273
  618MOL0     H83402  13.564  10.386   2.387 -0.0576  1.9605  2.3360
  618MOL0     H83403  13.619  10.288   2.529  1.3953 -1.3110 -1.0143
  618MOL0     H83404  13.442  10.159   2.328  0.5199  1.9048 -1.7754
  618MOL0     H83405  13.540  10.091   2.459 -2.1716  0.8028  1.8271
  618MOL0     H83406  13.623  10.052   2.220 -3.0151  1.0804 -0.8303
  618MOL0     H83407  13.641  10.221   2.198  2.5332 -0.1263 -0.8135
  618MOL0     H83408  13.848  10.069   2.312  1.0947  0.9721 -1.5958
  618MOL0     H83409  13.767  10.155   2.449  0.1255 -1.5041 -0.0286
  618MOL0     H83410  13.842  10.374   2.309  2.4240  0.5769 -0.3865
  618MOL0     H83411  13.877  10.258   2.186 -1.6574 -1.1150  0.7247
  618MOL0     H83412  13.272  10.122   3.116 -1.3502  1.5771  2.3789
  618MOL0     H83413  13.112   9.950   3.198 -0.3028 -0.2923  0.4436
  618MOL0     H83414  12.829   9.688   3.209  0.3110 -0.4742 -2.0353
  618MOL0     H83415  12.670   9.531   3.315  1.0007 -2.1662 -1.8433
  618MOL0     H83416  10.722   8.963   3.534 -0.6995 -0.2233 -0.2764
  618MOL0     H83417  10.496   9.018   3.630 -0.1270 -0.5927  0.0724
  618MOL0     H83418   9.876   9.069   3.422  0.3379 -1.5576 -0.5812
  618MOL0     H83419   9.705   9.150   3.590 -0.4788 -2.8013  2.0797
  618MOL0     H83420   9.608   9.254   3.757  1.0390  1.0119  0.9506
  618MOL0     H83421   9.588   9.085   3.799 -0.1637 -0.3654 -0.5068
  618MOL0     H83422   9.454   9.212   3.949 -0.4556 -0.0215  0.3946
  618MOL0     H83423   9.591   9.305   4.006  1.7972 -1.2722  0.2847
  618MOL0     H83424   9.699   9.093   4.096  0.1878 -0.3007  2.0608
  618MOL0     H83425   9.550   9.007   4.041  0.5082  0.4549 -1.6035
  618MOL0     H83426   9.532   9.248   4.233  1.6855  0.2606 -2.8992
  618MOL0     H83427   9.549   9.087   4.300  1.4117 -0.4323 -0.4175
  618MOL0     H83428   9.140   9.114   4.220  0.5243 -0.7430  4.4710
  618MOL0     H83429  10.009   9.181   3.885 -1.9672  0.9972  0.4853
  618MOL0     H83430  10.175   9.136   3.727 -0.0972  1.4133  2.1840
  619MOL0     O83431   2.489   4.119  10.607 -0.1556 -0.6591  0.2062
  619MOL0     C83432   2.512   4.157  10.491  0.4935 -0.1596  0.0302
  619MOL0     O83433   2.424   4.155  10.388  0.0504  0.4057 -0.5024
  619MOL0     C83434   2.290   4.114  10.406  0.4531  0.8959  1.0507
  619MOL0     C83435   2.259   3.986  10.468 -0.4790 -1.0013 -0.0377
  619MOL0     C83436   2.123   3.949  10.493 -0.0667 -0.8095 -0.2010
  619MOL0     C83437   2.020   4.034  10.448 -0.5487 -0.5148 -0.7338
  619MOL0     O83438   1.889   3.991  10.476  0.3826  1.0312  0.0384
  619MOL0     C83439   1.785   4.063  10.415  0.2651  0.9926  0.5633
  619MOL0     C83440   1.665   3.958  10.408  0.1180  0.0264 -0.4318
  619MOL0     C83441   1.553   4.013  10.333  0.7998  0.7445  0.6511
  619MOL0     C83442   1.497   4.143  10.390 -0.1066  0.1317  0.7103
  619MOL0     C83443   1.403   4.233  10.309 -0.5545 -0.8798 -0.3842
  619MOL0     C83444   1.279   4.160  10.277 -0.1756 -0.5243 -0.7277
  619MOL0     C83445   1.166   4.255  10.248 -0.0652  0.1088 -0.3238
  619MOL0     C83446   1.131   4.343  10.369 -0.2699  0.2499 -0.4188
  619MOL0     N83447   1.007   4.412  10.353  0.0443  0.6754  0.4111
  619MOL0     C83448   0.881   4.361  10.341 -0.0131  0.4070  0.3637
  619MOL0     C83449   0.801   4.466  10.318  0.2233 -0.3599  0.2845
  619MOL0     C83450   0.664   4.457  10.268  0.7404 -0.5674 -0.1119
  619MOL0     C83451   0.604   4.323  10.279  0.4906  0.9752  0.8014
  619MOL0     C83452   0.467   4.323  10.206  0.6505  1.2594 -0.3039
  619MOL0     C83453   0.389   4.194  10.181 -0.8044  0.4628  0.5716
  619MOL0     O83454   0.251   4.214  10.143  0.2668 -0.1942 -1.2241
  619MOL0     C83455   0.171   4.103  10.147 -0.4154 -0.0334 -0.8558
  619MOL0     C83456   0.221   3.965  10.154  0.6503 -1.0162  0.2796
  619MOL0     C83457   0.132   3.855  10.142 -0.1593 -0.7756 -1.1873
  619MOL0     C83458   0.183   3.715  10.156 -0.2269 -0.3916  0.5361
  619MOL0     C83459  -0.009   3.878  10.130 -0.1741 -1.0355  1.0557
  619MOL0     C83460  -0.114   3.779  10.082  0.4243 -0.3108 -0.2240
  619MOL0     O83461  -0.233   3.824  10.093  0.1372 -0.8155  0.2322
  619MOL0     C83462  -0.341   3.768  10.035 -0.5495  0.1547 -1.1067
  619MOL0     C83463  -0.368   3.802   9.909 -0.2004 -0.2606  0.9655
  619MOL0     C83464  -0.478   3.747   9.832 -0.7025 -0.2366  0.4087
  619MOL0     C83465  -0.557   3.653   9.894  0.1546  0.8490  0.7017
  619MOL0     O83466  -0.667   3.590   9.836  0.0298 -0.1472 -0.4855
  619MOL0     C83467  -0.637   3.538   9.706  0.0280  0.9297 -0.9123
  619MOL0     C83468  -0.745   3.437   9.645  0.3252  0.4140 -0.0119
  619MOL0     C83469  -0.799   3.332   9.752 -0.0740  0.2589  0.2117
  619MOL0     C83470  -0.898   3.228   9.686 -0.2897 -0.3186 -0.9143
  619MOL0     C83471  -1.037   3.277   9.704 -0.0449 -0.7222  0.0333
  619MOL0     C83472  -1.099   3.324   9.571  0.7251 -0.8338 -0.6366
  619MOL0     C83473  -1.240   3.382   9.588 -0.1421 -0.2948 -0.5185
  619MOL0     C83474  -1.288   3.412   9.448 -0.0430 -0.9340 -0.9379
  619MOL0    Cl83475  -1.341   3.261   9.350  0.1759  0.0749 -0.6237
  619MOL0     C83476  -0.531   3.624  10.030  0.1743 -0.6644 -0.4800
  619MOL0     C83477  -0.422   3.679  10.097  0.5865  0.2779  0.0067
  619MOL0     O83478  -0.082   3.676  10.018 -0.0411  0.6867  0.2399
  619MOL0     C83479  -0.060   4.011  10.122  0.7683 -1.0151  0.4725
  619MOL0     C83480   0.029   4.120  10.133  0.4400  0.1285 -0.6593
  619MOL0     N83481   0.881   4.577  10.315  0.2498 -0.6269 -0.9648
  619MOL0     N83482   1.004   4.549  10.339 -0.2608 -0.2535  0.9207
  619MOL0     C83483   2.060   4.153  10.392  0.1608 -0.9935  0.0559
  619MOL0     C83484   2.188   4.193  10.358 -0.3005  0.2146  0.1068
  619MOL0     C83485   2.638   4.232  10.465  0.8244 -0.1678  0.3887
  619MOL0     C83486   2.657   4.298  10.340 -0.4705  0.5743 -0.8300
  619MOL0     C83487   2.776   4.377  10.331  0.6074  0.1859  0.0528
  619MOL0     C83488   2.882   4.378  10.427  0.3563  0.0177 -0.0132
  619MOL0     O83489   2.995   4.451  10.405 -0.5285  0.1471 -0.8152
  619MOL0     C83490   3.001   4.555  10.303 -0.0518  0.2611 -0.3970
  619MOL0     C83491   3.142   4.613  10.293 -0.1303  0.1239  0.5010
  619MOL0     C83492   3.220   4.619  10.423 -0.0108  0.0720 -0.1446
  619MOL0     C83493   3.152   4.680  10.538 -0.6453  0.5027 -0.1032
  619MOL0     C83494   3.114   4.818  10.504  0.4889  0.2105  0.8086
  619MOL0     C83495   3.085   4.934  10.477 -0.2131 -0.0308  0.4167
  619MOL0     C83496   2.852   4.313  10.546  0.1473  0.5957  0.0247
  619MOL0     C83497   2.733   4.239  10.564  0.3843 -1.1226  0.1306
  619MOL0     H83498   2.337   3.921  10.505 -0.9607 -3.1355 -2.4819
  619MOL0     H83499   2.099   3.858  10.548 -1.1100 -0.0566  0.6342
  619MOL0     H83500   1.760   4.142  10.487 -3.0490  0.8481 -0.2830
  619MOL0     H83501   1.801   4.091  10.311 -0.9205 -1.4626 -0.3529
  619MOL0     H83502   1.687   3.862  10.361 -2.5666 -0.1135 -1.5812
  619MOL0     H83503   1.627   3.941  10.509  1.0822 -0.9657 -0.2211
  619MOL0     H83504   1.585   4.036  10.231  0.1358  1.8055  0.6743
  619MOL0     H83505   1.472   3.939  10.329  3.1353 -1.9783  0.2755
  619MOL0     H83506   1.457   4.122  10.490  4.1773  1.6372  3.0128
  619MOL0     H83507   1.584   4.208  10.407  2.2423 -2.2006 -1.5503
  619MOL0     H83508   1.404   4.335  10.346  3.4324 -1.3699  1.3784
  619MOL0     H83509   1.454   4.250  10.214  0.0447 -0.1879  0.0577
  619MOL0     H83510   1.300   4.090  10.195 -0.5584 -0.3953 -0.9394
  619MOL0     H83511   1.255   4.091  10.358 -0.3383 -0.6481 -0.8787
  619MOL0     H83512   1.186   4.318  10.161  1.8987  1.2165  0.8673
  619MOL0     H83513   1.078   4.191  10.238  0.0965 -0.4074  1.2844
  619MOL0     H83514   1.198   4.429  10.385 -1.8819  1.3997  0.3779
  619MOL0     H83515   1.125   4.280  10.458 -2.3606  1.1994  0.1781
  619MOL0     H83516   0.845   4.261  10.320 -3.0969  1.0031  2.2666
  619MOL0     H83517   0.600   4.528  10.321  0.4737 -0.2221 -0.8916
  619MOL0     H83518   0.673   4.482  10.162 -0.0051 -1.2588 -0.3460
  619MOL0     H83519   0.595   4.303  10.386 -0.3674  0.6935  0.6864
  619MOL0     H83520   0.665   4.248  10.227 -0.8464 -0.6433  1.4457
  619MOL0     H83521   0.492   4.365  10.108 -0.7179 -0.7363 -1.5705
  619MOL0     H83522   0.403   4.389  10.264  0.4355 -1.4431  2.8556
  619MOL0     H83523   0.387   4.132  10.271 -2.5237 -0.5698 -0.1112
  619MOL0     H83524   0.448   4.142  10.105 -0.0817  0.4744  1.1161
  619MOL0     H83525   0.323   3.934  10.174 -0.0136 -2.5514  1.4438
  619MOL0     H83526   0.121   3.644  10.212  1.9382 -1.7174  1.3481
  619MOL0     H83527   0.208   3.682  10.054  1.5108  0.5137  0.6440
  619MOL0     H83528   0.283   3.717  10.199 -0.1471  2.3127  0.3872
  619MOL0     H83529  -0.300   3.873   9.864  0.5573 -0.9059  1.0854
  619MOL0     H83530  -0.492   3.765   9.726  4.0245 -1.9211 -0.7477
  619MOL0     H83531  -0.628   3.619   9.633 -1.5008  1.8597 -0.1338
  619MOL0     H83532  -0.547   3.477   9.716  0.5055  1.2229 -3.0554
  619MOL0     H83533  -0.820   3.508   9.608 -0.0729  1.5435  2.6771
  619MOL0     H83534  -0.705   3.383   9.559 -2.0255 -0.9516 -0.3624
  619MOL0     H83535  -0.832   3.368   9.851 -1.8545  0.6587 -0.4881
  619MOL0     H83536  -0.708   3.279   9.781 -1.3835 -2.1047  0.2886
  619MOL0     H83537  -0.864   3.211   9.583 -0.5919  3.1559 -1.7333
  619MOL0     H83538  -0.900   3.133   9.740  1.1770 -0.2682 -0.7158
  619MOL0     H83539  -1.032   3.360   9.775  1.2139 -1.2598  0.6032
  619MOL0     H83540  -1.101   3.196   9.740 -1.6641 -0.6515 -2.4305
  619MOL0     H83541  -1.032   3.400   9.530  0.9571  2.0689  4.2906
  619MOL0     H83542  -1.096   3.232   9.513  0.0747  0.2573 -2.4550
  619MOL0     H83543  -1.220   3.473   9.645  1.7533  1.2423 -3.3918
  619MOL0     H83544  -1.303   3.311   9.642 -1.4349  0.5449 -0.8639
  619MOL0     H83545  -1.215   3.473   9.395  1.2640 -0.8401  0.8842
  619MOL0     H83546  -1.374   3.477   9.468  1.3602  1.4725 -2.2679
  619MOL0     H83547  -0.594   3.550  10.078 -1.2325  2.4540  2.9785
  619MOL0     H83548  -0.402   3.665  10.203 -3.9502 -2.5723  0.7696
  619MOL0     H83549  -0.162   4.043  10.105  2.0447  1.9443 -2.9897
  619MOL0     H83550  -0.007   4.222  10.126  2.9946  1.0567 -1.3898
  619MOL0     H83551   1.985   4.229  10.368  3.0572  0.9167 -4.2330
  619MOL0     H83552   2.216   4.290  10.318  0.1370  0.0047 -0.1048
  619MOL0     H83553   2.575   4.290  10.269 -1.5528  1.5069  0.2683
  619MOL0     H83554   2.787   4.440  10.243  1.1334 -3.0170 -2.3853
  619MOL0     H83555   2.977   4.515  10.204  2.3496 -1.3339 -0.4167
  619MOL0     H83556   2.927   4.626  10.341  1.3648  0.1679  2.8252
  619MOL0     H83557   3.141   4.714  10.251 -0.3951 -0.2512 -0.4271
  619MOL0     H83558   3.212   4.562  10.227  0.1762 -0.2210  1.0775
  619MOL0     H83559   3.317   4.668  10.415  0.5362 -0.9241  0.2314
  619MOL0     H83560   3.252   4.520  10.455  2.0886  0.0325 -2.1151
  619MOL0     H83561   3.231   4.681  10.613  0.2886  1.8006 -1.0586
  619MOL0     H83562   3.070   4.613  10.563 -1.0571  1.2362  0.5400
  619MOL0     H83563   3.068   5.037  10.453 -1.8010 -0.3268  0.1800
  619MOL0     H83564   2.917   4.319  10.633  0.9436  1.9087 -0.6429
  619MOL0     H83565   2.709   4.203  10.664  0.2609  0.3265  0.6490
  620MOL0     O83566   6.191   3.918   0.193  0.9079  0.2103 -0.0001
  620MOL0     C83567   6.163   3.954   0.310 -0.8367  0.7645  0.1397
  620MOL0     O83568   6.154   3.872   0.416  0.0797  0.5682  0.2257
  620MOL0     C83569   6.173   3.735   0.401 -0.1100 -0.7803  0.0859
  620MOL0     C83570   6.065   3.652   0.387 -0.0690  0.8114  0.7624
  620MOL0     C83571   6.089   3.512   0.365 -0.3513  0.6546  0.1863
  620MOL0     C83572   6.215   3.457   0.352 -0.5317  0.5689  0.3283
  620MOL0     O83573   6.245   3.328   0.323 -0.0431 -0.1159 -0.3262
  620MOL0     C83574   6.148   3.240   0.268 -0.9709 -1.5053  0.3559
  620MOL0     C83575   6.232   3.118   0.224 -0.1177  0.8218 -0.1393
  620MOL0     C83576   6.140   3.019   0.151  0.9443 -0.0504 -0.7219
  620MOL0     C83577   6.199   2.880   0.151  1.0132 -0.2260 -0.2098
  620MOL0     C83578   6.124   2.773   0.075 -0.0581  0.7226  1.2926
  620MOL0     C83579   6.006   2.710   0.155 -0.7735  0.0997  0.1072
  620MOL0     C83580   6.012   2.555   0.159 -0.6621 -0.1390 -0.0243
  620MOL0     C83581   5.902   2.483   0.234 -0.3935 -0.4486 -0.0358
  620MOL0     N83582   5.866   2.349   0.171 -0.0628 -0.3988  1.0955
  620MOL0     C83583   5.753   2.281   0.196  0.9840 -0.0386 -0.3324
  620MOL0     C83584   5.772   2.161   0.134 -0.1362 -0.2224  0.0263
  620MOL0     C83585   5.676   2.048   0.122  0.9333 -0.0419 -0.1487
  620MOL0     C83586   5.521   2.081   0.143  0.6420 -0.1879  0.2614
  620MOL0     C83587   5.465   2.147   0.020  0.6758  0.1588 -0.4923
  620MOL0     C83588   5.309   2.175   0.037 -0.3913 -0.2648 -0.6504
  620MOL0     O83589   5.240   2.092  -0.055 -0.3932  0.4328  0.0062
  620MOL0     C83590   5.106   2.092  -0.080 -0.9286 -1.2269 -0.4352
  620MOL0     C83591   5.053   1.992  -0.162 -0.1018 -0.4373  0.0962
  620MOL0     C83592   4.912   1.989  -0.178  0.6071  0.6197  0.3028
  620MOL0     C83593   4.847   1.876  -0.262 -0.1135  0.2599  0.0643
  620MOL0     C83594   4.832   2.083  -0.111 -0.3261 -0.4541 -0.2644
  620MOL0     C83595   4.684   2.105  -0.137  1.1486 -0.1168 -0.2809
  620MOL0     O83596   4.648   2.075  -0.267 -0.0458 -0.0379 -0.6008
  620MOL0     C83597   4.520   2.029  -0.279  0.1399  0.7778  0.0617
  620MOL0     C83598   4.410   2.115  -0.267 -0.5894 -0.3979  0.1695
  620MOL0     C83599   4.279   2.064  -0.266  0.0324 -0.5212 -0.3346
  620MOL0     C83600   4.262   1.925  -0.288 -0.2554  0.8426 -0.6972
  620MOL0     O83601   4.140   1.876  -0.277 -1.0368 -0.3524 -0.8544
  620MOL0     C83602   4.130   1.810  -0.148 -0.1649  0.8890 -0.1138
  620MOL0     C83603   3.990   1.841  -0.083 -0.3711  0.1713 -0.2076
  620MOL0     C83604   3.977   1.991  -0.064 -0.0985 -0.5797 -0.6793
  620MOL0     C83605   4.047   2.043   0.057  0.8831 -0.2524  0.2165
  620MOL0     C83606   4.038   2.197   0.078 -0.0795 -0.9005  0.4684
  620MOL0     C83607   3.889   2.242   0.106 -0.8785  0.0031 -0.2969
  620MOL0     C83608   3.837   2.179   0.237  0.4838 -0.2726 -0.1419
  620MOL0     C83609   3.699   2.228   0.265 -0.2549 -0.0435 -0.0058
  620MOL0    Cl83610   3.698   2.380   0.350 -0.2096 -0.0325  0.1651
  620MOL0     C83611   4.372   1.837  -0.299  0.2124 -0.3834 -0.9488
  620MOL0     C83612   4.501   1.891  -0.301 -0.5094  0.0221 -0.4049
  620MOL0     O83613   4.610   2.145  -0.043  0.1520  0.2724  0.8290
  620MOL0     C83614   4.893   2.176  -0.018  0.0355 -0.3817  0.0196
  620MOL0     C83615   5.028   2.177   0.002  0.3374 -0.5930  0.2572
  620MOL0     N83616   5.898   2.166   0.078  0.0045 -0.4365 -0.0495
  620MOL0     N83617   5.957   2.277   0.098  0.0828  0.2239  0.5678
  620MOL0     C83618   6.322   3.544   0.385 -0.7983  0.2919  0.1753
  620MOL0     C83619   6.304   3.680   0.405  0.6628 -0.6767  0.0949
  620MOL0     C83620   6.134   4.103   0.331  0.5751 -0.4722  0.4605
  620MOL0     C83621   6.172   4.197   0.225 -1.2872 -0.4954  0.4540
  620MOL0     C83622   6.146   4.333   0.248  0.3446 -0.7993  0.0564
  620MOL0     C83623   6.093   4.381   0.369 -0.1726 -0.2348 -0.0956
  620MOL0     O83624   6.073   4.513   0.383 -0.2058  0.4553  0.5359
  620MOL0     C83625   6.015   4.561   0.508 -0.0876 -0.0633 -0.0934
  620MOL0     C83626   5.972   4.703   0.494 -0.1703 -1.3380 -0.1603
  620MOL0     C83627   5.850   4.731   0.407  0.0702 -0.0188 -0.1291
  620MOL0     C83628   5.874   4.730   0.262  0.0604 -0.2372  0.1042
  620MOL0     C83629   5.744   4.751   0.202 -0.4122  0.2517  0.4607
  620MOL0     C83630   5.643   4.764   0.142 -0.3709 -0.0105 -0.3604
  620MOL0     C83631   6.063   4.283   0.475 -0.7575 -0.4800  0.7369
  620MOL0     C83632   6.090   4.149   0.455 -0.1708 -0.4737 -0.5090
  620MOL0     H83633   5.962   3.683   0.403 -1.1715 -2.1497  0.0923
  620MOL0     H83634   6.003   3.448   0.353 -1.2147  1.1089  3.1535
  620MOL0     H83635   6.082   3.207   0.350  3.4373 -1.3016  4.4378
  620MOL0     H83636   6.095   3.275   0.179  0.1127 -0.0180  0.2725
  620MOL0     H83637   6.312   3.137   0.152  0.4947 -0.4444  0.1778
  620MOL0     H83638   6.295   3.085   0.307 -0.1583  2.7170  0.7088
  620MOL0     H83639   6.038   3.019   0.190  1.0100  1.0648 -0.5240
  620MOL0     H83640   6.127   3.053   0.048 -1.0035  0.7037 -0.2651
  620MOL0     H83641   6.303   2.879   0.116  1.2022 -0.3784  0.3352
  620MOL0     H83642   6.218   2.842   0.252  1.2745  0.5110  0.0259
  620MOL0     H83643   6.094   2.818  -0.020  0.7405  1.1608  1.2330
  620MOL0     H83644   6.193   2.692   0.050 -0.4563 -0.0250  2.4966
  620MOL0     H83645   6.006   2.737   0.261 -2.1396  0.7134 -0.0346
  620MOL0     H83646   5.915   2.754   0.112  0.9585  1.8056 -2.1208
  620MOL0     H83647   6.009   2.527   0.054 -1.4651  0.9681 -0.3180
  620MOL0     H83648   6.104   2.513   0.201 -0.2757  1.0240  0.3478
  620MOL0     H83649   5.813   2.546   0.241 -1.0715 -1.3343 -0.4502
  620MOL0     H83650   5.932   2.468   0.338 -1.2622 -0.2351  0.2474
  620MOL0     H83651   5.663   2.308   0.252 -0.8100 -1.1552 -2.4956
  620MOL0     H83652   5.694   1.999   0.027 -0.4898 -4.5733  1.6508
  620MOL0     H83653   5.702   1.972   0.197  3.0768  1.3818  0.6590
  620MOL0     H83654   5.525   2.151   0.226  3.4323  0.5537 -0.3858
  620MOL0     H83655   5.464   1.992   0.173 -0.7420 -0.0367 -1.7245
  620MOL0     H83656   5.472   2.075  -0.062 -0.1594  0.3218 -0.7135
  620MOL0     H83657   5.519   2.241   0.007  1.9891 -0.5817 -0.5814
  620MOL0     H83658   5.282   2.277   0.007 -0.6474  0.3238  1.4602
  620MOL0     H83659   5.274   2.168   0.140  0.0461 -3.1034 -0.6142
  620MOL0     H83660   5.115   1.919  -0.213 -0.1139  0.0104 -0.5732
  620MOL0     H83661   4.782   1.815  -0.199 -0.7425 -0.5140 -1.2954
  620MOL0     H83662   4.805   1.920  -0.352 -1.6601 -3.9132 -1.5165
  620MOL0     H83663   4.926   1.805  -0.291  1.6604  1.0494  2.5784
  620MOL0     H83664   4.435   2.220  -0.270 -0.4070 -0.3699  1.6769
  620MOL0     H83665   4.196   2.134  -0.257 -0.3340 -0.7171 -1.9292
  620MOL0     H83666   4.133   1.704  -0.175  1.9916  1.1439 -1.0520
  620MOL0     H83667   4.215   1.833  -0.082 -0.3377 -1.1494  0.8997
  620MOL0     H83668   3.910   1.816  -0.154 -0.0206 -2.4797  0.2610
  620MOL0     H83669   3.977   1.781   0.007  2.3730 -4.0292 -2.3184
  620MOL0     H83670   3.871   2.011  -0.049  0.1989 -0.9224  2.5876
  620MOL0     H83671   4.012   2.045  -0.152  1.5483 -2.5130 -1.3079
  620MOL0     H83672   4.019   1.980   0.143 -1.1943  0.8948  0.4315
  620MOL0     H83673   4.154   2.019   0.052  0.9224 -0.0229 -0.0662
  620MOL0     H83674   4.056   2.247  -0.017  2.3129  0.4133  1.5321
  620MOL0     H83675   4.105   2.244   0.149 -0.1737  1.6143 -1.0041
  620MOL0     H83676   3.886   2.351   0.115  1.2534  0.0036  1.0828
  620MOL0     H83677   3.824   2.216   0.022  0.7791  1.9597 -2.2880
  620MOL0     H83678   3.906   2.193   0.321  0.5887 -1.9960  0.0954
  620MOL0     H83679   3.830   2.070   0.228 -0.0985 -0.2349 -0.2053
  620MOL0     H83680   3.648   2.157   0.330  1.6825 -2.9307 -1.4415
  620MOL0     H83681   3.635   2.226   0.177 -0.9390  3.9845  0.1981
  620MOL0     H83682   4.352   1.732  -0.314 -1.7289 -0.2807  0.5891
  620MOL0     H83683   4.584   1.825  -0.324  0.0860  1.7445 -3.8809
  620MOL0     H83684   4.820   2.251   0.011  0.2643  0.4814 -1.5444
  620MOL0     H83685   5.072   2.250   0.068  0.5881 -1.5474  1.1720
  620MOL0     H83686   6.422   3.503   0.388 -1.1660 -0.6330  3.5990
  620MOL0     H83687   6.383   3.753   0.419  1.3446 -1.5125  0.6868
  620MOL0     H83688   6.207   4.158   0.131  0.3962  1.1002  0.3517
  620MOL0     H83689   6.169   4.410   0.176  1.5618  1.7742  2.9708
  620MOL0     H83690   5.923   4.510   0.539  0.2681 -0.8040 -0.2532
  620MOL0     H83691   6.088   4.545   0.588  1.5672 -3.6931 -2.1175
  620MOL0     H83692   6.057   4.763   0.459 -0.1798 -1.6562 -0.7404
  620MOL0     H83693   5.939   4.751   0.587 -2.7837 -0.3136 -1.5057
  620MOL0     H83694   5.806   4.822   0.449 -1.7631 -0.8274 -0.2159
  620MOL0     H83695   5.780   4.649   0.425  2.8411 -2.1763  1.6005
  620MOL0     H83696   5.918   4.636   0.228  0.9957 -0.0155  0.6517
  620MOL0     H83697   5.948   4.805   0.232  1.7857 -0.3309  3.5498
  620MOL0     H83698   5.541   4.782   0.115 -0.2091  2.2343  0.3366
  620MOL0     H83699   6.037   4.305   0.578  4.7013  0.4435  2.2212
  620MOL0     H83700   6.073   4.078   0.535 -0.7945 -0.8190 -0.9384
  621MOL0     O83701   5.054   5.658   3.341 -0.0422 -0.3177  0.0775
  621MOL0     C83702   5.175   5.647   3.342  0.7293  0.6200 -0.0819
  621MOL0     O83703   5.240   5.580   3.244 -0.5626  0.5470 -0.5291
  621MOL0     C83704   5.172   5.507   3.150  0.1165  0.9168  0.0766
  621MOL0     C83705   5.102   5.571   3.053  0.3932  0.3796  0.2581
  621MOL0     C83706   5.069   5.501   2.937 -1.2961 -0.0385  0.2266
  621MOL0     C83707   5.103   5.362   2.925  0.2111 -0.1057 -0.1969
  621MOL0     O83708   5.077   5.295   2.804  0.0356  0.0641 -0.1781
  621MOL0     C83709   5.118   5.374   2.690  0.0926  0.3060  0.0910
  621MOL0     C83710   5.102   5.261   2.583  0.0982 -0.0859  0.1139
  621MOL0     C83711   5.139   5.320   2.441  0.9682  0.3277  0.3438
  621MOL0     C83712   5.096   5.234   2.322 -0.3942 -0.2401  1.5500
  621MOL0     C83713   5.149   5.298   2.193  0.9698 -0.2599  0.6099
  621MOL0     C83714   5.102   5.211   2.074  0.0842  0.0478 -0.2280
  621MOL0     C83715   5.148   5.264   1.937  0.8712  0.2512  0.3241
  621MOL0     C83716   5.076   5.201   1.816  0.1533  0.0295  0.2086
  621MOL0     N83717   4.929   5.210   1.801 -0.0924  0.0833 -0.2634
  621MOL0     C83718   4.838   5.133   1.874 -1.3046  0.1402  0.1321
  621MOL0     C83719   4.725   5.147   1.800 -0.7936  0.2440  0.0585
  621MOL0     C83720   4.587   5.095   1.819  0.3987 -0.5162  0.0068
  621MOL0     C83721   4.491   5.180   1.907 -0.0308  0.0223  0.2783
  621MOL0     C83722   4.468   5.321   1.853  0.3183  0.2082 -1.0276
  621MOL0     C83723   4.406   5.329   1.714 -0.3223  0.8222 -0.7115
  621MOL0     O83724   4.286   5.248   1.712 -0.0976 -0.1360 -0.0464
  621MOL0     C83725   4.167   5.313   1.736  0.5454 -0.1095 -0.6789
  621MOL0     C83726   4.095   5.280   1.849  0.3370 -0.9978 -0.2785
  621MOL0     C83727   3.956   5.322   1.866  0.3251 -0.3868  0.0543
  621MOL0     C83728   3.886   5.274   1.989  0.3876 -0.0956  0.0405
  621MOL0     C83729   3.895   5.399   1.768  0.0693  0.0690  0.3944
  621MOL0     C83730   3.751   5.450   1.778 -0.6690 -0.5542 -0.3979
  621MOL0     O83731   3.690   5.441   1.894  0.0724  0.0896  0.2193
  621MOL0     C83732   3.561   5.502   1.916 -0.0296  0.2331  0.2578
  621MOL0     C83733   3.485   5.587   1.828 -0.4646 -1.1651  0.3043
  621MOL0     C83734   3.356   5.643   1.859 -0.2100  0.0139  0.2020
  621MOL0     C83735   3.299   5.595   1.979  0.1636 -0.4145  0.0839
  621MOL0     O83736   3.171   5.624   2.026  0.2351 -0.0952 -0.0819
  621MOL0     C83737   3.078   5.681   1.926  0.7165 -0.3908 -0.3548
  621MOL0     C83738   3.072   5.833   1.939 -0.4523  0.2937 -0.2096
  621MOL0     C83739   2.941   5.891   1.898  0.7280  0.6334 -0.2442
  621MOL0     C83740   2.837   5.889   2.011 -0.2241 -0.3689 -0.4904
  621MOL0     C83741   2.691   5.921   1.956  0.3820 -0.1758 -1.2994
  621MOL0     C83742   2.592   5.904   2.072 -0.1759 -0.4091  0.2752
  621MOL0     C83743   2.459   5.861   2.014  0.0497  0.4350  0.6541
  621MOL0     C83744   2.471   5.711   1.978  0.5404 -0.9465  0.2007
  621MOL0    Cl83745   2.315   5.648   1.945  0.0644  0.0124 -0.2152
  621MOL0     C83746   3.368   5.509   2.059 -0.3246  0.7144 -0.1944
  621MOL0     C83747   3.497   5.461   2.028 -0.8229  0.2330 -0.3806
  621MOL0     O83748   3.703   5.495   1.676 -0.4751  0.4936  0.4199
  621MOL0     C83749   3.972   5.437   1.654  0.1258  0.3497 -0.3634
  621MOL0     C83750   4.100   5.384   1.640 -0.5536  0.4618  0.5299
  621MOL0     N83751   4.749   5.219   1.684  0.9246  0.2418 -0.1920
  621MOL0     N83752   4.872   5.258   1.689 -0.2057 -0.0389  0.2006
  621MOL0     C83753   5.176   5.296   3.030  0.2372 -0.7561  0.7847
  621MOL0     C83754   5.211   5.374   3.138  0.3949  0.2841 -0.1367
  621MOL0     C83755   5.256   5.707   3.451 -0.0020  0.9766  0.4341
  621MOL0     C83756   5.400   5.700   3.453  0.3093 -0.4619 -0.0332
  621MOL0     C83757   5.477   5.751   3.556 -0.7774  0.2941  0.7576
  621MOL0     C83758   5.410   5.823   3.662  0.3348  1.2794 -1.1730
  621MOL0     O83759   5.488   5.878   3.761 -0.3585 -0.2833  0.5028
  621MOL0     C83760   5.434   5.975   3.843  0.4690 -0.1659  0.0786
  621MOL0     C83761   5.564   6.026   3.908 -0.4091  0.6010 -0.2129
  621MOL0     C83762   5.586   5.955   4.045 -0.2737  0.5192 -0.3980
  621MOL0     C83763   5.697   6.032   4.114 -0.1362 -0.3188 -1.0528
  621MOL0     C83764   5.719   5.960   4.243 -0.2485  0.2379 -0.0685
  621MOL0     C83765   5.750   5.898   4.343  0.7851 -0.4973 -0.0530
  621MOL0     C83766   5.270   5.821   3.670  0.3938  0.6700  0.2153
  621MOL0     C83767   5.194   5.770   3.562  0.2498  0.9382 -0.3952
  621MOL0     H83768   5.074   5.676   3.056  0.2367  0.3518 -0.1891
  621MOL0     H83769   5.024   5.549   2.851 -0.2056 -1.9233 -1.4944
  621MOL0     H83770   5.057   5.464   2.675  1.8980  1.5375 -0.1660
  621MOL0     H83771   5.221   5.401   2.712 -0.1950  1.4991  0.0471
  621MOL0     H83772   5.160   5.171   2.604 -2.5182 -2.6576 -2.8141
  621MOL0     H83773   5.001   5.219   2.589  0.1633 -0.0763  2.9691
  621MOL0     H83774   5.084   5.415   2.438  0.5336  0.1677  2.0614
  621MOL0     H83775   5.247   5.332   2.432  1.3058 -1.4158  1.5298
  621MOL0     H83776   5.131   5.131   2.330  0.5496 -0.0901 -0.1972
  621MOL0     H83777   4.987   5.242   2.316 -0.3501 -0.7355 -2.1796
  621MOL0     H83778   5.105   5.398   2.189  0.1319 -0.6366  0.0872
  621MOL0     H83779   5.258   5.304   2.197  1.0995 -0.9252 -1.0980
  621MOL0     H83780   5.152   5.114   2.085  1.5038  1.0366  3.6826
  621MOL0     H83781   4.997   5.180   2.076 -0.2011  1.0147  0.6274
  621MOL0     H83782   5.129   5.371   1.946  0.2039  0.0439  1.5072
  621MOL0     H83783   5.257   5.258   1.928  0.6469 -1.8205 -2.1193
  621MOL0     H83784   5.099   5.094   1.817  1.0919  0.1956  2.2041
  621MOL0     H83785   5.115   5.249   1.726 -0.6048  1.0125  0.3906
  621MOL0     H83786   4.853   5.068   1.960 -0.2490 -2.6678 -2.0029
  621MOL0     H83787   4.541   5.079   1.721  1.6133 -0.1982 -0.6268
  621MOL0     H83788   4.596   4.998   1.869 -4.6291 -2.7274 -2.6730
  621MOL0     H83789   4.515   5.183   2.013  1.0723 -0.6487  0.0605
  621MOL0     H83790   4.395   5.130   1.895 -0.3283  0.6182  0.0924
  621MOL0     H83791   4.559   5.381   1.864  0.6220 -0.6704  2.0302
  621MOL0     H83792   4.400   5.365   1.926  0.0621 -0.2033 -1.0181
  621MOL0     H83793   4.479   5.282   1.648 -0.6559 -2.1833  0.8923
  621MOL0     H83794   4.378   5.434   1.695  1.2471  1.2936 -0.5328
  621MOL0     H83795   4.142   5.229   1.932  1.7318  1.8730  0.8456
  621MOL0     H83796   3.808   5.200   1.964 -0.9839  0.3905  2.6050
  621MOL0     H83797   3.958   5.229   2.057  0.4617 -0.0582 -0.0129
  621MOL0     H83798   3.850   5.359   2.046 -0.3240 -1.6480  2.0338
  621MOL0     H83799   3.522   5.617   1.731  0.5082 -1.6366  0.5235
  621MOL0     H83800   3.303   5.708   1.790 -2.8183 -1.1844  0.9552
  621MOL0     H83801   3.091   5.651   1.822  1.0094  0.3325 -0.5384
  621MOL0     H83802   2.986   5.639   1.967  1.2628 -0.0231  1.3781
  621MOL0     H83803   3.098   5.859   2.042  0.6315  2.2012 -0.9083
  621MOL0     H83804   3.152   5.880   1.881  0.3084  1.8221  1.9637
  621MOL0     H83805   2.903   5.822   1.822  0.9272 -2.7200  2.4621
  621MOL0     H83806   2.948   5.990   1.854  3.1396  0.9747  0.7393
  621MOL0     H83807   2.838   5.793   2.063 -0.2172  0.1922  0.5586
  621MOL0     H83808   2.873   5.968   2.077  0.7944 -0.0713 -1.3643
  621MOL0     H83809   2.672   5.862   1.866  1.5514 -3.3762  0.3421
  621MOL0     H83810   2.698   6.028   1.935  2.6107  0.4148  1.6918
  621MOL0     H83811   2.621   5.826   2.142 -0.9739  0.1845  1.2867
  621MOL0     H83812   2.591   6.003   2.119  1.7034  0.5441 -1.4621
  621MOL0     H83813   2.433   5.917   1.923 -1.2178  0.6460  1.1299
  621MOL0     H83814   2.383   5.887   2.088 -0.9051 -0.6354  0.0694
  621MOL0     H83815   2.527   5.664   2.060  1.0221  0.3346  0.6326
  621MOL0     H83816   2.525   5.701   1.883 -1.4077 -0.0717 -1.0563
  621MOL0     H83817   3.323   5.482   2.154 -0.2022  0.0341 -0.3239
  621MOL0     H83818   3.542   5.395   2.102 -2.1621  0.9903  1.1924
  621MOL0     H83819   3.934   5.509   1.583 -2.4188 -1.5848 -1.0993
  621MOL0     H83820   4.156   5.404   1.549 -2.5738  1.2111 -0.6101
  621MOL0     H83821   5.197   5.190   3.020  0.8587 -0.4222 -2.5687
  621MOL0     H83822   5.259   5.323   3.222 -1.5023 -0.0732  0.7886
  621MOL0     H83823   5.445   5.658   3.363 -0.2167 -0.4677 -0.2971
  621MOL0     H83824   5.585   5.748   3.553 -0.7807  0.7605 -1.2687
  621MOL0     H83825   5.389   6.060   3.790 -2.5224 -2.0658 -0.7380
  621MOL0     H83826   5.364   5.933   3.915  2.0439 -0.3071  1.5765
  621MOL0     H83827   5.560   6.134   3.927  1.4836  0.2675  2.7736
  621MOL0     H83828   5.650   6.024   3.841 -1.5461 -0.6385 -1.7105
  621MOL0     H83829   5.619   5.852   4.026 -1.2803 -0.2337  1.6017
  621MOL0     H83830   5.497   5.948   4.108  0.2683  2.8925  0.7468
  621MOL0     H83831   5.672   6.137   4.135  0.3334 -0.3056 -0.5452
  621MOL0     H83832   5.792   6.037   4.060  0.4607  0.8667  0.0375
  621MOL0     H83833   5.790   5.839   4.422  1.5073  0.6937  0.5049
  621MOL0     H83834   5.220   5.871   3.752  2.6084  0.1633  1.9617
  621MOL0     H83835   5.088   5.793   3.569  0.6041  2.2265  1.4567
  622MOL0     O83836   2.124   8.226   1.468 -0.6947 -0.0004  0.0521
  622MOL0     C83837   2.136   8.226   1.347 -0.0961 -0.3191 -0.6382
  622MOL0     O83838   2.024   8.235   1.263 -0.2651  0.0107  0.0427
  622MOL0     C83839   1.895   8.246   1.326  0.1720 -0.2891 -0.6930
  622MOL0     C83840   1.846   8.138   1.401 -0.5208  0.2323 -0.7776
  622MOL0     C83841   1.734   8.142   1.477  0.5117  1.0896 -0.2649
  622MOL0     C83842   1.663   8.261   1.480  0.1171 -0.0930  0.2700
  622MOL0     O83843   1.555   8.252   1.568 -0.2000 -0.6694 -0.4895
  622MOL0     C83844   1.454   8.340   1.537 -0.5229  0.1665  0.0435
  622MOL0     C83845   1.344   8.314   1.629 -0.2092  0.5018 -0.6490
  622MOL0     C83846   1.203   8.376   1.614 -0.9218  0.3560 -0.1360
  622MOL0     C83847   1.123   8.352   1.748 -0.4062 -0.0377  0.2453
  622MOL0     C83848   0.978   8.384   1.723  1.0876  0.3312  0.0136
  622MOL0     C83849   0.906   8.291   1.615  0.1350  0.0590 -0.0370
  622MOL0     C83850   0.753   8.318   1.617  0.5305 -0.5248  0.1405
  622MOL0     C83851   0.713   8.450   1.545 -0.2897 -0.5066  0.1559
  622MOL0     N83852   0.589   8.471   1.483  0.2283  0.8901 -0.7050
  622MOL0     C83853   0.540   8.582   1.424  0.0982 -0.1580 -0.2074
  622MOL0     C83854   0.425   8.542   1.371  0.5773 -0.7583  0.0148
  622MOL0     C83855   0.352   8.640   1.279 -0.9072  0.9697 -0.9613
  622MOL0     C83856   0.204   8.608   1.272  0.4993 -0.8602  0.2752
  622MOL0     C83857   0.141   8.652   1.402 -0.5854 -0.9259 -0.2864
  622MOL0     C83858  -0.008   8.620   1.396 -0.6478 -0.4594  0.2123
  622MOL0     O83859  -0.077   8.731   1.335 -0.0168  0.4811 -0.0875
  622MOL0     C83860  -0.211   8.713   1.325 -0.8768 -0.5992  0.3062
  622MOL0     C83861  -0.291   8.609   1.336 -0.4598  1.3833  0.1248
  622MOL0     C83862  -0.425   8.609   1.320 -0.2668  0.0338 -0.2395
  622MOL0     C83863  -0.495   8.478   1.347  0.4933 -0.6591  0.8098
  622MOL0     C83864  -0.494   8.736   1.303 -0.8281  0.2407  0.2844
  622MOL0     C83865  -0.641   8.762   1.317  1.0072 -0.0443 -0.8070
  622MOL0     O83866  -0.692   8.857   1.228  0.0801 -0.3094 -0.0561
  622MOL0     C83867  -0.822   8.909   1.244 -0.5913 -0.1045  0.2699
  622MOL0     C83868  -0.938   8.834   1.276 -1.2132 -0.6357  0.1618
  622MOL0     C83869  -1.063   8.896   1.281  1.1496  0.1196 -0.1401
  622MOL0     C83870  -1.071   9.037   1.275  0.0706  0.4605  0.7169
  622MOL0     O83871  -1.188   9.108   1.274  0.0758  0.0810  0.1288
  622MOL0     C83872  -1.318   9.047   1.302 -0.5084  0.3024  0.0405
  622MOL0     C83873  -1.355   9.024   1.458 -0.5091  0.1962 -0.2707
  622MOL0     C83874  -1.488   8.950   1.488 -0.7059  0.5236 -0.5784
  622MOL0     C83875  -1.609   8.990   1.408  0.1391 -0.0085  0.5298
  622MOL0     C83876  -1.734   8.909   1.450 -0.1104 -0.4056  0.2054
  622MOL0     C83877  -1.855   8.990   1.410  0.0495  0.1440 -0.0854
  622MOL0     C83878  -1.980   8.898   1.411  0.3277 -0.1862 -0.4743
  622MOL0     C83879  -2.108   8.985   1.397 -0.0952 -0.3213  0.0399
  622MOL0    Cl83880  -2.261   8.883   1.423  0.3780 -0.0123 -0.1324
  622MOL0     C83881  -0.959   9.108   1.240 -0.1179  0.2458 -0.2314
  622MOL0     C83882  -0.837   9.045   1.221 -0.1217  0.0107 -0.4515
  622MOL0     O83883  -0.711   8.697   1.393 -0.6673 -0.2209 -0.1737
  622MOL0     C83884  -0.409   8.851   1.293  0.8926  0.1685  0.6525
  622MOL0     C83885  -0.267   8.843   1.297 -0.3356  0.1467 -0.7241
  622MOL0     N83886   0.405   8.409   1.382  1.3320 -1.0237 -1.0449
  622MOL0     N83887   0.504   8.364   1.455 -0.8577 -0.1564  0.3784
  622MOL0     C83888   1.703   8.379   1.395 -0.1787  0.4641 -0.5013
  622MOL0     C83889   1.821   8.363   1.321 -0.7050 -0.1413  0.1126
  622MOL0     C83890   2.268   8.222   1.288 -0.1641 -0.1556  0.6368
  622MOL0     C83891   2.379   8.234   1.371  0.8091 -0.2765  0.0649
  622MOL0     C83892   2.511   8.252   1.330  0.8763 -0.0996 -0.0523
  622MOL0     C83893   2.534   8.225   1.193  0.2533 -0.1796 -0.0715
  622MOL0     O83894   2.658   8.199   1.152 -0.7107  0.3255  0.5303
  622MOL0     C83895   2.782   8.217   1.231  0.0230 -0.1245 -0.1438
  622MOL0     C83896   2.811   8.097   1.328 -0.5929 -0.0406  0.2537
  622MOL0     C83897   2.948   8.113   1.400 -0.2331  0.5273  0.0038
  622MOL0     C83898   2.982   7.994   1.500 -0.4727 -0.7815 -1.0052
  622MOL0     C83899   3.010   7.873   1.437 -1.0143 -0.8429  0.5248
  622MOL0     C83900   3.032   7.777   1.371 -0.2117  0.0609  0.6822
  622MOL0     C83901   2.425   8.208   1.105  0.3738  0.5310 -0.2266
  622MOL0     C83902   2.295   8.202   1.154 -0.8094 -0.0432  0.2636
  622MOL0     H83903   1.906   8.048   1.397  0.9296  1.1924 -1.4367
  622MOL0     H83904   1.698   8.066   1.545 -2.2242  1.3533 -1.2964
  622MOL0     H83905   1.495   8.441   1.545 -1.9336  0.6981  1.1146
  622MOL0     H83906   1.434   8.314   1.432 -0.3636 -0.9350  0.2664
  622MOL0     H83907   1.336   8.204   1.629  2.4961  0.2254 -0.4759
  622MOL0     H83908   1.380   8.332   1.731  4.5991 -0.8589 -1.8383
  622MOL0     H83909   1.226   8.479   1.586 -0.1141  0.1821 -0.1388
  622MOL0     H83910   1.154   8.336   1.525  0.0959 -0.9217 -0.1507
  622MOL0     H83911   1.133   8.250   1.785 -0.1471  0.6142  2.0822
  622MOL0     H83912   1.159   8.421   1.824 -0.3463 -1.3810  1.4813
  622MOL0     H83913   0.918   8.381   1.814 -1.1714  0.9051 -1.3672
  622MOL0     H83914   0.981   8.488   1.688  1.0740  0.8463  1.5026
  622MOL0     H83915   0.946   8.316   1.516  2.4731  0.0513  0.8529
  622MOL0     H83916   0.934   8.188   1.639 -0.2046 -0.1758 -0.6220
  622MOL0     H83917   0.710   8.235   1.560  0.8190 -0.9796  0.5795
  622MOL0     H83918   0.719   8.309   1.721 -0.0858 -1.7648 -0.1473
  622MOL0     H83919   0.786   8.461   1.464 -0.6777  4.5296  0.2227
  622MOL0     H83920   0.749   8.525   1.615  2.3824  0.6781 -2.2926
  622MOL0     H83921   0.581   8.682   1.414 -3.1606  1.1896 -1.6862
  622MOL0     H83922   0.356   8.734   1.335 -2.1401 -0.8391  2.4140
  622MOL0     H83923   0.406   8.647   1.184  3.2601  1.3879  1.1953
  622MOL0     H83924   0.174   8.504   1.257 -2.6544  0.3147 -2.7187
  622MOL0     H83925   0.151   8.660   1.193 -2.1433 -3.5848  0.0586
  622MOL0     H83926   0.151   8.761   1.401  0.5194 -0.9727 -2.8252
  622MOL0     H83927   0.189   8.609   1.491 -1.4553 -1.7975 -0.2223
  622MOL0     H83928  -0.048   8.596   1.495  1.5450 -0.2590  1.1995
  622MOL0     H83929  -0.027   8.529   1.338 -2.4751  0.8621 -1.3953
  622MOL0     H83930  -0.230   8.521   1.355  0.2673  0.7757 -4.1443
  622MOL0     H83931  -0.540   8.488   1.447 -0.2344  2.9321  0.2680
  622MOL0     H83932  -0.580   8.472   1.278  0.9442  1.7526 -0.0569
  622MOL0     H83933  -0.428   8.394   1.335  2.1012  0.4840  1.4200
  622MOL0     H83934  -0.935   8.725   1.271 -1.5073 -0.5945 -1.3793
  622MOL0     H83935  -1.144   8.824   1.291  3.2603 -2.1871  1.4097
  622MOL0     H83936  -1.388   9.120   1.259 -0.4337  1.3952  1.6812
  622MOL0     H83937  -1.322   8.952   1.249 -1.7581 -2.4527  4.5149
  622MOL0     H83938  -1.265   8.977   1.497  0.4737  0.3487 -2.2422
  622MOL0     H83939  -1.372   9.122   1.504 -1.3079 -0.3306  0.5811
  622MOL0     H83940  -1.504   8.957   1.596  0.2029  0.3513 -0.4254
  622MOL0     H83941  -1.468   8.846   1.462  0.6159  0.9000 -1.1701
  622MOL0     H83942  -1.615   9.097   1.428  0.3536 -0.1229  1.2618
  622MOL0     H83943  -1.597   8.969   1.301  1.1450  1.8458  0.2457
  622MOL0     H83944  -1.738   8.884   1.556 -0.0646 -3.3128 -0.3811
  622MOL0     H83945  -1.738   8.814   1.395  3.7339 -0.8758  0.5083
  622MOL0     H83946  -1.864   9.068   1.486  2.4675 -0.4453  0.9065
  622MOL0     H83947  -1.842   9.020   1.305 -1.8696 -2.6552 -1.2273
  622MOL0     H83948  -1.987   8.837   1.501  1.6436 -0.8771 -0.8231
  622MOL0     H83949  -1.955   8.831   1.329 -0.4806 -1.0072 -0.0738
  622MOL0     H83950  -2.114   9.028   1.297 -2.3293 -4.7089 -2.0131
  622MOL0     H83951  -2.100   9.065   1.472  2.0014 -1.5628  1.2420
  622MOL0     H83952  -0.974   9.215   1.237 -3.0281 -0.0506  0.7931
  622MOL0     H83953  -0.752   9.110   1.207 -1.4070  2.0244  0.5801
  622MOL0     H83954  -0.447   8.953   1.288  3.2867  1.2033  1.6984
  622MOL0     H83955  -0.220   8.939   1.277 -1.6030  1.1734  0.9511
  622MOL0     H83956   1.657   8.477   1.396  0.2451  0.7099  2.4159
  622MOL0     H83957   1.848   8.444   1.253 -1.5793 -1.5451 -2.0081
  622MOL0     H83958   2.352   8.229   1.476 -1.2970  0.5523 -0.3951
  622MOL0     H83959   2.586   8.259   1.409 -0.5486  2.6765  1.2006
  622MOL0     H83960   2.866   8.229   1.162 -0.3212 -0.1721 -0.5780
  622MOL0     H83961   2.763   8.308   1.290 -1.0390 -0.9072  0.7563
  622MOL0     H83962   2.823   8.000   1.278 -0.7629  0.8348 -1.5538
  622MOL0     H83963   2.731   8.081   1.400 -1.7506 -0.4455 -1.0634
  622MOL0     H83964   2.959   8.209   1.453  0.7181  1.5416 -1.9242
  622MOL0     H83965   3.021   8.100   1.320 -0.5801 -1.4361 -0.0455
  622MOL0     H83966   2.897   7.984   1.567 -0.3666 -1.1693 -0.9292
  622MOL0     H83967   3.069   8.026   1.558 -0.8141  2.1797 -1.9433
  622MOL0     H83968   3.064   7.695   1.309 -2.1547 -0.9446  0.9300
  622MOL0     H83969   2.435   8.189   0.999  1.5808  0.5673 -0.1235
  622MOL0     H83970   2.209   8.167   1.098  1.5758 -0.6514 -3.3564
  623MOL0     O83971   9.775   1.346  11.095 -0.4745  0.5203  0.1000
  623MOL0     C83972   9.836   1.267  11.167  0.0136 -0.6444 -0.1613
  623MOL0     O83973   9.816   1.134  11.174 -0.4557  0.1980  0.2267
  623MOL0     C83974   9.684   1.101  11.156 -0.3359 -0.0138 -0.6501
  623MOL0     C83975   9.625   1.098  11.034  0.3536 -1.3020 -0.2564
  623MOL0     C83976   9.487   1.077  11.026 -0.1015 -0.3088 -0.1416
  623MOL0     C83977   9.408   1.050  11.139  0.2954  0.0194 -0.0413
  623MOL0     O83978   9.265   1.028  11.125 -0.1983 -0.0212  0.0247
  623MOL0     C83979   9.197   1.083  11.011  0.8453 -0.7908 -0.6361
  623MOL0     C83980   9.044   1.083  11.043  0.5371  0.2221  0.3538
  623MOL0     C83981   8.939   1.120  10.936 -0.7508 -0.4933 -0.0286
  623MOL0     C83982   8.797   1.153  10.992 -0.0758 -0.3375  0.7598
  623MOL0     C83983   8.705   1.217  10.873 -0.1917 -0.4128 -0.5524
  623MOL0     C83984   8.560   1.162  10.886 -0.0664  0.1743 -0.1914
  623MOL0     C83985   8.480   1.203  10.759  0.0102 -0.4932 -0.1050
  623MOL0     C83986   8.338   1.153  10.753  1.0897 -0.0256 -0.6740
  623MOL0     N83987   8.250   1.260  10.689 -0.6630 -0.0463 -0.2767
  623MOL0     C83988   8.123   1.297  10.732 -0.0805  0.5943  0.5094
  623MOL0     C83989   8.083   1.390  10.642  0.6903 -0.4565 -0.1076
  623MOL0     C83990   7.955   1.464  10.632 -0.0021  0.5953  0.4457
  623MOL0     C83991   7.831   1.385  10.581 -0.7083  0.6410  0.0332
  623MOL0     C83992   7.716   1.478  10.558  0.7176  0.0421  0.0368
  623MOL0     C83993   7.599   1.406  10.495  0.2595  0.3279 -0.2043
  623MOL0     O83994   7.502   1.514  10.471 -0.0660  0.7543 -0.1119
  623MOL0     C83995   7.385   1.493  10.413 -0.2326  0.4488  0.4222
  623MOL0     C83996   7.326   1.369  10.373 -1.0164 -0.5484 -0.1246
  623MOL0     C83997   7.199   1.362  10.311 -0.3200  0.0173  0.2910
  623MOL0     C83998   7.148   1.226  10.268 -0.4921  0.5122  0.2377
  623MOL0     C83999   7.118   1.478  10.303 -0.0055 -1.4888  0.0827
  623MOL0     C84000   6.984   1.493  10.233 -0.8859 -0.7551 -0.2462
  623MOL0     O84001   6.920   1.609  10.244 -0.0001  0.4584  0.0111
  623MOL0     C84002   6.798   1.611  10.170 -1.1651  0.1325 -0.0014
  623MOL0     C84003   6.699   1.514  10.192 -0.0250 -0.3570 -0.6821
  623MOL0     C84004   6.570   1.514  10.126 -0.5346 -0.2966  0.1684
  623MOL0     C84005   6.545   1.608  10.029 -0.4350  0.4226 -0.4385
  623MOL0     O84006   6.426   1.624   9.967 -0.6746 -0.2267 -0.0260
  623MOL0     C84007   6.359   1.750   9.950 -0.2379 -0.4245  0.4022
  623MOL0     C84008   6.222   1.715   9.892 -0.0324  0.1712 -0.1065
  623MOL0     C84009   6.130   1.656   9.992 -0.0422  0.4098 -0.3472
  623MOL0     C84010   6.136   1.503   9.983 -0.1549 -0.2879 -0.2644
  623MOL0     C84011   6.039   1.418  10.071 -0.2640  0.2390  0.4411
  623MOL0     C84012   5.887   1.455  10.053 -0.3728 -0.3448 -0.2179
  623MOL0     C84013   5.800   1.340  10.110 -0.3974 -0.1459  0.3844
  623MOL0     C84014   5.650   1.382  10.092  0.1809  0.3225 -0.9811
  623MOL0    Cl84015   5.543   1.236  10.124 -0.0942 -0.4053  0.1959
  623MOL0     C84016   6.644   1.719  10.019  0.1832  0.2388  0.5154
  623MOL0     C84017   6.769   1.717  10.087  0.6299 -0.1699  0.1612
  623MOL0     O84018   6.943   1.393  10.174 -0.8316 -0.4345  0.1185
  623MOL0     C84019   7.166   1.600  10.357 -0.0394  0.5334 -0.3949
  623MOL0     C84020   7.300   1.605  10.416  0.0582  0.4453 -0.6615
  623MOL0     N84021   8.175   1.405  10.543 -0.9444  0.3997  0.2257
  623MOL0     N84022   8.278   1.328  10.576  0.4102 -0.6329 -0.3105
  623MOL0     C84023   9.468   1.048  11.269 -0.0214 -0.3893 -0.1416
  623MOL0     C84024   9.603   1.079  11.273 -0.4584  0.2711 -0.0499
  623MOL0     C84025   9.944   1.323  11.247  0.1807  0.5736  0.1568
  623MOL0     C84026  10.019   1.243  11.333  0.0266  0.5614 -0.0111
  623MOL0     C84027  10.117   1.291  11.420 -0.4654 -0.6758  0.2417
  623MOL0     C84028  10.147   1.427  11.415 -0.7275 -0.1364  0.4412
  623MOL0     O84029  10.243   1.471  11.493 -0.1684 -0.0571 -0.1813
  623MOL0     C84030  10.284   1.608  11.515 -0.9527  0.3202  0.8446
  623MOL0     C84031  10.178   1.707  11.581  0.2844  1.0082 -0.4703
  623MOL0     C84032  10.092   1.657  11.709  0.6257 -0.5731 -0.2787
  623MOL0     C84033   9.961   1.586  11.671  0.5448 -0.3259  0.7190
  623MOL0     C84034   9.872   1.572  11.786  0.3533  0.1581  0.7260
  623MOL0     C84035   9.802   1.571  11.885 -0.4209 -1.5697  0.7874
  623MOL0     C84036  10.077   1.514  11.327  0.9498 -0.1243 -0.7152
  623MOL0     C84037   9.973   1.461  11.246  0.0857  0.1465  0.6548
  623MOL0     H84038   9.679   1.103  10.940 -3.3950  1.9993 -2.5198
  623MOL0     H84039   9.444   1.081  10.927 -1.2069  2.4798  0.3770
  623MOL0     H84040   9.230   1.185  10.994 -1.1390  0.1005  0.5308
  623MOL0     H84041   9.213   1.028  10.918 -4.1229 -1.0729 -1.5856
  623MOL0     H84042   9.030   0.980  11.077  2.1809 -0.2144 -0.1747
  623MOL0     H84043   9.031   1.151  11.127  0.8931 -0.7957  1.2702
  623MOL0     H84044   8.958   1.216  10.887 -3.2775  0.5169  0.7922
  623MOL0     H84045   8.945   1.042  10.859 -0.4066  1.2900 -1.8957
  623MOL0     H84046   8.751   1.066  11.040  0.0042  0.0581  1.5825
  623MOL0     H84047   8.803   1.237  11.062 -0.6427  1.1943 -0.9857
  623MOL0     H84048   8.707   1.327  10.878  0.3045 -0.3273 -1.9305
  623MOL0     H84049   8.734   1.183  10.773 -1.3907 -1.4622 -0.5577
  623MOL0     H84050   8.557   1.053  10.888 -1.4282  0.1880 -0.6374
  623MOL0     H84051   8.520   1.199  10.981  0.8572  0.0138  0.2769
  623MOL0     H84052   8.492   1.312  10.748  2.9239 -0.5197  1.7399
  623MOL0     H84053   8.521   1.150  10.673  1.8025 -2.8230  2.0403
  623MOL0     H84054   8.309   1.154  10.858  2.3063  0.4486 -0.3203
  623MOL0     H84055   8.331   1.060  10.696 -0.7482  0.2992 -1.0636
  623MOL0     H84056   8.074   1.269  10.825  0.8287  1.4573  1.2709
  623MOL0     H84057   7.917   1.497  10.729 -1.2910 -0.3982  0.3023
  623MOL0     H84058   7.955   1.549  10.562 -1.5710 -1.5216 -2.3519
  623MOL0     H84059   7.807   1.298  10.642 -1.2554 -2.5024 -4.1488
  623MOL0     H84060   7.857   1.341  10.484 -1.1611  0.7169 -0.1308
  623MOL0     H84061   7.744   1.557  10.487  0.4172  0.8808  0.8300
  623MOL0     H84062   7.668   1.518  10.648 -1.8792  2.1984 -2.1247
  623MOL0     H84063   7.557   1.328  10.559 -2.4126  1.8221 -0.0201
  623MOL0     H84064   7.621   1.358  10.399 -1.3071  0.8063 -0.8287
  623MOL0     H84065   7.379   1.275  10.386  0.2674 -0.0985 -1.7003
  623MOL0     H84066   7.139   1.215  10.160 -0.2936 -1.2441  0.3641
  623MOL0     H84067   7.216   1.147  10.301 -1.5632 -1.3621 -1.7459
  623MOL0     H84068   7.053   1.203  10.317 -0.1154 -0.2499  0.6219
  623MOL0     H84069   6.716   1.430  10.259 -2.2853 -1.3882 -1.3143
  623MOL0     H84070   6.496   1.437  10.144 -3.9543  1.9792 -2.6270
  623MOL0     H84071   6.342   1.802  10.045  0.1718 -0.4012  0.4655
  623MOL0     H84072   6.416   1.822   9.891 -1.5269 -0.7562 -1.3341
  623MOL0     H84073   6.176   1.806   9.852  2.3454  1.4209 -0.1318
  623MOL0     H84074   6.241   1.640   9.815  2.4076  2.8604 -2.3726
  623MOL0     H84075   6.032   1.702   9.979 -0.2172 -0.3594 -1.8576
  623MOL0     H84076   6.165   1.693  10.090  1.0410  1.1483 -0.9880
  623MOL0     H84077   6.130   1.464   9.881  3.5027  1.0895 -1.1548
  623MOL0     H84078   6.239   1.475  10.007 -0.3315 -1.2979 -0.6354
  623MOL0     H84079   6.071   1.433  10.175  0.7541 -1.3335  0.3928
  623MOL0     H84080   6.066   1.317  10.037  1.7671  0.8668  0.0428
  623MOL0     H84081   5.887   1.552  10.103  2.8846 -0.5050  0.3123
  623MOL0     H84082   5.864   1.469   9.947 -2.4521 -1.1775  0.0668
  623MOL0     H84083   5.827   1.317  10.214  0.8562  0.1094  0.1292
  623MOL0     H84084   5.826   1.254  10.047  3.0566 -0.4395  1.9351
  623MOL0     H84085   5.634   1.418   9.990 -1.4320  1.1266 -0.4847
  623MOL0     H84086   5.638   1.460  10.168  3.2303 -0.2571  0.2394
  623MOL0     H84087   6.618   1.801   9.953 -1.6888 -0.1556  0.7056
  623MOL0     H84088   6.837   1.801  10.083  0.5093 -0.0332  0.8555
  623MOL0     H84089   7.112   1.694  10.345  1.0141  1.0459 -1.3572
  623MOL0     H84090   7.342   1.702  10.438  0.7039  0.3977 -1.6441
  623MOL0     H84091   9.396   1.041  11.350 -0.5481  0.4415 -0.5210
  623MOL0     H84092   9.645   1.094  11.372 -0.4728  0.6075 -0.0932
  623MOL0     H84093  10.007   1.135  11.329 -0.6060  0.6675 -1.2494
  623MOL0     H84094  10.178   1.220  11.475  2.6349  0.1692 -1.8320
  623MOL0     H84095  10.372   1.604  11.579  1.0768 -0.3493 -1.7989
  623MOL0     H84096  10.333   1.644  11.424  0.4554 -3.5580 -0.0876
  623MOL0     H84097  10.100   1.739  11.512 -2.1826 -0.4751  1.4586
  623MOL0     H84098  10.235   1.796  11.609  0.2396  1.5159 -1.9008
  623MOL0     H84099  10.068   1.739  11.777 -2.3613 -0.3422 -1.4451
  623MOL0     H84100  10.154   1.584  11.760  2.6836 -0.0530 -1.8849
  623MOL0     H84101   9.988   1.488  11.631  1.2689 -0.5701  1.7728
  623MOL0     H84102   9.910   1.640  11.590 -0.6375 -0.3949  1.4039
  623MOL0     H84103   9.740   1.582  11.971 -1.6613  1.3691 -0.3398
  623MOL0     H84104  10.097   1.621  11.315  0.0042  0.0411 -0.9369
  623MOL0     H84105   9.925   1.516  11.164  0.3953 -0.2642  0.1946
  624MOL0     O84106   5.374   7.719   9.596  0.2474  1.1058 -0.4512
  624MOL0     C84107   5.308   7.657   9.691 -0.2458 -0.0483  0.2329
  624MOL0     O84108   5.178   7.634   9.702 -0.3548 -0.4629  0.1267
  624MOL0     C84109   5.080   7.671   9.614  0.3722 -0.4658  0.7978
  624MOL0     C84110   5.075   7.788   9.541  0.1519 -1.4953  0.4698
  624MOL0     C84111   4.969   7.815   9.462  0.1005 -0.1294  0.0139
  624MOL0     C84112   4.851   7.737   9.478 -0.3833 -0.2842  0.2309
  624MOL0     O84113   4.743   7.755   9.398 -0.5193 -0.2117  0.0963
  624MOL0     C84114   4.658   7.857   9.433  0.3300 -0.3713 -0.5461
  624MOL0     C84115   4.557   7.788   9.521  0.9480  0.0860  0.7288
  624MOL0     C84116   4.412   7.843   9.541 -0.0358 -0.0893 -1.0563
  624MOL0     C84117   4.315   7.814   9.428 -0.0361  0.0495  0.2627
  624MOL0     C84118   4.175   7.829   9.481 -0.2032 -0.5166  0.1341
  624MOL0     C84119   4.069   7.838   9.370 -0.3098 -0.1840  0.0347
  624MOL0     C84120   3.934   7.865   9.432  0.0749 -0.3984 -0.3532
  624MOL0     C84121   3.908   8.004   9.480 -0.1229 -0.6150  1.0561
  624MOL0     N84122   3.772   8.033   9.522 -1.1610  0.2193  0.7948
  624MOL0     C84123   3.739   8.028   9.654 -0.6288  0.8554 -0.2512
  624MOL0     C84124   3.611   8.072   9.662 -0.0267  0.1144  0.0591
  624MOL0     C84125   3.528   8.093   9.785  0.3046  0.1939 -0.1268
  624MOL0     C84126   3.389   8.030   9.784  0.7646  0.4531  0.8308
  624MOL0     C84127   3.336   7.993   9.918 -0.2213  0.1019 -0.3883
  624MOL0     C84128   3.199   7.923   9.912 -0.7260  0.0964  0.3911
  624MOL0     O84129   3.102   8.023   9.885 -0.3952 -0.7685  0.6001
  624MOL0     C84130   2.995   7.997   9.804  0.2601  0.1813 -0.8253
  624MOL0     C84131   2.967   7.864   9.758  0.6575  1.2472 -0.1919
  624MOL0     C84132   2.867   7.825   9.670  0.3355 -0.5915 -0.3152
  624MOL0     C84133   2.868   7.675   9.632  0.0934  0.1619 -0.2499
  624MOL0     C84134   2.784   7.923   9.619 -0.7768  0.3252  1.1431
  624MOL0     C84135   2.659   7.890   9.531  0.3076  1.1003 -0.0803
  624MOL0     O84136   2.644   7.951   9.412 -0.0890  0.4384  0.3429
  624MOL0     C84137   2.554   7.896   9.323 -0.1774 -0.1368 -0.0246
  624MOL0     C84138   2.564   7.756   9.295  0.4606 -0.6676 -0.2808
  624MOL0     C84139   2.460   7.683   9.227  0.4896 -0.1908  0.7254
  624MOL0     C84140   2.353   7.758   9.173 -0.5903  0.2444 -0.4978
  624MOL0     O84141   2.263   7.678   9.110 -0.1059 -0.6366  0.7375
  624MOL0     C84142   2.131   7.733   9.096 -0.3783 -0.4043  0.6013
  624MOL0     C84143   2.031   7.625   9.058  1.3098 -0.0724  0.4697
  624MOL0     C84144   2.025   7.500   9.142 -0.5095  0.4849 -0.5388
  624MOL0     C84145   2.013   7.525   9.294  0.2912  0.3472 -0.0004
  624MOL0     C84146   2.001   7.394   9.370 -0.3555  0.0670 -0.1921
  624MOL0     C84147   2.127   7.297   9.360 -0.8947  0.9197  0.6026
  624MOL0     C84148   2.264   7.358   9.415 -0.2799  0.7562  0.2765
  624MOL0     C84149   2.360   7.248   9.463  0.3577  0.0846 -0.0509
  624MOL0    Cl84150   2.511   7.302   9.524 -0.0047  0.2923 -0.1230
  624MOL0     C84151   2.348   7.895   9.192 -0.6202  1.0153  1.1671
  624MOL0     C84152   2.456   7.963   9.256  0.4712  0.4835 -1.3570
  624MOL0     O84153   2.585   7.799   9.570 -0.2721  0.3662  0.7936
  624MOL0     C84154   2.810   8.057   9.654  0.5886  0.2748  0.5539
  624MOL0     C84155   2.920   8.093   9.738 -0.2624  0.3298  0.6549
  624MOL0     N84156   3.569   8.100   9.533  0.6547  0.3016  0.2293
  624MOL0     N84157   3.666   8.081   9.450  0.3803  0.4234 -0.4104
  624MOL0     C84158   4.851   7.631   9.566  0.6125 -0.0448 -0.5096
  624MOL0     C84159   4.966   7.590   9.628  0.5839 -0.6991 -0.2738
  624MOL0     C84160   5.394   7.591   9.795 -0.8028 -0.4427 -0.0800
  624MOL0     C84161   5.351   7.528   9.914 -0.4479 -0.2327  0.1609
  624MOL0     C84162   5.448   7.467   9.998 -0.5179 -0.6041  0.4088
  624MOL0     C84163   5.582   7.464   9.965  0.0253  0.2163 -0.6345
  624MOL0     O84164   5.685   7.392  10.022  0.3039  0.2834  0.3413
  624MOL0     C84165   5.642   7.295  10.117  0.6476  0.4917 -0.1588
  624MOL0     C84166   5.756   7.222  10.187  0.0813  0.2870  0.1563
  624MOL0     C84167   5.846   7.300  10.281 -0.4382 -0.5268  0.6014
  624MOL0     C84168   5.885   7.223  10.414 -0.1123 -0.3359  0.2472
  624MOL0     C84169   5.777   7.226  10.514  0.7610  0.4692  0.9944
  624MOL0     C84170   5.674   7.216  10.575 -0.2788  0.8370 -0.0949
  624MOL0     C84171   5.625   7.531   9.855 -1.4354 -0.1694  0.7577
  624MOL0     C84172   5.532   7.595   9.776 -0.1388 -0.6501  0.6414
  624MOL0     H84173   5.160   7.855   9.534 -0.8861 -0.3470 -3.3561
  624MOL0     H84174   4.960   7.903   9.399 -0.1080  0.5436  0.9598
  624MOL0     H84175   4.707   7.940   9.484 -0.4376  0.9247 -1.8503
  624MOL0     H84176   4.608   7.885   9.340  2.5946 -1.2530 -2.1321
  624MOL0     H84177   4.547   7.685   9.484  0.0282  0.0587  1.0306
  624MOL0     H84178   4.605   7.775   9.618  0.5646 -1.1354  0.7729
  624MOL0     H84179   4.368   7.791   9.627 -1.3611 -1.0867 -2.2769
  624MOL0     H84180   4.414   7.950   9.564  1.0772  0.2151 -2.3811
  624MOL0     H84181   4.346   7.888   9.354 -0.1467  0.5312  0.6948
  624MOL0     H84182   4.332   7.713   9.391  0.6205 -0.3344  1.5256
  624MOL0     H84183   4.161   7.741   9.545  0.6554 -1.6296 -1.1644
  624MOL0     H84184   4.176   7.918   9.545  0.7243  0.5419 -1.2937
  624MOL0     H84185   4.084   7.914   9.293  1.4940 -0.0661  0.4554
  624MOL0     H84186   4.051   7.745   9.316 -1.5622 -1.2479  2.1303
  624MOL0     H84187   3.868   7.836   9.350  2.5197 -4.7740 -1.0809
  624MOL0     H84188   3.919   7.802   9.520 -1.2931 -5.0949 -3.6054
  624MOL0     H84189   3.929   8.073   9.398 -4.6959 -1.6996 -1.3366
  624MOL0     H84190   3.975   8.024   9.565 -0.8237 -0.1891  1.5224
  624MOL0     H84191   3.799   7.987   9.735 -0.7611  0.4586 -0.3503
  624MOL0     H84192   3.587   8.069   9.873  1.2847  4.8188  0.7453
  624MOL0     H84193   3.516   8.202   9.793  3.5138  0.7032 -0.8195
  624MOL0     H84194   3.385   7.945   9.715  1.1087  1.2907 -0.2627
  624MOL0     H84195   3.316   8.102   9.747  1.2077 -0.8912 -3.1559
  624MOL0     H84196   3.336   8.082   9.981  0.3207 -0.4977  0.4800
  624MOL0     H84197   3.405   7.918   9.958 -0.9335 -1.1346 -1.3863
  624MOL0     H84198   3.167   7.864   9.998  0.8600  1.3958  1.9398
  624MOL0     H84199   3.204   7.853   9.828  1.5858  2.0609 -1.2944
  624MOL0     H84200   3.024   7.779   9.795 -0.5903 -0.0788 -1.2187
  624MOL0     H84201   2.969   7.638   9.651  0.6869  2.0808  0.5319
  624MOL0     H84202   2.790   7.613   9.677  0.1956  0.2496  0.0451
  624MOL0     H84203   2.858   7.675   9.523 -1.6984  1.0625 -0.1229
  624MOL0     H84204   2.640   7.692   9.339  1.4503  0.1916 -0.7113
  624MOL0     H84205   2.449   7.575   9.220  0.0211 -0.1911  1.3575
  624MOL0     H84206   2.092   7.791   9.179 -1.6392  1.1026 -0.9770
  624MOL0     H84207   2.138   7.816   9.025  0.5359 -1.6958 -0.8850
  624MOL0     H84208   1.932   7.672   9.058  1.0220 -0.6664  1.4978
  624MOL0     H84209   2.050   7.596   8.954 -1.0029 -0.4027  0.0760
  624MOL0     H84210   2.122   7.451   9.127 -0.6003 -0.1127  0.6556
  624MOL0     H84211   1.955   7.427   9.101  0.6694 -0.5413 -0.8030
  624MOL0     H84212   2.097   7.584   9.333 -0.4248  0.4455  1.4420
  624MOL0     H84213   1.923   7.587   9.304  1.0191  1.3771  0.4158
  624MOL0     H84214   1.914   7.332   9.348 -0.4166 -0.9119  2.4134
  624MOL0     H84215   1.997   7.415   9.477  3.8082  1.6960 -0.1665
  624MOL0     H84216   2.107   7.201   9.408  1.8331 -1.6458 -2.8866
  624MOL0     H84217   2.135   7.275   9.253  0.9168 -0.4094  0.9790
  624MOL0     H84218   2.249   7.428   9.498 -2.7737  0.1103  0.4555
  624MOL0     H84219   2.321   7.415   9.340  0.9396 -0.3420  0.3406
  624MOL0     H84220   2.381   7.192   9.371 -1.3828  0.1627 -0.5351
  624MOL0     H84221   2.312   7.181   9.535  0.3526 -1.2827 -1.2796
  624MOL0     H84222   2.275   7.951   9.134  0.8015  2.7448  0.9668
  624MOL0     H84223   2.448   8.070   9.271 -0.8912  0.5841 -2.6057
  624MOL0     H84224   2.756   8.138   9.606  0.5810 -0.8643 -1.4732
  624MOL0     H84225   2.949   8.197   9.747 -0.3413  0.1883  4.2771
  624MOL0     H84226   4.769   7.564   9.588 -0.0334  1.2864  1.4261
  624MOL0     H84227   4.972   7.505   9.695  1.7478 -2.8398 -2.8834
  624MOL0     H84228   5.247   7.530   9.947  0.0403  1.5807  1.7847
  624MOL0     H84229   5.417   7.410  10.084  0.6603 -1.1124  0.5155
  624MOL0     H84230   5.600   7.352  10.201 -1.1917  0.0937 -0.7669
  624MOL0     H84231   5.566   7.232  10.071  0.8583  0.4988 -0.5215
  624MOL0     H84232   5.805   7.162  10.109  0.6478  0.7530  0.1457
  624MOL0     H84233   5.692   7.170  10.259 -2.8756 -0.8060 -2.9848
  624MOL0     H84234   5.799   7.395  10.308 -1.5038 -0.8476 -0.0669
  624MOL0     H84235   5.940   7.316  10.228 -0.9832 -0.8856 -0.4891
  624MOL0     H84236   5.966   7.283  10.457 -0.3094 -1.2862  2.0214
  624MOL0     H84237   5.920   7.121  10.397  3.4104  0.0990  3.5628
  624MOL0     H84238   5.601   7.226  10.653 -0.3918  0.9600 -0.2167
  624MOL0     H84239   5.729   7.522   9.824 -1.5563 -1.9416  0.8016
  624MOL0     H84240   5.572   7.643   9.687 -0.5880 -1.8382 -0.2267
  625MOL0     O84241   4.234  10.559   8.357  0.7360  0.0896 -0.4376
  625MOL0     C84242   4.316  10.541   8.270  0.3184  0.5024  0.1749
  625MOL0     O84243   4.297  10.463   8.164  0.1810 -0.7923  1.2278
  625MOL0     C84244   4.207  10.352   8.162 -1.2082 -1.2343  1.2380
  625MOL0     C84245   4.183  10.279   8.282  0.6384 -0.1126  1.2604
  625MOL0     C84246   4.091  10.174   8.286 -0.1883  0.2515  0.2288
  625MOL0     C84247   4.018  10.147   8.165  0.7665 -0.7613  0.0816
  625MOL0     O84248   3.914  10.065   8.146  0.3051 -0.3968  0.1886
  625MOL0     C84249   3.855  10.013   8.268 -0.9035 -1.3435 -0.2003
  625MOL0     C84250   3.743   9.913   8.247 -0.1174 -1.0566  0.2436
  625MOL0     C84251   3.794   9.784   8.179 -1.0057 -0.0043  0.1516
  625MOL0     C84252   3.704   9.665   8.179  0.1644  0.2876 -0.9309
  625MOL0     C84253   3.577   9.689   8.104 -0.2309 -0.4357 -0.4154
  625MOL0     C84254   3.480   9.572   8.104 -0.0319 -1.0676 -1.4441
  625MOL0     C84255   3.340   9.607   8.062 -1.0163  0.6137 -1.1477
  625MOL0     C84256   3.273   9.680   8.183  0.5189  0.5432 -0.5712
  625MOL0     N84257   3.128   9.667   8.153  0.8034 -0.2658  0.5963
  625MOL0     C84258   3.037   9.567   8.183  0.1689  0.1948  0.3251
  625MOL0     C84259   2.915   9.622   8.159 -0.2565 -0.0045 -0.7379
  625MOL0     C84260   2.784   9.562   8.186 -0.1461 -0.1365 -0.8891
  625MOL0     C84261   2.691   9.555   8.065  0.1916 -0.7564  0.0031
  625MOL0     C84262   2.582   9.456   8.072 -0.1707  0.6327  0.0244
  625MOL0     C84263   2.478   9.488   8.182  0.3696  0.1618  0.3658
  625MOL0     O84264   2.405   9.607   8.139 -0.1336 -0.8466  0.2335
  625MOL0     C84265   2.269   9.602   8.130 -0.0516 -0.1317  0.7601
  625MOL0     C84266   2.194   9.532   8.035  0.1327 -0.0068 -0.3313
  625MOL0     C84267   2.053   9.551   8.023  0.1345 -0.4154 -0.7809
  625MOL0     C84268   1.971   9.483   7.917 -0.5749 -0.3126 -0.0992
  625MOL0     C84269   1.982   9.632   8.116  0.3261 -0.4368 -0.1375
  625MOL0     C84270   1.834   9.659   8.131  0.2554  0.1285 -0.7208
  625MOL0     O84271   1.783   9.667   8.258 -0.0868 -0.0432 -0.2130
  625MOL0     C84272   1.648   9.666   8.282  0.1132  0.1212  0.4726
  625MOL0     C84273   1.604   9.746   8.394 -0.4949 -0.1936  0.8274
  625MOL0     C84274   1.472   9.740   8.428 -0.8091 -0.4463  0.9599
  625MOL0     C84275   1.378   9.669   8.354 -0.2765 -0.9864  0.4424
  625MOL0     O84276   1.243   9.685   8.386 -0.2541  0.0377  0.4549
  625MOL0     C84277   1.134   9.623   8.313  0.1914  0.6122 -0.2928
  625MOL0     C84278   1.090   9.482   8.364 -0.0675  0.6236 -0.2401
  625MOL0     C84279   1.019   9.511   8.499 -0.4003  0.2026 -0.4622
  625MOL0     C84280   0.941   9.392   8.557  0.0241 -0.7220 -0.4987
  625MOL0     C84281   0.914   9.419   8.707  0.7958 -0.5101 -0.8468
  625MOL0     C84282   0.791   9.356   8.772  0.0746 -1.4066 -0.8747
  625MOL0     C84283   0.777   9.205   8.735 -0.1245 -0.4783 -0.4368
  625MOL0     C84284   0.672   9.127   8.812 -0.0233 -0.0666 -0.6790
  625MOL0    Cl84285   0.519   9.189   8.758  0.2925  0.4111 -0.5584
  625MOL0     C84286   1.428   9.587   8.248  0.0235 -1.2751  0.4322
  625MOL0     C84287   1.559   9.585   8.213  0.0118  0.3788 -0.3166
  625MOL0     O84288   1.768   9.661   8.027 -0.2134 -0.0764 -0.0597
  625MOL0     C84289   2.064   9.701   8.206  0.1181 -0.6366 -0.5265
  625MOL0     C84290   2.202   9.682   8.220  0.3833  0.1553  0.4714
  625MOL0     N84291   2.934   9.746   8.092 -1.0389 -0.7631  0.3664
  625MOL0     N84292   3.062   9.775   8.092 -0.2739 -0.5156 -0.5945
  625MOL0     C84293   4.060  10.205   8.042 -0.2561  0.2034 -0.6071
  625MOL0     C84294   4.156  10.305   8.042 -0.2231 -0.4730 -0.0927
  625MOL0     C84295   4.432  10.627   8.286  0.3001 -0.3133 -0.8932
  625MOL0     C84296   4.521  10.637   8.183 -0.5007  0.3661 -0.2851
  625MOL0     C84297   4.623  10.731   8.179  0.4245  0.4147  0.9952
  625MOL0     C84298   4.648  10.812   8.288 -0.0906  0.1315 -0.2993
  625MOL0     O84299   4.738  10.912   8.259  0.2780  0.2835  0.3329
  625MOL0     C84300   4.801  10.984   8.363  0.5472 -0.2431 -0.7031
  625MOL0     C84301   4.957  11.025   8.343 -0.3926 -1.2089  0.4627
  625MOL0     C84302   5.049  10.925   8.279  0.0089  0.5931  0.1552
  625MOL0     C84303   5.046  10.794   8.371  0.5054 -0.8680  0.4830
  625MOL0     C84304   5.124  10.682   8.319  0.1174  0.5411  0.1927
  625MOL0     C84305   5.198  10.585   8.299 -0.4571  0.1667  0.1911
  625MOL0     C84306   4.568  10.799   8.409  0.3805  0.4376  0.5473
  625MOL0     C84307   4.450  10.710   8.394 -1.9674  0.0492 -0.3773
  625MOL0     H84308   4.249  10.303   8.365  1.9109 -3.7066  1.4531
  625MOL0     H84309   4.084  10.123   8.381  2.1289  0.3127  0.4756
  625MOL0     H84310   3.930   9.967   8.332 -3.1506 -2.9452  1.4257
  625MOL0     H84311   3.812  10.094   8.328 -0.2934 -0.2397 -1.2042
  625MOL0     H84312   3.705   9.888   8.347  3.6804 -1.1083  1.8339
  625MOL0     H84313   3.663   9.962   8.192  1.0716  1.1468  0.3703
  625MOL0     H84314   3.818   9.816   8.078  1.7675  0.2176  0.8094
  625MOL0     H84315   3.883   9.742   8.227 -1.0693 -2.0988 -1.4270
  625MOL0     H84316   3.765   9.591   8.125  2.1651  2.4642 -1.8302
  625MOL0     H84317   3.675   9.630   8.279 -0.8113  1.1150 -0.9054
  625MOL0     H84318   3.522   9.774   8.146 -2.7708 -1.1647 -2.0204
  625MOL0     H84319   3.610   9.717   8.003  3.1581 -2.3249  0.0104
  625MOL0     H84320   3.518   9.497   8.033  0.9024 -3.1716  1.1121
  625MOL0     H84321   3.492   9.525   8.202  3.5075  1.7797 -0.2788
  625MOL0     H84322   3.334   9.679   7.980 -1.4304  1.8814 -0.0476
  625MOL0     H84323   3.299   9.509   8.037  1.6640 -1.1480  0.7859
  625MOL0     H84324   3.308   9.783   8.198  3.1179 -0.2949 -0.4515
  625MOL0     H84325   3.277   9.630   8.280 -3.8363 -0.7052 -0.8240
  625MOL0     H84326   3.062   9.474   8.233  2.0587  1.2524  1.4764
  625MOL0     H84327   2.809   9.463   8.225  2.0038  0.2531 -1.1551
  625MOL0     H84328   2.724   9.618   8.258  0.3926 -1.0867  0.3213
  625MOL0     H84329   2.754   9.525   7.981  2.3194  0.4871  1.0556
  625MOL0     H84330   2.641   9.649   8.041 -0.5488 -0.0512  3.7516
  625MOL0     H84331   2.632   9.361   8.093  1.7754  0.8985 -2.8035
  625MOL0     H84332   2.525   9.449   7.979 -1.2176  0.6656  0.6527
  625MOL0     H84333   2.521   9.512   8.280  0.7090 -1.2714  0.6039
  625MOL0     H84334   2.418   9.398   8.197 -2.3964  1.7331 -0.7279
  625MOL0     H84335   2.233   9.473   7.953  1.2356  1.6134 -1.0203
  625MOL0     H84336   2.033   9.435   7.841  1.7206 -3.0718  3.1723
  625MOL0     H84337   1.909   9.410   7.970  0.8390 -2.4527 -1.2243
  625MOL0     H84338   1.910   9.552   7.858  1.0093  1.2685  0.0411
  625MOL0     H84339   1.665   9.818   8.447 -0.3999 -1.1795  2.1095
  625MOL0     H84340   1.445   9.788   8.521  0.7615  1.0530  0.6861
  625MOL0     H84341   1.045   9.685   8.326 -0.6261 -0.7508  0.9999
  625MOL0     H84342   1.148   9.621   8.204  1.6996  2.6893 -0.1869
  625MOL0     H84343   1.018   9.441   8.292 -0.5135  0.8853  0.0436
  625MOL0     H84344   1.175   9.414   8.370 -2.5465 -2.8801 -1.5069
  625MOL0     H84345   0.946   9.591   8.487 -0.5142  0.0781 -0.6057
  625MOL0     H84346   1.100   9.535   8.568 -2.4218  3.6792  0.9642
  625MOL0     H84347   0.844   9.389   8.508 -1.3871  3.6734  1.4846
  625MOL0     H84348   0.980   9.291   8.544  1.0603 -0.4718  0.5029
  625MOL0     H84349   0.907   9.528   8.716  4.4613 -0.1861 -0.2652
  625MOL0     H84350   1.001   9.385   8.764 -0.7490  0.4240  2.2888
  625MOL0     H84351   0.797   9.374   8.880 -3.1272 -0.6595 -0.7311
  625MOL0     H84352   0.710   9.413   8.728  1.8234  1.5282 -0.5676
  625MOL0     H84353   0.874   9.155   8.744 -0.3207 -0.8738 -0.4996
  625MOL0     H84354   0.746   9.195   8.631 -2.9786 -1.4195  0.3827
  625MOL0     H84355   0.684   9.141   8.920 -3.6325 -1.1588 -0.0132
  625MOL0     H84356   0.670   9.020   8.790 -0.7045  0.1259 -1.5952
  625MOL0     H84357   1.345   9.542   8.194 -1.2112 -0.9322  1.9775
  625MOL0     H84358   1.597   9.521   8.134  3.5651  1.6294  0.1799
  625MOL0     H84359   2.019   9.773   8.273  0.0856 -0.7382 -0.4384
  625MOL0     H84360   2.241   9.734   8.307  0.4057  0.4268  0.3003
  625MOL0     H84361   4.003  10.183   7.952 -1.1406 -1.2697  0.2612
  625MOL0     H84362   4.184  10.353   7.948 -2.1451  0.9568  0.0026
  625MOL0     H84363   4.520  10.555   8.112 -1.5541  1.5234 -1.6471
  625MOL0     H84364   4.682  10.752   8.090 -0.6462 -2.0399 -0.4012
  625MOL0     H84365   4.738  11.069   8.390  1.5247 -0.2051  1.7047
  625MOL0     H84366   4.792  10.925   8.455 -0.9337 -2.5677 -2.2251
  625MOL0     H84367   5.006  11.046   8.439  1.1704  0.4117 -0.6515
  625MOL0     H84368   4.954  11.117   8.285 -2.5600 -2.0814 -0.9507
  625MOL0     H84369   5.152  10.962   8.290  0.1507  0.6478 -1.2031
  625MOL0     H84370   5.026  10.910   8.173 -1.3587  4.2012 -0.2088
  625MOL0     H84371   4.943  10.765   8.393 -0.2756  2.2428  1.5617
  625MOL0     H84372   5.080  10.831   8.468  0.0962  2.3643 -0.4766
  625MOL0     H84373   5.270  10.511   8.272 -0.1817  0.9698 -1.4372
  625MOL0     H84374   4.567  10.871   8.490  0.1866 -0.4742  1.3765
  625MOL0     H84375   4.382  10.712   8.479 -2.7342 -1.3069 -0.9259
  626MOL0     O84376   7.098   8.584   2.575 -0.0767 -0.4770  0.4161
  626MOL0     C84377   7.130   8.499   2.653  0.6011 -0.2905 -0.4930
  626MOL0     O84378   7.044   8.440   2.753  0.0255 -0.4081 -0.1944
  626MOL0     C84379   6.918   8.493   2.750 -0.4333  0.0316  0.1523
  626MOL0     C84380   6.891   8.608   2.813  0.3743  0.2650  0.0831
  626MOL0     C84381   6.763   8.662   2.808 -0.8195  0.9357 -0.4879
  626MOL0     C84382   6.656   8.597   2.745  1.2923 -1.2159  0.6591
  626MOL0     O84383   6.518   8.623   2.766 -0.0421  0.7092 -0.3970
  626MOL0     C84384   6.480   8.720   2.869  0.9672 -0.5383  0.3628
  626MOL0     C84385   6.329   8.740   2.863  0.1641 -0.0917  0.3017
  626MOL0     C84386   6.247   8.611   2.870  0.2290 -0.0370 -0.0617
  626MOL0     C84387   6.190   8.599   3.008  0.2007 -0.0490 -0.5339
  626MOL0     C84388   6.117   8.467   3.025 -0.5271  0.2376  0.2125
  626MOL0     C84389   6.059   8.466   3.162 -0.0157 -0.3423 -0.1549
  626MOL0     C84390   5.983   8.339   3.198 -1.0315 -0.2629 -0.9127
  626MOL0     C84391   5.939   8.341   3.342  0.3922  0.0872 -1.2416
  626MOL0     N84392   5.886   8.210   3.378  0.0146  0.0585 -0.2590
  626MOL0     C84393   5.951   8.132   3.472 -0.0595  0.9095 -0.5122
  626MOL0     C84394   5.853   8.057   3.531 -0.5317  0.6929 -0.1177
  626MOL0     C84395   5.880   7.965   3.646 -0.2441 -0.1168 -0.7308
  626MOL0     C84396   5.756   7.932   3.742 -0.5391 -0.8717 -0.0143
  626MOL0     C84397   5.768   7.820   3.843  0.6518  0.8318  0.2616
  626MOL0     C84398   5.631   7.775   3.888  0.4817 -0.0323 -0.4278
  626MOL0     O84399   5.574   7.878   3.969 -0.1724  0.0881  0.0093
  626MOL0     C84400   5.447   7.856   4.028 -0.1346 -0.0351  0.1952
  626MOL0     C84401   5.376   7.972   4.069  0.3338 -0.1385  0.5356
  626MOL0     C84402   5.248   7.964   4.121  0.2399 -1.1334 -1.1726
  626MOL0     C84403   5.196   8.100   4.182  0.6921  1.4147  0.9607
  626MOL0     C84404   5.188   7.839   4.146  0.2889  0.7565 -0.5167
  626MOL0     C84405   5.041   7.818   4.195 -1.3544  0.0631  0.6141
  626MOL0     O84406   4.965   7.925   4.231 -0.2584  0.2767 -0.0137
  626MOL0     C84407   4.834   7.913   4.267 -0.2082  0.3666  0.4942
  626MOL0     C84408   4.778   8.020   4.346 -0.1724  0.9153  0.4841
  626MOL0     C84409   4.637   8.026   4.383 -0.4040 -0.0415  0.1162
  626MOL0     C84410   4.549   7.919   4.338  0.3127  0.1618  0.2419
  626MOL0     O84411   4.415   7.927   4.365 -0.4378 -0.2582  0.1441
  626MOL0     C84412   4.336   7.810   4.345  0.6858 -0.0211 -0.0679
  626MOL0     C84413   4.207   7.834   4.419  0.7061 -0.3461 -0.2702
  626MOL0     C84414   4.086   7.758   4.377  0.1644  0.5503 -0.1012
  626MOL0     C84415   3.993   7.765   4.501 -0.6430 -0.9768  0.0753
  626MOL0     C84416   3.853   7.716   4.463 -0.5427  0.2307 -0.4356
  626MOL0     C84417   3.766   7.738   4.589  0.1323  1.0681 -0.3811
  626MOL0     C84418   3.635   7.651   4.577 -0.0370  0.1507 -0.0897
  626MOL0     C84419   3.513   7.695   4.661 -0.3513 -0.2601  0.2435
  626MOL0    Cl84420   3.362   7.612   4.645  0.0818  0.1439 -0.1870
  626MOL0     C84421   4.610   7.823   4.263  0.6145 -0.9527  0.8511
  626MOL0     C84422   4.740   7.814   4.226 -0.0587 -0.4800  0.5628
  626MOL0     O84423   5.004   7.701   4.191  0.4652 -0.2497 -0.5639
  626MOL0     C84424   5.258   7.727   4.105 -0.2889 -0.6417  0.1785
  626MOL0     C84425   5.390   7.734   4.050  0.0582  0.4133  0.3777
  626MOL0     N84426   5.735   8.079   3.472 -0.1052  0.4775  0.4553
  626MOL0     N84427   5.755   8.165   3.373 -0.2604 -0.2412 -0.2455
  626MOL0     C84428   6.681   8.478   2.676  0.3567 -0.9269 -0.1821
  626MOL0     C84429   6.820   8.425   2.677  0.2377 -0.5940 -0.6432
  626MOL0     C84430   7.272   8.471   2.661  0.8739  0.5733 -0.6998
  626MOL0     C84431   7.358   8.528   2.573  0.2068 -0.3353  0.1395
  626MOL0     C84432   7.491   8.507   2.589 -0.4860 -0.7454 -0.5774
  626MOL0     C84433   7.549   8.430   2.684  0.8058 -0.6044 -0.0479
  626MOL0     O84434   7.681   8.401   2.680 -0.4091 -0.1725  0.0728
  626MOL0     C84435   7.744   8.301   2.762 -0.9300  0.0296  0.2686
  626MOL0     C84436   7.888   8.265   2.728 -0.4623  0.8919  0.9430
  626MOL0     C84437   7.896   8.251   2.573 -0.0568  0.2765 -0.0930
  626MOL0     C84438   8.035   8.211   2.531 -0.7869  0.0719  0.4193
  626MOL0     C84439   8.141   8.280   2.606 -0.0219 -0.0826 -0.3286
  626MOL0     C84440   8.225   8.325   2.677 -0.4061  0.2569  0.4569
  626MOL0     C84441   7.461   8.369   2.778 -0.2301  0.4712  1.1744
  626MOL0     C84442   7.324   8.392   2.762 -0.0896 -0.1699  0.2422
  626MOL0     H84443   6.967   8.660   2.870  0.6682  2.1818 -1.9096
  626MOL0     H84444   6.742   8.745   2.875  0.2777  0.4988  0.4385
  626MOL0     H84445   6.501   8.680   2.968  1.0412  0.5711  0.8145
  626MOL0     H84446   6.526   8.816   2.843 -0.0710  0.2590  1.3547
  626MOL0     H84447   6.311   8.817   2.939 -3.4674  0.7116 -1.1587
  626MOL0     H84448   6.319   8.785   2.764 -2.0849 -0.3633  0.3614
  626MOL0     H84449   6.172   8.605   2.791 -0.4429 -0.6673  0.6119
  626MOL0     H84450   6.315   8.525   2.857  0.9950  0.3847  1.0199
  626MOL0     H84451   6.273   8.606   3.079 -0.7444 -1.3009  0.7552
  626MOL0     H84452   6.123   8.684   3.023  2.3107  1.5820  0.3079
  626MOL0     H84453   6.044   8.454   2.945 -0.7353 -1.3825  0.6370
  626MOL0     H84454   6.192   8.388   3.012 -0.9107 -0.1096  0.0934
  626MOL0     H84455   6.139   8.477   3.237 -2.5874  0.8132  2.6464
  626MOL0     H84456   6.005   8.559   3.182 -0.4045 -0.9453  1.8837
  626MOL0     H84457   5.889   8.329   3.143 -0.9469  0.6759 -1.2550
  626MOL0     H84458   6.053   8.259   3.173  1.0050  0.5445  1.6731
  626MOL0     H84459   5.867   8.423   3.348  2.0571  1.5678 -0.5351
  626MOL0     H84460   6.020   8.357   3.413 -0.4433  1.7335 -0.6141
  626MOL0     H84461   6.054   8.112   3.502 -0.0233 -1.1332 -1.8084
  626MOL0     H84462   5.912   7.865   3.616 -2.4089 -1.2026  0.3599
  626MOL0     H84463   5.958   8.011   3.708  0.1811 -0.0761 -1.2851
  626MOL0     H84464   5.672   7.911   3.674  0.6960 -1.1169 -1.5320
  626MOL0     H84465   5.748   8.029   3.792 -0.2810 -0.0794 -1.4562
  626MOL0     H84466   5.829   7.847   3.931 -0.7447 -0.3545  1.6456
  626MOL0     H84467   5.809   7.735   3.789 -2.3851 -1.0598  0.7163
  626MOL0     H84468   5.646   7.693   3.959 -0.4661 -0.1263 -0.3223
  626MOL0     H84469   5.560   7.751   3.808 -0.6272  0.3418  0.4121
  626MOL0     H84470   5.419   8.071   4.058  1.1098 -0.1997  2.5770
  626MOL0     H84471   5.164   8.080   4.285  0.3424 -2.6863  0.2357
  626MOL0     H84472   5.257   8.190   4.173 -1.2879  2.6365 -1.5831
  626MOL0     H84473   5.108   8.122   4.121  0.0883 -0.8036  0.9324
  626MOL0     H84474   4.846   8.088   4.397 -1.2956  1.2146  1.6387
  626MOL0     H84475   4.598   8.101   4.450  1.6704 -0.9865  2.5721
  626MOL0     H84476   4.312   7.792   4.239 -2.0888  0.5733  0.3736
  626MOL0     H84477   4.382   7.726   4.397 -0.8740 -0.1640  1.1502
  626MOL0     H84478   4.222   7.793   4.519 -0.7237  1.2182  0.6359
  626MOL0     H84479   4.183   7.940   4.410  0.4936 -0.2160  1.4698
  626MOL0     H84480   4.109   7.653   4.360 -2.1695 -0.3490  1.7439
  626MOL0     H84481   4.046   7.799   4.283  2.1670 -1.2971 -1.8730
  626MOL0     H84482   4.034   7.703   4.582  0.2300 -0.2250  0.2212
  626MOL0     H84483   3.990   7.867   4.540  0.1099 -1.4095  1.3237
  626MOL0     H84484   3.866   7.610   4.442  0.0002 -0.7558  3.9830
  626MOL0     H84485   3.802   7.775   4.385 -1.4962  0.2614  0.1913
  626MOL0     H84486   3.810   7.703   4.683 -1.0358 -0.4985 -0.3696
  626MOL0     H84487   3.739   7.843   4.604 -0.0479  0.7160  2.3295
  626MOL0     H84488   3.665   7.550   4.605 -0.0244 -0.4903 -2.2509
  626MOL0     H84489   3.585   7.650   4.480 -2.2208  2.2020  0.9171
  626MOL0     H84490   3.482   7.795   4.629 -2.0189 -0.0807  2.2360
  626MOL0     H84491   3.535   7.703   4.768  0.5673  0.2901  0.0273
  626MOL0     H84492   4.546   7.746   4.219  0.0082  0.3903 -0.7201
  626MOL0     H84493   4.766   7.729   4.164 -1.1689 -0.2097 -0.2798
  626MOL0     H84494   5.219   7.628   4.123  1.0614 -1.2543 -0.1528
  626MOL0     H84495   5.443   7.642   4.027 -0.4398  0.0018  0.8312
  626MOL0     H84496   6.603   8.411   2.641  0.6922 -3.3472  3.2226
  626MOL0     H84497   6.842   8.331   2.628  1.0935 -0.8691  0.2414
  626MOL0     H84498   7.321   8.587   2.490  0.4275 -0.1948  0.1396
  626MOL0     H84499   7.550   8.566   2.519 -1.1554  0.8659  0.1690
  626MOL0     H84500   7.743   8.332   2.867  1.6845  2.1087 -0.2091
  626MOL0     H84501   7.693   8.205   2.745 -2.0531  0.7606 -0.7111
  626MOL0     H84502   7.928   8.169   2.761 -1.4667  1.4990  4.3352
  626MOL0     H84503   7.957   8.340   2.768  0.5102  0.1085  0.7498
  626MOL0     H84504   7.869   8.345   2.523 -0.3771 -0.3561 -1.1385
  626MOL0     H84505   7.831   8.166   2.549  1.6511 -1.2441  0.4737
  626MOL0     H84506   8.045   8.236   2.425 -0.6139 -1.3387  0.0881
  626MOL0     H84507   8.062   8.106   2.546  1.4314  0.8905  3.0179
  626MOL0     H84508   8.300   8.365   2.742  1.3517  1.5241 -2.1668
  626MOL0     H84509   7.498   8.296   2.849  3.3395  0.5619 -0.3465
  626MOL0     H84510   7.255   8.341   2.828 -0.9793 -0.9829 -1.2530
  627MOL0     O84511   7.652   7.469   1.886 -0.5935 -0.7939 -0.0942
  627MOL0     C84512   7.729   7.558   1.858 -0.3679 -0.3961 -0.5782
  627MOL0     O84513   7.699   7.690   1.853 -0.2449  0.4931 -1.4570
  627MOL0     C84514   7.573   7.743   1.831  0.7328 -0.6659 -0.2681
  627MOL0     C84515   7.449   7.682   1.832 -0.1221  0.5668  0.2003
  627MOL0     C84516   7.321   7.740   1.797 -0.0383  0.2464  0.0380
  627MOL0     C84517   7.314   7.870   1.778  0.0556  0.3439  0.6202
  627MOL0     O84518   7.190   7.924   1.770  0.0191  0.0812  0.0209
  627MOL0     C84519   7.179   8.061   1.709  0.8509 -0.6054 -0.7249
  627MOL0     C84520   7.029   8.092   1.682  0.5859  0.4738  0.7125
  627MOL0     C84521   6.945   8.097   1.807  0.3790  0.3412 -0.7378
  627MOL0     C84522   6.801   8.099   1.765 -0.5106 -0.4472  0.1382
  627MOL0     C84523   6.700   8.129   1.877  0.1939  0.5676 -0.4498
  627MOL0     C84524   6.555   8.138   1.828 -0.3091 -0.2249  0.8104
  627MOL0     C84525   6.447   8.168   1.932 -0.6796 -0.0320  0.2749
  627MOL0     C84526   6.306   8.184   1.872 -0.1405 -0.4741  0.1629
  627MOL0     N84527   6.195   8.134   1.965  0.1146  0.6343  0.7029
  627MOL0     C84528   6.134   8.007   1.961  0.2055 -0.5726 -0.4393
  627MOL0     C84529   6.055   8.011   2.067  0.0317 -0.1706 -0.5475
  627MOL0     C84530   5.956   7.905   2.104  0.2469  0.8195 -0.2460
  627MOL0     C84531   5.815   7.923   2.057  0.5750  0.0728 -0.3361
  627MOL0     C84532   5.740   8.039   2.127  0.8364  0.5453  0.6408
  627MOL0     C84533   5.763   8.038   2.285 -0.4412 -0.4532 -0.4123
  627MOL0     O84534   5.733   7.909   2.327  0.2470  0.2887  0.7666
  627MOL0     C84535   5.602   7.872   2.338 -0.3112  0.3055  0.3397
  627MOL0     C84536   5.581   7.737   2.339 -0.0998  0.1318  0.3597
  627MOL0     C84537   5.454   7.676   2.356 -1.4516 -0.4657 -1.3110
  627MOL0     C84538   5.448   7.528   2.347  0.1325  0.3645  0.5487
  627MOL0     C84539   5.334   7.759   2.360 -0.6199  0.3627  0.0318
  627MOL0     C84540   5.203   7.705   2.354 -0.0639 -0.0714  0.9700
  627MOL0     O84541   5.107   7.774   2.294  0.1433  0.9481  0.1745
  627MOL0     C84542   4.975   7.769   2.328 -0.0592 -0.3580 -0.0534
  627MOL0     C84543   4.914   7.654   2.318 -0.5176  0.5147 -0.0535
  627MOL0     C84544   4.780   7.649   2.358 -1.0052 -0.4931  0.5396
  627MOL0     C84545   4.714   7.764   2.407 -0.6291 -1.1128  0.3949
  627MOL0     O84546   4.580   7.767   2.444 -0.0247  0.1954 -0.7607
  627MOL0     C84547   4.545   7.704   2.566 -0.0407 -1.0442 -0.0847
  627MOL0     C84548   4.566   7.805   2.677 -0.0139 -0.5795 -0.2744
  627MOL0     C84549   4.526   7.740   2.814 -0.7671 -0.3815  0.3741
  627MOL0     C84550   4.490   7.843   2.917 -0.1684 -0.5095  0.1888
  627MOL0     C84551   4.497   7.780   3.062  0.2685 -0.1506 -0.2520
  627MOL0     C84552   4.501   7.896   3.165 -0.0494  1.1098  0.5385
  627MOL0     C84553   4.524   7.854   3.314 -0.1611  0.8303  0.4611
  627MOL0     C84554   4.498   7.967   3.414  0.1939 -0.0419 -0.1227
  627MOL0    Cl84555   4.588   7.931   3.561 -0.1913 -0.1297 -0.1609
  627MOL0     C84556   4.779   7.885   2.418 -0.1387  0.6561 -0.1499
  627MOL0     C84557   4.913   7.890   2.387 -0.1996 -0.0087 -0.7946
  627MOL0     O84558   5.183   7.603   2.421 -0.3304 -1.0087 -0.0551
  627MOL0     C84559   5.357   7.896   2.360  0.1277  0.0384  1.0526
  627MOL0     C84560   5.489   7.948   2.328  0.2810  0.2660 -1.0358
  627MOL0     N84561   6.068   8.131   2.138  0.5007  0.1872  0.7261
  627MOL0     N84562   6.145   8.209   2.070  0.5636 -0.0088  0.1040
  627MOL0     C84563   7.441   7.941   1.763  0.9037 -0.0196 -0.1068
  627MOL0     C84564   7.568   7.878   1.788 -1.1014  0.0399 -0.6755
  627MOL0     C84565   7.874   7.524   1.856  0.5450  0.7063 -0.0125
  627MOL0     C84566   7.971   7.620   1.887  1.0941 -0.2725 -0.1233
  627MOL0     C84567   8.108   7.608   1.861 -0.1651 -1.2573 -0.1696
  627MOL0     C84568   8.152   7.499   1.798 -0.1293 -0.9908  0.3258
  627MOL0     O84569   8.288   7.477   1.760  0.7523  0.1979  0.1898
  627MOL0     C84570   8.382   7.549   1.836 -0.4887  0.7444  0.4595
  627MOL0     C84571   8.530   7.508   1.788  0.6245 -0.0603  0.0466
  627MOL0     C84572   8.638   7.569   1.884  0.0773 -0.4738 -0.3091
  627MOL0     C84573   8.779   7.520   1.853 -0.5098  0.3259  0.4962
  627MOL0     C84574   8.885   7.610   1.912  0.6516 -0.3360 -0.1612
  627MOL0     C84575   8.960   7.681   1.966 -0.8786 -0.6885  0.7730
  627MOL0     C84576   8.062   7.397   1.765  0.6648  0.0608  0.0551
  627MOL0     C84577   7.921   7.410   1.793  0.7653  0.5390  0.0202
  627MOL0     H84578   7.446   7.576   1.855  0.2042  0.6773  0.7730
  627MOL0     H84579   7.224   7.693   1.800  0.3333 -0.4829  1.9258
  627MOL0     H84580   7.213   8.133   1.783 -2.3997  0.8684 -0.4792
  627MOL0     H84581   7.230   8.063   1.612  0.6296 -1.6404 -0.8749
  627MOL0     H84582   7.038   8.193   1.639 -2.7487 -0.1139 -1.8397
  627MOL0     H84583   6.991   8.018   1.611  2.0190 -0.2786  0.6931
  627MOL0     H84584   6.957   8.014   1.878  1.3631  2.5597  1.8725
  627MOL0     H84585   6.977   8.182   1.867  1.1674 -1.6376  1.8510
  627MOL0     H84586   6.785   8.178   1.692 -1.2967 -0.1535  0.6120
  627MOL0     H84587   6.765   8.004   1.723 -1.2295 -0.1562  0.0762
  627MOL0     H84588   6.705   8.038   1.936  1.2935  1.2182  0.5154
  627MOL0     H84589   6.729   8.223   1.926  1.2790 -0.9402  1.9565
  627MOL0     H84590   6.544   8.199   1.739  0.3503  0.3830  1.1396
  627MOL0     H84591   6.522   8.040   1.794 -2.8466  1.1226 -0.9209
  627MOL0     H84592   6.446   8.090   2.008  3.0807 -1.1656 -0.6187
  627MOL0     H84593   6.489   8.257   1.979  1.4652 -0.9479  0.2268
  627MOL0     H84594   6.293   8.135   1.775 -1.8566  1.3514 -0.6077
  627MOL0     H84595   6.302   8.291   1.849  1.1378 -0.3684  0.3370
  627MOL0     H84596   6.158   7.926   1.893  0.4884 -1.1035  0.2782
  627MOL0     H84597   5.984   7.811   2.055 -3.3716 -2.1275  2.7107
  627MOL0     H84598   5.970   7.880   2.209 -2.3988 -3.5773 -0.6913
  627MOL0     H84599   5.759   7.830   2.074  2.3726 -1.2833 -1.3768
  627MOL0     H84600   5.806   7.937   1.949 -0.3231  0.9934 -0.1498
  627MOL0     H84601   5.633   8.036   2.102  1.8769  0.4928 -4.8493
  627MOL0     H84602   5.773   8.132   2.081 -1.1553 -0.2412 -2.6818
  627MOL0     H84603   5.693   8.114   2.323  2.1643  0.3392  3.3736
  627MOL0     H84604   5.863   8.076   2.309 -1.1532  2.6782 -1.8355
  627MOL0     H84605   5.670   7.676   2.326  0.7419  1.2675  0.6244
  627MOL0     H84606   5.374   7.498   2.272 -0.8109  3.3478  0.1574
  627MOL0     H84607   5.540   7.476   2.321 -2.0443 -2.6475 -2.0071
  627MOL0     H84608   5.408   7.493   2.442  2.4615  1.7182  2.1235
  627MOL0     H84609   4.969   7.573   2.272  1.4202  1.3321  0.7428
  627MOL0     H84610   4.728   7.554   2.352  0.3010 -1.2181  0.1945
  627MOL0     H84611   4.448   7.654   2.562 -0.0120 -1.2176  0.9369
  627MOL0     H84612   4.609   7.620   2.596  0.6284 -0.6005 -0.2431
  627MOL0     H84613   4.672   7.833   2.688  0.6663 -2.7357 -0.8494
  627MOL0     H84614   4.509   7.897   2.666 -0.1820 -0.9483 -3.1957
  627MOL0     H84615   4.602   7.669   2.847 -0.5888 -0.9714 -1.2070
  627MOL0     H84616   4.446   7.665   2.810 -0.0457 -1.1686  0.5828
  627MOL0     H84617   4.572   7.915   2.913 -0.0747 -0.4978  1.5347
  627MOL0     H84618   4.391   7.885   2.899 -0.8111 -1.9489  0.2266
  627MOL0     H84619   4.591   7.724   3.066 -1.0606 -2.4255  0.9640
  627MOL0     H84620   4.408   7.719   3.079  1.0619 -1.6578 -1.2779
  627MOL0     H84621   4.575   7.967   3.127 -1.6613  0.3391 -4.8185
  627MOL0     H84622   4.404   7.945   3.162  0.9423  3.2542  0.9943
  627MOL0     H84623   4.627   7.816   3.322 -0.6871 -0.8897 -0.4159
  627MOL0     H84624   4.459   7.771   3.342  0.2822 -0.1880 -1.3871
  627MOL0     H84625   4.390   7.956   3.423  0.2767 -4.6632 -1.6533
  627MOL0     H84626   4.521   8.066   3.374 -1.0801  0.3328  0.0302
  627MOL0     H84627   4.722   7.965   2.463  2.0776  2.6838 -0.6843
  627MOL0     H84628   4.971   7.978   2.412 -0.8950 -0.2975  2.2168
  627MOL0     H84629   5.271   7.962   2.354  0.0416 -0.1024  0.7202
  627MOL0     H84630   5.482   8.056   2.314  1.1072  0.3350 -0.9440
  627MOL0     H84631   7.434   8.046   1.739  1.8558  0.0774 -0.0014
  627MOL0     H84632   7.658   7.936   1.776 -0.9837 -0.7131 -4.5914
  627MOL0     H84633   7.932   7.709   1.936 -1.9669 -2.1669  1.1612
  627MOL0     H84634   8.183   7.675   1.902  0.4224 -1.4054 -0.9767
  627MOL0     H84635   8.384   7.656   1.815 -1.1699  0.0242 -4.4524
  627MOL0     H84636   8.366   7.522   1.941  1.1921 -1.2815  0.2546
  627MOL0     H84637   8.537   7.545   1.686 -1.1408  0.3120  0.0270
  627MOL0     H84638   8.537   7.399   1.792 -0.5792 -0.1238  1.6013
  627MOL0     H84639   8.616   7.531   1.984  1.7469 -1.7906 -0.3921
  627MOL0     H84640   8.636   7.678   1.889  0.4107 -0.4767 -0.1013
  627MOL0     H84641   8.796   7.518   1.745  1.8796  2.3374  0.7391
  627MOL0     H84642   8.789   7.418   1.892 -0.6931  0.2451  0.3317
  627MOL0     H84643   9.025   7.747   2.020  0.2218 -0.5625 -0.6666
  627MOL0     H84644   8.095   7.311   1.707 -3.4910 -0.8281 -1.3375
  627MOL0     H84645   7.865   7.331   1.744  1.4936  2.0528 -3.5705
  628MOL0     O84646   3.654   4.128  10.844 -0.3563 -0.0215 -0.0534
  628MOL0     C84647   3.673   4.177  10.955 -0.7410  0.0186 -0.0986
  628MOL0     O84648   3.589   4.162  11.068  0.7054 -0.4258 -0.4961
  628MOL0     C84649   3.486   4.062  11.088 -0.5603 -0.5737 -0.0090
  628MOL0     C84650   3.421   4.071  11.209  0.2317  0.8302 -0.0257
  628MOL0     C84651   3.316   3.976  11.239  0.2677 -0.2608 -0.0162
  628MOL0     C84652   3.289   3.876  11.151  0.3027 -0.1184  0.8359
  628MOL0     O84653   3.194   3.783  11.174 -0.0812  0.5665 -0.2786
  628MOL0     C84654   3.139   3.776  11.306 -1.4946 -0.0194  0.5775
  628MOL0     C84655   3.060   3.649  11.344  0.0004 -0.0422 -0.2107
  628MOL0     C84656   2.917   3.651  11.297  0.6730  0.4089 -0.6346
  628MOL0     C84657   2.856   3.517  11.268  0.4610  0.4276  0.7742
  628MOL0     C84658   2.710   3.525  11.218 -0.8492 -0.6003  0.1574
  628MOL0     C84659   2.657   3.392  11.163  0.2525 -0.4366 -0.0128
  628MOL0     C84660   2.509   3.406  11.125 -0.2113 -0.0098 -0.1809
  628MOL0     C84661   2.505   3.469  10.985  0.5752  0.3750  0.4473
  628MOL0     N84662   2.365   3.494  10.939 -0.2329  0.0754  1.3767
  628MOL0     C84663   2.327   3.607  10.870 -0.0652 -0.7003  0.8708
  628MOL0     C84664   2.191   3.605  10.864 -1.3694 -0.1380 -0.3822
  628MOL0     C84665   2.110   3.694  10.769  0.5501 -0.1116  0.0911
  628MOL0     C84666   1.965   3.653  10.719 -1.2209 -0.3863  0.6607
  628MOL0     C84667   1.875   3.780  10.709  1.6426 -0.0465  0.2712
  628MOL0     C84668   1.780   3.801  10.823  0.2789  0.1579 -0.8441
  628MOL0     O84669   1.696   3.681  10.832 -0.8506  0.0985  0.1743
  628MOL0     C84670   1.566   3.700  10.801  0.0976 -0.1479  0.4940
  628MOL0     C84671   1.520   3.711  10.668 -0.1209  0.0935 -0.4239
  628MOL0     C84672   1.378   3.734  10.639 -0.2050 -0.1257 -0.3493
  628MOL0     C84673   1.332   3.758  10.498  0.0190  0.7484  0.8248
  628MOL0     C84674   1.294   3.746  10.751 -0.2266  0.4107 -0.0251
  628MOL0     C84675   1.153   3.765  10.736  0.4422  0.1559 -0.1615
  628MOL0     O84676   1.104   3.881  10.672  0.3562  0.2767 -0.4098
  628MOL0     C84677   0.971   3.912  10.668 -0.8438  0.2184 -0.7353
  628MOL0     C84678   0.938   3.971  10.542  0.3040 -0.1345 -0.7100
  628MOL0     C84679   0.809   4.024  10.523 -0.5163  0.7956  0.0814
  628MOL0     C84680   0.717   4.024  10.629  0.2300 -0.8964  0.8361
  628MOL0     O84681   0.602   4.103  10.610  0.0784 -0.0011 -0.4087
  628MOL0     C84682   0.510   4.134  10.719 -0.0748  0.2914 -0.2205
  628MOL0     C84683   0.385   4.187  10.662 -0.5110 -1.1344  0.9246
  628MOL0     C84684   0.401   4.321  10.583  0.9801 -0.2254 -0.5094
  628MOL0     C84685   0.277   4.419  10.613  0.7996 -0.0051  0.0839
  628MOL0     C84686   0.295   4.559  10.560 -0.0302  0.4604 -1.2681
  628MOL0     C84687   0.172   4.613  10.487  0.2769 -0.0599  0.7966
  628MOL0     C84688   0.155   4.577  10.334 -0.7918  0.2798  0.5120
  628MOL0     C84689   0.075   4.653  10.234  0.4074  0.0518 -0.3530
  628MOL0    Cl84690  -0.077   4.704  10.300 -0.1129  0.4863 -0.0599
  628MOL0     C84691   0.741   3.950  10.746  0.3323 -0.3805  0.1497
  628MOL0     C84692   0.868   3.893  10.761  0.0805  0.3523  0.0525
  628MOL0     O84693   1.084   3.686  10.802 -0.3012  0.3367  0.0404
  628MOL0     C84694   1.345   3.721  10.881  0.3225  0.0197  0.1901
  628MOL0     C84695   1.481   3.701  10.907  0.0512  0.7909 -0.1904
  628MOL0     N84696   2.153   3.482  10.926 -0.2214  0.1573  0.7276
  628MOL0     N84697   2.258   3.415  10.966 -0.0519  0.1414  0.1994
  628MOL0     C84698   3.363   3.875  11.033 -0.5394 -0.1106 -1.4132
  628MOL0     C84699   3.460   3.960  10.997 -0.0762 -1.4616 -0.0207
  628MOL0     C84700   3.808   4.241  10.973 -0.9412  0.2455 -0.8667
  628MOL0     C84701   3.893   4.254  10.858 -0.1916 -0.2474  0.1490
  628MOL0     C84702   3.998   4.341  10.870 -0.9858 -0.3590  0.1290
  628MOL0     C84703   4.030   4.425  10.981 -0.0107  0.3158 -0.6209
  628MOL0     O84704   4.145   4.511  10.968 -0.6929  0.0742  0.0707
  628MOL0     C84705   4.179   4.603  11.082 -0.1840 -0.8656  0.3589
  628MOL0     C84706   4.288   4.708  11.044  0.4507 -0.0912  0.2122
  628MOL0     C84707   4.250   4.785  10.912  0.1342  0.5390 -0.7714
  628MOL0     C84708   4.137   4.884  10.931 -0.3658  0.4035 -0.3136
  628MOL0     C84709   4.121   4.973  10.818 -0.5801  0.3318  0.3100
  628MOL0     C84710   4.116   5.055  10.726  0.1853  0.2435 -0.4444
  628MOL0     C84711   3.942   4.414  11.090  0.2341 -0.3843 -0.8306
  628MOL0     C84712   3.831   4.325  11.086 -0.7282 -0.4377  0.2134
  628MOL0     H84713   3.455   4.144  11.282  3.1917 -1.1452  0.7080
  628MOL0     H84714   3.260   3.993  11.331  0.4755  0.7476 -0.0738
  628MOL0     H84715   3.220   3.785  11.379  0.4894 -0.4074 -1.4611
  628MOL0     H84716   3.076   3.864  11.319  1.9420  2.9803 -1.4085
  628MOL0     H84717   3.106   3.556  11.310 -1.5889 -2.5986  3.9071
  628MOL0     H84718   3.051   3.653  11.453 -0.0297  0.6187 -0.2314
  628MOL0     H84719   2.861   3.689  11.383  0.8646 -1.4540  0.3822
  628MOL0     H84720   2.912   3.715  11.209  0.0766 -0.9537 -1.6342
  628MOL0     H84721   2.920   3.462  11.198  0.9329  0.5656  1.0957
  628MOL0     H84722   2.851   3.463  11.363  3.1625  1.0113  1.3212
  628MOL0     H84723   2.642   3.560  11.297  1.6767  1.0862  1.7294
  628MOL0     H84724   2.707   3.593  11.132 -0.8142 -2.5086 -1.4114
  628MOL0     H84725   2.711   3.353  11.076 -2.9707 -1.9415 -1.5393
  628MOL0     H84726   2.667   3.307  11.232  0.4799 -0.3619  0.0459
  628MOL0     H84727   2.464   3.307  11.117 -0.0474 -0.0687 -0.3856
  628MOL0     H84728   2.458   3.467  11.201  0.9328  0.3870  0.2825
  628MOL0     H84729   2.547   3.397  10.914 -0.6618 -0.0300  0.1045
  628MOL0     H84730   2.558   3.564  10.984  0.5293  0.4313  1.6741
  628MOL0     H84731   2.382   3.688  10.823 -0.5281 -1.0846 -0.3792
  628MOL0     H84732   2.106   3.794  10.814  2.3806 -0.2651  0.6659
  628MOL0     H84733   2.170   3.698  10.678  0.1119  0.5405 -0.1784
  628MOL0     H84734   1.926   3.594  10.803 -1.4184  0.0900  0.9135
  628MOL0     H84735   1.982   3.591  10.631  1.2485 -0.9912  1.4750
  628MOL0     H84736   1.813   3.759  10.621 -0.6112 -1.8410  2.1396
  628MOL0     H84737   1.929   3.873  10.688 -2.2714  2.7302  1.3563
  628MOL0     H84738   1.721   3.892  10.812 -0.7814 -0.1032  1.8715
  628MOL0     H84739   1.833   3.808  10.918  0.6229  0.6579 -1.0723
  628MOL0     H84740   1.598   3.700  10.593  0.1754 -1.1987  0.0350
  628MOL0     H84741   1.229   3.726  10.476  1.4915 -2.0480 -3.0068
  628MOL0     H84742   1.342   3.863  10.472  1.0426 -0.0950 -2.8345
  628MOL0     H84743   1.399   3.713  10.424 -0.4796  1.0572  0.1681
  628MOL0     H84744   1.017   3.984  10.468  1.5546  1.9766  0.8988
  628MOL0     H84745   0.777   4.074  10.432 -0.7086 -0.0727 -0.3437
  628MOL0     H84746   0.476   4.041  10.767 -0.4728 -1.1535 -3.0812
  628MOL0     H84747   0.561   4.190  10.799  1.8252 -0.0133 -1.1518
  628MOL0     H84748   0.350   4.111  10.591  0.6410 -0.0214 -0.8921
  628MOL0     H84749   0.314   4.201  10.745  2.9661 -0.0300  3.9837
  628MOL0     H84750   0.393   4.299  10.476  0.9666 -4.1656  0.1285
  628MOL0     H84751   0.497   4.370  10.598  1.0326  0.1313 -1.9260
  628MOL0     H84752   0.185   4.373  10.574  0.8666 -3.1143  3.1090
  628MOL0     H84753   0.257   4.429  10.721 -0.2683  1.1981 -0.1993
  628MOL0     H84754   0.376   4.556  10.486 -0.8372 -0.2878 -2.1515
  628MOL0     H84755   0.322   4.629  10.639  0.4721 -0.7445 -0.3342
  628MOL0     H84756   0.080   4.602  10.545  1.0868  0.5522  2.2845
  628MOL0     H84757   0.192   4.721  10.490  0.9290 -0.1873  1.8995
  628MOL0     H84758   0.127   4.472  10.319  0.8939  0.1530 -2.5235
  628MOL0     H84759   0.257   4.581  10.295 -0.4914  0.3641  1.2912
  628MOL0     H84760   0.054   4.583  10.153  0.0362 -2.1918  1.5711
  628MOL0     H84761   0.132   4.742  10.204  0.1054  0.7311  1.0329
  628MOL0     H84762   0.684   3.944  10.838  0.0831  4.8058  0.6124
  628MOL0     H84763   0.910   3.842  10.847 -0.2743  0.4285  0.2701
  628MOL0     H84764   1.285   3.708  10.970  0.1034  1.0847  0.2110
  628MOL0     H84765   1.523   3.688  11.006 -2.2853  0.8168  0.8778
  628MOL0     H84766   3.348   3.789  10.968  1.3524 -0.9638 -0.8095
  628MOL0     H84767   3.515   3.951  10.904  0.1283  1.0677 -0.2333
  628MOL0     H84768   3.877   4.202  10.765  0.5257  0.8019 -0.5864
  628MOL0     H84769   4.062   4.345  10.783  2.0393 -0.3823  2.1746
  628MOL0     H84770   4.082   4.650  11.102  0.5229  0.4329  0.8764
  628MOL0     H84771   4.199   4.558  11.179 -0.2119 -1.1419  0.2384
  628MOL0     H84772   4.379   4.650  11.029 -1.1619 -3.0021  0.9550
  628MOL0     H84773   4.298   4.782  11.124 -0.7193 -0.0522  0.3474
  628MOL0     H84774   4.237   4.716  10.828  0.9556 -3.1148  1.8563
  628MOL0     H84775   4.337   4.845  10.882 -0.6167  2.3579  0.5075
  628MOL0     H84776   4.141   4.947  11.020 -2.3595  0.3763 -0.1589
  628MOL0     H84777   4.036   4.840  10.932 -1.1884  1.6585  5.1449
  628MOL0     H84778   4.117   5.132  10.651 -0.3088  2.3324  1.5886
  628MOL0     H84779   3.952   4.475  11.179  2.0337  0.4234 -1.5298
  628MOL0     H84780   3.766   4.300  11.169  0.5919 -0.3469  1.2969
  629MOL0     O84781   6.855  10.649   5.829 -0.2241  0.2995 -0.0881
  629MOL0     C84782   6.918  10.752   5.814  0.6034 -0.3473 -0.2401
  629MOL0     O84783   6.867  10.869   5.757  0.2337 -0.0314 -0.2577
  629MOL0     C84784   6.733  10.870   5.722  0.1824 -1.1879  0.5769
  629MOL0     C84785   6.642  10.965   5.771 -0.3012  0.2529  0.5078
  629MOL0     C84786   6.510  10.962   5.732  0.9826  0.7139 -0.6365
  629MOL0     C84787   6.472  10.871   5.628  0.6876 -0.2386 -0.3921
  629MOL0     O84788   6.342  10.864   5.593 -0.2555 -0.0972  0.9922
  629MOL0     C84789   6.245  10.961   5.634  0.7492  0.0581 -0.0382
  629MOL0     C84790   6.118  10.927   5.568  0.3537  0.5658  0.6520
  629MOL0     C84791   6.046  10.814   5.642 -0.3021 -0.4754 -0.9054
  629MOL0     C84792   5.891  10.795   5.616 -1.3422 -0.0679  0.1713
  629MOL0     C84793   5.837  10.694   5.718  0.2460 -0.5498  0.1511
  629MOL0     C84794   5.862  10.551   5.694 -0.7617  0.0012 -0.3163
  629MOL0     C84795   5.757  10.457   5.745 -0.1081 -0.2074  0.3258
  629MOL0     C84796   5.800  10.307   5.741  0.1079  0.2226  0.1038
  629MOL0     N84797   5.695  10.214   5.794 -0.4907  0.1723  0.9532
  629MOL0     C84798   5.657  10.233   5.920  0.2815  0.9446  0.8996
  629MOL0     C84799   5.552  10.144   5.925 -0.1096  0.4250  0.2315
  629MOL0     C84800   5.467  10.120   6.059 -0.2093  0.2061  0.2561
  629MOL0     C84801   5.321  10.103   6.025 -0.1907  0.3125  0.3722
  629MOL0     C84802   5.279   9.981   5.926 -0.2621 -0.3404 -0.6054
  629MOL0     C84803   5.323   9.850   5.995 -0.0677 -0.0860  0.4022
  629MOL0     O84804   5.253   9.744   5.928  0.5227  0.1815  0.3635
  629MOL0     C84805   5.283   9.610   5.945  0.2480 -0.0367  0.1839
  629MOL0     C84806   5.226   9.516   5.855 -0.0366  0.6779 -0.1308
  629MOL0     C84807   5.247   9.378   5.868  0.6492  0.8506 -0.1788
  629MOL0     C84808   5.181   9.288   5.767  0.5179 -0.4741  0.3283
  629MOL0     C84809   5.338   9.331   5.974  0.3368  0.0855 -0.2422
  629MOL0     C84810   5.359   9.188   6.002 -0.1689  0.0877 -0.6536
  629MOL0     O84811   5.381   9.156   6.134  0.5202  0.0605  1.0002
  629MOL0     C84812   5.453   9.046   6.163  0.9413 -0.2180  0.7408
  629MOL0     C84813   5.583   9.043   6.118 -0.1871 -0.8576  0.1255
  629MOL0     C84814   5.662   8.936   6.156  0.3721  0.0435 -0.2243
  629MOL0     C84815   5.616   8.845   6.255 -0.2803  0.9249  0.0391
  629MOL0     O84816   5.710   8.755   6.312 -0.0589 -0.6477  0.2753
  629MOL0     C84817   5.684   8.692   6.444 -0.2703  0.2231 -0.2803
  629MOL0     C84818   5.821   8.654   6.516  0.6714 -1.1618  0.3210
  629MOL0     C84819   5.919   8.772   6.524 -0.4538 -0.5534  0.3724
  629MOL0     C84820   6.020   8.772   6.650 -0.0347  0.6490  1.1260
  629MOL0     C84821   6.101   8.894   6.665 -0.4182 -0.5563 -0.1090
  629MOL0     C84822   6.174   8.889   6.801 -0.3274  0.0478 -0.2007
  629MOL0     C84823   6.068   8.881   6.927  0.1225 -0.8286 -0.4607
  629MOL0     C84824   6.136   8.862   7.069  0.5185  0.1725  0.0745
  629MOL0    Cl84825   6.173   8.686   7.090 -0.4452  0.0266 -0.0858
  629MOL0     C84826   5.481   8.853   6.294  0.0444  0.4432 -0.4276
  629MOL0     C84827   5.399   8.950   6.246  0.4931  0.0859  0.4309
  629MOL0     O84828   5.363   9.104   5.906  0.2130  0.7783  0.3772
  629MOL0     C84829   5.394   9.424   6.055 -0.0978  0.3681  0.6458
  629MOL0     C84830   5.377   9.557   6.030  0.1683 -0.2365  0.3334
  629MOL0     N84831   5.535  10.082   5.799 -0.1457  0.3696 -0.5165
  629MOL0     N84832   5.627  10.112   5.726 -0.5243 -0.3757  0.3123
  629MOL0     C84833   6.561  10.784   5.584 -0.3558  0.1901  0.4660
  629MOL0     C84834   6.693  10.778   5.630 -0.2576 -0.0498 -0.3673
  629MOL0     C84835   7.061  10.746   5.846  0.3617  0.3991  0.9903
  629MOL0     C84836   7.121  10.659   5.934  0.3909 -0.2478  1.1491
  629MOL0     C84837   7.261  10.662   5.952 -0.2856 -0.5363 -0.5969
  629MOL0     C84838   7.341  10.747   5.881 -0.8851  0.7607  0.5784
  629MOL0     O84839   7.479  10.760   5.888 -0.1489  0.0645  0.0223
  629MOL0     C84840   7.555  10.673   5.962 -0.8651  0.4617 -0.0341
  629MOL0     C84841   7.702  10.688   5.938  0.0216 -0.1829 -0.0175
  629MOL0     C84842   7.773  10.808   6.017  0.2562  0.1900  0.5563
  629MOL0     C84843   7.773  10.943   5.937  0.9038 -0.3439 -0.3966
  629MOL0     C84844   7.886  10.941   5.846  0.2601 -0.2858  0.2917
  629MOL0     C84845   7.986  10.914   5.784 -0.0491  0.4756 -1.1479
  629MOL0     C84846   7.284  10.824   5.792 -0.4338 -0.4132  0.8542
  629MOL0     C84847   7.150  10.829   5.770  0.0040 -1.0929 -0.0681
  629MOL0     H84848   6.682  11.024   5.852  1.9571  0.7164 -0.8647
  629MOL0     H84849   6.446  11.031   5.786  1.9797  0.6964  0.6187
  629MOL0     H84850   6.227  10.954   5.742  1.0598  3.0689  0.3101
  629MOL0     H84851   6.284  11.060   5.609  1.2678  0.0319  0.6468
  629MOL0     H84852   6.055  11.016   5.572 -0.6454 -0.1348  0.7277
  629MOL0     H84853   6.120  10.907   5.461  0.8982  1.3093  0.5152
  629MOL0     H84854   6.081  10.714   5.614 -0.1648 -0.0162 -2.4317
  629MOL0     H84855   6.048  10.823   5.751  1.4024  0.5100 -0.9955
  629MOL0     H84856   5.843  10.892   5.629  1.9540  1.4833  1.8650
  629MOL0     H84857   5.865  10.760   5.516 -0.8384 -0.4333  0.1618
  629MOL0     H84858   5.882  10.723   5.814  1.0595  0.0764 -0.4090
  629MOL0     H84859   5.729  10.707   5.726  0.5076  0.8391  2.4250
  629MOL0     H84860   5.871  10.539   5.585 -1.6585  0.7682 -0.4880
  629MOL0     H84861   5.957  10.521   5.740  0.7016  3.0104 -1.0715
  629MOL0     H84862   5.718  10.493   5.841 -1.0176  1.2010 -0.5386
  629MOL0     H84863   5.685  10.472   5.665 -0.2275 -1.9572  0.0836
  629MOL0     H84864   5.892  10.296   5.800 -1.0134 -1.0679  1.6887
  629MOL0     H84865   5.841  10.277   5.644  2.6057 -1.3068  1.5189
  629MOL0     H84866   5.695  10.309   5.988  1.1727 -1.2268  2.9550
  629MOL0     H84867   5.516  10.042   6.117  0.1945 -0.4111 -0.9023
  629MOL0     H84868   5.474  10.209   6.123  2.2128 -0.6115  1.2180
  629MOL0     H84869   5.286  10.202   5.991  1.4026  0.5779 -0.6036
  629MOL0     H84870   5.273  10.080   6.120 -2.1051 -0.2601 -0.6678
  629MOL0     H84871   5.319   9.987   5.825 -1.6042  1.2557 -1.0857
  629MOL0     H84872   5.172   9.977   5.904  0.1630 -1.2018 -2.7169
  629MOL0     H84873   5.290   9.846   6.099 -0.7426  4.6117  0.5879
  629MOL0     H84874   5.432   9.839   6.003 -0.0426  0.3304  0.6931
  629MOL0     H84875   5.151   9.562   5.792 -4.2528 -1.3113  2.9005
  629MOL0     H84876   5.143   9.198   5.814 -5.0749  1.3798  0.0732
  629MOL0     H84877   5.087   9.330   5.728 -1.3436 -3.2821  1.4959
  629MOL0     H84878   5.244   9.263   5.681 -2.1810 -1.6687 -1.4622
  629MOL0     H84879   5.617   9.126   6.057 -0.5827 -0.1707  0.8090
  629MOL0     H84880   5.763   8.924   6.118 -0.5875 -2.7712 -2.1774
  629MOL0     H84881   5.633   8.765   6.507 -4.7314  0.6891 -3.8510
  629MOL0     H84882   5.623   8.602   6.428 -0.4868 -0.1182  2.0881
  629MOL0     H84883   5.790   8.615   6.613 -0.7232  0.4483  0.5524
  629MOL0     H84884   5.877   8.574   6.466  2.6636  0.8253 -0.8200
  629MOL0     H84885   5.868   8.869   6.527  1.6509  0.6502 -0.7354
  629MOL0     H84886   5.973   8.765   6.429 -1.3706  1.5032 -0.3811
  629MOL0     H84887   5.966   8.740   6.739 -1.2820  1.0743  0.5403
  629MOL0     H84888   6.083   8.684   6.634 -1.2724 -0.5762  2.7394
  629MOL0     H84889   6.026   8.974   6.670 -0.4145 -0.6184  1.3011
  629MOL0     H84890   6.173   8.907   6.583  3.2165 -1.2983  2.6867
  629MOL0     H84891   6.246   8.807   6.812 -1.2422 -1.0316 -1.8884
  629MOL0     H84892   6.235   8.977   6.824  0.5535 -0.4421 -0.6314
  629MOL0     H84893   5.979   8.820   6.913 -1.4047  0.8953  1.1504
  629MOL0     H84894   6.030   8.983   6.930 -0.2471 -0.9021 -1.9419
  629MOL0     H84895   6.074   8.887   7.156  1.6540 -0.9873  1.2596
  629MOL0     H84896   6.216   8.936   7.075  0.3387  0.2904  1.2325
  629MOL0     H84897   5.428   8.775   6.348 -4.3638  1.8270 -2.2918
  629MOL0     H84898   5.292   8.956   6.262  0.1692  0.2273 -1.5331
  629MOL0     H84899   5.457   9.396   6.139  0.3063  0.8098  0.4959
  629MOL0     H84900   5.435   9.623   6.094 -0.1413 -1.6309  2.1668
  629MOL0     H84901   6.516  10.723   5.508 -1.4477  1.9297 -0.3524
  629MOL0     H84902   6.767  10.720   5.577 -1.1743 -1.2847 -0.3477
  629MOL0     H84903   7.045  10.598   5.981 -0.9377  0.9100  0.5838
  629MOL0     H84904   7.298  10.594   6.029  1.8092  2.4068  1.1932
  629MOL0     H84905   7.533  10.680   6.069 -0.5636 -0.0731  0.0690
  629MOL0     H84906   7.530  10.573   5.926 -1.1729 -0.6037  2.8422
  629MOL0     H84907   7.715  10.690   5.830 -0.0385 -2.0849 -0.0913
  629MOL0     H84908   7.751  10.594   5.965  1.1533 -0.4619 -2.7067
  629MOL0     H84909   7.870  10.766   6.044 -1.1395 -1.6385  3.2262
  629MOL0     H84910   7.728  10.808   6.117 -0.1909 -0.3324  0.3632
  629MOL0     H84911   7.768  11.029   6.005 -1.0239 -0.1257 -0.7360
  629MOL0     H84912   7.679  10.944   5.880 -0.3578  2.9545  1.4561
  629MOL0     H84913   8.078  10.885   5.737  0.1895 -1.1815  0.2623
  629MOL0     H84914   7.328  10.901   5.729 -3.6056  0.7986 -0.0665
  629MOL0     H84915   7.121  10.900   5.693  0.6831 -0.8881 -0.1378
  630MOL0     O84916   9.219   8.095   7.215 -0.5128  0.0898  0.5333
  630MOL0     C84917   9.321   8.165   7.229  0.3708  0.2455 -0.4064
  630MOL0     O84918   9.319   8.289   7.272 -0.5856 -0.3419  0.2282
  630MOL0     C84919   9.197   8.351   7.271 -0.3367 -0.4192 -1.1193
  630MOL0     C84920   9.146   8.411   7.154  0.0773  0.4090  0.2151
  630MOL0     C84921   9.025   8.483   7.159  0.1268  0.1271  0.3166
  630MOL0     C84922   8.952   8.496   7.278 -0.4173 -0.1529  0.0668
  630MOL0     O84923   8.852   8.585   7.306  0.2734  0.5945  0.1689
  630MOL0     C84924   8.827   8.686   7.208 -0.7272 -0.7966  0.4086
  630MOL0     C84925   8.766   8.807   7.269  0.0455  0.1274 -0.3591
  630MOL0     C84926   8.670   8.759   7.377 -0.3850  0.0532  0.2556
  630MOL0     C84927   8.581   8.870   7.428  0.0446 -0.4889  0.6373
  630MOL0     C84928   8.482   8.931   7.334 -0.1113  0.2624 -0.2663
  630MOL0     C84929   8.408   8.823   7.248 -0.1123 -0.8774 -0.5027
  630MOL0     C84930   8.306   8.888   7.159  0.4423 -0.2470  1.2141
  630MOL0     C84931   8.356   8.978   7.039  0.3006 -0.2924 -0.1630
  630MOL0     N84932   8.444   8.898   6.948  0.6496 -0.1337 -0.0878
  630MOL0     C84933   8.578   8.897   6.955  0.1695  0.0117  0.9118
  630MOL0     C84934   8.613   8.807   6.867  0.3496  0.0379  0.0788
  630MOL0     C84935   8.752   8.733   6.843 -0.3191 -0.4069 -0.9701
  630MOL0     C84936   8.792   8.737   6.694 -0.0245 -0.8605  0.1029
  630MOL0     C84937   8.792   8.877   6.633  0.4273 -0.5635  0.3866
  630MOL0     C84938   8.900   8.882   6.520 -0.5986 -0.2124  0.0898
  630MOL0     O84939   8.890   8.988   6.428  0.0326 -0.1364 -0.3035
  630MOL0     C84940   8.780   8.988   6.342  0.5625  0.6511 -0.1319
  630MOL0     C84941   8.719   8.869   6.293 -0.4975 -0.4067  0.4968
  630MOL0     C84942   8.605   8.871   6.212  0.3794 -0.3652  0.7428
  630MOL0     C84943   8.536   8.735   6.193  0.1835  0.3887 -0.5366
  630MOL0     C84944   8.559   8.997   6.168 -0.1291  0.3435  0.5747
  630MOL0     C84945   8.427   9.012   6.100 -1.0188 -0.2603  0.1097
  630MOL0     O84946   8.357   9.121   6.135 -0.4274 -0.6520  0.0624
  630MOL0     C84947   8.247   9.163   6.073 -0.6027  0.9323  0.5842
  630MOL0     C84948   8.208   9.126   5.942 -0.3585  1.0882  0.1064
  630MOL0     C84949   8.084   9.167   5.891  0.0260 -0.8293 -0.0542
  630MOL0     C84950   7.981   9.222   5.977  0.2465  0.6116  0.5043
  630MOL0     O84951   7.854   9.253   5.942  0.0549 -0.8401 -0.7340
  630MOL0     C84952   7.813   9.242   5.806 -0.3304  0.6744 -0.3865
  630MOL0     C84953   7.671   9.297   5.788  0.6253  0.8696 -0.9628
  630MOL0     C84954   7.563   9.222   5.872 -0.0701 -0.5767  0.4847
  630MOL0     C84955   7.427   9.261   5.826  0.9763  0.4773 -0.0903
  630MOL0     C84956   7.308   9.195   5.911  0.3509 -0.6598 -0.0265
  630MOL0     C84957   7.176   9.251   5.862  0.4322 -0.4409  0.0003
  630MOL0     C84958   7.052   9.202   5.948  0.6676  0.0036  0.7448
  630MOL0     C84959   6.922   9.211   5.871  0.3930 -0.1153 -0.1663
  630MOL0    Cl84960   6.906   9.389   5.841 -0.2649  0.2309  0.1327
  630MOL0     C84961   8.026   9.245   6.110 -0.3341 -0.4145  0.2012
  630MOL0     C84962   8.155   9.217   6.158 -0.1960 -0.4027 -0.0337
  630MOL0     O84963   8.402   8.941   6.001 -0.1422  0.2463  0.5206
  630MOL0     C84964   8.633   9.116   6.201  0.5866 -0.2577 -0.8904
  630MOL0     C84965   8.746   9.115   6.292 -0.5663 -1.2219 -0.7175
  630MOL0     N84966   8.501   8.754   6.806  0.9433  0.4054 -0.2529
  630MOL0     N84967   8.398   8.815   6.852 -0.0896  0.0808 -0.3062
  630MOL0     C84968   9.005   8.431   7.397 -0.5504 -0.0526  0.1528
  630MOL0     C84969   9.133   8.373   7.393  0.8803  0.1661 -0.4723
  630MOL0     C84970   9.443   8.086   7.218  0.7300  0.2987 -1.2562
  630MOL0     C84971   9.448   7.956   7.156  0.6800 -0.2122  0.2901
  630MOL0     C84972   9.567   7.884   7.159 -0.1609 -0.2341 -1.2212
  630MOL0     C84973   9.684   7.937   7.218  0.2209 -0.1782  0.0956
  630MOL0     O84974   9.811   7.868   7.244  0.3293 -0.4740 -0.1610
  630MOL0     C84975   9.849   7.736   7.208 -0.2247  0.2900  0.7791
  630MOL0     C84976   9.998   7.736   7.186 -0.2602  0.6771  1.0157
  630MOL0     C84977  10.083   7.767   7.306  0.8758 -0.7481 -0.2559
  630MOL0     C84978  10.229   7.796   7.261 -0.3049 -0.0476  0.4977
  630MOL0     C84979  10.290   7.698   7.172  0.4487 -0.4210 -0.5094
  630MOL0     C84980  10.336   7.629   7.083  0.4284  0.1846 -0.3581
  630MOL0     C84981   9.670   8.058   7.289 -0.4168  0.0045 -0.7391
  630MOL0     C84982   9.561   8.133   7.282  0.0642  0.7750  0.0616
  630MOL0     H84983   9.179   8.401   7.051 -5.4352 -0.9400 -1.7607
  630MOL0     H84984   8.983   8.513   7.063  2.2131  0.2862 -0.5938
  630MOL0     H84985   8.917   8.711   7.151 -0.7739  1.6410  1.2713
  630MOL0     H84986   8.753   8.646   7.139 -0.2909 -1.1259  0.1333
  630MOL0     H84987   8.853   8.866   7.301  1.8149 -0.4802 -3.6170
  630MOL0     H84988   8.705   8.870   7.204 -2.2181 -1.8108 -0.2367
  630MOL0     H84989   8.612   8.674   7.340 -0.3176 -0.1446  0.6074
  630MOL0     H84990   8.731   8.731   7.463  0.3064  2.0550  0.4674
  630MOL0     H84991   8.518   8.828   7.507 -1.0480 -0.8583 -0.4107
  630MOL0     H84992   8.645   8.948   7.470  0.9469  0.4928 -2.3027
  630MOL0     H84993   8.416   8.989   7.399  1.0526 -2.3358  3.5457
  630MOL0     H84994   8.533   9.008   7.276 -0.6208  0.7733 -0.0441
  630MOL0     H84995   8.476   8.752   7.201  0.4604  0.3006 -1.5213
  630MOL0     H84996   8.359   8.753   7.316  2.4773 -2.0883  0.2465
  630MOL0     H84997   8.255   8.801   7.118  0.0702  0.1672  0.7817
  630MOL0     H84998   8.235   8.953   7.212  0.1105  2.0059 -1.7322
  630MOL0     H84999   8.393   9.073   7.079 -2.1187  0.2120  1.0807
  630MOL0     H85000   8.263   8.994   6.983 -2.4628 -1.6301  3.6131
  630MOL0     H85001   8.647   8.943   7.025  1.6952  1.2682 -1.2828
  630MOL0     H85002   8.830   8.779   6.904 -0.3660 -0.0541 -1.1712
  630MOL0     H85003   8.738   8.628   6.872  0.6454  0.2617  2.2441
  630MOL0     H85004   8.723   8.676   6.635  1.4432 -2.5463  0.0269
  630MOL0     H85005   8.887   8.684   6.682 -1.9726 -4.5129 -0.8083
  630MOL0     H85006   8.814   8.951   6.710 -0.3065 -0.4252  0.4646
  630MOL0     H85007   8.689   8.896   6.604  0.6062  0.7979  0.5689
  630MOL0     H85008   8.912   8.790   6.464  2.6514  1.0258 -1.5046
  630MOL0     H85009   8.994   8.891   6.575 -0.0457  1.3396 -1.0311
  630MOL0     H85010   8.759   8.772   6.322 -0.7934 -2.6626 -5.1842
  630MOL0     H85011   8.593   8.666   6.132 -0.8279 -0.9191 -0.0629
  630MOL0     H85012   8.534   8.677   6.286  1.6448  0.5954 -0.3565
  630MOL0     H85013   8.432   8.748   6.160  0.4040 -0.3920 -1.5608
  630MOL0     H85014   8.280   9.088   5.870 -0.7354 -2.9030  1.6130
  630MOL0     H85015   8.069   9.162   5.783 -0.3765  0.0536 -0.0405
  630MOL0     H85016   7.888   9.296   5.748  3.5035  0.2399  3.6225
  630MOL0     H85017   7.824   9.136   5.781 -2.5376 -0.0396  1.3085
  630MOL0     H85018   7.673   9.404   5.811 -2.8233  0.5413  1.7640
  630MOL0     H85019   7.636   9.290   5.684  0.6426  0.9534 -0.9746
  630MOL0     H85020   7.568   9.234   5.981 -0.3430 -1.2025  0.5741
  630MOL0     H85021   7.561   9.113   5.863 -1.5082 -0.4691 -0.9395
  630MOL0     H85022   7.416   9.369   5.833 -0.4559  0.2336  2.7166
  630MOL0     H85023   7.398   9.238   5.723 -1.8107  4.6762 -0.4879
  630MOL0     H85024   7.321   9.231   6.014  1.1755  4.2985 -1.6109
  630MOL0     H85025   7.304   9.086   5.907 -1.8375 -0.6425  0.5470
  630MOL0     H85026   7.177   9.359   5.848 -1.6338 -0.5543 -1.4818
  630MOL0     H85027   7.161   9.224   5.757 -1.6393 -0.5872  0.2897
  630MOL0     H85028   7.043   9.264   6.037  0.9143  1.6912 -0.3549
  630MOL0     H85029   7.058   9.098   5.983  0.1549 -0.1287  0.4484
  630MOL0     H85030   6.846   9.168   5.936  0.8025 -1.3378 -0.4483
  630MOL0     H85031   6.914   9.152   5.778 -1.7138  0.8459 -0.6399
  630MOL0     H85032   7.955   9.287   6.180 -1.3602  1.6685 -1.9581
  630MOL0     H85033   8.174   9.233   6.263  3.6241 -1.5032 -0.4338
  630MOL0     H85034   8.592   9.213   6.175 -0.6697 -0.6659 -0.5106
  630MOL0     H85035   8.789   9.211   6.317 -2.2909  0.0651 -2.4088
  630MOL0     H85036   8.967   8.447   7.498  1.1761 -2.2077  1.2288
  630MOL0     H85037   9.169   8.338   7.489 -2.0740 -2.3789 -0.1058
  630MOL0     H85038   9.356   7.920   7.111  0.5259  1.7987 -1.1732
  630MOL0     H85039   9.573   7.785   7.114  3.0462 -0.3052 -0.8420
  630MOL0     H85040   9.827   7.665   7.288 -2.5310  1.1336  0.9723
  630MOL0     H85041   9.802   7.706   7.114 -0.2056  3.5048 -0.3887
  630MOL0     H85042  10.039   7.811   7.118  0.6936  0.3156  1.1782
  630MOL0     H85043  10.023   7.639   7.141  0.1183  1.4330 -0.4998
  630MOL0     H85044  10.077   7.691   7.385 -0.8014  0.2034  0.6095
  630MOL0     H85045  10.035   7.855   7.352 -1.2081 -1.4638 -0.9283
  630MOL0     H85046  10.293   7.805   7.348  0.8415 -0.1678 -0.3123
  630MOL0     H85047  10.240   7.894   7.214 -0.0365 -0.4958 -0.4108
  630MOL0     H85048  10.379   7.571   7.004  0.2747 -1.2177  0.5494
  630MOL0     H85049   9.752   8.101   7.345 -0.9020  3.2425 -2.2723
  630MOL0     H85050   9.556   8.228   7.332 -0.3341  0.1126  1.3218
  631MOL0     O85051   9.489   5.466  11.069 -0.0803 -0.9436  1.2447
  631MOL0     C85052   9.551   5.482  11.169 -0.0572  0.7368  0.6059
  631MOL0     O85053   9.524   5.580  11.259 -0.7765  0.4288 -0.0399
  631MOL0     C85054   9.397   5.643  11.268 -0.3202 -0.3677 -0.2753
  631MOL0     C85055   9.401   5.775  11.312  1.4219  0.7910  0.5590
  631MOL0     C85056   9.283   5.845  11.324  0.5248  0.0288 -0.4537
  631MOL0     C85057   9.159   5.787  11.288 -0.0934  0.7038 -0.5361
  631MOL0     O85058   9.043   5.857  11.303 -0.7882  0.4590  0.3976
  631MOL0     C85059   9.047   5.997  11.340 -0.4350 -0.9464 -1.5708
  631MOL0     C85060   8.905   6.054  11.304  0.5433 -0.0764  0.5419
  631MOL0     C85061   8.876   6.047  11.160  0.0823  0.0333  0.7876
  631MOL0     C85062   8.814   5.916  11.111 -0.6780 -0.4781 -0.2015
  631MOL0     C85063   8.816   5.892  10.963 -0.2029 -0.7094 -0.0733
  631MOL0     C85064   8.774   6.015  10.876 -0.1180 -0.4537 -0.1446
  631MOL0     C85065   8.795   5.969  10.726 -0.1976 -0.5796 -1.1149
  631MOL0     C85066   8.895   6.064  10.649  0.7310 -0.1386 -0.4330
  631MOL0     N85067   8.853   6.205  10.648  0.7500 -0.2094  0.6671
  631MOL0     C85068   8.740   6.259  10.597  1.3647 -0.0859  0.0823
  631MOL0     C85069   8.734   6.385  10.647  1.4424 -0.4648 -1.0999
  631MOL0     C85070   8.625   6.487  10.629 -0.1622  0.0853 -0.2481
  631MOL0     C85071   8.649   6.581  10.510 -0.6616 -0.3122  0.7829
  631MOL0     C85072   8.527   6.677  10.499 -0.4835 -0.1626  0.9076
  631MOL0     C85073   8.506   6.776  10.614 -0.2716 -0.4440  0.0737
  631MOL0     O85074   8.476   6.911  10.573 -0.1075  0.0094  0.4213
  631MOL0     C85075   8.354   6.945  10.521  0.0758 -1.5787  0.1088
  631MOL0     C85076   8.259   6.850  10.478 -0.2652 -0.2380 -0.6574
  631MOL0     C85077   8.138   6.894  10.414  0.0003 -0.6574 -0.2849
  631MOL0     C85078   8.063   6.789  10.351  1.1234  0.0241  1.1611
  631MOL0     C85079   8.100   7.026  10.416 -0.9838 -0.5398  0.1280
  631MOL0     C85080   7.974   7.078  10.363  0.6777  0.2447 -0.0150
  631MOL0     O85081   7.985   7.190  10.286  0.7351  0.7445 -0.3291
  631MOL0     C85082   7.869   7.244  10.240  0.0934  0.3940  0.7552
  631MOL0     C85083   7.856   7.245  10.096 -0.0836 -0.4253 -0.6210
  631MOL0     C85084   7.747   7.301  10.028  0.7104  0.9297 -0.1354
  631MOL0     C85085   7.637   7.351  10.109 -0.7414 -0.0100  0.8846
  631MOL0     O85086   7.532   7.402  10.037  0.4411  0.2772  0.7554
  631MOL0     C85087   7.461   7.517  10.085 -0.8732  0.3686 -0.3118
  631MOL0     C85088   7.373   7.577   9.971 -0.3952 -0.6036 -0.0801
  631MOL0     C85089   7.263   7.491   9.930  0.3474  0.9179 -0.4380
  631MOL0     C85090   7.138   7.499  10.023  1.4091 -0.8303 -0.1002
  631MOL0     C85091   7.011   7.488   9.936 -0.8883  0.2823 -0.0517
  631MOL0     C85092   6.882   7.510  10.019 -0.1559 -0.3174 -0.2370
  631MOL0     C85093   6.768   7.545   9.938  0.9017  0.8879 -0.1117
  631MOL0     C85094   6.647   7.563  10.032 -0.5450  0.1767 -0.5729
  631MOL0    Cl85095   6.504   7.581   9.944 -0.0727 -0.0166 -0.4263
  631MOL0     C85096   7.654   7.351  10.246 -0.3300 -0.1448  0.2142
  631MOL0     C85097   7.763   7.295  10.315  0.3620  0.1705  0.5704
  631MOL0     O85098   7.863   7.025  10.388 -0.5273 -0.5971  0.6159
  631MOL0     C85099   8.191   7.116  10.471 -0.4347 -0.3104 -0.4940
  631MOL0     C85100   8.314   7.075  10.522  0.3372 -0.0287 -0.7140
  631MOL0     N85101   8.849   6.395  10.733  0.5055  0.2176 -0.5157
  631MOL0     N85102   8.915   6.293  10.728 -0.1541  0.2509 -1.0191
  631MOL0     C85103   9.154   5.654  11.245 -0.7514  0.1177 -1.3899
  631MOL0     C85104   9.278   5.584  11.238  0.2521 -0.2935 -0.4541
  631MOL0     C85105   9.673   5.393  11.189  0.7491  0.5755 -0.0026
  631MOL0     C85106   9.765   5.417  11.292  0.3264 -0.2335  0.7718
  631MOL0     C85107   9.881   5.344  11.301 -0.1824  0.0851  0.0467
  631MOL0     C85108   9.909   5.237  11.211  0.9984 -0.5207 -0.2836
  631MOL0     O85109  10.020   5.155  11.226 -0.2703  0.4785  0.0040
  631MOL0     C85110  10.130   5.202  11.298 -0.1756  0.1165  0.0408
  631MOL0     C85111  10.200   5.295  11.198  0.1542 -0.2451  0.1193
  631MOL0     C85112  10.326   5.227  11.142  0.1245 -0.3209 -0.6930
  631MOL0     C85113  10.455   5.271  11.215 -0.3187  0.6125  0.5189
  631MOL0     C85114  10.495   5.399  11.159  0.5630  0.1873  0.5547
  631MOL0     C85115  10.520   5.506  11.113 -0.4541  0.2216 -0.6316
  631MOL0     C85116   9.810   5.213  11.119  0.3519  0.8482  0.0075
  631MOL0     C85117   9.690   5.284  11.108 -0.5054  0.5225 -0.3143
  631MOL0     H85118   9.488   5.817  11.363  0.7394 -0.1502  2.5850
  631MOL0     H85119   9.280   5.935  11.384 -1.4939  0.2026 -0.7658
  631MOL0     H85120   9.066   6.001  11.448 -1.3397 -2.8291 -1.3037
  631MOL0     H85121   9.122   6.057  11.287 -1.0850  0.9552 -0.4511
  631MOL0     H85122   8.834   5.991  11.359  1.8683 -0.0285  2.3988
  631MOL0     H85123   8.897   6.157  11.338 -1.0662  0.1617 -0.4382
  631MOL0     H85124   8.794   6.118  11.157  1.0439  1.2399  1.7771
  631MOL0     H85125   8.956   6.075  11.091 -0.7008 -0.7479 -0.4640
  631MOL0     H85126   8.847   5.823  11.159 -0.8968 -0.6382 -0.3563
  631MOL0     H85127   8.710   5.937  11.136 -0.1519  3.2783 -0.5868
  631MOL0     H85128   8.918   5.863  10.935 -0.7864 -0.9319 -2.1607
  631MOL0     H85129   8.753   5.803  10.953  3.6906 -3.9851  1.7867
  631MOL0     H85130   8.674   6.053  10.899  0.6765  1.2082  0.7626
  631MOL0     H85131   8.843   6.093  10.909  0.0297 -0.6117 -0.0781
  631MOL0     H85132   8.842   5.870  10.716 -0.8101 -1.0704  0.6217
  631MOL0     H85133   8.699   5.958  10.675 -0.5063  0.5007 -0.7860
  631MOL0     H85134   8.903   6.028  10.546  1.0521  0.5142 -0.6430
  631MOL0     H85135   8.988   6.055  10.706 -0.6219  1.6484  2.2915
  631MOL0     H85136   8.680   6.200  10.528  2.7413 -1.9684  0.4120
  631MOL0     H85137   8.528   6.440  10.611  0.6875 -0.8976 -2.6819
  631MOL0     H85138   8.620   6.552  10.717  1.9361  2.5233 -1.7913
  631MOL0     H85139   8.647   6.521  10.419 -3.9249 -1.4844  1.5063
  631MOL0     H85140   8.749   6.626  10.519  0.8458 -2.4493 -3.0358
  631MOL0     H85141   8.447   6.603  10.493 -0.9258  0.3641  0.2606
  631MOL0     H85142   8.524   6.737  10.408  0.1689  0.7738  1.4830
  631MOL0     H85143   8.612   6.779  10.642  0.1723 -0.2122 -1.5310
  631MOL0     H85144   8.442   6.732  10.691  2.1455 -2.4003  1.1021
  631MOL0     H85145   8.292   6.747  10.472 -0.3404 -0.2445 -0.9953
  631MOL0     H85146   8.127   6.729  10.285  0.4137 -0.4286  0.8752
  631MOL0     H85147   8.022   6.720  10.424  0.4615 -0.3094  0.4901
  631MOL0     H85148   7.987   6.831  10.284  0.1463 -1.9434  0.9610
  631MOL0     H85149   7.933   7.201  10.033 -0.9821 -1.4306 -1.0394
  631MOL0     H85150   7.739   7.289   9.920 -0.0232 -0.5784  0.0645
  631MOL0     H85151   7.384   7.486  10.156 -3.0919 -0.7529 -3.0475
  631MOL0     H85152   7.535   7.593  10.115  0.3780  0.3040 -2.9502
  631MOL0     H85153   7.334   7.677   9.993 -0.5535 -0.6093 -0.3288
  631MOL0     H85154   7.440   7.598   9.887  0.2370  0.9999  0.7794
  631MOL0     H85155   7.288   7.387   9.912 -2.5420 -0.3216  1.8745
  631MOL0     H85156   7.241   7.528   9.829  2.4512  1.8778 -0.5912
  631MOL0     H85157   7.137   7.422  10.101  3.2971 -1.7334 -0.9169
  631MOL0     H85158   7.142   7.602  10.059  4.0480 -0.7999 -0.3338
  631MOL0     H85159   7.005   7.396   9.877 -0.1581  2.0070 -3.0741
  631MOL0     H85160   7.011   7.564   9.857 -2.7941 -0.5078 -0.8606
  631MOL0     H85161   6.864   7.425  10.085  1.4272 -1.1511 -0.8206
  631MOL0     H85162   6.899   7.595  10.085 -1.9324  1.9716 -2.5149
  631MOL0     H85163   6.756   7.453   9.881  0.5728 -0.2918  1.7677
  631MOL0     H85164   6.769   7.639   9.882 -2.9675  1.1314  0.0025
  631MOL0     H85165   6.655   7.656  10.088  0.8319 -0.5346  0.4829
  631MOL0     H85166   6.633   7.488  10.111 -1.6776  1.4524  0.4637
  631MOL0     H85167   7.565   7.380  10.302  0.4721  1.5121  0.6787
  631MOL0     H85168   7.774   7.295  10.423 -3.0596 -2.7986  1.1346
  631MOL0     H85169   8.162   7.221  10.471 -2.6809 -0.8190  2.2336
  631MOL0     H85170   8.379   7.143  10.577 -0.1287 -0.1983  0.0629
  631MOL0     H85171   9.065   5.599  11.218  1.0096 -2.8065 -1.7238
  631MOL0     H85172   9.264   5.480  11.210 -1.7017 -0.1972 -0.0278
  631MOL0     H85173   9.746   5.495  11.365 -0.4290  1.7155 -1.3949
  631MOL0     H85174   9.942   5.371  11.387  0.6139 -2.5205  0.3853
  631MOL0     H85175  10.107   5.268  11.382 -1.0782  1.5365 -1.2907
  631MOL0     H85176  10.188   5.119  11.341 -0.0565 -0.5660 -1.3715
  631MOL0     H85177  10.232   5.390  11.242 -0.6718 -0.2380  0.7103
  631MOL0     H85178  10.130   5.316  11.117  2.0554 -0.3558 -1.6573
  631MOL0     H85179  10.329   5.236  11.033  0.2312 -0.2956 -0.6890
  631MOL0     H85180  10.314   5.120  11.160 -2.4348  0.2765  1.9245
  631MOL0     H85181  10.530   5.197  11.184 -1.4010  0.5398 -2.1814
  631MOL0     H85182  10.449   5.269  11.325  2.3164  0.0027  0.7131
  631MOL0     H85183  10.564   5.595  11.072  2.6741 -0.7660  0.2728
  631MOL0     H85184   9.831   5.130  11.053 -2.6927 -1.2745  1.4839
  631MOL0     H85185   9.602   5.253  11.053 -1.5819 -2.5949  2.7399
  632MOL0     O85186   8.933   8.940   5.201 -0.1650 -0.5027 -0.0189
  632MOL0     C85187   8.872   9.018   5.271 -0.2579 -0.5194  0.3771
  632MOL0     O85188   8.914   9.058   5.398  0.3018 -0.5082  1.0446
  632MOL0     C85189   8.998   8.990   5.473 -0.1596 -0.2662  0.2160
  632MOL0     C85190   9.112   9.052   5.519  0.0254  0.5990  0.2612
  632MOL0     C85191   9.213   8.977   5.586  0.1171 -0.3379 -0.3419
  632MOL0     C85192   9.198   8.835   5.613 -0.6164 -0.4072  0.5822
  632MOL0     O85193   9.287   8.741   5.670  0.2508 -0.8115  0.0560
  632MOL0     C85194   9.403   8.796   5.730 -1.0539  0.2929  0.4186
  632MOL0     C85195   9.529   8.805   5.644  0.5650 -0.0125 -0.2779
  632MOL0     C85196   9.555   8.666   5.587 -0.0646  0.6854 -0.2762
  632MOL0     C85197   9.679   8.669   5.492  0.0175 -0.1373  0.4009
  632MOL0     C85198   9.724   8.528   5.453 -0.7221  0.2217 -0.7469
  632MOL0     C85199   9.862   8.528   5.387 -0.2774  0.1470  0.9300
  632MOL0     C85200   9.897   8.385   5.322  1.0524  0.4592  0.2474
  632MOL0     C85201  10.039   8.380   5.250  0.8741 -0.6660 -0.6600
  632MOL0     N85202  10.147   8.395   5.344  0.6036 -0.6637  0.0306
  632MOL0     C85203  10.271   8.421   5.289 -0.0852  1.8309  1.0311
  632MOL0     C85204  10.350   8.411   5.397 -0.4371 -0.2979 -0.3011
  632MOL0     C85205  10.499   8.426   5.394 -0.2938 -1.0157 -0.8984
  632MOL0     C85206  10.556   8.508   5.509 -0.7036 -0.2706  0.6266
  632MOL0     C85207  10.683   8.581   5.465 -0.8815  0.2964  0.0115
  632MOL0     C85208  10.715   8.709   5.546  0.4483 -0.2923  0.4449
  632MOL0     O85209  10.848   8.746   5.520 -1.2163  0.4763 -0.6905
  632MOL0     C85210  10.920   8.818   5.613  0.0152 -0.0562 -0.1552
  632MOL0     C85211  10.859   8.905   5.701 -0.3097 -0.1598 -0.8942
  632MOL0     C85212  10.929   8.972   5.800  0.3800 -0.7398  0.0358
  632MOL0     C85213  10.838   9.077   5.875 -0.2852  0.1272  0.4343
  632MOL0     C85214  11.065   8.950   5.814 -0.4227 -0.4576 -0.6889
  632MOL0     C85215  11.151   9.017   5.910  0.9488  0.2548 -0.3221
  632MOL0     O85216  11.282   9.020   5.876 -0.5897  0.6490  0.5000
  632MOL0     C85217  11.384   9.053   5.966  0.0944 -0.1847 -0.1434
  632MOL0     C85218  11.493   8.966   5.965 -0.2752 -0.3721  0.0600
  632MOL0     C85219  11.592   8.984   6.068  0.4308 -0.2109  0.1379
  632MOL0     C85220  11.582   9.096   6.153  0.2576 -0.1428 -0.0456
  632MOL0     O85221  11.680   9.107   6.246  0.2924 -0.7434 -0.0682
  632MOL0     C85222  11.678   9.227   6.325 -0.6889 -0.0012 -0.2527
  632MOL0     C85223  11.631   9.208   6.464 -0.7264  0.2456  0.0901
  632MOL0     C85224  11.490   9.162   6.491 -0.0912 -0.7194 -1.7661
  632MOL0     C85225  11.468   9.115   6.632  0.2816  0.7299  0.0168
  632MOL0     C85226  11.328   9.081   6.669  0.5427 -0.3533 -0.3772
  632MOL0     C85227  11.332   9.002   6.800  0.5577 -0.9982 -0.7749
  632MOL0     C85228  11.191   8.969   6.834 -0.0919  0.0828  1.1080
  632MOL0     C85229  11.181   8.909   6.978 -0.6151  0.2261  0.1265
  632MOL0    Cl85230  11.013   8.864   7.030  0.2487  0.1881  0.6303
  632MOL0     C85231  11.466   9.177   6.153 -0.3799 -0.5075  0.6356
  632MOL0     C85232  11.380   9.166   6.045 -0.2328 -0.3444 -0.4637
  632MOL0     O85233  11.104   9.064   6.011  0.5460  0.4324 -0.7555
  632MOL0     C85234  11.122   8.862   5.728  0.4024 -0.2254 -0.8592
  632MOL0     C85235  11.055   8.807   5.623  0.3918  0.2736 -0.0185
  632MOL0     N85236  10.270   8.397   5.511  0.2335 -0.8338 -0.5233
  632MOL0     N85237  10.143   8.397   5.476 -0.5291  0.3907  0.6053
  632MOL0     C85238   9.080   8.778   5.577  0.4404  0.8316  0.2673
  632MOL0     C85239   8.981   8.854   5.504  0.5427  0.5551  0.5073
  632MOL0     C85240   8.740   9.060   5.224  0.1367 -0.2478 -0.0300
  632MOL0     C85241   8.669   9.159   5.294  0.4927  0.1956 -0.2297
  632MOL0     C85242   8.553   9.212   5.246 -0.1808 -0.0492  0.3695
  632MOL0     C85243   8.505   9.181   5.116  0.3177  0.6450  0.5131
  632MOL0     O85244   8.394   9.246   5.066 -0.0051 -0.1723 -0.1131
  632MOL0     C85245   8.323   9.195   4.959 -0.5204  0.2057  0.7469
  632MOL0     C85246   8.182   9.235   4.957  0.2673 -0.5720  0.5347
  632MOL0     C85247   8.178   9.390   4.986 -0.0207  0.0439  0.0446
  632MOL0     C85248   8.039   9.447   4.949 -0.3687 -0.1239  0.2866
  632MOL0     C85249   7.942   9.422   5.057  0.1797 -0.2297 -0.4694
  632MOL0     C85250   7.859   9.414   5.153  0.1147  0.2520  0.8537
  632MOL0     C85251   8.569   9.074   5.049 -0.4429  0.5231  0.3931
  632MOL0     C85252   8.688   9.026   5.095 -0.0250  0.1151  0.2636
  632MOL0     H85253   9.108   9.158   5.496 -2.4536 -0.0282 -2.9253
  632MOL0     H85254   9.306   9.028   5.608  0.6710 -1.6977  0.5755
  632MOL0     H85255   9.376   8.897   5.763 -2.0720  1.0898 -2.5906
  632MOL0     H85256   9.425   8.743   5.824  1.4336  2.0446  0.9317
  632MOL0     H85257   9.520   8.884   5.569  0.4779 -1.9113 -2.3789
  632MOL0     H85258   9.608   8.826   5.716  0.5777  0.1605 -0.3408
  632MOL0     H85259   9.569   8.597   5.671 -0.1362  1.9205  0.7976
  632MOL0     H85260   9.466   8.624   5.540  0.7211 -0.5972 -0.6407
  632MOL0     H85261   9.659   8.715   5.394  1.4222  1.4769  0.8209
  632MOL0     H85262   9.762   8.724   5.536 -0.0059  0.1391  0.1037
  632MOL0     H85263   9.738   8.462   5.539  1.3254  1.7176  0.1567
  632MOL0     H85264   9.649   8.492   5.382 -0.0030 -0.0860 -1.3760
  632MOL0     H85265   9.869   8.598   5.302 -2.2774 -2.8370 -1.9509
  632MOL0     H85266   9.931   8.555   5.467 -2.5685  1.5938  2.5421
  632MOL0     H85267   9.886   8.297   5.386 -1.8380  0.7801  0.3095
  632MOL0     H85268   9.821   8.369   5.246  3.1617 -0.5808 -1.7930
  632MOL0     H85269  10.045   8.455   5.171  0.3030 -2.8912 -2.9622
  632MOL0     H85270  10.035   8.280   5.204  0.2960 -0.3055 -1.4086
  632MOL0     H85271  10.305   8.420   5.186  2.2790 -1.5770  1.6549
  632MOL0     H85272  10.527   8.321   5.404 -2.7338 -1.5300  2.5276
  632MOL0     H85273  10.526   8.473   5.299 -2.2153  1.7502 -0.2064
  632MOL0     H85274  10.578   8.436   5.589 -0.1441  0.1652  0.8745
  632MOL0     H85275  10.483   8.580   5.548 -0.4548  1.8781 -2.5172
  632MOL0     H85276  10.680   8.616   5.362 -1.9881  0.1685 -0.0079
  632MOL0     H85277  10.767   8.511   5.464  0.5643  1.7744  3.0216
  632MOL0     H85278  10.698   8.692   5.652 -0.8523  0.6095  0.4005
  632MOL0     H85279  10.641   8.779   5.507  1.7830 -0.3386 -2.4832
  632MOL0     H85280  10.752   8.922   5.698 -0.3487 -0.3396 -0.6004
  632MOL0     H85281  10.803   9.050   5.975  1.9017 -1.5144  0.8507
  632MOL0     H85282  10.898   9.169   5.881  0.1236 -0.0628 -0.4458
  632MOL0     H85283  10.748   9.095   5.815  1.1015 -1.8063 -2.4819
  632MOL0     H85284  11.497   8.883   5.895  2.5501 -0.8337  0.6523
  632MOL0     H85285  11.676   8.915   6.078  2.1739  1.1646 -3.3894
  632MOL0     H85286  11.785   9.249   6.326 -0.5890 -0.4888  0.3606
  632MOL0     H85287  11.644   9.321   6.280  0.9190  0.6282 -0.2229
  632MOL0     H85288  11.701   9.144   6.519  0.9918  0.4590 -1.7210
  632MOL0     H85289  11.656   9.305   6.510  0.8431  0.0634 -0.3311
  632MOL0     H85290  11.467   9.076   6.427 -2.1924 -0.6546 -1.2054
  632MOL0     H85291  11.412   9.233   6.461 -0.7759 -0.1838  0.9834
  632MOL0     H85292  11.534   9.031   6.652  0.3277  0.4592 -1.2126
  632MOL0     H85293  11.501   9.201   6.692  0.8485 -0.1129  0.9367
  632MOL0     H85294  11.290   9.018   6.588  1.0854 -2.4942  0.9506
  632MOL0     H85295  11.266   9.171   6.668 -1.6707 -1.7590  1.4543
  632MOL0     H85296  11.386   8.909   6.781 -0.6541 -1.6488 -1.1074
  632MOL0     H85297  11.376   9.071   6.873 -1.4000  0.2401 -0.6700
  632MOL0     H85298  11.154   8.893   6.765  1.1549 -0.4565  1.0150
  632MOL0     H85299  11.130   9.060   6.830  2.5277  1.9324  0.2777
  632MOL0     H85300  11.231   8.974   7.050  0.9882  1.4915 -2.0492
  632MOL0     H85301  11.248   8.822   6.978  0.6854  1.1412  2.1303
  632MOL0     H85302  11.452   9.258   6.224  0.5783  0.6236 -0.4106
  632MOL0     H85303  11.301   9.239   6.043  0.8104  0.9972  1.9085
  632MOL0     H85304  11.226   8.832   5.733  0.5603 -0.0835 -2.6004
  632MOL0     H85305  11.108   8.741   5.555 -3.0611 -0.2533 -2.4381
  632MOL0     H85306   9.061   8.674   5.601  1.4442  0.6582  0.3281
  632MOL0     H85307   8.887   8.813   5.466  0.0025  0.2799  2.0766
  632MOL0     H85308   8.699   9.191   5.393 -2.4337  0.1678  0.7502
  632MOL0     H85309   8.503   9.290   5.303 -1.3044 -1.4639  1.3796
  632MOL0     H85310   8.364   9.238   4.867 -1.8859 -0.4706 -0.2197
  632MOL0     H85311   8.331   9.086   4.959 -1.5532  0.0954 -0.7317
  632MOL0     H85312   8.116   9.182   5.026 -1.9360  0.5264 -0.6218
  632MOL0     H85313   8.142   9.226   4.856 -0.3367  4.0147  0.1635
  632MOL0     H85314   8.251   9.437   4.920  2.0212 -1.9020  0.7636
  632MOL0     H85315   8.205   9.416   5.089  2.3268  0.9443 -0.7516
  632MOL0     H85316   8.000   9.410   4.854 -1.3498  0.6454  0.3802
  632MOL0     H85317   8.048   9.555   4.933 -1.5928  0.3452  2.4234
  632MOL0     H85318   7.791   9.410   5.236  2.3724  2.1545  2.9746
  632MOL0     H85319   8.534   9.031   4.956  1.7183 -1.6274  0.4742
  632MOL0     H85320   8.756   8.969   5.032 -0.6917  0.7177 -1.0444
  633MOL0     O85321   2.423   3.454   4.387  0.2180  0.0546  0.5915
  633MOL0     C85322   2.424   3.409   4.270 -0.0050 -0.0743 -0.0210
  633MOL0     O85323   2.315   3.407   4.182 -0.0478 -0.4071 -0.1458
  633MOL0     C85324   2.185   3.441   4.213 -0.0975  0.6327 -0.3836
  633MOL0     C85325   2.089   3.370   4.148 -0.9253  0.2341  0.3746
  633MOL0     C85326   1.957   3.387   4.167 -0.5538 -0.5382  1.0035
  633MOL0     C85327   1.914   3.484   4.256 -0.4090  0.4159 -0.1103
  633MOL0     O85328   1.782   3.513   4.277  0.7002 -0.6028  0.3225
  633MOL0     C85329   1.730   3.564   4.159  1.0369  0.3265  0.0936
  633MOL0     C85330   1.579   3.591   4.190  0.6166  0.6118  0.9856
  633MOL0     C85331   1.506   3.646   4.065 -0.5458 -0.0510 -0.2225
  633MOL0     C85332   1.353   3.658   4.090  0.5468  0.5205 -0.2690
  633MOL0     C85333   1.277   3.710   3.961 -0.3502 -0.4253 -0.2887
  633MOL0     C85334   1.126   3.726   3.993 -0.0074 -0.4144 -0.6750
  633MOL0     C85335   1.047   3.777   3.867 -0.1998  0.2773  0.5370
  633MOL0     C85336   1.050   3.673   3.752 -0.0894 -0.0685 -0.2124
  633MOL0     N85337   0.973   3.726   3.642  0.2815 -0.1273  0.3220
  633MOL0     C85338   0.894   3.659   3.556  0.8030  0.2841 -1.1073
  633MOL0     C85339   0.838   3.746   3.473  0.0422 -0.5116  0.5975
  633MOL0     C85340   0.744   3.704   3.369 -0.0956  0.8835  0.4003
  633MOL0     C85341   0.620   3.783   3.357  0.4684  0.7596  0.1906
  633MOL0     C85342   0.538   3.828   3.484 -0.2680 -0.0349  0.5083
  633MOL0     C85343   0.445   3.948   3.445  0.9502  0.4643  0.2179
  633MOL0     O85344   0.339   3.893   3.364 -0.6444 -0.6413  0.0784
  633MOL0     C85345   0.221   3.838   3.415  0.0601 -0.3066 -0.2512
  633MOL0     C85346   0.209   3.802   3.554  0.1446  0.1783 -0.7988
  633MOL0     C85347   0.109   3.718   3.610 -0.3913 -0.2844  1.2300
  633MOL0     C85348   0.118   3.683   3.753  0.9415  0.3193  0.0356
  633MOL0     C85349   0.012   3.666   3.516 -0.3774  1.1805 -0.1356
  633MOL0     C85350  -0.084   3.556   3.539  0.3635  1.0916 -0.8411
  633MOL0     O85351  -0.131   3.541   3.671  0.5790  0.4192 -0.3860
  633MOL0     C85352  -0.230   3.440   3.695 -0.7418  0.2243  0.3291
  633MOL0     C85353  -0.349   3.483   3.755 -0.1276 -0.3694  0.5705
  633MOL0     C85354  -0.448   3.391   3.781  0.7994 -0.3016 -0.0022
  633MOL0     C85355  -0.429   3.253   3.752  0.3709 -0.0544 -0.8854
  633MOL0     O85356  -0.525   3.165   3.793 -0.1619  0.4449 -0.2251
  633MOL0     C85357  -0.504   3.080   3.906  0.7622 -0.2111  1.1062
  633MOL0     C85358  -0.531   2.931   3.873 -0.6607 -0.2690 -0.5053
  633MOL0     C85359  -0.666   2.907   3.800 -0.1516  0.5759 -0.1341
  633MOL0     C85360  -0.779   2.911   3.903  0.2316 -0.3679 -0.2995
  633MOL0     C85361  -0.902   2.851   3.837  0.5565  0.8443  0.1032
  633MOL0     C85362  -1.024   2.865   3.925 -0.2182  0.0010  0.1408
  633MOL0     C85363  -1.149   2.836   3.836  0.3051 -0.4019  0.4534
  633MOL0     C85364  -1.289   2.873   3.903  0.0149  0.1498  0.4019
  633MOL0    Cl85365  -1.415   2.874   3.783 -0.0391  0.2622 -0.2261
  633MOL0     C85366  -0.311   3.217   3.679  0.9530 -0.4313  0.5015
  633MOL0     C85367  -0.208   3.311   3.654  0.1210 -0.3211  0.9631
  633MOL0     O85368  -0.125   3.491   3.439 -0.4447 -0.2133  0.1852
  633MOL0     C85369   0.031   3.695   3.378 -0.2845  0.4611  0.6960
  633MOL0     C85370   0.128   3.786   3.332 -0.6055  0.0708  0.8110
  633MOL0     N85371   0.883   3.878   3.509  0.6914  0.2039 -0.3747
  633MOL0     N85372   0.960   3.857   3.609 -0.1064 -0.2074 -0.1024
  633MOL0     C85373   2.011   3.553   4.331 -0.1008 -0.2587 -0.5336
  633MOL0     C85374   2.148   3.536   4.310 -0.4500 -0.8350  0.7759
  633MOL0     C85375   2.553   3.357   4.217 -0.5038 -0.3236 -0.5119
  633MOL0     C85376   2.572   3.337   4.078  0.2769  0.0942 -0.9016
  633MOL0     C85377   2.701   3.295   4.034 -0.1749 -0.0043 -0.3041
  633MOL0     C85378   2.807   3.288   4.128  0.1840 -0.0478  0.3143
  633MOL0     O85379   2.925   3.247   4.073  0.5783  0.4475 -0.5509
  633MOL0     C85380   3.013   3.190   4.175  0.0151 -0.3665  0.1258
  633MOL0     C85381   3.105   3.088   4.101  0.6520  0.0133  0.1981
  633MOL0     C85382   3.032   2.999   3.996  0.2940 -0.7753  0.4879
  633MOL0     C85383   2.974   2.876   4.054  0.7377 -0.8108  0.1672
  633MOL0     C85384   3.072   2.787   4.112  0.3118  0.3009  0.3440
  633MOL0     C85385   3.143   2.704   4.165 -0.4565 -0.5807  0.3894
  633MOL0     C85386   2.789   3.311   4.267  0.6229  0.4201  0.5199
  633MOL0     C85387   2.661   3.341   4.308  0.6868  0.7381 -0.9257
  633MOL0     H85388   2.117   3.293   4.077 -0.7384  2.9559 -2.7480
  633MOL0     H85389   1.888   3.327   4.108 -2.0013 -0.0588  2.1355
  633MOL0     H85390   1.785   3.655   4.134  2.3147 -0.8258 -1.5410
  633MOL0     H85391   1.734   3.501   4.069  0.7891  1.4631 -0.7396
  633MOL0     H85392   1.541   3.490   4.207  0.2021  0.7746  1.0333
  633MOL0     H85393   1.570   3.659   4.275 -0.8456  2.3418 -0.4618
  633MOL0     H85394   1.545   3.744   4.035 -1.1232 -0.5965 -3.0676
  633MOL0     H85395   1.520   3.582   3.977  2.8838  1.1326 -0.6983
  633MOL0     H85396   1.311   3.559   4.113 -1.4888  1.7418  1.6900
  633MOL0     H85397   1.335   3.721   4.178  4.2146  3.4041 -1.3610
  633MOL0     H85398   1.324   3.801   3.923 -0.2765  0.3483  1.5183
  633MOL0     H85399   1.289   3.632   3.886 -0.3344 -2.3266  1.5882
  633MOL0     H85400   1.094   3.626   4.021 -0.9883 -0.6049 -2.3236
  633MOL0     H85401   1.106   3.800   4.070 -1.0520 -0.6229 -0.7292
  633MOL0     H85402   0.943   3.805   3.885 -0.3787 -1.0036  1.7003
  633MOL0     H85403   1.097   3.870   3.839  1.1812  0.2283  2.6209
  633MOL0     H85404   1.025   3.570   3.780 -0.7529  0.2170  0.2744
  633MOL0     H85405   1.154   3.661   3.722  0.7599  1.3942  1.9912
  633MOL0     H85406   0.889   3.550   3.550 -0.4437  0.3952 -3.4615
  633MOL0     H85407   0.792   3.699   3.271  4.2954  0.4172  2.3818
  633MOL0     H85408   0.713   3.606   3.406 -2.8571  2.1038  1.6336
  633MOL0     H85409   0.553   3.716   3.303  2.0862  1.5019 -2.9961
  633MOL0     H85410   0.649   3.873   3.303  1.1842  1.0199  0.9727
  633MOL0     H85411   0.608   3.861   3.562  1.6609 -5.3142  1.4567
  633MOL0     H85412   0.478   3.749   3.530 -0.4345  0.8218  1.7970
  633MOL0     H85413   0.510   4.009   3.381  1.0249  0.5250  0.3513
  633MOL0     H85414   0.401   3.996   3.533 -1.2616 -1.3887  0.1910
  633MOL0     H85415   0.277   3.851   3.623 -1.6723  2.1120 -0.2790
  633MOL0     H85416   0.030   3.728   3.801 -0.3287  0.1113 -1.9868
  633MOL0     H85417   0.102   3.575   3.754 -2.3656  0.6619 -1.5154
  633MOL0     H85418   0.209   3.711   3.807 -0.7698  1.5418  2.5200
  633MOL0     H85419  -0.351   3.590   3.767 -1.1538 -0.3780  0.5609
  633MOL0     H85420  -0.542   3.423   3.825  1.9359  1.1145  1.5140
  633MOL0     H85421  -0.411   3.089   3.962  1.6750 -2.0666  0.0004
  633MOL0     H85422  -0.576   3.123   3.976 -1.9808  2.3154 -2.8469
  633MOL0     H85423  -0.450   2.901   3.805 -0.2547  1.3947 -0.8076
  633MOL0     H85424  -0.514   2.870   3.962 -2.3543 -0.6551 -0.4311
  633MOL0     H85425  -0.671   2.808   3.754 -0.9321  0.4658  0.1618
  633MOL0     H85426  -0.695   2.982   3.725 -2.7659  0.4749  0.6858
  633MOL0     H85427  -0.741   2.849   3.984 -0.2510 -0.6273 -0.2672
  633MOL0     H85428  -0.806   3.011   3.939 -3.1231 -1.7339  1.4346
  633MOL0     H85429  -0.877   2.746   3.818 -0.2400  0.8766 -1.2982
  633MOL0     H85430  -0.915   2.898   3.739  0.3162 -1.0669 -0.8262
  633MOL0     H85431  -1.034   2.795   4.008  1.8221  2.1987  2.3995
  633MOL0     H85432  -1.019   2.966   3.967  1.4709 -0.9602  2.4156
  633MOL0     H85433  -1.152   2.732   3.800 -3.9308  0.0615 -1.0440
  633MOL0     H85434  -1.142   2.896   3.745 -3.2691  0.3086  0.5227
  633MOL0     H85435  -1.279   2.968   3.955 -1.4124 -0.6280  2.2268
  633MOL0     H85436  -1.314   2.791   3.971  0.6917 -1.5641 -1.2984
  633MOL0     H85437  -0.301   3.111   3.658 -0.6746 -0.4728 -0.2817
  633MOL0     H85438  -0.120   3.272   3.603 -0.4902 -2.1483  1.2372
  633MOL0     H85439  -0.037   3.664   3.299 -0.3223  1.3452  0.3631
  633MOL0     H85440   0.125   3.814   3.227 -2.3081  0.5000  0.9461
  633MOL0     H85441   1.994   3.625   4.410 -0.2463  1.1291 -1.7809
  633MOL0     H85442   2.218   3.600   4.363  0.8871 -1.3558 -0.3034
  633MOL0     H85443   2.487   3.345   4.012  0.4383 -1.9266 -1.4050
  633MOL0     H85444   2.723   3.267   3.931  2.1893 -1.4327  0.4975
  633MOL0     H85445   3.084   3.267   4.206 -0.2079  1.0764 -2.6276
  633MOL0     H85446   2.974   3.135   4.261  1.3626 -1.1732  0.2565
  633MOL0     H85447   3.151   3.025   4.177 -1.3716 -1.8917 -0.0447
  633MOL0     H85448   3.188   3.141   4.054  3.4350 -4.1314 -0.0260
  633MOL0     H85449   3.113   2.976   3.927  1.0315 -0.4374  1.2189
  633MOL0     H85450   2.954   3.057   3.945  0.4879 -1.9179 -1.1629
  633MOL0     H85451   2.917   2.816   3.982 -2.4453 -0.4291  2.1415
  633MOL0     H85452   2.896   2.909   4.123  0.2385 -0.2917 -0.6202
  633MOL0     H85453   3.211   2.628   4.199 -2.5796 -1.7148  2.4525
  633MOL0     H85454   2.867   3.316   4.342 -0.7675  4.6004  1.9657
  633MOL0     H85455   2.658   3.368   4.413  0.1892 -0.0722 -0.7181
  634MOL0     O85456   3.709   0.843   0.877  0.8199 -0.2174 -0.2860
  634MOL0     C85457   3.722   0.966   0.838 -0.3053 -0.1430 -0.1156
  634MOL0     O85458   3.625   1.052   0.811 -1.0538  0.0327 -0.1852
  634MOL0     C85459   3.497   1.028   0.845  0.3298  0.0728 -0.4596
  634MOL0     C85460   3.417   0.907   0.838 -1.2374 -0.5772  0.0405
  634MOL0     C85461   3.284   0.900   0.884 -0.4885 -0.1797 -0.4536
  634MOL0     C85462   3.214   1.011   0.935 -0.1708 -0.8140  0.2771
  634MOL0     O85463   3.088   1.017   0.985  0.0672 -0.1241 -0.2015
  634MOL0     C85464   2.997   0.904   0.977 -0.6237 -0.3374 -0.2961
  634MOL0     C85465   2.860   0.946   0.921  0.2761 -0.3458  0.0277
  634MOL0     C85466   2.748   0.842   0.952 -0.1878 -0.1704  0.1081
  634MOL0     C85467   2.612   0.899   0.889  0.2095  0.0619 -0.0246
  634MOL0     C85468   2.501   0.793   0.900  0.0354 -0.7379 -0.2986
  634MOL0     C85469   2.464   0.744   1.044  0.4576 -0.4420 -0.2871
  634MOL0     C85470   2.346   0.656   1.060  0.6902 -0.2448  0.6084
  634MOL0     C85471   2.210   0.728   1.035 -0.1288 -0.2526  0.8086
  634MOL0     N85472   2.099   0.639   1.073  0.2517 -0.5276  0.0976
  634MOL0     C85473   2.049   0.635   1.200 -0.1176  0.2068 -0.2688
  634MOL0     C85474   1.930   0.577   1.183 -0.1761 -0.0080 -0.1981
  634MOL0     C85475   1.822   0.538   1.277 -0.2647  0.0246 -0.7969
  634MOL0     C85476   1.785   0.654   1.384 -0.4475 -0.0143 -0.5102
  634MOL0     C85477   1.632   0.687   1.393  0.6864  0.0557  0.3377
  634MOL0     C85478   1.572   0.777   1.283 -0.9322 -0.3496 -0.4004
  634MOL0     O85479   1.458   0.859   1.316  0.8245  0.2922 -0.1890
  634MOL0     C85480   1.332   0.801   1.315  0.4125 -0.8955 -0.5031
  634MOL0     C85481   1.288   0.664   1.326 -1.0291  0.9301 -0.0201
  634MOL0     C85482   1.151   0.624   1.322  0.2326 -0.4952  0.4189
  634MOL0     C85483   1.114   0.480   1.334  0.8353  0.4961 -0.4566
  634MOL0     C85484   1.053   0.727   1.305  1.2695  0.2721  0.1915
  634MOL0     C85485   0.910   0.707   1.274 -0.1138  0.7737 -0.0625
  634MOL0     O85486   0.833   0.796   1.205 -0.1250  0.0463 -0.6958
  634MOL0     C85487   0.728   0.746   1.125 -0.2807  0.2904 -0.2166
  634MOL0     C85488   0.606   0.749   1.190 -0.0626 -0.0495 -0.2423
  634MOL0     C85489   0.489   0.727   1.106 -0.2783 -0.4386 -0.2106
  634MOL0     C85490   0.502   0.710   0.969  0.8024 -0.2285  0.4151
  634MOL0     O85491   0.394   0.688   0.893 -0.0388  0.4609 -0.1815
  634MOL0     C85492   0.386   0.549   0.850  0.1299  0.5322  0.5148
  634MOL0     C85493   0.319   0.536   0.716 -0.6216 -0.3422  0.8368
  634MOL0     C85494   0.197   0.624   0.688  0.2993  0.0982 -0.8396
  634MOL0     C85495   0.159   0.592   0.541 -0.2716 -0.8344  0.2177
  634MOL0     C85496   0.061   0.701   0.489  0.1862  0.1997 -0.4316
  634MOL0     C85497  -0.078   0.690   0.564  0.1897  0.6243  0.5598
  634MOL0     C85498  -0.183   0.767   0.499  0.0577 -1.0839 -0.4516
  634MOL0     C85499  -0.312   0.730   0.557 -0.0412 -0.3192 -0.1988
  634MOL0    Cl85500  -0.450   0.834   0.487 -0.1542 -0.2381  0.0546
  634MOL0     C85501   0.628   0.710   0.909  0.2110 -0.2123 -0.4447
  634MOL0     C85502   0.744   0.729   0.985 -0.5579 -0.7327 -0.1562
  634MOL0     O85503   0.864   0.598   1.315 -0.0198  0.3440  0.2661
  634MOL0     C85504   1.099   0.856   1.309  0.7845  0.1322 -0.3186
  634MOL0     C85505   1.229   0.894   1.322  0.1466  0.3922  0.5451
  634MOL0     N85506   1.922   0.533   1.047  0.5133 -0.1517  0.3128
  634MOL0     N85507   2.029   0.565   0.988 -0.2930  0.1248 -0.2741
  634MOL0     C85508   3.283   1.136   0.928  0.2036 -0.0906  0.1360
  634MOL0     C85509   3.421   1.148   0.885 -0.5933  0.4497  0.2655
  634MOL0     C85510   3.866   1.009   0.822 -0.5813 -0.3260 -0.8001
  634MOL0     C85511   3.905   1.146   0.821  0.0136  0.3231 -0.3251
  634MOL0     C85512   4.037   1.193   0.837  1.4390  0.0173  0.5089
  634MOL0     C85513   4.140   1.097   0.835 -0.5886  0.7893  0.3646
  634MOL0     O85514   4.272   1.125   0.821 -0.1604  0.0138  0.6035
  634MOL0     C85515   4.308   1.249   0.770 -0.1400  0.4026  0.6461
  634MOL0     C85516   4.377   1.326   0.887  0.0842  0.6660  0.2834
  634MOL0     C85517   4.504   1.241   0.920 -0.3617  0.1554 -1.1807
  634MOL0     C85518   4.594   1.321   1.026  0.5595  0.1219  0.5361
  634MOL0     C85519   4.721   1.250   1.051 -0.0990 -0.2450 -1.2533
  634MOL0     C85520   4.816   1.174   1.074 -0.1891  0.1690 -0.8562
  634MOL0     C85521   4.107   0.963   0.833  0.0624  0.0269 -0.9216
  634MOL0     C85522   3.976   0.914   0.837  0.3741  0.0113 -0.1463
  634MOL0     H85523   3.471   0.823   0.796 -0.3773 -0.6729  1.2833
  634MOL0     H85524   3.229   0.809   0.864  0.7067 -1.4071  1.4738
  634MOL0     H85525   3.031   0.825   0.909  2.2686  1.1468 -0.6944
  634MOL0     H85526   2.987   0.865   1.079  0.8170  2.4422  1.0171
  634MOL0     H85527   2.819   1.038   0.964  0.6216 -0.6917  1.1379
  634MOL0     H85528   2.863   0.948   0.812  0.3476  0.0898  0.0383
  634MOL0     H85529   2.769   0.743   0.914  0.8192 -0.6112  1.7044
  634MOL0     H85530   2.746   0.841   1.062 -1.1924  0.0245  0.1077
  634MOL0     H85531   2.578   0.984   0.948 -0.1005  1.6946 -2.4033
  634MOL0     H85532   2.628   0.929   0.785  4.3443 -0.4356  0.2728
  634MOL0     H85533   2.411   0.835   0.852 -0.5237 -2.1076 -0.4998
  634MOL0     H85534   2.538   0.706   0.846  3.0026  1.5081 -2.1795
  634MOL0     H85535   2.548   0.693   1.092  1.6234 -0.8138 -2.5861
  634MOL0     H85536   2.443   0.834   1.103 -1.1918 -1.3805  0.6299
  634MOL0     H85537   2.347   0.572   0.989 -1.3689 -0.3705  0.6601
  634MOL0     H85538   2.336   0.614   1.160 -0.3236  0.5012  0.8353
  634MOL0     H85539   2.209   0.764   0.931  1.1700  3.0491  1.8086
  634MOL0     H85540   2.204   0.816   1.100 -0.1284  0.7683 -0.5200
  634MOL0     H85541   2.085   0.668   1.297 -1.5762 -0.5026  0.5580
  634MOL0     H85542   1.726   0.521   1.227 -1.5147  0.4707  1.3264
  634MOL0     H85543   1.851   0.446   1.329  1.4066  2.5104  3.1667
  634MOL0     H85544   1.848   0.743   1.370 -0.6577  0.4266  1.1343
  634MOL0     H85545   1.812   0.608   1.480  0.4121  1.6061  0.0754
  634MOL0     H85546   1.616   0.739   1.488  1.4521  0.1509  0.4163
  634MOL0     H85547   1.576   0.595   1.411  1.6197 -0.3809  1.0467
  634MOL0     H85548   1.554   0.712   1.197  0.7363 -0.0117 -1.0453
  634MOL0     H85549   1.653   0.844   1.252  0.6874 -1.9176  0.3233
  634MOL0     H85550   1.367   0.589   1.326 -0.8630  1.1004  0.7916
  634MOL0     H85551   1.073   0.458   1.433  2.0274 -0.3254 -0.1192
  634MOL0     H85552   1.040   0.456   1.257  0.9026  0.3377 -0.4731
  634MOL0     H85553   1.202   0.416   1.319  0.4356 -0.3730  0.7343
  634MOL0     H85554   0.601   0.775   1.295  0.3349 -0.1640 -0.1943
  634MOL0     H85555   0.384   0.721   1.133 -0.2995 -2.1055 -0.5776
  634MOL0     H85556   0.474   0.486   0.837 -1.4079 -1.1554 -2.9429
  634MOL0     H85557   0.321   0.502   0.924 -1.2151 -0.9490 -1.4740
  634MOL0     H85558   0.391   0.555   0.636  0.1655 -0.2808  1.5432
  634MOL0     H85559   0.295   0.429   0.706  0.0985 -0.4439  0.1064
  634MOL0     H85560   0.228   0.729   0.685 -2.3592  0.9553 -0.8294
  634MOL0     H85561   0.114   0.616   0.759  2.0107 -1.2887  1.1232
  634MOL0     H85562   0.249   0.602   0.480 -1.2996 -0.8672 -1.3727
  634MOL0     H85563   0.115   0.492   0.529  0.3317 -1.2427  1.1963
  634MOL0     H85564   0.057   0.695   0.380 -2.3329  1.8732 -0.5155
  634MOL0     H85565   0.099   0.800   0.516  2.2125 -1.1932  2.3236
  634MOL0     H85566  -0.105   0.584   0.566  4.6965 -0.7522  1.3509
  634MOL0     H85567  -0.064   0.720   0.669  1.2937  0.8225  0.3680
  634MOL0     H85568  -0.189   0.773   0.390  1.3528  2.0427 -0.4684
  634MOL0     H85569  -0.161   0.870   0.530 -1.7526 -0.5573 -0.7930
  634MOL0     H85570  -0.321   0.747   0.664 -1.3502  0.4669 -0.4069
  634MOL0     H85571  -0.330   0.624   0.535  2.2159 -0.9546  0.7726
  634MOL0     H85572   0.611   0.704   0.802 -3.0167  1.9211 -0.2012
  634MOL0     H85573   0.839   0.744   0.935  0.2438 -1.8885  0.9503
  634MOL0     H85574   1.032   0.941   1.295 -0.0851 -0.0613  2.2087
  634MOL0     H85575   1.258   0.998   1.334 -1.2449  0.8532  0.0500
  634MOL0     H85576   3.243   1.230   0.965  3.3413  1.7863 -0.8410
  634MOL0     H85577   3.473   1.243   0.888 -0.5166  0.4274 -0.3148
  634MOL0     H85578   3.831   1.225   0.821  0.1449  0.4498 -0.9202
  634MOL0     H85579   4.053   1.300   0.845  2.6708 -0.1669  0.5695
  634MOL0     H85580   4.380   1.222   0.691  0.1949 -1.1683  1.4607
  634MOL0     H85581   4.223   1.296   0.719  0.6277  0.4717 -0.6191
  634MOL0     H85582   4.313   1.318   0.975 -1.3254 -2.1948 -0.8802
  634MOL0     H85583   4.389   1.432   0.860 -2.1770  0.5968 -1.1688
  634MOL0     H85584   4.563   1.221   0.830  0.0156 -2.2860 -0.4590
  634MOL0     H85585   4.486   1.150   0.977 -1.2529  0.7689 -0.4330
  634MOL0     H85586   4.540   1.334   1.120  0.3645  0.3815  0.3875
  634MOL0     H85587   4.612   1.424   0.994  0.2951  0.5871  1.8060
  634MOL0     H85588   4.900   1.119   1.112  0.2383  0.0464 -1.9371
  634MOL0     H85589   4.189   0.893   0.833  0.0640  0.0294 -1.0304
  634MOL0     H85590   3.965   0.807   0.853 -1.8353  0.3633  1.1574
  635MOL0     O85591   5.142   8.301   6.583 -0.4699 -0.2532  0.5592
  635MOL0     C85592   5.228   8.376   6.530 -0.1582 -0.4304  0.0362
  635MOL0     O85593   5.352   8.345   6.494 -1.3624 -0.1799 -0.0216
  635MOL0     C85594   5.385   8.212   6.505 -0.6522  0.1751  0.6367
  635MOL0     C85595   5.413   8.127   6.390 -0.7032  0.4315 -0.1090
  635MOL0     C85596   5.457   7.998   6.417 -0.2868  0.0163 -0.3968
  635MOL0     C85597   5.461   7.945   6.551  0.1320 -0.6792  0.2048
  635MOL0     O85598   5.495   7.819   6.563  0.4407 -0.2497  0.2082
  635MOL0     C85599   5.608   7.788   6.648  0.3308 -0.8216  0.1852
  635MOL0     C85600   5.650   7.645   6.626 -0.1632  0.7756  0.3286
  635MOL0     C85601   5.690   7.613   6.482  0.0333 -0.5552  1.1528
  635MOL0     C85602   5.791   7.498   6.478  0.5898  0.2920 -1.1137
  635MOL0     C85603   5.851   7.469   6.344  0.3641  0.2280  0.0170
  635MOL0     C85604   5.943   7.341   6.354 -0.0357  0.0471  0.2415
  635MOL0     C85605   5.994   7.326   6.210 -0.4213 -0.2181 -0.9522
  635MOL0     C85606   6.094   7.212   6.200  0.9058 -0.9789 -0.2673
  635MOL0     N85607   6.021   7.087   6.208  0.5848 -0.3097  0.5325
  635MOL0     C85608   5.910   7.039   6.141 -0.2320  0.0488  0.5927
  635MOL0     C85609   5.863   6.937   6.215  0.2773  1.1764  0.2070
  635MOL0     C85610   5.740   6.848   6.194 -0.2229  0.1373  0.4903
  635MOL0     C85611   5.691   6.812   6.332  0.1044 -0.6043 -0.5386
  635MOL0     C85612   5.557   6.726   6.330 -0.3260 -0.0018  0.0797
  635MOL0     C85613   5.440   6.776   6.232 -0.7111 -0.2156 -0.6646
  635MOL0     O85614   5.462   6.733   6.095  0.5398 -0.1248  1.0026
  635MOL0     C85615   5.418   6.608   6.064  0.2192 -0.0825  0.1152
  635MOL0     C85616   5.520   6.514   6.045 -0.3051 -0.0284  0.1412
  635MOL0     C85617   5.486   6.382   6.020  0.8496  0.1765 -1.0233
  635MOL0     C85618   5.601   6.285   6.022  0.0946 -0.5494 -0.4297
  635MOL0     C85619   5.355   6.340   6.011 -0.3449  0.0629  0.6950
  635MOL0     C85620   5.303   6.193   5.984 -0.5204  1.1044  0.2795
  635MOL0     O85621   5.166   6.179   5.971 -0.3729  0.4320  0.4411
  635MOL0     C85622   5.112   6.054   5.986  0.1886 -0.7546 -0.1198
  635MOL0     C85623   4.996   6.036   5.915  0.2829  0.8720  0.6081
  635MOL0     C85624   4.931   5.910   5.905 -0.3430 -1.2659  0.0327
  635MOL0     C85625   4.975   5.805   5.981 -0.2001  0.1988 -0.3889
  635MOL0     O85626   4.945   5.676   5.954  0.0054 -0.1487  0.1586
  635MOL0     C85627   4.815   5.648   5.901  1.0039 -0.7355 -0.7142
  635MOL0     C85628   4.700   5.708   5.987  0.1514  0.9493 -0.4829
  635MOL0     C85629   4.680   5.639   6.131 -0.0159 -0.3047 -0.0497
  635MOL0     C85630   4.638   5.488   6.135 -0.4569  0.2324 -0.5288
  635MOL0     C85631   4.511   5.454   6.052  1.1854  0.0378  0.0277
  635MOL0     C85632   4.386   5.511   6.120  0.3748  0.0783  1.0092
  635MOL0     C85633   4.252   5.448   6.071 -0.4766 -0.1375 -0.0051
  635MOL0     C85634   4.158   5.446   6.189  0.0898 -0.0418  0.0041
  635MOL0    Cl85635   3.997   5.361   6.148  0.2435  0.3864 -0.0738
  635MOL0     C85636   5.087   5.827   6.062 -0.4517 -0.4644 -0.1099
  635MOL0     C85637   5.156   5.952   6.063 -0.3055  0.5205  0.2644
  635MOL0     O85638   5.381   6.098   5.991  0.2278  0.8231 -0.5218
  635MOL0     C85639   5.253   6.440   6.018  0.5413  0.5280  0.1116
  635MOL0     C85640   5.282   6.575   6.043  0.3002 -1.0914  0.5726
  635MOL0     N85641   5.957   6.915   6.319 -0.3506  0.1878  0.4693
  635MOL0     N85642   6.048   7.003   6.310  0.1743 -0.8717 -0.2459
  635MOL0     C85643   5.447   8.033   6.655 -0.0985 -0.0218 -0.1287
  635MOL0     C85644   5.408   8.161   6.638  0.5850 -0.9319  0.1980
  635MOL0     C85645   5.177   8.504   6.476 -0.0154  0.7118  0.0929
  635MOL0     C85646   5.060   8.561   6.525  0.8117  0.4875 -0.7753
  635MOL0     C85647   5.010   8.682   6.481  0.3934 -0.7346  0.4725
  635MOL0     C85648   5.068   8.746   6.370  0.3070 -0.4324  0.9879
  635MOL0     O85649   5.020   8.860   6.303  0.2073  0.9018  0.0856
  635MOL0     C85650   4.895   8.914   6.350  0.5125 -0.2295 -0.6150
  635MOL0     C85651   4.764   8.837   6.301 -0.5683  0.4585 -0.2166
  635MOL0     C85652   4.767   8.795   6.147  0.9811  0.7132 -0.1367
  635MOL0     C85653   4.621   8.781   6.101 -0.3048  0.1323  0.5632
  635MOL0     C85654   4.595   8.897   6.015 -0.2330 -0.9847 -0.8759
  635MOL0     C85655   4.597   8.986   5.937  0.5030  0.5689 -0.1650
  635MOL0     C85656   5.174   8.692   6.310 -0.8975  0.3483 -0.3400
  635MOL0     C85657   5.240   8.579   6.373  0.5670  0.5975 -0.9747
  635MOL0     H85658   5.414   8.167   6.289 -0.6629  0.6605 -0.0205
  635MOL0     H85659   5.487   7.944   6.328 -0.3876  2.5010 -2.0306
  635MOL0     H85660   5.691   7.853   6.623 -0.2795  1.0423  2.6504
  635MOL0     H85661   5.595   7.797   6.757  2.1000  3.1675  0.2079
  635MOL0     H85662   5.732   7.635   6.697  0.2582  0.9265 -0.1345
  635MOL0     H85663   5.574   7.568   6.641 -0.2404  0.1075 -2.8635
  635MOL0     H85664   5.603   7.602   6.416 -0.8057 -0.3180  2.2001
  635MOL0     H85665   5.761   7.691   6.452 -0.6313  0.3935  1.9994
  635MOL0     H85666   5.883   7.529   6.530 -2.5527  1.2723  4.7343
  635MOL0     H85667   5.758   7.419   6.545  0.1757  0.7433 -0.7728
  635MOL0     H85668   5.765   7.459   6.276 -0.4759  0.7295  0.9695
  635MOL0     H85669   5.903   7.556   6.305  2.7775 -0.6156  1.1570
  635MOL0     H85670   6.026   7.366   6.421  0.7849 -0.4965 -0.5454
  635MOL0     H85671   5.890   7.254   6.392 -1.6246  0.3613 -1.1213
  635MOL0     H85672   5.911   7.298   6.144 -0.9575 -0.4162 -0.2064
  635MOL0     H85673   6.042   7.421   6.187 -0.7311 -0.0822 -1.0532
  635MOL0     H85674   6.160   7.214   6.287  0.2387  1.2855  0.2441
  635MOL0     H85675   6.158   7.216   6.112 -0.9540  2.2948 -1.6112
  635MOL0     H85676   5.854   7.069   6.053  0.6567 -3.8206 -1.5230
  635MOL0     H85677   5.659   6.906   6.148 -2.3076 -1.1697  2.2833
  635MOL0     H85678   5.764   6.762   6.132 -2.4119  0.6037 -1.1364
  635MOL0     H85679   5.664   6.898   6.394 -0.2323 -0.8745 -0.3122
  635MOL0     H85680   5.776   6.769   6.385 -0.0024  0.8767  0.8982
  635MOL0     H85681   5.506   6.726   6.426  1.6627 -0.5804  1.1871
  635MOL0     H85682   5.579   6.621   6.309 -1.1458  0.1233 -1.6171
  635MOL0     H85683   5.446   6.885   6.222 -1.3799 -0.1413 -0.3027
  635MOL0     H85684   5.340   6.744   6.264 -0.5941 -1.7113 -1.6806
  635MOL0     H85685   5.619   6.548   6.074 -0.8101  0.5043  1.3255
  635MOL0     H85686   5.582   6.218   6.107  4.2919 -1.1348  0.2417
  635MOL0     H85687   5.595   6.228   5.929  1.1503 -0.3833 -0.6062
  635MOL0     H85688   5.700   6.331   6.025 -0.1671  0.0289  2.5404
  635MOL0     H85689   4.958   6.117   5.854 -0.2267  0.0436 -0.2008
  635MOL0     H85690   4.847   5.897   5.837 -0.4581 -4.0029  0.6106
  635MOL0     H85691   4.810   5.672   5.795  2.5365  0.5046 -0.5574
  635MOL0     H85692   4.795   5.541   5.895  0.4777 -0.7863  1.1392
  635MOL0     H85693   4.719   5.813   6.015  1.0232  0.6378  0.1408
  635MOL0     H85694   4.607   5.706   5.930  0.4898  1.9182 -1.0947
  635MOL0     H85695   4.598   5.691   6.181  0.7248  0.1561  0.6935
  635MOL0     H85696   4.770   5.648   6.192  1.1850 -1.4592 -1.5729
  635MOL0     H85697   4.721   5.431   6.092 -0.9057  0.3510 -1.6116
  635MOL0     H85698   4.628   5.441   6.233 -0.6802 -0.1857 -0.7478
  635MOL0     H85699   4.499   5.346   6.038 -0.4190 -0.1842  2.4663
  635MOL0     H85700   4.508   5.497   5.952 -0.9232  0.0863  0.0634
  635MOL0     H85701   4.397   5.500   6.228 -1.4567  2.3105  1.5064
  635MOL0     H85702   4.378   5.616   6.092 -2.1923 -0.5109 -0.7573
  635MOL0     H85703   4.277   5.349   6.032 -1.6698  0.4769 -2.5639
  635MOL0     H85704   4.211   5.507   5.989  2.0041  2.0980  0.2296
  635MOL0     H85705   4.133   5.546   6.226 -1.0226 -0.0239 -0.7320
  635MOL0     H85706   4.200   5.388   6.272  0.3248  0.7184  0.4232
  635MOL0     H85707   5.138   5.747   6.114  0.7441 -1.5114 -2.7281
  635MOL0     H85708   5.230   5.956   6.143  1.6580  2.2573 -1.5164
  635MOL0     H85709   5.148   6.415   6.006 -0.2694  3.6771 -0.2287
  635MOL0     H85710   5.207   6.653   6.058 -0.5146 -1.8329  0.4431
  635MOL0     H85711   5.445   7.979   6.749  0.7637 -2.0619 -1.2244
  635MOL0     H85712   5.392   8.224   6.725  0.1337 -0.4894 -0.1921
  635MOL0     H85713   4.999   8.520   6.604 -0.7891  1.0328 -1.6837
  635MOL0     H85714   4.920   8.716   6.530 -1.4822 -6.2686  1.6126
  635MOL0     H85715   4.898   8.920   6.460 -0.4421  0.7021 -0.6259
  635MOL0     H85716   4.885   9.021   6.327  2.9858 -0.2302 -2.1243
  635MOL0     H85717   4.674   8.897   6.316  0.1861  0.8310  4.3199
  635MOL0     H85718   4.746   8.756   6.371 -1.0582  2.4709  2.1279
  635MOL0     H85719   4.813   8.696   6.146 -0.5498 -0.0281 -0.3701
  635MOL0     H85720   4.825   8.864   6.085  0.6982  1.9546  0.9170
  635MOL0     H85721   4.540   8.788   6.174 -1.6199 -1.7214 -0.6130
  635MOL0     H85722   4.599   8.689   6.045 -1.6799  2.1111 -2.3685
  635MOL0     H85723   4.608   9.067   5.868  0.6478 -0.0768 -0.9168
  635MOL0     H85724   5.212   8.736   6.217  1.1208 -0.5022  0.0406
  635MOL0     H85725   5.328   8.539   6.324  1.0782  0.4806  0.0194
  636MOL0     O85726   7.120   2.589   6.897 -0.3346 -0.3335  0.6767
  636MOL0     C85727   7.182   2.679   6.957  0.0616  0.7448 -0.6947
  636MOL0     O85728   7.155   2.812   6.957 -0.5753  0.0837  0.0082
  636MOL0     C85729   7.031   2.855   6.923 -0.4567  0.1454 -0.5117
  636MOL0     C85730   7.016   2.976   6.851  0.3283 -0.6382 -0.1222
  636MOL0     C85731   6.886   3.031   6.823 -1.0363 -1.0634 -0.1409
  636MOL0     C85732   6.772   2.961   6.857 -0.1349  0.2846  0.2678
  636MOL0     O85733   6.662   3.035   6.817 -0.6021  0.1632 -0.2709
  636MOL0     C85734   6.542   2.953   6.801 -0.1160  0.8312  0.3683
  636MOL0     C85735   6.447   3.044   6.730  0.4375 -0.3747  0.1563
  636MOL0     C85736   6.298   3.004   6.736  0.5105  0.1115  0.6320
  636MOL0     C85737   6.209   3.105   6.660  0.2043  0.0369  0.3985
  636MOL0     C85738   6.060   3.096   6.680  0.6589  0.7430  0.8627
  636MOL0     C85739   6.001   3.206   6.581 -0.1566  1.1885  0.2254
  636MOL0     C85740   5.843   3.208   6.598 -1.0327  0.1171  0.2921
  636MOL0     C85741   5.797   3.329   6.664  0.1301 -0.4420 -0.4640
  636MOL0     N85742   5.657   3.363   6.656 -0.0717  0.4691  0.5583
  636MOL0     C85743   5.600   3.438   6.557  0.1541  0.0098  0.4218
  636MOL0     C85744   5.472   3.410   6.581 -0.5601 -0.4272  0.2246
  636MOL0     C85745   5.359   3.474   6.495 -1.0466 -0.2878 -0.0357
  636MOL0     C85746   5.216   3.465   6.549  0.5474  0.9146 -0.2384
  636MOL0     C85747   5.103   3.502   6.451  0.0932 -0.5403  0.2568
  636MOL0     C85748   4.959   3.481   6.509 -0.5472 -0.6469  0.3995
  636MOL0     O85749   4.864   3.526   6.409  0.3793  0.5589  0.9196
  636MOL0     C85750   4.740   3.477   6.425  0.5402 -0.1975 -0.4531
  636MOL0     C85751   4.655   3.496   6.316  0.0026 -1.1199  0.4204
  636MOL0     C85752   4.522   3.450   6.308  1.2325 -0.4625 -0.1098
  636MOL0     C85753   4.452   3.486   6.176  0.4064 -0.3312 -0.2237
  636MOL0     C85754   4.480   3.358   6.408  0.8612 -0.5112  0.2813
  636MOL0     C85755   4.354   3.280   6.400 -0.2076 -0.0719 -0.1819
  636MOL0     O85756   4.310   3.228   6.519  0.7382 -0.2698 -0.6535
  636MOL0     C85757   4.198   3.157   6.518 -0.2498  0.3287 -0.4172
  636MOL0     C85758   4.182   3.023   6.464 -0.9039 -0.8743  0.1510
  636MOL0     C85759   4.061   2.949   6.497 -0.1235  1.3254 -0.0608
  636MOL0     C85760   3.955   3.012   6.567  0.4456 -0.0740  0.4108
  636MOL0     O85761   3.847   2.925   6.588 -0.6292  0.5206 -0.2600
  636MOL0     C85762   3.726   2.991   6.615  0.4899  0.6865 -1.0126
  636MOL0     C85763   3.636   2.870   6.628 -0.3129  0.4886  0.5614
  636MOL0     C85764   3.494   2.919   6.670  1.2016  0.1319  0.4368
  636MOL0     C85765   3.402   2.790   6.654 -0.7913  0.5931  0.3040
  636MOL0     C85766   3.258   2.843   6.686  0.3982 -0.6814  1.1551
  636MOL0     C85767   3.158   2.748   6.617 -0.1174  1.0055  0.3438
  636MOL0     C85768   3.016   2.758   6.670  0.1108 -0.3646  0.5545
  636MOL0     C85769   2.905   2.773   6.562 -0.6748 -0.5056  0.2846
  636MOL0    Cl85770   2.890   2.637   6.443  0.3515  0.1345  0.4078
  636MOL0     C85771   3.967   3.145   6.605 -0.4139 -0.4865  0.5317
  636MOL0     C85772   4.087   3.216   6.592  0.8594  0.1949  0.6382
  636MOL0     O85773   4.304   3.260   6.295 -0.1892 -0.3233  1.2569
  636MOL0     C85774   4.558   3.350   6.522 -1.1342  0.3740 -0.3039
  636MOL0     C85775   4.688   3.401   6.528 -0.7402 -0.0682  0.1173
  636MOL0     N85776   5.445   3.335   6.694 -0.3739 -0.0500 -0.3590
  636MOL0     N85777   5.564   3.289   6.716  0.9553  0.0626 -0.3051
  636MOL0     C85778   6.785   2.837   6.921 -0.5856  0.9576 -0.2358
  636MOL0     C85779   6.914   2.781   6.951 -0.2488 -0.3979 -0.5801
  636MOL0     C85780   7.309   2.629   7.023 -0.9196  0.9753  0.0414
  636MOL0     C85781   7.348   2.491   7.017  0.0823  0.1859 -0.1638
  636MOL0     C85782   7.471   2.458   7.079 -0.4536  0.0357  0.0414
  636MOL0     C85783   7.551   2.551   7.145  0.4816 -0.9897  0.4569
  636MOL0     O85784   7.679   2.531   7.184 -0.3823 -0.1906 -0.4493
  636MOL0     C85785   7.790   2.625   7.171 -0.3942 -0.9309 -0.0999
  636MOL0     C85786   7.923   2.545   7.165 -0.1223  0.3941 -0.1244
  636MOL0     C85787   8.037   2.642   7.130  0.3018 -0.1618 -0.4949
  636MOL0     C85788   8.089   2.721   7.253  0.6704  0.3280  0.4704
  636MOL0     C85789   8.169   2.835   7.224 -1.0601  0.4747 -0.0872
  636MOL0     C85790   8.254   2.925   7.215 -0.1617  0.3354  0.7398
  636MOL0     C85791   7.499   2.682   7.155 -0.1577  0.2622  0.1128
  636MOL0     C85792   7.385   2.724   7.094  0.5104 -0.0223  0.4377
  636MOL0     H85793   7.097   3.041   6.821  0.6404 -1.5149 -1.2600
  636MOL0     H85794   6.892   3.118   6.759 -1.5159 -1.0430 -0.1596
  636MOL0     H85795   6.563   2.867   6.736 -0.4535  0.6499  0.4956
  636MOL0     H85796   6.496   2.924   6.895  1.5902 -1.2763  0.6359
  636MOL0     H85797   6.454   3.143   6.776  1.0566  0.4576 -1.6292
  636MOL0     H85798   6.481   3.049   6.626  3.3158  0.3017  1.0434
  636MOL0     H85799   6.285   2.908   6.684 -1.8407  1.1049 -0.7416
  636MOL0     H85800   6.259   2.984   6.836  0.0073 -1.5094  0.1418
  636MOL0     H85801   6.240   3.207   6.687 -0.3399 -0.6832  4.3361
  636MOL0     H85802   6.229   3.092   6.553 -0.8447 -0.2015  0.2236
  636MOL0     H85803   6.034   2.998   6.639  4.6945 -0.4758  0.7692
  636MOL0     H85804   6.022   3.104   6.782 -2.0471 -1.9269  0.2186
  636MOL0     H85805   6.056   3.300   6.590 -1.8926  2.3603 -0.8151
  636MOL0     H85806   6.017   3.182   6.476 -0.1411  2.5062 -0.0890
  636MOL0     H85807   5.786   3.199   6.504 -0.6903 -1.7300  0.2384
  636MOL0     H85808   5.806   3.121   6.653  1.8902 -2.1971 -1.1106
  636MOL0     H85809   5.841   3.418   6.617 -0.3817 -0.4362 -0.9445
  636MOL0     H85810   5.818   3.311   6.769 -1.9167  1.2416  0.3141
  636MOL0     H85811   5.649   3.501   6.484 -2.3534  0.2561 -1.1735
  636MOL0     H85812   5.393   3.578   6.484 -0.1266 -0.6762 -1.0883
  636MOL0     H85813   5.358   3.432   6.395  0.2668  0.3812 -0.3492
  636MOL0     H85814   5.215   3.524   6.641 -1.5182 -0.6539  0.8068
  636MOL0     H85815   5.200   3.359   6.570  0.9265  1.0920  1.0073
  636MOL0     H85816   5.119   3.459   6.352  0.7990  1.1629 -0.3975
  636MOL0     H85817   5.124   3.608   6.436  0.9856 -0.5256  1.4032
  636MOL0     H85818   4.960   3.540   6.601  0.5972 -0.6256  0.3886
  636MOL0     H85819   4.943   3.378   6.541  0.1763 -0.8197  0.2191
  636MOL0     H85820   4.701   3.567   6.247  1.8330 -0.6475  2.0424
  636MOL0     H85821   4.373   3.557   6.201  0.2611 -0.4826 -0.2494
  636MOL0     H85822   4.524   3.535   6.110  0.7950 -0.1107  0.3590
  636MOL0     H85823   4.407   3.402   6.122  1.2269 -1.2642  0.5009
  636MOL0     H85824   4.258   2.983   6.398  1.6016  4.9295 -1.1815
  636MOL0     H85825   4.041   2.847   6.465 -1.6050  1.9450 -1.1967
  636MOL0     H85826   3.733   3.051   6.707 -1.7052  0.2944 -0.5101
  636MOL0     H85827   3.692   3.067   6.544  0.6145  0.5497 -1.2170
  636MOL0     H85828   3.627   2.818   6.533 -2.3861  0.5724  0.6646
  636MOL0     H85829   3.668   2.788   6.693  1.3018  0.3544 -0.3498
  636MOL0     H85830   3.451   3.003   6.614 -2.0919 -0.9617  1.1339
  636MOL0     H85831   3.490   2.951   6.774  1.4558  1.7967 -0.0315
  636MOL0     H85832   3.406   2.770   6.547  1.0210 -0.5579  0.5480
  636MOL0     H85833   3.417   2.699   6.713 -1.3010  0.0000 -0.4555
  636MOL0     H85834   3.239   2.943   6.647 -0.2567 -1.0396  0.5245
  636MOL0     H85835   3.241   2.842   6.794 -0.3154 -2.4417  1.0645
  636MOL0     H85836   3.176   2.765   6.510  4.1865  2.4138  1.0687
  636MOL0     H85837   3.190   2.645   6.635 -1.2819 -0.0352 -2.8953
  636MOL0     H85838   3.016   2.844   6.739  1.8589 -0.1041  0.2619
  636MOL0     H85839   2.999   2.670   6.732  2.3262 -0.1694  1.5139
  636MOL0     H85840   2.938   2.864   6.511 -3.5368  0.0014 -0.8769
  636MOL0     H85841   2.810   2.795   6.611 -0.6427  3.3855 -1.0322
  636MOL0     H85842   3.881   3.189   6.654 -1.3984 -0.8107 -0.8362
  636MOL0     H85843   4.095   3.303   6.656  3.6918  0.0850  0.5700
  636MOL0     H85844   4.523   3.300   6.612  3.5760 -0.4011  1.3912
  636MOL0     H85845   4.746   3.383   6.618  1.2537 -0.1993 -1.1481
  636MOL0     H85846   6.699   2.788   6.966  0.8537 -1.7843 -0.2481
  636MOL0     H85847   6.930   2.691   7.009 -1.2392 -1.5791 -2.0598
  636MOL0     H85848   7.298   2.416   6.957  1.3260 -3.3281  2.7859
  636MOL0     H85849   7.511   2.357   7.080  0.0299  0.2185 -0.5328
  636MOL0     H85850   7.776   2.685   7.081  2.5737  0.7059  0.3875
  636MOL0     H85851   7.790   2.688   7.260 -0.2226  0.0002 -0.7523
  636MOL0     H85852   7.910   2.469   7.087 -0.7607 -1.6606  1.8759
  636MOL0     H85853   7.952   2.503   7.261 -2.2165 -0.9304 -0.0088
  636MOL0     H85854   8.012   2.716   7.052  3.4453  0.6644 -0.8370
  636MOL0     H85855   8.110   2.574   7.086  0.1629 -0.0404 -0.9274
  636MOL0     H85856   8.126   2.653   7.331 -1.5527  0.9567  2.1549
  636MOL0     H85857   8.000   2.768   7.296  1.5354  0.1554  2.5712
  636MOL0     H85858   8.323   3.004   7.193 -0.0302 -0.8513 -4.4806
  636MOL0     H85859   7.562   2.754   7.206  0.2920 -0.1863  0.2070
  636MOL0     H85860   7.348   2.824   7.111 -0.5838 -0.6948  2.4753
  637MOL0     O85861   1.572   4.764   1.720  0.1089  0.3272 -0.1209
  637MOL0     C85862   1.620   4.655   1.687  1.0618  0.1110 -1.0141
  637MOL0     O85863   1.557   4.545   1.631  0.5051 -0.0401  0.5857
  637MOL0     C85864   1.416   4.530   1.627 -0.1175 -0.5073  0.4714
  637MOL0     C85865   1.366   4.408   1.572 -0.1454 -0.5469  0.1737
  637MOL0     C85866   1.234   4.377   1.566 -0.2805 -0.2922  0.0663
  637MOL0     C85867   1.139   4.464   1.613  0.1194 -0.1362 -0.7647
  637MOL0     O85868   1.004   4.428   1.604  0.1609  0.3101 -0.2242
  637MOL0     C85869   0.901   4.523   1.630  0.7979 -0.6730 -0.2774
  637MOL0     C85870   0.765   4.476   1.567  0.3882  0.1257  0.5198
  637MOL0     C85871   0.709   4.347   1.626  0.4678 -0.1881 -0.4094
  637MOL0     C85872   0.658   4.357   1.765 -0.9971  0.1274  0.0515
  637MOL0     C85873   0.587   4.232   1.800  0.1528  0.1374 -0.3840
  637MOL0     C85874   0.488   4.258   1.922  0.2430  0.1112 -0.5522
  637MOL0     C85875   0.382   4.144   1.921  0.4682  0.1533 -0.2610
  637MOL0     C85876   0.425   3.996   1.952 -0.1916  0.6280  0.0201
  637MOL0     N85877   0.314   3.901   1.949  0.2498  0.4271 -0.4825
  637MOL0     C85878   0.253   3.842   1.847  0.0439 -0.1681 -0.0761
  637MOL0     C85879   0.142   3.783   1.895 -0.3986 -0.1055  0.2921
  637MOL0     C85880   0.053   3.691   1.829  0.9167  0.3636  0.1355
  637MOL0     C85881  -0.081   3.760   1.793  0.5040 -0.6952 -0.0760
  637MOL0     C85882  -0.074   3.884   1.713  0.3936  0.2746 -0.1242
  637MOL0     C85883  -0.205   3.957   1.703 -0.1107  0.5625  0.1830
  637MOL0     O85884  -0.295   3.891   1.611  0.5576  0.1008  0.6535
  637MOL0     C85885  -0.427   3.921   1.587  0.0834  0.1588 -0.8567
  637MOL0     C85886  -0.501   3.866   1.481 -0.3886 -0.0092 -0.7939
  637MOL0     C85887  -0.635   3.902   1.445  0.5762 -0.7068  1.1566
  637MOL0     C85888  -0.686   3.860   1.309 -0.1973 -0.2005  1.0454
  637MOL0     C85889  -0.699   3.991   1.535  0.7147 -0.1842 -0.2800
  637MOL0     C85890  -0.832   4.051   1.507 -0.1264 -0.3137 -0.7146
  637MOL0     O85891  -0.926   3.980   1.442  1.4564 -0.2413 -0.1860
  637MOL0     C85892  -1.056   4.025   1.412 -0.0064 -0.4158 -0.3657
  637MOL0     C85893  -1.157   4.029   1.511 -0.9743  0.2519  0.2937
  637MOL0     C85894  -1.285   4.067   1.467  0.2292  0.2159  0.4887
  637MOL0     C85895  -1.310   4.082   1.330  0.4267  0.3002  0.0075
  637MOL0     O85896  -1.443   4.096   1.304 -0.2828 -0.4527 -0.1587
  637MOL0     C85897  -1.492   4.073   1.170 -0.2785  0.3956  0.4279
  637MOL0     C85898  -1.647   4.080   1.177  0.0379 -0.3120  0.5599
  637MOL0     C85899  -1.688   4.225   1.152  0.6292 -0.3453 -0.1668
  637MOL0     C85900  -1.847   4.233   1.181  0.1420 -0.2988  1.1367
  637MOL0     C85901  -1.888   4.379   1.198  0.3160 -0.5225 -0.3226
  637MOL0     C85902  -1.881   4.468   1.072  0.1567 -0.2060 -0.9080
  637MOL0     C85903  -1.905   4.622   1.093  0.0854 -0.6359  0.2673
  637MOL0     C85904  -2.037   4.644   1.174 -0.3114  0.2435 -0.7018
  637MOL0    Cl85905  -2.186   4.597   1.075 -0.3687  0.1827 -0.6244
  637MOL0     C85906  -1.211   4.070   1.234 -0.2613 -0.1149 -0.8219
  637MOL0     C85907  -1.082   4.038   1.280 -0.4226  0.5004 -0.2799
  637MOL0     O85908  -0.837   4.172   1.535  1.0117 -0.2156 -0.7272
  637MOL0     C85909  -0.631   4.038   1.654  0.5347  0.7132  1.3432
  637MOL0     C85910  -0.496   3.993   1.678  0.3018 -1.1312  0.4962
  637MOL0     N85911   0.132   3.807   2.023 -0.1747 -0.0524 -0.6688
  637MOL0     N85912   0.227   3.887   2.050 -0.0103 -0.1238  0.0340
  637MOL0     C85913   1.188   4.586   1.671 -0.3063 -0.0980 -0.4662
  637MOL0     C85914   1.326   4.618   1.680 -0.2249 -0.0651  0.1090
  637MOL0     C85915   1.767   4.629   1.716 -0.2935 -0.5487  0.5908
  637MOL0     C85916   1.850   4.736   1.767 -0.0301 -0.2651 -0.5359
  637MOL0     C85917   1.984   4.712   1.803 -0.6082  0.1712  0.2108
  637MOL0     C85918   2.042   4.590   1.782 -1.0853  0.4329 -0.5800
  637MOL0     O85919   2.174   4.560   1.811  0.9223  0.7436  0.0672
  637MOL0     C85920   2.266   4.671   1.828  1.2367  0.4859  0.6104
  637MOL0     C85921   2.400   4.599   1.861  1.0164  0.1226  0.0127
  637MOL0     C85922   2.447   4.525   1.733 -0.0935 -0.4893  0.5402
  637MOL0     C85923   2.580   4.458   1.749 -0.0560  0.4642 -0.0819
  637MOL0     C85924   2.578   4.369   1.862  0.3321  0.0522 -0.0146
  637MOL0     C85925   2.594   4.297   1.958 -0.5845  0.6957  0.4623
  637MOL0     C85926   1.967   4.495   1.727 -0.1312  0.4451  0.3061
  637MOL0     C85927   1.837   4.513   1.690  0.3081  0.2844 -0.4367
  637MOL0     H85928   1.440   4.335   1.540  0.0295 -0.2533 -0.0929
  637MOL0     H85929   1.202   4.288   1.513 -1.1593  1.4219 -2.5104
  637MOL0     H85930   0.885   4.542   1.737  0.2399 -1.2166 -0.2584
  637MOL0     H85931   0.929   4.616   1.582  0.0813 -0.6431 -0.6535
  637MOL0     H85932   0.696   4.561   1.558  1.1339  0.6779 -0.1570
  637MOL0     H85933   0.785   4.454   1.462 -3.0309  0.2486 -0.2818
  637MOL0     H85934   0.627   4.311   1.562 -0.1620  0.1224  0.2109
  637MOL0     H85935   0.794   4.279   1.630  0.4840 -0.1293  0.4300
  637MOL0     H85936   0.744   4.380   1.829 -0.3865  0.6083 -0.9114
  637MOL0     H85937   0.587   4.440   1.770 -2.1033 -0.5549 -2.4047
  637MOL0     H85938   0.528   4.192   1.717 -3.1738  0.3492  1.6863
  637MOL0     H85939   0.659   4.153   1.826 -1.9326 -2.1212 -1.1010
  637MOL0     H85940   0.541   4.272   2.017 -0.2225 -3.0758  0.2723
  637MOL0     H85941   0.426   4.346   1.902  1.6430  1.2450 -0.1698
  637MOL0     H85942   0.311   4.169   2.000 -0.5008 -2.9745  0.0006
  637MOL0     H85943   0.328   4.152   1.826 -0.4578  2.7808  0.3933
  637MOL0     H85944   0.462   3.984   2.055  0.5789 -1.3871 -0.4420
  637MOL0     H85945   0.507   3.959   1.891  0.1598 -0.5737  1.1686
  637MOL0     H85946   0.278   3.831   1.743 -2.7919  1.8777 -1.1300
  637MOL0     H85947   0.109   3.646   1.747 -0.3698  1.3911 -1.3472
  637MOL0     H85948   0.040   3.610   1.902  4.1769  0.6624  1.1901
  637MOL0     H85949  -0.126   3.779   1.890  3.4676 -3.4164  2.0315
  637MOL0     H85950  -0.140   3.684   1.742 -0.3739  0.8783 -1.5161
  637MOL0     H85951  -0.029   3.864   1.615 -3.4497  1.5503 -2.3912
  637MOL0     H85952  -0.007   3.944   1.775  2.6989 -4.2287  2.2370
  637MOL0     H85953  -0.189   4.055   1.657  1.5794 -0.1330 -0.8099
  637MOL0     H85954  -0.258   3.969   1.798 -2.1697  2.0906 -1.0515
  637MOL0     H85955  -0.430   3.817   1.416  0.9697 -0.2386  0.7854
  637MOL0     H85956  -0.777   3.907   1.272  1.6917  1.5218 -1.8305
  637MOL0     H85957  -0.613   3.882   1.230 -0.5297 -0.7398  0.5804
  637MOL0     H85958  -0.708   3.753   1.309  2.6741 -0.8911  0.6780
  637MOL0     H85959  -1.146   4.019   1.619  0.9884  1.7300  0.2797
  637MOL0     H85960  -1.355   4.086   1.548 -2.0092  3.3621 -1.8828
  637MOL0     H85961  -1.457   4.154   1.105  0.8649 -0.9068 -0.6485
  637MOL0     H85962  -1.456   3.976   1.134 -0.6598 -0.0360  1.1954
  637MOL0     H85963  -1.694   4.014   1.103 -0.6392 -0.3745  1.0324
  637MOL0     H85964  -1.675   4.053   1.279 -0.2352 -0.0284  0.5636
  637MOL0     H85965  -1.658   4.262   1.054  2.2277 -0.3678  0.2869
  637MOL0     H85966  -1.645   4.287   1.231  2.2764  2.7829 -3.2808
  637MOL0     H85967  -1.904   4.184   1.102  0.7138  0.4665  0.2252
  637MOL0     H85968  -1.853   4.177   1.275 -1.8234  0.3319  1.4153
  637MOL0     H85969  -1.830   4.434   1.272 -1.8905 -0.8820  1.8042
  637MOL0     H85970  -1.992   4.373   1.232 -0.4662  0.0857 -2.4279
  637MOL0     H85971  -1.781   4.464   1.026  1.4228  1.4414  1.5038
  637MOL0     H85972  -1.941   4.430   0.989  0.0636 -0.5452 -0.6897
  637MOL0     H85973  -1.914   4.683   1.002  0.3063  2.6190  2.2486
  637MOL0     H85974  -1.814   4.653   1.146  1.4378 -0.8407 -1.8015
  637MOL0     H85975  -2.053   4.750   1.194 -0.5618 -0.1018  1.0605
  637MOL0     H85976  -2.032   4.598   1.273 -0.8767  0.0357 -0.7654
  637MOL0     H85977  -1.238   4.077   1.129 -2.5553 -1.0533 -0.3450
  637MOL0     H85978  -1.009   4.020   1.202  1.4161  0.3854  1.3937
  637MOL0     H85979  -0.683   4.106   1.720 -0.5914  2.5539 -1.2705
  637MOL0     H85980  -0.447   4.034   1.765  1.2317  0.9091 -0.9126
  637MOL0     H85981   1.124   4.654   1.726  2.1682  0.6522  1.6404
  637MOL0     H85982   1.351   4.710   1.733  0.3272  2.3977 -3.9933
  637MOL0     H85983   1.808   4.831   1.795 -1.9371 -1.8982  2.6343
  637MOL0     H85984   2.046   4.795   1.836  0.7181 -0.0368 -1.6310
  637MOL0     H85985   2.265   4.723   1.732 -1.2365  0.1399  0.3834
  637MOL0     H85986   2.241   4.743   1.906  1.6761  2.3804 -0.9238
  637MOL0     H85987   2.375   4.531   1.943 -1.9636 -0.1706 -1.0095
  637MOL0     H85988   2.469   4.680   1.884 -1.6245  2.3154  0.7963
  637MOL0     H85989   2.453   4.601   1.655 -0.3321 -1.7393 -0.7417
  637MOL0     H85990   2.370   4.452   1.709  2.0646 -2.8867  0.4443
  637MOL0     H85991   2.645   4.544   1.765 -0.4248  0.7128  0.1070
  637MOL0     H85992   2.607   4.400   1.661 -0.9630  1.6741 -1.1973
  637MOL0     H85993   2.619   4.232   2.040 -0.6786  0.8003  0.5739
  637MOL0     H85994   2.015   4.403   1.697 -0.8463 -0.2439  1.2295
  637MOL0     H85995   1.791   4.425   1.645  0.1146 -0.3015  0.8777
  638MOL0     O85996   2.420   5.245   6.382  0.3465  0.1023  0.1395
  638MOL0     C85997   2.436   5.282   6.264  0.8108  0.3220 -0.1823
  638MOL0     O85998   2.335   5.314   6.176 -0.1813 -0.4060 -0.4152
  638MOL0     C85999   2.203   5.292   6.200 -0.0147  0.3910 -0.5105
  638MOL0     C86000   2.142   5.163   6.225  0.4070 -0.4332 -0.2901
  638MOL0     C86001   1.999   5.152   6.236 -0.3465 -0.1136 -0.1154
  638MOL0     C86002   1.917   5.262   6.231  0.9615 -0.1645  0.1761
  638MOL0     O86003   1.776   5.241   6.246  0.3206 -0.3347  0.3064
  638MOL0     C86004   1.691   5.351   6.227 -0.3076  0.0849  0.0578
  638MOL0     C86005   1.553   5.302   6.287  0.1843 -0.7260 -0.0169
  638MOL0     C86006   1.458   5.420   6.263 -0.2235 -0.0473 -0.6955
  638MOL0     C86007   1.313   5.392   6.290  0.1884 -0.0507  0.0238
  638MOL0     C86008   1.218   5.501   6.245  0.1284  0.5236  0.1118
  638MOL0     C86009   1.082   5.489   6.302 -0.1566  0.2283 -0.3017
  638MOL0     C86010   0.995   5.612   6.270  0.6002 -0.4233  0.3147
  638MOL0     C86011   0.856   5.600   6.337  0.2853 -0.3408 -0.7668
  638MOL0     N86012   0.752   5.692   6.287 -0.3690  0.7871 -0.1460
  638MOL0     C86013   0.670   5.667   6.178  0.0070  0.2822  0.5140
  638MOL0     C86014   0.582   5.773   6.164 -0.5454  0.0434 -0.7965
  638MOL0     C86015   0.469   5.802   6.080  0.1579 -0.6334 -0.2388
  638MOL0     C86016   0.392   5.687   6.014  0.1660  0.3878  0.7370
  638MOL0     C86017   0.316   5.609   6.117  0.0982  0.6279 -0.4204
  638MOL0     C86018   0.173   5.556   6.076 -0.3430  1.2955 -0.3340
  638MOL0     O86019   0.138   5.442   6.162  0.1087  0.4302 -0.1383
  638MOL0     C86020   0.006   5.406   6.175 -0.0829 -0.6297 -0.7249
  638MOL0     C86021  -0.036   5.348   6.287 -1.0263  0.8443 -0.1602
  638MOL0     C86022  -0.167   5.302   6.312  0.4605  0.0922 -0.1237
  638MOL0     C86023  -0.178   5.213   6.432  0.2442  0.4949  0.0702
  638MOL0     C86024  -0.271   5.343   6.227 -0.2915  0.8579  0.6652
  638MOL0     C86025  -0.411   5.306   6.241  0.2580  0.0825 -0.3878
  638MOL0     O86026  -0.494   5.335   6.135  0.0414 -0.4039  0.0074
  638MOL0     C86027  -0.621   5.287   6.129 -0.1858  0.4713  0.6538
  638MOL0     C86028  -0.665   5.247   6.005 -0.6513 -0.0580 -0.3971
  638MOL0     C86029  -0.786   5.181   5.990 -0.6854 -0.1450 -0.3373
  638MOL0     C86030  -0.879   5.177   6.096  0.0910 -0.2743 -0.3548
  638MOL0     O86031  -0.995   5.111   6.070  0.0604  0.3532  0.0779
  638MOL0     C86032  -1.119   5.167   6.116  0.5981  0.3236  0.1422
  638MOL0     C86033  -1.165   5.284   6.021 -0.3072 -0.1636 -0.9824
  638MOL0     C86034  -1.198   5.243   5.871  0.1734  0.8859  0.0737
  638MOL0     C86035  -1.330   5.159   5.855 -0.0193 -0.4451 -0.1973
  638MOL0     C86036  -1.369   5.121   5.711  0.1376 -0.7488  0.7390
  638MOL0     C86037  -1.261   5.031   5.631  0.5577 -0.5648 -0.5625
  638MOL0     C86038  -1.318   4.936   5.525 -0.8607  0.3910  0.3445
  638MOL0     C86039  -1.341   5.017   5.404 -0.0504  0.4324 -0.5431
  638MOL0    Cl86040  -1.190   5.026   5.309 -0.5335  0.3596 -0.1293
  638MOL0     C86041  -0.837   5.226   6.226  0.6029 -0.2049 -0.0861
  638MOL0     C86042  -0.710   5.286   6.239  1.1857 -0.2928  0.3833
  638MOL0     O86043  -0.444   5.253   6.347  0.0218  0.6962 -0.2182
  638MOL0     C86044  -0.229   5.417   6.114 -0.4742  0.1662  0.3676
  638MOL0     C86045  -0.092   5.439   6.090  1.0261 -0.2431  0.3119
  638MOL0     N86046   0.612   5.856   6.271  0.2931  0.0787  0.0061
  638MOL0     N86047   0.708   5.810   6.340 -0.2858 -0.3005 -0.0221
  638MOL0     C86048   1.976   5.384   6.217  1.1649 -0.6896 -0.2296
  638MOL0     C86049   2.112   5.399   6.207  0.3926  0.1013  0.7990
  638MOL0     C86050   2.572   5.290   6.216  0.0416  0.4240  0.7946
  638MOL0     C86051   2.679   5.253   6.299 -0.7483  0.1987  0.0970
  638MOL0     C86052   2.810   5.271   6.241  0.0517 -0.6940 -0.4724
  638MOL0     C86053   2.831   5.303   6.106  0.2323  0.4211 -0.5113
  638MOL0     O86054   2.954   5.308   6.041  0.0793  0.1354  0.4362
  638MOL0     C86055   3.082   5.340   6.113 -0.3011  0.3761 -0.1857
  638MOL0     C86056   3.194   5.279   6.033 -0.0241  0.0858 -0.2964
  638MOL0     C86057   3.320   5.352   6.021  0.2362  0.0869  0.5185
  638MOL0     C86058   3.413   5.281   5.930  0.4093  0.7408 -0.3799
  638MOL0     C86059   3.551   5.327   5.959  0.3901  0.2529  0.1097
  638MOL0     C86060   3.662   5.363   5.987  0.0531  0.7200  0.3421
  638MOL0     C86061   2.724   5.351   6.032 -0.1336  0.7205 -0.0712
  638MOL0     C86062   2.597   5.350   6.090  0.6868 -0.1929 -0.1981
  638MOL0     H86063   2.210   5.080   6.238  0.4124 -1.2946 -4.3058
  638MOL0     H86064   1.949   5.058   6.261 -0.8145  0.5735  1.6715
  638MOL0     H86065   1.716   5.445   6.278 -2.6543  0.0264  1.4782
  638MOL0     H86066   1.684   5.368   6.119  1.6511  0.2391 -0.0727
  638MOL0     H86067   1.511   5.215   6.237  0.9914 -1.9993  1.4203
  638MOL0     H86068   1.562   5.291   6.395  1.0073 -0.3797 -0.0385
  638MOL0     H86069   1.492   5.505   6.324 -0.1472  1.0619 -2.2340
  638MOL0     H86070   1.469   5.446   6.158 -1.2756  3.6708 -0.0345
  638MOL0     H86071   1.288   5.298   6.240  0.5349 -0.5280  0.7203
  638MOL0     H86072   1.292   5.381   6.397 -0.8176  0.2215 -0.1346
  638MOL0     H86073   1.254   5.592   6.294 -3.4296  1.9751  0.3731
  638MOL0     H86074   1.217   5.509   6.136  2.5011  1.2347  0.1015
  638MOL0     H86075   1.031   5.399   6.265 -0.7433  1.2616 -2.1012
  638MOL0     H86076   1.099   5.473   6.409  1.9576 -0.9013 -0.7426
  638MOL0     H86077   1.035   5.708   6.303 -2.9122  0.2565  3.1819
  638MOL0     H86078   0.972   5.606   6.163  0.0251 -0.1102  0.4181
  638MOL0     H86079   0.874   5.631   6.440  0.6045 -3.0453  0.0751
  638MOL0     H86080   0.828   5.495   6.320  3.5294 -1.0206 -2.7947
  638MOL0     H86081   0.671   5.575   6.120  1.8445 -1.3054  2.8396
  638MOL0     H86082   0.405   5.858   6.149 -1.4030 -0.9472 -1.3763
  638MOL0     H86083   0.506   5.867   6.001 -0.0435 -0.2014  0.0219
  638MOL0     H86084   0.465   5.622   5.966  0.3090  0.3946  0.9443
  638MOL0     H86085   0.315   5.725   5.946  0.2929 -0.4674  0.1085
  638MOL0     H86086   0.311   5.663   6.212 -4.7744 -2.5959  1.5433
  638MOL0     H86087   0.376   5.520   6.142 -2.5745 -1.6259 -1.5254
  638MOL0     H86088   0.183   5.514   5.975 -0.2938  0.1694  0.1164
  638MOL0     H86089   0.095   5.632   6.083  0.1787  1.6929  1.8819
  638MOL0     H86090   0.054   5.325   6.344  0.4656  0.7579 -2.4113
  638MOL0     H86091  -0.218   5.116   6.400  1.3482  0.6389 -1.8546
  638MOL0     H86092  -0.076   5.192   6.467  0.5179 -0.0330 -1.0208
  638MOL0     H86093  -0.238   5.265   6.507  4.5326  2.4401  2.4827
  638MOL0     H86094  -0.596   5.249   5.922  0.4896 -0.9054  0.5042
  638MOL0     H86095  -0.815   5.148   5.891  0.0911  1.6322 -1.1939
  638MOL0     H86096  -1.197   5.090   6.125  0.3133  0.8379  2.9930
  638MOL0     H86097  -1.098   5.197   6.218 -0.1506 -2.2694  1.1496
  638MOL0     H86098  -1.248   5.338   6.067  1.1479 -0.3379  2.1236
  638MOL0     H86099  -1.083   5.356   6.009  0.5416 -1.2947 -2.3512
  638MOL0     H86100  -1.107   5.193   5.838  0.8847  2.0309  0.2702
  638MOL0     H86101  -1.209   5.332   5.809 -0.3102 -0.0556 -1.2483
  638MOL0     H86102  -1.325   5.064   5.910 -1.4775  0.0148  0.7881
  638MOL0     H86103  -1.397   5.225   5.910  2.3436 -0.8069  3.4977
  638MOL0     H86104  -1.391   5.214   5.659  1.7017 -1.6121 -1.6409
  638MOL0     H86105  -1.462   5.067   5.730 -0.7203  0.8831  1.3035
  638MOL0     H86106  -1.179   5.095   5.597 -0.6762  1.5284  0.2299
  638MOL0     H86107  -1.215   4.963   5.704 -0.0355 -1.4664 -1.0039
  638MOL0     H86108  -1.403   4.876   5.560 -1.6210  0.1498 -1.7865
  638MOL0     H86109  -1.245   4.858   5.502 -1.0747 -0.3789  2.0901
  638MOL0     H86110  -1.387   5.111   5.436 -2.3290 -1.4855  2.4004
  638MOL0     H86111  -1.409   4.963   5.337  1.1693  0.7011 -2.0411
  638MOL0     H86112  -0.901   5.221   6.313 -0.6073  2.6465 -0.7040
  638MOL0     H86113  -0.673   5.305   6.339  1.7093 -2.6568  0.7099
  638MOL0     H86114  -0.296   5.453   6.037 -0.2021 -2.5932 -1.2928
  638MOL0     H86115  -0.065   5.474   5.991 -0.5461 -0.7340 -0.3142
  638MOL0     H86116   1.913   5.473   6.214  2.2886  0.0948 -1.9866
  638MOL0     H86117   2.144   5.501   6.189  1.9446 -0.3519  0.8295
  638MOL0     H86118   2.659   5.227   6.402  0.1071 -1.8120 -0.1936
  638MOL0     H86119   2.887   5.241   6.312 -3.6308 -1.2830  3.6889
  638MOL0     H86120   3.102   5.447   6.128 -0.0662  0.5736 -1.7958
  638MOL0     H86121   3.081   5.296   6.213 -3.0015 -0.6108 -0.5487
  638MOL0     H86122   3.157   5.260   5.931  1.0176  0.4659 -0.7656
  638MOL0     H86123   3.222   5.180   6.068 -0.9430 -0.3300 -0.7073
  638MOL0     H86124   3.365   5.375   6.118  1.0394  0.4614  0.0675
  638MOL0     H86125   3.300   5.451   5.981 -2.1607  1.0933  3.7901
  638MOL0     H86126   3.375   5.305   5.830  1.4327 -2.0033 -1.5313
  638MOL0     H86127   3.407   5.174   5.951 -1.1148  0.8177 -0.2618
  638MOL0     H86128   3.754   5.395   6.033  1.5388 -0.7015 -1.5287
  638MOL0     H86129   2.745   5.399   5.937  2.4541  1.6198  0.8496
  638MOL0     H86130   2.521   5.384   6.020  2.3634 -0.6920 -2.3771
  639MOL0     O86131   0.604   9.743  11.276 -0.2354 -0.5477 -0.6896
  639MOL0     C86132   0.662   9.687  11.367 -0.8235  0.3368  0.5108
  639MOL0     O86133   0.606   9.634  11.476 -0.1709  0.4933  0.2691
  639MOL0     C86134   0.467   9.630  11.505 -0.3325 -0.5254  0.5430
  639MOL0     C86135   0.380   9.725  11.463  0.0329 -0.6127  0.0145
  639MOL0     C86136   0.249   9.731  11.484 -0.3887 -0.5016 -0.6713
  639MOL0     C86137   0.187   9.633  11.558 -1.1855  0.2039 -0.0296
  639MOL0     O86138   0.055   9.651  11.564  0.7480  0.7734  0.6144
  639MOL0     C86139  -0.021   9.545  11.624  0.5001 -0.3035 -1.0213
  639MOL0     C86140  -0.011   9.547  11.779  0.2914 -0.1599 -0.2151
  639MOL0     C86141  -0.085   9.663  11.836 -0.1064 -0.0845 -1.1830
  639MOL0     C86142  -0.237   9.627  11.845 -0.6935  0.3152  0.2968
  639MOL0     C86143  -0.331   9.745  11.846  0.4414 -0.7095  0.1961
  639MOL0     C86144  -0.308   9.854  11.954  0.4228 -0.6604  0.2734
  639MOL0     C86145  -0.422   9.949  11.956 -0.4102  0.0419  0.7881
  639MOL0     C86146  -0.437  10.023  12.092  0.6187  0.1395 -0.7045
  639MOL0     N86147  -0.549  10.120  12.086  0.0670 -0.3273  0.5984
  639MOL0     C86148  -0.532  10.249  12.055 -0.2326 -0.5636  0.1249
  639MOL0     C86149  -0.642  10.311  12.107 -0.6991 -0.0488  0.2212
  639MOL0     C86150  -0.654  10.457  12.092  0.3473 -0.7323 -0.1465
  639MOL0     C86151  -0.776  10.527  12.177 -0.6319  0.7386  0.6171
  639MOL0     C86152  -0.776  10.680  12.185  0.2931  0.0022  0.1167
  639MOL0     C86153  -0.885  10.722  12.274  0.4737  0.4838 -0.5516
  639MOL0     O86154  -0.893  10.865  12.268 -0.1703  0.0293 -0.5045
  639MOL0     C86155  -1.007  10.921  12.317 -0.1653  0.2019 -0.6186
  639MOL0     C86156  -1.014  11.056  12.296  0.1613 -0.0126  0.2650
  639MOL0     C86157  -1.129  11.128  12.324 -0.2326  0.8651  0.4852
  639MOL0     C86158  -1.134  11.276  12.296  0.4763  0.2038 -0.2982
  639MOL0     C86159  -1.241  11.058  12.371 -0.2511  0.3920 -0.4410
  639MOL0     C86160  -1.373  11.116  12.395  0.7541  0.7363  0.2112
  639MOL0     O86161  -1.476  11.036  12.363 -0.2407  1.5388 -0.1897
  639MOL0     C86162  -1.603  11.080  12.362  0.0084 -0.2390  0.5527
  639MOL0     C86163  -1.684  11.051  12.469  0.2507 -0.3279 -0.3036
  639MOL0     C86164  -1.817  11.091  12.467  0.5571  0.1427  0.0361
  639MOL0     C86165  -1.869  11.163  12.361  0.4277  0.2138 -0.0003
  639MOL0     O86166  -1.998  11.196  12.346  0.0844 -0.2240  0.4229
  639MOL0     C86167  -2.081  11.237  12.458 -1.2388  0.3660  0.6308
  639MOL0     C86168  -2.075  11.390  12.481  0.1276  0.5507  0.5130
  639MOL0     C86169  -2.074  11.471  12.351 -0.5483  0.9241 -0.5946
  639MOL0     C86170  -2.065  11.620  12.373 -0.0519 -0.1421  0.0485
  639MOL0     C86171  -2.089  11.693  12.241 -0.0524  0.0920 -0.8176
  639MOL0     C86172  -2.068  11.838  12.256  0.0569 -0.1177 -0.4249
  639MOL0     C86173  -2.092  11.920  12.135 -1.0008 -0.1923  0.2860
  639MOL0     C86174  -2.049  12.072  12.147  0.6353 -0.4470  0.2104
  639MOL0    Cl86175  -2.180  12.163  12.230  0.2222  0.8160  0.0557
  639MOL0     C86176  -1.794  11.190  12.253 -0.7304  0.2579 -0.3450
  639MOL0     C86177  -1.657  11.148  12.253 -0.2650 -0.4558  0.7053
  639MOL0     O86178  -1.396  11.225  12.437  1.4404 -0.8073 -0.7064
  639MOL0     C86179  -1.229  10.921  12.404  0.3583  0.0128  0.8344
  639MOL0     C86180  -1.114  10.851  12.388  0.2045  0.3178 -0.2533
  639MOL0     N86181  -0.725  10.225  12.167  0.1728 -0.0342  0.2642
  639MOL0     N86182  -0.673  10.109  12.147 -0.6034 -0.0430 -0.4302
  639MOL0     C86183   0.268   9.533  11.604 -0.7967 -1.1101 -0.5767
  639MOL0     C86184   0.408   9.531  11.581  0.7023 -0.0785 -0.8138
  639MOL0     C86185   0.808   9.677  11.346 -0.7634  0.7725 -0.4402
  639MOL0     C86186   0.887   9.628  11.449 -0.2803  0.1097 -0.6031
  639MOL0     C86187   1.025   9.607  11.440  0.2429  0.9527 -0.4535
  639MOL0     C86188   1.091   9.639  11.322  0.6618 -0.0998  0.4362
  639MOL0     O86189   1.227   9.627  11.298 -0.1158 -0.7092  0.3481
  639MOL0     C86190   1.288   9.511  11.356  0.7291  0.2090  0.5436
  639MOL0     C86191   1.442   9.530  11.373  0.3828 -0.4122 -0.3084
  639MOL0     C86192   1.509   9.398  11.399 -0.3282  0.1608 -0.2622
  639MOL0     C86193   1.507   9.296  11.295  0.0494 -0.2663  0.8909
  639MOL0     C86194   1.630   9.209  11.298  0.8233  0.0200  1.0082
  639MOL0     C86195   1.726   9.132  11.296  0.2518  0.4030  0.3405
  639MOL0     C86196   1.017   9.685  11.219  0.2093 -0.1770 -1.4032
  639MOL0     C86197   0.880   9.705  11.227 -0.3104 -0.0933  0.4998
  639MOL0     H86198   0.413   9.809  11.402 -1.8848  0.6694  0.6429
  639MOL0     H86199   0.186   9.808  11.441 -1.4019  0.1851  1.8282
  639MOL0     H86200  -0.121   9.576  11.591  0.2421  1.6701  1.4043
  639MOL0     H86201   0.006   9.446  11.585 -0.2854 -0.3173 -1.5512
  639MOL0     H86202  -0.054   9.457  11.826  1.5998  0.5309  2.5302
  639MOL0     H86203   0.089   9.548  11.823 -0.2955  2.6259  1.3140
  639MOL0     H86204  -0.040   9.696  11.930  0.0362 -0.0175 -1.2746
  639MOL0     H86205  -0.072   9.742  11.762 -0.3893 -1.8285 -3.2015
  639MOL0     H86206  -0.258   9.575  11.752  2.0697 -2.7750  1.2085
  639MOL0     H86207  -0.262   9.559  11.927  1.6737 -1.0765 -0.0628
  639MOL0     H86208  -0.319   9.792  11.748 -0.7749 -0.4963  0.1280
  639MOL0     H86209  -0.431   9.703  11.859 -0.4735  1.6948  1.5929
  639MOL0     H86210  -0.308   9.800  12.050 -0.4706  1.4334  1.5086
  639MOL0     H86211  -0.215   9.910  11.948 -0.6000  0.9906 -1.0076
  639MOL0     H86212  -0.412  10.025  11.878 -0.7528  2.0467  2.5995
  639MOL0     H86213  -0.519   9.900  11.943 -0.1024 -0.1605 -0.8750
  639MOL0     H86214  -0.345  10.062  12.136 -2.0852  0.4684  5.9483
  639MOL0     H86215  -0.465   9.962  12.179  0.6043  2.8026  1.2718
  639MOL0     H86216  -0.444  10.294  12.010 -1.1061  0.5738 -0.4906
  639MOL0     H86217  -0.563  10.514  12.111  0.2648 -1.2082  2.0352
  639MOL0     H86218  -0.690  10.470  11.990  2.9192  1.1418 -0.8905
  639MOL0     H86219  -0.777  10.486  12.278 -1.3816 -0.0628  0.2940
  639MOL0     H86220  -0.867  10.486  12.132 -0.3925 -0.6347  1.3634
  639MOL0     H86221  -0.789  10.725  12.086  1.7248  1.0391  0.3590
  639MOL0     H86222  -0.682  10.717  12.227  0.1943 -1.9812  2.2618
  639MOL0     H86223  -0.874  10.681  12.375  1.4974  0.0067 -0.8409
  639MOL0     H86224  -0.973  10.678  12.227  0.5658  1.9696 -2.1999
  639MOL0     H86225  -0.924  11.105  12.261  0.4986 -0.2647  0.7739
  639MOL0     H86226  -1.194  11.305  12.209  2.3749 -0.4700 -1.9015
  639MOL0     H86227  -1.161  11.332  12.386 -1.1255 -0.6071 -0.2290
  639MOL0     H86228  -1.037  11.314  12.263 -0.4678  2.3119 -0.8316
  639MOL0     H86229  -1.658  10.995  12.558 -1.1493 -1.2643 -0.4505
  639MOL0     H86230  -1.885  11.066  12.547  1.0686  2.7728  1.4218
  639MOL0     H86231  -2.185  11.214  12.432 -0.5908 -2.1672  0.0075
  639MOL0     H86232  -2.054  11.187  12.552  0.6101 -1.7143 -0.9084
  639MOL0     H86233  -2.164  11.409  12.542  1.0866 -2.1517  2.9877
  639MOL0     H86234  -1.987  11.406  12.543  0.8650 -1.2976  0.0220
  639MOL0     H86235  -2.166  11.442  12.300 -0.6782 -2.2370  1.1847
  639MOL0     H86236  -1.987  11.438  12.295  2.7424  2.3918  3.1440
  639MOL0     H86237  -2.141  11.654  12.444 -0.2507  1.0098 -0.6859
  639MOL0     H86238  -1.973  11.652  12.422 -0.9008  0.1016  1.5564
  639MOL0     H86239  -2.194  11.675  12.216  0.2372 -1.8139 -0.8315
  639MOL0     H86240  -2.032  11.657  12.154  3.9984  0.0346  1.6310
  639MOL0     H86241  -2.136  11.872  12.334 -3.0688 -2.7655 -1.7734
  639MOL0     H86242  -1.965  11.865  12.284 -0.1832 -0.7186  1.1559
  639MOL0     H86243  -2.198  11.902  12.115 -1.0558 -1.1958  1.3592
  639MOL0     H86244  -2.035  11.872  12.055 -0.0185 -0.8498  1.3377
  639MOL0     H86245  -2.030  12.120  12.050  0.6050  1.3125  1.0438
  639MOL0     H86246  -1.960  12.087  12.209 -1.6892 -2.1568  4.3512
  639MOL0     H86247  -1.844  11.242  12.172 -2.1653  1.8320  1.4413
  639MOL0     H86248  -1.605  11.154  12.158 -0.7671  2.8486  0.5022
  639MOL0     H86249  -1.312  10.866  12.449 -2.0696  0.7905 -2.3207
  639MOL0     H86250  -1.118  10.743  12.398 -2.0317  0.4267  0.3362
  639MOL0     H86251   0.234   9.453  11.669 -1.2146 -1.1215 -0.8019
  639MOL0     H86252   0.460   9.443  11.619 -2.2599 -0.6016  2.4815
  639MOL0     H86253   0.848   9.610  11.548  2.2803 -2.2610  0.0790
  639MOL0     H86254   1.089   9.578  11.523 -1.1850  0.1533  0.4192
  639MOL0     H86255   1.248   9.475  11.451  1.4435  0.9670  1.1491
  639MOL0     H86256   1.269   9.429  11.287 -0.1309 -0.0017  1.0215
  639MOL0     H86257   1.481   9.591  11.455  5.2247 -4.0485  0.5121
  639MOL0     H86258   1.494   9.560  11.281 -0.0224  1.9442  0.1555
  639MOL0     H86259   1.482   9.350  11.493 -0.7635  0.7069 -0.1000
  639MOL0     H86260   1.613   9.427  11.418  0.8356 -2.0882 -2.6073
  639MOL0     H86261   1.485   9.337  11.195 -2.4971  2.2886  2.3401
  639MOL0     H86262   1.423   9.229  11.313 -0.5725 -0.2496 -1.5444
  639MOL0     H86263   1.809   9.066  11.278 -0.8449 -0.5658 -1.4825
  639MOL0     H86264   1.064   9.689  11.122  1.4839 -1.1086 -0.8441
  639MOL0     H86265   0.824   9.741  11.141  0.0141  0.2683  0.4379
  640MOL0     O86266   7.127   1.835   9.535 -0.5820 -0.4470  0.3709
  640MOL0     C86267   7.182   1.866   9.641  0.0234  0.6823 -0.8544
  640MOL0     O86268   7.123   1.928   9.748 -0.3412 -0.2899 -0.2103
  640MOL0     C86269   6.995   1.975   9.755 -0.2753 -0.6030 -0.1356
  640MOL0     C86270   6.901   1.971   9.655 -0.3383  0.6188  1.4968
  640MOL0     C86271   6.771   2.008   9.676  0.5876  0.5333  0.7976
  640MOL0     C86272   6.733   2.069   9.800 -0.8380 -0.1233 -0.0263
  640MOL0     O86273   6.606   2.111   9.812  0.1217  0.1484 -0.4738
  640MOL0     C86274   6.553   2.188   9.921  0.7720 -0.1366 -0.3454
  640MOL0     C86275   6.409   2.224   9.926  0.4797 -0.4216  0.3492
  640MOL0     C86276   6.381   2.334   9.824 -0.1673 -0.2210 -0.6295
  640MOL0     C86277   6.249   2.388   9.852 -0.2644  0.0177 -0.3178
  640MOL0     C86278   6.197   2.487   9.750 -0.0001  0.1231  0.0094
  640MOL0     C86279   6.051   2.511   9.768  0.6940 -0.0848 -0.5132
  640MOL0     C86280   5.999   2.553   9.907  0.8692  0.6104 -0.0413
  640MOL0     C86281   5.910   2.453   9.979 -0.8182 -0.0211  0.8351
  640MOL0     N86282   5.772   2.470   9.943 -0.3687  0.0572 -0.1519
  640MOL0     C86283   5.702   2.578   9.991 -0.0033 -0.0502  0.6554
  640MOL0     C86284   5.585   2.565   9.930 -0.0469  0.6433  0.4734
  640MOL0     C86285   5.457   2.642   9.934 -0.8008  0.0912  0.2185
  640MOL0     C86286   5.407   2.652  10.081 -1.2793 -0.6396 -0.1228
  640MOL0     C86287   5.368   2.515  10.132 -0.1406 -0.0590 -1.0857
  640MOL0     C86288   5.235   2.445  10.094  0.7896 -0.0906  0.1444
  640MOL0     O86289   5.113   2.512  10.141 -0.5700 -0.2681 -0.1535
  640MOL0     C86290   4.992   2.436  10.133 -0.1625 -0.1728 -0.1978
  640MOL0     C86291   4.994   2.297  10.100  0.0038 -0.5942  0.0764
  640MOL0     C86292   4.877   2.215  10.112  0.2830 -1.0789 -0.6095
  640MOL0     C86293   4.906   2.069  10.095  0.3047  0.0588  0.2043
  640MOL0     C86294   4.746   2.272  10.148  0.1400 -0.6922 -0.5606
  640MOL0     C86295   4.613   2.201  10.181 -0.1886 -0.9571  0.3249
  640MOL0     O86296   4.510   2.275  10.225 -0.1830  0.9555 -0.7986
  640MOL0     C86297   4.388   2.223  10.259  0.3655 -0.3496 -0.4785
  640MOL0     C86298   4.316   2.308  10.343  0.2466 -1.0131 -0.0194
  640MOL0     C86299   4.185   2.278  10.374 -0.4626 -0.4501 -0.1739
  640MOL0     C86300   4.125   2.161  10.329  0.0418  0.1152 -0.2383
  640MOL0     O86301   3.995   2.141  10.352  1.1839  0.1743  0.6803
  640MOL0     C86302   3.965   2.112  10.488  0.2255  0.0920  0.1000
  640MOL0     C86303   3.840   2.023  10.489 -0.9464  0.1198  0.6312
  640MOL0     C86304   3.719   2.087  10.439 -1.0914  0.1741  0.4129
  640MOL0     C86305   3.696   2.234  10.491  0.6722  0.3211 -0.0219
  640MOL0     C86306   3.547   2.273  10.466  0.2781 -0.5404 -0.0533
  640MOL0     C86307   3.535   2.420  10.497 -0.3557 -0.7273  0.6580
  640MOL0     C86308   3.588   2.517  10.396 -0.1682  0.2383  0.6891
  640MOL0     C86309   3.550   2.664  10.415 -0.1719  0.2151  0.0411
  640MOL0    Cl86310   3.587   2.727  10.574  0.2955  0.2460  0.1729
  640MOL0     C86311   4.197   2.074  10.243  0.5891 -0.3321 -0.0281
  640MOL0     C86312   4.330   2.103  10.208  1.1867  0.0705  0.6332
  640MOL0     O86313   4.615   2.081  10.163  0.6582 -0.1515  0.2265
  640MOL0     C86314   4.752   2.417  10.165  0.2318 -0.3036  1.0322
  640MOL0     C86315   4.870   2.494  10.157  0.0870  0.1011  0.4841
  640MOL0     N86316   5.585   2.458   9.840 -0.1808 -0.2124  0.2681
  640MOL0     N86317   5.695   2.394   9.857  0.0293  0.6574  0.4115
  640MOL0     C86318   6.827   2.071   9.903  0.1657 -0.0441 -0.2447
  640MOL0     C86319   6.958   2.027   9.879 -0.9513  0.0571 -0.1339
  640MOL0     C86320   7.326   1.835   9.662  0.4573 -0.6510  0.6480
  640MOL0     C86321   7.394   1.898   9.776  0.5905  1.4074 -0.5946
  640MOL0     C86322   7.532   1.863   9.794 -0.4153  0.3248  0.2390
  640MOL0     C86323   7.608   1.789   9.699  0.1083 -0.6561 -0.0121
  640MOL0     O86324   7.742   1.755   9.726 -0.1408 -0.1970 -0.2577
  640MOL0     C86325   7.834   1.860   9.765 -0.3015 -0.1054 -0.0682
  640MOL0     C86326   7.975   1.797   9.779 -0.0896  0.4270 -0.2111
  640MOL0     C86327   7.976   1.695   9.896  0.0405  0.6957 -0.7719
  640MOL0     C86328   8.109   1.658   9.939  0.0202  0.7906  0.7198
  640MOL0     C86329   8.175   1.562   9.848 -0.6453 -0.6536 -0.4037
  640MOL0     C86330   8.248   1.490   9.783 -0.0438 -0.1866  0.4949
  640MOL0     C86331   7.545   1.745   9.588 -0.3262  0.5301  0.0031
  640MOL0     C86332   7.406   1.764   9.576 -0.0275 -0.1034 -0.0973
  640MOL0     H86333   6.923   1.932   9.556 -2.4520 -2.0054  1.9632
  640MOL0     H86334   6.694   1.990   9.601  1.6288  1.6745 -0.6066
  640MOL0     H86335   6.579   2.133  10.012  3.9525  1.4145 -0.1836
  640MOL0     H86336   6.611   2.281   9.929 -2.8140  2.3078 -0.2659
  640MOL0     H86337   6.363   2.130   9.893 -0.2545  0.1514 -0.2795
  640MOL0     H86338   6.377   2.260  10.024  3.9798  1.5557  0.9546
  640MOL0     H86339   6.446   2.421   9.834  0.2811 -0.1402 -3.4270
  640MOL0     H86340   6.399   2.297   9.723 -0.1063 -1.3539 -0.2227
  640MOL0     H86341   6.178   2.305   9.854  0.6516 -0.8042  1.7417
  640MOL0     H86342   6.250   2.447   9.944 -0.4733 -0.1053 -0.2366
  640MOL0     H86343   6.252   2.582   9.759 -0.3369  0.5349 -1.8279
  640MOL0     H86344   6.221   2.452   9.649  0.9791  0.5712  0.0684
  640MOL0     H86345   6.009   2.581   9.695 -0.2472  1.9239  1.8118
  640MOL0     H86346   6.004   2.417   9.737 -1.1514 -0.0778  1.8952
  640MOL0     H86347   6.080   2.574   9.977  0.2731 -0.5091  1.0284
  640MOL0     H86348   5.942   2.644   9.886 -1.0365 -0.8396 -1.5777
  640MOL0     H86349   5.926   2.471  10.085  2.3009  1.9957  0.1570
  640MOL0     H86350   5.933   2.349   9.955 -3.4438 -0.3814 -0.4535
  640MOL0     H86351   5.728   2.646  10.072  1.0706  0.2429  0.0789
  640MOL0     H86352   5.473   2.748   9.911 -1.1595  0.2371  0.6385
  640MOL0     H86353   5.384   2.590   9.872 -1.4985 -0.5430  1.5358
  640MOL0     H86354   5.330   2.728  10.097  0.4278  0.9756  0.8918
  640MOL0     H86355   5.493   2.685  10.140 -1.1043 -0.1674 -0.6325
  640MOL0     H86356   5.359   2.519  10.241  0.7645 -3.0434 -0.7883
  640MOL0     H86357   5.452   2.445  10.122  0.7137  0.8958 -0.8244
  640MOL0     H86358   5.233   2.348  10.146 -2.7533 -0.0927  0.2326
  640MOL0     H86359   5.230   2.441   9.985  0.0095  0.9089  0.1327
  640MOL0     H86360   5.089   2.248  10.078  2.0283  3.3906 -0.9899
  640MOL0     H86361   5.011   2.039  10.089  0.3917  0.2482  0.7510
  640MOL0     H86362   4.864   2.020  10.184 -1.4365  0.3301 -0.4290
  640MOL0     H86363   4.842   2.038  10.011 -2.8417  1.8419  1.7652
  640MOL0     H86364   4.355   2.407  10.365 -3.5259  1.0547 -1.7474
  640MOL0     H86365   4.132   2.344  10.443  0.2821 -0.5169  0.4761
  640MOL0     H86366   4.047   2.051  10.528  0.3154 -0.0795 -0.3335
  640MOL0     H86367   3.940   2.208  10.533  0.2780 -0.2509  0.8758
  640MOL0     H86368   3.852   1.927  10.437 -0.2379  0.6564 -0.2448
  640MOL0     H86369   3.826   1.998  10.594 -2.5824 -2.5588 -0.1139
  640MOL0     H86370   3.630   2.028  10.461  0.0585 -0.5679  3.7346
  640MOL0     H86371   3.735   2.084  10.331 -2.5946  0.8309  0.1604
  640MOL0     H86372   3.722   2.243  10.597  2.7972  3.6582 -0.6530
  640MOL0     H86373   3.767   2.306  10.448  1.7851 -0.3987  0.5611
  640MOL0     H86374   3.492   2.216  10.542 -0.1509  1.6444  1.3621
  640MOL0     H86375   3.513   2.240  10.367 -1.3078 -0.1528  0.3389
  640MOL0     H86376   3.433   2.442  10.530 -0.6092 -0.4278 -0.3148
  640MOL0     H86377   3.591   2.436  10.590 -1.1648 -2.5944  1.5197
  640MOL0     H86378   3.548   2.482  10.300  1.2424  1.0979 -0.2536
  640MOL0     H86379   3.697   2.505  10.397 -0.5360 -5.1635  1.8913
  640MOL0     H86380   3.442   2.668  10.398 -0.2273  1.4967  0.6081
  640MOL0     H86381   3.605   2.716  10.337  0.9204 -1.4595 -0.3745
  640MOL0     H86382   4.145   1.992  10.195  2.0559  0.4251 -3.1454
  640MOL0     H86383   4.375   2.028  10.145  1.1965 -0.7405  1.5676
  640MOL0     H86384   4.662   2.477  10.174 -0.2883 -0.4772 -2.0855
  640MOL0     H86385   4.858   2.602  10.168 -0.0606  0.2891 -1.2107
  640MOL0     H86386   6.817   2.131   9.993  0.4967  2.5431 -1.8341
  640MOL0     H86387   7.030   2.037   9.960  0.3545 -1.6649 -1.0419
  640MOL0     H86388   7.337   1.964   9.840  0.3790  1.4013 -0.7770
  640MOL0     H86389   7.584   1.904   9.881  1.6828  0.6914 -1.1162
  640MOL0     H86390   7.844   1.941   9.692  0.9055 -0.2814 -0.1230
  640MOL0     H86391   7.797   1.924   9.845 -1.2919  1.3216 -1.5936
  640MOL0     H86392   8.045   1.880   9.790  2.0092 -1.2778  0.0436
  640MOL0     H86393   8.000   1.747   9.685  0.2256  1.1712 -0.5261
  640MOL0     H86394   7.918   1.610   9.860  0.8817 -0.0003 -0.5325
  640MOL0     H86395   7.913   1.734   9.976  0.0089  1.8461 -1.3483
  640MOL0     H86396   8.112   1.617  10.041 -2.5307  0.4973  0.7536
  640MOL0     H86397   8.163   1.752   9.946 -0.4665  1.1680 -0.4279
  640MOL0     H86398   8.312   1.428   9.723 -0.9268 -0.8790  0.2394
  640MOL0     H86399   7.601   1.690   9.512 -0.1135 -0.2375  0.7044
  640MOL0     H86400   7.357   1.726   9.487  0.8464  1.5716 -1.3581
  641MOL0     O86401   2.927   3.253   3.442 -1.1709  0.5004 -0.3093
  641MOL0     C86402   2.984   3.203   3.540 -0.1284  0.4237  0.3298
  641MOL0     O86403   2.922   3.156   3.651  0.0756 -0.5245  0.9592
  641MOL0     C86404   2.792   3.184   3.684  0.0140  0.2799  1.5421
  641MOL0     C86405   2.700   3.084   3.718  0.3209  0.3643 -0.4042
  641MOL0     C86406   2.568   3.117   3.741 -0.6394 -0.6942  0.1861
  641MOL0     C86407   2.517   3.246   3.721 -0.3790  0.3838  0.8044
  641MOL0     O86408   2.383   3.265   3.758 -0.4147  0.3327  0.1340
  641MOL0     C86409   2.336   3.402   3.754  0.2198  0.4408 -0.4662
  641MOL0     C86410   2.291   3.453   3.614 -0.1420  0.8724  0.4101
  641MOL0     C86411   2.184   3.561   3.620  0.7374  0.3098 -0.1727
  641MOL0     C86412   2.046   3.504   3.662 -0.3254 -0.6641 -0.0391
  641MOL0     C86413   1.946   3.621   3.682  0.6522  0.2349  0.5063
  641MOL0     C86414   1.798   3.562   3.681 -1.1173  0.2582  0.1228
  641MOL0     C86415   1.697   3.663   3.725 -0.0138  0.2618  0.0901
  641MOL0     C86416   1.696   3.779   3.621  0.0152  0.1309 -0.4958
  641MOL0     N86417   1.615   3.881   3.672 -0.9385  0.2885 -0.0431
  641MOL0     C86418   1.480   3.884   3.687 -0.1123 -0.2703 -0.4183
  641MOL0     C86419   1.442   4.014   3.702 -1.0169 -0.6035  0.5461
  641MOL0     C86420   1.306   4.070   3.711 -0.4074 -0.5348  0.1712
  641MOL0     C86421   1.270   4.137   3.840 -0.2532 -0.0530  0.2971
  641MOL0     C86422   1.150   4.229   3.836 -0.4521 -0.1757 -0.1939
  641MOL0     C86423   1.015   4.155   3.821  0.5166  0.2899 -0.6178
  641MOL0     O86424   0.969   4.108   3.947  0.5020 -0.1995 -1.0154
  641MOL0     C86425   0.845   4.043   3.944  0.2544  0.0400 -0.5119
  641MOL0     C86426   0.787   4.013   4.069  0.6794  0.2812  0.6866
  641MOL0     C86427   0.655   3.981   4.085  0.9515  0.2024  0.8371
  641MOL0     C86428   0.600   3.981   4.226  0.6525  0.1953  0.0024
  641MOL0     C86429   0.575   3.952   3.971 -0.4849 -0.0875 -0.1431
  641MOL0     C86430   0.425   3.925   3.963 -0.3496 -0.0467 -0.3379
  641MOL0     O86431   0.354   3.889   4.078 -0.0223 -0.2568 -0.0948
  641MOL0     C86432   0.219   3.864   4.082 -1.0130  0.0440 -0.0660
  641MOL0     C86433   0.185   3.777   4.182  0.2539  0.6539 -0.1306
  641MOL0     C86434   0.050   3.744   4.205 -0.0930  0.2775 -0.1865
  641MOL0     C86435  -0.052   3.804   4.130 -0.5664 -0.0105 -0.2147
  641MOL0     O86436  -0.178   3.755   4.159  0.4069 -0.4881  0.1115
  641MOL0     C86437  -0.289   3.801   4.084  0.1733 -0.3387 -0.1897
  641MOL0     C86438  -0.406   3.714   4.075 -0.4687  0.7502 -0.0248
  641MOL0     C86439  -0.510   3.768   3.983 -0.2500  0.2306  0.2478
  641MOL0     C86440  -0.655   3.740   4.022 -0.3427  0.0343  0.0699
  641MOL0     C86441  -0.719   3.611   3.963  0.1554  0.7649  0.5615
  641MOL0     C86442  -0.859   3.583   4.007  0.4798 -0.3691  0.6904
  641MOL0     C86443  -0.929   3.483   3.917 -0.7390  0.2066 -1.3219
  641MOL0     C86444  -0.864   3.344   3.933 -0.1090 -0.0823  0.1180
  641MOL0    Cl86445  -0.918   3.275   4.087 -0.3305  0.9339 -0.2021
  641MOL0     C86446  -0.013   3.887   4.021 -0.1506  0.1475 -1.3604
  641MOL0     C86447   0.123   3.933   4.006 -1.3334  0.2525  0.4966
  641MOL0     O86448   0.369   3.938   3.850  0.6907  0.6523  0.5472
  641MOL0     C86449   0.632   3.958   3.841 -0.3515 -1.0667  0.4647
  641MOL0     C86450   0.769   4.013   3.831  0.0054  0.6641  0.0139
  641MOL0     N86451   1.564   4.091   3.690  0.0430  0.1360 -0.7101
  641MOL0     N86452   1.659   4.007   3.673 -0.5784 -0.3198 -0.4653
  641MOL0     C86453   2.610   3.348   3.681  0.9927  0.2320 -0.3739
  641MOL0     C86454   2.744   3.317   3.664  0.7198 -0.2929  1.7818
  641MOL0     C86455   3.132   3.181   3.537  0.5373  0.0345  0.9278
  641MOL0     C86456   3.205   3.184   3.655  0.4217 -0.5356 -0.1779
  641MOL0     C86457   3.344   3.165   3.643  0.7561  0.7809  0.5587
  641MOL0     C86458   3.409   3.155   3.520 -0.3940  0.5558  0.3863
  641MOL0     O86459   3.552   3.153   3.505  0.4966  0.3985 -0.5385
  641MOL0     C86460   3.628   3.168   3.622 -0.1763  0.1568 -0.7877
  641MOL0     C86461   3.774   3.168   3.592  0.0233 -0.5644  0.3414
  641MOL0     C86462   3.830   3.267   3.492 -0.7212 -0.3928  1.0591
  641MOL0     C86463   3.983   3.283   3.505  0.4993 -0.6859  1.1121
  641MOL0     C86464   4.038   3.315   3.373 -0.8781 -0.3432 -0.6645
  641MOL0     C86465   4.108   3.354   3.288 -0.2254 -0.0436  0.3065
  641MOL0     C86466   3.335   3.142   3.403  0.2314 -0.2971 -0.1040
  641MOL0     C86467   3.197   3.157   3.410  0.5927  0.2104 -0.1503
  641MOL0     H86468   2.742   2.986   3.732 -0.3874  0.1864  0.5711
  641MOL0     H86469   2.491   3.047   3.769 -0.6234 -0.3651  1.0756
  641MOL0     H86470   2.247   3.402   3.817 -1.3699 -0.2382 -2.5873
  641MOL0     H86471   2.413   3.468   3.795 -0.7139  3.6224 -3.3781
  641MOL0     H86472   2.369   3.490   3.547 -0.0242  0.7413  0.4743
  641MOL0     H86473   2.259   3.363   3.561  0.6780 -0.3430  1.9266
  641MOL0     H86474   2.207   3.637   3.695  1.2835 -2.2959  2.4904
  641MOL0     H86475   2.169   3.608   3.523 -2.4556 -3.6443 -1.8825
  641MOL0     H86476   2.009   3.439   3.582 -2.6953 -0.5173  0.8750
  641MOL0     H86477   2.051   3.445   3.754  0.8292 -0.2285  0.2031
  641MOL0     H86478   1.975   3.680   3.769  0.9229 -2.8257  2.6720
  641MOL0     H86479   1.956   3.686   3.595 -0.8003 -1.3662 -0.9392
  641MOL0     H86480   1.776   3.529   3.580  2.4649 -0.0001 -0.7127
  641MOL0     H86481   1.803   3.476   3.749 -0.1272  0.2615  0.0624
  641MOL0     H86482   1.600   3.620   3.753  0.7162 -1.8448 -0.4254
  641MOL0     H86483   1.736   3.706   3.818 -3.5350  2.7587  0.5958
  641MOL0     H86484   1.651   3.741   3.529  0.5527  1.1913 -1.2202
  641MOL0     H86485   1.793   3.827   3.609  0.3058  0.2164  1.6711
  641MOL0     H86486   1.412   3.800   3.676 -0.6481  0.0593  0.3654
  641MOL0     H86487   1.292   4.137   3.626  1.4244  0.9770  0.9984
  641MOL0     H86488   1.235   3.987   3.703 -0.6050 -0.5437  1.7852
  641MOL0     H86489   1.341   4.207   3.885 -3.8367  2.0382  3.2505
  641MOL0     H86490   1.267   4.057   3.914 -0.6814 -0.7883 -0.4901
  641MOL0     H86491   1.155   4.298   3.752 -1.2985  0.2748  0.1079
  641MOL0     H86492   1.155   4.290   3.927  3.2829  1.9316 -1.6149
  641MOL0     H86493   1.022   4.071   3.752  0.8310 -0.1539 -0.0536
  641MOL0     H86494   0.949   4.229   3.775  2.1993  1.4625 -1.2704
  641MOL0     H86495   0.850   4.041   4.153 -0.1947 -0.2261  1.5299
  641MOL0     H86496   0.518   4.049   4.247  1.4928  0.7859  1.5658
  641MOL0     H86497   0.565   3.882   4.257 -2.4391  1.3003  0.3625
  641MOL0     H86498   0.680   4.022   4.289  0.0077  0.8969  0.3713
  641MOL0     H86499   0.256   3.726   4.246  0.0876  0.1878 -0.3119
  641MOL0     H86500   0.017   3.680   4.286  1.9497 -0.3588  0.1864
  641MOL0     H86501  -0.322   3.895   4.129  1.9517 -0.5612  1.6895
  641MOL0     H86502  -0.254   3.829   3.984  2.3530 -0.6718  0.4380
  641MOL0     H86503  -0.372   3.616   4.040  1.7402  1.3860  0.1962
  641MOL0     H86504  -0.437   3.696   4.178  2.6170 -0.1070  0.8524
  641MOL0     H86505  -0.495   3.740   3.879 -0.3140  0.0099  0.2971
  641MOL0     H86506  -0.505   3.876   4.003 -1.8848  0.2233  0.8754
  641MOL0     H86507  -0.665   3.736   4.131 -0.4917  0.4048  0.0679
  641MOL0     H86508  -0.712   3.821   3.978  0.8894  1.5391  1.1481
  641MOL0     H86509  -0.649   3.530   3.984  0.5356  0.6747 -0.9644
  641MOL0     H86510  -0.724   3.624   3.855  1.5000  1.4756  0.5627
  641MOL0     H86511  -0.867   3.552   4.112  0.6459  1.0461  1.1363
  641MOL0     H86512  -0.916   3.675   3.997 -1.1163 -1.3356  0.5598
  641MOL0     H86513  -0.917   3.514   3.813  0.0510  1.9157 -0.7535
  641MOL0     H86514  -1.033   3.476   3.950  0.6971 -1.7142  3.8449
  641MOL0     H86515  -0.755   3.335   3.931 -0.2624 -3.2141  0.7305
  641MOL0     H86516  -0.901   3.278   3.854 -0.5054  0.6602 -0.3261
  641MOL0     H86517  -0.093   3.922   3.957 -1.7363 -1.7651 -0.5450
  641MOL0     H86518   0.153   4.004   3.929  1.0982 -1.8621 -0.6865
  641MOL0     H86519   0.578   3.941   3.748 -0.1424 -3.0228  0.6590
  641MOL0     H86520   0.806   4.035   3.731  3.7725 -1.4208  0.7734
  641MOL0     H86521   2.575   3.449   3.665 -1.6612 -0.8518 -2.1206
  641MOL0     H86522   2.809   3.398   3.631 -1.0399  0.7021  0.5664
  641MOL0     H86523   3.151   3.198   3.748 -0.8709 -1.0502 -0.8295
  641MOL0     H86524   3.399   3.170   3.736  0.7397 -0.8607  0.6866
  641MOL0     H86525   3.600   3.268   3.657 -0.1360  0.0153 -0.3467
  641MOL0     H86526   3.605   3.094   3.699 -0.4088  1.1481  0.1162
  641MOL0     H86527   3.799   3.067   3.560  0.1376  0.1088 -1.8117
  641MOL0     H86528   3.834   3.189   3.682 -0.7772  1.7870  0.4070
  641MOL0     H86529   3.791   3.365   3.519  1.1370  0.5800  0.3396
  641MOL0     H86530   3.807   3.257   3.386  1.0165  0.0389  0.6209
  641MOL0     H86531   4.024   3.186   3.533 -0.3067 -0.7570  2.0918
  641MOL0     H86532   4.015   3.353   3.582  0.2848 -0.9670  1.4576
  641MOL0     H86533   4.176   3.392   3.215 -1.2478  2.0682  0.3756
  641MOL0     H86534   3.383   3.120   3.308 -2.2967 -1.7559 -1.1584
  641MOL0     H86535   3.122   3.150   3.331 -0.5676  0.1586  0.9197
  642MOL0     O86536   1.557   1.369  10.869 -0.0993  0.0662  0.8131
  642MOL0     C86537   1.601   1.265  10.842  0.9782  1.0775 -0.1474
  642MOL0     O86538   1.545   1.146  10.872  0.1593 -0.3952  0.0150
  642MOL0     C86539   1.413   1.139  10.924  0.5380 -0.3421 -1.2797
  642MOL0     C86540   1.373   1.040  11.009  0.0710 -1.0020  0.7902
  642MOL0     C86541   1.241   1.036  11.063 -0.1780  0.4622 -0.4291
  642MOL0     C86542   1.146   1.138  11.031  0.5967 -0.0769  0.1055
  642MOL0     O86543   1.026   1.148  11.101  0.2562 -0.3915 -0.3979
  642MOL0     C86544   0.915   1.195  11.034 -0.6111 -0.5399  0.0234
  642MOL0     C86545   0.787   1.175  11.123  0.1833 -0.1261  0.2571
  642MOL0     C86546   0.666   1.217  11.040 -0.1279 -0.7413  0.4860
  642MOL0     C86547   0.664   1.370  11.010  0.2280 -0.1615 -0.3266
  642MOL0     C86548   0.526   1.434  10.975  0.2207 -0.5247  0.0960
  642MOL0     C86549   0.496   1.417  10.828 -0.8896  0.1542  0.1609
  642MOL0     C86550   0.374   1.492  10.768 -0.1370 -0.4522 -0.0342
  642MOL0     C86551   0.248   1.455  10.842  0.6858  0.2985 -0.3405
  642MOL0     N86552   0.131   1.536  10.797  0.8473  0.0296 -0.1478
  642MOL0     C86553   0.086   1.650  10.856 -0.9813  0.0259 -1.3203
  642MOL0     C86554  -0.018   1.678  10.784 -0.2479  0.6792  0.7821
  642MOL0     C86555  -0.099   1.786  10.841 -0.2019 -0.8328 -0.5383
  642MOL0     C86556  -0.016   1.924  10.860  0.6812  0.5650 -0.2190
  642MOL0     C86557  -0.113   2.040  10.866 -0.1099 -0.9821 -0.0210
  642MOL0     C86558  -0.228   2.040  10.959  0.6968 -0.7233 -0.8774
  642MOL0     O86559  -0.292   2.166  10.934  1.0055  0.2284 -0.3058
  642MOL0     C86560  -0.427   2.188  10.971 -0.5310 -0.5262  0.6724
  642MOL0     C86561  -0.458   2.187  11.103  0.3049 -0.0278 -0.2490
  642MOL0     C86562  -0.591   2.207  11.143  0.4744  0.0969  0.2828
  642MOL0     C86563  -0.601   2.221  11.291  0.1571 -0.3662 -0.7554
  642MOL0     C86564  -0.697   2.229  11.055 -0.5793 -0.1552  1.2436
  642MOL0     C86565  -0.837   2.261  11.091 -0.2484  0.4881 -0.0455
  642MOL0     O86566  -0.924   2.250  10.981 -0.2586 -0.9175  0.3293
  642MOL0     C86567  -1.062   2.257  10.987 -0.2881  0.6104 -0.2335
  642MOL0     C86568  -1.141   2.252  11.102 -0.6567 -0.3513  0.6456
  642MOL0     C86569  -1.286   2.261  11.096 -0.1175  0.2410 -0.5135
  642MOL0     C86570  -1.339   2.284  10.969 -1.0012  0.0877  0.6361
  642MOL0     O86571  -1.466   2.301  10.940  0.3606 -0.7705 -0.6707
  642MOL0     C86572  -1.568   2.265  11.036 -0.6318  0.4210 -0.7846
  642MOL0     C86573  -1.699   2.320  10.987  1.3013 -0.3707 -0.6233
  642MOL0     C86574  -1.816   2.291  11.070  0.8070 -0.0457  0.0535
  642MOL0     C86575  -1.952   2.359  11.029  0.5081 -0.6253  0.3220
  642MOL0     C86576  -2.060   2.307  11.125  0.1261 -0.2090  0.2355
  642MOL0     C86577  -2.198   2.359  11.074 -0.0810 -0.2032  0.1686
  642MOL0     C86578  -2.247   2.261  10.970 -0.1652  0.1763 -0.1745
  642MOL0     C86579  -2.379   2.297  10.903 -0.0764  0.8248  0.6763
  642MOL0    Cl86580  -2.384   2.449  10.809 -0.3177  0.4638 -0.2127
  642MOL0     C86581  -1.257   2.289  10.854 -0.0031 -1.1239 -0.5189
  642MOL0     C86582  -1.121   2.280  10.863  0.5563 -0.4892  0.9396
  642MOL0     O86583  -0.873   2.295  11.206  0.2782  0.3734  0.3233
  642MOL0     C86584  -0.658   2.225  10.920 -0.4461 -0.6980  0.3668
  642MOL0     C86585  -0.529   2.206  10.881 -1.2727  0.7309  0.4242
  642MOL0     N86586  -0.054   1.579  10.694 -0.3932 -0.1590 -0.2825
  642MOL0     N86587   0.043   1.495  10.697 -0.4811 -0.2049  0.4561
  642MOL0     C86588   1.180   1.235  10.936  0.5511  0.1830  0.2469
  642MOL0     C86589   1.309   1.237  10.882 -1.0046  0.7696 -0.2821
  642MOL0     C86590   1.731   1.262  10.765  1.1344  0.5795  0.6232
  642MOL0     C86591   1.817   1.152  10.764  0.1853 -0.2845  1.1209
  642MOL0     C86592   1.941   1.153  10.696  0.2112 -0.2630 -0.8219
  642MOL0     C86593   1.983   1.262  10.627  0.5607  0.3975 -0.6372
  642MOL0     O86594   2.103   1.283  10.562  0.7388 -0.3363  0.3738
  642MOL0     C86595   2.193   1.170  10.557 -0.6107  0.0000  0.7993
  642MOL0     C86596   2.274   1.180  10.684 -0.1662 -0.3747 -0.0019
  642MOL0     C86597   2.364   1.058  10.706 -0.2656 -0.1318 -0.5958
  642MOL0     C86598   2.479   1.039  10.612  0.0863  1.0363 -0.2069
  642MOL0     C86599   2.567   0.920  10.644 -0.4894  0.1917  0.5670
  642MOL0     C86600   2.645   0.828  10.647  0.5169  0.1131  0.2699
  642MOL0     C86601   1.899   1.380  10.629  0.0028  0.5885 -0.5526
  642MOL0     C86602   1.777   1.376  10.691  0.3157  0.7220  0.2242
  642MOL0     H86603   1.445   0.963  11.037  0.1454 -1.4247 -0.4782
  642MOL0     H86604   1.216   0.960  11.137  0.6009  0.4719 -0.1455
  642MOL0     H86605   0.929   1.300  11.006  1.2530 -0.7973 -0.1121
  642MOL0     H86606   0.893   1.140  10.942  1.5058  2.0574 -2.2201
  642MOL0     H86607   0.773   1.069  11.145  0.8045 -0.1086  0.7641
  642MOL0     H86608   0.783   1.242  11.209  0.5917  0.0384  0.1523
  642MOL0     H86609   0.651   1.158  10.948 -0.3107  0.6842 -0.4368
  642MOL0     H86610   0.576   1.188  11.096 -0.3170 -1.0043  0.0586
  642MOL0     H86611   0.687   1.418  11.105  0.0221 -1.4685  0.4164
  642MOL0     H86612   0.749   1.394  10.946  2.5036 -2.6882  1.4893
  642MOL0     H86613   0.456   1.369  11.029  1.3916 -1.0322  1.0628
  642MOL0     H86614   0.512   1.533  11.021 -1.9014 -0.7697  0.0736
  642MOL0     H86615   0.586   1.444  10.773 -0.4088  0.4973  1.1035
  642MOL0     H86616   0.495   1.311  10.799 -1.0611  0.6979 -1.9647
  642MOL0     H86617   0.386   1.600  10.781 -0.6595 -0.5520  1.4347
  642MOL0     H86618   0.348   1.461  10.666 -0.8746 -1.2193  0.3711
  642MOL0     H86619   0.262   1.462  10.951  2.5677  2.1060 -0.6506
  642MOL0     H86620   0.225   1.350  10.821 -0.1161 -0.2999  2.8590
  642MOL0     H86621   0.115   1.701  10.947 -0.2158 -0.0832 -1.4930
  642MOL0     H86622  -0.176   1.812  10.767  1.7924 -0.9702 -2.8014
  642MOL0     H86623  -0.135   1.754  10.939 -1.2307  1.1021 -0.2144
  642MOL0     H86624   0.057   1.938  10.780  0.2410  3.1679 -0.2228
  642MOL0     H86625   0.035   1.921  10.957  0.6216 -0.4612 -0.2069
  642MOL0     H86626  -0.144   2.068  10.765  0.5903  3.6431  0.7989
  642MOL0     H86627  -0.053   2.130  10.887 -0.8396  0.1644 -2.5066
  642MOL0     H86628  -0.188   2.041  11.061  2.7999  1.8433 -1.5990
  642MOL0     H86629  -0.292   1.952  10.950  0.3489 -0.3906 -1.7645
  642MOL0     H86630  -0.386   2.174  11.183  0.2994  0.5779 -0.1420
  642MOL0     H86631  -0.590   2.323  11.327 -0.1021 -0.3132 -0.8283
  642MOL0     H86632  -0.695   2.171  11.316  1.9172 -2.8251  1.5380
  642MOL0     H86633  -0.516   2.163  11.330 -0.4340 -2.0214 -1.7831
  642MOL0     H86634  -1.087   2.229  11.193  1.2431 -0.7241 -0.5157
  642MOL0     H86635  -1.350   2.263  11.183 -1.6369 -1.2595 -1.5308
  642MOL0     H86636  -1.589   2.159  11.051 -0.2922  0.5077  0.4223
  642MOL0     H86637  -1.552   2.312  11.134  0.3275  0.9186 -1.1636
  642MOL0     H86638  -1.680   2.428  10.987  2.4368 -0.5556  0.1197
  642MOL0     H86639  -1.715   2.278  10.888 -1.4013 -0.6707 -0.1381
  642MOL0     H86640  -1.798   2.304  11.177 -0.0773  1.9274  0.0138
  642MOL0     H86641  -1.826   2.184  11.047  0.6422  0.1457 -0.7858
  642MOL0     H86642  -1.945   2.466  11.050  0.7244 -0.7647  0.9847
  642MOL0     H86643  -1.959   2.336  10.922  3.0186  0.3798 -0.1353
  642MOL0     H86644  -2.032   2.330  11.228 -0.0620 -1.3119  0.5445
  642MOL0     H86645  -2.057   2.198  11.124  3.5586 -0.2180  0.8398
  642MOL0     H86646  -2.261   2.362  11.164 -2.9028  0.5962 -1.6760
  642MOL0     H86647  -2.203   2.464  11.042 -2.5331  0.4653  2.3840
  642MOL0     H86648  -2.240   2.158  11.006  1.6285 -0.0551 -1.0435
  642MOL0     H86649  -2.176   2.263  10.886 -0.5037  2.6128 -0.4980
  642MOL0     H86650  -2.452   2.300  10.984 -1.0356  0.4063 -0.1504
  642MOL0     H86651  -2.400   2.205  10.847 -0.1592 -0.9341  3.3973
  642MOL0     H86652  -1.305   2.318  10.760  1.9772  1.6341 -0.8102
  642MOL0     H86653  -1.056   2.282  10.777 -0.3719 -1.5663  0.1732
  642MOL0     H86654  -0.731   2.240  10.841 -0.1305  0.7238  0.3202
  642MOL0     H86655  -0.513   2.181  10.776  2.0429  0.8610  0.7939
  642MOL0     H86656   1.121   1.326  10.928  2.4143  1.6417  1.7149
  642MOL0     H86657   1.322   1.313  10.807  0.0487  1.9530  1.0458
  642MOL0     H86658   1.791   1.062  10.819  0.6317  0.6277  2.8885
  642MOL0     H86659   2.005   1.068  10.718  0.7854  0.7823  2.0953
  642MOL0     H86660   2.153   1.069  10.542  0.4309 -0.8022  2.9311
  642MOL0     H86661   2.278   1.180  10.489  0.3248  1.8767  2.1612
  642MOL0     H86662   2.218   1.191  10.777  2.7616 -0.6538  1.9067
  642MOL0     H86663   2.341   1.267  10.685 -0.3569 -0.2303  0.7745
  642MOL0     H86664   2.309   0.964  10.705  0.2809 -0.5296  1.6530
  642MOL0     H86665   2.418   1.070  10.800 -1.6859 -2.1758  0.5453
  642MOL0     H86666   2.550   1.121  10.620  1.8765 -0.5110  0.3527
  642MOL0     H86667   2.430   1.028  10.515 -0.9265  0.0818  0.3918
  642MOL0     H86668   2.718   0.750  10.640 -1.5733 -1.8215 -1.8351
  642MOL0     H86669   1.914   1.471  10.571 -2.3225 -0.6153 -3.3227
  642MOL0     H86670   1.714   1.464  10.694 -0.3549  0.2882 -0.5679
  643MOL0     O86671   2.486   6.916   1.547  0.1638 -0.0259 -0.9732
  643MOL0     C86672   2.527   6.804   1.526 -1.0143  0.1523  0.7790
  643MOL0     O86673   2.458   6.696   1.486 -0.0853  0.3589  0.6858
  643MOL0     C86674   2.329   6.717   1.442 -0.1281  0.2866  0.5229
  643MOL0     C86675   2.298   6.793   1.325 -0.2286  0.8826 -0.2062
  643MOL0     C86676   2.166   6.818   1.284 -0.0070 -0.4691  0.4358
  643MOL0     C86677   2.062   6.763   1.359 -0.7823  0.1106  1.2975
  643MOL0     O86678   1.940   6.797   1.307  0.3647 -1.2580 -0.0858
  643MOL0     C86679   1.827   6.787   1.407 -0.4170 -0.9054  0.2803
  643MOL0     C86680   1.708   6.866   1.356  0.0041 -0.1369  0.5946
  643MOL0     C86681   1.610   6.907   1.462 -0.1104 -0.1279 -0.5295
  643MOL0     C86682   1.547   7.043   1.435  0.8820  0.9242 -0.5770
  643MOL0     C86683   1.426   7.057   1.538  0.2250 -0.2352  0.1688
  643MOL0     C86684   1.362   7.191   1.541  0.0546 -0.8800  0.6635
  643MOL0     C86685   1.315   7.244   1.400 -0.3921 -0.7097  0.0863
  643MOL0     C86686   1.227   7.372   1.411  0.7899  0.6926 -0.2293
  643MOL0     N86687   1.286   7.497   1.472  0.1281  0.0931 -0.3637
  643MOL0     C86688   1.398   7.566   1.438 -1.2062  0.7025  0.4338
  643MOL0     C86689   1.393   7.676   1.517 -0.5101  0.4393 -0.6537
  643MOL0     C86690   1.478   7.795   1.514  1.3230  0.1918 -0.4753
  643MOL0     C86691   1.630   7.760   1.504  1.2228 -0.0402 -0.8249
  643MOL0     C86692   1.683   7.706   1.635 -0.3341  0.1613 -0.1035
  643MOL0     C86693   1.837   7.671   1.623 -0.5696 -0.3601  0.1175
  643MOL0     O86694   1.922   7.790   1.621  0.1857 -0.4820  0.8071
  643MOL0     C86695   2.051   7.783   1.563  0.5783  0.3440  0.0406
  643MOL0     C86696   2.097   7.686   1.474 -0.5080  0.0985  0.4705
  643MOL0     C86697   2.227   7.688   1.422  0.3081  0.7945 -0.1692
  643MOL0     C86698   2.259   7.574   1.320 -0.3076  0.2358  0.8388
  643MOL0     C86699   2.305   7.801   1.436  0.2043  0.4053 -0.5381
  643MOL0     C86700   2.446   7.816   1.375  0.0314  0.0434  0.5622
  643MOL0     O86701   2.502   7.718   1.280  0.7270 -0.0985  0.1491
  643MOL0     C86702   2.605   7.750   1.193 -0.5860 -0.2293  0.5424
  643MOL0     C86703   2.609   7.866   1.109 -0.2165 -0.2964  0.6401
  643MOL0     C86704   2.710   7.886   1.007  0.0700  0.3212 -0.7040
  643MOL0     C86705   2.808   7.795   1.000  0.2276  0.5156  0.2287
  643MOL0     O86706   2.914   7.824   0.921  0.1537 -1.0912  0.1233
  643MOL0     C86707   3.025   7.894   0.985 -0.0222  0.0703  0.6900
  643MOL0     C86708   3.124   7.934   0.875 -0.4431 -0.1100 -0.0217
  643MOL0     C86709   3.230   8.028   0.942 -0.3319 -0.4934 -0.4007
  643MOL0     C86710   3.362   8.061   0.859  0.0453  0.7578 -0.5619
  643MOL0     C86711   3.454   7.947   0.861  0.2440 -0.5155 -0.2695
  643MOL0     C86712   3.570   7.960   0.757 -0.2779  0.2946 -0.6184
  643MOL0     C86713   3.670   8.071   0.794 -0.3148  0.3177 -0.3539
  643MOL0     C86714   3.799   8.057   0.700  0.6697 -0.0525 -0.7628
  643MOL0    Cl86715   3.921   8.166   0.773 -0.3172 -0.0050 -0.1275
  643MOL0     C86716   2.798   7.678   1.072  0.3353  0.3547  0.5006
  643MOL0     C86717   2.701   7.649   1.165  0.0464  0.3421 -0.3188
  643MOL0     O86718   2.506   7.924   1.396 -0.1170  0.6191 -0.5217
  643MOL0     C86719   2.253   7.905   1.518 -0.4841  0.7574  0.4248
  643MOL0     C86720   2.130   7.895   1.576  0.6332 -0.1912  0.6096
  643MOL0     N86721   1.303   7.657   1.615  0.7041  0.5563 -0.6657
  643MOL0     N86722   1.233   7.554   1.588  0.5724  0.3726 -0.7358
  643MOL0     C86723   2.091   6.679   1.468 -0.5222  0.0623  0.4109
  643MOL0     C86724   2.225   6.647   1.510 -0.2744  0.1713 -0.9144
  643MOL0     C86725   2.674   6.800   1.539 -0.1163  0.2813  0.3226
  643MOL0     C86726   2.750   6.910   1.577  0.2537 -0.7018 -0.2333
  643MOL0     C86727   2.885   6.905   1.595 -0.5145  0.0767  0.0563
  643MOL0     C86728   2.954   6.792   1.571 -0.3652 -0.1905  0.2823
  643MOL0     O86729   3.088   6.788   1.583  0.2651 -0.2892  0.1366
  643MOL0     C86730   3.163   6.665   1.578  0.6164 -0.6117  0.3450
  643MOL0     C86731   3.307   6.695   1.571 -0.4695 -0.1869 -0.3375
  643MOL0     C86732   3.344   6.727   1.430 -0.8474  0.8724  0.5067
  643MOL0     C86733   3.488   6.760   1.406 -1.0814  0.5813  0.8764
  643MOL0     C86734   3.533   6.874   1.486  0.1339  0.0899 -0.3343
  643MOL0     C86735   3.564   6.966   1.553  0.2414 -0.0706 -0.4336
  643MOL0     C86736   2.881   6.680   1.542 -0.2447 -0.7998  0.5544
  643MOL0     C86737   2.738   6.675   1.523  0.9464 -0.6439  0.1712
  643MOL0     H86738   2.374   6.841   1.264  2.3462  0.0074  2.1020
  643MOL0     H86739   2.139   6.887   1.205 -1.0904  0.3872  1.5176
  643MOL0     H86740   1.792   6.684   1.414 -0.9974 -0.7121  0.2752
  643MOL0     H86741   1.866   6.831   1.499 -0.3396  0.4100 -0.3513
  643MOL0     H86742   1.756   6.952   1.309  1.0935 -1.3002 -0.5057
  643MOL0     H86743   1.651   6.815   1.279 -0.3425 -1.1292  1.4902
  643MOL0     H86744   1.539   6.824   1.457 -1.3684  0.9372 -0.9362
  643MOL0     H86745   1.656   6.909   1.562 -2.2075 -0.6773  0.5004
  643MOL0     H86746   1.619   7.123   1.455  1.8875  0.0630 -0.6682
  643MOL0     H86747   1.514   7.055   1.331 -0.6412  2.3948  0.0397
  643MOL0     H86748   1.347   6.993   1.497 -2.5407  2.9353  0.1834
  643MOL0     H86749   1.446   7.019   1.640  0.3853  1.4790  0.8015
  643MOL0     H86750   1.276   7.185   1.608 -1.5301 -0.1203 -1.2054
  643MOL0     H86751   1.434   7.263   1.582 -0.3701  1.2987 -2.1162
  643MOL0     H86752   1.408   7.276   1.352 -1.7829  1.1247 -1.5153
  643MOL0     H86753   1.269   7.164   1.342  1.5718 -1.6051 -0.3223
  643MOL0     H86754   1.131   7.350   1.458  1.1647 -0.8967 -0.1449
  643MOL0     H86755   1.212   7.400   1.306  2.6146  0.1482 -0.6826
  643MOL0     H86756   1.461   7.542   1.353 -0.2841  0.7960  1.0739
  643MOL0     H86757   1.449   7.852   1.425 -0.9839 -2.4921 -1.6015
  643MOL0     H86758   1.459   7.854   1.603 -1.3031  0.1320 -0.9398
  643MOL0     H86759   1.680   7.852   1.474  0.2811  0.2508 -1.5509
  643MOL0     H86760   1.649   7.695   1.418  2.1037 -0.2269 -0.4944
  643MOL0     H86761   1.618   7.624   1.666  1.0846 -1.1416 -0.4545
  643MOL0     H86762   1.681   7.780   1.716  2.4479 -1.1655  1.3255
  643MOL0     H86763   1.851   7.592   1.548  2.7564 -0.3412  0.5788
  643MOL0     H86764   1.865   7.623   1.717 -0.7148  0.7861  0.7635
  643MOL0     H86765   2.036   7.599   1.454 -0.9834  0.5397 -0.0387
  643MOL0     H86766   2.272   7.627   1.226  1.6901 -2.2658 -0.4410
  643MOL0     H86767   2.357   7.535   1.352 -0.0730  0.5651  0.5263
  643MOL0     H86768   2.187   7.493   1.309  1.8427 -1.7325  0.2869
  643MOL0     H86769   2.539   7.948   1.123  0.1865  0.1721 -0.0177
  643MOL0     H86770   2.718   7.977   0.948  0.9822 -0.1605 -1.3405
  643MOL0     H86771   2.991   7.977   1.048 -0.5163 -0.8362  1.6524
  643MOL0     H86772   3.074   7.822   1.051  1.5144  0.6242  0.1961
  643MOL0     H86773   3.171   7.851   0.821  1.9220  0.5513  0.8918
  643MOL0     H86774   3.064   7.989   0.802 -0.1634 -1.1691 -1.0864
  643MOL0     H86775   3.262   7.992   1.040 -1.8716  2.5579  1.3815
  643MOL0     H86776   3.178   8.122   0.964  1.6360  0.4983  0.3007
  643MOL0     H86777   3.332   8.085   0.757  1.3581  0.5833 -1.0087
  643MOL0     H86778   3.411   8.145   0.909  0.0923 -0.6601  1.9692
  643MOL0     H86779   3.395   7.857   0.841  0.2676 -0.5183 -0.3269
  643MOL0     H86780   3.503   7.922   0.955 -2.1716 -1.6525  0.7765
  643MOL0     H86781   3.626   7.866   0.749 -2.2299 -0.7897 -2.5494
  643MOL0     H86782   3.526   7.973   0.658 -0.4131  0.6314 -0.5144
  643MOL0     H86783   3.692   8.053   0.900  2.0942 -3.3949 -1.2846
  643MOL0     H86784   3.635   8.173   0.775  2.2313  0.8794 -2.5186
  643MOL0     H86785   3.786   8.079   0.594  2.0229  1.1014 -0.7172
  643MOL0     H86786   3.842   7.957   0.710 -1.1109 -0.7552  0.4128
  643MOL0     H86787   2.875   7.605   1.046  0.4242  0.9314 -0.9385
  643MOL0     H86788   2.703   7.555   1.219 -1.1912  0.1155 -0.6354
  643MOL0     H86789   2.312   7.994   1.536  1.1731 -0.8821  4.0120
  643MOL0     H86790   2.083   7.979   1.627 -0.1380 -0.3378  0.1558
  643MOL0     H86791   2.009   6.644   1.529  0.1260  1.3658  2.0817
  643MOL0     H86792   2.252   6.598   1.603 -0.3532  2.4835  0.3986
  643MOL0     H86793   2.692   6.999   1.598 -2.1290 -1.6367 -2.3036
  643MOL0     H86794   2.933   7.000   1.614  2.9787 -1.6895  0.9507
  643MOL0     H86795   3.139   6.609   1.669 -1.6641 -0.5319 -0.1326
  643MOL0     H86796   3.148   6.602   1.490  0.3508  2.5136 -2.0308
  643MOL0     H86797   3.365   6.605   1.596 -2.6647 -1.2586  1.1743
  643MOL0     H86798   3.324   6.784   1.632 -2.4973  0.7679 -1.0789
  643MOL0     H86799   3.282   6.811   1.397 -2.0459 -0.2944 -0.3297
  643MOL0     H86800   3.334   6.636   1.369 -1.3736  0.5559  1.0600
  643MOL0     H86801   3.505   6.784   1.300 -4.3694  1.3767  0.4243
  643MOL0     H86802   3.546   6.672   1.433 -1.4534  0.8711  2.7303
  643MOL0     H86803   3.601   7.048   1.612 -0.2105  0.7044 -1.2123
  643MOL0     H86804   2.929   6.583   1.529 -0.2999 -0.8400  0.6537
  643MOL0     H86805   2.677   6.587   1.507  0.9370 -1.1219  2.5799
  644MOL0     O86806   0.282  10.456   3.426 -1.0497  0.1337  0.2626
  644MOL0     C86807   0.275  10.550   3.511  0.6373 -0.4684  0.3724
  644MOL0     O86808   0.170  10.575   3.597 -0.5770  0.1456 -0.1658
  644MOL0     C86809   0.097  10.466   3.623 -0.0508  0.2232 -0.5392
  644MOL0     C86810   0.156  10.345   3.662 -0.6109 -0.0556 -0.7904
  644MOL0     C86811   0.086  10.244   3.718  0.7616 -0.1372  0.0819
  644MOL0     C86812  -0.048  10.259   3.737 -0.9045 -0.1442  0.8067
  644MOL0     O86813  -0.127  10.169   3.789 -0.2881 -0.1668 -0.0301
  644MOL0     C86814  -0.071  10.074   3.885  0.1093 -1.2994  0.5155
  644MOL0     C86815  -0.172  10.025   3.980  0.2900  0.5907 -0.7128
  644MOL0     C86816  -0.294   9.964   3.901  0.1137 -0.3273  0.0220
  644MOL0     C86817  -0.420   9.937   3.987  0.0656  0.4210  0.7568
  644MOL0     C86818  -0.520   9.843   3.922 -0.7172  0.5990 -0.3226
  644MOL0     C86819  -0.646   9.819   4.013  0.4716 -0.9078  0.5946
  644MOL0     C86820  -0.742   9.932   3.994 -0.2798  0.1547  0.5064
  644MOL0     C86821  -0.873   9.935   4.072  0.0414 -0.5965 -1.1810
  644MOL0     N86822  -0.833   9.983   4.207 -0.7488  0.7146 -0.6257
  644MOL0     C86823  -0.753   9.930   4.302 -0.2813 -0.5818 -0.3516
  644MOL0     C86824  -0.732  10.032   4.392  0.1618  0.4278 -0.4481
  644MOL0     C86825  -0.631  10.022   4.505  0.7418  0.4570 -0.2728
  644MOL0     C86826  -0.491  10.085   4.474  0.2162  0.5877  0.3459
  644MOL0     C86827  -0.424  10.016   4.361 -0.0389  0.6893  0.1936
  644MOL0     C86828  -0.275  10.041   4.346 -0.5271 -0.3439  0.0331
  644MOL0     O86829  -0.209   9.986   4.458 -0.3133 -0.5197  0.0027
  644MOL0     C86830  -0.080   9.947   4.436  0.4648 -0.5344 -0.0963
  644MOL0     C86831   0.012  10.047   4.401 -0.2794 -0.1904  0.4243
  644MOL0     C86832   0.148  10.018   4.373 -0.2337 -0.4007  0.6438
  644MOL0     C86833   0.237  10.132   4.320  0.1713  0.0725 -1.0430
  644MOL0     C86834   0.196   9.885   4.384  0.0813 -0.6570 -0.6164
  644MOL0     C86835   0.324   9.834   4.349 -1.0749  0.2038 -0.1989
  644MOL0     O86836   0.344   9.698   4.308  0.3404 -0.3744 -0.3892
  644MOL0     C86837   0.464   9.637   4.311 -0.9377  0.7684 -1.2475
  644MOL0     C86838   0.502   9.552   4.210  0.3032 -0.1237 -0.2265
  644MOL0     C86839   0.630   9.495   4.205  0.3476  0.7006  0.1152
  644MOL0     C86840   0.721   9.506   4.298  0.1754 -1.0731  0.7034
  644MOL0     O86841   0.846   9.446   4.276  0.2307 -0.4423  0.0219
  644MOL0     C86842   0.953   9.519   4.347 -0.9818  0.4697 -1.5392
  644MOL0     C86843   1.079   9.465   4.293  0.7856 -0.2141  0.3993
  644MOL0     C86844   1.174   9.547   4.205 -0.2049 -0.6134  0.2921
  644MOL0     C86845   1.306   9.470   4.188  0.8386  0.3888 -0.2951
  644MOL0     C86846   1.380   9.457   4.325 -0.0303  0.1948 -0.0643
  644MOL0     C86847   1.514   9.385   4.302 -0.3074 -0.2321  0.0453
  644MOL0     C86848   1.631   9.466   4.237  0.2975  0.4237 -0.5233
  644MOL0     C86849   1.720   9.382   4.153  0.2296  0.0157  0.3008
  644MOL0    Cl86850   1.805   9.260   4.254  0.0501  0.0223 -0.1154
  644MOL0     C86851   0.683   9.586   4.411 -0.5413 -0.5406  0.0239
  644MOL0     C86852   0.557   9.643   4.424 -0.4391 -0.6221  0.2591
  644MOL0     O86853   0.420   9.909   4.382  0.6877  0.5255 -0.6756
  644MOL0     C86854   0.100   9.786   4.420  0.3344 -0.7917 -0.7356
  644MOL0     C86855  -0.041   9.816   4.439 -1.1264  0.2024 -0.3852
  644MOL0     N86856  -0.795  10.148   4.349  0.5566  1.2306  0.0237
  644MOL0     N86857  -0.856  10.116   4.240  0.0011 -0.2473  0.9058
  644MOL0     C86858  -0.111  10.373   3.690  0.2035 -0.1936  0.7899
  644MOL0     C86859  -0.038  10.483   3.650  0.6205  0.2919 -0.4447
  644MOL0     C86860   0.394  10.644   3.523  0.6298 -0.0003 -0.5559
  644MOL0     C86861   0.391  10.766   3.605  0.1063 -0.3347 -0.8835
  644MOL0     C86862   0.495  10.859   3.611 -0.7969 -0.7998  0.7876
  644MOL0     C86863   0.606  10.838   3.525  0.6542 -0.5195 -1.0668
  644MOL0     O86864   0.708  10.926   3.526  0.6035 -0.6357 -0.7349
  644MOL0     C86865   0.836  10.901   3.464 -0.1941 -0.5043  0.8717
  644MOL0     C86866   0.943  11.009   3.489  0.5032 -0.1761 -0.1893
  644MOL0     C86867   1.068  10.992   3.408  0.8301 -0.3261  0.0481
  644MOL0     C86868   1.152  10.875   3.466 -0.2252 -0.3192  0.2859
  644MOL0     C86869   1.264  10.854   3.368 -0.4359 -0.9629 -0.4171
  644MOL0     C86870   1.345  10.817   3.289  0.8922  0.8987  0.2329
  644MOL0     C86871   0.611  10.721   3.453  0.3617 -0.6558 -0.2748
  644MOL0     C86872   0.513  10.625   3.449  0.1850 -0.4368 -1.0055
  644MOL0     H86873   0.263  10.338   3.648 -0.3241  0.7310  0.7587
  644MOL0     H86874   0.151  10.172   3.768  2.2661 -0.9527 -2.8301
  644MOL0     H86875  -0.025   9.990   3.832 -1.5755 -1.6817 -0.4391
  644MOL0     H86876   0.001  10.125   3.949  1.8649  1.1052 -2.9982
  644MOL0     H86877  -0.136   9.957   4.058 -2.1998  1.1502  1.0325
  644MOL0     H86878  -0.219  10.105   4.037 -2.1540 -1.4401  0.3603
  644MOL0     H86879  -0.326  10.028   3.818  1.4034 -0.5982 -0.7154
  644MOL0     H86880  -0.255   9.871   3.859  2.0771  1.8526 -3.4613
  644MOL0     H86881  -0.392   9.905   4.088 -0.0681  2.4771  1.4988
  644MOL0     H86882  -0.463  10.035   4.010 -1.1404  0.0115  0.3335
  644MOL0     H86883  -0.559   9.882   3.827 -2.9896 -1.6725 -0.4384
  644MOL0     H86884  -0.472   9.749   3.893  1.7295  1.0244  1.9746
  644MOL0     H86885  -0.712   9.737   3.983 -0.1565 -0.1893 -0.0431
  644MOL0     H86886  -0.617   9.804   4.118  1.8233  0.6941  0.4902
  644MOL0     H86887  -0.699  10.031   4.010  0.2048  0.0294  0.0240
  644MOL0     H86888  -0.769   9.928   3.888 -0.9253  1.7037  0.5899
  644MOL0     H86889  -0.923   9.838   4.077  0.8988 -1.0323 -0.7576
  644MOL0     H86890  -0.945  10.002   4.024  0.0131  0.3803  0.1644
  644MOL0     H86891  -0.709   9.831   4.303 -2.8038 -1.8465 -2.1589
  644MOL0     H86892  -0.656  10.061   4.604  1.1814 -0.7767  0.3550
  644MOL0     H86893  -0.616   9.915   4.522 -0.3017  0.4796  0.8954
  644MOL0     H86894  -0.431  10.058   4.562  1.3534 -0.1966 -0.6377
  644MOL0     H86895  -0.502  10.193   4.461  0.6307  0.5171 -0.6056
  644MOL0     H86896  -0.478  10.058   4.276 -2.3138 -0.7766  0.8303
  644MOL0     H86897  -0.445   9.909   4.354 -0.6653  0.8611 -0.6624
  644MOL0     H86898  -0.252  10.148   4.331 -0.9249 -0.1896  0.5062
  644MOL0     H86899  -0.237   9.987   4.258 -0.1234 -1.1962  0.7185
  644MOL0     H86900  -0.030  10.144   4.374 -0.8000 -0.9519 -1.7407
  644MOL0     H86901   0.202  10.229   4.356 -1.1990 -0.8740  0.3120
  644MOL0     H86902   0.340  10.137   4.355  0.5796  0.1678 -2.2441
  644MOL0     H86903   0.256  10.123   4.213  4.1145 -1.0439 -0.4217
  644MOL0     H86904   0.424   9.535   4.137 -0.1689 -2.4879  0.7101
  644MOL0     H86905   0.665   9.446   4.115  2.2556 -0.6009  1.4911
  644MOL0     H86906   0.947   9.625   4.321 -0.8065  0.5899 -1.0996
  644MOL0     H86907   0.948   9.498   4.455 -0.9735  1.1869 -1.3977
  644MOL0     H86908   1.132   9.431   4.382  1.7131 -1.2393 -0.5129
  644MOL0     H86909   1.056   9.372   4.238  0.4333 -0.6305  1.2325
  644MOL0     H86910   1.199   9.642   4.254 -1.3483 -0.2980  0.2890
  644MOL0     H86911   1.120   9.572   4.113  1.0775 -2.4781 -1.0612
  644MOL0     H86912   1.268   9.375   4.150  0.3800  0.1551  0.6952
  644MOL0     H86913   1.371   9.521   4.117  0.6075 -0.1323 -0.8949
  644MOL0     H86914   1.332   9.386   4.394 -0.0411  1.2521  1.0443
  644MOL0     H86915   1.394   9.545   4.388  0.9315 -1.7766  2.6841
  644MOL0     H86916   1.551   9.366   4.403 -1.6684  3.1248  1.3266
  644MOL0     H86917   1.508   9.290   4.248  1.7536 -1.3759  1.6765
  644MOL0     H86918   1.690   9.509   4.317  0.7437  2.1837 -1.7497
  644MOL0     H86919   1.581   9.551   4.188 -0.0573  1.2536  1.2170
  644MOL0     H86920   1.798   9.438   4.102  1.4870 -1.2052  0.8099
  644MOL0     H86921   1.666   9.331   4.074 -0.0778  0.8149 -0.0143
  644MOL0     H86922   0.754   9.594   4.493 -0.0606 -2.1957 -0.2003
  644MOL0     H86923   0.524   9.712   4.502  0.9455  0.7713 -0.3374
  644MOL0     H86924   0.137   9.687   4.443  1.1889  0.0876  2.1530
  644MOL0     H86925  -0.115   9.748   4.481 -1.5137  1.7496  1.5984
  644MOL0     H86926  -0.217  10.389   3.708  0.1292  0.4535 -0.1580
  644MOL0     H86927  -0.082  10.578   3.624 -1.3012  0.1213  1.8959
  644MOL0     H86928   0.308  10.773   3.675  2.1275  0.1234  1.6029
  644MOL0     H86929   0.496  10.937   3.688  2.8085 -0.4731  0.6141
  644MOL0     H86930   0.874  10.804   3.497 -0.9793 -1.4702 -0.9540
  644MOL0     H86931   0.823  10.887   3.356  1.4709  2.5688  0.1454
  644MOL0     H86932   0.981  10.993   3.591  0.2828 -0.4926 -0.1561
  644MOL0     H86933   0.901  11.108   3.473 -0.0183  0.0639  2.2506
  644MOL0     H86934   1.124  11.085   3.390  1.5347 -1.1207 -2.2231
  644MOL0     H86935   1.036  10.959   3.309 -0.7713  0.7042  0.1841
  644MOL0     H86936   1.086  10.789   3.476 -2.5855  1.3754  0.2416
  644MOL0     H86937   1.192  10.902   3.564 -1.7154  0.1130  0.7986
  644MOL0     H86938   1.426  10.792   3.224  0.0145  0.1812 -0.6248
  644MOL0     H86939   0.689  10.695   3.382 -0.7201 -1.2598 -1.2889
  644MOL0     H86940   0.523  10.538   3.385 -2.7483 -0.0936 -2.0772
  645MOL0     O86941   0.816   6.306   2.634  0.9874  0.3559 -0.1464
  645MOL0     C86942   0.852   6.205   2.566 -0.1315  0.5471 -0.1855
  645MOL0     O86943   0.974   6.148   2.578 -0.2179  0.0841  1.0099
  645MOL0     C86944   1.073   6.208   2.642  0.0906 -0.5205 -0.4917
  645MOL0     C86945   1.161   6.142   2.727  1.2689 -0.0624 -0.6413
  645MOL0     C86946   1.256   6.205   2.805  0.7853 -0.6800  0.7871
  645MOL0     C86947   1.284   6.339   2.792  0.2408 -0.4073  0.6419
  645MOL0     O86948   1.384   6.413   2.853  0.1741  0.1157 -0.2694
  645MOL0     C86949   1.459   6.353   2.956 -0.0069  0.0123  1.4600
  645MOL0     C86950   1.477   6.470   3.048  0.6969  0.1831 -0.1399
  645MOL0     C86951   1.535   6.432   3.180 -0.4199  0.5212  0.9938
  645MOL0     C86952   1.689   6.394   3.181  0.0179  0.4155  0.2459
  645MOL0     C86953   1.785   6.501   3.145 -0.1727 -0.9875  0.2578
  645MOL0     C86954   1.927   6.442   3.126  0.3192 -0.2936 -0.7614
  645MOL0     C86955   2.037   6.537   3.164  0.1302 -0.5141 -1.2760
  645MOL0     C86956   2.175   6.471   3.137 -0.9322 -0.0921  0.4825
  645MOL0     N86957   2.285   6.569   3.161  0.2714 -0.1815  0.2049
  645MOL0     C86958   2.312   6.682   3.097  0.6219  0.7815  0.5414
  645MOL0     C86959   2.414   6.737   3.149 -0.7632 -0.1070 -1.0329
  645MOL0     C86960   2.473   6.867   3.090  0.4493 -0.5660 -0.8086
  645MOL0     C86961   2.622   6.857   3.085 -0.2152 -0.4107  0.0957
  645MOL0     C86962   2.683   6.968   3.009 -0.3799 -0.4867 -0.1587
  645MOL0     C86963   2.837   6.972   3.001 -1.2959  0.5834  0.4055
  645MOL0     O86964   2.881   7.089   2.919 -0.6362  0.3168  0.1081
  645MOL0     C86965   3.015   7.134   2.936  0.7370  0.6288 -0.1869
  645MOL0     C86966   3.053   7.224   2.847  0.4245 -0.5935  0.0116
  645MOL0     C86967   3.181   7.254   2.822 -0.6718  0.2243  1.0028
  645MOL0     C86968   3.208   7.355   2.712 -1.0271  0.4828  0.8156
  645MOL0     C86969   3.286   7.211   2.910 -0.7087 -0.6560 -0.0245
  645MOL0     C86970   3.428   7.265   2.922 -0.1894  0.8773  0.2804
  645MOL0     O86971   3.512   7.243   3.034  0.6172  0.0270 -0.1174
  645MOL0     C86972   3.618   7.321   3.055 -0.8078 -0.6133 -0.2911
  645MOL0     C86973   3.613   7.424   3.159  0.5525  0.1092 -0.3625
  645MOL0     C86974   3.728   7.494   3.178  0.0423  0.7156  0.3512
  645MOL0     C86975   3.848   7.471   3.111 -0.4679 -0.3195  0.3420
  645MOL0     O86976   3.947   7.562   3.133 -0.0591  0.3713 -0.2352
  645MOL0     C86977   4.078   7.538   3.072  0.3450 -0.3716 -0.4679
  645MOL0     C86978   4.066   7.580   2.926 -0.3056  0.0260  0.5749
  645MOL0     C86979   4.063   7.735   2.904 -0.5059  1.1411 -0.0639
  645MOL0     C86980   4.072   7.764   2.751  0.1186 -0.4433 -0.6346
  645MOL0     C86981   4.078   7.910   2.698 -0.0782 -0.2067 -0.0608
  645MOL0     C86982   4.205   7.995   2.730  0.3473 -0.2204 -0.4296
  645MOL0     C86983   4.199   8.136   2.654 -0.2272  0.7747 -1.1684
  645MOL0     C86984   4.276   8.144   2.530 -0.2873 -0.4443  0.3094
  645MOL0    Cl86985   4.443   8.163   2.560  0.0261  0.0067  0.2938
  645MOL0     C86986   3.851   7.370   3.022  0.1389  1.2303 -0.2012
  645MOL0     C86987   3.739   7.296   2.989 -0.7648 -0.2291 -0.3703
  645MOL0     O86988   3.473   7.315   2.815 -0.0934 -0.0389  0.0783
  645MOL0     C86989   3.241   7.130   3.016  0.2660 -0.4383 -0.0586
  645MOL0     C86990   3.110   7.093   3.030 -0.3156  0.1515 -0.2808
  645MOL0     N86991   2.458   6.657   3.256  0.0217 -1.5055 -0.3491
  645MOL0     N86992   2.368   6.565   3.272 -0.0439 -0.1955 -0.2016
  645MOL0     C86993   1.203   6.407   2.703 -0.2973  0.6681  0.8784
  645MOL0     C86994   1.090   6.349   2.635 -0.5981  0.1015 -1.0625
  645MOL0     C86995   0.750   6.142   2.466 -0.7230 -0.7546  1.1050
  645MOL0     C86996   0.798   6.068   2.356  0.6385 -0.7912  0.0721
  645MOL0     C86997   0.705   6.008   2.271 -0.9954 -0.5627 -0.4207
  645MOL0     C86998   0.564   6.026   2.287 -0.3702 -0.2734 -0.3608
  645MOL0     O86999   0.463   5.989   2.207  0.1469 -0.0513 -0.4273
  645MOL0     C87000   0.494   5.909   2.092 -0.7945  0.2993 -0.4711
  645MOL0     C87001   0.359   5.889   2.031  0.5789 -0.0465  1.1457
  645MOL0     C87002   0.258   5.807   2.106 -0.2648 -0.6060  0.5271
  645MOL0     C87003   0.135   5.782   2.016 -0.1459 -1.1089 -0.4301
  645MOL0     C87004   0.093   5.899   1.942  0.8671 -1.3102 -1.2098
  645MOL0     C87005   0.060   5.989   1.870  0.6276 -0.0106 -0.1019
  645MOL0     C87006   0.521   6.090   2.402 -0.3192 -0.0855 -0.6678
  645MOL0     C87007   0.612   6.146   2.492 -0.3954 -0.1843  0.7455
  645MOL0     H87008   1.144   6.035   2.730  0.2852  0.0887 -0.3328
  645MOL0     H87009   1.329   6.139   2.852  0.7704 -1.7404 -0.6059
  645MOL0     H87010   1.413   6.267   3.005 -1.3413 -1.0291 -1.4174
  645MOL0     H87011   1.558   6.320   2.923 -0.7330  1.4323 -2.6815
  645MOL0     H87012   1.545   6.551   3.018  0.9463  0.5961  1.4602
  645MOL0     H87013   1.383   6.523   3.068  1.0395  0.4013  0.9468
  645MOL0     H87014   1.523   6.518   3.246  2.2371  1.1835  0.7216
  645MOL0     H87015   1.481   6.349   3.227  0.8372 -0.7073  0.3894
  645MOL0     H87016   1.708   6.355   3.282  0.5603 -2.4464 -0.8599
  645MOL0     H87017   1.713   6.317   3.107 -2.6281  1.5198 -1.8997
  645MOL0     H87018   1.745   6.557   3.060 -2.0452  0.1362  1.7844
  645MOL0     H87019   1.789   6.583   3.218 -0.7273  1.1854 -2.0200
  645MOL0     H87020   1.946   6.348   3.177  2.7991  0.2096 -0.6397
  645MOL0     H87021   1.929   6.420   3.019 -0.0452 -2.1766 -0.4069
  645MOL0     H87022   2.028   6.623   3.097  1.6578  0.0713 -0.7727
  645MOL0     H87023   2.034   6.582   3.264  1.6849  0.4363 -1.6285
  645MOL0     H87024   2.174   6.459   3.028  1.8786  0.5949  0.3165
  645MOL0     H87025   2.195   6.380   3.195  2.3609  0.1466 -0.1325
  645MOL0     H87026   2.266   6.705   3.002  1.1128 -2.6905 -0.6612
  645MOL0     H87027   2.422   6.880   2.995 -2.3738 -2.4036  0.3156
  645MOL0     H87028   2.442   6.942   3.164  0.8772 -0.7935 -0.3958
  645MOL0     H87029   2.649   6.760   3.041 -0.1903 -0.3505 -0.0218
  645MOL0     H87030   2.656   6.862   3.189 -1.2022  0.8097  0.3829
  645MOL0     H87031   2.657   7.069   3.040  0.8353  1.0175 -3.4638
  645MOL0     H87032   2.639   6.954   2.910 -0.7172  0.6040 -0.1671
  645MOL0     H87033   2.865   6.874   2.961  2.4069  1.0742  1.4429
  645MOL0     H87034   2.881   6.967   3.101 -0.5820  0.4380  0.0950
  645MOL0     H87035   2.978   7.245   2.771  0.4648 -4.2452 -1.2639
  645MOL0     H87036   3.290   7.314   2.653 -0.8185 -2.5946  3.0223
  645MOL0     H87037   3.116   7.366   2.653  0.4480 -0.1769 -1.7559
  645MOL0     H87038   3.236   7.451   2.758 -0.1407 -0.4825  2.3545
  645MOL0     H87039   3.519   7.445   3.208  0.1734  3.4455 -2.2122
  645MOL0     H87040   3.724   7.576   3.250  0.3093 -1.3875  2.9034
  645MOL0     H87041   4.160   7.583   3.129  1.7854 -1.3555 -1.6851
  645MOL0     H87042   4.104   7.431   3.076  2.8563  0.2276  1.2087
  645MOL0     H87043   4.152   7.542   2.869  0.5238 -2.0120  3.0124
  645MOL0     H87044   3.973   7.551   2.877 -0.3807  1.0226  0.0850
  645MOL0     H87045   4.141   7.787   2.961 -0.7609  1.7280 -0.2344
  645MOL0     H87046   3.976   7.790   2.941  0.9390  3.7123 -0.1934
  645MOL0     H87047   4.155   7.714   2.700 -0.3859 -1.5664 -0.3847
  645MOL0     H87048   3.985   7.714   2.710 -1.6157  1.6352  0.3168
  645MOL0     H87049   3.991   7.969   2.728 -0.0647  0.8044 -1.8467
  645MOL0     H87050   4.069   7.902   2.589  2.0682  2.9703 -0.6454
  645MOL0     H87051   4.213   8.004   2.839  1.7370  0.3826 -0.5626
  645MOL0     H87052   4.288   7.936   2.692  0.9808  0.7067 -0.5386
  645MOL0     H87053   4.242   8.197   2.734  0.7567 -0.0683 -1.0334
  645MOL0     H87054   4.097   8.176   2.648 -0.3470  0.7194  0.1060
  645MOL0     H87055   4.244   8.235   2.478 -0.1134  0.4898  1.7898
  645MOL0     H87056   4.248   8.056   2.471 -1.6810 -0.2175  0.6016
  645MOL0     H87057   3.944   7.358   2.969  0.0679  3.3484 -0.9098
  645MOL0     H87058   3.727   7.211   2.923  0.5363 -3.8350  3.5462
  645MOL0     H87059   3.314   7.092   3.086  0.3698  0.0960  0.1316
  645MOL0     H87060   3.096   7.019   3.109 -2.3765  0.9746  0.2064
  645MOL0     H87061   1.202   6.515   2.689  1.2443  1.0260  3.0831
  645MOL0     H87062   1.028   6.410   2.570 -1.4402  1.3679  0.8475
  645MOL0     H87063   0.906   6.064   2.342  0.5612 -1.8746 -0.2908
  645MOL0     H87064   0.758   5.961   2.189 -0.7457 -1.0331  0.0034
  645MOL0     H87065   0.557   5.950   2.012 -2.0213  0.6714 -1.2776
  645MOL0     H87066   0.528   5.810   2.122  1.4375  0.1494 -3.0935
  645MOL0     H87067   0.380   5.834   1.938  1.8314  1.9471  0.1777
  645MOL0     H87068   0.316   5.987   2.009 -1.2070  0.0824  4.5016
  645MOL0     H87069   0.222   5.868   2.189 -1.8415 -2.1496  1.0470
  645MOL0     H87070   0.286   5.709   2.146 -1.6292 -1.9453 -1.5413
  645MOL0     H87071   0.068   5.727   2.083  1.2029 -1.3156  0.7881
  645MOL0     H87072   0.170   5.718   1.934  1.5949  0.7887 -1.2373
  645MOL0     H87073   0.035   6.071   1.805 -3.7128  1.5436  3.0491
  645MOL0     H87074   0.414   6.097   2.420 -0.4636 -2.3427 -0.3342
  645MOL0     H87075   0.572   6.200   2.577  0.2601 -0.3749  1.1843
  646MOL0     O87076   2.894  10.556   8.135  0.0908  0.5632 -0.2214
  646MOL0     C87077   2.943  10.554   8.026 -1.1065  0.5496  0.2161
  646MOL0     O87078   2.870  10.572   7.913  0.3463 -0.0510 -0.3584
  646MOL0     C87079   2.734  10.610   7.917 -0.5664 -0.0166  0.0349
  646MOL0     C87080   2.652  10.578   7.808  0.2780 -0.4309  0.0761
  646MOL0     C87081   2.524  10.632   7.800  0.3572  0.2639  1.0126
  646MOL0     C87082   2.469  10.715   7.890  0.6761  0.4173  0.1677
  646MOL0     O87083   2.336  10.761   7.878  0.4296  0.3237  0.1089
  646MOL0     C87084   2.280  10.837   7.985 -0.1321 -0.0275  0.1781
  646MOL0     C87085   2.166  10.930   7.931 -0.0763  0.0087 -0.0416
  646MOL0     C87086   2.084  10.991   8.046 -0.7400  0.4917  0.0161
  646MOL0     C87087   1.972  11.084   7.995  0.4916 -0.9669  0.0061
  646MOL0     C87088   1.906  11.172   8.103 -0.3476 -0.0542  0.3663
  646MOL0     C87089   1.798  11.266   8.060  0.7673 -0.6027 -0.5116
  646MOL0     C87090   1.674  11.189   8.012  0.4496  0.5438 -0.0478
  646MOL0     C87091   1.580  11.288   7.943  0.8443  0.1733 -0.0090
  646MOL0     N87092   1.525  11.387   8.030 -0.1776  0.0408 -0.1101
  646MOL0     C87093   1.470  11.353   8.149 -0.6495 -0.3472 -0.3726
  646MOL0     C87094   1.454  11.472   8.220 -0.5174  0.1699  0.3604
  646MOL0     C87095   1.355  11.487   8.339 -0.7603  0.8417  0.6519
  646MOL0     C87096   1.356  11.372   8.426 -1.1859  0.6795 -0.2229
  646MOL0     C87097   1.492  11.358   8.511 -0.0344 -0.0052  0.6566
  646MOL0     C87098   1.492  11.218   8.568  0.3199  0.9744 -0.3724
  646MOL0     O87099   1.540  11.135   8.464 -0.3982 -0.1074  1.0803
  646MOL0     C87100   1.567  11.002   8.488 -1.1805 -0.0566 -0.3581
  646MOL0     C87101   1.610  10.922   8.385  0.4836 -0.7919  0.0555
  646MOL0     C87102   1.669  10.801   8.403 -0.0973 -0.0601 -0.3919
  646MOL0     C87103   1.696  10.726   8.278 -0.2480 -0.0748  0.3558
  646MOL0     C87104   1.681  10.744   8.537  0.0060  0.6644  0.3243
  646MOL0     C87105   1.741  10.610   8.567  1.0040 -0.4755 -0.0736
  646MOL0     O87106   1.725  10.573   8.697  0.1779  0.0377 -0.6828
  646MOL0     C87107   1.797  10.458   8.740 -0.6250 -0.2955  0.9059
  646MOL0     C87108   1.937  10.452   8.736 -0.1552  0.0300 -0.6536
  646MOL0     C87109   2.000  10.347   8.792  0.0362  0.2193 -0.6893
  646MOL0     C87110   1.927  10.232   8.844 -0.3180 -0.1807  0.5639
  646MOL0     O87111   1.979  10.109   8.889  0.2810 -0.5482  0.5225
  646MOL0     C87112   2.116  10.087   8.882 -1.1014  0.1987  0.3972
  646MOL0     C87113   2.146   9.947   8.949 -0.1747 -0.8305  0.1031
  646MOL0     C87114   2.292   9.921   8.943  1.0483 -1.0208  0.4011
  646MOL0     C87115   2.333   9.793   9.010  0.5575 -0.0868 -0.6568
  646MOL0     C87116   2.484   9.768   8.984 -0.4689 -0.1542 -0.3136
  646MOL0     C87117   2.531   9.635   9.044  0.6180  0.5711 -0.5655
  646MOL0     C87118   2.677   9.621   8.993  0.4926  0.0779 -0.5084
  646MOL0     C87119   2.766   9.637   9.111 -0.5794  0.3542 -0.6549
  646MOL0    Cl87120   2.767   9.808   9.180  0.2957 -0.2758  0.1217
  646MOL0     C87121   1.797  10.238   8.841  0.7369 -0.0713 -0.6413
  646MOL0     C87122   1.729  10.349   8.794  0.5872  0.1548  0.4003
  646MOL0     O87123   1.804  10.548   8.487 -0.5998 -0.4439  0.0584
  646MOL0     C87124   1.620  10.822   8.640 -0.6995  0.5075  0.2991
  646MOL0     C87125   1.561  10.942   8.618  0.7109 -0.3755  0.7502
  646MOL0     N87126   1.488  11.573   8.127 -0.3765  1.2701 -0.0731
  646MOL0     N87127   1.533  11.523   8.019  0.4711 -0.7607 -0.2598
  646MOL0     C87128   2.546  10.740   8.005  0.6330 -0.5928  0.7475
  646MOL0     C87129   2.680  10.694   8.016  0.5775  0.5276  0.1024
  646MOL0     C87130   3.091  10.548   8.033  0.7543  0.8477  0.2723
  646MOL0     C87131   3.158  10.500   7.919 -0.5614 -0.0686 -0.2466
  646MOL0     C87132   3.302  10.506   7.911  0.3304  0.1332 -0.2018
  646MOL0     C87133   3.366  10.539   8.023  0.3915 -0.3613 -0.7848
  646MOL0     O87134   3.506  10.548   8.038 -0.0504 -0.1891  1.2396
  646MOL0     C87135   3.589  10.495   7.933  0.1307 -0.3395  0.6485
  646MOL0     C87136   3.726  10.537   7.944 -0.0981  0.1117 -0.5378
  646MOL0     C87137   3.812  10.453   8.044  0.7442 -0.4116  0.7101
  646MOL0     C87138   3.785  10.487   8.189  0.3038  1.0590 -0.5358
  646MOL0     C87139   3.703  10.382   8.246  0.1372 -0.0368  0.6367
  646MOL0     C87140   3.606  10.311   8.271  0.1616  0.6089 -0.0649
  646MOL0     C87141   3.297  10.573   8.139 -0.1298  0.1519  0.9320
  646MOL0     C87142   3.163  10.583   8.146  0.3529 -0.8273  0.6829
  646MOL0     H87143   2.685  10.519   7.724 -0.6425 -1.4709  0.4240
  646MOL0     H87144   2.464  10.608   7.712  0.1423 -1.7052  1.6534
  646MOL0     H87145   2.245  10.756   8.050  6.1267 -3.0113  0.5268
  646MOL0     H87146   2.346  10.904   8.040 -2.7747  1.1438  2.1804
  646MOL0     H87147   2.216  11.007   7.873  5.2029 -1.4585  1.9691
  646MOL0     H87148   2.108  10.868   7.862 -0.5761 -1.6899  1.8250
  646MOL0     H87149   2.036  10.910   8.101 -0.7390  0.8612  0.5680
  646MOL0     H87150   2.143  11.049   8.117 -0.4476  0.7703 -0.4514
  646MOL0     H87151   2.019  11.158   7.929 -1.9277  1.9150  1.2635
  646MOL0     H87152   1.903  11.030   7.929  1.0455 -2.2918  0.4813
  646MOL0     H87153   1.854  11.109   8.176 -2.8345 -0.3359 -1.4968
  646MOL0     H87154   1.983  11.233   8.151  0.4117 -0.3237 -0.4748
  646MOL0     H87155   1.769  11.323   8.149 -0.2894 -0.0738 -1.1703
  646MOL0     H87156   1.835  11.334   7.983  0.3144 -1.3031 -1.3706
  646MOL0     H87157   1.707  11.120   7.934 -0.0038 -0.6361  0.7818
  646MOL0     H87158   1.616  11.131   8.085 -1.4217  0.0766 -1.8080
  646MOL0     H87159   1.503  11.232   7.889  1.8203 -0.3699 -0.8731
  646MOL0     H87160   1.631  11.343   7.864  0.8470  1.1405  0.6496
  646MOL0     H87161   1.426  11.256   8.172 -2.1533  0.4247  0.1501
  646MOL0     H87162   1.371  11.585   8.386 -0.9411  2.5143 -2.4909
  646MOL0     H87163   1.255  11.495   8.296 -0.6564 -0.7171  0.0628
  646MOL0     H87164   1.319  11.283   8.373 -2.2752  0.4780  0.8380
  646MOL0     H87165   1.281  11.391   8.503  0.0135  3.3680  0.3968
  646MOL0     H87166   1.494  11.433   8.590  1.4823  0.9584 -0.2494
  646MOL0     H87167   1.587  11.367   8.457  0.8798 -1.3107  1.9466
  646MOL0     H87168   1.393  11.195   8.607  1.4841 -3.1577  0.6450
  646MOL0     H87169   1.564  11.216   8.650 -1.2687 -1.9323  1.1038
  646MOL0     H87170   1.586  10.965   8.288  0.6985 -0.3080  0.2177
  646MOL0     H87171   1.620  10.651   8.255  1.5834 -1.4384 -1.5498
  646MOL0     H87172   1.700  10.796   8.195 -1.0271 -1.3685 -0.8085
  646MOL0     H87173   1.795  10.679   8.283 -0.5483 -0.8576 -0.7686
  646MOL0     H87174   2.002  10.534   8.708  2.8273 -2.1417 -0.5341
  646MOL0     H87175   2.108  10.347   8.802 -0.1647  0.0601  2.8663
  646MOL0     H87176   2.141  10.084   8.775 -0.4521 -0.9601  0.5590
  646MOL0     H87177   2.171  10.163   8.937  0.6725 -1.7736  1.4780
  646MOL0     H87178   2.118   9.947   9.055  1.3191  2.1198  0.6030
  646MOL0     H87179   2.088   9.876   8.890 -3.5415 -0.9475  3.1277
  646MOL0     H87180   2.357   9.999   8.985  2.2978 -2.0481  0.4552
  646MOL0     H87181   2.315   9.921   8.836  1.3632  0.8961  0.4391
  646MOL0     H87182   2.322   9.815   9.117  0.5792  0.8678 -0.8382
  646MOL0     H87183   2.264   9.715   8.976  0.7610 -0.1916 -0.8303
  646MOL0     H87184   2.546   9.849   9.024  0.9321 -0.9018 -0.9016
  646MOL0     H87185   2.491   9.765   8.875 -1.0347  0.4131 -0.3752
  646MOL0     H87186   2.539   9.632   9.153  2.0160  1.5888 -0.6150
  646MOL0     H87187   2.462   9.560   9.002  1.4453  0.8296 -2.4752
  646MOL0     H87188   2.708   9.693   8.917  0.4959  1.0847  0.4259
  646MOL0     H87189   2.690   9.525   8.944 -0.2652  0.6429 -1.8750
  646MOL0     H87190   2.863   9.603   9.074 -1.5287 -0.8112 -2.1903
  646MOL0     H87191   2.751   9.573   9.199 -1.9314  0.1181 -1.0259
  646MOL0     H87192   1.736  10.152   8.868 -0.2060  0.6785 -0.2961
  646MOL0     H87193   1.621  10.346   8.794  0.4311  1.0162 -3.3089
  646MOL0     H87194   1.620  10.777   8.739  1.1248 -0.8010 -0.2628
  646MOL0     H87195   1.524  11.001   8.701  0.4880 -0.5581  0.7794
  646MOL0     H87196   2.522  10.799   8.093  0.6098 -2.2768  1.9228
  646MOL0     H87197   2.742  10.731   8.097  2.5738  2.0990 -2.0316
  646MOL0     H87198   3.095  10.465   7.838 -0.0482 -0.2625 -0.5719
  646MOL0     H87199   3.361  10.484   7.823  0.0786 -1.3525 -0.0266
  646MOL0     H87200   3.576  10.386   7.936  1.4023 -0.5536 -0.5562
  646MOL0     H87201   3.558  10.524   7.832  1.3187 -0.0554  0.3507
  646MOL0     H87202   3.734  10.638   7.986 -2.5115  0.8429 -1.6604
  646MOL0     H87203   3.769  10.530   7.843 -0.3930 -3.9057 -0.5557
  646MOL0     H87204   3.918  10.472   8.022  0.8400 -1.6922 -0.0142
  646MOL0     H87205   3.802  10.347   8.021  1.6257 -0.0016 -1.9558
  646MOL0     H87206   3.755  10.590   8.210  1.7645  1.2403  0.8820
  646MOL0     H87207   3.883  10.473   8.237 -1.5742 -0.1435  3.3658
  646MOL0     H87208   3.548  10.229   8.307  0.0693  0.3761 -0.7343
  646MOL0     H87209   3.359  10.606   8.222  1.0208  0.8122 -0.1626
  646MOL0     H87210   3.103  10.603   8.235  1.3409  3.4398  0.5774
  647MOL0     O87211   6.701   8.513  10.340  0.2477  0.2713 -0.5890
  647MOL0     C87212   6.788   8.430  10.324 -0.0639  0.6366  1.1782
  647MOL0     O87213   6.764   8.309  10.262  0.0906 -0.6840 -0.0389
  647MOL0     C87214   6.638   8.282  10.207  0.0966  0.1612 -0.7292
  647MOL0     C87215   6.532   8.272  10.289  0.1639  0.0061  0.0294
  647MOL0     C87216   6.409   8.235  10.239 -0.1018 -0.3983 -0.1066
  647MOL0     C87217   6.386   8.202  10.108  0.2423 -0.7027  0.2437
  647MOL0     O87218   6.264   8.165  10.060 -0.6417 -0.6501  0.4323
  647MOL0     C87219   6.228   8.216   9.930 -0.7299 -0.2844  0.2666
  647MOL0     C87220   6.077   8.219   9.922 -0.2474  0.2438  0.2156
  647MOL0     C87221   6.010   8.313  10.023 -0.2545  0.4410  0.1022
  647MOL0     C87222   5.861   8.301  10.018  0.3987 -0.6021  0.0966
  647MOL0     C87223   5.788   8.397  10.119 -0.7598 -0.9314 -0.1016
  647MOL0     C87224   5.705   8.341  10.240  0.4039  0.8465  0.2332
  647MOL0     C87225   5.580   8.266  10.179  0.1098  0.0912  0.4383
  647MOL0     C87226   5.469   8.355  10.152 -0.7366  0.4261 -0.0771
  647MOL0     N87227   5.350   8.277  10.098  0.3017  0.3541  1.3094
  647MOL0     C87228   5.274   8.311   9.995  0.0649  0.2451  0.9189
  647MOL0     C87229   5.163   8.236  10.015 -0.6469 -0.0266  0.0235
  647MOL0     C87230   5.041   8.231   9.927 -0.0221  0.4006 -0.5564
  647MOL0     C87231   5.028   8.110   9.836 -0.6563 -0.1183 -0.2021
  647MOL0     C87232   4.943   8.004   9.905 -1.3582  0.0839  0.6181
  647MOL0     C87233   4.798   8.025   9.891 -0.3900  0.1589 -0.1148
  647MOL0     O87234   4.721   7.945   9.987 -0.3941  0.0045  0.5580
  647MOL0     C87235   4.590   7.921   9.950  0.1777 -0.7691 -0.4623
  647MOL0     C87236   4.518   8.028   9.886  0.4922 -0.5516 -0.4074
  647MOL0     C87237   4.381   8.025   9.855 -0.1655  0.1339  0.0815
  647MOL0     C87238   4.312   8.143   9.801  0.4433 -0.5621  0.4816
  647MOL0     C87239   4.313   7.902   9.881  0.6622 -0.3828 -0.3315
  647MOL0     C87240   4.161   7.888   9.861 -0.0646  0.9512 -0.2367
  647MOL0     O87241   4.103   7.795   9.943  0.1818 -0.3668  0.5723
  647MOL0     C87242   3.964   7.766   9.931  0.6292  0.7888 -0.0259
  647MOL0     C87243   3.910   7.642   9.880 -0.9889  0.1556 -0.0986
  647MOL0     C87244   3.778   7.614   9.891  0.5031 -0.3142  0.2050
  647MOL0     C87245   3.685   7.709   9.927  0.1769 -0.4771 -0.0837
  647MOL0     O87246   3.551   7.687   9.923  0.5900  0.2549  0.1554
  647MOL0     C87247   3.502   7.558   9.888  0.3944 -1.1453 -0.7460
  647MOL0     C87248   3.358   7.574   9.855  0.3391 -0.5949  0.1032
  647MOL0     C87249   3.301   7.434   9.851 -0.1662 -0.5250 -0.2202
  647MOL0     C87250   3.145   7.439   9.824 -0.4652  0.2621 -0.0257
  647MOL0     C87251   3.095   7.296   9.816  0.3063  0.3913  0.0589
  647MOL0     C87252   2.945   7.296   9.801 -0.5715  0.5782 -0.0434
  647MOL0     C87253   2.892   7.327   9.657 -0.3735 -0.3719  0.1755
  647MOL0     C87254   2.916   7.203   9.567 -0.6268  0.7618 -0.0322
  647MOL0    Cl87255   3.060   7.208   9.459 -0.4721 -0.0165 -0.1324
  647MOL0     C87256   3.737   7.838   9.966  0.1312 -0.1205 -0.2834
  647MOL0     C87257   3.871   7.864   9.968 -0.2486  0.7463  0.4124
  647MOL0     O87258   4.094   7.963   9.791  0.4635 -0.1716 -0.4944
  647MOL0     C87259   4.385   7.802   9.949  0.0636  0.1292  0.1661
  647MOL0     C87260   4.523   7.814   9.986  0.0393  0.6660  0.2925
  647MOL0     N87261   5.179   8.159  10.122  0.1150 -0.6958  1.1245
  647MOL0     N87262   5.287   8.188  10.175  0.0077  0.0519  0.4994
  647MOL0     C87263   6.500   8.217  10.023 -0.1232  0.7702  0.7100
  647MOL0     C87264   6.627   8.252  10.070  0.0005 -0.6740 -0.8351
  647MOL0     C87265   6.927   8.454  10.354 -0.2245 -0.2805  0.2870
  647MOL0     C87266   6.974   8.586  10.370 -0.5166  0.2283  0.0917
  647MOL0     C87267   7.107   8.602  10.417  0.5833  0.0406 -0.4555
  647MOL0     C87268   7.186   8.488  10.441  0.4594  1.3388 -0.1492
  647MOL0     O87269   7.319   8.500  10.480  0.7624  0.4009  0.6199
  647MOL0     C87270   7.391   8.520  10.355 -0.1306  0.0500 -0.1532
  647MOL0     C87271   7.542   8.561  10.377  0.4904  0.2056  1.2288
  647MOL0     C87272   7.572   8.685  10.465  0.7322  0.0326  0.6749
  647MOL0     C87273   7.723   8.730  10.452 -0.1826 -0.3394  0.0256
  647MOL0     C87274   7.814   8.618  10.491 -0.5958  0.4428  0.3661
  647MOL0     C87275   7.879   8.512  10.515 -0.3833  0.1536 -0.0894
  647MOL0     C87276   7.135   8.358  10.427 -0.3450 -0.4538  0.4485
  647MOL0     C87277   7.005   8.341  10.382  1.1408 -0.2546  0.1576
  647MOL0     H87278   6.549   8.298  10.393  0.4846  1.9619 -0.4745
  647MOL0     H87279   6.327   8.238  10.310 -1.3058  0.0744 -1.4756
  647MOL0     H87280   6.266   8.318   9.920 -0.1469 -0.2911  2.0458
  647MOL0     H87281   6.266   8.151   9.851  2.5037  0.2563  1.2268
  647MOL0     H87282   6.052   8.261   9.824 -1.4691  1.6460  1.0911
  647MOL0     H87283   6.031   8.122   9.942 -2.5694  1.2490 -0.0489
  647MOL0     H87284   6.054   8.280  10.118  1.6026 -4.9101 -2.2032
  647MOL0     H87285   6.036   8.415   9.993  0.0333 -0.0348 -1.3051
  647MOL0     H87286   5.835   8.326   9.914  0.9080  0.3640  0.1883
  647MOL0     H87287   5.835   8.196  10.033  3.5227 -1.6777 -1.3324
  647MOL0     H87288   5.863   8.465  10.159 -1.7897  1.3680 -1.8645
  647MOL0     H87289   5.718   8.455  10.058  0.3281  2.2170  1.4240
  647MOL0     H87290   5.774   8.279  10.298  0.2174 -1.8345 -2.1657
  647MOL0     H87291   5.665   8.422  10.301 -1.1539  0.2150  0.0943
  647MOL0     H87292   5.612   8.225  10.082  0.2844  0.6903  0.2391
  647MOL0     H87293   5.543   8.186  10.243  2.5257 -2.9022 -1.5583
  647MOL0     H87294   5.486   8.443  10.089  0.7720  0.5763  0.5024
  647MOL0     H87295   5.444   8.401  10.248 -2.0943 -0.1124 -0.1428
  647MOL0     H87296   5.284   8.367   9.903 -1.9678  0.3946  0.7454
  647MOL0     H87297   4.952   8.265   9.979 -1.9159 -1.6564 -2.2328
  647MOL0     H87298   5.066   8.314   9.860  2.6686  1.5112  1.6372
  647MOL0     H87299   5.129   8.068   9.829 -0.2892  0.3176  1.9520
  647MOL0     H87300   4.997   8.129   9.732  3.1082 -2.5800 -2.0321
  647MOL0     H87301   4.962   8.002  10.013 -2.0579 -3.5036  0.7821
  647MOL0     H87302   4.973   7.903   9.874 -1.1356  0.4809 -0.5111
  647MOL0     H87303   4.776   8.001   9.787 -1.4635 -0.7734  0.3030
  647MOL0     H87304   4.783   8.132   9.905  0.5940  0.5208 -1.5141
  647MOL0     H87305   4.562   8.124   9.860 -0.5204 -0.6660 -2.7231
  647MOL0     H87306   4.238   8.171   9.876  0.1142 -0.1596  0.0138
  647MOL0     H87307   4.379   8.230   9.807  0.2287 -0.4647  2.0199
  647MOL0     H87308   4.261   8.132   9.705  0.5153 -0.7786  0.4680
  647MOL0     H87309   3.988   7.572   9.851 -1.6493 -0.0179 -1.5214
  647MOL0     H87310   3.758   7.512   9.861  0.5972 -0.2538 -0.0671
  647MOL0     H87311   3.550   7.517   9.798 -0.9327 -3.0582 -0.6281
  647MOL0     H87312   3.508   7.489   9.972  1.8319 -1.4087 -1.0284
  647MOL0     H87313   3.300   7.634   9.926  0.7360  0.9614 -0.8381
  647MOL0     H87314   3.350   7.620   9.756 -1.6048 -0.3274  0.3390
  647MOL0     H87315   3.319   7.391   9.951  0.0652  1.8091  0.8142
  647MOL0     H87316   3.339   7.377   9.766  0.0329 -0.3167 -0.2721
  647MOL0     H87317   3.103   7.490   9.910  1.6813 -1.4200  2.1635
  647MOL0     H87318   3.123   7.493   9.731 -2.8891  1.5483  1.2105
  647MOL0     H87319   3.131   7.246   9.906  0.8610  1.8929  0.7118
  647MOL0     H87320   3.135   7.247   9.727  2.8167  1.0376  0.7274
  647MOL0     H87321   2.911   7.195   9.825  0.8518  0.1435  0.2306
  647MOL0     H87322   2.907   7.368   9.874  0.0690  0.1616  0.7169
  647MOL0     H87323   2.937   7.417   9.615 -0.5712 -0.9180 -1.2478
  647MOL0     H87324   2.786   7.340   9.681 -0.6435 -1.2451 -0.4928
  647MOL0     H87325   2.824   7.173   9.517 -0.4637  0.1368  0.0290
  647MOL0     H87326   2.940   7.118   9.633  0.4171  1.3753  0.4059
  647MOL0     H87327   3.674   7.914  10.011 -1.2753 -2.2588  1.6062
  647MOL0     H87328   3.919   7.956   9.998  1.0714 -0.0584  0.8490
  647MOL0     H87329   4.326   7.719   9.987 -0.3018  1.5576  2.9963
  647MOL0     H87330   4.572   7.734  10.042 -0.1952  0.6681  0.5030
  647MOL0     H87331   6.493   8.213   9.915  2.0564  3.5779  0.3373
  647MOL0     H87332   6.709   8.254   9.999  0.4850 -3.4496 -0.4608
  647MOL0     H87333   6.907   8.665  10.339 -1.6324 -1.1565 -1.1928
  647MOL0     H87334   7.143   8.700  10.446  2.5794 -0.0003 -2.5099
  647MOL0     H87335   7.379   8.430  10.294 -0.2883 -2.2663  3.0573
  647MOL0     H87336   7.350   8.603  10.298 -0.2082  0.3380  0.3194
  647MOL0     H87337   7.588   8.573  10.278 -0.6778 -0.8149  0.5222
  647MOL0     H87338   7.583   8.474  10.429 -0.5026 -1.4518 -0.6272
  647MOL0     H87339   7.541   8.664  10.568 -2.3078 -2.4700 -0.6095
  647MOL0     H87340   7.495   8.753  10.429  0.5039 -0.8702 -0.6095
  647MOL0     H87341   7.750   8.820  10.509  0.5772 -0.7661  0.3604
  647MOL0     H87342   7.749   8.747  10.347  2.0739 -0.7504  0.4485
  647MOL0     H87343   7.927   8.421  10.542  1.4064  1.6970  2.4214
  647MOL0     H87344   7.191   8.270  10.455  0.9983  0.0033 -0.7180
  647MOL0     H87345   6.960   8.243  10.382 -1.3205  0.7917  0.9900
  648MOL0     O87346   3.430   9.512   6.886 -0.2531 -0.8665  0.8146
  648MOL0     C87347   3.483   9.442   6.968  0.5021 -0.5434 -0.4695
  648MOL0     O87348   3.432   9.409   7.087 -0.2290 -0.2910  0.6165
  648MOL0     C87349   3.361   9.502   7.154 -0.0180 -0.6968 -0.0728
  648MOL0     C87350   3.345   9.648   7.136 -0.5266  0.9494  0.1293
  648MOL0     C87351   3.260   9.727   7.212  0.5727 -0.4384 -0.5285
  648MOL0     C87352   3.189   9.671   7.330 -0.2562  0.5100  0.3438
  648MOL0     O87353   3.097   9.750   7.394 -0.7368  0.1057 -1.3654
  648MOL0     C87354   3.053   9.705   7.523 -0.3586 -0.0597  0.4816
  648MOL0     C87355   3.008   9.830   7.601  0.2669 -0.3162  0.0379
  648MOL0     C87356   2.979   9.797   7.746 -0.1758 -0.4871  0.6995
  648MOL0     C87357   2.854   9.699   7.766  0.3638  0.1925 -0.8598
  648MOL0     C87358   2.729   9.731   7.694  0.4886  0.0762 -0.4710
  648MOL0     C87359   2.676   9.875   7.740  0.3526  1.0760  0.4457
  648MOL0     C87360   2.532   9.882   7.694 -0.0472 -0.2225 -0.4234
  648MOL0     C87361   2.450   9.845   7.818 -0.1661 -0.4177 -0.3054
  648MOL0     N87362   2.303   9.838   7.801 -0.0795 -0.0426  0.5600
  648MOL0     C87363   2.216   9.932   7.848  0.6805  0.4961  0.0347
  648MOL0     C87364   2.094   9.901   7.798  0.6821 -0.0296 -0.3708
  648MOL0     C87365   1.967   9.964   7.843 -0.0118 -1.2077 -0.4096
  648MOL0     C87366   1.947  10.093   7.762 -0.6243 -0.4098 -0.3369
  648MOL0     C87367   1.860  10.194   7.834 -0.4091  1.0348 -0.3575
  648MOL0     C87368   1.726  10.150   7.889  0.0121  0.1872  0.6017
  648MOL0     O87369   1.642  10.110   7.774  0.7717  0.0512 -0.1111
  648MOL0     C87370   1.525  10.038   7.802  0.0447  0.4232 -0.0315
  648MOL0     C87371   1.483   9.999   7.933 -0.5866 -0.3063  0.6596
  648MOL0     C87372   1.363   9.939   7.960 -0.1410 -0.9892  0.3674
  648MOL0     C87373   1.338   9.910   8.098 -0.1906 -0.7832 -1.3914
  648MOL0     C87374   1.271   9.906   7.855 -0.0437  0.1821  0.1683
  648MOL0     C87375   1.134   9.850   7.872 -0.3983  0.0894 -0.5136
  648MOL0     O87376   1.042   9.860   7.771 -0.1486 -0.2003 -0.0565
  648MOL0     C87377   0.918   9.822   7.790 -0.2311 -1.1334 -0.7289
  648MOL0     C87378   0.827   9.908   7.853  0.4195  0.1593  0.7098
  648MOL0     C87379   0.692   9.872   7.857  0.2740 -0.0826  0.1719
  648MOL0     C87380   0.646   9.744   7.804  0.0416  0.2539  0.3639
  648MOL0     O87381   0.517   9.709   7.779 -0.0627  0.2852 -0.6033
  648MOL0     C87382   0.447   9.705   7.904  0.2143 -0.1898  0.3150
  648MOL0     C87383   0.297   9.710   7.865  0.2213  0.0484 -0.1811
  648MOL0     C87384   0.258   9.841   7.791  0.0953  0.2882 -0.8053
  648MOL0     C87385   0.105   9.865   7.786 -0.7039  0.6646 -0.6131
  648MOL0     C87386   0.076   9.988   7.700  0.4676  0.2390  0.3178
  648MOL0     C87387  -0.080  10.018   7.706  0.2554 -0.8637 -0.1404
  648MOL0     C87388  -0.122  10.153   7.635 -0.9842 -0.0332  0.4050
  648MOL0     C87389  -0.274  10.158   7.638 -0.3864 -0.3607  0.5578
  648MOL0    Cl87390  -0.323  10.186   7.799  0.1342  0.0751 -0.1262
  648MOL0     C87391   0.739   9.661   7.743  0.1834 -0.1698 -0.0366
  648MOL0     C87392   0.873   9.695   7.745 -0.2953 -1.1780 -0.7580
  648MOL0     O87393   1.108   9.787   7.974  0.7510 -0.2138 -0.6818
  648MOL0     C87394   1.312   9.946   7.722 -0.1809 -1.4035  0.2130
  648MOL0     C87395   1.435  10.016   7.698  0.0901 -0.4925 -0.0943
  648MOL0     N87396   2.105   9.791   7.710  0.0020  0.1396  0.0362
  648MOL0     N87397   2.229   9.753   7.730  0.0509 -0.7761 -0.0384
  648MOL0     C87398   3.200   9.535   7.343  0.3626  0.1719 -0.1176
  648MOL0     C87399   3.292   9.456   7.267 -0.2855  0.2229 -0.5100
  648MOL0     C87400   3.610   9.379   6.932 -0.1248  0.4582  0.3602
  648MOL0     C87401   3.677   9.293   7.021  0.2555 -0.2431  0.0257
  648MOL0     C87402   3.799   9.232   6.988  0.1605 -0.8286 -0.9915
  648MOL0     C87403   3.856   9.253   6.864 -0.5203  0.1311 -0.7153
  648MOL0     O87404   3.972   9.179   6.839  0.0017 -0.1387 -0.6237
  648MOL0     C87405   4.050   9.184   6.717  0.2757  0.7357 -1.2596
  648MOL0     C87406   4.163   9.076   6.722  0.4091  0.2547 -0.6664
  648MOL0     C87407   4.265   9.092   6.838  0.5458 -0.5367  0.1173
  648MOL0     C87408   4.392   9.177   6.802 -0.4045 -0.4259 -1.0764
  648MOL0     C87409   4.367   9.326   6.808  0.4091  1.2649  0.4332
  648MOL0     C87410   4.339   9.445   6.827  0.4541 -0.0625  0.0872
  648MOL0     C87411   3.799   9.334   6.776  0.2307  0.3492  0.4872
  648MOL0     C87412   3.684   9.407   6.813  0.2882  0.0486 -0.6335
  648MOL0     H87413   3.395   9.696   7.052  3.0088  0.2365  1.6325
  648MOL0     H87414   3.240   9.828   7.177  0.4434  0.5529  2.1862
  648MOL0     H87415   2.974   9.631   7.511 -2.0332  1.8808 -1.2592
  648MOL0     H87416   3.133   9.656   7.579 -1.1187 -3.0808 -0.8823
  648MOL0     H87417   3.086   9.907   7.593  0.6287 -0.4020  2.2989
  648MOL0     H87418   2.921   9.881   7.557 -0.6760 -0.9076  1.1653
  648MOL0     H87419   3.075   9.759   7.781  0.9293  0.9932 -0.5799
  648MOL0     H87420   2.965   9.896   7.789  0.4371  1.0443 -2.3297
  648MOL0     H87421   2.889   9.600   7.735 -0.1092 -1.1019  2.3208
  648MOL0     H87422   2.834   9.692   7.874  0.6792 -1.2904 -0.8734
  648MOL0     H87423   2.742   9.720   7.586  1.7187 -2.2301 -0.1501
  648MOL0     H87424   2.658   9.659   7.736  0.9016  1.2149  2.3735
  648MOL0     H87425   2.697   9.891   7.846  3.5876  0.6843 -0.0556
  648MOL0     H87426   2.741   9.952   7.697  1.5698 -1.2129 -2.0978
  648MOL0     H87427   2.510   9.984   7.661 -0.1956 -0.9478 -2.7634
  648MOL0     H87428   2.512   9.821   7.605  0.9197  0.5263 -1.1700
  648MOL0     H87429   2.461   9.909   7.906 -2.8149  2.5720 -1.9714
  648MOL0     H87430   2.477   9.742   7.842  0.9996 -0.5821 -2.1418
  648MOL0     H87431   2.243  10.013   7.915 -3.0979  0.7609  1.4925
  648MOL0     H87432   1.879   9.899   7.841 -0.1077 -1.3393  3.1871
  648MOL0     H87433   1.972   9.981   7.950  2.0711 -1.0170 -0.4965
  648MOL0     H87434   1.898  10.074   7.667 -1.7010 -2.2892  0.5499
  648MOL0     H87435   2.042  10.145   7.747 -0.9280  0.3354  0.2587
  648MOL0     H87436   1.851  10.282   7.769  0.6921  3.1562  2.1832
  648MOL0     H87437   1.922  10.230   7.916  0.0322 -0.5690  0.0367
  648MOL0     H87438   1.695  10.235   7.951  2.6604  2.2937 -0.7090
  648MOL0     H87439   1.751  10.072   7.962 -1.3452 -0.0096  0.8877
  648MOL0     H87440   1.546  10.009   8.021  1.9278 -1.3714 -0.9132
  648MOL0     H87441   1.415   9.938   8.169 -3.1213  1.6385  1.1090
  648MOL0     H87442   1.251   9.968   8.129  0.1747 -0.9629  0.0129
  648MOL0     H87443   1.329   9.801   8.106  3.2455 -1.4783 -4.4922
  648MOL0     H87444   0.860  10.005   7.887  3.5294 -0.7431  0.5668
  648MOL0     H87445   0.623   9.953   7.876  0.9371  0.8795 -1.3789
  648MOL0     H87446   0.474   9.611   7.953 -1.6834 -0.2938  1.2718
  648MOL0     H87447   0.463   9.787   7.974 -0.8189 -0.3377  0.7453
  648MOL0     H87448   0.290   9.638   7.783 -4.3047  1.2819 -1.1428
  648MOL0     H87449   0.222   9.679   7.937 -2.4431 -0.4000 -2.9595
  648MOL0     H87450   0.301   9.825   7.692  0.3620 -1.6962 -0.4103
  648MOL0     H87451   0.310   9.929   7.830  3.9701 -2.7787  1.8438
  648MOL0     H87452   0.049   9.783   7.741 -1.7123  0.8925  0.1804
  648MOL0     H87453   0.068   9.900   7.883  0.0978  0.9966 -0.4100
  648MOL0     H87454   0.094   9.977   7.593 -1.3097 -0.3746  0.0375
  648MOL0     H87455   0.128  10.073   7.744 -0.0786 -0.4930  2.5023
  648MOL0     H87456  -0.121   9.931   7.653  3.8305  0.2937 -5.6320
  648MOL0     H87457  -0.104  10.033   7.811 -0.3972  0.3239 -0.4458
  648MOL0     H87458  -0.076  10.152   7.536  0.7654  0.0096  1.1741
  648MOL0     H87459  -0.088  10.245   7.685 -0.3092  0.9483 -1.7217
  648MOL0     H87460  -0.310  10.062   7.599  1.7801 -1.2354  0.5352
  648MOL0     H87461  -0.316  10.235   7.574 -0.0953 -1.1726 -0.6550
  648MOL0     H87462   0.705   9.571   7.694 -1.2254  0.4590 -0.2549
  648MOL0     H87463   0.947   9.634   7.694  1.3137 -1.5742  1.8722
  648MOL0     H87464   1.255   9.954   7.630 -0.2098  1.1306  0.3964
  648MOL0     H87465   1.462  10.054   7.599 -2.6667  0.4935 -0.5477
  648MOL0     H87466   3.136   9.479   7.410 -1.2177 -0.3311 -1.9494
  648MOL0     H87467   3.301   9.349   7.286  0.1371  0.3485  0.0166
  648MOL0     H87468   3.645   9.284   7.125  2.5806 -0.0177  0.8409
  648MOL0     H87469   3.842   9.154   7.049  1.8324  0.5136 -0.3702
  648MOL0     H87470   3.988   9.185   6.626 -1.2951 -1.9858 -0.3546
  648MOL0     H87471   4.095   9.284   6.724 -0.4132  0.9486  1.1464
  648MOL0     H87472   4.215   9.092   6.627 -1.2913  1.0807 -1.5073
  648MOL0     H87473   4.123   8.975   6.733 -0.2761  0.4373 -1.3708
  648MOL0     H87474   4.304   8.999   6.882 -0.6179 -1.0998 -0.0056
  648MOL0     H87475   4.216   9.138   6.924  1.8920 -1.1520  1.2568
  648MOL0     H87476   4.425   9.149   6.702 -1.5417 -2.8594 -0.8507
  648MOL0     H87477   4.465   9.140   6.875 -0.1283 -3.1155 -2.5884
  648MOL0     H87478   4.319   9.549   6.844 -2.6271 -0.1222 -2.3200
  648MOL0     H87479   3.845   9.363   6.682 -1.0921 -1.0582 -0.6576
  648MOL0     H87480   3.643   9.485   6.750  0.8810  0.8246 -0.0755
  649MOL0     O87481   5.130   9.341   9.519 -0.4430  0.4984  0.1860
  649MOL0     C87482   5.152   9.389   9.407  0.1429 -0.7216  0.8947
  649MOL0     O87483   5.062   9.470   9.345  0.1647 -0.1425  0.3062
  649MOL0     C87484   4.950   9.513   9.411  0.8484 -0.6122 -0.4913
  649MOL0     C87485   4.897   9.641   9.377 -0.6498  0.9364  0.8673
  649MOL0     C87486   4.774   9.682   9.413 -0.1568 -0.7481 -0.8449
  649MOL0     C87487   4.700   9.610   9.511 -0.7377 -0.6900 -0.3777
  649MOL0     O87488   4.588   9.646   9.587 -0.1039 -0.5568  0.6263
  649MOL0     C87489   4.497   9.736   9.532 -0.1930 -0.3586  0.0795
  649MOL0     C87490   4.365   9.757   9.612  0.3455  0.5755  0.0738
  649MOL0     C87491   4.273   9.862   9.553  0.1379  0.1093 -0.3791
  649MOL0     C87492   4.121   9.840   9.578 -0.0727 -0.3661 -0.0064
  649MOL0     C87493   4.050   9.785   9.458  0.0106  0.2995  0.0252
  649MOL0     C87494   3.910   9.743   9.499 -0.1724 -0.5564  0.0203
  649MOL0     C87495   3.892   9.604   9.558 -0.0860  0.9713 -0.6438
  649MOL0     C87496   3.747   9.596   9.614  0.0112 -0.1683  0.4666
  649MOL0     N87497   3.644   9.631   9.514  0.4175 -1.5825 -0.3700
  649MOL0     C87498   3.585   9.754   9.482 -0.7461 -0.7321  0.0431
  649MOL0     C87499   3.494   9.728   9.385  0.2597 -0.7670  0.1636
  649MOL0     C87500   3.381   9.827   9.351  0.1436 -0.5413  0.7390
  649MOL0     C87501   3.260   9.838   9.448  1.4590  0.0808  0.0259
  649MOL0     C87502   3.170   9.712   9.449 -0.2967 -0.2674 -0.4130
  649MOL0     C87503   3.025   9.734   9.493  0.3563 -0.0848 -0.5007
  649MOL0     O87504   2.978   9.601   9.518  0.8131 -0.4933 -0.2885
  649MOL0     C87505   2.845   9.560   9.510  0.3168 -0.0200  0.7442
  649MOL0     C87506   2.811   9.421   9.526  0.1892 -0.8014  0.6553
  649MOL0     C87507   2.679   9.384   9.512  0.1891  0.8415  0.5315
  649MOL0     C87508   2.651   9.239   9.533 -0.7828  0.4643 -0.1139
  649MOL0     C87509   2.575   9.477   9.496 -1.0408 -0.3946  0.3289
  649MOL0     C87510   2.434   9.447   9.471  0.5798 -0.2657  0.2493
  649MOL0     O87511   2.348   9.549   9.501  0.4268  0.1702  0.1951
  649MOL0     C87512   2.224   9.556   9.434 -0.4534  0.0543 -1.1128
  649MOL0     C87513   2.215   9.583   9.303 -0.0007 -0.3109  0.2633
  649MOL0     C87514   2.090   9.599   9.239  0.9031 -0.0623 -0.2357
  649MOL0     C87515   1.966   9.598   9.304  0.0068  0.7078  0.4923
  649MOL0     O87516   1.845   9.624   9.261  0.4469 -0.9631  0.2512
  649MOL0     C87517   1.818   9.662   9.116  0.0650 -0.2352  0.1032
  649MOL0     C87518   1.810   9.809   9.117 -1.3114 -0.4855  0.2249
  649MOL0     C87519   1.671   9.853   9.171 -0.5496 -0.2072 -0.2259
  649MOL0     C87520   1.668   9.995   9.234  0.1989 -0.3997  0.6561
  649MOL0     C87521   1.525  10.029   9.272 -0.1562 -0.4119 -1.1202
  649MOL0     C87522   1.431  10.049   9.152  0.1186  0.1787 -0.2046
  649MOL0     C87523   1.359  10.181   9.162  0.0820  0.5336 -0.2180
  649MOL0     C87524   1.251  10.196   9.051 -0.2630  0.5645 -0.0163
  649MOL0    Cl87525   1.159  10.349   9.065 -0.3547 -0.2759  0.1910
  649MOL0     C87526   1.971   9.555   9.444 -0.6115 -0.7548  0.4196
  649MOL0     C87527   2.101   9.543   9.509 -0.0418  0.8908  0.1072
  649MOL0     O87528   2.400   9.344   9.416 -1.1952 -0.9316 -0.1319
  649MOL0     C87529   2.614   9.614   9.489 -0.2305 -0.5570 -0.6498
  649MOL0     C87530   2.744   9.651   9.489  0.1605 -0.4354  0.4558
  649MOL0     N87531   3.485   9.597   9.364  0.0465  0.0988  0.1137
  649MOL0     N87532   3.566   9.542   9.453  0.0552  0.9157  0.0168
  649MOL0     C87533   4.752   9.485   9.543  0.4097 -0.4013  0.4907
  649MOL0     C87534   4.869   9.437   9.486 -0.5228  0.2628  0.0185
  649MOL0     C87535   5.272   9.352   9.335 -0.2844 -0.4625 -0.1393
  649MOL0     C87536   5.377   9.295   9.395 -0.1145  0.0131  0.0795
  649MOL0     C87537   5.500   9.277   9.328 -0.3833 -0.7133  0.2644
  649MOL0     C87538   5.514   9.329   9.199 -0.3831  0.4574 -0.2985
  649MOL0     O87539   5.629   9.301   9.134  0.3381 -0.7495 -0.0301
  649MOL0     C87540   5.696   9.418   9.092 -0.5993 -0.1430 -0.0723
  649MOL0     C87541   5.811   9.358   9.008 -0.3758  0.1226  0.1623
  649MOL0     C87542   5.775   9.310   8.872 -0.0466  0.4774 -0.5482
  649MOL0     C87543   5.754   9.426   8.776  0.5360 -0.4297  0.2510
  649MOL0     C87544   5.880   9.492   8.732 -0.7065 -0.3587 -1.1038
  649MOL0     C87545   5.992   9.535   8.713  0.1489 -0.0198  0.4250
  649MOL0     C87546   5.413   9.404   9.141  0.2024 -0.0045 -0.1031
  649MOL0     C87547   5.295   9.419   9.212 -0.4518  0.4499 -0.3057
  649MOL0     H87548   4.966   9.687   9.308  0.7350  0.3730  1.8120
  649MOL0     H87549   4.745   9.778   9.373 -0.6096  0.1796  1.5578
  649MOL0     H87550   4.540   9.836   9.528 -0.0873 -0.3681  0.8243
  649MOL0     H87551   4.471   9.701   9.431  1.2388 -1.0380 -0.0652
  649MOL0     H87552   4.312   9.662   9.618  1.0830  0.2481  2.2285
  649MOL0     H87553   4.391   9.772   9.717  2.2745 -1.5604 -0.0350
  649MOL0     H87554   4.300   9.957   9.599  3.0927 -0.8400  0.0383
  649MOL0     H87555   4.298   9.871   9.447  0.8121 -1.0357 -0.3335
  649MOL0     H87556   4.106   9.772   9.662 -1.6855 -1.8453 -1.4336
  649MOL0     H87557   4.084   9.939   9.606  3.9587  1.1064  0.8813
  649MOL0     H87558   4.033   9.873   9.395  0.7237  1.4706  1.4192
  649MOL0     H87559   4.094   9.700   9.404 -1.9623 -0.0920 -1.0614
  649MOL0     H87560   3.880   9.815   9.575  1.1649 -1.5831  1.6058
  649MOL0     H87561   3.848   9.756   9.410 -0.1034 -0.2330  0.0190
  649MOL0     H87562   3.903   9.534   9.474  0.3022  0.9368 -0.5664
  649MOL0     H87563   3.971   9.579   9.629  0.6984  0.8077 -1.5538
  649MOL0     H87564   3.748   9.670   9.695  0.4759 -1.8084  2.0181
  649MOL0     H87565   3.736   9.494   9.652 -0.4366 -0.0930  0.5463
  649MOL0     H87566   3.593   9.854   9.524  2.6590  0.4739 -2.9787
  649MOL0     H87567   3.431   9.924   9.352  0.5659 -0.7455  0.0554
  649MOL0     H87568   3.352   9.797   9.250  3.0110 -0.8801 -0.0591
  649MOL0     H87569   3.195   9.915   9.405 -0.4722 -2.0259 -1.0568
  649MOL0     H87570   3.285   9.868   9.550  0.3262  1.8967 -0.1899
  649MOL0     H87571   3.206   9.638   9.521 -0.1369  1.8911  1.8511
  649MOL0     H87572   3.169   9.678   9.345 -1.7977  2.4985 -1.4294
  649MOL0     H87573   2.973   9.793   9.417  0.3418  0.7479  0.1384
  649MOL0     H87574   3.022   9.798   9.582  2.0025  1.6955 -1.6529
  649MOL0     H87575   2.886   9.343   9.536 -0.3796 -1.6170 -1.1274
  649MOL0     H87576   2.728   9.165   9.556 -4.0265 -2.4287  2.6751
  649MOL0     H87577   2.581   9.239   9.617 -0.0027  1.6533  0.5607
  649MOL0     H87578   2.596   9.194   9.449 -0.9926 -0.3881  0.4724
  649MOL0     H87579   2.304   9.595   9.242 -0.8877  1.7760 -0.7072
  649MOL0     H87580   2.080   9.627   9.135 -0.1886  1.4487  0.2505
  649MOL0     H87581   1.888   9.614   9.047  1.2653  0.4959  0.7731
  649MOL0     H87582   1.725   9.611   9.093  1.3352 -2.3641 -0.6036
  649MOL0     H87583   1.892   9.845   9.180 -0.2538 -2.8461  0.3014
  649MOL0     H87584   1.813   9.860   9.020 -3.4434 -0.9617 -0.1367
  649MOL0     H87585   1.635   9.783   9.247  0.8067 -1.4173 -0.6394
  649MOL0     H87586   1.609   9.857   9.081 -1.6944  1.2737  0.5868
  649MOL0     H87587   1.724  10.008   9.327 -1.9730  0.5374  1.9147
  649MOL0     H87588   1.706  10.070   9.163 -2.7093  0.0902 -0.5111
  649MOL0     H87589   1.532  10.124   9.325 -0.3238  0.9094 -3.3276
  649MOL0     H87590   1.481   9.957   9.341 -0.3468  0.5651 -0.2079
  649MOL0     H87591   1.484  10.029   9.059  0.2194 -0.4776 -0.0191
  649MOL0     H87592   1.362   9.964   9.152  4.2815 -3.5978 -0.4964
  649MOL0     H87593   1.429  10.265   9.171  2.0909 -1.2317  1.6623
  649MOL0     H87594   1.309  10.173   9.258  1.0568 -3.2086  0.1300
  649MOL0     H87595   1.184  10.110   9.064  0.1280 -0.0130 -1.6304
  649MOL0     H87596   1.305  10.199   8.956  0.8526 -1.3201  0.4982
  649MOL0     H87597   1.876   9.531   9.492 -0.1673  0.4812  2.0092
  649MOL0     H87598   2.113   9.518   9.614  2.9431 -2.4917 -0.8327
  649MOL0     H87599   2.551   9.702   9.474  1.7782  1.3978  1.5999
  649MOL0     H87600   2.760   9.758   9.496 -2.8972  0.0883  1.1410
  649MOL0     H87601   4.689   9.428   9.610 -1.3934 -0.4011 -1.1303
  649MOL0     H87602   4.896   9.336   9.517  0.9016  1.3354  2.6152
  649MOL0     H87603   5.372   9.263   9.499 -0.1151  0.2932  0.1642
  649MOL0     H87604   5.584   9.225   9.372  0.5564  1.3081  0.9711
  649MOL0     H87605   5.638   9.482   9.024  1.0614  0.0721 -1.3474
  649MOL0     H87606   5.735   9.475   9.177 -0.3079  0.2264 -0.4452
  649MOL0     H87607   5.857   9.277   9.067 -2.7241 -1.6051 -0.2553
  649MOL0     H87608   5.900   9.422   9.007  0.1124 -0.5589 -0.6214
  649MOL0     H87609   5.688   9.245   8.878 -0.2087  0.5369 -1.9395
  649MOL0     H87610   5.864   9.258   8.836  1.3089  2.0887  0.3486
  649MOL0     H87611   5.685   9.501   8.817 -0.5359 -0.2524 -1.7452
  649MOL0     H87612   5.710   9.400   8.679  1.1340 -0.0204 -0.1400
  649MOL0     H87613   6.088   9.576   8.689 -0.6827 -0.3381 -4.3092
  649MOL0     H87614   5.428   9.440   9.040  2.3182  1.6411  0.7317
  649MOL0     H87615   5.218   9.478   9.162  0.1224  1.2436 -0.2759
  650MOL0     O87616  11.066   1.575   1.785 -0.2124 -0.3724  0.2063
  650MOL0     C87617  11.128   1.678   1.749  0.6077 -0.0557 -0.3329
  650MOL0     O87618  11.099   1.758   1.641  1.2831 -0.5120  0.2664
  650MOL0     C87619  11.011   1.716   1.538 -0.1245 -0.8491 -0.7495
  650MOL0     C87620  10.909   1.804   1.488  0.1080  0.0319 -0.5729
  650MOL0     C87621  10.809   1.765   1.408  0.4848  0.3207  0.0743
  650MOL0     C87622  10.801   1.637   1.359 -0.1622  0.0008 -1.1849
  650MOL0     O87623  10.696   1.585   1.277  0.1523 -0.0850  0.4629
  650MOL0     C87624  10.570   1.654   1.252 -0.1131  0.2305  0.5995
  650MOL0     C87625  10.490   1.566   1.172  0.5921  0.4435  0.3706
  650MOL0     C87626  10.364   1.624   1.104  0.9321 -0.3815  0.2212
  650MOL0     C87627  10.271   1.508   1.089 -0.4983 -0.4662 -0.4004
  650MOL0     C87628  10.141   1.540   1.021 -0.1441 -0.2306  0.9045
  650MOL0     C87629  10.159   1.584   0.875  0.0950 -0.2133 -0.4750
  650MOL0     C87630  10.035   1.605   0.779 -0.7085 -0.7789 -0.3380
  650MOL0     C87631   9.925   1.694   0.846 -0.8563  0.1614 -0.5932
  650MOL0     N87632   9.817   1.639   0.921 -0.0734 -0.1342 -0.6446
  650MOL0     C87633   9.799   1.648   1.057 -0.1383  0.5296 -0.9919
  650MOL0     C87634   9.669   1.616   1.085  0.1584  0.0086 -0.1988
  650MOL0     C87635   9.623   1.606   1.220  0.4002 -0.0038 -0.5061
  650MOL0     C87636   9.471   1.599   1.235  0.1838 -1.2291  0.4255
  650MOL0     C87637   9.423   1.493   1.335  0.4539 -0.3637 -0.3044
  650MOL0     C87638   9.293   1.536   1.404  0.6525 -0.1577 -0.0435
  650MOL0     O87639   9.194   1.551   1.303  0.4786  0.1764 -0.4290
  650MOL0     C87640   9.104   1.446   1.278 -0.5947  0.9058 -0.3436
  650MOL0     C87641   9.005   1.469   1.188  0.3188  0.2748  0.0475
  650MOL0     C87642   8.903   1.373   1.158  0.1430  0.3858  0.0274
  650MOL0     C87643   8.793   1.418   1.059 -1.0027  0.5788 -0.2080
  650MOL0     C87644   8.913   1.243   1.211 -0.1893 -0.0215 -0.9886
  650MOL0     C87645   8.826   1.124   1.184  0.2858 -0.5153 -0.9427
  650MOL0     O87646   8.858   1.006   1.248 -0.1278  0.3745  0.6388
  650MOL0     C87647   8.799   0.894   1.199 -0.1840 -0.3761  0.0374
  650MOL0     C87648   8.842   0.829   1.088  0.1268 -0.2234 -0.2805
  650MOL0     C87649   8.780   0.715   1.041 -1.1561  0.1774  0.0693
  650MOL0     C87650   8.672   0.659   1.109 -0.1550 -0.1412 -0.2694
  650MOL0     O87651   8.631   0.533   1.067  0.2040  0.3649 -0.0546
  650MOL0     C87652   8.481   0.523   1.083 -0.2052  0.4543  1.3519
  650MOL0     C87653   8.429   0.407   1.000  0.4694  0.7260  0.7203
  650MOL0     C87654   8.476   0.404   0.850 -0.4860 -0.7812  1.1642
  650MOL0     C87655   8.431   0.531   0.770  0.2997  0.0494 -0.9563
  650MOL0     C87656   8.452   0.509   0.618  0.1426  0.3161  0.0747
  650MOL0     C87657   8.398   0.635   0.535 -0.2914  0.9629 -0.6447
  650MOL0     C87658   8.438   0.609   0.381 -1.1859  0.5196 -0.1422
  650MOL0     C87659   8.465   0.741   0.313  0.2563  0.1224  0.8855
  650MOL0    Cl87660   8.312   0.839   0.305  0.3319 -0.1233 -0.5731
  650MOL0     C87661   8.622   0.726   1.221  0.6963  0.9764  0.6023
  650MOL0     C87662   8.682   0.842   1.263  0.3703 -0.7897 -0.2141
  650MOL0     O87663   8.755   1.131   1.089 -0.0763  0.1300  0.6880
  650MOL0     C87664   9.012   1.221   1.312 -0.6219  0.1732 -0.7703
  650MOL0     C87665   9.113   1.317   1.337  0.1527  0.5086  0.5319
  650MOL0     N87666   9.616   1.577   0.970 -0.6137 -0.0127 -0.0258
  650MOL0     N87667   9.700   1.589   0.875  0.2410  0.0540 -0.0615
  650MOL0     C87668  10.897   1.551   1.398  0.1704 -0.2753  0.0634
  650MOL0     C87669  10.998   1.587   1.491  0.2984  0.2842  0.3785
  650MOL0     C87670  11.240   1.727   1.832 -0.5049  0.0588 -0.7043
  650MOL0     C87671  11.318   1.842   1.803  0.6373  0.0020 -0.1123
  650MOL0     C87672  11.408   1.886   1.902  0.0574  0.0974 -0.2077
  650MOL0     C87673  11.433   1.819   2.025  0.1924  0.0018  1.0077
  650MOL0     O87674  11.541   1.864   2.098 -0.0385  0.2105 -0.5553
  650MOL0     C87675  11.563   1.808   2.229 -0.7908  0.0419  0.6687
  650MOL0     C87676  11.460   1.841   2.338  0.4233 -0.4469 -0.0381
  650MOL0     C87677  11.449   1.994   2.356 -0.8258  0.6046  0.1319
  650MOL0     C87678  11.361   2.026   2.473 -0.1891  0.8817 -0.6342
  650MOL0     C87679  11.228   1.971   2.454  0.0937  0.0016 -0.3072
  650MOL0     C87680  11.119   1.917   2.445 -0.2054  0.0339  0.2849
  650MOL0     C87681  11.352   1.714   2.051  0.7615 -0.3206 -0.2699
  650MOL0     C87682  11.261   1.670   1.956  0.9039  0.5182 -0.6988
  650MOL0     H87683  10.901   1.905   1.526  0.1786 -0.6228  1.2713
  650MOL0     H87684  10.736   1.844   1.392 -0.2810 -0.4096 -0.1217
  650MOL0     H87685  10.510   1.680   1.339 -1.3794  1.0589 -0.4824
  650MOL0     H87686  10.585   1.751   1.204 -1.9157  1.9674  3.2891
  650MOL0     H87687  10.557   1.520   1.100 -0.7712 -3.1594  1.2149
  650MOL0     H87688  10.450   1.487   1.236 -1.4101  1.7964  0.8910
  650MOL0     H87689  10.315   1.700   1.166 -0.3012  0.9579 -2.2835
  650MOL0     H87690  10.389   1.658   1.004  2.6862 -0.1828  0.6922
  650MOL0     H87691  10.319   1.425   1.035  0.5710  0.4775 -0.9296
  650MOL0     H87692  10.248   1.485   1.193  2.7061 -2.1163  0.0654
  650MOL0     H87693  10.086   1.446   1.015  1.9351 -1.3855 -2.8784
  650MOL0     H87694  10.090   1.614   1.084  0.8745  1.5638 -0.3004
  650MOL0     H87695  10.201   1.685   0.870 -0.8614  0.2937  1.1107
  650MOL0     H87696  10.226   1.506   0.836 -0.1138 -1.7869  2.0999
  650MOL0     H87697  10.066   1.662   0.691 -2.0516 -0.0362 -0.3582
  650MOL0     H87698   9.982   1.517   0.742 -0.3660 -1.1935  0.1389
  650MOL0     H87699   9.876   1.747   0.764  0.6825  3.5701  0.4917
  650MOL0     H87700   9.972   1.766   0.914  0.2132 -0.9196 -0.1414
  650MOL0     H87701   9.865   1.691   1.132  1.0536 -3.6530  0.6431
  650MOL0     H87702   9.673   1.517   1.258  1.1560  1.3353  1.8096
  650MOL0     H87703   9.658   1.681   1.291  2.0752  0.1694 -1.4682
  650MOL0     H87704   9.429   1.579   1.136  1.3232  0.6059 -0.4883
  650MOL0     H87705   9.436   1.700   1.257  0.7527 -1.3236  1.8586
  650MOL0     H87706   9.495   1.461   1.411 -2.2646 -0.0190  2.6628
  650MOL0     H87707   9.407   1.403   1.275  1.4683  0.4082 -1.7966
  650MOL0     H87708   9.313   1.627   1.462  0.8505  0.7812 -1.5392
  650MOL0     H87709   9.262   1.452   1.468  4.8651 -2.0577 -0.1468
  650MOL0     H87710   8.979   1.566   1.148  1.9995 -0.9501 -4.5890
  650MOL0     H87711   8.770   1.522   1.083  3.3697  1.6089  0.4736
  650MOL0     H87712   8.822   1.411   0.954 -1.3537  1.5209 -0.3777
  650MOL0     H87713   8.700   1.366   1.081  0.1384 -1.0289  1.1486
  650MOL0     H87714   8.915   0.873   1.021 -0.1568  0.4267 -0.1762
  650MOL0     H87715   8.823   0.666   0.953 -0.3948  4.1738 -2.0129
  650MOL0     H87716   8.467   0.495   1.188  3.7301 -0.3457  1.8224
  650MOL0     H87717   8.435   0.619   1.055 -0.1716  0.3699  1.0095
  650MOL0     H87718   8.468   0.322   1.057 -1.1498  1.6219  3.3596
  650MOL0     H87719   8.320   0.404   1.004  0.4835  0.7938  1.1821
  650MOL0     H87720   8.449   0.308   0.805  1.1944 -0.9810  0.5213
  650MOL0     H87721   8.585   0.413   0.860 -0.4704 -0.6438  0.8828
  650MOL0     H87722   8.327   0.560   0.788  0.1622  1.0916 -3.1540
  650MOL0     H87723   8.485   0.615   0.815 -0.3695 -0.5607  1.1477
  650MOL0     H87724   8.396   0.424   0.579 -1.9026  1.4970  0.3059
  650MOL0     H87725   8.552   0.474   0.590 -0.1717  1.6828 -3.2115
  650MOL0     H87726   8.293   0.663   0.552 -1.1606 -0.7953 -2.6441
  650MOL0     H87727   8.460   0.718   0.570 -2.0053  3.2637 -2.6837
  650MOL0     H87728   8.363   0.554   0.324  0.9245 -1.8791 -0.8016
  650MOL0     H87729   8.527   0.545   0.372 -1.4683  0.1414 -0.2845
  650MOL0     H87730   8.486   0.734   0.205  2.2818  2.3215  1.0430
  650MOL0     H87731   8.548   0.799   0.353  0.2582 -0.1126  1.2229
  650MOL0     H87732   8.536   0.695   1.280  0.9383 -0.1040  0.4089
  650MOL0     H87733   8.629   0.898   1.339 -1.6465 -1.5143 -1.0186
  650MOL0     H87734   9.041   1.133   1.370  3.3383  1.8210  0.1189
  650MOL0     H87735   9.197   1.281   1.396  1.2232 -2.3027 -2.4032
  650MOL0     H87736  10.904   1.444   1.383 -0.2571 -0.4674  1.1233
  650MOL0     H87737  11.072   1.520   1.535 -0.4231 -0.2028  0.8805
  650MOL0     H87738  11.313   1.893   1.708 -3.1416 -0.7322 -0.4523
  650MOL0     H87739  11.459   1.976   1.869 -1.2006  0.7028 -0.5902
  650MOL0     H87740  11.581   1.700   2.230  1.9880  0.3681 -1.3373
  650MOL0     H87741  11.659   1.844   2.266 -1.0053  1.2228  0.1304
  650MOL0     H87742  11.490   1.792   2.432  0.9760  0.6102  0.3527
  650MOL0     H87743  11.368   1.789   2.310  2.2410 -4.4788  0.6555
  650MOL0     H87744  11.411   2.052   2.272 -2.2417  0.4683  0.6597
  650MOL0     H87745  11.554   2.022   2.370 -0.5435 -0.8327  1.1009
  650MOL0     H87746  11.354   2.135   2.476 -1.0448  0.8103  0.7576
  650MOL0     H87747  11.409   1.998   2.567 -0.7953  1.9810  0.0123
  650MOL0     H87748  11.020   1.878   2.438 -0.7633  1.2858  0.9655
  650MOL0     H87749  11.362   1.656   2.142 -0.7778 -1.7985 -0.9991
  650MOL0     H87750  11.212   1.575   1.974  0.4612  0.4392 -2.2306
  651MOL0     O87751  10.607   6.401   7.681  0.2770 -0.4840 -0.0137
  651MOL0     C87752  10.588   6.454   7.572  0.4706  0.0117  0.6868
  651MOL0     O87753  10.499   6.409   7.478 -0.2669 -0.3776  0.3352
  651MOL0     C87754  10.412   6.309   7.501  0.1048 -0.2059  0.5391
  651MOL0     C87755  10.337   6.308   7.625  0.7341 -0.7783  0.5194
  651MOL0     C87756  10.239   6.209   7.656  0.0689  0.7669 -0.7572
  651MOL0     C87757  10.203   6.122   7.548  0.0553  0.1374  0.9253
  651MOL0     O87758  10.104   6.027   7.573  0.5784 -0.1781  0.2655
  651MOL0     C87759  10.045   5.952   7.466 -0.0216 -0.1468 -0.0384
  651MOL0     C87760   9.932   5.879   7.534  0.0965  0.2861 -0.1619
  651MOL0     C87761   9.794   5.950   7.536 -0.5800  0.7873 -0.1541
  651MOL0     C87762   9.711   5.963   7.404 -0.1284 -0.3303  1.4541
  651MOL0     C87763   9.577   6.038   7.405  0.4439  0.6785 -0.3945
  651MOL0     C87764   9.464   5.967   7.494  0.8121  0.1369  0.1141
  651MOL0     C87765   9.430   5.825   7.456 -0.2160  0.2087 -1.0509
  651MOL0     C87766   9.368   5.786   7.328  0.4916 -0.8143 -0.0464
  651MOL0     N87767   9.258   5.871   7.304  0.0303 -0.3724 -0.4334
  651MOL0     C87768   9.145   5.885   7.382  0.0920 -0.4734 -0.4893
  651MOL0     C87769   9.070   5.968   7.304 -0.3263  0.5912 -0.1951
  651MOL0     C87770   8.945   6.038   7.349 -0.7463 -1.2961 -0.1911
  651MOL0     C87771   8.824   5.949   7.344  1.3284  0.5783 -0.3337
  651MOL0     C87772   8.763   5.955   7.198 -0.1542  0.5143 -0.3488
  651MOL0     C87773   8.630   5.885   7.196  0.5848  0.5580 -0.7329
  651MOL0     O87774   8.531   5.950   7.284  0.8421  0.5555  0.2070
  651MOL0     C87775   8.403   5.884   7.281  0.4380  0.0264 -0.3409
  651MOL0     C87776   8.311   5.890   7.396 -1.0878 -0.2327 -0.7715
  651MOL0     C87777   8.189   5.827   7.405 -0.6967 -0.3016 -1.1215
  651MOL0     C87778   8.108   5.855   7.529 -0.1341  0.0062  0.2856
  651MOL0     C87779   8.156   5.744   7.297  0.0639 -0.5652 -0.1772
  651MOL0     C87780   8.025   5.681   7.292 -0.2801 -0.2484  0.3882
  651MOL0     O87781   8.015   5.573   7.222  0.3891  0.2640  0.6687
  651MOL0     C87782   7.904   5.504   7.221  0.3056  0.8060  0.2528
  651MOL0     C87783   7.912   5.366   7.258 -0.8627 -0.8722 -0.3602
  651MOL0     C87784   7.805   5.276   7.283  0.4582  0.5382  0.0223
  651MOL0     C87785   7.674   5.329   7.243 -0.8005  0.5388 -0.1099
  651MOL0     O87786   7.563   5.252   7.253 -0.5576  0.6150 -0.8636
  651MOL0     C87787   7.521   5.191   7.374  0.5617 -0.1144  0.2369
  651MOL0     C87788   7.382   5.141   7.353  0.1262 -0.1951  0.1593
  651MOL0     C87789   7.312   5.065   7.470  0.3199 -0.1472  0.4923
  651MOL0     C87790   7.184   5.003   7.435 -0.6917  0.1790 -0.0106
  651MOL0     C87791   7.084   4.986   7.559  0.7881 -0.8947  0.9308
  651MOL0     C87792   7.146   4.914   7.682 -0.0692 -0.6753 -0.2521
  651MOL0     C87793   7.190   4.770   7.659 -0.1679 -0.0622  0.7048
  651MOL0     C87794   7.067   4.672   7.675 -0.8442  1.2075 -0.4554
  651MOL0    Cl87795   7.013   4.626   7.508 -0.1665 -0.0840 -0.3353
  651MOL0     C87796   7.671   5.463   7.183 -0.0422  0.8472  0.8089
  651MOL0     C87797   7.783   5.555   7.171 -0.3075 -0.2371 -0.4708
  651MOL0     O87798   7.932   5.737   7.354 -0.7800  0.6202  0.5080
  651MOL0     C87799   8.239   5.728   7.182 -0.2878 -0.6520 -0.3034
  651MOL0     C87800   8.362   5.794   7.183  0.1482 -0.7491  0.9625
  651MOL0     N87801   9.143   6.001   7.191 -0.1848  0.3866  0.3697
  651MOL0     N87802   9.254   5.943   7.192  0.4216  0.1506 -0.1213
  651MOL0     C87803  10.277   6.114   7.424  0.3472 -0.6410 -0.0454
  651MOL0     C87804  10.390   6.203   7.413  0.0518  0.3344 -0.1152
  651MOL0     C87805  10.672   6.570   7.528  0.0392  0.2904  0.1447
  651MOL0     C87806  10.788   6.598   7.596 -0.5003 -0.3293 -0.4715
  651MOL0     C87807  10.874   6.701   7.554  0.9746  0.2875  0.1372
  651MOL0     C87808  10.837   6.783   7.444 -0.4342 -0.5758 -0.7866
  651MOL0     O87809  10.921   6.880   7.391 -0.1333  0.0610 -0.3138
  651MOL0     C87810  11.032   6.934   7.467  0.0864 -0.1879  0.4483
  651MOL0     C87811  11.051   7.066   7.393 -0.6818  0.6966  0.7171
  651MOL0     C87812  11.168   7.141   7.447  0.5278  0.0650  1.2361
  651MOL0     C87813  11.187   7.287   7.391 -0.0003  0.6562 -0.3430
  651MOL0     C87814  11.248   7.273   7.254  0.1609 -0.7857  0.4414
  651MOL0     C87815  11.304   7.258   7.142 -0.2696  0.5094 -0.3149
  651MOL0     C87816  10.721   6.751   7.381  0.7698 -0.4791  0.4279
  651MOL0     C87817  10.637   6.641   7.416  0.7541  0.2615 -0.4950
  651MOL0     H87818  10.358   6.385   7.698 -1.1549  1.4592 -1.1551
  651MOL0     H87819  10.180   6.212   7.747 -2.4359  1.5658 -2.3209
  651MOL0     H87820  10.011   6.013   7.381  0.8573 -0.8112 -0.9009
  651MOL0     H87821  10.123   5.890   7.419  2.3188  3.3390 -1.2253
  651MOL0     H87822   9.922   5.784   7.479  0.9061 -0.8889  1.6157
  651MOL0     H87823   9.953   5.844   7.636 -2.4979 -1.3733 -0.0819
  651MOL0     H87824   9.729   5.905   7.612  1.4086  2.4325  2.6865
  651MOL0     H87825   9.805   6.049   7.580 -1.1373  0.8799 -0.2064
  651MOL0     H87826   9.780   6.002   7.329 -1.1096 -0.2648  0.5591
  651MOL0     H87827   9.684   5.862   7.371 -2.7271 -0.2139  2.9525
  651MOL0     H87828   9.580   6.139   7.447 -3.4237  0.6133  0.4899
  651MOL0     H87829   9.537   6.057   7.305  0.5371  5.3102  0.2227
  651MOL0     H87830   9.496   5.967   7.598  0.7594 -1.0466  0.1442
  651MOL0     H87831   9.374   6.030   7.489  0.6898 -0.0387  0.0726
  651MOL0     H87832   9.522   5.766   7.468 -1.8260 -2.3014 -0.3366
  651MOL0     H87833   9.363   5.799   7.538  0.9245  1.3196  0.2957
  651MOL0     H87834   9.330   5.685   7.345  0.9015 -0.5287  3.0973
  651MOL0     H87835   9.442   5.796   7.248  2.4101  2.8783  1.8925
  651MOL0     H87836   9.114   5.836   7.474 -1.3934  1.1518 -0.0766
  651MOL0     H87837   8.969   6.070   7.451  2.3842  3.2797 -1.9959
  651MOL0     H87838   8.934   6.137   7.303  0.8891 -0.4607  1.0866
  651MOL0     H87839   8.754   5.988   7.418  1.6913 -1.8462  1.4007
  651MOL0     H87840   8.839   5.843   7.363 -1.4610  0.3138  0.8517
  651MOL0     H87841   8.838   5.923   7.125 -0.3214  0.5931 -0.5568
  651MOL0     H87842   8.749   6.059   7.165 -0.4082  0.8369  0.7217
  651MOL0     H87843   8.640   5.780   7.226  0.8993  0.7540 -0.1385
  651MOL0     H87844   8.596   5.888   7.092  2.3646 -0.4614 -1.3821
  651MOL0     H87845   8.348   5.964   7.466 -0.2561  0.3939 -1.8401
  651MOL0     H87846   8.045   5.773   7.564 -0.8806  1.1162  1.6033
  651MOL0     H87847   8.166   5.889   7.615 -0.6185 -2.5105  1.7060
  651MOL0     H87848   8.049   5.944   7.508 -0.1728  0.7486  3.2369
  651MOL0     H87849   8.005   5.326   7.296 -1.7084 -2.3613  0.2624
  651MOL0     H87850   7.819   5.178   7.327 -2.1141 -0.3863 -0.9814
  651MOL0     H87851   7.575   5.103   7.409 -0.0234  0.0886  1.6990
  651MOL0     H87852   7.514   5.271   7.448  1.8497  2.4729 -2.2348
  651MOL0     H87853   7.339   5.236   7.322  1.2657  0.0386 -0.7986
  651MOL0     H87854   7.386   5.076   7.265  0.3678 -0.1995  0.1715
  651MOL0     H87855   7.300   5.130   7.558 -0.4537 -0.4330  0.6055
  651MOL0     H87856   7.385   4.989   7.500 -2.1871 -2.8017  0.3452
  651MOL0     H87857   7.127   5.055   7.357 -2.5287 -1.7796 -0.0468
  651MOL0     H87858   7.212   4.916   7.376  0.2885  1.4847 -1.5528
  651MOL0     H87859   6.997   4.926   7.530  2.4541 -4.3038  2.4634
  651MOL0     H87860   7.044   5.084   7.586 -1.5859 -0.6627 -2.7125
  651MOL0     H87861   7.237   4.966   7.712  0.1727 -1.6226  0.7169
  651MOL0     H87862   7.071   4.921   7.761 -1.0165 -2.9109 -0.8762
  651MOL0     H87863   7.275   4.740   7.722 -1.0339 -0.0321  1.9256
  651MOL0     H87864   7.229   4.769   7.557 -3.1806 -0.4220 -0.5555
  651MOL0     H87865   6.987   4.716   7.735 -0.4334  2.6051 -0.9081
  651MOL0     H87866   7.093   4.573   7.714 -2.6764  0.7619 -0.2879
  651MOL0     H87867   7.575   5.513   7.175 -0.2730  0.6727  2.2281
  651MOL0     H87868   7.790   5.655   7.129 -4.3715 -0.5876 -2.3927
  651MOL0     H87869   8.217   5.675   7.090  0.4022  1.7171 -1.9308
  651MOL0     H87870   8.431   5.774   7.101  1.6374  0.3253  1.9038
  651MOL0     H87871  10.264   6.044   7.342  3.3495 -0.9848 -0.3401
  651MOL0     H87872  10.435   6.182   7.316 -1.4100 -1.1848 -0.5119
  651MOL0     H87873  10.821   6.528   7.672  0.3669  0.2311 -0.3247
  651MOL0     H87874  10.966   6.714   7.610  1.0785  0.0976  0.0097
  651MOL0     H87875  10.993   6.947   7.568 -1.5613  1.7991 -0.3648
  651MOL0     H87876  11.122   6.871   7.468 -0.7869 -1.4953  2.4312
  651MOL0     H87877  10.956   7.121   7.400 -0.6084  1.8174 -3.7952
  651MOL0     H87878  11.058   7.048   7.285  2.2009 -1.0596  1.1182
  651MOL0     H87879  11.264   7.091   7.433  0.2095  0.0332 -1.2068
  651MOL0     H87880  11.145   7.132   7.554 -2.1026  2.3069  0.9863
  651MOL0     H87881  11.260   7.343   7.449  0.0740  1.3140 -1.0480
  651MOL0     H87882  11.095   7.346   7.383  0.4877  1.1999 -3.0800
  651MOL0     H87883  11.351   7.255   7.046 -0.8753 -1.0276 -0.5945
  651MOL0     H87884  10.703   6.818   7.298  1.1168 -0.8977  0.0058
  651MOL0     H87885  10.540   6.636   7.367  1.1564  3.9784 -2.0450
  652MOL0     O87886   2.929   5.339   7.750 -0.2026  0.6187  0.8769
  652MOL0     C87887   2.963   5.265   7.656  0.0864  0.3223  0.2148
  652MOL0     O87888   2.913   5.145   7.628 -0.0916  0.2284 -0.3531
  652MOL0     C87889   2.814   5.091   7.703 -0.1440  0.0541  0.1182
  652MOL0     C87890   2.716   5.031   7.632  0.0159  0.3195  0.4747
  652MOL0     C87891   2.598   4.973   7.686 -1.1398  0.0591 -0.8665
  652MOL0     C87892   2.591   4.968   7.824  0.2807 -0.5626  0.5676
  652MOL0     O87893   2.491   4.923   7.906 -0.6092 -0.7022  0.3576
  652MOL0     C87894   2.404   4.827   7.848  0.1783 -0.5124 -0.1996
  652MOL0     C87895   2.447   4.679   7.865 -0.6604 -0.0345  0.4322
  652MOL0     C87896   2.531   4.648   7.992 -1.5819 -0.2219 -0.1472
  652MOL0     C87897   2.452   4.544   8.073  0.4947  0.5457 -0.4991
  652MOL0     C87898   2.506   4.518   8.214 -0.2181 -1.0635 -0.1657
  652MOL0     C87899   2.646   4.474   8.220 -0.5481  0.6318  0.6228
  652MOL0     C87900   2.671   4.402   8.351  0.2723  0.5919  1.0602
  652MOL0     C87901   2.816   4.347   8.351 -0.5686 -0.4304 -0.4565
  652MOL0     N87902   2.850   4.249   8.245 -0.3359 -0.2549  0.5861
  652MOL0     C87903   2.813   4.115   8.252 -0.3280  0.8531  0.2192
  652MOL0     C87904   2.851   4.067   8.130 -0.0332  0.4227  0.3277
  652MOL0     C87905   2.862   3.920   8.106  0.6835 -0.8601  0.3139
  652MOL0     C87906   2.868   3.902   7.950  0.6398 -0.4061 -1.0269
  652MOL0     C87907   2.724   3.928   7.887 -0.1372  0.7138  0.1966
  652MOL0     C87908   2.610   3.838   7.944  0.2172  0.2070 -0.1447
  652MOL0     O87909   2.535   3.902   8.049  0.4369 -0.6121 -0.3165
  652MOL0     C87910   2.431   3.831   8.102  0.3478 -0.7352 -0.5021
  652MOL0     C87911   2.397   3.690   8.088 -0.7359 -0.2042  0.3346
  652MOL0     C87912   2.273   3.639   8.132  0.1285 -0.7538 -0.0549
  652MOL0     C87913   2.251   3.489   8.106 -0.0276 -0.6808  0.1252
  652MOL0     C87914   2.168   3.727   8.185 -0.1505 -0.7505  0.0182
  652MOL0     C87915   2.027   3.690   8.226 -0.6904  0.2040 -1.2733
  652MOL0     O87916   1.939   3.797   8.221  0.4844 -0.1364  1.0148
  652MOL0     C87917   1.801   3.785   8.224 -0.1957 -0.1975 -0.8956
  652MOL0     C87918   1.724   3.663   8.223 -0.2627 -1.0471  0.5972
  652MOL0     C87919   1.580   3.670   8.231 -0.9642  0.5532 -1.6141
  652MOL0     C87920   1.527   3.791   8.273  0.5028  1.4672 -0.6893
  652MOL0     O87921   1.392   3.785   8.286 -0.0843  0.2855 -0.4595
  652MOL0     C87922   1.325   3.888   8.350 -0.1652  0.4846  0.3105
  652MOL0     C87923   1.174   3.872   8.342 -0.3709  0.6017  1.2016
  652MOL0     C87924   1.102   3.995   8.401 -0.6741  0.6954  0.1048
  652MOL0     C87925   0.957   3.990   8.405  0.3163  0.0804  0.6487
  652MOL0     C87926   0.915   3.891   8.519 -0.8503  0.6351 -0.4104
  652MOL0     C87927   0.767   3.878   8.530 -0.0422  0.6533 -0.6397
  652MOL0     C87928   0.723   3.775   8.630 -0.3363 -0.1361 -0.2023
  652MOL0     C87929   0.758   3.633   8.578 -0.5496  0.2995 -0.7765
  652MOL0    Cl87930   0.669   3.577   8.440  0.2684  0.0394  0.0533
  652MOL0     C87931   1.612   3.902   8.295  0.7019 -0.1213 -0.2578
  652MOL0     C87932   1.743   3.901   8.269  0.1549 -0.7506 -0.3735
  652MOL0     O87933   2.001   3.584   8.282  0.4492  0.1809  0.0637
  652MOL0     C87934   2.198   3.860   8.188  0.0403 -0.4674  0.2970
  652MOL0     C87935   2.328   3.909   8.155  0.3727  0.2480  0.6364
  652MOL0     N87936   2.922   4.166   8.065  0.3196 -0.0263  0.4493
  652MOL0     N87937   2.917   4.280   8.133 -0.4505 -0.1790 -0.0904
  652MOL0     C87938   2.693   5.024   7.898 -0.3869 -0.5814 -0.0468
  652MOL0     C87939   2.812   5.088   7.840 -0.4411  0.2484 -0.4986
  652MOL0     C87940   3.066   5.311   7.573  1.1498 -0.0591  0.0611
  652MOL0     C87941   3.082   5.250   7.447 -0.2685  0.0303  0.9713
  652MOL0     C87942   3.182   5.299   7.364 -0.1866  0.2097 -0.7751
  652MOL0     C87943   3.264   5.405   7.408  0.3214  0.8588 -0.4257
  652MOL0     O87944   3.357   5.462   7.327 -0.2330 -0.0309  0.4296
  652MOL0     C87945   3.426   5.378   7.229  0.0397 -0.5909 -0.3863
  652MOL0     C87946   3.557   5.443   7.197 -0.0388  0.0844 -0.4647
  652MOL0     C87947   3.663   5.443   7.300  0.4377 -0.0195 -0.4734
  652MOL0     C87948   3.769   5.531   7.255 -0.7110 -0.8016  0.6874
  652MOL0     C87949   3.881   5.503   7.347  0.1067  0.4492  0.1452
  652MOL0     C87950   3.985   5.468   7.403 -1.0329 -0.2889 -0.0181
  652MOL0     C87951   3.253   5.454   7.542 -0.1717  0.0881  0.3968
  652MOL0     C87952   3.149   5.417   7.623  0.9174  0.5508 -0.3214
  652MOL0     H87953   2.728   5.023   7.525 -2.6408 -0.8937  0.1884
  652MOL0     H87954   2.527   4.924   7.620 -1.9705 -2.0694  1.4517
  652MOL0     H87955   2.313   4.828   7.907 -0.1025 -1.0415 -0.6133
  652MOL0     H87956   2.382   4.857   7.745  0.1831  1.8082  0.4045
  652MOL0     H87957   2.358   4.616   7.856  0.8716 -2.0756 -1.6545
  652MOL0     H87958   2.516   4.662   7.782  1.7426  0.4556  2.2384
  652MOL0     H87959   2.631   4.610   7.967 -2.0969 -1.4510 -0.4145
  652MOL0     H87960   2.543   4.740   8.049 -3.9580  0.8206 -1.2174
  652MOL0     H87961   2.350   4.582   8.085  0.7370  0.7249  1.2863
  652MOL0     H87962   2.447   4.445   8.027  1.6885  1.8986 -3.8826
  652MOL0     H87963   2.498   4.607   8.276  1.7009 -0.5095 -0.6593
  652MOL0     H87964   2.440   4.446   8.264 -0.6524 -1.8083 -1.7557
  652MOL0     H87965   2.671   4.403   8.141  1.1864  1.2968  0.5148
  652MOL0     H87966   2.713   4.560   8.211 -1.7711  1.4700 -0.8387
  652MOL0     H87967   2.656   4.468   8.437  1.9753  1.2097  0.9305
  652MOL0     H87968   2.603   4.317   8.354 -1.6185  2.0115  0.1098
  652MOL0     H87969   2.835   4.301   8.448  1.5148  2.6776  0.7737
  652MOL0     H87970   2.896   4.422   8.349 -1.7866  0.9157 -0.2773
  652MOL0     H87971   2.765   4.065   8.336  2.2225 -0.4803  0.9930
  652MOL0     H87972   2.963   3.893   8.138  2.6196  1.9563 -2.7785
  652MOL0     H87973   2.779   3.868   8.156  0.0873 -0.7340 -0.5374
  652MOL0     H87974   2.903   3.801   7.926 -1.7185 -1.9172  1.3159
  652MOL0     H87975   2.942   3.970   7.907 -0.0646 -0.0417 -1.6861
  652MOL0     H87976   2.738   3.929   7.778 -0.1523  0.9029  0.1958
  652MOL0     H87977   2.698   4.030   7.919  2.0168  1.3719  0.0237
  652MOL0     H87978   2.663   3.755   7.992  2.1857  1.9742  0.9615
  652MOL0     H87979   2.542   3.808   7.865  0.9788 -0.0259 -0.7175
  652MOL0     H87980   2.466   3.614   8.054  1.4510  0.8947  2.0440
  652MOL0     H87981   2.215   3.481   8.003  1.6283 -0.5011 -0.4938
  652MOL0     H87982   2.346   3.435   8.114  0.5720  0.3458  0.0730
  652MOL0     H87983   2.173   3.440   8.165 -1.1505  0.6052 -0.2386
  652MOL0     H87984   1.781   3.578   8.189 -0.2523  0.7553 -4.6820
  652MOL0     H87985   1.521   3.584   8.200  0.7092 -0.5331 -1.8901
  652MOL0     H87986   1.366   3.882   8.451 -0.0449 -0.7173  0.2105
  652MOL0     H87987   1.350   3.980   8.298  2.8857 -1.4358 -1.9650
  652MOL0     H87988   1.147   3.870   8.236 -0.2350  1.2018  1.1520
  652MOL0     H87989   1.149   3.772   8.379  0.8298 -1.0625 -2.0798
  652MOL0     H87990   1.130   4.075   8.333  0.6951  0.7145  0.6726
  652MOL0     H87991   1.127   4.002   8.507 -0.3310 -2.6754  0.3636
  652MOL0     H87992   0.939   4.096   8.428 -0.0120  0.1471  0.0842
  652MOL0     H87993   0.909   3.965   8.310  1.0131 -1.7927  0.7567
  652MOL0     H87994   0.959   3.936   8.609 -0.6950  2.3224 -1.2943
  652MOL0     H87995   0.957   3.792   8.500 -1.9821  0.3842 -1.7245
  652MOL0     H87996   0.723   3.974   8.557  0.1729 -0.0125  2.4186
  652MOL0     H87997   0.721   3.867   8.431  0.6993 -1.1879 -0.8227
  652MOL0     H87998   0.617   3.779   8.658 -0.4047 -2.6727  0.1243
  652MOL0     H87999   0.769   3.801   8.726 -0.1994 -3.7727  0.8680
  652MOL0     H88000   0.739   3.558   8.655  0.4475  1.2293  0.4135
  652MOL0     H88001   0.866   3.626   8.564 -0.5224  2.7096 -2.2828
  652MOL0     H88002   1.559   3.991   8.328  2.6826  0.4351  1.6652
  652MOL0     H88003   1.801   3.993   8.279  0.5904 -0.8722 -1.5721
  652MOL0     H88004   2.120   3.933   8.208 -0.8666 -0.9837 -1.2014
  652MOL0     H88005   2.347   4.014   8.174 -0.0104  0.3614  0.4286
  652MOL0     H88006   2.693   5.023   8.007  2.9656  0.8865  0.0730
  652MOL0     H88007   2.892   5.122   7.905 -2.3782  0.8819  1.6555
  652MOL0     H88008   3.016   5.171   7.413 -0.3166  1.3303 -2.2582
  652MOL0     H88009   3.188   5.256   7.264  0.4694  1.5733 -1.3387
  652MOL0     H88010   3.437   5.276   7.266  3.1226  0.1532  1.1272
  652MOL0     H88011   3.371   5.375   7.135 -3.2955  1.0592  1.2856
  652MOL0     H88012   3.529   5.541   7.158 -2.4106 -0.9218 -1.5047
  652MOL0     H88013   3.611   5.395   7.115 -1.2964  1.3924 -2.1232
  652MOL0     H88014   3.704   5.342   7.293  1.5114  0.4778 -1.8901
  652MOL0     H88015   3.627   5.473   7.398 -1.7097 -1.4088 -0.7769
  652MOL0     H88016   3.735   5.634   7.260  0.8539 -0.2035 -0.1068
  652MOL0     H88017   3.793   5.500   7.152 -3.2965 -1.3175  0.1677
  652MOL0     H88018   4.075   5.452   7.458 -0.0882  2.0426 -0.7538
  652MOL0     H88019   3.322   5.530   7.577  3.1428 -3.4369  2.3136
  652MOL0     H88020   3.134   5.455   7.724  4.6049 -1.7638  1.3313
  653MOL0     O88021   1.188   9.652   2.040  0.4519 -0.2125 -0.4115
  653MOL0     C88022   1.297   9.698   2.015 -0.9323 -0.0765 -0.1226
  653MOL0     O88023   1.326   9.780   1.908  0.1012  0.1085 -0.5678
  653MOL0     C88024   1.237   9.829   1.816  0.3829 -0.2373 -0.1567
  653MOL0     C88025   1.102   9.856   1.855 -0.4371 -0.2700  0.2296
  653MOL0     C88026   1.013   9.924   1.766  0.9957 -0.2767  0.6978
  653MOL0     C88027   1.053   9.967   1.647 -0.6867 -0.0608 -0.3776
  653MOL0     O88028   0.969  10.048   1.579  0.1129 -0.4082  0.2047
  653MOL0     C88029   0.922  10.006   1.451  0.3106  0.7428 -0.4122
  653MOL0     C88030   1.005  10.043   1.332 -0.5108 -0.2329  0.5908
  653MOL0     C88031   0.983  10.193   1.311 -0.5765 -0.7127  0.7583
  653MOL0     C88032   0.916  10.212   1.173 -0.0543  0.5952 -0.6251
  653MOL0     C88033   0.879  10.356   1.134  0.6260  0.5839  1.3875
  653MOL0     C88034   0.812  10.442   1.238  0.1456 -0.5042  0.0386
  653MOL0     C88035   0.678  10.396   1.272  1.2616  0.3843  0.3049
  653MOL0     C88036   0.609  10.485   1.367  0.2251 -0.4336  0.2806
  653MOL0     N88037   0.683  10.493   1.493 -0.4354 -0.5944  0.2864
  653MOL0     C88038   0.700  10.385   1.578  0.2555  0.1851 -0.1112
  653MOL0     C88039   0.768  10.440   1.683 -1.4750 -0.0418 -0.1681
  653MOL0     C88040   0.819  10.353   1.799  0.3700  0.0793 -0.5792
  653MOL0     C88041   0.698  10.282   1.864 -0.6398  1.3007 -0.6975
  653MOL0     C88042   0.760  10.180   1.963 -0.0685 -0.6720  0.0115
  653MOL0     C88043   0.656  10.097   2.031 -0.1229 -0.2064 -0.5713
  653MOL0     O88044   0.559  10.040   1.936 -0.2996  0.3500 -0.6086
  653MOL0     C88045   0.423  10.080   1.928  0.0789 -0.2865 -1.0382
  653MOL0     C88046   0.334  10.002   1.857  0.0971 -0.1205  0.2025
  653MOL0     C88047   0.195  10.020   1.846  0.1126 -0.0772  0.0070
  653MOL0     C88048   0.118   9.931   1.753 -0.9021 -0.0702 -0.2758
  653MOL0     C88049   0.131  10.129   1.913  0.4011  0.4668  0.1484
  653MOL0     C88050  -0.019  10.174   1.911 -0.3096  0.0738 -0.1195
  653MOL0     O88051  -0.107  10.085   1.850  0.3093 -0.1878  0.1278
  653MOL0     C88052  -0.241  10.104   1.850  0.0033  0.0785  0.2852
  653MOL0     C88053  -0.297  10.220   1.797  0.0907 -0.8611  0.2407
  653MOL0     C88054  -0.435  10.231   1.784  0.2354  0.0921 -0.3979
  653MOL0     C88055  -0.524  10.129   1.832  0.6314 -0.4116 -0.0009
  653MOL0     O88056  -0.665  10.136   1.805 -0.3022  0.8327 -0.8842
  653MOL0     C88057  -0.725  10.254   1.772 -0.1904  0.3142 -0.0558
  653MOL0     C88058  -0.866  10.235   1.781  0.5579 -0.8109  0.0162
  653MOL0     C88059  -0.949  10.348   1.724 -0.9020 -0.4470  0.4096
  653MOL0     C88060  -1.101  10.322   1.724 -0.2134 -0.3179  0.1467
  653MOL0     C88061  -1.165  10.436   1.656  0.5815 -0.1553  0.0687
  653MOL0     C88062  -1.312  10.411   1.632  0.2100 -0.0275 -0.5904
  653MOL0     C88063  -1.398  10.533   1.596 -1.3387 -0.2559 -0.2038
  653MOL0     C88064  -1.543  10.514   1.611 -0.2797  0.0745 -0.5146
  653MOL0    Cl88065  -1.590  10.530   1.779 -0.3586  0.3239  0.2281
  653MOL0     C88066  -0.469  10.011   1.885 -0.2496 -0.1353 -0.0384
  653MOL0     C88067  -0.327  10.004   1.900 -0.2917  0.0168  0.5271
  653MOL0     O88068  -0.045  10.280   1.968 -0.0852  1.2290 -0.0483
  653MOL0     C88069   0.220  10.203   1.998  0.5724 -0.8298 -0.2445
  653MOL0     C88070   0.359  10.181   2.008  0.2470 -0.2617 -0.4238
  653MOL0     N88071   0.780  10.580   1.668 -0.1604 -0.2372 -0.5397
  653MOL0     N88072   0.730  10.607   1.553 -0.1391 -0.2999 -0.4395
  653MOL0     C88073   1.182   9.943   1.603  0.4514  0.1926  0.3890
  653MOL0     C88074   1.274   9.868   1.682  0.0125 -0.2970 -1.1426
  653MOL0     C88075   1.411   9.638   2.089 -0.5700  0.0688  0.1185
  653MOL0     C88076   1.544   9.665   2.059 -0.5842 -1.4342  0.1075
  653MOL0     C88077   1.648   9.602   2.122  0.3925  0.0797 -0.3597
  653MOL0     C88078   1.626   9.525   2.239 -0.0894  0.0502 -0.6128
  653MOL0     O88079   1.739   9.456   2.296 -0.1493 -0.2732  0.6199
  653MOL0     C88080   1.836   9.543   2.357 -0.2060  0.2324 -0.4817
  653MOL0     C88081   1.977   9.489   2.328  0.2423 -0.3360 -0.2829
  653MOL0     C88082   2.084   9.549   2.421 -0.4383  0.1153  0.0709
  653MOL0     C88083   2.111   9.697   2.387 -0.2712  0.2681  0.2873
  653MOL0     C88084   2.225   9.753   2.457  0.3127  0.2730  0.1900
  653MOL0     C88085   2.333   9.802   2.485 -0.1742 -1.0123 -0.5406
  653MOL0     C88086   1.493   9.498   2.273  0.4489 -0.1021  0.4255
  653MOL0     C88087   1.388   9.553   2.202  0.3100 -0.8846 -0.2681
  653MOL0     H88088   1.048   9.831   1.946 -0.8902 -2.3276 -0.5458
  653MOL0     H88089   0.912   9.929   1.806  0.4634 -1.6596 -0.3653
  653MOL0     H88090   0.915   9.897   1.461 -3.6133  0.6562 -2.0120
  653MOL0     H88091   0.816  10.033   1.440 -0.4104 -1.7084 -0.1097
  653MOL0     H88092   1.112  10.023   1.339 -0.3815 -0.6825 -1.8124
  653MOL0     H88093   0.962   9.982   1.251  2.2291 -0.0508 -1.1360
  653MOL0     H88094   0.914  10.230   1.387  1.4201  1.0427  1.8031
  653MOL0     H88095   1.075  10.247   1.336  1.2124 -3.4397  0.5759
  653MOL0     H88096   0.988  10.165   1.105  2.0773  0.4970  1.5487
  653MOL0     H88097   0.825  10.151   1.163  0.6328 -0.8657  1.3762
  653MOL0     H88098   0.973  10.406   1.109  1.3696 -1.0755  0.7254
  653MOL0     H88099   0.816  10.350   1.046  1.2963 -0.9185  0.9677
  653MOL0     H88100   0.878  10.446   1.325  3.5717 -0.8254 -2.3252
  653MOL0     H88101   0.807  10.545   1.199 -1.8129  0.4182  2.4816
  653MOL0     H88102   0.621  10.388   1.179 -1.8757  1.3645  1.9969
  653MOL0     H88103   0.687  10.293   1.308  1.3437 -1.2859 -3.8724
  653MOL0     H88104   0.506  10.453   1.386 -0.2002  0.2909 -0.7178
  653MOL0     H88105   0.610  10.578   1.310  1.6878  0.1293  1.1808
  653MOL0     H88106   0.666  10.282   1.571  1.7850 -0.5187  1.9594
  653MOL0     H88107   0.885  10.285   1.744  1.1699 -1.4054  2.0318
  653MOL0     H88108   0.876  10.410   1.873  0.9586  3.6848 -3.5044
  653MOL0     H88109   0.641  10.233   1.784  1.6442 -0.5493 -1.2979
  653MOL0     H88110   0.642  10.358   1.920 -0.1916  1.4947 -0.5144
  653MOL0     H88111   0.814  10.230   2.044  0.0504 -2.8880  1.3672
  653MOL0     H88112   0.816  10.108   1.903 -1.2972 -0.2928 -1.6928
  653MOL0     H88113   0.612  10.165   2.105 -0.0884 -0.8764  0.0735
  653MOL0     H88114   0.714  10.014   2.073 -1.2399  0.1384  1.8156
  653MOL0     H88115   0.385   9.914   1.818  0.9739  0.9598 -1.2143
  653MOL0     H88116   0.049   9.864   1.805  0.8860 -0.7005  1.3885
  653MOL0     H88117   0.078  10.006   1.684  1.8297  0.2729 -1.6232
  653MOL0     H88118   0.192   9.869   1.702  0.7419  2.6852 -1.4971
  653MOL0     H88119  -0.229  10.293   1.753  0.7935 -1.5749  0.1291
  653MOL0     H88120  -0.480  10.324   1.748  1.3324  0.8049  0.0356
  653MOL0     H88121  -0.687  10.337   1.833  2.3871  1.5056 -3.0027
  653MOL0     H88122  -0.707  10.283   1.668 -0.3899 -2.7458 -1.0351
  653MOL0     H88123  -0.881  10.138   1.733  1.7749 -1.2357  0.4483
  653MOL0     H88124  -0.896  10.238   1.886 -2.2464 -0.4063 -0.7215
  653MOL0     H88125  -0.915  10.356   1.620 -0.1754 -0.7743  0.6124
  653MOL0     H88126  -0.926  10.438   1.781  1.7933 -0.3181 -0.7119
  653MOL0     H88127  -1.122  10.237   1.658  1.0464  1.6797 -3.0576
  653MOL0     H88128  -1.132  10.305   1.827  1.1234  0.4572  0.6923
  653MOL0     H88129  -1.127  10.453   1.555  0.5164  0.0218  0.0727
  653MOL0     H88130  -1.160  10.522   1.724 -0.2791 -0.5204  0.6155
  653MOL0     H88131  -1.324  10.346   1.545  0.0971 -2.2257  0.9759
  653MOL0     H88132  -1.353  10.362   1.721 -2.2898  0.5767 -1.3493
  653MOL0     H88133  -1.378  10.569   1.495 -0.3932  1.3105  0.5003
  653MOL0     H88134  -1.358  10.615   1.656  0.5057 -0.0025 -1.7158
  653MOL0     H88135  -1.559  10.412   1.574  0.1525 -1.2547  2.5909
  653MOL0     H88136  -1.591  10.591   1.550 -1.3850 -0.3284 -0.1865
  653MOL0     H88137  -0.523   9.922   1.915 -0.0868 -0.0866  0.4223
  653MOL0     H88138  -0.274   9.918   1.942  0.5933 -0.1810 -0.9107
  653MOL0     H88139   0.183  10.286   2.056 -2.8824 -1.6362 -1.0680
  653MOL0     H88140   0.404  10.248   2.080 -1.3063 -1.6783  2.0052
  653MOL0     H88141   1.221   9.971   1.507 -1.1337 -0.5582 -0.5253
  653MOL0     H88142   1.376   9.853   1.647  0.1207 -0.5372 -0.7265
  653MOL0     H88143   1.573   9.738   1.984  0.0065 -1.7356  0.0317
  653MOL0     H88144   1.747   9.638   2.097  0.5506  0.6945  1.0789
  653MOL0     H88145   1.814   9.645   2.323 -0.7616 -0.0754 -1.0850
  653MOL0     H88146   1.821   9.534   2.465  3.3354 -0.4973  0.0624
  653MOL0     H88147   2.011   9.491   2.224 -0.5356 -2.6428 -0.6397
  653MOL0     H88148   1.977   9.383   2.356 -3.1938 -0.2666  0.4586
  653MOL0     H88149   2.175   9.492   2.400 -1.0800 -0.1582 -2.2588
  653MOL0     H88150   2.063   9.518   2.524 -1.0366 -0.4155 -0.2026
  653MOL0     H88151   2.022   9.757   2.404 -0.6824 -0.7041  1.7589
  653MOL0     H88152   2.145   9.700   2.283  1.8485 -1.8739  0.8298
  653MOL0     H88153   2.430   9.844   2.497 -0.5544 -0.7377  2.0969
  653MOL0     H88154   1.475   9.434   2.359  0.1089  0.4404  0.7615
  653MOL0     H88155   1.292   9.534   2.249 -0.2273  1.4010 -0.2951
  654MOL0     O88156   8.753   4.985   2.805  0.0477 -0.3685  0.3487
  654MOL0     C88157   8.666   4.999   2.892 -0.1493 -0.5905 -0.1782
  654MOL0     O88158   8.695   5.031   3.024 -0.2225 -0.5350 -0.1565
  654MOL0     C88159   8.829   5.058   3.057 -0.1867  0.6742 -0.4689
  654MOL0     C88160   8.861   5.168   3.139  0.5554 -0.6278  0.0337
  654MOL0     C88161   8.990   5.187   3.193  0.4104  0.6073  0.4361
  654MOL0     C88162   9.090   5.087   3.177 -0.9264 -0.4250  0.2804
  654MOL0     O88163   9.227   5.099   3.202  0.1610 -0.0090 -0.9685
  654MOL0     C88164   9.265   5.186   3.307 -0.0856  0.2147  0.5646
  654MOL0     C88165   9.404   5.156   3.377  0.5925  0.6168  0.5223
  654MOL0     C88166   9.458   5.264   3.463 -0.0712 -0.5190  0.9702
  654MOL0     C88167   9.584   5.224   3.534 -1.1421  0.2759 -0.1404
  654MOL0     C88168   9.629   5.327   3.629 -0.4480 -0.7035 -0.1107
  654MOL0     C88169   9.767   5.279   3.683  0.9170 -0.3555  0.8992
  654MOL0     C88170   9.824   5.377   3.793  0.3343  0.8522 -0.1628
  654MOL0     C88171   9.977   5.391   3.776 -0.0332 -0.2773  0.8292
  654MOL0     N88172  10.044   5.486   3.872 -0.2921  0.4464 -0.4520
  654MOL0     C88173  10.097   5.443   3.998  0.7227 -0.3035  0.0758
  654MOL0     C88174  10.179   5.544   4.045  0.0032 -0.2141 -0.4902
  654MOL0     C88175  10.272   5.545   4.165  0.3983  0.4800  0.2425
  654MOL0     C88176  10.207   5.611   4.292  0.3843  0.8053 -0.5818
  654MOL0     C88177  10.296   5.619   4.417  0.6050  0.1421  0.9691
  654MOL0     C88178  10.381   5.498   4.462 -0.2379  0.2677  0.3247
  654MOL0     O88179  10.292   5.382   4.468  0.8396 -0.0104 -0.4609
  654MOL0     C88180  10.210   5.369   4.582 -0.7076  0.2282  1.1825
  654MOL0     C88181  10.208   5.446   4.692  0.3202  0.8783 -0.0594
  654MOL0     C88182  10.116   5.428   4.806  0.4036  0.7591  1.0729
  654MOL0     C88183  10.124   5.515   4.927 -0.0353  0.1817  0.5586
  654MOL0     C88184  10.027   5.317   4.789  0.4748  0.4047 -0.4481
  654MOL0     C88185   9.921   5.277   4.888 -0.4884  0.5734 -0.1476
  654MOL0     O88186   9.870   5.150   4.880 -0.1114 -0.0601 -0.2404
  654MOL0     C88187   9.765   5.133   4.967  0.2672  0.6760  0.9265
  654MOL0     C88188   9.794   5.105   5.099  0.7175  0.7725 -0.6521
  654MOL0     C88189   9.688   5.072   5.179 -0.0987 -0.1484  0.4859
  654MOL0     C88190   9.554   5.065   5.130 -0.9308  0.2921 -0.2582
  654MOL0     O88191   9.459   5.036   5.225 -0.2122  0.2325  0.2605
  654MOL0     C88192   9.329   5.091   5.218  0.2025 -0.0024 -0.1214
  654MOL0     C88193   9.218   4.990   5.186  0.2656  0.0343  0.7094
  654MOL0     C88194   9.083   5.038   5.226 -0.3549 -0.5057  0.1239
  654MOL0     C88195   8.978   4.930   5.188  0.0251 -0.3925  0.8677
  654MOL0     C88196   8.837   4.964   5.214 -0.0186  0.1482 -0.5184
  654MOL0     C88197   8.798   4.962   5.361 -0.3140 -0.5250  0.6175
  654MOL0     C88198   8.645   4.967   5.380  0.2714  0.4214  0.5457
  654MOL0     C88199   8.576   4.830   5.369  0.1353 -0.6283 -0.1644
  654MOL0    Cl88200   8.405   4.871   5.357 -0.4694  0.1329 -0.3796
  654MOL0     C88201   9.531   5.077   4.991  0.3230  0.1366  0.9659
  654MOL0     C88202   9.641   5.105   4.912  0.5468  0.7237 -0.0388
  654MOL0     O88203   9.893   5.361   4.969 -0.8296 -0.6780 -0.1926
  654MOL0     C88204  10.034   5.239   4.674 -0.4552 -0.2878 -0.4735
  654MOL0     C88205  10.129   5.263   4.580 -0.6141  0.6774 -0.2511
  654MOL0     N88206  10.166   5.649   3.954 -0.3710  0.1706 -0.2950
  654MOL0     N88207  10.091   5.610   3.854 -0.1978 -0.5602 -0.4578
  654MOL0     C88208   9.058   4.987   3.084  0.1643 -0.2892  0.7312
  654MOL0     C88209   8.933   4.964   3.034 -0.6461 -0.1993 -0.0506
  654MOL0     C88210   8.529   4.961   2.861 -0.0496  0.1761 -0.2353
  654MOL0     C88211   8.430   4.988   2.960  1.0798  0.0972  0.0768
  654MOL0     C88212   8.295   4.966   2.934  0.0023 -0.5866  0.1089
  654MOL0     C88213   8.254   4.919   2.808  0.1280  0.9687  0.5520
  654MOL0     O88214   8.122   4.889   2.773 -0.3439  0.6829  0.8921
  654MOL0     C88215   8.019   4.912   2.864 -0.1467  0.8935 -0.0516
  654MOL0     C88216   7.875   4.875   2.802  0.9207 -0.2752  0.5148
  654MOL0     C88217   7.829   4.973   2.690 -0.5075  0.7704 -0.3476
  654MOL0     C88218   7.719   4.908   2.616  0.8305 -0.2882  0.9396
  654MOL0     C88219   7.600   4.891   2.689 -0.2289 -0.4478  0.2585
  654MOL0     C88220   7.493   4.889   2.743  0.6434 -0.8052 -0.7688
  654MOL0     C88221   8.352   4.894   2.713 -0.4331 -0.3601  0.3007
  654MOL0     C88222   8.486   4.910   2.733  0.5028  0.5455 -0.6303
  654MOL0     H88223   8.788   5.248   3.144 -0.8040 -1.8199 -0.0974
  654MOL0     H88224   9.023   5.282   3.233  3.3590  0.1070 -0.5504
  654MOL0     H88225   9.263   5.281   3.254 -2.3161 -1.3423 -2.4709
  654MOL0     H88226   9.194   5.193   3.389  1.5446  0.6736  2.0037
  654MOL0     H88227   9.404   5.061   3.432  3.9608 -0.7642 -1.5510
  654MOL0     H88228   9.469   5.126   3.295 -3.0259 -0.8198 -2.0858
  654MOL0     H88229   9.488   5.347   3.399  1.0917  0.9384  3.2675
  654MOL0     H88230   9.386   5.306   3.533 -1.3280 -3.2667  1.4862
  654MOL0     H88231   9.553   5.142   3.599 -3.5745  0.9016 -0.4245
  654MOL0     H88232   9.666   5.185   3.472  0.1398 -1.5217  2.5057
  654MOL0     H88233   9.638   5.428   3.586  1.0288  0.3424  2.4288
  654MOL0     H88234   9.567   5.327   3.719 -0.0242  0.3569  0.2081
  654MOL0     H88235   9.743   5.182   3.727 -0.4773  0.8204  2.9447
  654MOL0     H88236   9.830   5.271   3.594  1.4415  1.3127  1.0757
  654MOL0     H88237   9.777   5.475   3.782 -0.2190  0.4370 -1.7651
  654MOL0     H88238   9.806   5.335   3.892 -0.4824 -0.2930 -0.7664
  654MOL0     H88239   9.993   5.439   3.679  0.0336  3.3264  2.4572
  654MOL0     H88240  10.019   5.291   3.783 -3.2406 -1.8944 -0.9557
  654MOL0     H88241  10.088   5.343   4.039 -0.8298 -0.6491 -1.0166
  654MOL0     H88242  10.297   5.440   4.179  0.4221  0.2258 -1.4526
  654MOL0     H88243  10.364   5.597   4.133  1.0519 -1.4139 -1.1251
  654MOL0     H88244  10.127   5.538   4.305 -0.8042  2.0474 -0.7845
  654MOL0     H88245  10.161   5.706   4.265  1.3914  1.2052 -0.9396
  654MOL0     H88246  10.233   5.659   4.497  0.6687  1.1590  0.5203
  654MOL0     H88247  10.358   5.708   4.402  1.1783 -0.6827 -2.4286
  654MOL0     H88248  10.434   5.512   4.557  0.3682 -0.4846  0.1059
  654MOL0     H88249  10.457   5.472   4.389 -2.8153  0.6405 -2.6992
  654MOL0     H88250  10.285   5.522   4.699  1.7365 -0.6579  2.2028
  654MOL0     H88251  10.048   5.593   4.927 -0.3893 -0.1461  1.6279
  654MOL0     H88252  10.092   5.457   5.014  1.5923 -1.1221  0.3469
  654MOL0     H88253  10.222   5.558   4.952 -0.4377  0.2412  2.1890
  654MOL0     H88254   9.896   5.108   5.136  1.0682  1.0698 -1.6160
  654MOL0     H88255   9.710   5.061   5.285 -0.5568  0.5086  0.6555
  654MOL0     H88256   9.306   5.136   5.314  1.0383  0.1297  0.0261
  654MOL0     H88257   9.324   5.170   5.143 -1.8968  1.8960  1.8845
  654MOL0     H88258   9.215   4.969   5.078  2.0571 -1.9631  0.9759
  654MOL0     H88259   9.228   4.897   5.243 -1.5181  0.7507  2.2759
  654MOL0     H88260   9.067   5.134   5.174  2.1597 -1.6241 -3.0881
  654MOL0     H88261   9.087   5.057   5.333  2.5542  0.5941 -0.0779
  654MOL0     H88262   8.998   4.903   5.084  0.4526  0.5778  0.6916
  654MOL0     H88263   8.999   4.836   5.241 -1.1798 -0.7708  0.7066
  654MOL0     H88264   8.768   4.895   5.165 -2.1516  0.7572  1.4833
  654MOL0     H88265   8.809   5.062   5.174 -0.0502 -0.0184 -0.9115
  654MOL0     H88266   8.833   4.873   5.414 -2.6996  0.4348  4.1672
  654MOL0     H88267   8.842   5.047   5.414 -2.7775 -0.1586  2.2400
  654MOL0     H88268   8.589   5.032   5.311 -1.1436 -1.1884  0.1061
  654MOL0     H88269   8.626   4.997   5.483 -1.5644 -1.5864  0.8685
  654MOL0     H88270   8.601   4.770   5.457 -0.1442 -1.8530 -0.8980
  654MOL0     H88271   8.608   4.775   5.280  1.9712 -0.5112  0.3909
  654MOL0     H88272   9.433   5.074   4.943  0.0926  1.9225  1.2443
  654MOL0     H88273   9.625   5.110   4.804 -1.0290 -2.0682  0.0001
  654MOL0     H88274   9.971   5.150   4.670  3.7770 -3.6840  0.4902
  654MOL0     H88275  10.136   5.197   4.494  1.2537  3.3090 -2.2666
  654MOL0     H88276   9.133   4.928   3.033  0.2260  2.5684 -2.9728
  654MOL0     H88277   8.911   4.879   2.970 -3.5334  1.1895 -1.0671
  654MOL0     H88278   8.457   5.026   3.058 -2.5900 -0.4575  1.4671
  654MOL0     H88279   8.225   4.975   3.016  0.4333  1.3756  0.2977
  654MOL0     H88280   8.033   4.856   2.957  0.2525  0.1637 -0.5361
  654MOL0     H88281   8.021   5.020   2.879 -3.8067  1.4445 -2.4079
  654MOL0     H88282   7.808   4.890   2.887 -0.3425 -0.1476 -0.4824
  654MOL0     H88283   7.874   4.766   2.790 -0.2178 -0.3336  1.0584
  654MOL0     H88284   7.900   4.983   2.608 -1.7881  2.3361 -1.3214
  654MOL0     H88285   7.801   5.074   2.721  0.0235  0.9463 -0.4412
  654MOL0     H88286   7.738   4.804   2.588  0.0446  0.0156 -0.8360
  654MOL0     H88287   7.688   4.962   2.527  3.7692  0.8319  0.4683
  654MOL0     H88288   7.395   4.900   2.787  1.5712  0.5230  1.1145
  654MOL0     H88289   8.329   4.853   2.615  0.0860  1.1901 -0.5007
  654MOL0     H88290   8.553   4.889   2.650 -2.0128 -1.0885 -2.4193
  655MOL0     O88291   2.146  10.719   9.162 -0.1259 -0.1956  0.1989
  655MOL0     C88292   2.221  10.623   9.169 -0.0286  0.4919  0.0230
  655MOL0     O88293   2.181  10.500   9.210 -0.2817 -0.1460  0.7768
  655MOL0     C88294   2.050  10.489   9.236  0.7018  0.3667  0.4878
  655MOL0     C88295   1.945  10.507   9.147 -0.5616 -0.0791  0.4066
  655MOL0     C88296   1.815  10.473   9.187  1.3060 -0.4888  0.7658
  655MOL0     C88297   1.778  10.437   9.317 -0.2672  0.4003 -0.2731
  655MOL0     O88298   1.645  10.406   9.351  0.1774  1.0065 -0.4094
  655MOL0     C88299   1.600  10.426   9.488  0.4410 -0.8006 -0.2051
  655MOL0     C88300   1.448  10.400   9.489  0.9651 -0.5201  0.2609
  655MOL0     C88301   1.372  10.527   9.436 -1.3440 -0.1500  0.0155
  655MOL0     C88302   1.216  10.515   9.438 -0.3379 -0.9580 -0.9676
  655MOL0     C88303   1.142  10.645   9.430 -0.6128 -0.6989 -0.0112
  655MOL0     C88304   1.125  10.716   9.566  0.0596  1.3283 -0.5833
  655MOL0     C88305   1.101  10.869   9.552 -0.6853  0.9210  0.0272
  655MOL0     C88306   1.103  10.934   9.687 -1.1710  0.0964 -0.1335
  655MOL0     N88307   1.151  11.070   9.682 -0.6458 -0.0153 -0.4465
  655MOL0     C88308   1.285  11.099   9.709  0.2900  0.4858 -1.0663
  655MOL0     C88309   1.276  11.232   9.715  0.2493 -0.1909  1.6994
  655MOL0     C88310   1.402  11.318   9.723 -0.1126 -1.1359  1.0721
  655MOL0     C88311   1.414  11.448   9.626 -0.1820  0.6078 -0.1908
  655MOL0     C88312   1.438  11.412   9.479  0.0526 -0.0648 -0.4482
  655MOL0     C88313   1.335  11.327   9.400 -0.1963 -1.2856 -0.5193
  655MOL0     O88314   1.366  11.330   9.259 -0.1411  0.2696 -0.7204
  655MOL0     C88315   1.309  11.239   9.173 -0.0706 -0.5504 -0.4441
  655MOL0     C88316   1.177  11.191   9.185 -0.5016  0.5636  0.8102
  655MOL0     C88317   1.123  11.106   9.093  0.4439  0.1549  1.3060
  655MOL0     C88318   0.995  11.032   9.130 -0.2601 -0.7714 -0.4738
  655MOL0     C88319   1.186  11.075   8.973 -0.5480 -0.0083  0.4566
  655MOL0     C88320   1.135  10.997   8.863 -0.2341  0.2387  0.0254
  655MOL0     O88321   1.003  10.986   8.855 -0.4821 -0.0051 -0.3704
  655MOL0     C88322   0.938  10.902   8.770  0.2037 -0.5396 -0.0828
  655MOL0     C88323   0.898  10.770   8.794 -0.5268 -0.8400 -0.2299
  655MOL0     C88324   0.839  10.693   8.693  0.2133 -0.8540 -1.0227
  655MOL0     C88325   0.825  10.744   8.568  0.0022 -0.3684  0.0090
  655MOL0     O88326   0.768  10.678   8.466 -0.4822  0.0165 -0.0715
  655MOL0     C88327   0.630  10.641   8.483  0.2045 -0.3293  0.4403
  655MOL0     C88328   0.585  10.608   8.341  0.8533  0.3610 -0.0484
  655MOL0     C88329   0.552  10.730   8.261 -0.2614 -0.8130  0.6305
  655MOL0     C88330   0.518  10.688   8.117  0.5321  0.5351  0.7906
  655MOL0     C88331   0.513  10.806   8.017  0.3484  0.4413 -0.3877
  655MOL0     C88332   0.477  10.766   7.872 -0.1075  1.0886 -0.2632
  655MOL0     C88333   0.345  10.699   7.845  0.1141 -0.3177 -0.1267
  655MOL0     C88334   0.237  10.799   7.861  0.8039  0.4151  0.3198
  655MOL0    Cl88335   0.174  10.797   8.040 -0.0237  0.4964 -0.0932
  655MOL0     C88336   0.872  10.871   8.535  0.5167  0.3653  0.8720
  655MOL0     C88337   0.924  10.950   8.638  0.1734  0.0150  0.0391
  655MOL0     O88338   1.212  10.948   8.781  0.1361  0.2985  0.2959
  655MOL0     C88339   1.318  11.125   8.958  0.5478 -0.3562 -0.0552
  655MOL0     C88340   1.375  11.211   9.055 -0.5472  0.0196  0.0981
  655MOL0     N88341   1.149  11.279   9.685  0.2315 -0.3840 -0.5065
  655MOL0     N88342   1.072  11.180   9.661 -0.4140  0.2362 -0.4209
  655MOL0     C88343   1.885  10.415   9.412  0.4895 -0.2511  1.1794
  655MOL0     C88344   2.020  10.448   9.367  0.4354  0.3609 -0.9414
  655MOL0     C88345   2.363  10.655   9.150 -0.8684 -0.1185 -0.4848
  655MOL0     C88346   2.414  10.780   9.123 -0.4077 -0.8527 -0.2474
  655MOL0     C88347   2.550  10.801   9.097  0.1670 -0.0082  0.0851
  655MOL0     C88348   2.639  10.692   9.106 -0.6161  0.4527  0.3659
  655MOL0     O88349   2.774  10.691   9.075 -0.2933 -0.2651  0.1070
  655MOL0     C88350   2.787  10.765   8.947 -0.6663 -0.8359  1.1025
  655MOL0     C88351   2.916  10.717   8.879  0.2469  0.1433  0.1699
  655MOL0     C88352   3.049  10.744   8.961  0.5841 -0.3109  0.0148
  655MOL0     C88353   3.174  10.703   8.881 -0.5058 -0.0219 -0.0487
  655MOL0     C88354   3.301  10.716   8.945  0.7950  1.1050 -0.3283
  655MOL0     C88355   3.401  10.736   9.003 -0.4123  0.2706  0.7979
  655MOL0     C88356   2.591  10.569   9.154  0.7006  1.0925 -0.2396
  655MOL0     C88357   2.453  10.548   9.168  0.5903 -0.4597 -0.4238
  655MOL0     H88358   1.952  10.554   9.049 -1.1908  1.5655  1.1017
  655MOL0     H88359   1.729  10.477   9.121 -0.6311  0.9880  3.1801
  655MOL0     H88360   1.640  10.361   9.566 -0.2231  1.4144  2.1464
  655MOL0     H88361   1.635  10.522   9.528  1.5127 -1.5102  0.5963
  655MOL0     H88362   1.422  10.314   9.427 -0.9410 -1.3814  2.1228
  655MOL0     H88363   1.395  10.379   9.583 -4.5872  0.4185 -2.2536
  655MOL0     H88364   1.399  10.614   9.497 -4.8326  0.8998  0.2938
  655MOL0     H88365   1.411  10.554   9.337 -2.6085  2.3903  0.1264
  655MOL0     H88366   1.188  10.454   9.351 -1.1674 -2.5324  0.3561
  655MOL0     H88367   1.189  10.448   9.520  1.2669 -2.6865 -1.7463
  655MOL0     H88368   1.192  10.703   9.353  0.0819  1.0145  1.6688
  655MOL0     H88369   1.041  10.617   9.400 -0.1310 -2.6239 -0.0282
  655MOL0     H88370   1.049  10.668   9.629 -0.8184  0.0050 -2.5247
  655MOL0     H88371   1.220  10.693   9.615 -0.4825 -1.1840 -0.5594
  655MOL0     H88372   1.179  10.913   9.488 -0.6524 -0.9415 -1.2935
  655MOL0     H88373   1.002  10.878   9.505 -0.5978 -4.2731 -1.7852
  655MOL0     H88374   1.185  10.883   9.738 -0.3167 -2.3987 -3.6656
  655MOL0     H88375   1.012  10.922   9.747 -1.0633  0.5164  0.1198
  655MOL0     H88376   1.365  11.028   9.724 -0.1302 -0.4415 -2.9231
  655MOL0     H88377   1.414  11.355   9.825  0.4846 -1.8105  1.2559
  655MOL0     H88378   1.492  11.258   9.706 -0.2569 -0.8530 -0.9651
  655MOL0     H88379   1.501  11.499   9.669  0.1688 -2.2003  2.8851
  655MOL0     H88380   1.324  11.509   9.634 -0.7024 -0.3849  2.6867
  655MOL0     H88381   1.532  11.355   9.476 -0.3594 -0.7307 -0.7396
  655MOL0     H88382   1.449  11.509   9.429 -1.7414 -0.5916 -1.9552
  655MOL0     H88383   1.232  11.362   9.412  1.0396  1.6708  5.1380
  655MOL0     H88384   1.324  11.226   9.439  0.7391 -1.0124  0.4921
  655MOL0     H88385   1.112  11.200   9.272 -0.3657 -0.9333  1.1073
  655MOL0     H88386   0.960  11.050   9.232 -1.8948  2.5342 -1.4695
  655MOL0     H88387   0.908  11.065   9.073 -2.0185 -1.9312  1.4249
  655MOL0     H88388   1.003  10.924   9.116  1.1409 -0.7158 -0.2539
  655MOL0     H88389   0.912  10.741   8.898 -1.9203 -1.4809 -0.2100
  655MOL0     H88390   0.814  10.587   8.702 -0.4565 -0.9220 -3.0187
  655MOL0     H88391   0.621  10.551   8.544 -3.6127  0.7688  1.8362
  655MOL0     H88392   0.563  10.715   8.530 -1.5481 -0.9576 -0.9567
  655MOL0     H88393   0.660  10.543   8.294  2.3056  0.9331  1.3792
  655MOL0     H88394   0.489  10.556   8.345 -0.4036  2.3073 -2.4904
  655MOL0     H88395   0.642  10.792   8.254 -0.4813 -0.6953 -2.4605
  655MOL0     H88396   0.469  10.795   8.288  0.4970  2.2497 -3.3951
  655MOL0     H88397   0.600  10.623   8.085  1.3678  1.6866  0.5513
  655MOL0     H88398   0.419  10.642   8.107  0.1093  1.4464  0.7205
  655MOL0     H88399   0.619  10.833   8.006  0.5029 -0.0668 -0.1763
  655MOL0     H88400   0.462  10.898   8.049  0.6411  1.1868 -1.9495
  655MOL0     H88401   0.481  10.855   7.808 -1.0015  0.1794 -1.6492
  655MOL0     H88402   0.560  10.705   7.835 -1.1017 -0.2915 -0.3018
  655MOL0     H88403   0.338  10.612   7.910  1.4080  1.2185  2.1963
  655MOL0     H88404   0.339  10.662   7.742 -2.2846  0.5585 -0.3854
  655MOL0     H88405   0.152  10.771   7.797  0.5414  0.3433  0.6935
  655MOL0     H88406   0.270  10.896   7.824  4.3274 -1.6907 -2.7647
  655MOL0     H88407   0.861  10.896   8.430  1.6643 -2.5204 -0.0333
  655MOL0     H88408   0.952  11.053   8.616 -2.0032  0.8557  0.9196
  655MOL0     H88409   1.369  11.116   8.863 -0.7483 -1.5137 -0.6735
  655MOL0     H88410   1.478  11.246   9.049 -0.6302 -0.0065 -1.8168
  655MOL0     H88411   1.865  10.374   9.510  0.2269  0.2354  1.3334
  655MOL0     H88412   2.095  10.441   9.445  0.4307  0.5022 -0.9232
  655MOL0     H88413   2.349  10.865   9.109  0.8743  0.7963  2.8559
  655MOL0     H88414   2.588  10.889   9.045  0.2248 -0.6904 -1.0759
  655MOL0     H88415   2.704  10.752   8.878 -0.2252 -0.4902  0.4991
  655MOL0     H88416   2.802  10.868   8.981 -0.6519 -0.8762  1.2159
  655MOL0     H88417   2.932  10.767   8.784 -1.5292  1.1372  0.3528
  655MOL0     H88418   2.902  10.609   8.865 -2.0861  0.1803  1.5613
  655MOL0     H88419   3.056  10.700   9.061 -1.2397  0.2510  0.4455
  655MOL0     H88420   3.058  10.852   8.976  0.5842 -0.3810  0.5575
  655MOL0     H88421   3.177  10.759   8.787 -0.5528  1.1003  0.6046
  655MOL0     H88422   3.162  10.606   8.831  0.3643 -0.8554  1.2872
  655MOL0     H88423   3.487  10.762   9.061  1.5498  0.9236 -2.2111
  655MOL0     H88424   2.650  10.482   9.179 -2.2270 -2.1695 -3.3995
  655MOL0     H88425   2.410  10.450   9.186 -1.3280  0.2601 -0.8392
  656MOL0     O88426   2.168   1.625   2.400  0.4637  0.9053 -0.2752
  656MOL0     C88427   2.152   1.731   2.347  0.1909 -0.2539 -0.4237
  656MOL0     O88428   2.036   1.766   2.278 -0.1683 -0.0046  0.7016
  656MOL0     C88429   1.939   1.674   2.241  0.8750  0.3812 -0.5216
  656MOL0     C88430   1.952   1.605   2.120  0.7852  0.6394  0.2229
  656MOL0     C88431   1.858   1.508   2.083 -0.2281 -1.0765  0.5346
  656MOL0     C88432   1.740   1.491   2.150 -0.1484 -0.7218 -1.0470
  656MOL0     O88433   1.645   1.405   2.097  1.0999 -0.0840  0.2148
  656MOL0     C88434   1.509   1.409   2.152  0.5183  1.0218  0.5077
  656MOL0     C88435   1.419   1.326   2.061  0.1893  0.2765  0.7103
  656MOL0     C88436   1.305   1.251   2.133 -0.5817 -1.0537 -0.1142
  656MOL0     C88437   1.171   1.307   2.101  0.1118  0.1173 -0.6844
  656MOL0     C88438   1.055   1.214   2.146 -0.6300 -0.6817  0.1650
  656MOL0     C88439   0.900   1.257   2.110 -1.2724 -0.3011 -0.7471
  656MOL0     C88440   0.812   1.141   2.117  0.0615  0.5810 -0.5769
  656MOL0     C88441   0.670   1.151   2.051 -0.1164  0.5391 -0.3555
  656MOL0     N88442   0.585   1.255   2.124  0.1141  0.1436 -0.3717
  656MOL0     C88443   0.493   1.223   2.219  0.3143 -0.4993 -1.0000
  656MOL0     C88444   0.459   1.341   2.282 -1.1410  0.9135  0.7478
  656MOL0     C88445   0.345   1.379   2.372 -0.5348  0.5658  0.6291
  656MOL0     C88446   0.220   1.308   2.331 -0.3102  0.0421  0.2178
  656MOL0     C88447   0.172   1.359   2.200 -0.7988  0.4212 -0.7091
  656MOL0     C88448   0.037   1.297   2.165 -0.4952  0.3948  0.3960
  656MOL0     O88449  -0.064   1.354   2.246  0.0737  0.1375 -0.4195
  656MOL0     C88450  -0.188   1.371   2.194  0.0615 -0.0192  0.1175
  656MOL0     C88451  -0.255   1.484   2.235  0.2270  0.7140 -0.0372
  656MOL0     C88452  -0.378   1.523   2.172 -0.3607 -0.0208  0.7948
  656MOL0     C88453  -0.460   1.625   2.252  0.0061  0.9085  0.4660
  656MOL0     C88454  -0.431   1.448   2.065 -0.2249 -0.1382  0.2714
  656MOL0     C88455  -0.553   1.471   1.987 -0.8894 -0.2035 -0.3012
  656MOL0     O88456  -0.604   1.368   1.909  0.6020 -0.4315  0.0656
  656MOL0     C88457  -0.712   1.390   1.823 -0.8986 -0.4279  0.4789
  656MOL0     C88458  -0.831   1.327   1.833  0.3474 -0.1088 -1.3901
  656MOL0     C88459  -0.928   1.340   1.730  0.5054 -0.1882  0.3645
  656MOL0     C88460  -0.902   1.424   1.618  0.1616  0.1319  0.8861
  656MOL0     O88461  -1.004   1.450   1.525 -0.1830 -0.1792  0.2410
  656MOL0     C88462  -1.111   1.533   1.578  0.4901 -0.9853 -0.6810
  656MOL0     C88463  -1.234   1.524   1.490  0.6367  0.2754  0.2871
  656MOL0     C88464  -1.351   1.610   1.535 -0.1622  0.5626  0.9415
  656MOL0     C88465  -1.330   1.762   1.514  0.8759 -0.4971  0.5691
  656MOL0     C88466  -1.293   1.814   1.364  0.2972  0.5304 -0.1162
  656MOL0     C88467  -1.264   1.962   1.376  0.2744 -0.1279  0.2341
  656MOL0     C88468  -1.190   2.021   1.261 -0.3364  0.1089  0.1467
  656MOL0     C88469  -1.206   2.167   1.264 -0.6488  0.4037  0.1103
  656MOL0    Cl88470  -1.199   2.238   1.099 -0.1105 -0.0373  0.1202
  656MOL0     C88471  -0.782   1.491   1.608  0.1134 -0.4044 -0.6376
  656MOL0     C88472  -0.686   1.467   1.709 -0.2771  0.8297  0.7487
  656MOL0     O88473  -0.596   1.590   1.986 -0.3587 -0.1922  0.3271
  656MOL0     C88474  -0.366   1.329   2.027  0.0506  1.1607  0.8781
  656MOL0     C88475  -0.250   1.296   2.095  0.0726 -0.1386  0.5808
  656MOL0     N88476   0.538   1.439   2.227  0.8970  0.0242 -0.3579
  656MOL0     N88477   0.616   1.385   2.140  0.8992 -0.0937 -0.4557
  656MOL0     C88478   1.732   1.555   2.279 -0.5246  0.1160  0.2384
  656MOL0     C88479   1.830   1.643   2.321  0.5505 -0.0455  0.7323
  656MOL0     C88480   2.253   1.843   2.341 -0.6801  0.7194 -0.7404
  656MOL0     C88481   2.269   1.941   2.250  0.1396  0.6666 -0.2121
  656MOL0     C88482   2.366   2.040   2.269  0.3699  0.2040 -0.0842
  656MOL0     C88483   2.467   2.034   2.368  0.2502  0.4496 -1.2825
  656MOL0     O88484   2.561   2.138   2.372 -0.1622  0.3368  0.3326
  656MOL0     C88485   2.682   2.141   2.450  0.4725 -0.3063 -0.5572
  656MOL0     C88486   2.784   2.037   2.395  0.5517 -0.7974 -0.8336
  656MOL0     C88487   2.920   2.080   2.426  0.2369 -0.8091  0.0549
  656MOL0     C88488   2.969   2.184   2.325 -0.3860 -0.7722  0.2484
  656MOL0     C88489   3.089   2.251   2.379 -0.6660  0.4664 -0.0920
  656MOL0     C88490   3.196   2.308   2.403  1.0961 -0.2619  0.2305
  656MOL0     C88491   2.447   1.929   2.463  1.1180  0.1616  0.1035
  656MOL0     C88492   2.338   1.845   2.449 -0.0661  0.2382  0.0036
  656MOL0     H88493   2.036   1.628   2.054  0.8583 -2.6809 -1.0540
  656MOL0     H88494   1.870   1.447   1.993  1.8770 -2.1773  1.4747
  656MOL0     H88495   1.526   1.366   2.251  0.5343 -2.3752 -0.8493
  656MOL0     H88496   1.466   1.509   2.155  0.0426  0.9008 -1.3080
  656MOL0     H88497   1.383   1.394   1.984  1.2917 -1.4004 -1.3946
  656MOL0     H88498   1.477   1.250   2.007 -1.9757 -0.5361 -0.5943
  656MOL0     H88499   1.293   1.151   2.090 -1.5271 -0.3312 -1.6143
  656MOL0     H88500   1.333   1.246   2.239  0.7775  4.3871  0.0995
  656MOL0     H88501   1.162   1.402   2.154  0.2167 -0.4076  0.3045
  656MOL0     H88502   1.156   1.325   1.995  0.4612  1.4371 -0.5244
  656MOL0     H88503   1.079   1.123   2.090  0.4189 -0.5154  0.3284
  656MOL0     H88504   1.069   1.200   2.254 -1.0104  1.3675  0.5259
  656MOL0     H88505   0.866   1.338   2.175 -0.7389 -1.4381  1.0418
  656MOL0     H88506   0.893   1.303   2.011 -1.1105  2.4545  0.4328
  656MOL0     H88507   0.863   1.055   2.073  1.3488  0.9403  0.1717
  656MOL0     H88508   0.796   1.111   2.221 -0.4323  1.3899 -0.4108
  656MOL0     H88509   0.625   1.051   2.054 -0.9666  0.9277  2.6688
  656MOL0     H88510   0.687   1.174   1.945  0.3747  2.4927  0.1133
  656MOL0     H88511   0.450   1.126   2.245  0.8252 -1.1787 -2.5404
  656MOL0     H88512   0.382   1.350   2.471 -0.9880  1.1085  0.9583
  656MOL0     H88513   0.320   1.485   2.376 -1.2799  0.4203 -0.0779
  656MOL0     H88514   0.139   1.332   2.401  0.4711  0.6692  0.9337
  656MOL0     H88515   0.236   1.200   2.337 -2.1605 -0.2001  1.9963
  656MOL0     H88516   0.248   1.325   2.128 -1.5424 -1.0941 -0.8080
  656MOL0     H88517   0.171   1.467   2.184  0.2991  0.1218 -3.2660
  656MOL0     H88518   0.047   1.188   2.168  2.0215  0.4884 -1.3726
  656MOL0     H88519   0.030   1.328   2.061  2.2993  0.2732  0.0962
  656MOL0     H88520  -0.208   1.546   2.311  2.4828  0.2319 -0.9782
  656MOL0     H88521  -0.559   1.584   2.273 -0.3252  0.5566 -1.5641
  656MOL0     H88522  -0.408   1.646   2.346  0.5223 -2.0391  0.9298
  656MOL0     H88523  -0.466   1.719   2.197 -2.1401  0.5962  0.0729
  656MOL0     H88524  -0.851   1.268   1.922 -0.3850 -2.1496 -2.8209
  656MOL0     H88525  -1.021   1.286   1.741  0.1846  0.6097  1.7861
  656MOL0     H88526  -1.129   1.495   1.679 -1.1578  0.1701 -0.5022
  656MOL0     H88527  -1.080   1.637   1.585 -1.2290 -0.5453  2.0570
  656MOL0     H88528  -1.218   1.548   1.385 -0.4675  0.8368  0.2330
  656MOL0     H88529  -1.245   1.416   1.488  1.9406  0.1259 -0.2317
  656MOL0     H88530  -1.372   1.587   1.640  0.1112  0.6366  1.0140
  656MOL0     H88531  -1.432   1.586   1.466  2.3102 -0.6849 -1.7081
  656MOL0     H88532  -1.415   1.821   1.550  1.2527 -0.8979  2.1883
  656MOL0     H88533  -1.251   1.788   1.585 -0.1193  0.4451  1.3718
  656MOL0     H88534  -1.375   1.784   1.299 -1.1322  1.8980  0.9577
  656MOL0     H88535  -1.196   1.770   1.338 -0.5856 -0.5245 -1.7365
  656MOL0     H88536  -1.357   2.018   1.390  0.3967  0.0385  0.3913
  656MOL0     H88537  -1.197   1.970   1.462  1.7065 -2.8658 -0.5212
  656MOL0     H88538  -1.224   1.996   1.160  0.9885 -0.9157 -0.0723
  656MOL0     H88539  -1.083   2.001   1.268 -0.3291  0.6701  2.7726
  656MOL0     H88540  -1.139   2.216   1.336 -0.1013  1.7670 -1.2634
  656MOL0     H88541  -1.307   2.189   1.299 -1.0299 -2.5501  1.1344
  656MOL0     H88542  -0.758   1.558   1.525 -1.9885 -0.5255 -1.3918
  656MOL0     H88543  -0.584   1.492   1.683 -0.1194  0.3271  0.8836
  656MOL0     H88544  -0.406   1.271   1.944 -3.5977  1.5002  2.2108
  656MOL0     H88545  -0.203   1.202   2.067 -3.6088 -1.3094 -2.4093
  656MOL0     H88546   1.647   1.530   2.341  0.6075 -1.1290  1.3938
  656MOL0     H88547   1.831   1.690   2.419  3.1177 -1.5047  1.5148
  656MOL0     H88548   2.201   1.948   2.165  0.5708  3.7087 -0.4222
  656MOL0     H88549   2.360   2.111   2.187 -1.1778 -1.8663 -1.8832
  656MOL0     H88550   2.713   2.245   2.445 -1.2769  0.5307  2.7637
  656MOL0     H88551   2.660   2.128   2.557 -1.3243  1.2105 -0.6991
  656MOL0     H88552   2.772   2.035   2.286 -2.0163  0.3174 -0.6529
  656MOL0     H88553   2.769   1.938   2.441  2.8516 -0.0801  1.7123
  656MOL0     H88554   2.987   1.994   2.418  1.2437  0.0064 -0.6517
  656MOL0     H88555   2.918   2.120   2.529  0.3679  0.1327 -0.2921
  656MOL0     H88556   2.893   2.262   2.313 -0.2056 -0.6484 -0.1212
  656MOL0     H88557   2.997   2.154   2.223  0.5590  2.5646 -0.6005
  656MOL0     H88558   3.288   2.361   2.422 -0.0200  1.8937 -0.0933
  656MOL0     H88559   2.526   1.919   2.538  0.8080 -0.0931  0.3973
  656MOL0     H88560   2.342   1.767   2.524  0.7284  0.9025  0.6709
  657MOL0     O88561   4.832   0.485   9.903  0.2572 -0.3094  0.1957
  657MOL0     C88562   4.933   0.465   9.830 -0.6842  0.1236 -0.2783
  657MOL0     O88563   4.939   0.457   9.697 -0.8217  0.1941 -0.2008
  657MOL0     C88564   4.831   0.479   9.611 -0.1578  0.2652 -1.2126
  657MOL0     C88565   4.740   0.582   9.638  0.7347 -0.9183  0.3961
  657MOL0     C88566   4.633   0.600   9.551 -0.2023  0.1080 -0.2190
  657MOL0     C88567   4.621   0.513   9.442 -0.3208  0.1503 -1.0086
  657MOL0     O88568   4.526   0.522   9.346  0.4010 -0.2300 -0.1890
  657MOL0     C88569   4.395   0.560   9.386  0.2832 -0.6395  0.5234
  657MOL0     C88570   4.275   0.548   9.278  0.1323  0.2790  0.6395
  657MOL0     C88571   4.330   0.588   9.137 -0.5966  0.7300  0.3996
  657MOL0     C88572   4.372   0.463   9.056  0.0901  0.0234 -1.1325
  657MOL0     C88573   4.296   0.452   8.920 -0.2284 -0.4990  0.9229
  657MOL0     C88574   4.369   0.544   8.811 -0.2055  0.6466 -0.3906
  657MOL0     C88575   4.295   0.568   8.679  0.5564  0.6979  0.1061
  657MOL0     C88576   4.221   0.698   8.672  0.5941 -0.3964 -1.3888
  657MOL0     N88577   4.086   0.688   8.733 -0.1754  0.1845  0.3275
  657MOL0     C88578   3.975   0.648   8.659 -0.7611  0.0620  0.9148
  657MOL0     C88579   3.872   0.625   8.741  0.0430  0.2302 -0.4128
  657MOL0     C88580   3.733   0.582   8.686  0.2057  0.7105  0.9349
  657MOL0     C88581   3.623   0.687   8.724 -0.5287  0.2908 -0.1618
  657MOL0     C88582   3.490   0.621   8.720 -0.5495  0.1465  0.0234
  657MOL0     C88583   3.375   0.716   8.718  0.1174 -0.4820 -0.2004
  657MOL0     O88584   3.253   0.653   8.745 -1.1355 -0.6108 -0.3168
  657MOL0     C88585   3.171   0.626   8.630  0.3162 -0.3437 -0.4114
  657MOL0     C88586   3.033   0.625   8.651 -0.0915 -0.1602  0.0482
  657MOL0     C88587   2.950   0.619   8.533 -0.6783 -0.4898 -0.9078
  657MOL0     C88588   2.799   0.612   8.561 -0.5050 -0.1679  1.2429
  657MOL0     C88589   2.998   0.601   8.403 -0.6548  0.1611  0.1258
  657MOL0     C88590   2.915   0.585   8.291 -0.7733  0.6211  0.9975
  657MOL0     O88591   2.824   0.681   8.272 -0.5951  0.0599  0.1009
  657MOL0     C88592   2.751   0.683   8.152  0.2131  0.3018  0.2015
  657MOL0     C88593   2.793   0.629   8.027  0.0453 -0.7206 -0.3710
  657MOL0     C88594   2.711   0.628   7.915  1.0253 -0.6222 -0.4091
  657MOL0     C88595   2.576   0.677   7.922  0.0343 -0.9008  0.3454
  657MOL0     O88596   2.481   0.677   7.818 -0.0160  0.1445 -0.4498
  657MOL0     C88597   2.519   0.628   7.689  0.2930  0.5453  0.4680
  657MOL0     C88598   2.399   0.618   7.587  0.2318  0.6640 -0.6520
  657MOL0     C88599   2.433   0.585   7.444 -0.7564 -0.7623 -0.1372
  657MOL0     C88600   2.323   0.593   7.340 -0.0941  0.1510 -0.4132
  657MOL0     C88601   2.231   0.480   7.349 -0.1188 -0.0690 -0.4401
  657MOL0     C88602   2.105   0.487   7.257  0.3441  0.0997 -0.8726
  657MOL0     C88603   2.017   0.366   7.288  0.6283 -0.4140 -0.3021
  657MOL0     C88604   1.875   0.388   7.256 -0.1180  0.4404 -0.1659
  657MOL0    Cl88605   1.850   0.429   7.077  0.2039 -0.3993 -0.1432
  657MOL0     C88606   2.528   0.732   8.036  0.8978 -0.3077 -0.8975
  657MOL0     C88607   2.619   0.728   8.150 -0.1566 -0.9863  0.0322
  657MOL0     O88608   2.928   0.476   8.224 -0.1562  0.4281  0.0903
  657MOL0     C88609   3.140   0.589   8.390  0.1492  0.5860  0.0706
  657MOL0     C88610   3.226   0.594   8.505  1.0244  0.4345  0.5242
  657MOL0     N88611   3.925   0.654   8.870 -0.0688 -0.1520  0.1917
  657MOL0     N88612   4.049   0.703   8.859 -1.1911 -1.2935 -0.1024
  657MOL0     C88613   4.705   0.402   9.426 -0.0855  0.0115 -0.2332
  657MOL0     C88614   4.817   0.387   9.513 -0.6282 -0.2940  0.6283
  657MOL0     C88615   5.066   0.443   9.903  0.0724  0.0138  0.7777
  657MOL0     C88616   5.080   0.438  10.044 -0.6082  0.6847  0.8027
  657MOL0     C88617   5.206   0.421  10.108 -0.5942  0.3567 -0.7713
  657MOL0     C88618   5.312   0.381  10.024 -0.9117 -0.4544 -0.5099
  657MOL0     O88619   5.443   0.356  10.063  0.2657  0.5921 -0.1877
  657MOL0     C88620   5.479   0.349  10.197  1.0554 -0.3345  0.1849
  657MOL0     C88621   5.627   0.312  10.225  0.0395 -0.0199  0.1030
  657MOL0     C88622   5.635   0.218  10.354 -0.5677 -0.1026 -0.2323
  657MOL0     C88623   5.780   0.194  10.392  0.0884 -0.2467 -0.2866
  657MOL0     C88624   5.787   0.093  10.494 -0.1035  0.7116  0.7084
  657MOL0     C88625   5.800   0.016  10.586  0.2772 -0.1168 -0.3137
  657MOL0     C88626   5.298   0.389   9.887 -0.2849 -0.9693 -0.2731
  657MOL0     C88627   5.184   0.426   9.826  0.2180 -0.6120 -0.2203
  657MOL0     H88628   4.758   0.659   9.712  0.0678  0.4184 -0.8037
  657MOL0     H88629   4.566   0.683   9.569  0.0129  0.6310 -1.7030
  657MOL0     H88630   4.375   0.518   9.485 -0.0523  1.7961  1.5605
  657MOL0     H88631   4.405   0.664   9.419  1.7151 -0.8615  0.8685
  657MOL0     H88632   4.229   0.449   9.273 -2.0452  1.2536  0.4401
  657MOL0     H88633   4.190   0.611   9.309 -4.9946 -4.7049 -1.5215
  657MOL0     H88634   4.244   0.635   9.089 -2.4102 -1.2139  1.5792
  657MOL0     H88635   4.413   0.660   9.139 -1.0296  1.2310  0.4487
  657MOL0     H88636   4.480   0.473   9.042 -0.1913  2.2105 -2.1601
  657MOL0     H88637   4.341   0.379   9.118  1.4670  0.6066  0.4305
  657MOL0     H88638   4.305   0.351   8.878  2.2910  1.1248 -3.0019
  657MOL0     H88639   4.188   0.470   8.919 -0.6723 -2.8199 -0.5685
  657MOL0     H88640   4.383   0.642   8.858  0.7997  0.5621 -0.4970
  657MOL0     H88641   4.467   0.501   8.792 -0.3644 -0.6494  1.4658
  657MOL0     H88642   4.377   0.568   8.606  0.3912 -0.6351 -0.1038
  657MOL0     H88643   4.228   0.486   8.653  0.6824  1.2766 -2.2701
  657MOL0     H88644   4.213   0.737   8.570  0.6201 -0.2648 -1.3416
  657MOL0     H88645   4.275   0.773   8.731 -1.1124  0.3263 -0.6576
  657MOL0     H88646   3.975   0.644   8.550 -1.3656 -1.0246  0.9400
  657MOL0     H88647   3.729   0.558   8.579 -1.3378 -2.2310  1.5249
  657MOL0     H88648   3.701   0.483   8.720 -0.9308  1.0471  0.8861
  657MOL0     H88649   3.627   0.768   8.649  2.8703  0.9139  0.5283
  657MOL0     H88650   3.645   0.727   8.823 -0.8879 -1.3515  0.5959
  657MOL0     H88651   3.478   0.558   8.809 -1.3176 -0.1874 -0.3164
  657MOL0     H88652   3.485   0.549   8.638 -0.8792  0.1162  0.0713
  657MOL0     H88653   3.366   0.760   8.618 -0.7918 -2.3020 -0.9557
  657MOL0     H88654   3.390   0.799   8.788  1.9856 -0.0510 -1.0206
  657MOL0     H88655   3.001   0.636   8.755  3.6927 -0.9857  1.4765
  657MOL0     H88656   2.784   0.608   8.669 -2.0248 -2.7594  1.0098
  657MOL0     H88657   2.746   0.701   8.524  1.1442  1.3665  2.3738
  657MOL0     H88658   2.750   0.526   8.515  2.1083 -1.5927  0.9620
  657MOL0     H88659   2.884   0.573   8.008  0.7723  0.7974 -1.6297
  657MOL0     H88660   2.740   0.589   7.818 -2.9879  0.2810 -2.2034
  657MOL0     H88661   2.598   0.684   7.639 -1.9040  2.8217 -0.6944
  657MOL0     H88662   2.548   0.522   7.697 -2.0654 -0.4585 -2.3199
  657MOL0     H88663   2.335   0.533   7.611  0.3613 -0.5200 -3.9639
  657MOL0     H88664   2.336   0.706   7.597 -3.3401 -1.7102 -0.5542
  657MOL0     H88665   2.468   0.481   7.452  0.8357 -0.0867  4.4158
  657MOL0     H88666   2.512   0.653   7.413 -1.9228 -1.0935 -4.4913
  657MOL0     H88667   2.270   0.688   7.344 -0.3347  0.1810 -2.9337
  657MOL0     H88668   2.378   0.593   7.245  2.9639 -2.2766  1.1614
  657MOL0     H88669   2.190   0.485   7.451 -0.6921  0.4227 -0.6835
  657MOL0     H88670   2.291   0.391   7.333  0.5040  0.1273  0.6551
  657MOL0     H88671   2.046   0.576   7.279 -0.4373 -0.5142 -0.4236
  657MOL0     H88672   2.139   0.490   7.153  1.6643  1.2085 -0.4337
  657MOL0     H88673   2.013   0.355   7.397 -2.9731 -0.9251 -0.3562
  657MOL0     H88674   2.059   0.277   7.239  1.4944 -0.4753  0.5323
  657MOL0     H88675   1.833   0.468   7.319  1.2813  1.5520 -0.5935
  657MOL0     H88676   1.815   0.299   7.277  1.0782 -0.6316 -1.1541
  657MOL0     H88677   2.423   0.756   8.046  1.0083 -0.3571  0.5176
  657MOL0     H88678   2.584   0.763   8.247 -0.3547  2.3637 -1.1368
  657MOL0     H88679   3.185   0.572   8.293 -0.4045 -2.2783  0.2342
  657MOL0     H88680   3.333   0.585   8.495  0.9622  1.9240 -2.4227
  657MOL0     H88681   4.693   0.335   9.341  0.8183 -0.2487 -0.1607
  657MOL0     H88682   4.897   0.314   9.514  0.8428  1.2392  1.5594
  657MOL0     H88683   4.990   0.457  10.101 -1.9923 -1.0516 -0.6816
  657MOL0     H88684   5.216   0.431  10.216  0.3426  2.1510 -0.9817
  657MOL0     H88685   5.473   0.447  10.244 -0.1342 -1.8381  3.5137
  657MOL0     H88686   5.412   0.280  10.250  1.1664 -1.4788 -1.0985
  657MOL0     H88687   5.701   0.393  10.232  1.8140 -1.4840 -0.7023
  657MOL0     H88688   5.659   0.248  10.142 -0.1091 -0.0530  0.0724
  657MOL0     H88689   5.584   0.122  10.338 -1.0014 -0.4540  2.6936
  657MOL0     H88690   5.597   0.277  10.438  3.5352  0.6995  1.3032
  657MOL0     H88691   5.823   0.284  10.436 -0.0879  0.4427 -1.4723
  657MOL0     H88692   5.836   0.159  10.305  2.4640  1.3351  0.5151
  657MOL0     H88693   5.816  -0.054  10.666  0.4857  1.2336  0.8590
  657MOL0     H88694   5.392   0.392   9.833 -0.5116  1.8533 -0.6664
  657MOL0     H88695   5.182   0.446   9.719  0.7857  4.9859  0.5234
  658MOL0     O88696   7.848   5.960   5.015  0.2444  0.1008 -0.2109
  658MOL0     C88697   7.914   5.887   5.090  0.3686 -0.0832  0.6616
  658MOL0     O88698   7.902   5.746   5.099  1.0892 -0.6604 -0.3529
  658MOL0     C88699   7.805   5.686   5.026  1.2059  0.0287 -0.3912
  658MOL0     C88700   7.838   5.638   4.897  0.1994  0.3739 -0.0440
  658MOL0     C88701   7.740   5.582   4.820  0.7734  0.1569  0.1727
  658MOL0     C88702   7.608   5.577   4.866  0.4087 -0.2276 -0.0342
  658MOL0     O88703   7.517   5.541   4.766  0.2546  1.0755  0.5742
  658MOL0     C88704   7.387   5.581   4.789  0.6157  0.0276 -0.4885
  658MOL0     C88705   7.375   5.732   4.784 -0.0747 -0.3898 -0.7116
  658MOL0     C88706   7.232   5.783   4.788  0.5006  0.3154 -0.4031
  658MOL0     C88707   7.117   5.702   4.854 -0.1320  0.4090  0.0763
  658MOL0     C88708   6.997   5.662   4.761  0.4441 -0.0164  0.3183
  658MOL0     C88709   6.864   5.637   4.847 -0.7403  0.4098  0.4975
  658MOL0     C88710   6.753   5.585   4.756 -0.2957  0.6497  0.6427
  658MOL0     C88711   6.619   5.622   4.812  0.0793 -1.0613 -0.6707
  658MOL0     N88712   6.506   5.555   4.741  0.2681  0.2255  0.7475
  658MOL0     C88713   6.462   5.596   4.618 -0.0114  0.6212 -1.0810
  658MOL0     C88714   6.367   5.508   4.583  0.7315 -1.0777 -0.2202
  658MOL0     C88715   6.293   5.503   4.450 -0.6413 -0.3263 -0.0464
  658MOL0     C88716   6.317   5.381   4.376  0.8075  0.5830  0.4686
  658MOL0     C88717   6.463   5.361   4.319  0.0120 -0.1306  0.9348
  658MOL0     C88718   6.504   5.475   4.229  1.0098 -0.9232 -0.4686
  658MOL0     O88719   6.550   5.588   4.306 -0.0229 -0.5213  0.4764
  658MOL0     C88720   6.690   5.594   4.326  0.6081 -0.4773  0.3428
  658MOL0     C88721   6.739   5.726   4.334  0.6035  0.0127  0.2686
  658MOL0     C88722   6.868   5.748   4.363  0.5320 -0.0135  0.2324
  658MOL0     C88723   6.897   5.896   4.390  0.1122 -0.0939 -0.3494
  658MOL0     C88724   6.952   5.637   4.374  0.5231  0.1107  0.5322
  658MOL0     C88725   7.102   5.655   4.401 -1.1243 -0.0801  0.7498
  658MOL0     O88726   7.177   5.541   4.399 -0.3427  0.4588  0.4700
  658MOL0     C88727   7.316   5.542   4.401 -0.0833  0.0528  0.9410
  658MOL0     C88728   7.370   5.410   4.387  0.7801  0.1515  0.0451
  658MOL0     C88729   7.507   5.379   4.378 -0.2711  0.7351 -0.0406
  658MOL0     C88730   7.588   5.482   4.393 -0.2682  0.3037 -0.3408
  658MOL0     O88731   7.722   5.460   4.391 -0.2153  0.5849  0.3953
  658MOL0     C88732   7.814   5.530   4.295 -0.5481  0.0129 -0.4845
  658MOL0     C88733   7.911   5.626   4.371  0.0997  0.5230  0.2557
  658MOL0     C88734   7.983   5.548   4.478 -0.3545 -0.3850  0.0751
  658MOL0     C88735   8.085   5.650   4.548  0.6181 -0.2632 -0.2832
  658MOL0     C88736   8.190   5.581   4.638 -0.1737  0.5321 -0.0090
  658MOL0     C88737   8.310   5.669   4.704 -0.2062  0.1928 -0.2792
  658MOL0     C88738   8.285   5.746   4.833  0.5355 -0.4978  0.2674
  658MOL0     C88739   8.264   5.666   4.960  0.1304  0.3231  0.3602
  658MOL0    Cl88740   8.423   5.600   5.009 -0.2566  0.2843 -0.1600
  658MOL0     C88741   7.545   5.614   4.405 -0.4107 -0.0935 -0.5872
  658MOL0     C88742   7.416   5.648   4.413  0.0469  0.7387 -0.2141
  658MOL0     O88743   7.151   5.768   4.401 -0.0186  0.1829 -0.0957
  658MOL0     C88744   6.904   5.511   4.345 -0.5623  0.0309 -0.3435
  658MOL0     C88745   6.774   5.489   4.328 -0.2351 -0.4113 -0.5885
  658MOL0     N88746   6.358   5.418   4.686  0.4234 -0.7902 -0.2402
  658MOL0     N88747   6.441   5.443   4.777 -0.0097  0.0889 -0.0569
  658MOL0     C88748   7.579   5.612   4.992 -0.1818 -1.1344 -0.2904
  658MOL0     C88749   7.677   5.659   5.078 -0.3759  0.7818  0.3581
  658MOL0     C88750   8.028   5.945   5.159  0.0814 -0.4728 -0.3140
  658MOL0     C88751   8.080   5.870   5.267  0.3032  0.5223  0.4088
  658MOL0     C88752   8.198   5.913   5.324 -0.3026  0.6831 -0.8096
  658MOL0     C88753   8.269   6.028   5.279  0.4954  0.1279  0.6047
  658MOL0     O88754   8.405   6.055   5.306  0.3520 -0.8525  0.2604
  658MOL0     C88755   8.475   5.972   5.392 -1.1792  0.6149  0.3491
  658MOL0     C88756   8.619   6.018   5.394 -0.0966  0.8657 -0.1770
  658MOL0     C88757   8.632   6.158   5.473  0.6854  0.8851 -0.5565
  658MOL0     C88758   8.638   6.279   5.376 -0.1847  0.4034 -0.4096
  658MOL0     C88759   8.506   6.332   5.348  1.0516 -0.0142 -0.0891
  658MOL0     C88760   8.393   6.375   5.323 -1.0507 -0.1526  0.1568
  658MOL0     C88761   8.204   6.107   5.190 -0.3284  0.5547 -0.5008
  658MOL0     C88762   8.090   6.067   5.121  0.5732  0.0506  0.7478
  658MOL0     H88763   7.938   5.664   4.865 -0.2978  7.2110  2.2076
  658MOL0     H88764   7.750   5.547   4.718  1.1636 -0.7821  0.5259
  658MOL0     H88765   7.332   5.546   4.701  0.9152  1.8897 -1.4687
  658MOL0     H88766   7.345   5.534   4.878 -0.3898  3.5095  1.0498
  658MOL0     H88767   7.419   5.780   4.872  0.4449  0.0029 -1.1778
  658MOL0     H88768   7.416   5.762   4.687  0.1779 -2.3874 -1.2623
  658MOL0     H88769   7.230   5.885   4.827  0.4319  0.2720 -0.2893
  658MOL0     H88770   7.197   5.787   4.685 -0.6181  0.4873 -0.0310
  658MOL0     H88771   7.153   5.616   4.912  2.0466  1.4444  0.3882
  658MOL0     H88772   7.090   5.767   4.938  1.2280  0.5410  0.4410
  658MOL0     H88773   6.982   5.742   4.688  0.9973  0.6659  0.9286
  658MOL0     H88774   7.030   5.570   4.713  0.9666 -0.5960  1.7295
  658MOL0     H88775   6.879   5.557   4.921  0.3775 -2.3857 -2.5049
  658MOL0     H88776   6.843   5.735   4.892  1.3095  1.7440 -1.2532
  658MOL0     H88777   6.755   5.647   4.666  0.7261 -1.3442 -0.7945
  658MOL0     H88778   6.767   5.477   4.741 -1.7040  0.3667  1.2349
  658MOL0     H88779   6.603   5.730   4.810  1.1885 -0.7771  1.8387
  658MOL0     H88780   6.608   5.587   4.915 -2.5840  0.5211 -0.3294
  658MOL0     H88781   6.505   5.672   4.552  4.1744 -1.8108 -1.5500
  658MOL0     H88782   6.186   5.497   4.468 -0.6296 -0.2618  0.0446
  658MOL0     H88783   6.314   5.586   4.382  1.2730 -2.3342 -2.0718
  658MOL0     H88784   6.236   5.386   4.302  0.6419 -0.4701  0.5563
  658MOL0     H88785   6.306   5.290   4.435  1.9112 -2.0155 -2.9845
  658MOL0     H88786   6.460   5.266   4.267  0.2530  2.1545 -3.7632
  658MOL0     H88787   6.534   5.368   4.403 -0.0570  1.0016  0.9222
  658MOL0     H88788   6.414   5.514   4.181  2.2077  0.3834 -1.8164
  658MOL0     H88789   6.569   5.438   4.149  3.9642 -1.2428  1.8828
  658MOL0     H88790   6.661   5.800   4.345  1.8843  1.2281  1.5472
  658MOL0     H88791   6.935   5.902   4.493 -0.4920 -3.1234  0.1665
  658MOL0     H88792   6.972   5.941   4.324 -1.7911 -0.3992 -2.8761
  658MOL0     H88793   6.803   5.949   4.379 -0.1156 -0.2336  0.8405
  658MOL0     H88794   7.303   5.325   4.386  2.0358 -0.8858 -1.5211
  658MOL0     H88795   7.560   5.286   4.360 -1.3279  0.2424 -0.6823
  658MOL0     H88796   7.874   5.459   4.237  2.0987  0.7637  1.1620
  658MOL0     H88797   7.756   5.580   4.216 -2.0193  1.6558  1.5165
  658MOL0     H88798   7.984   5.672   4.304  1.7788 -0.6136  1.2306
  658MOL0     H88799   7.849   5.704   4.416  1.5232  1.0600  1.3721
  658MOL0     H88800   8.036   5.461   4.440 -0.7821 -1.3286  1.5475
  658MOL0     H88801   7.919   5.504   4.556 -0.0833 -0.3826  0.3019
  658MOL0     H88802   8.134   5.721   4.482 -1.0600  1.0465 -0.1959
  658MOL0     H88803   8.024   5.703   4.622 -0.1591 -1.0859 -0.3052
  658MOL0     H88804   8.229   5.500   4.575 -2.1780  0.4178 -1.1965
  658MOL0     H88805   8.137   5.536   4.723 -1.0822  0.4471 -0.6069
  658MOL0     H88806   8.392   5.602   4.731  0.0476  1.3226  1.9125
  658MOL0     H88807   8.341   5.743   4.629  1.4946  0.7255  0.9023
  658MOL0     H88808   8.191   5.799   4.814  0.2644 -1.6204 -1.7345
  658MOL0     H88809   8.361   5.822   4.853  1.2479 -1.5091  1.5543
  658MOL0     H88810   8.209   5.576   4.931 -2.9307  2.0515  0.3394
  658MOL0     H88811   8.212   5.717   5.042  0.6866 -1.1314  1.6750
  658MOL0     H88812   7.619   5.692   4.414 -0.4224 -0.3030  2.0172
  658MOL0     H88813   7.399   5.755   4.422 -0.2213  0.8507 -1.7614
  658MOL0     H88814   6.983   5.437   4.333 -0.0832  0.5651 -0.6013
  658MOL0     H88815   6.740   5.387   4.317 -0.1404 -0.6822  1.3137
  658MOL0     H88816   7.475   5.612   5.022 -0.1594 -1.0257 -0.2144
  658MOL0     H88817   7.647   5.696   5.176 -0.3509  0.5845  0.4418
  658MOL0     H88818   8.028   5.777   5.288  0.0669  0.9195  1.6652
  658MOL0     H88819   8.238   5.844   5.399  2.0017  0.2711 -2.3069
  658MOL0     H88820   8.441   5.946   5.492 -1.2112 -2.0987 -0.2856
  658MOL0     H88821   8.489   5.871   5.352  1.7701  1.9167 -2.3785
  658MOL0     H88822   8.652   6.027   5.290  1.4858 -1.4087  0.0648
  658MOL0     H88823   8.682   5.945   5.444 -2.6010  0.6181  2.9177
  658MOL0     H88824   8.725   6.158   5.531 -0.1198  3.1465  0.8807
  658MOL0     H88825   8.542   6.180   5.531  1.9491  3.4500  0.5947
  658MOL0     H88826   8.692   6.270   5.281 -2.2733  2.6043 -1.9204
  658MOL0     H88827   8.698   6.361   5.416  3.4829 -1.7904 -0.9209
  658MOL0     H88828   8.294   6.413   5.309 -0.7342  1.0325  0.8963
  658MOL0     H88829   8.251   6.195   5.147  2.0979 -1.3829 -2.0615
  658MOL0     H88830   8.045   6.126   5.042 -0.8902 -0.8940  0.8446
  659MOL0     O88831   9.563   9.668  10.062  0.3145  0.0219  0.9549
  659MOL0     C88832   9.640   9.673  10.157 -0.6165  0.3133 -0.0763
  659MOL0     O88833   9.646   9.581  10.259  0.7373  0.3489 -0.5208
  659MOL0     C88834   9.553   9.483  10.286  0.4587  0.0960  0.4908
  659MOL0     C88835   9.426   9.478  10.228 -0.1663 -0.0742 -0.2351
  659MOL0     C88836   9.338   9.374  10.244 -0.0468  0.3901 -0.1733
  659MOL0     C88837   9.375   9.265  10.324  0.5055 -0.7668 -0.5163
  659MOL0     O88838   9.303   9.157  10.349  0.0151  0.6416  0.4544
  659MOL0     C88839   9.166   9.183  10.348  0.7034  0.2552 -0.3500
  659MOL0     C88840   9.092   9.067  10.432  0.1552 -0.2744  0.2740
  659MOL0     C88841   9.108   8.919  10.377  0.1728 -0.2429  0.0719
  659MOL0     C88842   9.125   8.818  10.487  0.9245  0.1199 -0.4180
  659MOL0     C88843   9.023   8.697  10.462  0.9534  0.0339 -0.5571
  659MOL0     C88844   8.871   8.743  10.487 -0.8009 -0.5895 -0.0410
  659MOL0     C88845   8.831   8.739  10.642 -0.3921 -1.2138  0.1252
  659MOL0     C88846   8.687   8.776  10.662  0.8001  0.1983 -0.4631
  659MOL0     N88847   8.592   8.672  10.602  1.5817  0.1448  0.5665
  659MOL0     C88848   8.475   8.627  10.667  0.3701  0.3215 -0.9361
  659MOL0     C88849   8.389   8.572  10.574  0.0415  0.1244  0.1587
  659MOL0     C88850   8.250   8.498  10.588 -0.4201 -0.2998  0.1564
  659MOL0     C88851   8.230   8.390  10.482 -0.3608 -0.7409 -0.0768
  659MOL0     C88852   8.169   8.456  10.353  0.3856 -0.3947  0.0234
  659MOL0     C88853   8.142   8.353  10.252 -0.0201 -0.4344 -0.1805
  659MOL0     O88854   8.006   8.313  10.276 -0.3964 -0.5821  0.7634
  659MOL0     C88855   7.903   8.363  10.203  0.4857 -0.0668  0.1901
  659MOL0     C88856   7.891   8.494  10.140 -0.2437  0.8770 -0.6600
  659MOL0     C88857   7.773   8.542  10.077 -0.3095 -0.2411 -0.1141
  659MOL0     C88858   7.777   8.683  10.029 -0.1714  0.6996 -0.2047
  659MOL0     C88859   7.668   8.451  10.062  0.5579 -0.2502 -0.3116
  659MOL0     C88860   7.528   8.490  10.009  0.8622  0.0942  0.0659
  659MOL0     O88861   7.433   8.391  10.020 -0.2534 -0.1429 -0.0693
  659MOL0     C88862   7.303   8.403   9.985  0.1448  0.7188  0.9423
  659MOL0     C88863   7.265   8.433   9.858  0.4477  0.4701  0.5060
  659MOL0     C88864   7.132   8.420   9.818 -0.1883  0.9596  0.2795
  659MOL0     C88865   7.029   8.405   9.914 -0.6219  0.4335  0.1880
  659MOL0     O88866   6.894   8.408   9.898  0.6708  0.2681  0.2936
  659MOL0     C88867   6.851   8.446   9.762 -0.2094  0.2246 -0.5564
  659MOL0     C88868   6.694   8.446   9.747 -0.4579 -0.3110 -0.1440
  659MOL0     C88869   6.638   8.516   9.628 -0.1066 -0.5189  0.9795
  659MOL0     C88870   6.620   8.664   9.658 -0.1122 -0.5660  0.8248
  659MOL0     C88871   6.578   8.733   9.531 -0.4448  0.5580 -0.0753
  659MOL0     C88872   6.643   8.873   9.528  0.4188 -0.4177 -0.8062
  659MOL0     C88873   6.548   8.975   9.588 -0.4934 -0.3132 -0.1374
  659MOL0     C88874   6.616   9.114   9.599 -0.6130  0.0056 -0.3121
  659MOL0    Cl88875   6.520   9.237   9.705 -0.2813 -0.2908 -0.4764
  659MOL0     C88876   7.063   8.381  10.042 -0.4929  0.5898 -0.2815
  659MOL0     C88877   7.195   8.367  10.075  0.4929 -0.4406 -0.6511
  659MOL0     O88878   7.509   8.595   9.963  0.1923  0.1918 -0.0191
  659MOL0     C88879   7.680   8.310  10.103 -0.5199  0.5423 -0.6679
  659MOL0     C88880   7.796   8.268  10.178 -0.4130  0.0632  0.2255
  659MOL0     N88881   8.459   8.586  10.453  0.0423 -0.2330  0.2403
  659MOL0     N88882   8.566   8.666  10.471  0.5929 -0.3164  0.1709
  659MOL0     C88883   9.497   9.266  10.373  0.3830 -0.1471 -0.9611
  659MOL0     C88884   9.580   9.371  10.366 -0.0630  0.7626 -0.3753
  659MOL0     C88885   9.740   9.781  10.159  0.3801 -0.5424 -0.2768
  659MOL0     C88886   9.816   9.807  10.276 -0.3429  0.2342  0.3657
  659MOL0     C88887   9.900   9.919  10.260  0.5101 -0.5921 -0.8852
  659MOL0     C88888   9.900  10.008  10.150  0.0555  0.0311 -0.1340
  659MOL0     O88889  10.002  10.100  10.154 -0.0861 -0.3995  0.5422
  659MOL0     C88890   9.976  10.223  10.087  0.4320  0.5216 -0.3672
  659MOL0     C88891  10.087  10.330  10.114  0.4590  0.1035  0.5266
  659MOL0     C88892  10.099  10.367  10.264 -0.1612 -0.0529  0.0217
  659MOL0     C88893  10.212  10.477  10.285  0.5531 -0.0398 -1.5017
  659MOL0     C88894  10.240  10.512  10.427  0.3866 -0.4975  0.3146
  659MOL0     C88895  10.261  10.544  10.545  0.5061  0.4023 -0.8774
  659MOL0     C88896   9.827   9.988  10.037  0.8832  0.2707 -0.9336
  659MOL0     C88897   9.743   9.869  10.043 -0.0464 -0.0984  0.0892
  659MOL0     H88898   9.393   9.564  10.169 -1.1183 -0.3984 -0.1808
  659MOL0     H88899   9.253   9.369  10.177  0.2170 -0.2316 -0.4796
  659MOL0     H88900   9.154   9.273  10.410  1.3046  0.3354 -0.3416
  659MOL0     H88901   9.126   9.193  10.247 -2.3470 -0.6889  0.6608
  659MOL0     H88902   9.147   9.069  10.526  0.6264  1.2209  0.0002
  659MOL0     H88903   8.988   9.099  10.447  0.3054  0.5800 -0.4620
  659MOL0     H88904   9.024   8.889  10.315 -0.4962 -0.9771  1.2860
  659MOL0     H88905   9.195   8.914  10.311  0.8701  3.8262  0.3812
  659MOL0     H88906   9.229   8.788  10.503  0.7440  0.6007  2.2704
  659MOL0     H88907   9.103   8.858  10.587 -1.1930 -1.2340 -0.2699
  659MOL0     H88908   9.033   8.647  10.366  0.6461  1.7551 -1.5192
  659MOL0     H88909   9.052   8.621  10.536 -1.8675 -0.2377  0.3836
  659MOL0     H88910   8.846   8.840  10.443  0.4833 -0.2034  0.0245
  659MOL0     H88911   8.810   8.675  10.427 -2.4628  0.4170  0.4617
  659MOL0     H88912   8.830   8.640  10.688  0.9399 -0.6286  1.4893
  659MOL0     H88913   8.885   8.804  10.711 -1.0501  0.7147 -1.1006
  659MOL0     H88914   8.661   8.865  10.605  1.5025  4.1327  4.6906
  659MOL0     H88915   8.671   8.806  10.765  5.3460  2.6498 -0.2419
  659MOL0     H88916   8.457   8.625  10.774 -3.5377  4.0680 -1.2573
  659MOL0     H88917   8.252   8.466  10.693 -0.6249  0.1425  0.2974
  659MOL0     H88918   8.165   8.565  10.571 -0.1515 -0.1654 -0.6982
  659MOL0     H88919   8.160   8.318  10.524 -0.3949 -1.3943 -1.2247
  659MOL0     H88920   8.326   8.345  10.456  0.1534  1.2296 -1.9797
  659MOL0     H88921   8.252   8.516  10.315  0.0671  1.8269  2.5790
  659MOL0     H88922   8.087   8.527  10.363  0.7979  0.0079  0.5972
  659MOL0     H88923   8.211   8.268  10.252  0.4269 -0.2147 -3.8606
  659MOL0     H88924   8.145   8.391  10.150  2.4894  0.0140  0.0056
  659MOL0     H88925   7.979   8.557  10.141 -0.1059  0.6836 -0.1004
  659MOL0     H88926   7.856   8.732  10.087 -0.1315  1.0457 -0.5538
  659MOL0     H88927   7.801   8.687   9.922  2.9591 -2.4636  0.1980
  659MOL0     H88928   7.684   8.740  10.036  1.0471  2.6640  0.9033
  659MOL0     H88929   7.345   8.445   9.786  0.1783  1.9982  0.4248
  659MOL0     H88930   7.101   8.433   9.715  1.5550  0.5396 -0.3316
  659MOL0     H88931   6.887   8.548   9.746  0.0173  0.3933  0.8677
  659MOL0     H88932   6.908   8.375   9.702 -0.6415 -0.2077 -0.4586
  659MOL0     H88933   6.668   8.340   9.743 -0.2444 -0.3291 -2.1419
  659MOL0     H88934   6.651   8.500   9.832 -0.1126  0.5180 -0.4920
  659MOL0     H88935   6.532   8.497   9.609  0.1793  0.5631 -2.3987
  659MOL0     H88936   6.695   8.493   9.538 -1.9681 -0.5478 -0.2467
  659MOL0     H88937   6.543   8.679   9.734  0.1334  0.9217  0.8122
  659MOL0     H88938   6.712   8.714   9.692 -0.8877  2.3255 -0.9385
  659MOL0     H88939   6.469   8.727   9.520 -0.4381  0.0635  0.1158
  659MOL0     H88940   6.615   8.676   9.445 -3.3412 -2.7114  0.6725
  659MOL0     H88941   6.739   8.873   9.581 -0.2521  1.4142  0.5234
  659MOL0     H88942   6.668   8.896   9.424 -0.5615  3.2932 -0.3596
  659MOL0     H88943   6.521   8.937   9.687 -1.5129 -0.5595 -0.4945
  659MOL0     H88944   6.454   8.991   9.535 -0.2101  1.3187 -0.1910
  659MOL0     H88945   6.638   9.159   9.502 -0.2421  0.9955  0.2147
  659MOL0     H88946   6.715   9.102   9.646 -0.0495  0.8921 -1.2183
  659MOL0     H88947   6.981   8.351  10.106  0.4866 -0.1295  0.6906
  659MOL0     H88948   7.198   8.334  10.178 -0.8190 -2.0992 -1.0899
  659MOL0     H88949   7.599   8.239  10.108  0.8450 -0.9822  1.8829
  659MOL0     H88950   7.819   8.170  10.217  2.5193  1.5854  2.7504
  659MOL0     H88951   9.539   9.178  10.420 -0.9612  0.8425  2.4048
  659MOL0     H88952   9.678   9.377  10.413 -0.3701 -0.9847  0.5684
  659MOL0     H88953   9.816   9.752  10.370  1.1498 -0.0990  0.2059
  659MOL0     H88954   9.959   9.934  10.350  1.3997 -4.2495 -0.6814
  659MOL0     H88955   9.963  10.212   9.979 -2.2393 -1.2603  0.0356
  659MOL0     H88956   9.883  10.260  10.130 -0.8563 -2.2341 -0.5699
  659MOL0     H88957  10.054  10.422  10.065 -1.9916 -0.3534  1.1976
  659MOL0     H88958  10.181  10.293  10.073  0.4603 -1.7349  2.0460
  659MOL0     H88959  10.115  10.283  10.331 -2.7813  1.0162  2.1989
  659MOL0     H88960  10.004  10.409  10.299  1.0882  2.0508  1.1345
  659MOL0     H88961  10.188  10.563  10.222 -0.9990  1.2750  0.7313
  659MOL0     H88962  10.304  10.435  10.244 -1.6398 -4.2340 -2.7433
  659MOL0     H88963  10.298  10.557  10.645 -1.9581  0.4220  0.1184
  659MOL0     H88964   9.823  10.051   9.948 -2.7769 -0.1514 -1.2429
  659MOL0     H88965   9.679   9.845   9.960 -2.1631 -1.7251  2.0586
  660MOL0     O88966   0.036   4.927   1.820  0.6663 -0.1794  0.9194
  660MOL0     C88967   0.067   5.034   1.778 -0.4011  0.1584  0.1966
  660MOL0     O88968  -0.010   5.140   1.765  0.3767  0.3855  0.1411
  660MOL0     C88969  -0.136   5.127   1.827 -0.2648 -0.5998 -0.2941
  660MOL0     C88970  -0.255   5.153   1.760 -0.7216  0.3193 -0.1218
  660MOL0     C88971  -0.377   5.160   1.826  0.6495 -0.4480 -0.6976
  660MOL0     C88972  -0.387   5.147   1.965  0.0259 -0.3284  0.2603
  660MOL0     O88973  -0.514   5.159   2.016  0.2266  0.0017 -0.3872
  660MOL0     C88974  -0.526   5.129   2.155  0.0978  0.0054  0.2373
  660MOL0     C88975  -0.676   5.156   2.195  0.9189 -0.1184  0.1751
  660MOL0     C88976  -0.783   5.074   2.116  0.3516 -0.9132 -0.2825
  660MOL0     C88977  -0.924   5.120   2.147 -0.0650 -0.3568  0.0973
  660MOL0     C88978  -1.028   5.031   2.092  0.7474 -0.0375  0.7039
  660MOL0     C88979  -1.167   5.041   2.152  0.8161 -0.0075  0.6630
  660MOL0     C88980  -1.241   4.928   2.071 -0.5181  0.1905  0.7240
  660MOL0     C88981  -1.397   4.943   2.082 -0.4757  0.2516  0.1411
  660MOL0     N88982  -1.466   4.817   2.046  0.2874  0.2767  0.4972
  660MOL0     C88983  -1.571   4.766   2.118 -0.2266  0.1745 -0.0164
  660MOL0     C88984  -1.600   4.651   2.064 -0.5168  0.2385 -0.7057
  660MOL0     C88985  -1.697   4.546   2.113 -0.3289 -0.0105  1.1982
  660MOL0     C88986  -1.810   4.531   2.013  0.6764 -0.2599  0.0626
  660MOL0     C88987  -1.919   4.449   2.075  0.4303  0.4664 -0.6074
  660MOL0     C88988  -2.045   4.431   1.989 -1.2404  0.4014  0.1444
  660MOL0     O88989  -2.145   4.369   2.066 -0.3481 -0.1582  0.3687
  660MOL0     C88990  -2.249   4.303   1.997 -0.1678 -0.0842  0.1145
  660MOL0     C88991  -2.372   4.291   2.052  0.2311 -0.1380  0.5858
  660MOL0     C88992  -2.477   4.209   2.007  0.1529 -0.2455 -0.3330
  660MOL0     C88993  -2.604   4.222   2.070  0.1645 -0.1100  0.4410
  660MOL0     C88994  -2.457   4.134   1.886  0.7439  0.0299 -0.9216
  660MOL0     C88995  -2.565   4.049   1.813 -0.7316  0.1654  0.6487
  660MOL0     O88996  -2.518   3.978   1.704 -0.4252 -0.0499 -0.2936
  660MOL0     C88997  -2.577   3.859   1.668  0.4950  0.0888 -0.0242
  660MOL0     C88998  -2.571   3.823   1.534  0.0872  0.9493  0.6853
  660MOL0     C88999  -2.605   3.698   1.482  0.5642 -0.1457  0.7778
  660MOL0     C89000  -2.658   3.606   1.574  0.1487 -1.1586 -0.2990
  660MOL0     O89001  -2.700   3.477   1.552  0.0244  1.0026  0.0991
  660MOL0     C89002  -2.766   3.442   1.431 -0.2729  0.3287 -0.7569
  660MOL0     C89003  -2.878   3.537   1.401  0.5471 -0.2391 -0.2723
  660MOL0     C89004  -2.941   3.522   1.266  0.0942 -0.1394 -0.2010
  660MOL0     C89005  -3.037   3.395   1.258 -0.5117  0.1488 -0.0656
  660MOL0     C89006  -3.139   3.397   1.144 -0.9575 -0.1177 -0.0769
  660MOL0     C89007  -3.227   3.271   1.144 -0.1333  1.2025  0.2575
  660MOL0     C89008  -3.323   3.253   1.024  0.0231  0.6235 -0.4648
  660MOL0     C89009  -3.253   3.202   0.901  0.7991  0.2110 -0.6565
  660MOL0    Cl89010  -3.152   3.318   0.805 -0.1249 -0.0350 -0.0144
  660MOL0     C89011  -2.675   3.648   1.707 -0.1040  0.0094 -0.6007
  660MOL0     C89012  -2.631   3.770   1.759  0.4481 -0.2799  0.6076
  660MOL0     O89013  -2.676   4.047   1.852 -0.0217  0.0775 -0.6585
  660MOL0     C89014  -2.330   4.146   1.829 -0.5516  0.0859 -0.3860
  660MOL0     C89015  -2.233   4.231   1.878  0.8554 -0.9828  0.3254
  660MOL0     N89016  -1.522   4.625   1.957  0.8177  0.0768  0.1087
  660MOL0     N89017  -1.440   4.725   1.946  1.1202  0.4171  0.3715
  660MOL0     C89018  -0.270   5.124   2.036 -0.8254  0.7096  0.2635
  660MOL0     C89019  -0.151   5.111   1.965  0.4013 -0.2534 -0.7374
  660MOL0     C89020   0.209   5.042   1.712  0.3836  0.7081 -0.0240
  660MOL0     C89021   0.293   4.929   1.702 -0.5485  0.4415 -0.5840
  660MOL0     C89022   0.420   4.931   1.655  0.5222 -0.6393  0.3920
  660MOL0     C89023   0.478   5.054   1.620  0.0233  0.0987  1.1216
  660MOL0     O89024   0.602   5.046   1.564 -0.5502  0.8090 -0.4079
  660MOL0     C89025   0.681   5.157   1.605 -0.3209  0.4580  0.1428
  660MOL0     C89026   0.829   5.147   1.559 -0.6954  0.3984  0.1013
  660MOL0     C89027   0.891   5.297   1.559  0.1547  0.4353  0.3011
  660MOL0     C89028   1.044   5.304   1.550 -0.2655 -0.8135  0.5476
  660MOL0     C89029   1.116   5.234   1.661 -0.8035 -0.1053 -0.4363
  660MOL0     C89030   1.191   5.191   1.742 -0.2862 -0.5284  0.1564
  660MOL0     C89031   0.402   5.175   1.645  0.2872  0.2671 -1.3108
  660MOL0     C89032   0.263   5.166   1.685  0.6865 -0.5081  0.2854
  660MOL0     H89033  -0.264   5.178   1.655 -1.0033  1.0825  0.0782
  660MOL0     H89034  -0.470   5.171   1.770 -0.1513 -1.3417  0.4097
  660MOL0     H89035  -0.506   5.022   2.152  0.4260  0.0874 -1.3035
  660MOL0     H89036  -0.464   5.195   2.216  1.9511 -1.2096 -0.2553
  660MOL0     H89037  -0.685   5.131   2.302 -1.1686  2.1832  0.6328
  660MOL0     H89038  -0.701   5.261   2.183 -2.8559 -0.8809  0.0942
  660MOL0     H89039  -0.770   5.083   2.008  0.5136  2.9416 -0.0735
  660MOL0     H89040  -0.776   4.968   2.141  3.0221 -0.6579  0.4125
  660MOL0     H89041  -0.945   5.123   2.254  1.2796  1.7817  0.3569
  660MOL0     H89042  -0.929   5.221   2.105  1.2810  0.8068  2.5179
  660MOL0     H89043  -1.042   5.044   1.985 -0.4994 -1.9227  0.5879
  660MOL0     H89044  -0.994   4.927   2.094  0.3455 -0.2337 -1.1726
  660MOL0     H89045  -1.175   5.010   2.257  4.2944 -1.8562  0.5161
  660MOL0     H89046  -1.208   5.139   2.124 -3.7644 -1.5096  1.2505
  660MOL0     H89047  -1.222   4.920   1.963 -1.6616  0.7082  0.4790
  660MOL0     H89048  -1.206   4.833   2.112  0.7152 -0.3595 -1.4497
  660MOL0     H89049  -1.439   5.027   2.026 -0.7970 -0.2267 -0.3504
  660MOL0     H89050  -1.418   4.953   2.189  0.0925 -1.9710  0.5074
  660MOL0     H89051  -1.617   4.801   2.209 -2.2691  0.8227 -1.2219
  660MOL0     H89052  -1.643   4.452   2.122  0.9223  0.7597  2.1479
  660MOL0     H89053  -1.742   4.556   2.213  0.5377  2.0647  1.4334
  660MOL0     H89054  -1.760   4.482   1.929  3.7499  0.7774  1.1225
  660MOL0     H89055  -1.841   4.629   1.976  0.3461 -0.6343 -0.6601
  660MOL0     H89056  -1.958   4.492   2.168 -1.6986 -1.1715 -0.6518
  660MOL0     H89057  -1.886   4.347   2.097 -2.4006 -0.4694 -0.2110
  660MOL0     H89058  -2.014   4.369   1.904 -1.2658 -1.7292  1.6079
  660MOL0     H89059  -2.074   4.528   1.948  2.4921  0.3925 -3.1349
  660MOL0     H89060  -2.384   4.350   2.142 -0.8203  1.5077 -0.5678
  660MOL0     H89061  -2.595   4.267   2.170  1.2418 -0.6989  0.6276
  660MOL0     H89062  -2.672   4.280   2.007 -0.6418 -1.7402 -0.2520
  660MOL0     H89063  -2.649   4.125   2.093 -2.7828  0.8146 -0.9282
  660MOL0     H89064  -2.528   3.891   1.461  2.0427 -3.0017 -2.2518
  660MOL0     H89065  -2.592   3.671   1.378 -0.0856 -0.7321  0.8456
  660MOL0     H89066  -2.706   3.447   1.340 -1.6988  0.8905 -1.7035
  660MOL0     H89067  -2.796   3.337   1.446  1.6488  0.0004  1.2801
  660MOL0     H89068  -2.960   3.531   1.473 -0.3951  0.5697 -1.2513
  660MOL0     H89069  -2.857   3.644   1.410 -1.0930 -0.0462  2.0674
  660MOL0     H89070  -2.875   3.531   1.179  0.8794 -0.6425  0.3317
  660MOL0     H89071  -3.012   3.605   1.264 -0.5780 -0.5244  2.6748
  660MOL0     H89072  -2.973   3.306   1.256  0.1842  0.6446 -0.1251
  660MOL0     H89073  -3.096   3.389   1.350 -1.0005 -1.2576 -0.4345
  660MOL0     H89074  -3.089   3.395   1.047 -0.3136 -1.5747  0.2669
  660MOL0     H89075  -3.200   3.486   1.160  0.6553  0.6575  2.3284
  660MOL0     H89076  -3.165   3.181   1.151 -1.6600  0.2509  2.9055
  660MOL0     H89077  -3.286   3.267   1.236  1.1822 -2.9441  1.1544
  660MOL0     H89078  -3.379   3.343   0.997  0.8190  0.8703 -1.3222
  660MOL0     H89079  -3.404   3.185   1.053 -1.6945  3.8622  3.3188
  660MOL0     H89080  -3.336   3.177   0.834  0.8459  1.4824 -1.2143
  660MOL0     H89081  -3.195   3.112   0.926  2.3252  1.6936  1.5304
  660MOL0     H89082  -2.712   3.582   1.785  0.1481  0.4508 -0.0972
  660MOL0     H89083  -2.644   3.788   1.865 -2.7126 -1.9329  0.6200
  660MOL0     H89084  -2.318   4.111   1.727  0.1711 -0.7674 -0.0224
  660MOL0     H89085  -2.143   4.247   1.820 -0.2662 -0.6219 -1.3660
  660MOL0     H89086  -0.275   5.125   2.144 -1.2511  2.9534  0.2726
  660MOL0     H89087  -0.056   5.097   2.014  0.7848  5.9256  1.1811
  660MOL0     H89088   0.253   4.836   1.741 -1.7670  0.2893 -2.0821
  660MOL0     H89089   0.483   4.846   1.630 -0.7791 -0.8539 -2.5720
  660MOL0     H89090   0.643   5.256   1.575 -0.7053  0.9095  2.0268
  660MOL0     H89091   0.695   5.155   1.713 -0.8157 -0.3850  0.2027
  660MOL0     H89092   0.838   5.101   1.460  3.8052  0.6621  0.2143
  660MOL0     H89093   0.885   5.086   1.631 -1.0169  0.3557  0.3168
  660MOL0     H89094   0.853   5.343   1.650 -0.0260 -0.2181  0.5562
  660MOL0     H89095   0.836   5.356   1.485 -1.8147  3.1009  3.6142
  660MOL0     H89096   1.069   5.410   1.545 -5.0474  0.5530 -3.9081
  660MOL0     H89097   1.076   5.274   1.450  0.5294  3.2602 -0.5686
  660MOL0     H89098   1.259   5.161   1.819  0.8937 -0.4409 -0.8346
  660MOL0     H89099   0.432   5.279   1.644 -2.1585  1.0691  0.0881
  660MOL0     H89100   0.197   5.253   1.689  0.8179 -0.3593  5.7252
  661MOL0     O89101   7.078   6.504   7.266  0.1365 -0.0564  0.1099
  661MOL0     C89102   7.148   6.523   7.167  0.1054  0.2089 -0.2681
  661MOL0     O89103   7.163   6.444   7.064 -0.2286  0.6869 -0.1531
  661MOL0     C89104   7.093   6.317   7.053 -0.3162 -1.3145 -0.0856
  661MOL0     C89105   7.075   6.273   6.925 -0.2661  0.3158 -0.3124
  661MOL0     C89106   7.025   6.144   6.898 -0.5128  0.3854 -0.2026
  661MOL0     C89107   7.002   6.051   6.997  0.3391  0.5858 -0.8079
  661MOL0     O89108   6.930   5.931   6.976 -0.0389  0.4723  0.2832
  661MOL0     C89109   6.863   5.867   7.089  0.2290 -0.5909  0.6488
  661MOL0     C89110   6.762   5.772   7.015 -0.4311  0.3971 -0.8168
  661MOL0     C89111   6.668   5.711   7.126 -0.1529 -0.4452  0.3877
  661MOL0     C89112   6.538   5.656   7.065 -0.2429  0.6587 -0.1358
  661MOL0     C89113   6.426   5.629   7.178  0.0745 -0.1797 -0.3843
  661MOL0     C89114   6.318   5.530   7.134 -0.2562 -0.6693  1.2111
  661MOL0     C89115   6.207   5.506   7.250 -0.0678 -0.7261  0.1940
  661MOL0     C89116   6.129   5.635   7.281 -0.5757  0.6715  0.0810
  661MOL0     N89117   5.989   5.607   7.313 -0.3539  0.3340 -0.1674
  661MOL0     C89118   5.945   5.565   7.436 -0.6405  0.6343  0.3612
  661MOL0     C89119   5.811   5.539   7.426  0.3618 -0.5191 -0.1020
  661MOL0     C89120   5.733   5.461   7.531  0.3145  0.1846  0.2651
  661MOL0     C89121   5.589   5.521   7.544  0.1873  0.3594  0.0066
  661MOL0     C89122   5.497   5.452   7.655  0.0707  0.2176  0.2526
  661MOL0     C89123   5.349   5.498   7.648 -0.1170  0.1574  0.0304
  661MOL0     O89124   5.273   5.429   7.761 -0.1825  0.0970  0.1600
  661MOL0     C89125   5.138   5.436   7.773  0.3363 -0.5885  0.3535
  661MOL0     C89126   5.043   5.510   7.696  0.4126 -0.0460 -0.5153
  661MOL0     C89127   4.905   5.508   7.706 -0.2001 -0.2768  1.5779
  661MOL0     C89128   4.824   5.608   7.609  0.6754  0.0915 -0.5241
  661MOL0     C89129   4.855   5.422   7.806  0.3273  1.2107 -0.8098
  661MOL0     C89130   4.712   5.417   7.840  0.0492 -0.4092 -0.1558
  661MOL0     O89131   4.688   5.324   7.942  0.5885 -0.0714 -0.5025
  661MOL0     C89132   4.556   5.316   7.985  0.8581 -0.7404 -0.3238
  661MOL0     C89133   4.507   5.388   8.094  0.6698 -1.1222  0.3951
  661MOL0     C89134   4.373   5.371   8.135  0.7028  0.3529 -0.3207
  661MOL0     C89135   4.288   5.277   8.074  0.7009 -0.1266 -0.2423
  661MOL0     O89136   4.163   5.279   8.120  0.5733 -0.3755 -0.8960
  661MOL0     C89137   4.065   5.179   8.064 -0.3068 -0.8915  0.2001
  661MOL0     C89138   3.927   5.223   8.117  0.2686 -0.6703  0.3283
  661MOL0     C89139   3.841   5.102   8.136  0.3806 -0.0342  0.5375
  661MOL0     C89140   3.718   5.132   8.221 -0.8541  0.6316 -0.1806
  661MOL0     C89141   3.607   5.024   8.231 -0.5465  0.1843  0.1480
  661MOL0     C89142   3.626   4.931   8.349 -0.1042 -0.0989 -0.0458
  661MOL0     C89143   3.540   4.809   8.332 -0.2324  0.1757 -0.9164
  661MOL0     C89144   3.559   4.704   8.444  0.4916  0.2219 -0.2987
  661MOL0    Cl89145   3.514   4.766   8.601 -0.3842  0.2605 -0.0927
  661MOL0     C89146   4.336   5.216   7.963  0.7417  0.2983  0.5470
  661MOL0     C89147   4.473   5.221   7.927  0.5438  0.8321 -1.1939
  661MOL0     O89148   4.628   5.483   7.782  0.4220  0.0731 -0.4647
  661MOL0     C89149   4.948   5.344   7.884 -0.4903 -0.1865  0.4305
  661MOL0     C89150   5.087   5.362   7.882  0.5089  0.2618  0.0560
  661MOL0     N89151   5.774   5.566   7.288  0.2561  0.1127 -0.3503
  661MOL0     N89152   5.880   5.599   7.226 -0.2907  0.6440 -0.2624
  661MOL0     C89153   7.040   6.085   7.127 -0.6934 -0.8262  0.3450
  661MOL0     C89154   7.078   6.217   7.149 -0.5130 -1.1824  0.3260
  661MOL0     C89155   7.244   6.633   7.188 -0.7486  0.3730  0.0416
  661MOL0     C89156   7.228   6.713   7.301 -0.8312  1.1841  0.6407
  661MOL0     C89157   7.332   6.797   7.341 -0.1155  0.1961  0.6538
  661MOL0     C89158   7.450   6.804   7.263 -0.2492  0.0168 -0.2047
  661MOL0     O89159   7.550   6.880   7.317 -0.3685  0.1825  0.3240
  661MOL0     C89160   7.690   6.849   7.290  0.3731 -0.2713  0.2133
  661MOL0     C89161   7.729   6.717   7.355 -0.1140 -0.2095 -0.1277
  661MOL0     C89162   7.694   6.716   7.507 -0.3752 -0.4467 -0.7821
  661MOL0     C89163   7.677   6.582   7.552  0.1204 -0.5538 -0.3476
  661MOL0     C89164   7.544   6.530   7.509 -0.8193  0.3577  0.7197
  661MOL0     C89165   7.435   6.502   7.477 -0.0449  0.4136 -0.5857
  661MOL0     C89166   7.466   6.726   7.146  0.1999 -0.5357 -0.3018
  661MOL0     C89167   7.362   6.636   7.113 -0.0709 -0.1390  0.1731
  661MOL0     H89168   7.084   6.335   6.836  0.4201  1.8479  0.7893
  661MOL0     H89169   7.012   6.103   6.799  0.0038  2.5324 -1.2162
  661MOL0     H89170   6.940   5.815   7.146  0.4209 -0.1962  0.7528
  661MOL0     H89171   6.808   5.943   7.146 -3.0853 -1.3807 -1.1755
  661MOL0     H89172   6.712   5.836   6.943  0.7165  1.3219 -0.8199
  661MOL0     H89173   6.815   5.692   6.962 -0.4290 -0.8078  0.8921
  661MOL0     H89174   6.723   5.637   7.186 -0.2393 -1.9348 -1.2980
  661MOL0     H89175   6.648   5.803   7.183 -1.6073  0.6134 -1.6994
  661MOL0     H89176   6.491   5.728   6.997 -0.2920 -1.6112 -2.6753
  661MOL0     H89177   6.566   5.562   7.017  2.3301 -0.6627  3.4911
  661MOL0     H89178   6.485   5.593   7.263  1.8390  3.2579  0.0135
  661MOL0     H89179   6.383   5.724   7.213  2.4516  1.2877 -1.2575
  661MOL0     H89180   6.274   5.577   7.046  1.7059  0.9868  1.0292
  661MOL0     H89181   6.366   5.440   7.094  2.1494  1.3896 -0.8937
  661MOL0     H89182   6.135   5.427   7.227  0.4925 -0.0706 -5.1164
  661MOL0     H89183   6.255   5.467   7.340  0.8752 -0.7870 -0.3129
  661MOL0     H89184   6.126   5.699   7.192 -1.1469  0.4714 -0.0506
  661MOL0     H89185   6.177   5.688   7.363  2.4794 -0.2809 -0.9680
  661MOL0     H89186   6.004   5.530   7.521  0.2008 -2.4662 -1.3535
  661MOL0     H89187   5.740   5.358   7.497  0.3709  0.4776 -0.6567
  661MOL0     H89188   5.793   5.474   7.621  1.8572  3.0759 -1.0144
  661MOL0     H89189   5.552   5.498   7.443 -1.1916 -1.8996  0.9514
  661MOL0     H89190   5.604   5.624   7.578  1.4957 -0.0837  0.8428
  661MOL0     H89191   5.540   5.487   7.749  1.6245  1.6668 -0.9405
  661MOL0     H89192   5.494   5.343   7.641 -0.0960  0.2288  0.1996
  661MOL0     H89193   5.299   5.481   7.552 -0.0307  1.5795 -0.2835
  661MOL0     H89194   5.344   5.606   7.664 -1.0039 -0.0011  0.9834
  661MOL0     H89195   5.073   5.590   7.628  1.0917  1.0613  1.0323
  661MOL0     H89196   4.786   5.698   7.658  3.2698  2.4138 -2.4660
  661MOL0     H89197   4.898   5.643   7.537  0.3428 -1.2423 -1.5515
  661MOL0     H89198   4.730   5.571   7.567 -0.5405  2.8792 -0.5059
  661MOL0     H89199   4.575   5.460   8.139  2.9326 -1.7472 -1.7638
  661MOL0     H89200   4.332   5.446   8.202  0.3295  2.1425 -2.3959
  661MOL0     H89201   4.070   5.188   7.955 -0.8271  1.2760  0.3065
  661MOL0     H89202   4.088   5.078   8.098  0.5296 -0.9783 -0.5705
  661MOL0     H89203   3.948   5.266   8.216  1.2226 -3.0950  1.2479
  661MOL0     H89204   3.870   5.297   8.060 -0.8935  0.0172  2.2653
  661MOL0     H89205   3.901   5.018   8.174  1.9693  0.7405 -0.1394
  661MOL0     H89206   3.790   5.077   8.043 -1.6121 -0.0508  1.5857
  661MOL0     H89207   3.761   5.156   8.319 -0.2750  2.5406 -0.8491
  661MOL0     H89208   3.668   5.227   8.201 -0.6209  0.6890 -0.5031
  661MOL0     H89209   3.590   4.968   8.138 -0.7499 -0.9045  0.8134
  661MOL0     H89210   3.524   5.092   8.251 -0.1177  1.0846 -1.0097
  661MOL0     H89211   3.732   4.902   8.352  0.2873  1.2275 -0.3628
  661MOL0     H89212   3.605   4.996   8.435 -0.1269  0.9891 -0.8494
  661MOL0     H89213   3.554   4.756   8.237  0.4245  0.0267 -0.7440
  661MOL0     H89214   3.436   4.841   8.340  0.5720  3.1746 -1.3844
  661MOL0     H89215   3.662   4.669   8.453  1.0528  1.8350 -0.0376
  661MOL0     H89216   3.485   4.625   8.427  0.7258  0.2200 -1.3497
  661MOL0     H89217   4.276   5.144   7.906 -0.4126  2.3818 -1.0189
  661MOL0     H89218   4.509   5.164   7.842  0.1311  2.1703 -2.3001
  661MOL0     H89219   4.914   5.291   7.973  0.8508  1.1952  1.8393
  661MOL0     H89220   5.164   5.315   7.941 -0.4213 -1.2140  0.1528
  661MOL0     H89221   7.042   6.019   7.213  1.1233 -0.5320  0.5678
  661MOL0     H89222   7.110   6.249   7.247 -2.2998  0.6575  0.3718
  661MOL0     H89223   7.142   6.716   7.368 -2.4502 -0.8327 -1.2087
  661MOL0     H89224   7.320   6.859   7.429 -1.3109  0.6341  0.2004
  661MOL0     H89225   7.710   6.835   7.184 -1.4935 -0.2800 -0.1727
  661MOL0     H89226   7.756   6.932   7.316 -0.3327  0.8335 -1.3588
  661MOL0     H89227   7.836   6.704   7.338 -0.3102 -1.7736 -0.2738
  661MOL0     H89228   7.681   6.630   7.310  0.3488 -1.4939  1.7547
  661MOL0     H89229   7.608   6.780   7.527 -0.3520 -0.7665  0.4092
  661MOL0     H89230   7.772   6.758   7.571 -3.2435  0.4639  2.4411
  661MOL0     H89231   7.674   6.593   7.661 -1.5144  2.0825 -0.5751
  661MOL0     H89232   7.761   6.522   7.517  2.6216 -0.8109  5.0301
  661MOL0     H89233   7.337   6.472   7.449 -0.0055  0.1081 -0.3988
  661MOL0     H89234   7.556   6.738   7.087  1.0863  0.3491  1.1550
  661MOL0     H89235   7.379   6.571   7.028  3.1202  0.3153  0.3354
  662MOL0     O89236  11.142   9.883   9.533 -0.3409  0.0078  0.0273
  662MOL0     C89237  11.171   9.912   9.417 -0.5046 -0.1915 -0.0870
  662MOL0     O89238  11.112   9.865   9.307 -0.1496  0.0516  0.1369
  662MOL0     C89239  11.007   9.784   9.333  0.0835 -0.5762  0.4093
  662MOL0     C89240  11.012   9.650   9.281 -0.0730 -0.0888 -0.3430
  662MOL0     C89241  10.916   9.554   9.314  0.1988 -0.7265  0.7512
  662MOL0     C89242  10.815   9.589   9.401 -0.7843 -0.4398  0.0824
  662MOL0     O89243  10.720   9.509   9.451 -0.1430  0.0769 -1.0689
  662MOL0     C89244  10.712   9.374   9.403  0.0399  0.3874  0.1245
  662MOL0     C89245  10.586   9.314   9.459 -0.8515  0.0919 -0.2021
  662MOL0     C89246  10.583   9.161   9.447 -0.1347  0.0623 -0.0867
  662MOL0     C89247  10.449   9.111   9.503  0.3775 -0.0863  0.1161
  662MOL0     C89248  10.446   8.958   9.496 -0.2429  0.2645  0.0280
  662MOL0     C89249  10.323   8.905   9.576  0.5854 -0.5634 -0.2530
  662MOL0     C89250  10.323   8.752   9.596  0.0077 -0.8248 -0.7181
  662MOL0     C89251  10.276   8.673   9.476 -0.5653 -0.1423  0.0914
  662MOL0     N89252  10.129   8.669   9.483  0.1354 -0.5066  0.0714
  662MOL0     C89253  10.051   8.591   9.564 -0.5674  0.5299 -0.3424
  662MOL0     C89254   9.926   8.625   9.536  0.5139 -0.2412  0.3979
  662MOL0     C89255   9.809   8.544   9.572 -0.1137  0.3367 -0.1556
  662MOL0     C89256   9.759   8.458   9.463 -0.4092 -0.1107 -0.3729
  662MOL0     C89257   9.652   8.548   9.400  0.7197  0.0723  0.6363
  662MOL0     C89258   9.564   8.482   9.295 -0.6802 -0.1547 -0.1065
  662MOL0     O89259   9.451   8.558   9.256  0.2235 -0.1849  0.4191
  662MOL0     C89260   9.350   8.491   9.203  0.5407 -0.5767  0.4455
  662MOL0     C89261   9.368   8.440   9.074 -0.0033 -0.6870  0.3712
  662MOL0     C89262   9.270   8.379   9.000 -0.7718  0.4250 -0.5889
  662MOL0     C89263   9.326   8.312   8.878  0.5826 -0.5947 -0.2218
  662MOL0     C89264   9.137   8.378   9.057  0.3434 -0.4864  0.3261
  662MOL0     C89265   9.022   8.304   9.000 -0.3046  0.7695  0.8390
  662MOL0     O89266   8.899   8.284   9.063 -0.2349  0.2209 -0.4015
  662MOL0     C89267   8.791   8.244   9.004  0.4233  0.2079 -0.5638
  662MOL0     C89268   8.748   8.297   8.883  0.9764 -0.0626  0.2472
  662MOL0     C89269   8.621   8.268   8.833 -0.2484  0.6538  0.6543
  662MOL0     C89270   8.533   8.186   8.889  0.2496  0.1002 -0.5705
  662MOL0     O89271   8.408   8.163   8.830  0.6119  0.2134  0.1757
  662MOL0     C89272   8.326   8.055   8.879  0.4050 -0.6151  0.2938
  662MOL0     C89273   8.197   8.042   8.790  0.3205 -0.7063  0.2200
  662MOL0     C89274   8.214   7.961   8.657  0.9905  0.1163  0.5937
  662MOL0     C89275   8.093   7.972   8.563  0.4956  0.1316 -0.2753
  662MOL0     C89276   8.127   7.948   8.421 -0.4900 -0.3752 -0.1020
  662MOL0     C89277   8.017   7.964   8.319 -0.0454  0.1944  0.1643
  662MOL0     C89278   7.880   7.912   8.365 -0.1660  0.2026 -0.2193
  662MOL0     C89279   7.783   7.910   8.238 -0.3306  0.5347 -1.0153
  662MOL0    Cl89280   7.811   7.760   8.143  0.1563 -0.1455  0.1169
  662MOL0     C89281   8.572   8.124   9.009 -0.6595  0.0186 -0.1880
  662MOL0     C89282   8.702   8.152   9.067 -0.0021  0.3680  1.0356
  662MOL0     O89283   9.051   8.242   8.892  0.8628 -0.1579  0.6901
  662MOL0     C89284   9.121   8.436   9.178  0.9490  0.6091  0.1689
  662MOL0     C89285   9.222   8.494   9.253 -0.0737 -0.2897  0.0449
  662MOL0     N89286   9.928   8.737   9.456 -1.2390  0.3826  0.2884
  662MOL0     N89287  10.051   8.765   9.418  0.4081  0.6852  0.0308
  662MOL0     C89288  10.797   9.725   9.429  0.5965  0.1015  0.8655
  662MOL0     C89289  10.885   9.821   9.396 -0.1783 -0.9253  0.3188
  662MOL0     C89290  11.277  10.011   9.393  0.3580  0.4999  0.1103
  662MOL0     C89291  11.382  10.040   9.481  0.6956  0.3156 -0.5137
  662MOL0     C89292  11.493  10.110   9.445 -0.6176 -0.1936 -0.5072
  662MOL0     C89293  11.510  10.164   9.319 -0.4479  1.2599 -0.5100
  662MOL0     O89294  11.629  10.231   9.276 -0.3155  0.1310  0.8639
  662MOL0     C89295  11.689  10.175   9.157  0.5791  0.3685  0.3538
  662MOL0     C89296  11.840  10.202   9.152 -0.3861 -0.0676  0.4450
  662MOL0     C89297  11.906  10.139   9.270 -0.1873 -0.2503 -0.7595
  662MOL0     C89298  11.919   9.982   9.266 -0.6879 -0.5516 -0.3579
  662MOL0     C89299  12.046   9.957   9.341 -0.1149 -0.2191 -0.1494
  662MOL0     C89300  12.153   9.925   9.394 -0.7159  0.1432  0.6181
  662MOL0     C89301  11.411  10.138   9.230  0.7124 -0.1861  0.3029
  662MOL0     C89302  11.293  10.070   9.260  0.1474 -0.1966 -0.2121
  662MOL0     H89303  11.098   9.616   9.224  0.8611 -1.1508  1.6112
  662MOL0     H89304  10.919   9.450   9.285 -1.8732 -0.5525 -0.2689
  662MOL0     H89305  10.715   9.368   9.294 -0.5909 -2.0455  0.1854
  662MOL0     H89306  10.797   9.313   9.436 -1.2723 -1.8686 -0.4435
  662MOL0     H89307  10.588   9.340   9.566 -2.6066  0.4556 -0.2364
  662MOL0     H89308  10.496   9.363   9.422 -0.5097  1.7697  1.0216
  662MOL0     H89309  10.600   9.146   9.340  5.2379  1.8036  0.1846
  662MOL0     H89310  10.668   9.125   9.506 -0.1014 -0.1306 -0.2551
  662MOL0     H89311  10.431   9.145   9.605 -2.0744  1.5584 -0.7656
  662MOL0     H89312  10.368   9.139   9.434  0.5950 -2.0106 -0.9937
  662MOL0     H89313  10.438   8.920   9.394 -3.6541 -2.8629  1.2311
  662MOL0     H89314  10.535   8.905   9.533 -1.2962 -2.7274 -1.3802
  662MOL0     H89315  10.323   8.941   9.679  3.2112 -0.7895 -0.1072
  662MOL0     H89316  10.231   8.930   9.521  1.1399 -0.7252 -1.2900
  662MOL0     H89317  10.426   8.727   9.624  0.6194  2.4260  0.3178
  662MOL0     H89318  10.270   8.725   9.688 -0.0109  1.8678  0.1453
  662MOL0     H89319  10.321   8.576   9.498 -1.2613 -0.5402 -0.1703
  662MOL0     H89320  10.319   8.722   9.388  1.1014 -1.5309  0.0840
  662MOL0     H89321  10.097   8.514   9.625  0.9684  1.6423 -0.0305
  662MOL0     H89322   9.836   8.483   9.659 -1.8899 -1.7292 -0.9623
  662MOL0     H89323   9.735   8.617   9.606 -1.4542 -1.3554  0.7691
  662MOL0     H89324   9.718   8.365   9.501  1.2694 -1.5425 -1.8905
  662MOL0     H89325   9.838   8.430   9.392  0.5680  1.9953 -0.2055
  662MOL0     H89326   9.699   8.636   9.357  3.1194 -2.2356 -1.8026
  662MOL0     H89327   9.572   8.578   9.469 -0.5696 -0.5375 -0.5382
  662MOL0     H89328   9.536   8.386   9.338  0.3457 -0.5560 -0.3020
  662MOL0     H89329   9.631   8.471   9.209  0.5512 -0.2092  0.8302
  662MOL0     H89330   9.464   8.459   9.025  0.1068  1.2851  1.2819
  662MOL0     H89331   9.355   8.208   8.895  0.5279 -0.6816 -0.6251
  662MOL0     H89332   9.257   8.314   8.793  1.3873  0.2995 -0.8773
  662MOL0     H89333   9.412   8.362   8.832  0.3190  1.0186  0.9773
  662MOL0     H89334   8.810   8.370   8.832 -0.8128 -0.2188 -2.3337
  662MOL0     H89335   8.591   8.297   8.732 -1.3351  1.9472  1.3251
  662MOL0     H89336   8.383   7.962   8.874 -0.4612 -1.2525  1.5915
  662MOL0     H89337   8.297   8.063   8.984 -2.4968 -0.7497 -0.4060
  662MOL0     H89338   8.111   8.004   8.845  0.8330  1.1536  2.4605
  662MOL0     H89339   8.168   8.145   8.764  0.7009 -0.8836 -0.9760
  662MOL0     H89340   8.208   7.856   8.685  2.6631 -0.6433 -1.6063
  662MOL0     H89341   8.307   7.994   8.609  0.2927 -0.0144 -0.8858
  662MOL0     H89342   8.009   7.915   8.604  1.6649 -2.4078 -1.2731
  662MOL0     H89343   8.063   8.077   8.574  0.6784  0.1335  0.2495
  662MOL0     H89344   8.134   7.839   8.422 -0.0263 -0.3667 -1.4530
  662MOL0     H89345   8.219   7.993   8.383  0.6484 -1.9113  0.7494
  662MOL0     H89346   8.004   8.071   8.299  0.9791  0.3406  0.2644
  662MOL0     H89347   8.041   7.917   8.223  1.5475 -0.5962  0.9211
  662MOL0     H89348   7.842   7.972   8.448  0.4630 -0.1611  0.3339
  662MOL0     H89349   7.908   7.812   8.400  0.3578  0.4163 -0.0195
  662MOL0     H89350   7.797   8.003   8.183  1.1419  1.5691  0.9724
  662MOL0     H89351   7.680   7.917   8.275 -0.4959  1.1260 -1.5679
  662MOL0     H89352   8.507   8.052   9.056 -1.7489 -3.0135 -5.5100
  662MOL0     H89353   8.730   8.104   9.160 -0.7542  1.2771  1.7527
  662MOL0     H89354   9.020   8.438   9.217  1.5356 -0.4796  1.8914
  662MOL0     H89355   9.195   8.534   9.350 -1.0018 -1.0398  0.1199
  662MOL0     H89356  10.703   9.743   9.480  1.7384 -1.4216  3.7821
  662MOL0     H89357  10.874   9.927   9.418  1.2641 -1.1426  2.3781
  662MOL0     H89358  11.384  10.004   9.584  2.9096 -0.1737 -0.6778
  662MOL0     H89359  11.573  10.129   9.516  0.4871 -2.3018 -1.0885
  662MOL0     H89360  11.677  10.066   9.155 -3.3263  0.5688  2.9875
  662MOL0     H89361  11.644  10.214   9.065  0.9675 -0.2492 -0.1082
  662MOL0     H89362  11.849  10.311   9.162  1.1770 -0.1819  0.5363
  662MOL0     H89363  11.890  10.173   9.059  3.5290  2.5584  1.4985
  662MOL0     H89364  11.851  10.172   9.358  0.9960  0.4933 -0.2677
  662MOL0     H89365  12.011  10.172   9.271  0.0921 -1.0419 -1.8441
  662MOL0     H89366  11.923   9.943   9.163  0.3563 -1.1983 -0.0887
  662MOL0     H89367  11.826   9.944   9.309 -1.0069  1.5551  0.9083
  662MOL0     H89368  12.249   9.885   9.420 -0.5650 -1.7015 -2.3815
  662MOL0     H89369  11.421  10.173   9.128 -0.1015 -2.1356 -0.5035
  662MOL0     H89370  11.219  10.078   9.181 -0.8348  1.2501  0.8053
  663MOL0     O89371   3.787  10.474   0.692  0.1974  0.5796  0.2460
  663MOL0     C89372   3.866  10.403   0.631  1.1860 -0.2729  1.0669
  663MOL0     O89373   3.830  10.302   0.540 -0.0813  0.4482 -0.7029
  663MOL0     C89374   3.709  10.307   0.473 -0.0744 -0.1026  0.5944
  663MOL0     C89375   3.721  10.350   0.339  0.1975  0.2083 -0.3098
  663MOL0     C89376   3.596  10.339   0.269  1.5179 -0.1541  0.7185
  663MOL0     C89377   3.476  10.293   0.332  0.4247  0.1034  0.8692
  663MOL0     O89378   3.354  10.266   0.269  0.1083 -0.3844  0.1313
  663MOL0     C89379   3.317  10.356   0.165 -0.0714 -0.2807  0.3758
  663MOL0     C89380   3.161  10.382   0.174  0.0510 -0.2136  0.2619
  663MOL0     C89381   3.123  10.474   0.063 -0.6567  0.8774  0.3432
  663MOL0     C89382   2.978  10.511   0.062 -0.1538 -0.0013  0.2189
  663MOL0     C89383   2.926  10.572   0.184 -0.1356  0.1204 -0.1147
  663MOL0     C89384   2.779  10.618   0.160  0.0633  0.0105  0.2571
  663MOL0     C89385   2.740  10.705   0.277  0.3422 -0.5140  0.1962
  663MOL0     C89386   2.587  10.701   0.296  0.7751 -0.3637 -1.1307
  663MOL0     N89387   2.505  10.711   0.172 -0.7690 -0.0693  0.2547
  663MOL0     C89388   2.463  10.600   0.099 -0.1430 -0.2378 -0.8469
  663MOL0     C89389   2.402  10.662  -0.004  0.1061 -0.1648 -0.1180
  663MOL0     C89390   2.327  10.586  -0.114 -0.4456  0.5676 -0.2847
  663MOL0     C89391   2.302  10.670  -0.250  0.5856  0.9376 -0.0597
  663MOL0     C89392   2.250  10.563  -0.349 -0.0933 -0.7000  0.7544
  663MOL0     C89393   2.186  10.629  -0.469  0.5152  0.3694 -0.2019
  663MOL0     O89394   2.079  10.541  -0.522  0.1617 -0.2631 -0.1527
  663MOL0     C89395   1.955  10.566  -0.464 -0.0026 -1.1680 -1.1653
  663MOL0     C89396   1.923  10.656  -0.355  0.1065  0.7627  0.3369
  663MOL0     C89397   1.792  10.674  -0.313  0.7366  0.0399 -0.6795
  663MOL0     C89398   1.774  10.758  -0.195 -0.1959  0.7525 -0.1282
  663MOL0     C89399   1.679  10.607  -0.367  0.0795  1.6049  0.9207
  663MOL0     C89400   1.540  10.604  -0.322 -0.3527  0.5190  0.7083
  663MOL0     O89401   1.450  10.532  -0.398 -0.0745  0.1606 -0.4210
  663MOL0     C89402   1.310  10.541  -0.387  0.2432 -0.1375 -0.2211
  663MOL0     C89403   1.249  10.672  -0.368 -0.0258 -0.2120  0.1829
  663MOL0     C89404   1.111  10.692  -0.364  0.2631  0.6007 -0.6980
  663MOL0     C89405   1.029  10.585  -0.379 -0.7879 -0.5334 -0.1332
  663MOL0     O89406   0.892  10.603  -0.360 -0.5938  0.0921  0.1068
  663MOL0     C89407   0.858  10.604  -0.221  0.5407  0.6736  0.3343
  663MOL0     C89408   0.732  10.525  -0.195 -0.3367  0.2016  0.0552
  663MOL0     C89409   0.589  10.584  -0.216 -0.6452 -0.6298  0.0397
  663MOL0     C89410   0.548  10.577  -0.361  0.0648  0.3976 -0.3680
  663MOL0     C89411   0.402  10.589  -0.385  0.3243 -0.2343  0.0780
  663MOL0     C89412   0.347  10.475  -0.467 -0.0184  0.2031 -0.3182
  663MOL0     C89413   0.191  10.492  -0.482  0.9701 -0.4365 -0.5613
  663MOL0     C89414   0.134  10.612  -0.563  0.8740  0.8194  0.3847
  663MOL0    Cl89415   0.149  10.586  -0.735  0.4992 -0.0491 -0.2828
  663MOL0     C89416   1.085  10.459  -0.406 -0.4912 -0.2571 -0.4789
  663MOL0     C89417   1.223  10.435  -0.406 -0.6896 -0.1839 -0.1033
  663MOL0     O89418   1.504  10.672  -0.231 -0.5298  0.5257 -0.1829
  663MOL0     C89419   1.718  10.517  -0.470 -0.9463  0.1369 -0.2321
  663MOL0     C89420   1.849  10.497  -0.518 -0.9468  0.4259 -0.7389
  663MOL0     N89421   2.426  10.800   0.009  0.1106 -0.0279 -0.1555
  663MOL0     N89422   2.488  10.829   0.117  0.6773 -0.5721 -0.7177
  663MOL0     C89423   3.478  10.263   0.471  0.5419  0.0664 -0.0087
  663MOL0     C89424   3.595  10.276   0.537 -0.5443 -0.2092 -1.1090
  663MOL0     C89425   4.008  10.419   0.672  0.1617  0.0226  1.0356
  663MOL0     C89426   4.108  10.355   0.595  0.0279 -1.0609  0.0459
  663MOL0     C89427   4.249  10.362   0.620 -0.7651 -0.3417 -0.8533
  663MOL0     C89428   4.294  10.448   0.729  0.4873 -0.0582 -0.6269
  663MOL0     O89429   4.428  10.454   0.744 -0.3215  0.7129 -0.1498
  663MOL0     C89430   4.477  10.537   0.842 -0.0498 -0.5076  0.2070
  663MOL0     C89431   4.632  10.560   0.821 -1.6463 -0.2965 -0.4759
  663MOL0     C89432   4.674  10.698   0.879 -0.1628 -0.4783 -0.3500
  663MOL0     C89433   4.824  10.734   0.852  0.1606 -0.3408  0.0318
  663MOL0     C89434   4.912  10.620   0.822  0.2571 -0.5047 -0.1528
  663MOL0     C89435   4.994  10.535   0.807  0.6462  1.1657  1.1982
  663MOL0     C89436   4.192  10.506   0.804 -0.1484 -0.6413  0.8433
  663MOL0     C89437   4.053  10.492   0.779 -0.4775 -0.2269  0.4573
  663MOL0     H89438   3.820  10.379   0.304  0.9256  0.1977  1.6496
  663MOL0     H89439   3.600  10.341   0.161 -0.2438  2.7902  0.6031
  663MOL0     H89440   3.366  10.452   0.177  1.7746 -1.2133  0.6257
  663MOL0     H89441   3.336  10.301   0.072 -0.6387  0.5886 -0.2675
  663MOL0     H89442   3.109  10.286   0.164 -0.3365  0.1115 -1.0148
  663MOL0     H89443   3.144  10.417   0.276  1.2978  1.9714 -0.2223
  663MOL0     H89444   3.183  10.565   0.069 -0.5086  0.9316 -1.6062
  663MOL0     H89445   3.154  10.428  -0.031 -0.4863 -4.1311  2.5309
  663MOL0     H89446   2.961  10.573  -0.027  1.0203 -1.4773 -1.1028
  663MOL0     H89447   2.926  10.416   0.046  0.5554  0.0357 -2.8982
  663MOL0     H89448   2.940  10.494   0.260 -1.5734  0.2541  0.3209
  663MOL0     H89449   2.995  10.655   0.198 -0.0948  0.0905 -0.1346
  663MOL0     H89450   2.763  10.658   0.059 -1.3267 -2.7242 -0.6821
  663MOL0     H89451   2.714  10.531   0.152  2.0981 -1.4114 -5.1474
  663MOL0     H89452   2.775  10.653   0.366 -2.2485 -3.2063 -0.1946
  663MOL0     H89453   2.781  10.807   0.277 -0.2153 -0.1734  3.6740
  663MOL0     H89454   2.558  10.781   0.365 -0.5771 -0.8397 -1.1149
  663MOL0     H89455   2.560  10.609   0.349  1.3851 -0.8289 -1.6052
  663MOL0     H89456   2.471  10.494   0.120  1.3855 -0.6966 -3.3463
  663MOL0     H89457   2.372  10.489  -0.139 -0.3210 -0.2640  2.7684
  663MOL0     H89458   2.232  10.568  -0.063 -1.2125  0.9619 -1.5462
  663MOL0     H89459   2.393  10.712  -0.293  1.7272 -0.5746  0.7579
  663MOL0     H89460   2.232  10.747  -0.219  0.9963 -0.0108  3.6791
  663MOL0     H89461   2.181  10.496  -0.298 -1.7428 -0.0700 -0.5489
  663MOL0     H89462   2.336  10.510  -0.392 -0.3383 -1.4177  1.1269
  663MOL0     H89463   2.256  10.657  -0.548 -0.4108  2.2310 -0.4045
  663MOL0     H89464   2.145  10.725  -0.437  0.4064  0.9421 -1.9803
  663MOL0     H89465   2.007  10.693  -0.297  2.2098 -1.1470 -1.2970
  663MOL0     H89466   1.700  10.837  -0.209 -0.6630 -0.1190 -3.2327
  663MOL0     H89467   1.743  10.684  -0.121 -1.2433 -0.0548 -1.3476
  663MOL0     H89468   1.871  10.794  -0.158  1.3021 -0.4476 -2.6070
  663MOL0     H89469   1.307  10.763  -0.357 -2.0477  1.1720 -0.1087
  663MOL0     H89470   1.066  10.787  -0.338  0.3102  0.6608 -0.8321
  663MOL0     H89471   0.934  10.564  -0.155 -0.9502  0.0635  1.7454
  663MOL0     H89472   0.831  10.706  -0.192 -0.2516  1.5749 -3.0432
  663MOL0     H89473   0.735  10.432  -0.253  0.1222  0.8065 -0.9053
  663MOL0     H89474   0.752  10.497  -0.091  0.9868  0.0129 -0.2348
  663MOL0     H89475   0.596  10.691  -0.193 -1.3621 -1.0417  2.5758
  663MOL0     H89476   0.506  10.543  -0.158 -1.6589  2.9396  1.3916
  663MOL0     H89477   0.604  10.649  -0.422  1.4428 -0.8931 -0.6918
  663MOL0     H89478   0.580  10.481  -0.402  3.0865  1.7157 -1.3957
  663MOL0     H89479   0.384  10.689  -0.425  0.6462 -1.1318 -2.4486
  663MOL0     H89480   0.344  10.593  -0.292 -0.4336  0.2036 -0.4012
  663MOL0     H89481   0.396  10.491  -0.563  2.7097  3.4411  1.3911
  663MOL0     H89482   0.367  10.378  -0.420 -0.3344  0.8417  1.1998
  663MOL0     H89483   0.152  10.506  -0.380  0.8444  0.7301 -0.7553
  663MOL0     H89484   0.151  10.397  -0.520 -0.2079  0.1290 -0.7835
  663MOL0     H89485   0.198  10.692  -0.524  3.0129 -0.4326 -0.3862
  663MOL0     H89486   0.032  10.647  -0.543 -1.1477 -3.6276 -1.0146
  663MOL0     H89487   1.014  10.378  -0.418 -0.8263  0.0373 -0.4892
  663MOL0     H89488   1.257  10.333  -0.415  0.0822  0.1084 -0.5403
  663MOL0     H89489   1.645  10.455  -0.522  1.1109 -3.1850  0.5747
  663MOL0     H89490   1.876  10.414  -0.584 -0.7896 -0.4362  0.3766
  663MOL0     H89491   3.392  10.218   0.519  0.4713  0.0649 -0.1385
  663MOL0     H89492   3.601  10.256   0.643  1.2910  0.6090 -1.0232
  663MOL0     H89493   4.081  10.320   0.497 -0.5303  0.1846 -0.2572
  663MOL0     H89494   4.317  10.324   0.545  2.2364  1.0194  0.9816
  663MOL0     H89495   4.440  10.638   0.822  2.4618  0.3781 -0.3846
  663MOL0     H89496   4.454  10.516   0.947 -1.2799  2.2712  0.6085
  663MOL0     H89497   4.652  10.564   0.714 -1.1243 -0.6254 -0.3928
  663MOL0     H89498   4.691  10.477   0.861  0.2823  1.4037  0.3588
  663MOL0     H89499   4.657  10.681   0.986 -3.0426 -1.0180 -0.8117
  663MOL0     H89500   4.605  10.774   0.841  0.6219 -0.3988 -1.6836
  663MOL0     H89501   4.869  10.791   0.934 -0.8350 -0.0758  0.4140
  663MOL0     H89502   4.819  10.789   0.758 -2.7123 -3.8966 -2.1861
  663MOL0     H89503   5.064  10.454   0.804 -0.9645 -0.2742  0.6707
  663MOL0     H89504   4.225  10.563   0.891  2.0883 -3.9614  2.4142
  663MOL0     H89505   3.985  10.546   0.844 -0.2666  1.2517 -0.5074
  664MOL0     O89506   3.384   1.014   0.286 -0.1198 -0.0462 -0.1329
  664MOL0     C89507   3.453   0.960   0.372  0.3873 -0.0506  0.4726
  664MOL0     O89508   3.406   0.876   0.461  0.3403 -0.1862 -0.2141
  664MOL0     C89509   3.269   0.875   0.476  0.0797  0.5874 -0.5376
  664MOL0     C89510   3.185   0.792   0.389 -0.3217 -0.0007 -0.7835
  664MOL0     C89511   3.044   0.795   0.403  0.2584  0.5787  0.6821
  664MOL0     C89512   2.986   0.872   0.499 -0.3849 -0.6710 -0.4611
  664MOL0     O89513   2.850   0.873   0.527 -0.3575 -0.1123  0.3230
  664MOL0     C89514   2.770   0.770   0.476 -0.3813  0.4074 -0.1550
  664MOL0     C89515   2.625   0.797   0.503 -0.1091  0.8499  0.1776
  664MOL0     C89516   2.529   0.676   0.485  0.2108  0.6840 -0.0741
  664MOL0     C89517   2.388   0.717   0.523  0.2822  0.4898  0.2728
  664MOL0     C89518   2.317   0.587   0.555  0.1675  0.6061 -0.8856
  664MOL0     C89519   2.166   0.591   0.592 -0.2680 -1.4805 -0.0954
  664MOL0     C89520   2.118   0.446   0.631  0.8158  0.1684 -0.3949
  664MOL0     C89521   1.970   0.448   0.677  0.4938  0.3506 -0.6639
  664MOL0     N89522   1.923   0.313   0.712  0.5877 -0.2435  0.3103
  664MOL0     C89523   1.814   0.275   0.794  0.6627 -0.0905 -0.2022
  664MOL0     C89524   1.783   0.153   0.752  1.0135  0.3546  0.2161
  664MOL0     C89525   1.655   0.083   0.806  0.4206  0.2471  0.4721
  664MOL0     C89526   1.533   0.137   0.729 -1.6075 -0.6183  0.1595
  664MOL0     C89527   1.407   0.092   0.789 -0.1647  0.2058 -0.4997
  664MOL0     C89528   1.366  -0.060   0.782  0.3079 -0.7417 -0.0060
  664MOL0     O89529   1.355  -0.097   0.650  1.0737  0.4082  0.0088
  664MOL0     C89530   1.241  -0.056   0.575  0.7548 -0.3048 -0.4837
  664MOL0     C89531   1.252  -0.041   0.435 -0.3139 -0.9449 -0.4456
  664MOL0     C89532   1.146   0.001   0.357  0.6349 -0.0973  0.4581
  664MOL0     C89533   1.170   0.011   0.206  0.5480 -0.1000 -0.5262
  664MOL0     C89534   1.020   0.023   0.412  0.3228 -0.2357  0.3406
  664MOL0     C89535   0.903   0.060   0.335  0.2795  0.6197 -0.1790
  664MOL0     O89536   0.872  -0.018   0.225 -0.2310  0.7352  0.1301
  664MOL0     C89537   0.765   0.011   0.151  0.5540 -0.5923  0.5656
  664MOL0     C89538   0.672  -0.091   0.111 -0.0172 -0.5076  0.0363
  664MOL0     C89539   0.553  -0.063   0.042 -1.1512  0.2212 -0.7877
  664MOL0     C89540   0.516   0.068   0.012 -0.6446  0.1031  1.1586
  664MOL0     O89541   0.396   0.113  -0.045 -0.6134  0.3881  0.1444
  664MOL0     C89542   0.301   0.016  -0.098 -0.8822  0.1031 -0.2291
  664MOL0     C89543   0.165   0.086  -0.109 -0.1436 -0.1582  0.5841
  664MOL0     C89544   0.173   0.190  -0.221 -0.6582 -0.4362  0.3426
  664MOL0     C89545   0.057   0.287  -0.214 -0.2717  0.0891 -0.4032
  664MOL0     C89546   0.057   0.359  -0.350 -0.9545  1.5762 -0.1372
  664MOL0     C89547  -0.026   0.493  -0.359  0.3178  0.2144  0.2390
  664MOL0     C89548  -0.063   0.543  -0.506  0.3214 -0.1526  0.6157
  664MOL0     C89549  -0.153   0.666  -0.505 -0.6564 -0.3673 -0.5156
  664MOL0    Cl89550  -0.197   0.704  -0.671 -0.0018  0.2535  0.5212
  664MOL0     C89551   0.612   0.174   0.033 -0.4260  0.4731  0.0183
  664MOL0     C89552   0.732   0.143   0.106 -0.1044 -0.2578  0.4916
  664MOL0     O89553   0.829   0.146   0.389  0.5673  0.2088  0.1446
  664MOL0     C89554   1.014   0.022   0.553  0.5750  0.4310  0.4663
  664MOL0     C89555   1.117  -0.016   0.638 -0.0624  1.0718  0.3876
  664MOL0     N89556   1.864   0.104   0.650  0.6273 -0.1307 -0.0886
  664MOL0     N89557   1.948   0.206   0.627  0.7116  0.1863 -0.0571
  664MOL0     C89558   3.071   0.951   0.580  0.1007  1.1434 -0.0475
  664MOL0     C89559   3.209   0.958   0.568  0.2711 -0.1195 -0.3203
  664MOL0     C89560   3.599   0.980   0.350  0.4978  0.4179  0.2566
  664MOL0     C89561   3.677   0.926   0.458  0.2352 -0.2099  0.0903
  664MOL0     C89562   3.815   0.946   0.456 -0.7478 -0.0316 -0.1050
  664MOL0     C89563   3.879   1.024   0.355  0.5128  0.2697 -0.1068
  664MOL0     O89564   4.015   1.055   0.346 -0.2798 -0.3388 -0.1765
  664MOL0     C89565   4.103   1.043   0.466  0.2596 -0.0305 -0.5531
  664MOL0     C89566   4.251   1.042   0.431  0.1571 -0.1591  0.4846
  664MOL0     C89567   4.279   1.175   0.351  0.6095 -0.1356  0.9288
  664MOL0     C89568   4.426   1.190   0.319  0.4304  0.3283  0.4834
  664MOL0     C89569   4.506   1.233   0.432  0.6564 -0.2112 -0.1048
  664MOL0     C89570   4.590   1.281   0.511  0.2893  0.6972  1.0525
  664MOL0     C89571   3.806   1.073   0.252  0.2644  0.4164 -0.2188
  664MOL0     C89572   3.663   1.064   0.258 -0.4521  0.8088 -0.0304
  664MOL0     H89573   3.235   0.713   0.333 -3.2605 -2.5155 -0.1608
  664MOL0     H89574   2.988   0.725   0.342  0.0763 -0.9083  2.4803
  664MOL0     H89575   2.780   0.759   0.367  1.4271 -1.4299  0.1347
  664MOL0     H89576   2.803   0.679   0.527  0.0904  0.6583 -0.0088
  664MOL0     H89577   2.618   0.842   0.602  2.7564  0.9682  0.4196
  664MOL0     H89578   2.591   0.874   0.433  1.3976  0.5101 -0.9948
  664MOL0     H89579   2.530   0.647   0.380  3.2203 -0.5581  0.2001
  664MOL0     H89580   2.566   0.594   0.547 -2.2464 -0.7823 -0.3936
  664MOL0     H89581   2.385   0.785   0.608 -0.3452 -0.2957  0.8980
  664MOL0     H89582   2.343   0.762   0.434  0.2513 -2.7380 -1.5257
  664MOL0     H89583   2.339   0.513   0.477  0.7140 -0.7134  0.4830
  664MOL0     H89584   2.368   0.549   0.644 -0.4987  0.3043 -0.6326
  664MOL0     H89585   2.152   0.662   0.675 -3.4759 -1.6140 -0.4119
  664MOL0     H89586   2.118   0.633   0.503  2.2361  0.3833 -0.7143
  664MOL0     H89587   2.128   0.381   0.543  0.3034 -1.0644  0.4185
  664MOL0     H89588   2.179   0.398   0.708 -0.4602  0.3341  0.7546
  664MOL0     H89589   1.911   0.490   0.595 -1.6880  1.6893  1.4805
  664MOL0     H89590   1.979   0.517   0.761  2.4529  0.2924 -0.7740
  664MOL0     H89591   1.756   0.338   0.860  1.1762 -1.4322  1.6223
  664MOL0     H89592   1.655  -0.023   0.779 -2.3094  0.5909 -1.3339
  664MOL0     H89593   1.646   0.084   0.915  2.0925  0.2152  0.6242
  664MOL0     H89594   1.535   0.107   0.624 -0.5581 -2.5246  0.6894
  664MOL0     H89595   1.541   0.246   0.730  1.5175 -0.7430 -0.7205
  664MOL0     H89596   1.331   0.153   0.742  0.3310  2.7822  1.7719
  664MOL0     H89597   1.401   0.118   0.895  0.9389 -1.1664 -0.0537
  664MOL0     H89598   1.273  -0.074   0.837  0.6067  1.8525  1.2988
  664MOL0     H89599   1.439  -0.122   0.836 -1.3209 -1.0407  1.9635
  664MOL0     H89600   1.341  -0.071   0.380 -2.1129 -1.0777 -3.4832
  664MOL0     H89601   1.110   0.090   0.161  0.1127  0.1022  0.3795
  664MOL0     H89602   1.277   0.025   0.189  0.9966 -1.3962  0.9965
  664MOL0     H89603   1.142  -0.084   0.159  0.2179  1.3110 -3.4048
  664MOL0     H89604   0.698  -0.191   0.146 -0.3861 -0.2105  1.1901
  664MOL0     H89605   0.494  -0.149   0.010  0.7346 -1.2865 -0.4230
  664MOL0     H89606   0.335  -0.031  -0.191 -2.2307 -0.6761 -0.3718
  664MOL0     H89607   0.286  -0.059  -0.020  0.3603  1.3231  1.2177
  664MOL0     H89608   0.083   0.016  -0.129 -0.3390  0.5231 -1.1518
  664MOL0     H89609   0.147   0.135  -0.013  1.6192  1.4374  0.1640
  664MOL0     H89610   0.157   0.134  -0.314 -1.4413  1.1460 -0.5264
  664MOL0     H89611   0.273   0.235  -0.212 -0.6628 -0.5209  0.8191
  664MOL0     H89612  -0.040   0.243  -0.191  0.0623  0.2458  1.4901
  664MOL0     H89613   0.083   0.357  -0.134 -2.5981 -1.3044  1.7328
  664MOL0     H89614  -0.000   0.295  -0.419 -0.2238  2.1849 -1.3386
  664MOL0     H89615   0.158   0.389  -0.378  1.2999 -2.2683  2.8897
  664MOL0     H89616  -0.118   0.468  -0.306 -0.2999 -0.4433 -1.0981
  664MOL0     H89617   0.017   0.570  -0.294  2.3727 -0.9093  0.3049
  664MOL0     H89618  -0.125   0.468  -0.556  0.3538  0.8496 -0.9654
  664MOL0     H89619   0.025   0.578  -0.561  0.7631 -1.0373  0.7359
  664MOL0     H89620  -0.104   0.752  -0.457  0.5016 -1.6771  0.7634
  664MOL0     H89621  -0.240   0.635  -0.446 -2.1540  0.3749 -2.2542
  664MOL0     H89622   0.568   0.271   0.013  0.4115  1.1430  1.3262
  664MOL0     H89623   0.793   0.231   0.123 -2.6549  1.7929 -0.2852
  664MOL0     H89624   0.919   0.047   0.598 -2.3922 -1.5232 -4.0284
  664MOL0     H89625   1.114  -0.002   0.746  1.4820  1.9033  0.3529
  664MOL0     H89626   3.019   1.005   0.658  0.7901  1.7565 -0.0030
  664MOL0     H89627   3.280   1.009   0.633  0.9432 -0.5582 -0.7053
  664MOL0     H89628   3.622   0.862   0.526 -1.4285 -0.3216 -1.2908
  664MOL0     H89629   3.869   0.911   0.543 -1.7743  0.1932  0.6386
  664MOL0     H89630   4.076   1.115   0.543 -3.5031 -0.5621 -1.1766
  664MOL0     H89631   4.085   0.947   0.516 -0.0859 -1.4279 -3.1309
  664MOL0     H89632   4.285   0.957   0.372 -0.5936 -1.9232  2.4553
  664MOL0     H89633   4.306   1.039   0.526  0.4460  0.2348  0.3329
  664MOL0     H89634   4.255   1.263   0.411  0.3019 -0.5143  1.3717
  664MOL0     H89635   4.228   1.170   0.254  1.1520 -3.8045  0.6883
  664MOL0     H89636   4.443   1.263   0.240 -0.2403 -1.0298 -0.9675
  664MOL0     H89637   4.470   1.100   0.275  0.7302  2.0455 -3.0335
  664MOL0     H89638   4.666   1.310   0.582  2.8092 -2.0299 -0.3010
  664MOL0     H89639   3.848   1.123   0.165 -1.2416  2.3888  0.1247
  664MOL0     H89640   3.613   1.116   0.177  0.3691 -3.2975 -3.5407
  665MOL0     O89641   7.142   8.528  11.107  0.2605 -0.1373  0.4200
  665MOL0     C89642   7.135   8.522  10.986 -0.3778 -0.2870  0.7458
  665MOL0     O89643   7.244   8.513  10.900  0.0635  0.3004 -0.1048
  665MOL0     C89644   7.382   8.494  10.937  0.2325  0.4471  0.6371
  665MOL0     C89645   7.474   8.520  10.838 -0.2726 -0.2904 -0.3523
  665MOL0     C89646   7.609   8.502  10.860  0.8677 -0.9146 -0.2145
  665MOL0     C89647   7.653   8.461  10.985 -0.3129 -1.2502 -0.1225
  665MOL0     O89648   7.788   8.441  11.018 -0.1036  0.9049  0.1344
  665MOL0     C89649   7.887   8.498  10.925  0.7519 -0.5931 -1.0395
  665MOL0     C89650   7.875   8.647  10.899  0.7404  0.0834  0.3786
  665MOL0     C89651   8.009   8.703  10.851  0.2021  0.0051 -0.4696
  665MOL0     C89652   7.981   8.846  10.798  0.4135 -0.0509 -0.2701
  665MOL0     C89653   8.102   8.934  10.780 -0.8429  0.7632  0.1271
  665MOL0     C89654   8.209   8.856  10.699  0.0645 -0.6184 -0.2763
  665MOL0     C89655   8.325   8.948  10.668  0.4130  0.6853 -0.4651
  665MOL0     C89656   8.408   8.973  10.792 -0.0824 -0.2592  0.5559
  665MOL0     N89657   8.491   9.091  10.781 -1.1926 -0.1280  0.6824
  665MOL0     C89658   8.457   9.210  10.724  0.0152 -0.2991 -0.7621
  665MOL0     C89659   8.576   9.288  10.737  0.1974  0.0554  0.3835
  665MOL0     C89660   8.613   9.418  10.669  0.4574 -0.5835 -0.3469
  665MOL0     C89661   8.540   9.543  10.735 -0.1547  0.4822 -0.1038
  665MOL0     C89662   8.578   9.679  10.666 -0.2862  0.2301 -0.2007
  665MOL0     C89663   8.514   9.800  10.742  0.0159 -0.5719 -0.4846
  665MOL0     O89664   8.388   9.775  10.804  0.8897  0.5266  0.5317
  665MOL0     C89665   8.275   9.778  10.733 -0.5766  0.1014 -0.2284
  665MOL0     C89666   8.270   9.796  10.594  0.4989 -0.8431  0.0289
  665MOL0     C89667   8.146   9.781  10.531 -0.2694  0.3375 -0.0956
  665MOL0     C89668   8.156   9.787  10.380 -0.0511  0.2903  0.0240
  665MOL0     C89669   8.024   9.761  10.607  0.5614  1.1127 -0.3433
  665MOL0     C89670   7.883   9.746  10.560  0.0276 -0.1985 -0.3658
  665MOL0     O89671   7.787   9.696  10.652  0.3862  0.2612  0.6879
  665MOL0     C89672   7.668   9.644  10.603  0.2710  0.6741 -0.2905
  665MOL0     C89673   7.629   9.523  10.657 -0.6861 -0.9942  0.5561
  665MOL0     C89674   7.509   9.474  10.618  0.0609 -0.0217 -0.0422
  665MOL0     C89675   7.436   9.525  10.515 -0.7513  0.3644 -0.1559
  665MOL0     O89676   7.319   9.462  10.486  0.1018  0.6194  0.1060
  665MOL0     C89677   7.250   9.508  10.366  0.5790 -0.4731 -0.2224
  665MOL0     C89678   7.120   9.430  10.349  0.2169 -0.5459 -0.3500
  665MOL0     C89679   7.042   9.418  10.483  0.6921  0.3317  1.0380
  665MOL0     C89680   6.894   9.365  10.462  0.2296 -0.2149  0.2009
  665MOL0     C89681   6.879   9.228  10.397  0.4332  0.5638  0.5241
  665MOL0     C89682   6.898   9.106  10.497 -0.5252 -0.1865  0.5796
  665MOL0     C89683   6.894   8.966  10.443  1.0670 -0.6067 -0.4502
  665MOL0     C89684   6.750   8.932  10.392  0.4701  0.0808  0.4150
  665MOL0    Cl89685   6.624   8.959  10.512  0.0885  0.0861  0.4275
  665MOL0     C89686   7.479   9.646  10.457  0.3037 -0.7132 -0.0079
  665MOL0     C89687   7.590   9.712  10.508 -0.6558 -0.6386 -0.2152
  665MOL0     O89688   7.866   9.774  10.443  0.2672 -0.6603  0.1551
  665MOL0     C89689   8.033   9.752  10.747  0.0282 -0.6769 -0.6773
  665MOL0     C89690   8.158   9.766  10.809 -0.2977 -0.0451  0.4930
  665MOL0     N89691   8.672   9.205  10.789 -0.6843 -0.8763 -0.3964
  665MOL0     N89692   8.623   9.101  10.820  0.3784  0.8126  0.1622
  665MOL0     C89693   7.566   8.437  11.092  0.2099  0.3853  1.1080
  665MOL0     C89694   7.429   8.451  11.068  0.0778  0.0705  0.2830
  665MOL0     C89695   7.006   8.530  10.928  0.3288 -0.0658  0.0151
  665MOL0     C89696   6.985   8.512  10.791  0.4984 -0.0242 -0.5253
  665MOL0     C89697   6.852   8.518  10.736 -0.1284  0.3502  0.3535
  665MOL0     C89698   6.733   8.533  10.820 -0.2984 -0.5659  1.0002
  665MOL0     O89699   6.600   8.533  10.775  0.5245  0.9876  0.6980
  665MOL0     C89700   6.557   8.565  10.644  0.6998  0.4409  0.1206
  665MOL0     C89701   6.418   8.624  10.633  0.9435 -1.0752  0.1086
  665MOL0     C89702   6.312   8.541  10.702  0.3763  1.1862  0.2901
  665MOL0     C89703   6.278   8.411  10.610  0.5089  0.2819 -0.0001
  665MOL0     C89704   6.198   8.435  10.486 -0.3744 -0.1531 -0.3277
  665MOL0     C89705   6.161   8.482  10.381  0.2658 -0.2248  0.4537
  665MOL0     C89706   6.755   8.549  10.957 -0.3127  1.2166 -0.3121
  665MOL0     C89707   6.889   8.545  11.008 -0.4656 -0.1473  0.6601
  665MOL0     H89708   7.435   8.550  10.742 -0.0638  1.7608  0.1625
  665MOL0     H89709   7.669   8.525  10.773 -0.0736  0.7334 -0.4676
  665MOL0     H89710   7.986   8.486  10.969 -0.5270  0.8658  2.6188
  665MOL0     H89711   7.875   8.458  10.824 -0.5076  0.6780 -1.4270
  665MOL0     H89712   7.800   8.681  10.826  1.6873  7.5257  2.0029
  665MOL0     H89713   7.848   8.700  10.991 -1.0513 -1.7963  1.0151
  665MOL0     H89714   8.077   8.696  10.936  1.8607 -2.3086 -1.8678
  665MOL0     H89715   8.050   8.641  10.771 -1.1139 -0.9995 -0.4188
  665MOL0     H89716   7.927   8.845  10.702 -0.7190 -1.5536  0.3591
  665MOL0     H89717   7.918   8.888  10.876  0.4730 -1.1037  0.3602
  665MOL0     H89718   8.076   9.022  10.721  0.3123  1.0875  0.0618
  665MOL0     H89719   8.132   8.969  10.880  1.3032 -0.7379  0.0770
  665MOL0     H89720   8.255   8.771  10.749  0.1126  0.2223  1.1692
  665MOL0     H89721   8.153   8.829  10.609 -1.4015  1.5264 -0.0804
  665MOL0     H89722   8.390   8.900  10.595  0.0500 -1.7491  0.7130
  665MOL0     H89723   8.281   9.036  10.620 -1.7170 -0.2288 -0.3172
  665MOL0     H89724   8.475   8.892  10.822  0.5857  0.5186  1.1857
  665MOL0     H89725   8.341   8.986  10.878 -1.2553  1.3429 -0.5291
  665MOL0     H89726   8.365   9.244  10.678 -1.3569  1.3824  2.7869
  665MOL0     H89727   8.722   9.426  10.659  0.6564  1.2895  2.2711
  665MOL0     H89728   8.576   9.411  10.566  0.3496  0.0800 -0.3598
  665MOL0     H89729   8.562   9.544  10.842 -0.4856  1.8502 -0.0351
  665MOL0     H89730   8.434   9.515  10.730 -0.3495  0.9341  1.2440
  665MOL0     H89731   8.545   9.677  10.562  0.0928 -3.0331 -0.3821
  665MOL0     H89732   8.686   9.694  10.656 -0.1662 -0.9103 -0.7852
  665MOL0     H89733   8.525   9.893  10.687  1.6437  0.9843  2.2280
  665MOL0     H89734   8.576   9.816  10.831  0.7356  1.1514 -1.2496
  665MOL0     H89735   8.358   9.814  10.533  0.8164  2.7204  1.3085
  665MOL0     H89736   8.063   9.753  10.335  1.1201  0.0866 -2.4131
  665MOL0     H89737   8.175   9.893  10.358 -0.4550  0.5345  0.8245
  665MOL0     H89738   8.241   9.727  10.346 -1.5137 -2.2885  0.7052
  665MOL0     H89739   7.690   9.479  10.736  1.0598  0.2644 -0.0197
  665MOL0     H89740   7.482   9.382  10.668  0.6373 -0.4419 -0.4882
  665MOL0     H89741   7.217   9.612  10.369 -2.4583 -1.3576  0.3652
  665MOL0     H89742   7.314   9.503  10.277  2.1392 -0.4393  0.8520
  665MOL0     H89743   7.061   9.479  10.270 -0.1387  0.7159  0.6564
  665MOL0     H89744   7.140   9.331  10.309  0.7113 -1.7935  2.7263
  665MOL0     H89745   7.033   9.521  10.520 -0.3472  0.7978 -0.4048
  665MOL0     H89746   7.094   9.360  10.560 -0.7077 -0.7434  1.2094
  665MOL0     H89747   6.836   9.380  10.553 -1.2093  0.4704 -0.7911
  665MOL0     H89748   6.846   9.435  10.392  0.1295  0.3466  0.8230
  665MOL0     H89749   6.951   9.209  10.317  0.2673  0.3474  0.4246
  665MOL0     H89750   6.779   9.220  10.352  0.7583 -2.1513  0.1194
  665MOL0     H89751   6.999   9.120  10.537 -0.3314  3.5915 -0.7972
  665MOL0     H89752   6.827   9.116  10.579 -1.8427 -3.6966  0.0291
  665MOL0     H89753   6.918   8.903  10.529  0.0692 -2.3095 -1.3810
  665MOL0     H89754   6.967   8.954  10.362 -1.2737 -0.3103 -2.7252
  665MOL0     H89755   6.745   8.827  10.362 -2.8012  0.5823 -1.2678
  665MOL0     H89756   6.717   8.991  10.306 -3.3664 -1.2083  0.8199
  665MOL0     H89757   7.419   9.683  10.374 -1.7544 -3.9962 -0.1333
  665MOL0     H89758   7.624   9.807  10.468 -2.2143  1.8336  3.7029
  665MOL0     H89759   7.946   9.736  10.810  0.9787  0.1733  0.9123
  665MOL0     H89760   8.155   9.771  10.918 -2.4105 -1.5820  0.5759
  665MOL0     H89761   7.589   8.396  11.190 -2.0072 -1.6868  0.8611
  665MOL0     H89762   7.362   8.429  11.150 -0.6675  2.7701  0.4811
  665MOL0     H89763   7.068   8.496  10.723  0.2040 -0.3142 -0.8246
  665MOL0     H89764   6.838   8.497  10.631  0.2706 -4.2594  1.0290
  665MOL0     H89765   6.607   8.648  10.592 -1.7481  1.6156 -0.4868
  665MOL0     H89766   6.564   8.473  10.585  0.9514  0.8018 -0.4259
  665MOL0     H89767   6.382   8.633  10.530 -2.8166 -1.0789  1.2682
  665MOL0     H89768   6.417   8.720  10.686 -1.7247 -2.6999  3.4015
  665MOL0     H89769   6.222   8.601  10.716 -0.1625  0.2495  0.9550
  665MOL0     H89770   6.343   8.503  10.800  0.6146  1.5995  0.3779
  665MOL0     H89771   6.211   8.357  10.678  0.3539  0.5797  0.0873
  665MOL0     H89772   6.364   8.351  10.579  0.9436  1.6201 -1.4999
  665MOL0     H89773   6.120   8.513  10.287 -0.4211  1.0919  1.1575
  665MOL0     H89774   6.671   8.568  11.022 -1.8186 -0.8009 -1.5460
  665MOL0     H89775   6.914   8.568  11.111  2.0613  0.7311 -0.0717
  666MOL0     O89776  10.504   2.963   9.280 -0.2134  0.8498 -0.2231
  666MOL0     C89777  10.544   2.873   9.355 -0.0246  0.1090  0.2319
  666MOL0     O89778  10.462   2.790   9.428 -0.4842  0.7879  0.4509
  666MOL0     C89779  10.326   2.781   9.428 -0.7426  0.1077 -0.4277
  666MOL0     C89780  10.259   2.663   9.440  0.7937 -1.0919 -0.4528
  666MOL0     C89781  10.115   2.660   9.453 -0.7065  0.0800  0.1114
  666MOL0     C89782  10.044   2.782   9.454 -0.2701  0.3653 -0.5970
  666MOL0     O89783   9.911   2.774   9.470  0.5142 -0.8105 -0.2897
  666MOL0     C89784   9.821   2.884   9.479 -0.3840 -1.2081  0.6509
  666MOL0     C89785   9.677   2.849   9.503 -0.1357  0.4428 -0.6866
  666MOL0     C89786   9.584   2.966   9.490 -0.2615 -0.2498  0.4675
  666MOL0     C89787   9.539   2.988   9.342 -0.6863  0.1791  1.0565
  666MOL0     C89788   9.438   3.096   9.327 -0.0232 -0.6287  0.4563
  666MOL0     C89789   9.294   3.056   9.387 -0.5140 -0.2595 -0.3182
  666MOL0     C89790   9.196   3.169   9.401  0.3085  0.3585 -0.0511
  666MOL0     C89791   9.107   3.189   9.287  0.4285 -0.3318  0.6250
  666MOL0     N89792   9.014   3.073   9.265 -0.0406 -0.6639 -0.2293
  666MOL0     C89793   9.003   3.004   9.141 -0.2969  0.6439  0.3670
  666MOL0     C89794   8.917   2.904   9.174  0.3150  0.2487  0.3092
  666MOL0     C89795   8.865   2.804   9.070  0.2445 -0.2350  0.3969
  666MOL0     C89796   8.720   2.827   9.025  0.3367 -0.5219  0.2506
  666MOL0     C89797   8.619   2.788   9.132  0.3196 -0.5517  0.0783
  666MOL0     C89798   8.484   2.850   9.123 -0.0993  0.0435 -0.4864
  666MOL0     O89799   8.437   2.829   8.986  0.0068 -0.3737 -0.2952
  666MOL0     C89800   8.309   2.868   8.964  0.3250  0.3024  0.1188
  666MOL0     C89801   8.220   2.943   9.044  0.8085 -0.1349  0.0389
  666MOL0     C89802   8.092   2.974   9.004 -0.6672  0.4440 -0.0163
  666MOL0     C89803   8.011   3.058   9.102 -0.5788  0.2798 -0.4875
  666MOL0     C89804   8.050   2.934   8.873  0.1650  0.8777  0.4431
  666MOL0     C89805   7.919   2.976   8.802  0.5137 -0.3768  0.3502
  666MOL0     O89806   7.893   2.936   8.673 -0.4364 -0.0819 -0.5414
  666MOL0     C89807   7.772   2.956   8.611 -0.4463 -0.5028  0.5129
  666MOL0     C89808   7.661   3.020   8.655  0.0884 -0.0155 -1.1067
  666MOL0     C89809   7.545   3.031   8.571  0.6805  0.1710 -0.9189
  666MOL0     C89810   7.531   2.964   8.448  0.6443 -0.5627  0.5673
  666MOL0     O89811   7.406   2.960   8.391  1.7278  0.1650 -0.4216
  666MOL0     C89812   7.330   3.081   8.392  0.1066  0.0775 -1.0204
  666MOL0     C89813   7.238   3.103   8.275 -0.7353  0.2538  0.4270
  666MOL0     C89814   7.116   3.013   8.291 -0.4749 -0.4521  0.6344
  666MOL0     C89815   7.022   3.044   8.172  0.1833 -0.3869 -0.2399
  666MOL0     C89816   6.931   3.172   8.207 -0.6654  0.5049 -0.2288
  666MOL0     C89817   6.817   3.177   8.106 -0.6439 -0.2645  0.4431
  666MOL0     C89818   6.727   3.301   8.126  0.4411 -0.4692 -0.1656
  666MOL0     C89819   6.658   3.312   8.264  0.2878 -0.1143  0.4149
  666MOL0    Cl89820   6.577   3.149   8.298 -0.3693  0.5574  0.4496
  666MOL0     C89821   7.648   2.886   8.407  0.3587 -0.3958 -0.6627
  666MOL0     C89822   7.766   2.900   8.478 -0.3833  0.2252  0.7315
  666MOL0     O89823   7.858   3.061   8.863 -0.5668  0.1269 -0.1449
  666MOL0     C89824   8.129   2.851   8.796 -0.0336 -0.4875 -0.1059
  666MOL0     C89825   8.261   2.825   8.839  0.4549  0.0990 -0.2533
  666MOL0     N89826   8.884   2.906   9.307  0.0789 -0.1556  0.2538
  666MOL0     N89827   8.954   3.000   9.367 -0.1974 -0.2202  0.8067
  666MOL0     C89828  10.118   2.902   9.437  0.9279  0.5958 -0.5993
  666MOL0     C89829  10.255   2.897   9.419 -0.7243 -0.0296 -0.7630
  666MOL0     C89830  10.688   2.864   9.380  0.2325  0.1272  0.4970
  666MOL0     C89831  10.738   2.794   9.490  0.8540  0.4116 -0.3789
  666MOL0     C89832  10.874   2.773   9.502 -1.0851  0.1391  0.1655
  666MOL0     C89833  10.963   2.834   9.414  0.4776  0.6929  0.0173
  666MOL0     O89834  11.103   2.819   9.417  0.0639 -0.1870  0.8582
  666MOL0     C89835  11.171   2.744   9.525  0.4071 -0.8884  0.0096
  666MOL0     C89836  11.212   2.831   9.647 -0.5058 -0.0860 -0.7738
  666MOL0     C89837  11.259   2.730   9.758  0.6985  0.0801 -0.0877
  666MOL0     C89838  11.272   2.800   9.894 -0.0673  0.5831 -0.5967
  666MOL0     C89839  11.369   2.908   9.894 -0.4221 -0.2176 -0.3900
  666MOL0     C89840  11.449   2.998   9.895 -0.2854  0.3790  0.3342
  666MOL0     C89841  10.913   2.913   9.306  0.0770 -0.2500 -0.5061
  666MOL0     C89842  10.774   2.926   9.293 -0.3459  0.8323 -0.3651
  666MOL0     H89843  10.310   2.567   9.444  0.8029 -1.0552  0.3760
  666MOL0     H89844  10.073   2.560   9.450  0.1974 -0.3023 -0.5411
  666MOL0     H89845   9.858   2.956   9.553 -0.7130  0.6377 -0.8944
  666MOL0     H89846   9.834   2.932   9.382 -2.0515 -2.8717 -0.4613
  666MOL0     H89847   9.649   2.771   9.431  2.9767 -0.1982 -1.3466
  666MOL0     H89848   9.663   2.814   9.605 -0.6211  1.2229 -0.4766
  666MOL0     H89849   9.488   2.948   9.538 -0.7906 -0.5605 -0.6773
  666MOL0     H89850   9.628   3.057   9.533 -0.7350 -1.1090  2.9173
  666MOL0     H89851   9.624   3.009   9.276  0.0764  0.8597  2.2259
  666MOL0     H89852   9.503   2.891   9.307  0.2453  0.9630 -2.4196
  666MOL0     H89853   9.486   3.173   9.388  3.1011 -2.6019  0.7199
  666MOL0     H89854   9.427   3.125   9.222 -3.1685 -2.5356  0.1170
  666MOL0     H89855   9.261   2.972   9.325 -0.2914 -0.1657 -0.5676
  666MOL0     H89856   9.303   3.013   9.487 -3.7300 -0.5154 -0.0316
  666MOL0     H89857   9.140   3.136   9.489 -1.3493 -0.7186 -1.4483
  666MOL0     H89858   9.244   3.266   9.411 -1.3663  1.9000 -4.5562
  666MOL0     H89859   9.166   3.201   9.196 -2.4181  1.0500 -1.2005
  666MOL0     H89860   9.045   3.279   9.285 -0.2895 -0.5823 -5.5235
  666MOL0     H89861   9.053   3.017   9.046  1.2277  0.6515  1.1553
  666MOL0     H89862   8.929   2.790   8.983  1.0962  0.6354  0.8679
  666MOL0     H89863   8.849   2.706   9.116 -1.0585  0.4278  1.4570
  666MOL0     H89864   8.711   2.758   8.941  0.9677 -1.6082  1.0481
  666MOL0     H89865   8.697   2.931   8.998  0.8130 -0.3345  0.5463
  666MOL0     H89866   8.653   2.815   9.233  1.9054  1.5952 -0.9490
  666MOL0     H89867   8.608   2.680   9.142 -0.2411 -0.4310  0.8945
  666MOL0     H89868   8.488   2.952   9.163  1.8760 -0.5478  0.9703
  666MOL0     H89869   8.417   2.802   9.196  1.0846 -0.2992  0.4121
  666MOL0     H89870   8.254   2.983   9.139  2.5420 -0.6021 -0.3399
  666MOL0     H89871   7.905   3.031   9.104 -0.7061  0.7922  0.4733
  666MOL0     H89872   8.058   3.065   9.201  2.6692  0.9197 -1.9810
  666MOL0     H89873   8.018   3.163   9.074  2.7033  0.2561 -0.1220
  666MOL0     H89874   7.654   3.061   8.755 -0.7378  1.0176 -1.5649
  666MOL0     H89875   7.464   3.084   8.619  1.6537  0.3885  0.5339
  666MOL0     H89876   7.266   3.087   8.481  1.4145  3.2602 -0.1613
  666MOL0     H89877   7.393   3.170   8.385  0.4092  0.0002  0.4354
  666MOL0     H89878   7.191   3.200   8.291 -0.0155  0.5089  1.0149
  666MOL0     H89879   7.285   3.096   8.177 -1.3044  0.2450  0.1450
  666MOL0     H89880   7.066   3.024   8.387 -1.4864 -0.0692  0.0868
  666MOL0     H89881   7.149   2.910   8.285  0.1287 -0.2736  0.8944
  666MOL0     H89882   7.068   3.046   8.073  1.4804  1.4393  0.3513
  666MOL0     H89883   6.948   2.965   8.159  0.7807 -1.0316  0.2616
  666MOL0     H89884   6.989   3.263   8.191  1.8454 -1.1587 -1.2133
  666MOL0     H89885   6.885   3.176   8.306  0.6415  0.8250  0.3977
  666MOL0     H89886   6.860   3.189   8.005  1.9222 -3.0599  1.0418
  666MOL0     H89887   6.770   3.079   8.100 -2.0448  0.4043 -0.0510
  666MOL0     H89888   6.645   3.289   8.055  0.1340 -0.3949  0.1744
  666MOL0     H89889   6.778   3.398   8.125  1.0844 -0.7898  0.3031
  666MOL0     H89890   6.577   3.385   8.271  0.9361  0.5982  0.7271
  666MOL0     H89891   6.731   3.337   8.342  0.2835 -1.2876  0.8184
  666MOL0     H89892   7.645   2.829   8.315  0.9436  3.1481 -3.0808
  666MOL0     H89893   7.850   2.855   8.426 -0.5412  1.9062 -1.0631
  666MOL0     H89894   8.110   2.825   8.693 -2.1690  2.2876 -0.5013
  666MOL0     H89895   8.328   2.775   8.770 -2.2069 -2.3682 -1.2854
  666MOL0     H89896  10.064   2.996   9.447  0.5419  0.2334  0.9835
  666MOL0     H89897  10.303   2.992   9.398 -1.7105  0.9708  1.1882
  666MOL0     H89898  10.660   2.751   9.553 -0.2098  2.6459 -0.0752
  666MOL0     H89899  10.907   2.711   9.585  0.5834  1.1459  0.3034
  666MOL0     H89900  11.106   2.664   9.563 -1.4922  0.8586  0.6008
  666MOL0     H89901  11.255   2.690   9.480  1.2376  0.6391 -0.3267
  666MOL0     H89902  11.136   2.896   9.691 -0.4644 -0.0573 -0.7454
  666MOL0     H89903  11.290   2.899   9.612  1.4685 -1.1230  1.3481
  666MOL0     H89904  11.360   2.696   9.734  1.6751  0.2436  3.3098
  666MOL0     H89905  11.200   2.641   9.778 -1.7517  1.6706  0.1635
  666MOL0     H89906  11.307   2.728   9.968  0.1026  2.6467  1.4307
  666MOL0     H89907  11.174   2.841   9.922 -0.1826  1.3550 -2.0181
  666MOL0     H89908  11.515   3.082   9.894 -0.8658  0.8838  1.7944
  666MOL0     H89909  10.986   2.954   9.239  0.8197  1.3320  1.1844
  666MOL0     H89910  10.734   2.988   9.214  0.2113 -0.9518 -2.1183
  667MOL0     O89911   7.552  10.834   9.301  0.0140  0.8819  0.1686
  667MOL0     C89912   7.578  10.717   9.298 -0.0113 -0.6767 -0.6632
  667MOL0     O89913   7.486  10.613   9.280  0.3798 -0.2864 -0.1818
  667MOL0     C89914   7.355  10.652   9.281 -0.7032 -1.1128  0.3377
  667MOL0     C89915   7.286  10.658   9.160  0.3369  0.3192  0.1902
  667MOL0     C89916   7.155  10.706   9.147 -0.5169 -0.1959 -0.2885
  667MOL0     C89917   7.096  10.762   9.255  0.1417 -0.4612 -0.6888
  667MOL0     O89918   6.978  10.828   9.258 -0.0427 -0.5446 -0.3561
  667MOL0     C89919   6.947  10.910   9.152  1.1087  0.2729  0.3346
  667MOL0     C89920   6.787  10.922   9.141 -0.4431  1.0618 -0.1273
  667MOL0     C89921   6.718  11.021   9.234 -0.6062  1.1103  0.6996
  667MOL0     C89922   6.734  10.993   9.388 -0.1028  0.4040  0.1811
  667MOL0     C89923   6.619  11.064   9.457 -0.9218 -0.0361 -0.2288
  667MOL0     C89924   6.493  10.987   9.443 -0.1351  0.1699  0.0808
  667MOL0     C89925   6.375  11.082   9.447  0.3328 -0.4517  0.3443
  667MOL0     C89926   6.338  11.143   9.581 -0.5025  0.9973  0.6721
  667MOL0     N89927   6.221  11.223   9.569  0.6187  0.2900  0.2010
  667MOL0     C89928   6.209  11.352   9.528  0.3081 -0.1689  0.4664
  667MOL0     C89929   6.073  11.366   9.513  0.0987 -0.0808 -0.1236
  667MOL0     C89930   6.004  11.493   9.496 -0.0281 -0.6154 -0.0406
  667MOL0     C89931   5.962  11.501   9.352  0.0054 -0.4694  1.7928
  667MOL0     C89932   5.906  11.641   9.334 -0.2209 -0.3969  0.0942
  667MOL0     C89933   5.832  11.673   9.203 -0.1966 -0.3915 -0.5983
  667MOL0     O89934   5.713  11.600   9.213 -0.2667  0.4212  1.1416
  667MOL0     C89935   5.630  11.622   9.104  0.6231 -0.2658 -0.2647
  667MOL0     C89936   5.643  11.725   9.006 -0.5695 -0.8424 -0.0246
  667MOL0     C89937   5.564  11.732   8.889 -0.8944  0.7670 -0.0183
  667MOL0     C89938   5.598  11.842   8.797  0.2842  0.7090  0.6130
  667MOL0     C89939   5.463  11.636   8.870  0.3992 -0.2695  0.7201
  667MOL0     C89940   5.366  11.630   8.754 -0.1191 -0.4354  0.0397
  667MOL0     O89941   5.238  11.576   8.764  0.6408  0.5474 -0.7439
  667MOL0     C89942   5.154  11.578   8.655  0.0515 -0.1097  0.4450
  667MOL0     C89943   5.022  11.633   8.671 -0.4702  0.1512  0.0455
  667MOL0     C89944   4.924  11.626   8.573  0.6637  0.1278 -0.3399
  667MOL0     C89945   4.945  11.562   8.456 -0.1260 -0.7949  0.1068
  667MOL0     O89946   4.846  11.569   8.366  0.0327  0.1239  0.8120
  667MOL0     C89947   4.810  11.450   8.301 -0.0177  0.5413 -0.4665
  667MOL0     C89948   4.670  11.485   8.232  0.1539  0.4427  0.5555
  667MOL0     C89949   4.598  11.364   8.174  0.3437 -0.3004  0.5389
  667MOL0     C89950   4.474  11.400   8.091 -0.9400  0.5631  0.2028
  667MOL0     C89951   4.385  11.281   8.066  0.5360  0.3581  0.3219
  667MOL0     C89952   4.260  11.326   7.977  0.5771  0.4398 -0.4250
  667MOL0     C89953   4.187  11.451   8.028 -0.1391 -0.1804  0.4174
  667MOL0     C89954   4.066  11.467   7.937  1.2509 -0.3101 -0.1831
  667MOL0    Cl89955   4.101  11.482   7.764 -0.1306 -0.0400 -0.2838
  667MOL0     C89956   5.076  11.505   8.433  0.7494  0.7007 -0.6696
  667MOL0     C89957   5.177  11.509   8.539  0.5792 -0.6513  1.3115
  667MOL0     O89958   5.418  11.659   8.645  0.6743 -0.3063 -0.1157
  667MOL0     C89959   5.449  11.532   8.967 -0.2324 -0.0179  0.8418
  667MOL0     C89960   5.529  11.529   9.079  1.2445 -0.6720 -0.7509
  667MOL0     N89961   6.010  11.246   9.524 -0.4743 -0.3058  0.0447
  667MOL0     N89962   6.102  11.170   9.567  0.4162  0.5053  0.4362
  667MOL0     C89963   7.156  10.755   9.390 -0.0413 -0.6035 -0.5469
  667MOL0     C89964   7.288  10.705   9.401  0.5686 -0.2176  0.9955
  667MOL0     C89965   7.714  10.677   9.318 -1.1255 -0.1131 -0.3350
  667MOL0     C89966   7.821  10.767   9.322 -0.4731 -0.2494 -0.3761
  667MOL0     C89967   7.957  10.731   9.339 -0.1629 -0.0927 -0.0937
  667MOL0     C89968   7.990  10.598   9.366  1.1412  0.4218  0.0161
  667MOL0     O89969   8.121  10.546   9.370  0.7033  0.3346 -0.3045
  667MOL0     C89970   8.220  10.633   9.324 -0.9291  0.2164  0.3736
  667MOL0     C89971   8.222  10.662   9.171 -0.2233 -0.1506  0.0557
  667MOL0     C89972   8.352  10.727   9.117 -0.4252  0.4655 -0.4492
  667MOL0     C89973   8.357  10.709   8.960 -0.7918  0.2404 -0.3094
  667MOL0     C89974   8.253  10.774   8.890  0.3982  0.5298 -0.1347
  667MOL0     C89975   8.149  10.812   8.834 -0.1607  0.2317  0.1959
  667MOL0     C89976   7.885  10.511   9.376  0.3376  0.5783 -0.0572
  667MOL0     C89977   7.754  10.545   9.360 -0.1454  0.7564  0.5555
  667MOL0     H89978   7.344  10.613   9.080  0.9401 -3.3277  2.4327
  667MOL0     H89979   7.098  10.681   9.059  0.7307  0.7643 -1.4000
  667MOL0     H89980   6.993  11.009   9.147 -0.3727  0.9376 -0.9494
  667MOL0     H89981   6.975  10.858   9.060  2.8581  0.0829  0.9359
  667MOL0     H89982   6.760  10.946   9.038 -0.7809  0.2310 -0.2348
  667MOL0     H89983   6.745  10.822   9.157  1.9613 -0.3303 -1.9267
  667MOL0     H89984   6.752  11.123   9.215 -1.9822  1.6984  1.2463
  667MOL0     H89985   6.613  11.011   9.206 -0.6436  0.6508  0.9899
  667MOL0     H89986   6.714  10.886   9.399  0.4011 -0.0667 -2.5353
  667MOL0     H89987   6.833  11.029   9.417  0.6762 -0.9972 -0.6091
  667MOL0     H89988   6.654  11.079   9.560  4.2147  0.8963 -1.7964
  667MOL0     H89989   6.600  11.159   9.407 -1.0599 -0.0181 -0.1393
  667MOL0     H89990   6.490  10.928   9.351 -0.1665  2.9159 -1.7758
  667MOL0     H89991   6.484  10.914   9.524 -2.4244 -0.0091 -0.2679
  667MOL0     H89992   6.395  11.163   9.377  0.2565 -1.5964 -1.0393
  667MOL0     H89993   6.285  11.035   9.407  1.0661 -0.4968 -1.3245
  667MOL0     H89994   6.421  11.203   9.619 -0.1258 -0.9018  3.0877
  667MOL0     H89995   6.312  11.055   9.641 -0.5356  0.1111 -0.5816
  667MOL0     H89996   6.288  11.423   9.506 -2.2314  2.7068 -0.1972
  667MOL0     H89997   5.918  11.494   9.563 -0.6807 -0.9541 -0.8576
  667MOL0     H89998   6.070  11.580   9.506 -1.5076  1.0625 -3.2393
  667MOL0     H89999   5.887  11.424   9.333 -1.4698  1.7461 -2.6826
  667MOL0     H90000   6.049  11.491   9.288 -0.5287 -0.4659  1.0494
  667MOL0     H90001   5.991  11.709   9.341  0.4509 -1.2320  0.1687
  667MOL0     H90002   5.849  11.666   9.424  2.8136 -1.9799  2.6500
  667MOL0     H90003   5.880  11.650   9.108 -1.3672 -0.5629 -1.1608
  667MOL0     H90004   5.800  11.777   9.205 -1.5469 -0.7878  0.3667
  667MOL0     H90005   5.711  11.808   9.020 -3.3267  1.3742  1.0476
  667MOL0     H90006   5.515  11.911   8.783  1.2014  1.5443 -0.9452
  667MOL0     H90007   5.677  11.904   8.840  1.1444 -0.0697  0.1859
  667MOL0     H90008   5.632  11.801   8.701 -2.6984  0.5188 -0.4648
  667MOL0     H90009   5.003  11.688   8.762  1.2864 -0.5514  0.8821
  667MOL0     H90010   4.835  11.684   8.592  1.3156  1.6094 -1.6400
  667MOL0     H90011   4.879  11.421   8.221 -0.9447  1.7447 -1.7468
  667MOL0     H90012   4.802  11.365   8.370  0.3192  0.3474 -0.6626
  667MOL0     H90013   4.615  11.536   8.312  1.7522  2.2118  0.5677
  667MOL0     H90014   4.678  11.554   8.148  0.2181 -0.7308 -0.4225
  667MOL0     H90015   4.565  11.294   8.252 -1.5527 -1.6744 -1.3633
  667MOL0     H90016   4.670  11.312   8.110 -1.1961 -0.3588 -1.2361
  667MOL0     H90017   4.424  11.483   8.142 -0.7956 -0.2403  1.6721
  667MOL0     H90018   4.508  11.446   7.998 -2.6135  1.0855 -0.1940
  667MOL0     H90019   4.339  11.239   8.156 -2.4795 -0.4097 -1.4418
  667MOL0     H90020   4.441  11.207   8.008 -1.0833 -0.9366  0.3302
  667MOL0     H90021   4.304  11.345   7.879  1.5889  2.0220  0.2881
  667MOL0     H90022   4.190  11.242   7.974  0.9521 -0.1629  3.1929
  667MOL0     H90023   4.240  11.546   8.026 -0.0176 -0.2424 -1.9292
  667MOL0     H90024   4.166  11.430   8.133  0.6534  0.8909  0.8028
  667MOL0     H90025   4.013  11.559   7.962 -1.0060 -1.0328 -1.9654
  667MOL0     H90026   3.995  11.385   7.947 -1.0603  1.3053 -2.1768
  667MOL0     H90027   5.100  11.433   8.356  0.2725 -0.6683  0.4309
  667MOL0     H90028   5.272  11.456   8.530 -0.4107 -2.1522 -2.2742
  667MOL0     H90029   5.368  11.461   8.960 -1.3284  0.9177  3.0612
  667MOL0     H90030   5.513  11.455   9.157  0.5347  0.0014 -0.2389
  667MOL0     H90031   7.094  10.793   9.471  1.6198 -1.7315  1.3175
  667MOL0     H90032   7.340  10.675   9.491  3.7154 -1.0418 -0.9491
  667MOL0     H90033   7.811  10.873   9.301  0.8221  0.1637  0.9156
  667MOL0     H90034   8.035  10.807   9.337  1.1768 -1.4056  0.1521
  667MOL0     H90035   8.228  10.722   9.388 -2.4252 -0.9942  2.3281
  667MOL0     H90036   8.318  10.588   9.343 -1.4887 -0.4308  1.7718
  667MOL0     H90037   8.134  10.722   9.146 -0.2785 -0.2815 -0.0636
  667MOL0     H90038   8.210  10.567   9.119 -1.0248  1.2297 -2.4529
  667MOL0     H90039   8.437  10.683   9.169 -1.0533  1.5843  1.6750
  667MOL0     H90040   8.361  10.835   9.133  3.1311  0.4474 -1.6694
  667MOL0     H90041   8.354  10.604   8.927  0.6875  0.4645 -1.2912
  667MOL0     H90042   8.453  10.746   8.920 -0.8225  0.5308 -0.1160
  667MOL0     H90043   8.062  10.853   8.786  1.2214  2.5592 -0.4806
  667MOL0     H90044   7.904  10.407   9.402  1.7872  0.8845  0.2357
  667MOL0     H90045   7.682  10.472   9.395  0.3861  0.1329  0.3738
  668MOL0     O90046   9.126   6.593   1.062  0.3657 -0.3621 -0.2380
  668MOL0     C90047   9.154   6.712   1.075 -1.0762  0.5392 -0.5929
  668MOL0     O90048   9.071   6.819   1.036 -0.4482 -0.1678 -0.1103
  668MOL0     C90049   8.968   6.804   0.950 -0.4786 -0.0640 -0.7478
  668MOL0     C90050   8.848   6.754   0.991  0.1510  0.2565  0.1962
  668MOL0     C90051   8.741   6.738   0.895 -0.3872  0.2651  0.3511
  668MOL0     C90052   8.754   6.796   0.765  0.6336  1.0087 -0.1400
  668MOL0     O90053   8.644   6.784   0.690  0.1463  0.2540 -0.2227
  668MOL0     C90054   8.622   6.883   0.586 -1.2082 -0.5374 -0.0544
  668MOL0     C90055   8.480   6.878   0.521  0.9982  0.3274  0.3380
  668MOL0     C90056   8.374   6.922   0.620  0.0147  0.0302  0.4162
  668MOL0     C90057   8.259   6.981   0.542 -0.1574 -1.1317 -0.0733
  668MOL0     C90058   8.121   6.959   0.611  0.0922  0.2546 -0.2655
  668MOL0     C90059   8.092   7.047   0.732 -0.0183 -0.4136  0.0229
  668MOL0     C90060   7.948   7.051   0.771 -0.1883  0.5629  0.6831
  668MOL0     C90061   7.925   7.147   0.894 -0.3956  1.1124 -0.5750
  668MOL0     N90062   7.787   7.137   0.947 -1.0708 -0.3573 -0.5982
  668MOL0     C90063   7.720   7.020   0.981 -0.3715 -0.1579  0.0977
  668MOL0     C90064   7.603   7.057   1.027 -0.1084  0.4014  0.2930
  668MOL0     C90065   7.496   6.958   1.068  0.1921  0.4355 -0.6238
  668MOL0     C90066   7.368   7.017   1.120  1.1437 -0.1140  0.4797
  668MOL0     C90067   7.249   6.989   1.019 -0.1302 -0.3207  0.0051
  668MOL0     C90068   7.109   7.030   1.066 -0.2163 -0.1454 -0.8937
  668MOL0     O90069   7.106   7.172   1.099 -0.4404  0.0380 -0.6115
  668MOL0     C90070   6.976   7.221   1.105  0.4636 -0.4792  0.0649
  668MOL0     C90071   6.863   7.140   1.098 -0.1472 -0.2782 -0.6748
  668MOL0     C90072   6.728   7.203   1.109 -0.3976 -0.0884 -0.7238
  668MOL0     C90073   6.604   7.103   1.100 -0.3269 -0.8859  1.4880
  668MOL0     C90074   6.709   7.344   1.129 -0.2377 -0.4726 -0.0554
  668MOL0     C90075   6.575   7.407   1.157  0.3364  1.0415  1.0919
  668MOL0     O90076   6.464   7.321   1.167  0.0188  0.1656  0.0016
  668MOL0     C90077   6.336   7.367   1.179  0.2145  0.3440  0.4740
  668MOL0     C90078   6.283   7.459   1.094  0.0943 -0.2960 -0.3947
  668MOL0     C90079   6.145   7.491   1.089 -0.3478  0.3931  0.2074
  668MOL0     C90080   6.062   7.431   1.186 -1.1057  0.2073 -0.7702
  668MOL0     O90081   5.933   7.482   1.181 -0.5248  0.3123  0.3233
  668MOL0     C90082   5.851   7.424   1.283 -0.2631  0.2727 -0.1909
  668MOL0     C90083   5.712   7.487   1.258 -0.3615 -0.7551 -0.3755
  668MOL0     C90084   5.608   7.430   1.346 -0.3187 -0.2548 -0.2367
  668MOL0     C90085   5.560   7.300   1.282 -0.2701 -0.3290 -0.1670
  668MOL0     C90086   5.438   7.253   1.369 -0.3635 -0.2133  0.6146
  668MOL0     C90087   5.398   7.110   1.340  0.0020  0.8947  0.5629
  668MOL0     C90088   5.356   7.098   1.193  0.4750 -0.5752 -0.9670
  668MOL0     C90089   5.261   6.974   1.169 -0.7690 -0.2585 -0.1123
  668MOL0    Cl90090   5.347   6.815   1.206  0.0385 -0.1585 -0.5602
  668MOL0     C90091   6.115   7.337   1.281 -0.1235  0.0977  0.1262
  668MOL0     C90092   6.252   7.304   1.268 -0.0677  0.4177 -0.1329
  668MOL0     O90093   6.580   7.526   1.185 -0.1278  0.3011  0.1433
  668MOL0     C90094   6.828   7.425   1.125 -0.3192  0.1408  0.1588
  668MOL0     C90095   6.956   7.367   1.112  1.2800  0.6630  0.2683
  668MOL0     N90096   7.584   7.195   1.008  0.3178  0.2263 -0.3312
  668MOL0     N90097   7.699   7.241   0.969 -1.2628  0.3224 -0.1216
  668MOL0     C90098   8.873   6.863   0.734  0.4244  0.6119  0.1909
  668MOL0     C90099   8.981   6.864   0.830 -0.2752  0.4732 -0.3482
  668MOL0     C90100   9.298   6.752   1.102 -0.1534  0.3339 -0.5870
  668MOL0     C90101   9.405   6.677   1.063  0.2454 -0.2641 -0.0374
  668MOL0     C90102   9.539   6.718   1.070  0.2093  0.9609 -0.1001
  668MOL0     C90103   9.568   6.829   1.141 -0.2574  0.2237  0.2455
  668MOL0     O90104   9.701   6.879   1.168  0.5952  0.8265 -0.0637
  668MOL0     C90105   9.814   6.818   1.098  0.2755 -0.1687 -0.5709
  668MOL0     C90106   9.939   6.855   1.178  0.0691 -0.0619  0.7959
  668MOL0     C90107   9.961   6.747   1.282  0.0404  0.7286  0.1716
  668MOL0     C90108  10.065   6.800   1.380 -0.6876 -0.4383  1.1285
  668MOL0     C90109  10.091   6.703   1.481 -0.1186 -0.4654  0.5857
  668MOL0     C90110  10.121   6.607   1.556  0.0390 -0.2736 -0.0168
  668MOL0     C90111   9.459   6.905   1.182 -0.0629  0.1016  0.1511
  668MOL0     C90112   9.331   6.878   1.156  0.0014 -0.2307  0.3589
  668MOL0     H90113   8.830   6.726   1.094 -1.5983  1.1194  0.1549
  668MOL0     H90114   8.643   6.700   0.921 -0.5949 -0.9032 -1.8448
  668MOL0     H90115   8.646   6.984   0.620  0.4061 -0.2591 -1.8836
  668MOL0     H90116   8.682   6.866   0.496 -0.4686  0.9720  0.1133
  668MOL0     H90117   8.493   6.955   0.444  2.5495 -5.0640 -5.6514
  668MOL0     H90118   8.446   6.784   0.476  1.0973  0.7445 -0.6336
  668MOL0     H90119   8.343   6.836   0.681 -0.4621 -0.4859 -0.5318
  668MOL0     H90120   8.406   7.000   0.690  1.4048 -2.6074  2.9487
  668MOL0     H90121   8.271   7.089   0.527 -1.4096 -0.6085  2.2512
  668MOL0     H90122   8.255   6.935   0.443  2.1677  1.5697 -1.5773
  668MOL0     H90123   8.035   6.969   0.544  0.5779 -1.0388 -1.1238
  668MOL0     H90124   8.106   6.855   0.641  3.2093 -0.6079 -1.3038
  668MOL0     H90125   8.157   7.020   0.816 -2.3092 -2.8493  1.1968
  668MOL0     H90126   8.124   7.146   0.699  0.5109 -0.7342 -0.4450
  668MOL0     H90127   7.890   7.073   0.680 -1.2595  0.1226  1.2403
  668MOL0     H90128   7.923   6.946   0.791 -0.8748  0.9708  2.1556
  668MOL0     H90129   7.959   7.245   0.860 -0.6447  2.0333  1.6677
  668MOL0     H90130   7.983   7.113   0.980 -3.2432 -0.9173  0.7014
  668MOL0     H90131   7.762   6.920   0.982  1.9074  0.7302 -0.5888
  668MOL0     H90132   7.481   6.906   0.973 -1.5995 -0.5352  0.1511
  668MOL0     H90133   7.537   6.890   1.143  3.3836  3.8266  1.0743
  668MOL0     H90134   7.385   7.124   1.139 -1.1858  0.3567  0.1353
  668MOL0     H90135   7.350   6.969   1.216  1.0020 -1.8132 -0.3720
  668MOL0     H90136   7.248   6.882   0.995  0.5774 -0.4722  0.6100
  668MOL0     H90137   7.272   7.039   0.925 -0.3229 -0.1525  0.0477
  668MOL0     H90138   7.078   6.974   1.155  0.8300  0.5358 -0.0774
  668MOL0     H90139   7.047   7.001   0.981 -1.9058  1.4150 -0.2405
  668MOL0     H90140   6.867   7.032   1.108 -0.2916 -0.1124  2.4575
  668MOL0     H90141   6.655   7.006   1.093 -1.1757 -1.2359 -0.9786
  668MOL0     H90142   6.548   7.109   1.194  1.3553 -2.4240  2.6648
  668MOL0     H90143   6.540   7.112   1.012  0.4799 -3.2433  0.5893
  668MOL0     H90144   6.342   7.510   1.019  0.8908 -0.2743  0.2306
  668MOL0     H90145   6.119   7.577   1.028 -0.1782  2.6645  3.1251
  668MOL0     H90146   5.854   7.316   1.267  0.6903 -0.0910  2.0711
  668MOL0     H90147   5.888   7.438   1.385  0.8689  0.8860 -0.6640
  668MOL0     H90148   5.725   7.592   1.285 -1.5433 -0.6428 -0.1845
  668MOL0     H90149   5.685   7.481   1.152  0.5254 -0.4149 -0.6311
  668MOL0     H90150   5.526   7.503   1.346  1.1786  1.6201 -2.9322
  668MOL0     H90151   5.653   7.413   1.444 -2.0155  0.2156  0.6582
  668MOL0     H90152   5.526   7.316   1.180  0.3728  1.1347 -0.1744
  668MOL0     H90153   5.647   7.234   1.288  0.8246  1.1256  0.5968
  668MOL0     H90154   5.347   7.313   1.360  0.0324  0.5806  1.6703
  668MOL0     H90155   5.474   7.250   1.473  0.6774 -1.8738  0.2603
  668MOL0     H90156   5.486   7.050   1.364 -1.7434 -1.0504  2.6105
  668MOL0     H90157   5.316   7.083   1.407  0.8042 -1.2737  0.7659
  668MOL0     H90158   5.438   7.080   1.122 -1.1837 -1.4945 -2.7325
  668MOL0     H90159   5.299   7.189   1.173 -0.5670 -1.5714 -2.7251
  668MOL0     H90160   5.227   6.977   1.066  0.3470  0.8923 -0.4768
  668MOL0     H90161   5.172   6.988   1.233  0.6385 -0.4359  1.9929
  668MOL0     H90162   6.062   7.286   1.361 -3.0916  1.6667 -0.7003
  668MOL0     H90163   6.284   7.219   1.326 -1.7974 -0.9717 -1.1200
  668MOL0     H90164   6.832   7.533   1.129  3.2415  0.1066  3.1905
  668MOL0     H90165   7.044   7.429   1.120  1.0019  1.2144 -0.7683
  668MOL0     H90166   8.879   6.902   0.632 -0.7070  0.6865  0.1391
  668MOL0     H90167   9.070   6.912   0.791 -0.5620 -0.9107 -2.9764
  668MOL0     H90168   9.377   6.582   1.019  0.2734 -0.1233 -0.3599
  668MOL0     H90169   9.611   6.664   1.010 -2.8249 -0.8000 -2.4342
  668MOL0     H90170   9.797   6.712   1.075 -3.2421  0.0364  0.5284
  668MOL0     H90171   9.824   6.872   1.003  2.6200 -2.3584 -1.6998
  668MOL0     H90172   9.942   6.956   1.220  1.0452  0.0596  0.4551
  668MOL0     H90173  10.024   6.837   1.111 -1.7052  0.2391 -1.6916
  668MOL0     H90174  10.003   6.660   1.231 -1.3592  0.3196 -0.3212
  668MOL0     H90175   9.868   6.719   1.333 -1.4776  0.1976 -2.7204
  668MOL0     H90176  10.042   6.901   1.416 -1.8607  0.3755 -1.6355
  668MOL0     H90177  10.157   6.821   1.325 -0.0260  0.8917  2.6757
  668MOL0     H90178  10.161   6.528   1.616 -0.6885 -1.5909 -1.1828
  668MOL0     H90179   9.468   7.009   1.212 -0.1916  0.9056 -2.3642
  668MOL0     H90180   9.261   6.959   1.176 -0.8539 -0.9038  0.1578
  669MOL0     O90181   3.669   2.965   7.882 -0.5584  0.2530  0.4828
  669MOL0     C90182   3.649   3.024   7.782 -0.0092  0.4608  0.2217
  669MOL0     O90183   3.531   3.087   7.747 -0.1021  0.4084 -0.0257
  669MOL0     C90184   3.436   3.117   7.846 -0.5520  0.0675  0.0793
  669MOL0     C90185   3.299   3.115   7.803  0.5557 -0.6135  0.1526
  669MOL0     C90186   3.200   3.174   7.889 -0.6695  0.1805  0.5739
  669MOL0     C90187   3.235   3.215   8.013 -0.0137  0.3147  0.7100
  669MOL0     O90188   3.137   3.263   8.091  0.8263  0.5114 -0.0769
  669MOL0     C90189   3.114   3.202   8.217  0.3276  0.4668 -0.4212
  669MOL0     C90190   2.968   3.172   8.235 -0.6564 -0.4709  0.0866
  669MOL0     C90191   2.937   3.103   8.361 -0.9341 -0.0334 -0.1600
  669MOL0     C90192   2.913   3.201   8.481 -1.0203 -0.0679  0.7398
  669MOL0     C90193   2.866   3.138   8.617  0.8567  0.7248 -0.2865
  669MOL0     C90194   2.720   3.186   8.643 -0.6049 -0.5203  0.0948
  669MOL0     C90195   2.674   3.121   8.777  0.0914 -0.1077 -0.0314
  669MOL0     C90196   2.517   3.130   8.786  1.1133 -0.2772 -0.3851
  669MOL0     N90197   2.483   3.079   8.921  0.1915 -0.1246  0.8576
  669MOL0     C90198   2.396   2.975   8.954 -0.7349  0.3742  0.4011
  669MOL0     C90199   2.371   2.988   9.087 -0.4467 -0.0575  0.4499
  669MOL0     C90200   2.279   2.903   9.170 -0.6728  0.7962 -0.1382
  669MOL0     C90201   2.133   2.907   9.104 -0.1743 -0.1835  0.7437
  669MOL0     C90202   2.024   2.835   9.175 -0.5269  0.2426 -0.9876
  669MOL0     C90203   1.897   2.810   9.094  0.5478  0.2933  0.1332
  669MOL0     O90204   1.784   2.804   9.183  0.1535  1.1220  0.4555
  669MOL0     C90205   1.663   2.794   9.117  0.1403  0.7394 -0.2164
  669MOL0     C90206   1.584   2.685   9.143  1.0955 -1.3026 -0.8402
  669MOL0     C90207   1.462   2.653   9.079  1.0007  0.6338 -0.5609
  669MOL0     C90208   1.377   2.533   9.122 -0.6642  0.2804 -0.3601
  669MOL0     C90209   1.424   2.741   8.966  0.1827  0.2926 -0.1057
  669MOL0     C90210   1.302   2.723   8.873  0.4640  0.1608  0.1882
  669MOL0     O90211   1.256   2.840   8.811  0.5010 -0.0143  0.0429
  669MOL0     C90212   1.142   2.850   8.739  0.9772  1.2349  0.2651
  669MOL0     C90213   1.032   2.768   8.762  0.2638 -0.0460 -0.3935
  669MOL0     C90214   0.910   2.786   8.697 -0.4568 -0.3187 -1.0603
  669MOL0     C90215   0.899   2.886   8.589 -0.9280  0.8957  0.4781
  669MOL0     O90216   0.789   2.926   8.518 -0.7163  0.7322 -0.0424
  669MOL0     C90217   0.662   2.864   8.559 -0.4652  0.3710  0.9569
  669MOL0     C90218   0.550   2.900   8.464  0.0963  0.8922  0.0584
  669MOL0     C90219   0.433   2.795   8.475 -0.0013  0.6008 -0.8875
  669MOL0     C90220   0.353   2.803   8.345 -0.5175 -0.5162 -0.1678
  669MOL0     C90221   0.228   2.723   8.340  0.0306 -0.7992 -0.1776
  669MOL0     C90222   0.156   2.709   8.215  0.5037  0.3737  0.2900
  669MOL0     C90223   0.029   2.618   8.243  0.7930 -0.0078 -0.4799
  669MOL0     C90224  -0.063   2.602   8.115 -0.3582  0.2155  0.5344
  669MOL0    Cl90225  -0.007   2.450   8.034  0.3478  0.0538  0.4985
  669MOL0     C90226   1.015   2.953   8.560 -0.5071 -0.0995 -0.6731
  669MOL0     C90227   1.134   2.942   8.638 -0.5225  0.1407  0.3457
  669MOL0     O90228   1.252   2.609   8.871 -0.0955 -0.0522 -0.4084
  669MOL0     C90229   1.501   2.858   8.947 -0.3355  0.2946 -1.1290
  669MOL0     C90230   1.610   2.883   9.025 -0.7708 -0.4337 -0.0313
  669MOL0     N90231   2.445   3.099   9.132 -0.3406 -0.0022  0.0060
  669MOL0     N90232   2.504   3.153   9.032 -0.6878  0.4056  0.1321
  669MOL0     C90233   3.371   3.228   8.054  0.6719  0.3287 -0.2256
  669MOL0     C90234   3.464   3.178   7.968  0.2315  0.4933  0.2975
  669MOL0     C90235   3.751   3.013   7.675  0.1082 -0.1692 -0.6183
  669MOL0     C90236   3.710   3.072   7.547 -0.4269  1.0348  0.0546
  669MOL0     C90237   3.796   3.047   7.440 -1.5275  0.3449  0.0789
  669MOL0     C90238   3.918   2.986   7.456  0.6742  0.5730  0.2167
  669MOL0     O90239   3.996   2.984   7.349 -0.1310  0.2472  0.6794
  669MOL0     C90240   4.128   2.919   7.352  0.1080 -0.0409  1.0414
  669MOL0     C90241   4.217   2.986   7.243  0.1933  0.1027  0.4202
  669MOL0     C90242   4.257   3.122   7.290 -0.0822  0.5253  0.1813
  669MOL0     C90243   4.365   3.165   7.197 -0.2307  0.2519  0.1422
  669MOL0     C90244   4.398   3.304   7.228 -0.1751 -0.7582  0.2453
  669MOL0     C90245   4.410   3.424   7.258  0.3457 -0.6664 -0.3617
  669MOL0     C90246   3.954   2.938   7.579 -0.0201 -0.1634 -0.4915
  669MOL0     C90247   3.870   2.946   7.693 -0.0096 -0.6449 -0.6862
  669MOL0     H90248   3.273   3.074   7.707 -3.4559 -0.6943  1.1018
  669MOL0     H90249   3.101   3.172   7.845  0.4873  1.1210 -2.3195
  669MOL0     H90250   3.163   3.104   8.219 -3.6960 -1.8025 -0.4689
  669MOL0     H90251   3.153   3.267   8.295 -1.0462  0.7008  0.1066
  669MOL0     H90252   2.916   3.268   8.229  0.9181  0.4029 -0.1436
  669MOL0     H90253   2.944   3.103   8.153 -1.3582 -0.5309  0.3405
  669MOL0     H90254   2.848   3.044   8.337  0.6759 -2.4625 -0.5387
  669MOL0     H90255   3.019   3.035   8.387  0.0742  0.1716 -2.6021
  669MOL0     H90256   3.011   3.246   8.497 -0.5640 -0.2715 -1.3082
  669MOL0     H90257   2.855   3.288   8.450  2.5657  2.7887  1.3637
  669MOL0     H90258   2.874   3.029   8.620  3.6616  0.8685  1.4179
  669MOL0     H90259   2.929   3.176   8.698  1.1872  1.6751 -0.9640
  669MOL0     H90260   2.720   3.295   8.644 -1.6885 -0.4607  2.7103
  669MOL0     H90261   2.669   3.145   8.556 -1.2549 -0.2546  0.3439
  669MOL0     H90262   2.707   3.017   8.786 -0.3436 -0.3088 -0.7223
  669MOL0     H90263   2.711   3.168   8.869 -1.2436 -3.2870  2.3150
  669MOL0     H90264   2.476   3.071   8.703  4.4013  0.4250 -2.7009
  669MOL0     H90265   2.478   3.233   8.786 -0.4834 -0.8456 -0.9184
  669MOL0     H90266   2.351   2.912   8.878  0.0620  0.4891 -0.1832
  669MOL0     H90267   2.306   2.797   9.175 -2.6513  0.3008  0.8472
  669MOL0     H90268   2.266   2.939   9.272  0.9138  0.1990  0.3180
  669MOL0     H90269   2.140   2.860   9.005 -0.3526  0.4929  0.3973
  669MOL0     H90270   2.110   3.012   9.085  2.2318  0.5295  1.3812
  669MOL0     H90271   2.000   2.894   9.264 -0.1883  0.7755 -1.2431
  669MOL0     H90272   2.060   2.733   9.191 -0.2409  0.5158  0.1594
  669MOL0     H90273   1.912   2.715   9.043 -0.4692  1.0886 -1.7237
  669MOL0     H90274   1.884   2.889   9.020  0.2575 -0.7831 -0.9931
  669MOL0     H90275   1.597   2.624   9.232 -1.2873  0.6499  1.0272
  669MOL0     H90276   1.424   2.490   9.211  0.2815 -1.6264 -1.7270
  669MOL0     H90277   1.275   2.571   9.135 -1.2743 -1.6985  1.0899
  669MOL0     H90278   1.377   2.461   9.040  1.9115  0.3317 -0.4836
  669MOL0     H90279   1.029   2.696   8.842  0.0743  0.3287 -0.0602
  669MOL0     H90280   0.822   2.737   8.736 -0.3636  0.6666  0.4575
  669MOL0     H90281   0.687   2.758   8.550  3.8694  1.2663 -0.5281
  669MOL0     H90282   0.641   2.885   8.664 -1.8840 -4.5370  1.9059
  669MOL0     H90283   0.523   3.002   8.493  0.1473  0.7234  0.7113
  669MOL0     H90284   0.598   2.913   8.367  1.3337  0.9463  0.6557
  669MOL0     H90285   0.370   2.820   8.561 -0.5092 -1.5067 -0.5965
  669MOL0     H90286   0.474   2.696   8.496  1.8760  1.7190  1.1721
  669MOL0     H90287   0.338   2.909   8.319  1.5372 -0.3541 -0.8795
  669MOL0     H90288   0.430   2.779   8.271 -0.1146 -0.7923  0.3306
  669MOL0     H90289   0.161   2.761   8.417  1.9169 -0.1099  1.2079
  669MOL0     H90290   0.267   2.623   8.362  1.0718 -0.2230  0.6918
  669MOL0     H90291   0.135   2.806   8.167  0.8920  1.3385  1.9712
  669MOL0     H90292   0.218   2.649   8.148 -1.5904 -1.7077  0.1215
  669MOL0     H90293  -0.026   2.662   8.327  3.2715  3.8414 -0.6613
  669MOL0     H90294   0.039   2.513   8.274 -1.7424 -0.9149 -2.3500
  669MOL0     H90295  -0.050   2.684   8.044  2.0506 -1.0045 -0.5139
  669MOL0     H90296  -0.169   2.597   8.144 -1.4956  2.1632 -2.7981
  669MOL0     H90297   1.027   3.024   8.479  1.6390  0.6332  0.2318
  669MOL0     H90298   1.228   2.996   8.630  0.7289 -1.9445  0.2242
  669MOL0     H90299   1.471   2.912   8.858  2.4305 -1.4830 -3.3445
  669MOL0     H90300   1.663   2.973   8.993  0.8573 -1.9563 -1.8654
  669MOL0     H90301   3.402   3.269   8.149 -0.5387  1.1301 -0.1397
  669MOL0     H90302   3.568   3.185   7.996  1.3401  0.7637 -3.3720
  669MOL0     H90303   3.619   3.130   7.538 -1.0881  0.0236  0.0580
  669MOL0     H90304   3.759   3.081   7.344 -1.8568  0.1153  0.1224
  669MOL0     H90305   4.177   2.927   7.449 -2.3892  0.9285  2.3024
  669MOL0     H90306   4.122   2.812   7.330  2.0236 -0.3036  1.6044
  669MOL0     H90307   4.162   2.989   7.149  1.4007 -1.3187 -0.3789
  669MOL0     H90308   4.313   2.936   7.224  0.8264  1.9527 -1.5566
  669MOL0     H90309   4.294   3.099   7.391  0.1693  0.3872  0.0566
  669MOL0     H90310   4.174   3.192   7.301  0.2629  0.8644  0.6469
  669MOL0     H90311   4.320   3.165   7.097  1.3719  0.3959 -0.6101
  669MOL0     H90312   4.451   3.098   7.187 -1.2553 -1.0620 -0.1339
  669MOL0     H90313   4.419   3.524   7.297 -0.4684  0.5961 -3.1738
  669MOL0     H90314   4.052   2.892   7.592  0.0209  0.1455  0.3542
  669MOL0     H90315   3.896   2.899   7.787 -0.2570 -0.7672 -0.6779
  670MOL0     O90316   2.663   5.979  10.044 -0.4315  0.0146 -0.2864
  670MOL0     C90317   2.683   5.889  10.129 -0.1107 -0.9053 -0.3546
  670MOL0     O90318   2.588   5.830  10.215  0.2583  0.9727 -0.2102
  670MOL0     C90319   2.462   5.889  10.219  0.8439  0.0139 -0.5833
  670MOL0     C90320   2.384   5.896  10.099  0.1920 -0.8923  0.1900
  670MOL0     C90321   2.259   5.950  10.093  0.4489 -0.0919  0.6447
  670MOL0     C90322   2.203   6.006  10.210  0.7437 -0.6318  0.4055
  670MOL0     O90323   2.084   6.074  10.198  0.3003 -0.5507  0.8983
  670MOL0     C90324   2.013   6.096  10.316  0.4304  0.1011  0.1216
  670MOL0     C90325   1.876   6.147  10.278  0.8065 -0.4025  0.4886
  670MOL0     C90326   1.801   6.159  10.408 -0.6049  0.9857 -0.8103
  670MOL0     C90327   1.644   6.174  10.384  0.0725 -0.2773 -0.0968
  670MOL0     C90328   1.565   6.208  10.510  0.1293 -1.0652 -0.1301
  670MOL0     C90329   1.434   6.277  10.475 -0.6962  0.1346  0.1290
  670MOL0     C90330   1.357   6.328  10.596  0.2567 -0.5239  0.2382
  670MOL0     C90331   1.306   6.213  10.694 -0.0320 -0.7059 -0.2569
  670MOL0     N90332   1.263   6.093  10.637 -0.1380 -0.0899 -0.6623
  670MOL0     C90333   1.167   6.076  10.536  0.4731  0.0977 -0.9694
  670MOL0     C90334   1.164   5.947  10.514 -0.1255 -0.1570  0.6102
  670MOL0     C90335   1.076   5.865  10.420 -1.0431 -0.2938  0.2209
  670MOL0     C90336   1.040   5.931  10.287  0.0736  0.8291  0.3537
  670MOL0     C90337   0.977   5.823  10.194  0.1913 -0.6336 -0.5196
  670MOL0     C90338   0.923   5.886  10.065 -0.4449  0.1846  0.0576
  670MOL0     O90339   1.033   5.956   9.995 -0.2925  0.0906 -0.4654
  670MOL0     C90340   1.000   6.022   9.876  0.3463  0.4871 -0.0604
  670MOL0     C90341   1.074   6.134   9.837  0.5756  0.2491 -0.0561
  670MOL0     C90342   1.048   6.211   9.723  0.8220  0.1007  0.6673
  670MOL0     C90343   1.115   6.346   9.701  0.2359  0.5282  0.6415
  670MOL0     C90344   0.951   6.163   9.630 -1.7232 -0.4968  0.5393
  670MOL0     C90345   0.921   6.227   9.508 -0.2775  0.2985 -0.4810
  670MOL0     O90346   1.026   6.265   9.421  0.1631 -0.3564 -0.0979
  670MOL0     C90347   1.010   6.351   9.313 -0.4046  0.0615  0.3724
  670MOL0     C90348   1.066   6.328   9.190 -0.0347 -0.8121  0.1553
  670MOL0     C90349   1.054   6.421   9.080 -0.2200  0.0819  0.6411
  670MOL0     C90350   0.984   6.536   9.108 -0.1035  0.2385 -0.3352
  670MOL0     O90351   0.982   6.626   9.003  0.7978  0.2338 -0.0332
  670MOL0     C90352   0.853   6.689   8.976  0.0446 -0.7849 -0.2464
  670MOL0     C90353   0.752   6.588   8.921 -0.1175 -0.3094  0.2644
  670MOL0     C90354   0.609   6.637   8.870  0.1521 -0.1908 -0.0740
  670MOL0     C90355   0.518   6.531   8.810  0.9945  1.0618  0.2122
  670MOL0     C90356   0.382   6.585   8.778 -1.0164  0.2603  0.6346
  670MOL0     C90357   0.289   6.485   8.730 -0.2239 -0.7717 -0.1528
  670MOL0     C90358   0.146   6.544   8.713  0.8066  0.4832  0.5167
  670MOL0     C90359   0.067   6.455   8.624  0.5064 -0.4186  0.1376
  670MOL0    Cl90360  -0.091   6.541   8.615  0.0918 -0.4003  0.4608
  670MOL0     C90361   0.934   6.562   9.233  0.3985  0.5049 -0.5106
  670MOL0     C90362   0.952   6.470   9.333 -0.1602 -0.1650 -0.4786
  670MOL0     O90363   0.796   6.253   9.493 -0.3230  0.1331  0.3716
  670MOL0     C90364   0.872   6.051   9.670 -0.1649 -0.0557  0.7306
  670MOL0     C90365   0.894   5.977   9.790 -0.7422 -0.7556  0.0387
  670MOL0     N90366   1.258   5.886  10.598  0.4003 -0.9385  0.9272
  670MOL0     N90367   1.317   5.971  10.669 -0.8617 -0.7488 -0.5914
  670MOL0     C90368   2.275   6.002  10.329 -0.6369  0.8695 -0.2703
  670MOL0     C90369   2.404   5.940  10.341  0.5859  0.2896  0.1634
  670MOL0     C90370   2.822   5.835  10.122 -0.3271 -0.2166 -0.3032
  670MOL0     C90371   2.908   5.879  10.010 -0.7477  0.5623  0.3733
  670MOL0     C90372   3.040   5.834  10.011 -0.2580 -0.3115 -0.1785
  670MOL0     C90373   3.093   5.758  10.124  0.3459  0.6062 -0.0429
  670MOL0     O90374   3.227   5.728  10.119  0.3109 -0.5994 -0.1909
  670MOL0     C90375   3.283   5.617  10.179  0.8450 -0.5026 -0.2311
  670MOL0     C90376   3.432   5.604  10.139  0.2237 -0.0060 -0.4201
  670MOL0     C90377   3.486   5.471  10.191  0.6143  0.6428 -0.7981
  670MOL0     C90378   3.436   5.347  10.109  0.1625 -0.3158  0.0259
  670MOL0     C90379   3.521   5.334   9.992  0.9478  0.9171 -0.3965
  670MOL0     C90380   3.595   5.325   9.892 -0.4505 -0.5717 -1.0757
  670MOL0     C90381   3.011   5.731  10.233  1.4585  0.5528 -0.7012
  670MOL0     C90382   2.877   5.765  10.232 -0.2531 -0.0051 -0.6409
  670MOL0     H90383   2.428   5.859  10.007 -1.8518 -0.5047 -1.0039
  670MOL0     H90384   2.199   5.940  10.004 -1.3324 -1.2367  1.9014
  670MOL0     H90385   2.005   5.998  10.365 -4.0641 -1.4245 -2.9665
  670MOL0     H90386   2.049   6.170  10.388 -2.0523  0.6102  0.9396
  670MOL0     H90387   1.874   6.239  10.219  1.5424  0.0179  1.0854
  670MOL0     H90388   1.826   6.068  10.223 -2.5247  1.6136  0.3373
  670MOL0     H90389   1.809   6.068  10.470  1.8247  1.6614 -0.0304
  670MOL0     H90390   1.844   6.247  10.455  1.8348  0.9419 -2.7826
  670MOL0     H90391   1.631   6.252  10.309 -1.6706 -0.5362 -0.1022
  670MOL0     H90392   1.607   6.077  10.349 -1.1953 -0.0955  0.6678
  670MOL0     H90393   1.538   6.117  10.565  0.0994 -0.1959  1.3339
  670MOL0     H90394   1.627   6.266  10.579 -0.2518  1.3513 -1.6916
  670MOL0     H90395   1.466   6.356  10.407 -1.3896 -0.2009 -0.6064
  670MOL0     H90396   1.367   6.217  10.412 -1.0177  2.1534 -1.5843
  670MOL0     H90397   1.409   6.405  10.654 -3.2758  0.3332  2.5908
  670MOL0     H90398   1.267   6.384  10.567 -0.2989 -1.2447  0.5303
  670MOL0     H90399   1.220   6.251  10.750 -0.6311 -0.4109 -1.3617
  670MOL0     H90400   1.380   6.193  10.772  0.5618  1.3145 -0.2317
  670MOL0     H90401   1.117   6.156  10.482  1.5868  3.0979  2.1016
  670MOL0     H90402   1.136   5.776  10.399 -0.0073  0.1244  1.2781
  670MOL0     H90403   0.991   5.836  10.483 -0.3079  0.0557  1.3931
  670MOL0     H90404   1.121   5.987  10.239  0.0600 -1.6609 -2.9281
  670MOL0     H90405   0.959   6.003  10.302 -2.0442 -1.3240 -0.0130
  670MOL0     H90406   0.895   5.774  10.246 -1.2871  1.1276 -1.0710
  670MOL0     H90407   1.060   5.760  10.161  0.9158 -0.3627  0.7393
  670MOL0     H90408   0.837   5.951  10.083  0.4910  2.0925 -1.8613
  670MOL0     H90409   0.894   5.801  10.003  3.3283 -1.8413  0.7874
  670MOL0     H90410   1.150   6.170   9.906 -0.2640  2.0976 -0.0236
  670MOL0     H90411   1.170   6.364   9.794 -1.1519  0.3377  1.5270
  670MOL0     H90412   1.179   6.347   9.612 -3.5373 -0.4630 -2.3528
  670MOL0     H90413   1.037   6.422   9.688 -1.2042 -1.0408 -0.3804
  670MOL0     H90414   1.122   6.236   9.184  1.4586  0.0171  0.8360
  670MOL0     H90415   1.104   6.409   8.984 -0.3737  1.3292  0.3939
  670MOL0     H90416   0.819   6.744   9.064  3.3295  0.5050  0.3683
  670MOL0     H90417   0.875   6.765   8.900 -0.5341  0.4177  0.7592
  670MOL0     H90418   0.794   6.525   8.842 -0.8132  1.3599 -1.5298
  670MOL0     H90419   0.736   6.525   9.009  2.5018 -0.8643  0.4262
  670MOL0     H90420   0.616   6.719   8.799  0.3033  0.6547  0.8911
  670MOL0     H90421   0.552   6.673   8.957  0.7325  0.9096 -0.1395
  670MOL0     H90422   0.570   6.485   8.724  1.6715  0.5554  0.8774
  670MOL0     H90423   0.518   6.445   8.878  2.1998  0.0819 -0.9456
  670MOL0     H90424   0.384   6.665   8.703 -3.1710 -0.4652 -0.2952
  670MOL0     H90425   0.346   6.634   8.869  0.5314  3.9343 -0.5563
  670MOL0     H90426   0.316   6.454   8.629 -1.1587 -0.7533 -0.4176
  670MOL0     H90427   0.298   6.397   8.794  3.2822  1.2263  2.4922
  670MOL0     H90428   0.151   6.643   8.667  0.6570  1.5270  2.5974
  670MOL0     H90429   0.087   6.561   8.804 -0.2129  1.2099 -0.2605
  670MOL0     H90430   0.069   6.354   8.667  1.1060  0.8227  3.2375
  670MOL0     H90431   0.121   6.437   8.530  2.6722 -0.7879  1.3912
  670MOL0     H90432   0.888   6.658   9.255  0.1951  0.8326 -2.2130
  670MOL0     H90433   0.918   6.490   9.434  2.4132  0.1178  0.4132
  670MOL0     H90434   0.781   6.021   9.618  0.8827 -1.8368 -0.1964
  670MOL0     H90435   0.822   5.897   9.804 -1.6720  0.3939  2.1993
  670MOL0     H90436   2.222   6.041  10.415 -0.6029  0.2400  0.0479
  670MOL0     H90437   2.457   5.942  10.436  0.4097  1.2727  0.2536
  670MOL0     H90438   2.874   5.947   9.933  1.4427  0.6235 -0.5976
  670MOL0     H90439   3.107   5.869   9.933 -0.2573 -1.8404 -0.9162
  670MOL0     H90440   3.273   5.626  10.288  3.0772  0.2058 -0.0259
  670MOL0     H90441   3.220   5.536  10.141  0.3287 -0.3727  0.3342
  670MOL0     H90442   3.492   5.685  10.183  0.1459  0.1262 -0.5545
  670MOL0     H90443   3.445   5.605  10.030 -2.0329 -0.6089 -0.7490
  670MOL0     H90444   3.460   5.456  10.296  1.2884  2.8431 -0.2631
  670MOL0     H90445   3.595   5.474  10.187  1.1610 -2.9238  3.4498
  670MOL0     H90446   3.328   5.350  10.099  0.1146 -1.7106 -0.0782
  670MOL0     H90447   3.457   5.262  10.175  3.5604  0.8391  0.6606
  670MOL0     H90448   3.666   5.321   9.812  0.7322  2.6300 -0.3444
  670MOL0     H90449   3.038   5.676  10.323 -1.3817 -1.4089 -0.9173
  670MOL0     H90450   2.808   5.732  10.308 -1.5201  0.6225 -1.4727
  671MOL0     O90451   2.032   3.751   5.616 -0.9534  1.1519  0.0607
  671MOL0     C90452   2.104   3.824   5.684 -0.1600 -0.8685  0.2871
  671MOL0     O90453   2.065   3.893   5.784 -0.2098  0.5734 -0.1767
  671MOL0     C90454   1.937   3.914   5.817  0.0076 -0.3231 -0.0904
  671MOL0     C90455   1.900   3.874   5.944 -0.1346 -0.5912  0.2617
  671MOL0     C90456   1.769   3.887   5.983  1.1515  0.1101 -0.2857
  671MOL0     C90457   1.670   3.932   5.896  0.9504  0.5649  0.2427
  671MOL0     O90458   1.546   3.938   5.956 -0.0003  0.1109 -0.1256
  671MOL0     C90459   1.448   4.009   5.875 -0.8123  0.2700  0.1505
  671MOL0     C90460   1.316   4.013   5.944  1.3180  0.0806 -0.2997
  671MOL0     C90461   1.199   4.069   5.853  0.0893  0.8138  0.1106
  671MOL0     C90462   1.090   4.130   5.933 -0.2265 -0.1130  0.2349
  671MOL0     C90463   0.996   4.197   5.835  0.1027 -0.3458 -1.2407
  671MOL0     C90464   0.890   4.277   5.917 -0.2459 -0.1782 -0.3442
  671MOL0     C90465   0.801   4.379   5.831  0.4020 -0.4101 -0.0052
  671MOL0     C90466   0.729   4.485   5.917 -0.2905 -0.2495  0.9797
  671MOL0     N90467   0.603   4.519   5.849  0.3097  0.0511 -0.1403
  671MOL0     C90468   0.480   4.499   5.896 -0.3899  0.4861  0.6436
  671MOL0     C90469   0.394   4.560   5.812 -0.7587 -0.6979  0.1416
  671MOL0     C90470   0.244   4.570   5.815  0.3190  0.8360 -0.6733
  671MOL0     C90471   0.166   4.500   5.698  0.4642 -0.3541 -0.3035
  671MOL0     C90472   0.021   4.541   5.694 -0.0270 -0.1219 -0.0284
  671MOL0     C90473  -0.047   4.510   5.568  1.3021  0.0212  0.5556
  671MOL0     O90474  -0.187   4.534   5.561  0.0544 -0.2401  0.1309
  671MOL0     C90475  -0.274   4.450   5.627  0.7371 -0.0548  0.1740
  671MOL0     C90476  -0.237   4.323   5.673  0.3815 -0.6392  0.4873
  671MOL0     C90477  -0.327   4.244   5.733 -0.3050  0.5695 -0.4068
  671MOL0     C90478  -0.279   4.109   5.781 -0.6315 -0.1448  0.3962
  671MOL0     C90479  -0.468   4.285   5.736 -1.2550 -0.4215  0.2119
  671MOL0     C90480  -0.571   4.192   5.785 -0.1720  0.9878  0.2697
  671MOL0     O90481  -0.695   4.217   5.735 -0.4486  0.0181  0.2593
  671MOL0     C90482  -0.810   4.166   5.793 -0.0480  0.8690 -0.1136
  671MOL0     C90483  -0.825   4.034   5.832  0.3000 -0.6468 -0.0197
  671MOL0     C90484  -0.951   3.984   5.875  0.2638  0.0633  0.2657
  671MOL0     C90485  -1.063   4.059   5.880  0.5470 -0.1670  1.2686
  671MOL0     O90486  -1.187   4.015   5.916  0.3100  0.4638  0.4338
  671MOL0     C90487  -1.243   3.915   5.833  0.9086  0.6691 -0.2842
  671MOL0     C90488  -1.242   3.769   5.890 -0.8128 -0.9845  0.3403
  671MOL0     C90489  -1.323   3.760   6.019  0.2628  0.1124 -0.4618
  671MOL0     C90490  -1.309   3.615   6.070 -0.3507 -0.3377 -0.4127
  671MOL0     C90491  -1.412   3.581   6.171  0.3033 -1.0264  0.0474
  671MOL0     C90492  -1.391   3.443   6.225 -0.4724 -0.6266  0.2949
  671MOL0     C90493  -1.511   3.401   6.314 -0.8543 -0.3027  1.0295
  671MOL0     C90494  -1.487   3.264   6.369  0.8358  0.6084  0.3367
  671MOL0    Cl90495  -1.615   3.193   6.481 -0.5432 -0.3299  0.2590
  671MOL0     C90496  -1.046   4.193   5.842  0.1493 -0.3677  0.1439
  671MOL0     C90497  -0.922   4.247   5.803 -0.3993 -0.4110  0.2799
  671MOL0     O90498  -0.545   4.115   5.877  0.4213  0.7222  0.3098
  671MOL0     C90499  -0.506   4.409   5.678 -0.0229 -1.1444 -0.2730
  671MOL0     C90500  -0.410   4.495   5.623 -0.1538  0.5477 -0.6882
  671MOL0     N90501   0.465   4.614   5.705 -0.0152 -0.3764  0.3686
  671MOL0     N90502   0.598   4.592   5.734  0.7685  0.9394  0.6394
  671MOL0     C90503   1.701   3.965   5.768  0.1681 -0.3210  0.1708
  671MOL0     C90504   1.838   3.956   5.728  0.0823 -0.1416 -0.2824
  671MOL0     C90505   2.257   3.828   5.682  0.6961 -0.1094  1.0179
  671MOL0     C90506   2.332   3.913   5.770 -0.4150  0.3464  0.3624
  671MOL0     C90507   2.470   3.913   5.741  1.1743 -0.6109 -0.1655
  671MOL0     C90508   2.534   3.835   5.649 -0.2097  0.1903  0.0825
  671MOL0     O90509   2.672   3.846   5.630  0.3748  0.2325  0.2669
  671MOL0     C90510   2.721   3.893   5.504  0.4102 -0.4020  0.4508
  671MOL0     C90511   2.873   3.897   5.529 -0.7325  0.1455 -0.3221
  671MOL0     C90512   2.948   3.774   5.579  0.2664 -0.7767 -0.5814
  671MOL0     C90513   3.091   3.782   5.550 -0.4684 -0.3027  0.0280
  671MOL0     C90514   3.149   3.658   5.588  0.8038  0.2196 -0.0865
  671MOL0     C90515   3.193   3.547   5.609  0.6218 -0.1752 -0.7139
  671MOL0     C90516   2.457   3.747   5.569  0.2226 -0.4726 -0.7344
  671MOL0     C90517   2.322   3.740   5.592  1.0923 -0.4278 -0.5352
  671MOL0     H90518   1.959   3.818   6.016 -1.4620  0.0375  1.9241
  671MOL0     H90519   1.731   3.871   6.083 -1.6071 -1.5984 -1.4933
  671MOL0     H90520   1.476   4.110   5.841  3.9372 -0.6198  0.7529
  671MOL0     H90521   1.418   3.948   5.789 -0.6955  0.4603 -0.0266
  671MOL0     H90522   1.297   3.916   5.992  1.5015  0.7680  1.2308
  671MOL0     H90523   1.323   4.071   6.037 -2.2792 -0.9991  0.8202
  671MOL0     H90524   1.253   4.144   5.794  1.3601 -0.2792 -0.1640
  671MOL0     H90525   1.172   3.992   5.781 -0.1475 -1.0668  2.1040
  671MOL0     H90526   1.037   4.053   5.990  1.4766 -0.0549  1.9809
  671MOL0     H90527   1.138   4.201   6.000  0.3765 -0.2020 -0.0968
  671MOL0     H90528   1.057   4.267   5.776 -0.9205  0.3523 -1.4952
  671MOL0     H90529   0.937   4.132   5.770 -2.7681  0.6570  0.2104
  671MOL0     H90530   0.830   4.202   5.970  2.8435 -1.9637  0.8979
  671MOL0     H90531   0.937   4.330   6.000 -0.0860  1.0918 -1.2239
  671MOL0     H90532   0.863   4.440   5.764 -0.1307 -0.4280 -0.5235
  671MOL0     H90533   0.724   4.330   5.771 -2.9719  3.5794  0.6301
  671MOL0     H90534   0.789   4.576   5.924  0.3568 -0.7983  3.2643
  671MOL0     H90535   0.705   4.451   6.018 -1.1692  1.9646  1.5743
  671MOL0     H90536   0.455   4.452   5.990  2.2631  2.2952  2.3808
  671MOL0     H90537   0.203   4.521   5.904  1.4861  1.2731  0.1300
  671MOL0     H90538   0.214   4.675   5.820 -0.6613  0.5168  0.8611
  671MOL0     H90539   0.155   4.393   5.719 -3.0667 -0.4001 -1.7018
  671MOL0     H90540   0.220   4.527   5.607  1.5070  4.6974  1.4906
  671MOL0     H90541   0.015   4.649   5.710  1.4536  0.4812 -2.8582
  671MOL0     H90542  -0.034   4.489   5.772 -0.6675 -0.7295 -0.8671
  671MOL0     H90543  -0.033   4.408   5.532 -3.2571 -0.6963  0.2720
  671MOL0     H90544  -0.007   4.576   5.490  0.2558 -0.1928 -0.1832
  671MOL0     H90545  -0.137   4.284   5.655 -1.0165 -3.2741 -2.7710
  671MOL0     H90546  -0.188   4.091   5.724  0.7403  1.8622  1.8109
  671MOL0     H90547  -0.257   4.113   5.888  0.9586 -1.4287  0.1563
  671MOL0     H90548  -0.343   4.026   5.750  1.8555 -1.8843 -0.3222
  671MOL0     H90549  -0.750   3.961   5.807  0.4997 -0.3791 -0.2016
  671MOL0     H90550  -0.962   3.880   5.905  0.7975 -0.6412 -1.8155
  671MOL0     H90551  -1.347   3.942   5.813  0.0740 -0.6050  1.9649
  671MOL0     H90552  -1.191   3.903   5.738 -0.5940 -1.8873 -0.8774
  671MOL0     H90553  -1.275   3.693   5.819 -2.9598 -0.8294  1.0867
  671MOL0     H90554  -1.136   3.746   5.902  0.3074  2.9504 -0.4140
  671MOL0     H90555  -1.426   3.783   5.992 -0.1122 -1.8202 -0.8861
  671MOL0     H90556  -1.282   3.835   6.087  1.0545  0.4152 -1.2431
  671MOL0     H90557  -1.315   3.545   5.986  1.6572 -1.8594  0.6086
  671MOL0     H90558  -1.206   3.598   6.105 -0.3781  1.2937  0.5535
  671MOL0     H90559  -1.510   3.590   6.122 -0.5809  1.8641  2.0657
  671MOL0     H90560  -1.401   3.661   6.245  1.1896  0.3621 -1.5429
  671MOL0     H90561  -1.372   3.365   6.151 -0.6926 -0.0928 -0.3306
  671MOL0     H90562  -1.300   3.445   6.285 -1.2660  3.6845  1.7482
  671MOL0     H90563  -1.606   3.409   6.261  0.7050  2.1998 -1.6638
  671MOL0     H90564  -1.507   3.461   6.406  1.8834 -1.4669  1.7908
  671MOL0     H90565  -1.388   3.273   6.415  3.4778  0.2835 -4.6055
  671MOL0     H90566  -1.475   3.186   6.293  2.3636 -0.1556  1.3210
  671MOL0     H90567  -1.128   4.263   5.856  1.2480  1.3653 -1.6062
  671MOL0     H90568  -0.904   4.346   5.763 -2.7266  0.2652  0.7372
  671MOL0     H90569  -0.612   4.435   5.668 -0.1073 -1.0616  0.7302
  671MOL0     H90570  -0.434   4.595   5.589 -0.9728  1.2435  1.6824
  671MOL0     H90571   1.622   3.990   5.699 -1.4615 -2.1438  1.2664
  671MOL0     H90572   1.862   3.974   5.624  0.2691  2.1864  0.1017
  671MOL0     H90573   2.286   3.985   5.837 -1.3757 -1.3348  1.5893
  671MOL0     H90574   2.539   3.986   5.782  2.5288 -2.7517  1.5763
  671MOL0     H90575   2.677   3.835   5.423 -2.2220  0.1857  1.3277
  671MOL0     H90576   2.687   3.996   5.487  2.3193  0.1679 -0.1614
  671MOL0     H90577   2.893   3.968   5.610 -1.1877 -0.0963  0.0066
  671MOL0     H90578   2.926   3.934   5.440  2.0516 -0.8587  0.7982
  671MOL0     H90579   2.914   3.682   5.530 -1.2536 -0.1319 -0.7946
  671MOL0     H90580   2.935   3.776   5.687  1.9184 -0.4247 -0.3584
  671MOL0     H90581   3.136   3.862   5.610  0.3222 -0.7367  0.0248
  671MOL0     H90582   3.113   3.799   5.444 -2.4609 -3.8994 -1.1228
  671MOL0     H90583   3.231   3.451   5.637  3.0721  1.3156  1.5638
  671MOL0     H90584   2.505   3.687   5.492 -2.1430 -1.0829 -1.8440
  671MOL0     H90585   2.259   3.670   5.538 -0.1264 -0.3259  0.6831
  672MOL0     O90586   6.087   6.620   9.994  0.0360 -0.3131 -0.0002
  672MOL0     C90587   6.120   6.505   9.956 -0.0773 -0.5839  0.0088
  672MOL0     O90588   6.033   6.402   9.938  0.4759 -0.2317 -0.8082
  672MOL0     C90589   5.902   6.428   9.967  0.5834 -0.1942 -0.4345
  672MOL0     C90590   5.826   6.517   9.904  0.3451 -0.3003  0.4738
  672MOL0     C90591   5.686   6.533   9.929  1.1521 -0.6078  0.1827
  672MOL0     C90592   5.619   6.454  10.033  0.7043 -0.4139  0.7426
  672MOL0     O90593   5.495   6.487  10.079 -0.3109 -0.8864  0.2633
  672MOL0     C90594   5.404   6.379  10.104  0.0060  0.7542 -0.2139
  672MOL0     C90595   5.263   6.439  10.118  1.1389 -0.1694 -0.0700
  672MOL0     C90596   5.154   6.335  10.101  0.5234  0.0577 -0.5681
  672MOL0     C90597   5.012   6.398  10.127  0.0187  0.1388  0.0861
  672MOL0     C90598   4.889   6.304  10.135  0.3360 -0.3507  0.4238
  672MOL0     C90599   4.877   6.231  10.265 -0.0543  1.1658  0.2292
  672MOL0     C90600   4.756   6.149  10.259 -0.4140 -0.1068 -0.0876
  672MOL0     C90601   4.630   6.224  10.221  0.1203  0.4405 -0.2126
  672MOL0     N90602   4.502   6.152  10.240 -0.6732 -0.6089 -1.4357
  672MOL0     C90603   4.420   6.125  10.139 -0.4541  0.3882  0.3234
  672MOL0     C90604   4.321   6.047  10.185 -0.4221  0.0049 -0.3030
  672MOL0     C90605   4.227   5.969  10.089  0.3240  0.1242  0.0952
  672MOL0     C90606   4.081   5.956  10.148  0.3221 -0.5036  0.0618
  672MOL0     C90607   4.004   6.092  10.141  0.1434  0.4763 -0.2165
  672MOL0     C90608   3.860   6.077  10.183  0.7044  0.1778  0.3919
  672MOL0     O90609   3.788   6.197  10.162  0.3627 -0.5998  0.0868
  672MOL0     C90610   3.659   6.207  10.206  0.4781  0.3959  0.7794
  672MOL0     C90611   3.579   6.088  10.232  0.1721 -0.1299 -0.4917
  672MOL0     C90612   3.441   6.106  10.262  0.0240 -0.5760  0.1173
  672MOL0     C90613   3.346   5.992  10.270  0.0229  0.3467 -0.6871
  672MOL0     C90614   3.381   6.234  10.285  0.9907 -0.2985  0.4136
  672MOL0     C90615   3.250   6.270  10.346 -0.8125  0.4371 -0.4091
  672MOL0     O90616   3.143   6.196  10.302 -0.3730 -0.5939 -0.3312
  672MOL0     C90617   3.015   6.219  10.352 -0.1624  0.5135  0.0888
  672MOL0     C90618   2.978   6.287  10.472 -0.8403  1.0833  0.4887
  672MOL0     C90619   2.846   6.291  10.513 -0.3233 -0.5040  0.7709
  672MOL0     C90620   2.743   6.223  10.442  0.1644 -0.6715 -0.5960
  672MOL0     O90621   2.613   6.228  10.483  0.6554 -0.1932  0.1265
  672MOL0     C90622   2.580   6.272  10.620  0.2332 -0.8309 -0.1800
  672MOL0     C90623   2.423   6.254  10.641 -0.7572  0.0174 -0.6765
  672MOL0     C90624   2.321   6.323  10.546  0.2074  0.1290  0.2409
  672MOL0     C90625   2.313   6.477  10.579 -0.4492  0.0982  0.0748
  672MOL0     C90626   2.238   6.558  10.469  0.0869 -0.0869 -0.3319
  672MOL0     C90627   2.097   6.503  10.440  0.4164 -0.5223 -1.0758
  672MOL0     C90628   2.014   6.594  10.349 -0.1005 -0.8583 -0.2731
  672MOL0     C90629   1.869   6.563  10.350 -0.4198 -0.1057 -0.6179
  672MOL0    Cl90630   1.785   6.703  10.299  0.5508 -0.0678 -0.1936
  672MOL0     C90631   2.775   6.162  10.323 -0.5114  0.7526  0.0394
  672MOL0     C90632   2.907   6.167  10.277  0.5546  0.3207 -0.0311
  672MOL0     O90633   3.240   6.363  10.428  0.5089  0.1224 -0.6969
  672MOL0     C90634   3.468   6.345  10.259  0.5019 -0.3925 -0.4058
  672MOL0     C90635   3.600   6.335  10.215 -0.3246 -0.3434  0.3532
  672MOL0     N90636   4.344   6.027  10.311  0.1470 -0.2270 -0.1619
  672MOL0     N90637   4.451   6.092  10.356 -0.3490  0.1823  1.0250
  672MOL0     C90638   5.694   6.353  10.089 -0.3387 -0.4489 -1.5406
  672MOL0     C90639   5.831   6.339  10.056 -0.7135 -0.7891 -0.2897
  672MOL0     C90640   6.263   6.480   9.935 -0.3790 -0.3242 -0.4182
  672MOL0     C90641   6.367   6.543  10.009  0.3738 -0.0463 -0.7764
  672MOL0     C90642   6.501   6.524   9.975  0.9063  0.0309 -0.2579
  672MOL0     C90643   6.540   6.434   9.867  0.4331 -0.4970  0.0230
  672MOL0     O90644   6.677   6.410   9.849  0.2579  0.1483 -0.8402
  672MOL0     C90645   6.730   6.335   9.741 -0.5308 -0.6967  0.0288
  672MOL0     C90646   6.787   6.428   9.636  0.1060 -0.3710  0.1369
  672MOL0     C90647   6.864   6.549   9.683  0.0240  0.0200  0.0256
  672MOL0     C90648   6.926   6.644   9.569 -0.0792 -1.0867 -0.3597
  672MOL0     C90649   6.975   6.764   9.629 -0.0577 -0.4973 -0.5877
  672MOL0     C90650   7.000   6.874   9.679  0.2420 -0.2940 -0.7436
  672MOL0     C90651   6.435   6.363   9.812  1.5085 -0.1408 -0.7785
  672MOL0     C90652   6.302   6.391   9.833 -0.3375 -0.4551  0.3350
  672MOL0     H90653   5.879   6.580   9.834 -0.3122  0.5020  0.6876
  672MOL0     H90654   5.635   6.600   9.860  0.1973 -2.9782 -1.5477
  672MOL0     H90655   5.411   6.308  10.021 -0.1516 -0.1394  0.5153
  672MOL0     H90656   5.439   6.328  10.194  1.7848 -0.4995 -1.5497
  672MOL0     H90657   5.249   6.481  10.218 -1.1566  1.4437 -0.9996
  672MOL0     H90658   5.242   6.520  10.047  3.5715  0.0342 -0.6623
  672MOL0     H90659   5.164   6.296   9.999  1.4305 -3.4099  0.6790
  672MOL0     H90660   5.174   6.256  10.174  0.0049  2.0336  1.8382
  672MOL0     H90661   5.014   6.445  10.226  0.5970 -0.8008  0.5318
  672MOL0     H90662   4.987   6.479  10.058 -0.3102  0.8100  0.9648
  672MOL0     H90663   4.804   6.372  10.126 -0.5804 -1.4640  0.3271
  672MOL0     H90664   4.899   6.240  10.047  1.2665  2.5709 -1.7539
  672MOL0     H90665   4.968   6.171  10.283  1.3402  2.4563 -2.0368
  672MOL0     H90666   4.876   6.301  10.349  1.4512 -0.6375  1.8598
  672MOL0     H90667   4.786   6.061  10.202  1.0351  0.4971 -0.3189
  672MOL0     H90668   4.741   6.115  10.362 -0.3608 -1.3281 -0.4682
  672MOL0     H90669   4.631   6.245  10.114  0.2142  0.9303 -0.1197
  672MOL0     H90670   4.630   6.317  10.278  0.8367  0.2173  0.1566
  672MOL0     H90671   4.439   6.161  10.038 -0.2964 -1.2880 -0.2795
  672MOL0     H90672   4.234   6.019   9.992 -1.5594 -0.5545 -0.4198
  672MOL0     H90673   4.268   5.869  10.073  1.6344  0.7217 -0.4621
  672MOL0     H90674   4.093   5.927  10.252  0.6050 -0.0031  0.1710
  672MOL0     H90675   4.038   5.873  10.091 -0.4583 -0.5312  0.6755
  672MOL0     H90676   4.005   6.125  10.037 -0.0257 -0.0504 -0.3866
  672MOL0     H90677   4.064   6.160  10.203  2.9499 -1.0657 -1.0598
  672MOL0     H90678   3.858   6.043  10.287  2.2670 -0.2142  0.3108
  672MOL0     H90679   3.812   5.993  10.133 -0.4183 -0.2169  2.0445
  672MOL0     H90680   3.618   5.988  10.246  0.9527  0.5551  3.3646
  672MOL0     H90681   3.278   6.003  10.185 -2.6074 -2.3422  0.9086
  672MOL0     H90682   3.396   5.894  10.269  0.0071  0.1130  3.6834
  672MOL0     H90683   3.282   5.987  10.358 -0.0143 -1.3086 -0.7739
  672MOL0     H90684   3.036   6.331  10.552  0.9812  1.9580 -1.2083
  672MOL0     H90685   2.827   6.340  10.608  0.5728  1.0286  0.2055
  672MOL0     H90686   2.621   6.207  10.697  1.7272  0.0760 -0.1641
  672MOL0     H90687   2.600   6.378  10.640 -2.1770 -0.4730  0.6819
  672MOL0     H90688   2.400   6.147  10.631 -1.5846  0.1284 -0.1093
  672MOL0     H90689   2.402   6.283  10.744 -0.0762 -2.7665  0.3536
  672MOL0     H90690   2.227   6.270  10.561  0.5875 -0.6562 -0.1062
  672MOL0     H90691   2.346   6.310  10.440 -3.7502 -4.6657 -0.4896
  672MOL0     H90692   2.261   6.485  10.675 -1.9194 -0.8777 -0.5903
  672MOL0     H90693   2.416   6.509  10.590 -0.5636 -0.1689  2.3153
  672MOL0     H90694   2.296   6.555  10.376  1.8182 -0.4885  0.7099
  672MOL0     H90695   2.226   6.660  10.508 -2.9233 -0.2002 -0.7331
  672MOL0     H90696   2.113   6.409  10.386 -2.4650 -1.3575 -0.6721
  672MOL0     H90697   2.044   6.498  10.536  2.1824 -2.4968 -0.1157
  672MOL0     H90698   2.041   6.582  10.244 -1.0156 -1.7641 -0.4291
  672MOL0     H90699   2.034   6.696  10.382  2.0221 -1.2161 -0.3596
  672MOL0     H90700   1.839   6.524  10.448  1.4987 -0.4652 -0.1385
  672MOL0     H90701   1.841   6.481  10.282  3.1702 -2.2600  0.2186
  672MOL0     H90702   2.705   6.105  10.262 -1.1254  0.3727  1.0713
  672MOL0     H90703   2.940   6.113  10.189 -1.4398  0.1420 -0.7274
  672MOL0     H90704   3.423   6.443  10.273 -1.8537 -1.4881  0.2231
  672MOL0     H90705   3.669   6.417  10.194  0.8312 -1.6283 -1.0914
  672MOL0     H90706   5.651   6.299  10.173  0.1956  1.7826  0.2708
  672MOL0     H90707   5.893   6.265  10.105  0.4409 -0.6733 -1.5507
  672MOL0     H90708   6.350   6.611  10.092  4.5497  1.3011 -0.8460
  672MOL0     H90709   6.582   6.569  10.031  0.3890 -0.2662  0.7550
  672MOL0     H90710   6.819   6.280   9.775  1.4016  0.5093 -2.6683
  672MOL0     H90711   6.667   6.265   9.686 -4.0173  0.2542  2.4830
  672MOL0     H90712   6.699   6.469   9.585  0.4038 -1.5864 -1.4423
  672MOL0     H90713   6.845   6.376   9.560 -0.2262  1.3049 -1.3314
  672MOL0     H90714   6.949   6.515   9.743  0.4813 -1.2205 -1.2698
  672MOL0     H90715   6.796   6.605   9.748  1.8644  1.4192  0.8559
  672MOL0     H90716   6.852   6.669   9.492 -0.1577 -0.1159  0.0180
  672MOL0     H90717   7.004   6.583   9.524 -0.2215 -1.2776 -0.3469
  672MOL0     H90718   7.015   6.964   9.735  0.0781  1.8179 -3.8679
  672MOL0     H90719   6.451   6.290   9.733  3.3978 -0.6653  0.0246
  672MOL0     H90720   6.224   6.353   9.767 -1.1114 -0.0869  1.0180
  673MOL0     O90721   6.854   0.441  10.996 -0.0594  0.6289 -0.1549
  673MOL0     C90722   6.931   0.536  10.995  0.0327  0.8968 -0.3298
  673MOL0     O90723   6.900   0.666  10.944  0.1877 -0.0018 -0.1841
  673MOL0     C90724   6.770   0.698  10.930 -0.3614 -0.2931 -0.1148
  673MOL0     C90725   6.712   0.804  11.003  0.6651  0.6129 -0.6912
  673MOL0     C90726   6.574   0.840  10.996 -0.5805 -0.1834 -0.1009
  673MOL0     C90727   6.489   0.760  10.917 -0.2451 -0.3008  0.4422
  673MOL0     O90728   6.359   0.794  10.905  0.1456  0.2024 -0.2189
  673MOL0     C90729   6.311   0.833  10.774 -0.3350 -0.2330 -0.0050
  673MOL0     C90730   6.221   0.960  10.798 -0.3659 -0.3668  0.8334
  673MOL0     C90731   6.073   0.937  10.792 -0.0822 -0.0557 -0.5742
  673MOL0     C90732   6.052   0.874  10.932  1.3542 -0.1522  0.1776
  673MOL0     C90733   5.916   0.803  10.932 -0.3739  0.9011 -0.4038
  673MOL0     C90734   5.800   0.911  10.919 -0.0435  0.2517 -0.5240
  673MOL0     C90735   5.664   0.878  10.962  0.0754 -0.1413  0.5528
  673MOL0     C90736   5.593   0.765  10.881 -1.1211  0.5430 -0.9828
  673MOL0     N90737   5.482   0.713  10.965  0.7868 -0.6244 -0.2790
  673MOL0     C90738   5.367   0.785  10.992  0.0561  0.2674 -0.0065
  673MOL0     C90739   5.281   0.694  11.035  0.6453  1.0554 -0.7904
  673MOL0     C90740   5.142   0.738  11.080  0.2584  0.2474 -0.3984
  673MOL0     C90741   5.033   0.647  11.025 -0.0319 -0.2489  0.5573
  673MOL0     C90742   4.898   0.710  11.001 -0.5124  0.1188 -0.2345
  673MOL0     C90743   4.775   0.615  10.976  0.1090  0.2129 -0.9877
  673MOL0     O90744   4.646   0.668  11.027 -0.2931  0.4277 -0.7948
  673MOL0     C90745   4.536   0.590  11.022 -0.2120 -0.8630  0.5588
  673MOL0     C90746   4.519   0.492  10.919  0.3727  0.3546  0.2212
  673MOL0     C90747   4.400   0.421  10.912 -0.3854  0.4421 -0.7669
  673MOL0     C90748   4.385   0.338  10.783 -0.0465  0.2102 -0.1579
  673MOL0     C90749   4.300   0.446  11.005 -0.8361  0.4272 -0.5093
  673MOL0     C90750   4.171   0.368  11.020 -1.0708  0.0854 -0.6937
  673MOL0     O90751   4.138   0.281  10.927  0.4078  0.3005  0.1635
  673MOL0     C90752   4.015   0.217  10.932 -0.2165  0.9292  0.3731
  673MOL0     C90753   3.905   0.274  10.872 -0.3322 -0.5126 -0.4681
  673MOL0     C90754   3.779   0.210  10.859  0.3967  0.0402 -0.4889
  673MOL0     C90755   3.767   0.076  10.908  0.2906  0.5297  0.3018
  673MOL0     O90756   3.644   0.007  10.899 -0.1666  0.1046  0.3540
  673MOL0     C90757   3.638  -0.119  10.967 -0.5616 -0.3261  0.3168
  673MOL0     C90758   3.694  -0.245  10.886  0.4625 -0.5350 -0.1663
  673MOL0     C90759   3.722  -0.368  10.976  0.0904 -0.1333 -0.0825
  673MOL0     C90760   3.595  -0.415  11.057 -0.4213 -0.0660 -0.3507
  673MOL0     C90761   3.635  -0.544  11.135  0.5538  0.1202  0.1779
  673MOL0     C90762   3.630  -0.673  11.045 -0.0268  0.0832  0.8498
  673MOL0     C90763   3.642  -0.792  11.139 -0.2067  0.9725 -0.7200
  673MOL0     C90764   3.520  -0.814  11.238  0.6323  0.2992  0.5827
  673MOL0    Cl90765   3.377  -0.773  11.159  0.0177  0.0978 -0.3690
  673MOL0     C90766   3.884   0.019  10.961  0.3473  0.9163 -0.2536
  673MOL0     C90767   4.004   0.094  10.984 -0.0017  0.4436  0.7965
  673MOL0     O90768   4.092   0.394  11.117 -0.2291 -0.5118  0.7106
  673MOL0     C90769   4.324   0.532  11.111  0.6817 -0.5371 -0.1337
  673MOL0     C90770   4.443   0.611  11.114  0.5166 -0.6036  0.8664
  673MOL0     N90771   5.342   0.573  11.025 -0.6161  0.0231  0.0644
  673MOL0     N90772   5.469   0.588  11.001  0.1189 -0.0516  0.0900
  673MOL0     C90773   6.549   0.657  10.838  0.1842  0.2272 -0.4417
  673MOL0     C90774   6.685   0.629  10.841 -1.2909 -0.1446  0.6178
  673MOL0     C90775   7.067   0.508  11.049 -0.0776  0.5848  0.4428
  673MOL0     C90776   7.116   0.377  11.091  0.5229  0.1496  0.1069
  673MOL0     C90777   7.242   0.351  11.144  0.5029  0.1891  0.6818
  673MOL0     C90778   7.325   0.456  11.163 -0.4366 -0.3994 -0.8967
  673MOL0     O90779   7.449   0.426  11.217  0.3928  0.1840  0.0727
  673MOL0     C90780   7.557   0.515  11.204  0.0449 -0.4866 -0.1078
  673MOL0     C90781   7.619   0.534  11.060 -0.2969  0.4048  0.2573
  673MOL0     C90782   7.747   0.614  11.078 -0.0115  0.0587  0.2272
  673MOL0     C90783   7.795   0.638  10.935 -0.0791  0.0542 -0.4894
  673MOL0     C90784   7.859   0.514  10.873  0.7935 -0.5776 -0.5283
  673MOL0     C90785   7.938   0.427  10.843 -0.6828  0.1669 -0.7772
  673MOL0     C90786   7.273   0.588  11.124 -0.2438 -0.6946  0.2907
  673MOL0     C90787   7.150   0.610  11.075 -0.0278 -0.5118  0.9847
  673MOL0     H90788   6.774   0.856  11.075  2.5524 -1.7369 -0.4842
  673MOL0     H90789   6.541   0.914  11.069 -0.5477  1.0868 -1.3404
  673MOL0     H90790   6.395   0.854  10.708 -0.4349 -3.2832 -1.2567
  673MOL0     H90791   6.255   0.748  10.733  0.0193  0.1723 -1.3784
  673MOL0     H90792   6.254   1.005  10.892  1.8720  2.6217 -1.1669
  673MOL0     H90793   6.241   1.041  10.727  2.1759 -2.7426 -1.3701
  673MOL0     H90794   6.033   1.037  10.772  4.7225  1.8344 -2.2796
  673MOL0     H90795   6.048   0.875  10.705 -0.4214  1.3192 -1.4944
  673MOL0     H90796   6.121   0.798  10.968 -0.3023 -1.9555 -0.2814
  673MOL0     H90797   6.056   0.950  11.011 -0.3317  1.2380 -1.0053
  673MOL0     H90798   5.911   0.723  10.858 -0.5893 -0.1407  0.7006
  673MOL0     H90799   5.907   0.750  11.028 -2.3884  2.0158  0.0851
  673MOL0     H90800   5.831   1.003  10.969  3.5895 -0.6788 -0.7721
  673MOL0     H90801   5.805   0.939  10.814  0.8627  0.0920 -0.5366
  673MOL0     H90802   5.678   0.847  11.066  3.3023  0.0369  0.2565
  673MOL0     H90803   5.606   0.971  10.952  2.1088  1.5272  3.0170
  673MOL0     H90804   5.663   0.683  10.864 -1.7430 -0.1053 -0.4724
  673MOL0     H90805   5.566   0.783  10.777 -1.3551 -0.7757 -1.1727
  673MOL0     H90806   5.353   0.893  10.981 -0.2352  0.1007 -1.5522
  673MOL0     H90807   5.137   0.724  11.189  2.2927 -1.2512 -0.4421
  673MOL0     H90808   5.120   0.844  11.062 -0.5076  0.4772  1.5941
  673MOL0     H90809   5.026   0.561  11.093  0.7393 -0.2663  0.6188
  673MOL0     H90810   5.080   0.603  10.937  3.8437  2.0465  1.2372
  673MOL0     H90811   4.904   0.777  10.915  0.2080  1.0261  0.4979
  673MOL0     H90812   4.869   0.755  11.096 -4.1814 -0.8645 -0.7253
  673MOL0     H90813   4.795   0.524  11.032 -0.9993  0.2601 -0.4838
  673MOL0     H90814   4.778   0.581  10.872 -1.4712 -1.0189 -0.6777
  673MOL0     H90815   4.596   0.474  10.844 -0.0276 -0.4147 -0.0125
  673MOL0     H90816   4.291   0.372  10.737 -0.7815  1.0542  1.8753
  673MOL0     H90817   4.468   0.350  10.712 -1.0419 -1.3711 -1.6817
  673MOL0     H90818   4.374   0.233  10.813 -3.2360  0.0055 -1.6417
  673MOL0     H90819   3.928   0.371  10.829 -2.7043  1.0990  1.6353
  673MOL0     H90820   3.698   0.264  10.812  0.6362 -0.0923 -1.0652
  673MOL0     H90821   3.703  -0.115  11.055 -0.0272 -0.3756 -0.0621
  673MOL0     H90822   3.536  -0.130  11.004 -1.4745 -1.5761 -2.3376
  673MOL0     H90823   3.612  -0.273  10.819 -0.4632  0.4035  0.5411
  673MOL0     H90824   3.788  -0.232  10.832  2.1656 -1.7135  2.3084
  673MOL0     H90825   3.805  -0.352  11.044  1.8639 -3.2277 -1.3194
  673MOL0     H90826   3.767  -0.451  10.921  1.8995  1.7958 -1.7077
  673MOL0     H90827   3.570  -0.331  11.123  0.6742 -0.4414  0.5592
  673MOL0     H90828   3.506  -0.430  10.995 -2.5327  3.8848  1.3016
  673MOL0     H90829   3.566  -0.541  11.221  0.3840 -4.1600  0.4159
  673MOL0     H90830   3.732  -0.531  11.183  1.4310  2.9359 -2.1328
  673MOL0     H90831   3.543  -0.679  10.979 -0.1904 -0.3313  1.0958
  673MOL0     H90832   3.724  -0.676  10.989 -0.5659  2.1848 -0.2693
  673MOL0     H90833   3.728  -0.788  11.206 -1.1019  0.7203  0.4809
  673MOL0     H90834   3.656  -0.881  11.077  0.5392 -0.0715  0.8836
  673MOL0     H90835   3.538  -0.739  11.316  2.0216  1.2621 -0.5902
  673MOL0     H90836   3.511  -0.908  11.293  0.8657 -0.9741 -1.4811
  673MOL0     H90837   3.895  -0.080  11.004  0.8341  1.0771  0.0007
  673MOL0     H90838   4.089   0.040  11.025 -0.0311  0.5496  0.9971
  673MOL0     H90839   4.250   0.562  11.185  1.4383  1.5898 -0.1733
  673MOL0     H90840   4.458   0.695  11.180  0.3915  2.8007 -2.9972
  673MOL0     H90841   6.483   0.595  10.779  0.7719 -0.3665 -0.4836
  673MOL0     H90842   6.725   0.544  10.786 -2.7122 -0.8461  0.6216
  673MOL0     H90843   7.047   0.294  11.093 -0.7228  1.1306  2.6277
  673MOL0     H90844   7.273   0.261  11.195  0.2838 -1.0062 -1.2063
  673MOL0     H90845   7.525   0.612  11.242 -0.7925 -0.5469 -0.6418
  673MOL0     H90846   7.637   0.471  11.265 -1.2641 -1.3459  1.0528
  673MOL0     H90847   7.548   0.581  10.992 -0.5554 -0.9392 -0.4246
  673MOL0     H90848   7.641   0.431  11.030 -0.6284  1.4083 -3.9460
  673MOL0     H90849   7.825   0.566  11.137  1.5876 -0.2860 -2.0340
  673MOL0     H90850   7.722   0.709  11.125  2.1793  0.8028 -0.0121
  673MOL0     H90851   7.877   0.705  10.961  0.3094 -0.2784 -0.8643
  673MOL0     H90852   7.717   0.685  10.874 -0.3391 -0.0589 -0.2486
  673MOL0     H90853   8.003   0.344  10.821 -1.0058 -0.0840 -0.7931
  673MOL0     H90854   7.334   0.677  11.133 -4.1949  2.5459 -1.7438
  673MOL0     H90855   7.123   0.714  11.059 -0.7519 -0.5815  1.7054
  674MOL0     O90856   3.515   5.231  10.941 -0.1914  0.2569  0.7438
  674MOL0     C90857   3.620   5.168  10.947  0.0721 -0.7118  0.7097
  674MOL0     O90858   3.741   5.233  10.965 -0.1030 -0.3071 -0.8986
  674MOL0     C90859   3.737   5.367  10.998 -0.0458 -1.3342  0.2041
  674MOL0     C90860   3.770   5.416  11.124  0.6794  0.3485 -0.0478
  674MOL0     C90861   3.777   5.553  11.151  0.7481 -0.7599  0.0757
  674MOL0     C90862   3.753   5.649  11.048  0.8703  0.0287 -0.7967
  674MOL0     O90863   3.734   5.782  11.080 -0.0256  0.2352  0.4304
  674MOL0     C90864   3.635   5.807  11.186 -0.3260 -0.2301  0.4742
  674MOL0     C90865   3.558   5.926  11.134 -0.2396  0.6011  0.5027
  674MOL0     C90866   3.458   5.970  11.246  0.2304  0.0814  0.4078
  674MOL0     C90867   3.358   6.068  11.180 -0.2245 -0.0696 -0.3887
  674MOL0     C90868   3.264   6.111  11.294 -0.7014 -0.5150  0.3464
  674MOL0     C90869   3.181   5.994  11.356  0.4574 -0.0795 -0.5025
  674MOL0     C90870   3.072   6.057  11.440 -0.5641 -0.2772  0.3514
  674MOL0     C90871   2.952   6.092  11.361  0.0324  0.0383  0.0377
  674MOL0     N90872   2.838   6.136  11.445  0.5904  0.2484 -0.3658
  674MOL0     C90873   2.710   6.121  11.399  0.3356  0.5618 -0.5014
  674MOL0     C90874   2.633   6.164  11.495  0.5500  0.9027  0.0542
  674MOL0     C90875   2.482   6.176  11.487 -0.4284  0.6183  0.3216
  674MOL0     C90876   2.422   6.136  11.622 -0.4943 -0.1811  0.7454
  674MOL0     C90877   2.269   6.132  11.612  0.4549 -0.0020  0.0179
  674MOL0     C90878   2.210   6.065  11.735 -0.6592 -0.6140  0.1757
  674MOL0     O90879   2.080   6.121  11.758  0.4140 -0.0537 -0.4242
  674MOL0     C90880   1.964   6.058  11.710 -0.0472 -1.2470  0.3553
  674MOL0     C90881   1.845   6.105  11.750  0.6858 -0.6931  0.7973
  674MOL0     C90882   1.726   6.042  11.713 -0.4764  1.2042  0.5824
  674MOL0     C90883   1.589   6.106  11.768  0.0897  0.0915 -0.3246
  674MOL0     C90884   1.729   5.925  11.631 -0.8307 -0.4887 -0.0954
  674MOL0     C90885   1.622   5.847  11.597  0.5344  1.0202 -0.1105
  674MOL0     O90886   1.528   5.814  11.693  0.6001 -0.2257  0.1813
  674MOL0     C90887   1.406   5.787  11.641  0.6825 -1.1944  0.9098
  674MOL0     C90888   1.379   5.665  11.575 -0.5733 -0.4472  0.2617
  674MOL0     C90889   1.250   5.639  11.541  0.2871  0.4510  0.7361
  674MOL0     C90890   1.142   5.728  11.562  0.0437  0.5865  0.2547
  674MOL0     O90891   1.016   5.711  11.512 -0.2802 -0.4375 -0.7546
  674MOL0     C90892   0.979   5.613  11.412  0.1355 -0.4296 -0.0002
  674MOL0     C90893   0.851   5.666  11.346  0.1898  1.2049  0.0374
  674MOL0     C90894   0.732   5.631  11.439 -0.3492 -0.2185 -0.5462
  674MOL0     C90895   0.595   5.654  11.363  0.6276  0.1518 -0.0443
  674MOL0     C90896   0.478   5.588  11.445  0.3932 -0.1683 -0.3503
  674MOL0     C90897   0.442   5.445  11.384  0.2263  0.1765  0.6044
  674MOL0     C90898   0.334   5.364  11.463 -0.7771 -0.5677  0.2674
  674MOL0     C90899   0.197   5.419  11.424 -0.6674  0.2534 -0.4910
  674MOL0    Cl90900   0.100   5.330  11.554  0.2199 -0.3571  0.4700
  674MOL0     C90901   1.171   5.848  11.623  0.2965 -0.9251 -1.4980
  674MOL0     C90902   1.302   5.877  11.664 -0.0758  1.2863  0.0013
  674MOL0     O90903   1.615   5.815  11.477 -0.2577 -0.1130  0.0435
  674MOL0     C90904   1.850   5.888  11.576 -0.1241  0.0175  0.1555
  674MOL0     C90905   1.969   5.954  11.612  0.0654 -0.3319 -0.4520
  674MOL0     N90906   2.705   6.189  11.609  0.2221  0.2826  0.0654
  674MOL0     N90907   2.828   6.177  11.578 -0.2558  0.2257  0.3189
  674MOL0     C90908   3.727   5.599  10.918  1.6145 -0.2603  0.0210
  674MOL0     C90909   3.729   5.458  10.895 -0.3572 -0.7226  0.6760
  674MOL0     C90910   3.625   5.028  10.898 -0.0111 -0.1787 -0.1739
  674MOL0     C90911   3.744   4.950  10.885  0.6506 -0.3870 -0.0431
  674MOL0     C90912   3.743   4.822  10.840  0.3840 -0.4918  0.7506
  674MOL0     C90913   3.628   4.761  10.805  0.0603  0.1930 -0.5039
  674MOL0     O90914   3.615   4.619  10.792 -1.1443 -0.3403 -0.4884
  674MOL0     C90915   3.739   4.544  10.772  0.8048  0.2166 -0.3116
  674MOL0     C90916   3.795   4.585  10.632  0.9608  0.2676  0.5912
  674MOL0     C90917   3.718   4.512  10.531 -0.2246  0.0206  1.0895
  674MOL0     C90918   3.755   4.563  10.388 -0.0956 -0.4824  0.0146
  674MOL0     C90919   3.663   4.532  10.271  0.9697 -0.4018  0.5099
  674MOL0     C90920   3.574   4.524  10.186 -0.0267 -0.7657 -0.2178
  674MOL0     C90921   3.512   4.837  10.815 -0.2908  0.0371  0.0585
  674MOL0     C90922   3.508   4.966  10.857  1.4951 -0.7135  0.2165
  674MOL0     H90923   3.798   5.353  11.208 -0.9122  1.1014  1.1122
  674MOL0     H90924   3.795   5.597  11.249 -0.4557  2.1346 -0.8810
  674MOL0     H90925   3.575   5.719  11.213 -1.4531  0.7193  1.1096
  674MOL0     H90926   3.696   5.833  11.273  2.2924 -0.3998 -1.2014
  674MOL0     H90927   3.633   6.004  11.121 -2.1534  2.0906 -2.8956
  674MOL0     H90928   3.501   5.920  11.041 -0.6056  1.2981  0.6693
  674MOL0     H90929   3.421   5.890  11.311  0.8416 -1.1795 -0.7243
  674MOL0     H90930   3.520   6.028  11.315  2.1761 -0.0866 -1.0854
  674MOL0     H90931   3.411   6.146  11.124  0.3797 -0.2155 -0.0335
  674MOL0     H90932   3.299   6.010  11.109  2.5898  0.5287 -3.4744
  674MOL0     H90933   3.321   6.158  11.375 -1.6961  0.2231  0.6370
  674MOL0     H90934   3.196   6.186  11.253  0.4337  0.2188 -0.2279
  674MOL0     H90935   3.146   5.922  11.281 -0.0929  1.1407 -1.4582
  674MOL0     H90936   3.243   5.943  11.430 -1.0949 -1.3197  0.0072
  674MOL0     H90937   3.033   5.993  11.519 -3.8592  1.7429  0.5455
  674MOL0     H90938   3.108   6.142  11.499 -0.0978 -3.0961  4.4897
  674MOL0     H90939   2.923   6.004  11.302 -0.7263 -1.2680  2.2087
  674MOL0     H90940   2.975   6.175  11.294  0.4668  0.1647  0.3382
  674MOL0     H90941   2.681   6.087  11.300 -1.9283 -0.3221  0.4005
  674MOL0     H90942   2.459   6.280  11.462 -3.1134  0.3578  1.3418
  674MOL0     H90943   2.441   6.114  11.407 -2.2156  2.3697 -0.1780
  674MOL0     H90944   2.449   6.205  11.702  0.6635 -2.8936  2.8288
  674MOL0     H90945   2.457   6.038  11.655 -2.7031 -1.7944 -1.2643
  674MOL0     H90946   2.238   6.084  11.519  2.3116 -0.0111 -0.6387
  674MOL0     H90947   2.234   6.236  11.609  0.2058 -0.0956 -0.3685
  674MOL0     H90948   2.269   6.082  11.826  0.3087 -0.6441 -0.4296
  674MOL0     H90949   2.221   5.956  11.730 -0.7496 -0.5946 -0.4395
  674MOL0     H90950   1.834   6.189  11.817 -0.9933  1.6813 -2.1956
  674MOL0     H90951   1.532   6.131  11.678  0.5609 -0.1200 -0.6828
  674MOL0     H90952   1.533   6.030  11.823  0.4733  0.7915  1.0985
  674MOL0     H90953   1.616   6.197  11.824 -2.9407  1.4735 -0.8884
  674MOL0     H90954   1.466   5.602  11.563  1.0240  1.1291  2.6035
  674MOL0     H90955   1.229   5.541  11.499  2.1179  1.4600 -2.8830
  674MOL0     H90956   1.057   5.617  11.336  2.5502  0.4964  2.3845
  674MOL0     H90957   0.973   5.517  11.463 -1.6210  1.0961  2.9593
  674MOL0     H90958   0.858   5.775  11.338 -1.7812  1.4734  1.3118
  674MOL0     H90959   0.847   5.618  11.248  2.4848 -0.4229  0.6693
  674MOL0     H90960   0.734   5.703  11.522 -3.0786  1.6841 -1.9706
  674MOL0     H90961   0.735   5.530  11.481 -1.3206 -0.1983 -0.4058
  674MOL0     H90962   0.584   5.763  11.363 -1.0346  0.0223 -1.4069
  674MOL0     H90963   0.602   5.612  11.262 -1.1557  0.2600 -0.2347
  674MOL0     H90964   0.394   5.659  11.447  1.6386  1.3613 -0.1529
  674MOL0     H90965   0.499   5.570  11.551 -2.2615 -0.4855  0.1867
  674MOL0     H90966   0.421   5.444  11.277  0.7071 -2.4491  0.4576
  674MOL0     H90967   0.538   5.392  11.390  0.6317  0.3511 -2.5759
  674MOL0     H90968   0.347   5.393  11.567 -0.2825  1.4814 -0.3332
  674MOL0     H90969   0.351   5.257  11.447  1.5123  0.0540 -2.3372
  674MOL0     H90970   0.141   5.387  11.335 -3.8769 -2.1580  2.1545
  674MOL0     H90971   0.188   5.526  11.440 -3.2315 -0.0204  0.2430
  674MOL0     H90972   1.094   5.921  11.646  1.7372  0.0912  0.3997
  674MOL0     H90973   1.322   5.969  11.720 -0.6102  1.0191  0.6399
  674MOL0     H90974   1.864   5.798  11.518 -0.8940 -2.6704  3.7991
  674MOL0     H90975   2.063   5.931  11.563 -0.3333  0.5149 -1.6550
  674MOL0     H90976   3.714   5.674  10.841  0.2463 -1.3790 -0.8908
  674MOL0     H90977   3.731   5.412  10.797 -1.8436 -0.2043  0.3736
  674MOL0     H90978   3.836   5.005  10.907 -0.6338  1.3661  1.1710
  674MOL0     H90979   3.838   4.778  10.811 -0.7643 -2.2498 -0.5455
  674MOL0     H90980   3.817   4.575  10.842  0.5936  1.1478 -0.4765
  674MOL0     H90981   3.730   4.435  10.770  2.4315  0.0302  0.6559
  674MOL0     H90982   3.900   4.555  10.641 -0.3267 -4.7161  2.3147
  674MOL0     H90983   3.783   4.693  10.614 -0.2210  0.2043  0.9105
  674MOL0     H90984   3.611   4.529  10.547  0.0941  1.9904  1.2938
  674MOL0     H90985   3.730   4.403  10.530  1.7099 -0.0321 -4.0644
  674MOL0     H90986   3.856   4.528  10.367  0.1728 -0.9886  1.9392
  674MOL0     H90987   3.758   4.670  10.408  0.3122 -1.0415  3.8274
  674MOL0     H90988   3.503   4.515  10.106  1.0477 -0.8866 -1.1874
  674MOL0     H90989   3.424   4.785  10.778  1.1740 -0.8705 -2.4001
  674MOL0     H90990   3.407   5.004  10.868  1.8529  0.6617 -0.9594
  675MOL0     O90991   0.200   1.821   5.766  0.0476  0.4047 -0.5089
  675MOL0     C90992   0.151   1.935   5.750  0.4387  0.1421  0.5015
  675MOL0     O90993   0.026   1.963   5.712 -0.0474  1.4762  0.4357
  675MOL0     C90994  -0.070   1.864   5.704  0.8243 -0.1344  0.5262
  675MOL0     C90995  -0.103   1.778   5.811  0.1498 -0.0668 -0.2815
  675MOL0     C90996  -0.222   1.694   5.792 -0.6172 -0.5568  0.1166
  675MOL0     C90997  -0.298   1.679   5.675  0.1426 -0.2808 -0.0597
  675MOL0     O90998  -0.416   1.597   5.668 -0.1340  0.3957 -0.4915
  675MOL0     C90999  -0.443   1.541   5.537 -0.8050  0.4664  0.4280
  675MOL0     C91000  -0.574   1.456   5.538  0.6424 -0.0236  0.8448
  675MOL0     C91001  -0.571   1.356   5.421  0.5162  0.4607  0.0698
  675MOL0     C91002  -0.626   1.406   5.289  0.4741  0.0871  0.5582
  675MOL0     C91003  -0.785   1.392   5.280 -0.5500 -0.0244  0.0761
  675MOL0     C91004  -0.826   1.433   5.136  0.5551  0.0900 -0.7277
  675MOL0     C91005  -0.971   1.430   5.120  0.0106 -0.2790 -0.4236
  675MOL0     C91006  -1.054   1.531   5.207 -0.8721 -0.2725 -0.4902
  675MOL0     N91007  -1.177   1.571   5.153  0.1373  0.1370  0.3936
  675MOL0     C91008  -1.228   1.548   5.033  0.4848 -0.1759  0.2602
  675MOL0     C91009  -1.351   1.606   5.032  0.0004 -0.0520  0.1876
  675MOL0     C91010  -1.456   1.611   4.926  0.7477 -0.1770 -0.6308
  675MOL0     C91011  -1.401   1.669   4.800 -0.0266  0.5962  0.1141
  675MOL0     C91012  -1.454   1.609   4.675 -0.2261 -0.1689 -0.4283
  675MOL0     C91013  -1.584   1.683   4.615 -1.2486 -0.4439  1.1442
  675MOL0     O91014  -1.695   1.634   4.692 -0.3866 -0.4421  0.2997
  675MOL0     C91015  -1.812   1.613   4.633 -0.4339  0.1459  0.2317
  675MOL0     C91016  -1.877   1.711   4.552 -0.3591  0.0033  0.0840
  675MOL0     C91017  -2.014   1.700   4.524  0.8984  0.3396 -0.4381
  675MOL0     C91018  -2.079   1.816   4.443  0.1217  0.7422 -0.7956
  675MOL0     C91019  -2.087   1.581   4.568  0.3430 -0.1173 -0.2245
  675MOL0     C91020  -2.226   1.567   4.521  0.7231  0.1748 -0.5422
  675MOL0     O91021  -2.263   1.601   4.393 -0.3711 -0.3070  0.1535
  675MOL0     C91022  -2.386   1.594   4.337 -0.4908  0.4454 -0.0305
  675MOL0     C91023  -2.460   1.709   4.308  0.8910 -0.1288  0.1642
  675MOL0     C91024  -2.584   1.706   4.246 -1.2042 -0.5883 -0.3168
  675MOL0     C91025  -2.645   1.586   4.211  0.3427 -0.5711 -0.2662
  675MOL0     O91026  -2.775   1.578   4.175  0.3552 -0.7756  0.1848
  675MOL0     C91027  -2.847   1.688   4.111  0.9607 -0.2889 -0.4400
  675MOL0     C91028  -2.823   1.670   3.957 -0.7066  0.0465 -0.0969
  675MOL0     C91029  -2.870   1.529   3.899 -0.2558 -0.3976 -0.1836
  675MOL0     C91030  -2.804   1.509   3.757 -0.3195  0.3849  0.5192
  675MOL0     C91031  -2.875   1.378   3.701 -0.6804 -0.0049 -0.0207
  675MOL0     C91032  -3.013   1.403   3.636 -0.2313 -0.2607  0.1150
  675MOL0     C91033  -3.056   1.289   3.536  0.7126  1.1605 -0.7666
  675MOL0     C91034  -3.190   1.306   3.459 -0.9280 -0.2704 -0.3546
  675MOL0    Cl91035  -3.306   1.217   3.560 -0.1308  0.0599 -0.3955
  675MOL0     C91036  -2.574   1.472   4.247 -0.5222  0.5312  0.9569
  675MOL0     C91037  -2.445   1.469   4.302 -0.0966  0.3492 -0.0177
  675MOL0     O91038  -2.303   1.510   4.605  0.4371 -0.6156 -0.0899
  675MOL0     C91039  -2.020   1.485   4.651  0.2083 -0.1191 -0.8748
  675MOL0     C91040  -1.887   1.508   4.683  0.1647  0.1176 -0.5665
  675MOL0     N91041  -1.362   1.665   5.153  1.2579 -0.7491  0.0480
  675MOL0     N91042  -1.265   1.651   5.225 -1.1793 -0.0992  1.3112
  675MOL0     C91043  -0.264   1.778   5.578 -0.4752  0.3382  0.2522
  675MOL0     C91044  -0.160   1.873   5.595 -1.1682  0.0512 -0.8129
  675MOL0     C91045   0.240   2.057   5.753  0.8152  0.8202 -0.0118
  675MOL0     C91046   0.183   2.184   5.732  0.5457  0.1121 -0.3686
  675MOL0     C91047   0.263   2.295   5.746 -0.8923  0.4645 -0.0486
  675MOL0     C91048   0.399   2.294   5.782 -0.4496  0.6788 -0.0361
  675MOL0     O91049   0.460   2.408   5.808 -0.1263 -0.1620 -0.1386
  675MOL0     C91050   0.599   2.424   5.791 -0.0288  0.5197 -0.2842
  675MOL0     C91051   0.649   2.553   5.857 -0.6993 -0.0807  0.0540
  675MOL0     C91052   0.804   2.543   5.843  0.0578 -0.3423 -0.2992
  675MOL0     C91053   0.871   2.686   5.865 -0.4357  0.8082  0.3751
  675MOL0     C91054   1.012   2.662   5.824 -0.9612  0.4427 -0.1104
  675MOL0     C91055   1.130   2.636   5.797  0.6045 -0.3722 -0.2453
  675MOL0     C91056   0.453   2.168   5.804  0.6808  0.0960  0.3040
  675MOL0     C91057   0.374   2.051   5.788 -0.7288  0.5542 -0.2187
  675MOL0     H91058  -0.051   1.793   5.905 -1.7525 -0.8939  0.9872
  675MOL0     H91059  -0.251   1.623   5.869  0.0199 -1.6367 -0.6087
  675MOL0     H91060  -0.462   1.629   5.475 -0.2263 -1.0573 -2.0713
  675MOL0     H91061  -0.356   1.487   5.497 -0.4580  0.8167  0.7014
  675MOL0     H91062  -0.582   1.393   5.627 -1.2863 -0.7036  0.2529
  675MOL0     H91063  -0.663   1.520   5.535  0.6976  0.1331  2.0724
  675MOL0     H91064  -0.468   1.321   5.409 -0.4025 -1.9728 -1.3889
  675MOL0     H91065  -0.633   1.273   5.457 -0.1907  1.3313  0.9681
  675MOL0     H91066  -0.604   1.509   5.258 -2.0488  0.1528 -1.3638
  675MOL0     H91067  -0.588   1.336   5.213  0.7734  1.4653 -0.6044
  675MOL0     H91068  -0.823   1.294   5.308 -1.6766  1.5829  5.1851
  675MOL0     H91069  -0.835   1.453   5.356 -3.0114 -1.1335 -0.5501
  675MOL0     H91070  -0.790   1.535   5.121 -3.6309  1.6622 -1.4850
  675MOL0     H91071  -0.773   1.377   5.059  0.5866 -0.7181 -0.1254
  675MOL0     H91072  -0.989   1.468   5.019  0.9997  1.0247 -0.1368
  675MOL0     H91073  -1.015   1.330   5.110  1.1764 -0.5546 -4.9499
  675MOL0     H91074  -0.997   1.622   5.228  0.8170 -1.3749 -0.1587
  675MOL0     H91075  -1.075   1.487   5.305  3.7935  0.2035  0.9588
  675MOL0     H91076  -1.178   1.498   4.950  0.6712 -0.5417  0.5909
  675MOL0     H91077  -1.503   1.513   4.918 -2.9597  1.1742  1.6794
  675MOL0     H91078  -1.531   1.685   4.956 -0.0505 -0.3179 -2.2023
  675MOL0     H91079  -1.291   1.663   4.800  0.2573  3.6338 -1.7391
  675MOL0     H91080  -1.424   1.776   4.796  2.8069  1.3312  0.9999
  675MOL0     H91081  -1.466   1.501   4.681  0.2931 -0.3096 -1.6179
  675MOL0     H91082  -1.369   1.629   4.609 -0.0271 -1.0498 -0.4508
  675MOL0     H91083  -1.596   1.666   4.507  0.7647 -2.2862  1.1476
  675MOL0     H91084  -1.572   1.791   4.626 -0.9131 -0.2281 -0.8954
  675MOL0     H91085  -1.824   1.792   4.505  1.1558  0.1854  1.9829
  675MOL0     H91086  -2.035   1.916   4.445  0.1871  0.7141  1.0432
  675MOL0     H91087  -2.077   1.781   4.340  1.6708 -0.8597 -0.2662
  675MOL0     H91088  -2.182   1.822   4.480 -0.5784  2.4852 -2.7818
  675MOL0     H91089  -2.416   1.804   4.336 -2.3991  0.5916  3.6846
  675MOL0     H91090  -2.631   1.802   4.226 -0.7487 -0.3466 -0.2331
  675MOL0     H91091  -2.951   1.683   4.142  1.9022  2.7910  4.1011
  675MOL0     H91092  -2.825   1.787   4.150 -0.2523 -0.4004  0.5829
  675MOL0     H91093  -2.895   1.742   3.916 -2.1010 -1.1765  0.1084
  675MOL0     H91094  -2.718   1.693   3.939 -0.7968  0.2911 -0.3260
  675MOL0     H91095  -2.979   1.527   3.901 -0.5445  3.9909 -0.8608
  675MOL0     H91096  -2.831   1.448   3.962 -1.1335  0.2817  1.3032
  675MOL0     H91097  -2.819   1.594   3.690  2.8119  0.3170 -0.4354
  675MOL0     H91098  -2.700   1.479   3.770 -1.0231 -3.0389 -0.6326
  675MOL0     H91099  -2.888   1.311   3.787 -2.1038  0.4287  0.1330
  675MOL0     H91100  -2.809   1.321   3.636  1.7221  2.5883 -0.0226
  675MOL0     H91101  -3.084   1.416   3.718  0.0529 -0.3428  0.3739
  675MOL0     H91102  -3.022   1.500   3.585 -0.6339 -0.8048 -0.8607
  675MOL0     H91103  -3.048   1.201   3.600  0.0936  0.4028 -1.7084
  675MOL0     H91104  -2.984   1.282   3.454  0.5738  3.8027 -1.2198
  675MOL0     H91105  -3.183   1.254   3.362  1.1805 -0.9047  0.0799
  675MOL0     H91106  -3.221   1.410   3.447 -0.5816 -0.2539 -1.1659
  675MOL0     H91107  -2.627   1.378   4.237  0.4010 -0.0850  1.6058
  675MOL0     H91108  -2.386   1.377   4.308 -1.3726 -0.4179  2.1325
  675MOL0     H91109  -2.086   1.413   4.699 -1.2610  1.9942  0.4732
  675MOL0     H91110  -1.830   1.442   4.748 -2.0379 -2.3271 -0.9431
  675MOL0     H91111  -0.319   1.779   5.484  0.6337 -1.6856 -0.5071
  675MOL0     H91112  -0.137   1.946   5.518 -0.5547  4.4195  3.0893
  675MOL0     H91113   0.076   2.199   5.721  0.5472  1.0067  0.7356
  675MOL0     H91114   0.204   2.385   5.734 -0.2032  1.1672  1.5296
  675MOL0     H91115   0.647   2.339   5.839 -1.3641  0.1969  0.5265
  675MOL0     H91116   0.617   2.421   5.683  1.1994 -1.6593 -0.0978
  675MOL0     H91117   0.608   2.570   5.957 -3.3575  2.1417 -1.2480
  675MOL0     H91118   0.623   2.646   5.805  0.6233  1.0669  1.3546
  675MOL0     H91119   0.821   2.511   5.740 -2.7318  1.3041 -1.3915
  675MOL0     H91120   0.840   2.467   5.913 -0.6827 -3.0216 -2.6367
  675MOL0     H91121   0.858   2.724   5.967 -2.4231  0.5990  0.2446
  675MOL0     H91122   0.829   2.764   5.801 -1.5039  0.4435  0.6054
  675MOL0     H91123   1.229   2.611   5.766  2.0389  1.8048  2.1796
  675MOL0     H91124   0.556   2.156   5.833  1.6099  1.7616 -2.0463
  675MOL0     H91125   0.419   1.958   5.819 -0.0663  0.8464 -0.2843
  676MOL0     O91126   8.636   4.741   3.649  0.1796  0.8282 -0.5161
  676MOL0     C91127   8.700   4.784   3.554 -0.7147 -0.1623 -0.8156
  676MOL0     O91128   8.682   4.754   3.423 -0.2106 -0.4598  0.2482
  676MOL0     C91129   8.579   4.675   3.377 -0.0777 -0.2935 -0.2470
  676MOL0     C91130   8.502   4.577   3.448  0.5511 -0.8647  0.0162
  676MOL0     C91131   8.382   4.521   3.389  0.6519 -0.1955  0.3773
  676MOL0     C91132   8.346   4.549   3.255  0.5301 -0.2985 -0.4080
  676MOL0     O91133   8.228   4.504   3.194 -0.3903  0.2885  0.1151
  676MOL0     C91134   8.171   4.376   3.229 -0.0369 -0.0416  0.1215
  676MOL0     C91135   8.031   4.396   3.263  0.1735  0.3739 -0.2370
  676MOL0     C91136   7.996   4.520   3.347  0.8428  0.2135  0.1008
  676MOL0     C91137   7.848   4.539   3.374  0.0798 -0.5495  0.0379
  676MOL0     C91138   7.833   4.681   3.429 -0.1900  1.2773  0.8954
  676MOL0     C91139   7.686   4.723   3.401  0.2353  0.0279 -0.5486
  676MOL0     C91140   7.578   4.636   3.433 -0.4322  0.9764 -0.0902
  676MOL0     C91141   7.440   4.687   3.420 -0.7543  0.3094 -0.1640
  676MOL0     N91142   7.408   4.697   3.275  0.2295  0.2354 -1.0499
  676MOL0     C91143   7.343   4.593   3.212 -0.4980 -0.1834  0.0493
  676MOL0     C91144   7.306   4.645   3.086  0.1707 -0.3412 -0.3790
  676MOL0     C91145   7.233   4.579   2.975 -0.8613 -0.7160  0.6938
  676MOL0     C91146   7.087   4.626   2.963 -0.6210  0.8935  0.5214
  676MOL0     C91147   7.005   4.577   3.079 -0.1165 -0.3610 -0.4046
  676MOL0     C91148   6.865   4.640   3.083 -0.0711 -0.0614  0.1268
  676MOL0     O91149   6.813   4.635   3.218 -0.7258  0.7212 -0.0718
  676MOL0     C91150   6.672   4.661   3.212 -0.0799  0.2656  0.9824
  676MOL0     C91151   6.605   4.616   3.324 -0.1461  0.0083 -0.7972
  676MOL0     C91152   6.468   4.622   3.339  0.4072  0.3794  0.5645
  676MOL0     C91153   6.420   4.582   3.470 -0.6666  0.9324 -0.2028
  676MOL0     C91154   6.393   4.681   3.235 -0.4332 -0.1269 -0.3832
  676MOL0     C91155   6.244   4.692   3.230  0.2220  0.4014  0.3796
  676MOL0     O91156   6.175   4.596   3.309  0.1216  0.5515  0.4070
  676MOL0     C91157   6.041   4.590   3.335 -0.1454 -0.0690 -0.0625
  676MOL0     C91158   5.934   4.655   3.258 -1.0406  0.2173  0.1903
  676MOL0     C91159   5.803   4.668   3.303 -0.1553  1.0976 -0.3472
  676MOL0     C91160   5.776   4.610   3.426 -0.5327 -0.0526  0.5282
  676MOL0     O91161   5.644   4.602   3.451 -0.1232  0.6597  0.4774
  676MOL0     C91162   5.594   4.461   3.446 -0.4316  0.1904 -0.1962
  676MOL0     C91163   5.442   4.454   3.474 -0.2583 -0.7116  0.5952
  676MOL0     C91164   5.362   4.507   3.359  0.2565 -0.1510  0.4836
  676MOL0     C91165   5.211   4.477   3.393  0.1817  0.1696 -0.8511
  676MOL0     C91166   5.128   4.528   3.277 -0.1740 -0.5749  0.7340
  676MOL0     C91167   4.978   4.498   3.282  0.1275 -1.0935 -0.5058
  676MOL0     C91168   4.961   4.344   3.250  0.5604 -0.9755 -0.3071
  676MOL0     C91169   4.934   4.329   3.100  0.2165  0.1554  0.6599
  676MOL0    Cl91170   4.900   4.156   3.063  0.2785 -0.2061  0.1616
  676MOL0     C91171   5.867   4.533   3.496 -0.7954 -0.3977 -0.5863
  676MOL0     C91172   6.002   4.521   3.456 -0.7536 -0.3371 -0.3663
  676MOL0     O91173   6.191   4.784   3.158  0.0657  0.4177  0.2398
  676MOL0     C91174   6.461   4.751   3.124  0.5066 -0.1407 -0.2135
  676MOL0     C91175   6.600   4.729   3.116  0.8495  0.2268 -0.7000
  676MOL0     N91176   7.343   4.775   3.095  0.1735 -0.5402 -0.3105
  676MOL0     N91177   7.403   4.800   3.200 -0.4765 -0.7274 -0.0917
  676MOL0     C91178   8.423   4.641   3.184  0.3075 -0.0435  0.6361
  676MOL0     C91179   8.542   4.696   3.239 -0.0645  0.2705  0.0577
  676MOL0     C91180   8.812   4.875   3.585 -0.0905 -0.7085 -0.4603
  676MOL0     C91181   8.863   4.889   3.714 -0.0101  0.5462  0.6289
  676MOL0     C91182   8.989   4.939   3.738 -0.1349 -0.1801  1.3566
  676MOL0     C91183   9.065   5.003   3.643  0.3575 -0.0310  0.2842
  676MOL0     O91184   9.191   5.061   3.655  0.1671  0.0807 -0.3328
  676MOL0     C91185   9.293   4.986   3.733  1.3750  0.2497  0.2613
  676MOL0     C91186   9.352   5.072   3.853 -0.3577 -0.5163  0.1962
  676MOL0     C91187   9.252   5.147   3.950  0.1822 -0.8256 -0.3298
  676MOL0     C91188   9.316   5.213   4.072 -0.4849  0.5116 -0.1801
  676MOL0     C91189   9.378   5.342   4.041  0.1518  0.2961 -0.1653
  676MOL0     C91190   9.443   5.435   4.000  0.3121  0.2177  0.5823
  676MOL0     C91191   9.010   5.012   3.512  0.0668  0.4916 -0.7532
  676MOL0     C91192   8.881   4.942   3.481 -0.2349  0.3836 -0.0880
  676MOL0     H91193   8.530   4.542   3.546  1.0511 -4.0924 -1.1580
  676MOL0     H91194   8.327   4.463   3.462 -1.2042  1.9388  0.7615
  676MOL0     H91195   8.182   4.307   3.145  1.7312  0.4837 -0.1075
  676MOL0     H91196   8.214   4.337   3.322 -0.4658  0.7880  0.6832
  676MOL0     H91197   7.974   4.397   3.169  1.1630 -3.3918 -1.0295
  676MOL0     H91198   8.011   4.300   3.310  1.2282 -0.6524 -1.7834
  676MOL0     H91199   8.044   4.507   3.444  0.6910 -0.1767  0.1240
  676MOL0     H91200   8.041   4.609   3.303  0.9453  1.1867  2.0740
  676MOL0     H91201   7.791   4.531   3.281  0.8779 -1.2179 -0.4194
  676MOL0     H91202   7.820   4.459   3.444  0.3295  0.9215  1.8785
  676MOL0     H91203   7.857   4.671   3.536  0.3540  2.7064  0.9246
  676MOL0     H91204   7.894   4.756   3.377  0.3266  0.9403  1.0131
  676MOL0     H91205   7.655   4.813   3.455 -0.7392  0.1534 -1.2787
  676MOL0     H91206   7.676   4.746   3.295 -0.2619 -2.4000 -1.0721
  676MOL0     H91207   7.584   4.538   3.384 -3.5014  1.1835 -1.0888
  676MOL0     H91208   7.594   4.610   3.538  1.6418 -2.5680 -1.1353
  676MOL0     H91209   7.440   4.780   3.477 -1.5521  1.9491 -2.6434
  676MOL0     H91210   7.371   4.615   3.466 -0.6519 -0.8648 -1.7410
  676MOL0     H91211   7.334   4.500   3.268 -0.0096  1.7726  3.7111
  676MOL0     H91212   7.284   4.607   2.883 -1.7786  0.1543  0.4324
  676MOL0     H91213   7.233   4.470   2.985  1.1582 -0.9419 -1.0731
  676MOL0     H91214   7.047   4.579   2.873  0.7141  0.7470 -0.0308
  676MOL0     H91215   7.087   4.734   2.948  0.4785  0.4931 -3.7401
  676MOL0     H91216   7.049   4.606   3.175 -2.0808  1.4396  0.0328
  676MOL0     H91217   7.010   4.468   3.089 -0.0928 -0.3913 -0.7412
  676MOL0     H91218   6.801   4.592   3.009 -1.2753  1.2994  0.2294
  676MOL0     H91219   6.869   4.746   3.056 -3.4506 -0.3154 -1.8504
  676MOL0     H91220   6.665   4.590   3.411  0.1679 -1.1407 -1.3453
  676MOL0     H91221   6.365   4.488   3.460 -2.8000  2.2352 -1.4798
  676MOL0     H91222   6.501   4.562   3.540 -0.7904 -1.3875 -0.6491
  676MOL0     H91223   6.346   4.649   3.514 -0.9522  0.4868 -0.0022
  676MOL0     H91224   5.958   4.696   3.161 -0.5046  2.0231  1.0428
  676MOL0     H91225   5.731   4.722   3.243  0.4172  2.4798  0.1597
  676MOL0     H91226   5.615   4.416   3.348  4.1286  1.1721  0.0790
  676MOL0     H91227   5.641   4.404   3.527 -2.6310  0.3362  1.2496
  676MOL0     H91228   5.414   4.350   3.489  1.2469 -1.4154 -1.0973
  676MOL0     H91229   5.415   4.512   3.563 -1.8016  1.9731 -1.4789
  676MOL0     H91230   5.389   4.453   3.268  1.4299  2.5588 -0.9049
  676MOL0     H91231   5.377   4.615   3.346 -0.7519 -0.1324 -0.8446
  676MOL0     H91232   5.196   4.371   3.416  4.4417 -0.5640 -0.6945
  676MOL0     H91233   5.176   4.520   3.487 -1.0091 -2.3812 -0.0337
  676MOL0     H91234   5.172   4.482   3.188  0.9321  1.6056  0.1082
  676MOL0     H91235   5.151   4.634   3.269  1.5488 -0.9803 -0.1612
  676MOL0     H91236   4.932   4.533   3.374 -2.4203  0.4530 -2.2399
  676MOL0     H91237   4.924   4.549   3.201 -3.0031 -5.0694 -1.2441
  676MOL0     H91238   4.877   4.310   3.311  2.5667 -3.1352  1.4391
  676MOL0     H91239   5.045   4.285   3.288  2.4651 -0.4537 -3.3802
  676MOL0     H91240   5.024   4.354   3.043  0.8440 -2.3469  0.4319
  676MOL0     H91241   4.847   4.390   3.075 -1.9216 -2.3215  1.5813
  676MOL0     H91242   5.832   4.505   3.595 -0.5501 -0.9690 -0.6522
  676MOL0     H91243   6.077   4.468   3.515  0.6571  0.4068 -1.4404
  676MOL0     H91244   6.402   4.817   3.062 -0.7680 -0.6511  0.4314
  676MOL0     H91245   6.635   4.770   3.022  0.1302 -1.7966 -1.9091
  676MOL0     H91246   8.390   4.660   3.082 -0.1978 -2.3245  0.3211
  676MOL0     H91247   8.604   4.753   3.171  1.5260 -3.0147 -1.4724
  676MOL0     H91248   8.810   4.841   3.795 -1.7912  2.1029  0.4402
  676MOL0     H91249   9.032   4.927   3.837 -3.9579 -2.5849  2.9531
  676MOL0     H91250   9.252   4.894   3.775  0.2434  0.1629 -0.9625
  676MOL0     H91251   9.373   4.959   3.663  0.8377  1.2723 -0.7927
  676MOL0     H91252   9.414   5.148   3.807 -1.8757  2.6651  2.9665
  676MOL0     H91253   9.425   5.014   3.911  0.2209  0.2600  0.2468
  676MOL0     H91254   9.177   5.072   3.976  0.5172 -0.9578  0.2657
  676MOL0     H91255   9.193   5.226   3.902  0.8766 -0.0335  0.1009
  676MOL0     H91256   9.377   5.145   4.132 -1.7189 -0.6251 -0.1669
  676MOL0     H91257   9.234   5.250   4.134  1.6240  0.6762  2.7438
  676MOL0     H91258   9.502   5.521   3.976  0.5337  0.8615  3.1520
  676MOL0     H91259   9.062   5.062   3.431 -1.0069  0.7731 -1.2872
  676MOL0     H91260   8.844   4.929   3.380  0.4721 -4.3313  0.0606
  677MOL0     O91261  10.950  11.325   9.399  0.1126  0.3051  0.8671
  677MOL0     C91262  11.031  11.316   9.491 -0.4872 -0.3479  0.4949
  677MOL0     O91263  10.992  11.315   9.621  0.7298  0.1445 -0.3405
  677MOL0     C91264  10.865  11.353   9.645 -0.1806  0.1309 -1.3054
  677MOL0     C91265  10.844  11.475   9.723  0.6598  0.1130  0.3996
  677MOL0     C91266  10.716  11.505   9.770 -0.4757 -0.1383  0.0978
  677MOL0     C91267  10.610  11.424   9.735 -0.4210  0.5557 -0.2160
  677MOL0     O91268  10.476  11.451   9.772  0.1350  0.1422  0.9412
  677MOL0     C91269  10.451  11.553   9.868 -0.7845  0.5665 -0.6436
  677MOL0     C91270  10.319  11.522   9.941  0.0822 -0.4841 -0.1050
  677MOL0     C91271  10.195  11.517   9.853  0.7675  0.3857 -0.7609
  677MOL0     C91272  10.143  11.660   9.809  0.8721  0.5146  0.3495
  677MOL0     C91273   9.997  11.656   9.767  0.7558  0.3447  0.6525
  677MOL0     C91274   9.982  11.550   9.645 -0.5309 -0.8913  0.0678
  677MOL0     C91275   9.849  11.550   9.574  1.0332 -1.0593 -0.0786
  677MOL0     C91276   9.769  11.423   9.592 -0.3675  0.4619  0.1552
  677MOL0     N91277   9.635  11.458   9.548 -1.1109 -0.2797 -0.4769
  677MOL0     C91278   9.524  11.463   9.635  0.3449  0.3227  0.9478
  677MOL0     C91279   9.419  11.460   9.543  0.3835  0.0921 -0.9816
  677MOL0     C91280   9.275  11.480   9.592  0.3076 -0.3694  0.4553
  677MOL0     C91281   9.203  11.353   9.621  0.1963  0.7531 -0.2357
  677MOL0     C91282   9.059  11.384   9.637  0.0662  0.3632  0.3359
  677MOL0     C91283   8.964  11.264   9.608 -0.1164  0.4251 -0.1629
  677MOL0     O91284   8.836  11.310   9.650  0.2676 -0.1349  0.7105
  677MOL0     C91285   8.722  11.238   9.625 -0.7283 -0.3724 -1.3434
  677MOL0     C91286   8.708  11.134   9.537 -0.0446 -0.2350 -0.2428
  677MOL0     C91287   8.585  11.066   9.518  0.6138 -0.6770  0.0381
  677MOL0     C91288   8.576  10.961   9.410  0.3727 -0.4968  0.2486
  677MOL0     C91289   8.474  11.103   9.603 -0.0878  0.2485  0.5300
  677MOL0     C91290   8.347  11.028   9.613 -0.5630  0.6136  0.9432
  677MOL0     O91291   8.230  11.083   9.659 -0.1725 -0.0907 -0.2709
  677MOL0     C91292   8.113  11.011   9.671 -0.4481  0.8691 -0.2762
  677MOL0     C91293   8.013  11.093   9.712 -0.1886 -0.3964 -0.1854
  677MOL0     C91294   7.882  11.039   9.733 -0.7113  0.6066  0.4228
  677MOL0     C91295   7.856  10.905   9.698  0.6129 -0.4315 -0.1397
  677MOL0     O91296   7.735  10.851   9.741 -0.6692  0.0253  0.2516
  677MOL0     C91297   7.674  10.762   9.650  0.6558 -0.1405 -0.6841
  677MOL0     C91298   7.571  10.668   9.718 -0.6849 -0.6481 -0.8872
  677MOL0     C91299   7.453  10.731   9.789 -0.2418  0.1097  0.7213
  677MOL0     C91300   7.374  10.629   9.876 -0.0937 -0.3243  1.1558
  677MOL0     C91301   7.441  10.593  10.009 -0.3785  0.2891  0.4009
  677MOL0     C91302   7.346  10.525  10.105 -0.4312  0.4028 -0.3610
  677MOL0     C91303   7.416  10.530  10.250  0.1179  0.2039  0.5294
  677MOL0     C91304   7.347  10.447  10.359 -0.4297  0.9324  0.1639
  677MOL0    Cl91305   7.173  10.499  10.362  0.1518 -0.0388  0.1839
  677MOL0     C91306   7.961  10.822   9.654  0.5925 -0.1071  0.1092
  677MOL0     C91307   8.085  10.874   9.636 -0.4692  0.2564 -0.0043
  677MOL0     O91308   8.359  10.904   9.581 -0.0001 -0.0577  0.5202
  677MOL0     C91309   8.488  11.213   9.688  1.0582  0.0098 -0.0501
  677MOL0     C91310   8.606  11.280   9.693  0.2199  0.6388 -0.8818
  677MOL0     N91311   9.470  11.466   9.415  0.3157 -0.8047  0.1868
  677MOL0     N91312   9.595  11.442   9.415 -0.2248 -0.1148 -0.3340
  677MOL0     C91313  10.623  11.311   9.654 -0.6858 -0.6568 -0.5920
  677MOL0     C91314  10.751  11.280   9.610 -0.5145  0.6307 -0.0680
  677MOL0     C91315  11.175  11.300   9.457 -0.3596  0.4472 -0.6248
  677MOL0     C91316  11.210  11.268   9.332  0.2482  0.7979 -0.9544
  677MOL0     C91317  11.347  11.258   9.293  0.1775 -0.1798  0.0544
  677MOL0     C91318  11.446  11.261   9.392 -0.7398 -0.0876  0.4605
  677MOL0     O91319  11.573  11.240   9.355 -0.3029 -0.8235 -0.3428
  677MOL0     C91320  11.679  11.232   9.448  0.5828  0.0118  0.0239
  677MOL0     C91321  11.725  11.370   9.513  0.6111  0.4452  0.9185
  677MOL0     C91322  11.775  11.468   9.405 -0.1615 -0.8197  0.1770
  677MOL0     C91323  11.924  11.429   9.360  0.5618  0.0578 -0.0940
  677MOL0     C91324  12.023  11.403   9.466  0.1940 -0.1866  0.1240
  677MOL0     C91325  12.112  11.383   9.543  0.4413 -0.3849  0.1059
  677MOL0     C91326  11.407  11.280   9.526  0.0219  0.6208  0.3679
  677MOL0     C91327  11.274  11.301   9.560  0.2223 -1.2134  0.3640
  677MOL0     H91328  10.931  11.527   9.761  0.9099 -0.1904  0.2449
  677MOL0     H91329  10.708  11.591   9.835  1.0198 -0.2798  0.4989
  677MOL0     H91330  10.533  11.543   9.939  0.8979 -1.0105 -2.6577
  677MOL0     H91331  10.448  11.652   9.822  0.4460  0.9222  0.0023
  677MOL0     H91332  10.337  11.430   9.998  1.1591  0.7233  1.5926
  677MOL0     H91333  10.319  11.598  10.019  0.4092 -0.9553  0.3614
  677MOL0     H91334  10.205  11.456   9.763 -0.0346  0.6883 -1.0569
  677MOL0     H91335  10.123  11.471   9.922  0.3944  0.6785 -0.9568
  677MOL0     H91336  10.152  11.731   9.892 -0.7118  2.6342 -1.1615
  677MOL0     H91337  10.203  11.691   9.722 -0.1495  0.2225 -0.4831
  677MOL0     H91338   9.925  11.629   9.845 -1.1511  3.2793  0.0520
  677MOL0     H91339   9.969  11.757   9.737  0.6377  0.1536  0.1070
  677MOL0     H91340  10.049  11.581   9.564 -2.4368  1.0292 -0.8884
  677MOL0     H91341  10.005  11.446   9.667 -3.0634 -1.4261  0.4370
  677MOL0     H91342   9.797  11.641   9.607  0.2346 -1.6048  0.2042
  677MOL0     H91343   9.870  11.565   9.467 -2.3991  3.6287 -0.4228
  677MOL0     H91344   9.767  11.397   9.699  0.6109 -1.6058 -0.2729
  677MOL0     H91345   9.812  11.338   9.539 -0.2081 -0.2077  1.3302
  677MOL0     H91346   9.520  11.471   9.743  0.4810  0.8245  0.9221
  677MOL0     H91347   9.275  11.541   9.683  1.1180  0.0362  0.1948
  677MOL0     H91348   9.228  11.541   9.515  2.5040  2.4215  1.1548
  677MOL0     H91349   9.244  11.311   9.713  0.3620 -2.1713 -1.5259
  677MOL0     H91350   9.236  11.275   9.552  0.5657  0.0618  0.7044
  677MOL0     H91351   9.020  11.459   9.567 -1.8596 -1.0895 -0.2248
  677MOL0     H91352   9.042  11.433   9.733  1.0535  0.7474  0.3325
  677MOL0     H91353   8.985  11.181   9.675 -1.1303  0.8201  0.6659
  677MOL0     H91354   8.972  11.240   9.501  0.2316  0.2497 -0.0981
  677MOL0     H91355   8.795  11.108   9.477 -0.0810  1.3247 -1.0183
  677MOL0     H91356   8.571  10.859   9.449 -1.9047 -1.3527 -2.0527
  677MOL0     H91357   8.480  10.968   9.357  1.4033  0.3413 -1.6122
  677MOL0     H91358   8.654  10.967   9.333 -1.7319 -0.8502 -2.0478
  677MOL0     H91359   8.034  11.197   9.735 -0.2340 -0.6309  0.9692
  677MOL0     H91360   7.805  11.093   9.787 -2.4411 -0.5859 -0.7508
  677MOL0     H91361   7.621  10.814   9.570 -3.0414 -1.5574  0.6741
  677MOL0     H91362   7.750  10.699   9.603  2.6893  0.4087  1.6203
  677MOL0     H91363   7.546  10.596   9.640  1.0581 -2.8615  0.4536
  677MOL0     H91364   7.632  10.618   9.794 -1.6926  2.2142  2.0383
  677MOL0     H91365   7.402  10.778   9.705  3.4298  0.3633 -1.5675
  677MOL0     H91366   7.482  10.811   9.857 -0.6255  1.5933 -0.7915
  677MOL0     H91367   7.283  10.686   9.895  0.2003  0.8927 -0.8467
  677MOL0     H91368   7.355  10.539   9.817  0.0218  2.0329 -2.8703
  677MOL0     H91369   7.479  10.688  10.049  0.2107  0.0071  0.5074
  677MOL0     H91370   7.535  10.542   9.989 -1.6973 -1.3185 -2.1881
  677MOL0     H91371   7.251  10.576  10.125 -0.6186 -0.1444  0.2027
  677MOL0     H91372   7.324  10.425  10.065 -0.4908  0.5011 -0.5762
  677MOL0     H91373   7.418  10.631  10.290 -0.2552  1.0166 -1.3886
  677MOL0     H91374   7.521  10.499  10.243 -0.0165  0.1450 -3.5135
  677MOL0     H91375   7.398  10.449  10.456 -0.2024  0.7033  0.0530
  677MOL0     H91376   7.343  10.343  10.324  0.1845  1.1458 -0.5746
  677MOL0     H91377   7.935  10.718   9.636  0.8919  0.2124 -2.5549
  677MOL0     H91378   8.147  10.800   9.586 -1.2621  0.4077 -1.2411
  677MOL0     H91379   8.400  11.246   9.742 -0.3800 -2.4475 -0.7112
  677MOL0     H91380   8.619  11.366   9.758 -1.7307 -0.0713  0.5294
  677MOL0     H91381  10.535  11.248   9.643 -1.2221 -0.4578  1.9566
  677MOL0     H91382  10.756  11.193   9.545  1.3174 -0.6890  1.7303
  677MOL0     H91383  11.129  11.260   9.260 -2.9291  0.9770  2.2874
  677MOL0     H91384  11.376  11.245   9.189 -0.8693  0.1456 -0.2862
  677MOL0     H91385  11.649  11.159   9.524  0.6293 -1.2914 -1.1652
  677MOL0     H91386  11.764  11.191   9.393  1.1434  0.6166  0.4238
  677MOL0     H91387  11.795  11.342   9.592 -1.8438 -3.3541  1.9997
  677MOL0     H91388  11.646  11.423   9.565  1.5719  1.4043  1.4420
  677MOL0     H91389  11.763  11.573   9.432  0.3164 -0.2127 -1.7775
  677MOL0     H91390  11.717  11.456   9.313 -2.5496 -4.4414  1.9364
  677MOL0     H91391  11.965  11.512   9.300  2.6254 -1.3082 -0.6728
  677MOL0     H91392  11.927  11.343   9.293  1.8097  0.8804 -1.1562
  677MOL0     H91393  12.183  11.351   9.616  0.8224  0.4873  0.1209
  677MOL0     H91394  11.472  11.286   9.613 -1.3269  0.5579  1.4218
  677MOL0     H91395  11.253  11.312   9.666 -3.2908 -1.1880 -0.2432
  678MOL0     O91396   1.658   4.562   8.592  0.2679  0.1948 -0.0196
  678MOL0     C91397   1.706   4.667   8.634 -0.1504  0.5554  0.9319
  678MOL0     O91398   1.651   4.764   8.714  0.5857  0.4401 -0.7194
  678MOL0     C91399   1.522   4.765   8.762  0.1309  0.4901  0.8220
  678MOL0     C91400   1.483   4.877   8.847 -0.1847  0.3057  1.2102
  678MOL0     C91401   1.360   4.863   8.924  0.3241 -1.0263 -1.0701
  678MOL0     C91402   1.272   4.759   8.904 -0.4733  0.3629 -0.5158
  678MOL0     O91403   1.152   4.748   8.969 -0.0256  0.0907 -0.6160
  678MOL0     C91404   1.129   4.646   9.072  0.4014 -0.4376  0.2512
  678MOL0     C91405   1.002   4.662   9.145  0.2021 -0.5962  0.0901
  678MOL0     C91406   0.884   4.681   9.044  0.1216 -0.1985 -0.2583
  678MOL0     C91407   0.753   4.627   9.107 -1.1688  0.3217  0.0807
  678MOL0     C91408   0.619   4.647   9.013 -0.4959  0.1797  0.2325
  678MOL0     C91409   0.503   4.595   9.067 -0.3761 -0.0645  0.3805
  678MOL0     C91410   0.385   4.630   8.972 -0.3192  1.1380 -0.4902
  678MOL0     C91411   0.256   4.559   9.022 -0.2809 -0.3699  0.0287
  678MOL0     N91412   0.136   4.605   8.950 -0.0952  0.6789 -0.3099
  678MOL0     C91413   0.088   4.732   8.944  0.3811 -0.2204 -0.8601
  678MOL0     C91414  -0.039   4.719   8.907  0.3230  0.2077  0.5807
  678MOL0     C91415  -0.142   4.832   8.875  0.4112  0.1104  0.8532
  678MOL0     C91416  -0.155   4.857   8.727  0.4891 -0.1324  0.5858
  678MOL0     C91417  -0.276   4.781   8.681  0.4119  0.4002  0.0357
  678MOL0     C91418  -0.414   4.851   8.697 -0.2422  0.0202  0.1208
  678MOL0     O91419  -0.450   4.884   8.836 -0.4926  0.1723 -0.7353
  678MOL0     C91420  -0.572   4.948   8.840 -0.1076 -0.9373  0.1981
  678MOL0     C91421  -0.693   4.892   8.809  1.5012 -0.2284 -1.0968
  678MOL0     C91422  -0.825   4.949   8.839 -0.0732  0.1201 -0.1736
  678MOL0     C91423  -0.939   4.862   8.810  1.6590 -0.5042  0.3167
  678MOL0     C91424  -0.827   5.078   8.897  0.2937  0.1992  1.1389
  678MOL0     C91425  -0.949   5.154   8.934  0.6589  0.0393  0.3316
  678MOL0     O91426  -1.066   5.089   8.916  0.3383  0.2943 -0.8834
  678MOL0     C91427  -1.193   5.144   8.942  0.1988  0.9216  1.0789
  678MOL0     C91428  -1.232   5.266   9.009 -0.9108  0.7017  1.0060
  678MOL0     C91429  -1.361   5.283   9.049 -0.2265  0.6267  0.0394
  678MOL0     C91430  -1.462   5.196   8.999  0.2253  0.4017  0.7485
  678MOL0     O91431  -1.600   5.205   9.002  0.2868 -0.0541  0.6356
  678MOL0     C91432  -1.650   5.325   9.070  0.2205  0.0119 -0.2664
  678MOL0     C91433  -1.799   5.322   9.058  1.1514  0.6122  0.0905
  678MOL0     C91434  -1.860   5.307   9.205  0.1047  1.1277  0.3027
  678MOL0     C91435  -2.017   5.310   9.203  0.0974  0.0460 -0.8479
  678MOL0     C91436  -2.063   5.271   9.343 -0.8127  0.1347 -0.7803
  678MOL0     C91437  -2.210   5.317   9.371  0.0709 -0.9087  0.3988
  678MOL0     C91438  -2.264   5.262   9.499 -0.5500  0.2366  0.0317
  678MOL0     C91439  -2.402   5.317   9.518 -0.2424  1.3739 -0.3334
  678MOL0    Cl91440  -2.409   5.497   9.532 -0.5981  0.0510  0.1540
  678MOL0     C91441  -1.426   5.079   8.931 -0.4188  0.0907 -0.7468
  678MOL0     C91442  -1.292   5.046   8.903 -0.4780  1.2635 -0.3274
  678MOL0     O91443  -0.940   5.272   8.971 -0.2112  0.1065  0.1485
  678MOL0     C91444  -0.713   5.127   8.939  0.0399 -0.5312  0.2857
  678MOL0     C91445  -0.591   5.074   8.915 -0.0668 -0.1054  0.1741
  678MOL0     N91446  -0.059   4.582   8.875 -0.2304 -0.5368  0.4284
  678MOL0     N91447   0.046   4.516   8.904 -0.7003 -0.0826 -0.0639
  678MOL0     C91448   1.304   4.666   8.803  0.1712 -0.7181  0.4721
  678MOL0     C91449   1.422   4.669   8.739 -1.0267 -0.1793  0.2465
  678MOL0     C91450   1.845   4.691   8.594 -0.1166  0.9496  0.1383
  678MOL0     C91451   1.899   4.814   8.614 -0.9544 -0.5270 -0.3177
  678MOL0     C91452   2.018   4.846   8.543  0.5112  0.6423 -0.4188
  678MOL0     C91453   2.091   4.754   8.469  0.5449  0.5257  0.6280
  678MOL0     O91454   2.211   4.763   8.410 -0.2867 -0.3376  0.3936
  678MOL0     C91455   2.265   4.893   8.383  0.4581 -0.1258 -0.0982
  678MOL0     C91456   2.391   4.880   8.298  0.5416 -0.5182  1.3846
  678MOL0     C91457   2.434   5.013   8.229 -0.1440  0.5437 -0.1792
  678MOL0     C91458   2.456   5.130   8.321  0.0138 -0.1714  0.5415
  678MOL0     C91459   2.580   5.107   8.397 -0.1020  0.7492  0.7245
  678MOL0     C91460   2.685   5.108   8.449  0.5038  0.1365  0.3583
  678MOL0     C91461   2.040   4.624   8.468  0.1480  0.0833 -0.2413
  678MOL0     C91462   1.920   4.588   8.520  0.6193  0.1172 -0.0735
  678MOL0     H91463   1.550   4.957   8.874 -1.2625  1.2351  1.1799
  678MOL0     H91464   1.322   4.942   8.988 -0.9325  0.1334 -3.1577
  678MOL0     H91465   1.133   4.553   9.015 -3.0988 -0.2080 -0.6091
  678MOL0     H91466   1.211   4.645   9.144  1.5544  0.7532 -0.9704
  678MOL0     H91467   0.977   4.598   9.230 -0.4124 -1.5039 -0.7413
  678MOL0     H91468   1.029   4.756   9.192 -1.1756 -0.2312  0.1837
  678MOL0     H91469   0.878   4.785   9.010 -1.6059  0.3866  1.6252
  678MOL0     H91470   0.888   4.619   8.954 -0.3184  2.3785 -2.1700
  678MOL0     H91471   0.766   4.528   9.151 -1.5095 -0.4359 -1.4406
  678MOL0     H91472   0.720   4.671   9.201  0.4623  1.2544  0.2485
  678MOL0     H91473   0.609   4.754   8.995  0.1799 -0.3218 -4.2368
  678MOL0     H91474   0.643   4.596   8.919  1.7086  1.3461  0.1013
  678MOL0     H91475   0.524   4.487   9.075  1.5770  0.1533 -1.1105
  678MOL0     H91476   0.484   4.644   9.163  0.8540  2.4399 -0.5728
  678MOL0     H91477   0.370   4.737   8.982  0.5635  1.1099  1.6859
  678MOL0     H91478   0.410   4.607   8.868 -2.5902 -0.8142 -0.6981
  678MOL0     H91479   0.244   4.576   9.130  1.0673 -4.4472  1.0082
  678MOL0     H91480   0.277   4.452   9.018 -0.0680 -0.3080 -0.5230
  678MOL0     H91481   0.146   4.824   8.949 -0.5176  0.7313 -4.6570
  678MOL0     H91482  -0.231   4.800   8.930  0.8406 -0.7930  1.0400
  678MOL0     H91483  -0.102   4.926   8.915  1.6640  0.2242 -0.5960
  678MOL0     H91484  -0.073   4.809   8.674  0.2906 -0.2393  0.3721
  678MOL0     H91485  -0.159   4.965   8.709 -0.2730 -0.4317 -1.3396
  678MOL0     H91486  -0.282   4.685   8.732  1.2667 -0.0625 -0.6906
  678MOL0     H91487  -0.253   4.764   8.575  0.5278 -2.0610  0.4048
  678MOL0     H91488  -0.493   4.797   8.645  1.6234 -1.3024 -1.5240
  678MOL0     H91489  -0.412   4.948   8.647 -1.7404  1.0190  1.8882
  678MOL0     H91490  -0.694   4.791   8.768  3.0915 -1.7548  2.2491
  678MOL0     H91491  -0.905   4.758   8.803 -1.5830 -1.7082  0.9879
  678MOL0     H91492  -1.013   4.860   8.890 -0.2831 -1.3984 -1.4111
  678MOL0     H91493  -0.998   4.888   8.722 -0.2452 -2.7366  0.8426
  678MOL0     H91494  -1.154   5.339   9.027 -0.5358  0.1671  1.5777
  678MOL0     H91495  -1.382   5.374   9.104  1.0777  1.3702 -0.6644
  678MOL0     H91496  -1.614   5.335   9.173  1.2595 -1.2941 -0.4754
  678MOL0     H91497  -1.627   5.418   9.017 -0.7535  0.5509  0.2275
  678MOL0     H91498  -1.845   5.411   9.015  0.4107  0.8367  1.2918
  678MOL0     H91499  -1.822   5.232   9.000  0.5431  1.2846 -0.7297
  678MOL0     H91500  -1.820   5.370   9.284 -1.1432 -0.9417  2.7558
  678MOL0     H91501  -1.825   5.208   9.237 -0.4647  0.5458 -0.8342
  678MOL0     H91502  -2.038   5.415   9.180  0.2339  0.4504  0.7676
  678MOL0     H91503  -2.069   5.248   9.129 -3.1764  2.5705 -0.9200
  678MOL0     H91504  -2.000   5.312   9.422 -1.0217 -0.1546 -0.4590
  678MOL0     H91505  -2.048   5.162   9.339  3.3420  0.5919 -2.3884
  678MOL0     H91506  -2.223   5.426   9.364 -4.2906 -1.3226 -1.3915
  678MOL0     H91507  -2.283   5.279   9.299 -2.9295  1.2962  2.0596
  678MOL0     H91508  -2.214   5.307   9.585 -1.8102  2.8120 -0.4661
  678MOL0     H91509  -2.258   5.153   9.496  1.3451  0.2884  0.4486
  678MOL0     H91510  -2.438   5.272   9.611 -1.2369  2.1852 -0.3038
  678MOL0     H91511  -2.476   5.285   9.443  0.0096 -0.1546  0.0361
  678MOL0     H91512  -1.502   5.003   8.918  0.5138 -0.9096 -0.4982
  678MOL0     H91513  -1.267   4.952   8.855 -3.5451  0.6928 -0.9980
  678MOL0     H91514  -0.709   5.223   8.989 -0.6860 -0.4340  0.1686
  678MOL0     H91515  -0.500   5.116   8.957  0.3741 -1.8200  1.0084
  678MOL0     H91516   1.249   4.573   8.794 -1.1206 -0.1815  2.3539
  678MOL0     H91517   1.444   4.577   8.686  1.3966 -2.2689  4.3805
  678MOL0     H91518   1.841   4.891   8.662 -1.5740 -0.2786 -1.4427
  678MOL0     H91519   2.063   4.945   8.542  1.5710  0.1999  0.9245
  678MOL0     H91520   2.182   4.947   8.336  0.8083  0.5523  0.0551
  678MOL0     H91521   2.287   4.936   8.481 -1.6148 -0.9069  0.7749
  678MOL0     H91522   2.368   4.812   8.215  1.0835 -1.6436  2.1368
  678MOL0     H91523   2.481   4.834   8.340  2.4153 -2.7372 -4.0583
  678MOL0     H91524   2.357   5.049   8.160  0.4639 -0.5872 -1.4704
  678MOL0     H91525   2.521   4.991   8.167 -0.4034 -0.8326 -0.0809
  678MOL0     H91526   2.371   5.127   8.390 -0.7400 -3.5862 -0.3525
  678MOL0     H91527   2.460   5.224   8.265 -0.5933 -0.8188 -0.6236
  678MOL0     H91528   2.783   5.094   8.490  1.0834 -3.0440 -1.7364
  678MOL0     H91529   2.101   4.547   8.422  1.6146  0.7324  0.5527
  678MOL0     H91530   1.884   4.487   8.507  2.6263 -0.8966  1.5954
  679MOL0     O91531   9.385   6.295   1.331 -0.1474  0.0748 -0.3404
  679MOL0     C91532   9.381   6.272   1.212 -0.3784  1.2657  0.6039
  679MOL0     O91533   9.259   6.256   1.134 -0.6812  0.1072 -0.4157
  679MOL0     C91534   9.129   6.219   1.186 -1.3734 -0.9411  0.4445
  679MOL0     C91535   9.033   6.183   1.091  0.9646  0.0346 -0.1567
  679MOL0     C91536   8.902   6.178   1.138 -0.0065 -1.0418  0.3052
  679MOL0     C91537   8.860   6.208   1.265  0.8451  0.4409 -0.4337
  679MOL0     O91538   8.730   6.222   1.314 -0.0477  0.6660  0.3661
  679MOL0     C91539   8.624   6.180   1.235 -0.4200  0.0626  0.0540
  679MOL0     C91540   8.595   6.289   1.134  0.0921 -0.6591 -0.7687
  679MOL0     C91541   8.555   6.420   1.199  0.6056 -1.0153 -0.1854
  679MOL0     C91542   8.488   6.516   1.111  0.4588  0.9513 -0.1945
  679MOL0     C91543   8.492   6.651   1.187  0.2080 -0.2367  0.5107
  679MOL0     C91544   8.406   6.760   1.117 -0.4406  0.0661 -0.4325
  679MOL0     C91545   8.392   6.889   1.184  0.2606  0.9041  0.8375
  679MOL0     C91546   8.303   6.978   1.099  0.3663 -0.9805 -0.1086
  679MOL0     N91547   8.307   7.120   1.137  0.2815  1.2903 -0.6589
  679MOL0     C91548   8.272   7.162   1.259  0.0418  0.6792  0.8710
  679MOL0     C91549   8.273   7.296   1.249  0.8351 -0.1354  0.4194
  679MOL0     C91550   8.221   7.397   1.332  0.7622  0.5414  0.4192
  679MOL0     C91551   8.068   7.413   1.302 -0.3560  0.0306  0.1626
  679MOL0     C91552   7.971   7.294   1.306 -0.5024 -0.2377 -0.3251
  679MOL0     C91553   7.822   7.319   1.269  0.8035  0.1387 -0.9679
  679MOL0     O91554   7.767   7.411   1.373  0.3238 -0.5208  0.0068
  679MOL0     C91555   7.635   7.414   1.399  0.2770  0.2391  0.6552
  679MOL0     C91556   7.540   7.379   1.303 -0.3966  0.2703  0.5684
  679MOL0     C91557   7.405   7.373   1.347 -0.7971 -0.0426  0.5196
  679MOL0     C91558   7.308   7.367   1.245  0.8337 -0.6082  0.8049
  679MOL0     C91559   7.369   7.398   1.480  1.2347  0.0533  0.3816
  679MOL0     C91560   7.230   7.401   1.540 -0.3577 -0.6404  0.5588
  679MOL0     O91561   7.135   7.452   1.462  0.0273  0.2435  0.1893
  679MOL0     C91562   7.012   7.468   1.517  0.3655  0.4380 -0.8470
  679MOL0     C91563   6.922   7.370   1.504 -0.2790 -0.0492  0.1774
  679MOL0     C91564   6.797   7.368   1.567 -0.0794 -0.3404  0.0785
  679MOL0     C91565   6.753   7.474   1.642 -0.2382  0.0314  0.7790
  679MOL0     O91566   6.628   7.485   1.705 -0.0676  0.3688  0.0486
  679MOL0     C91567   6.513   7.463   1.617 -1.0744  0.0798 -0.1134
  679MOL0     C91568   6.389   7.507   1.693 -0.8410  0.3612  0.3295
  679MOL0     C91569   6.356   7.402   1.796 -0.6788  0.2027  0.0425
  679MOL0     C91570   6.253   7.451   1.892 -0.0635  0.5933 -0.9879
  679MOL0     C91571   6.198   7.338   1.991 -1.4669  0.3322 -0.2440
  679MOL0     C91572   6.112   7.391   2.105  0.6889 -0.4552  0.3308
  679MOL0     C91573   6.006   7.491   2.057  0.0471 -0.4884  0.0856
  679MOL0     C91574   5.910   7.518   2.173 -0.2130 -0.4265 -0.0285
  679MOL0    Cl91575   5.796   7.390   2.191 -0.2188  0.5707  0.7875
  679MOL0     C91576   6.844   7.573   1.661  1.1479 -0.2827 -0.1704
  679MOL0     C91577   6.971   7.571   1.608 -0.7152  0.1371  0.0404
  679MOL0     O91578   7.217   7.386   1.667  0.2804 -1.0540 -0.0386
  679MOL0     C91579   7.472   7.429   1.565 -0.2314  0.1048 -0.8047
  679MOL0     C91580   7.601   7.441   1.524 -0.2742  0.0471 -0.2626
  679MOL0     N91581   8.306   7.334   1.122  0.1558  0.0022 -1.0658
  679MOL0     N91582   8.339   7.227   1.057  0.9668 -0.1655 -0.5197
  679MOL0     C91583   8.960   6.212   1.364  0.5990 -0.2301  0.2457
  679MOL0     C91584   9.091   6.224   1.320 -0.1004  0.2733  0.2358
  679MOL0     C91585   9.500   6.279   1.124  1.1571 -0.2819 -0.5183
  679MOL0     C91586   9.616   6.301   1.198 -0.0955 -0.8565  0.4975
  679MOL0     C91587   9.731   6.324   1.128  0.0597 -0.6860 -0.2030
  679MOL0     C91588   9.748   6.291   0.998  0.2916  0.5233  0.0740
  679MOL0     O91589   9.862   6.275   0.919 -0.2159 -0.4348 -0.2640
  679MOL0     C91590   9.974   6.333   0.969  0.3654  0.2395 -0.2087
  679MOL0     C91591  10.089   6.308   0.864 -0.1753  0.5019  0.1957
  679MOL0     C91592  10.111   6.160   0.827 -0.3310  0.6207  0.1942
  679MOL0     C91593  10.177   6.139   0.683  0.3411 -0.2902 -0.4738
  679MOL0     C91594  10.307   6.214   0.651  0.5895  1.0902 -0.1742
  679MOL0     C91595  10.415   6.274   0.637 -0.1720  0.4133  0.8624
  679MOL0     C91596   9.631   6.265   0.925 -0.0865 -0.4858  0.0099
  679MOL0     C91597   9.508   6.260   0.985  0.0228  0.8287 -0.3711
  679MOL0     H91598   9.055   6.155   0.988  1.9476  0.7123 -0.1425
  679MOL0     H91599   8.833   6.158   1.056  1.3208  1.6936 -1.6230
  679MOL0     H91600   8.642   6.085   1.184 -0.6888  0.9446 -1.7671
  679MOL0     H91601   8.535   6.156   1.294 -0.6216 -0.1794 -0.3398
  679MOL0     H91602   8.676   6.312   1.064 -0.1827 -1.4163 -1.3511
  679MOL0     H91603   8.504   6.259   1.081 -0.3337 -0.3315 -0.2383
  679MOL0     H91604   8.496   6.401   1.289 -0.3686  0.1369 -0.5497
  679MOL0     H91605   8.646   6.468   1.236  1.0485 -2.0336  0.0933
  679MOL0     H91606   8.541   6.512   1.016  2.7523 -3.5829  1.0321
  679MOL0     H91607   8.380   6.502   1.094  0.5507 -0.3736  0.2460
  679MOL0     H91608   8.440   6.639   1.282 -1.2063  3.0601  0.2629
  679MOL0     H91609   8.593   6.687   1.205  0.3350  0.7465 -1.7703
  679MOL0     H91610   8.454   6.775   1.019 -2.9950 -1.6549 -2.0647
  679MOL0     H91611   8.304   6.725   1.105 -0.4450 -0.0186 -0.1353
  679MOL0     H91612   8.344   6.892   1.283 -0.6269 -0.9505  0.4996
  679MOL0     H91613   8.488   6.940   1.198  2.2576 -1.1897 -3.4593
  679MOL0     H91614   8.206   6.935   1.127  1.9196 -2.6537  3.2586
  679MOL0     H91615   8.321   6.961   0.992  0.9988  2.0955 -0.5982
  679MOL0     H91616   8.238   7.103   1.344  3.8186 -1.7753  0.8989
  679MOL0     H91617   8.237   7.365   1.436  0.2543  3.1539  1.3875
  679MOL0     H91618   8.269   7.494   1.318 -0.9100  1.5052  1.0344
  679MOL0     H91619   8.047   7.486   1.223 -4.3865 -0.1718  0.8029
  679MOL0     H91620   8.033   7.467   1.391  0.8579  0.6563  0.2769
  679MOL0     H91621   7.970   7.257   1.408 -2.5413  0.0469 -0.2062
  679MOL0     H91622   8.010   7.214   1.242  2.9000 -0.1112  1.3668
  679MOL0     H91623   7.766   7.225   1.277 -0.4947  0.6666 -3.0745
  679MOL0     H91624   7.814   7.365   1.170 -1.0583  2.1051  0.0163
  679MOL0     H91625   7.572   7.372   1.200 -0.7089  1.8284  0.3472
  679MOL0     H91626   7.346   7.339   1.147 -3.7917 -1.0206 -1.1209
  679MOL0     H91627   7.239   7.286   1.273 -0.7534 -0.5857 -2.5716
  679MOL0     H91628   7.258   7.463   1.229 -0.8770 -1.4933  0.5147
  679MOL0     H91629   6.960   7.294   1.437  0.2203  1.0832 -0.8427
  679MOL0     H91630   6.721   7.290   1.559 -2.0906  1.7355 -3.0083
  679MOL0     H91631   6.519   7.524   1.526 -2.9210 -0.5001 -0.6604
  679MOL0     H91632   6.510   7.358   1.588 -0.0954  0.6700 -2.6939
  679MOL0     H91633   6.429   7.599   1.738  0.4295 -1.0424  2.1944
  679MOL0     H91634   6.302   7.535   1.633  0.6766  1.4739 -1.5149
  679MOL0     H91635   6.445   7.364   1.848 -0.4192  1.4668  0.5387
  679MOL0     H91636   6.305   7.325   1.737  1.0442 -0.1065 -1.1090
  679MOL0     H91637   6.296   7.535   1.948 -0.2609  0.4126 -0.5614
  679MOL0     H91638   6.169   7.487   1.832 -1.2025  0.3923  0.4467
  679MOL0     H91639   6.282   7.287   2.038 -0.3263  1.9237 -0.4514
  679MOL0     H91640   6.145   7.268   1.927 -2.3460 -0.7564  1.5964
  679MOL0     H91641   6.057   7.314   2.160 -3.1329  0.7326 -1.4802
  679MOL0     H91642   6.182   7.450   2.166  0.7280  0.8816 -0.9672
  679MOL0     H91643   5.956   7.467   1.963  0.4971 -3.1796  0.4325
  679MOL0     H91644   6.064   7.583   2.050  0.1448 -0.4373  1.3011
  679MOL0     H91645   5.854   7.612   2.167 -1.9621 -1.2239  2.2423
  679MOL0     H91646   5.972   7.536   2.261 -0.4736 -0.4476  0.1625
  679MOL0     H91647   6.815   7.663   1.714 -2.6433 -0.2816 -1.8972
  679MOL0     H91648   7.037   7.657   1.612 -0.9665  0.2887  1.7914
  679MOL0     H91649   7.459   7.445   1.671 -4.1116  0.2965 -1.1608
  679MOL0     H91650   7.686   7.455   1.590  1.5474 -0.7418 -2.2809
  679MOL0     H91651   8.935   6.239   1.466  0.4246  2.5612 -0.4468
  679MOL0     H91652   9.169   6.250   1.391 -0.3427  1.1029  0.2132
  679MOL0     H91653   9.636   6.329   1.301  1.9545 -1.0104  0.1815
  679MOL0     H91654   9.820   6.354   1.182 -0.6843  2.6252 -0.5834
  679MOL0     H91655   9.959   6.440   0.988 -0.8916 -0.3399  2.5343
  679MOL0     H91656  10.004   6.280   1.060 -0.8950 -0.1460  0.0007
  679MOL0     H91657  10.183   6.342   0.907  0.0943 -0.5844  0.5123
  679MOL0     H91658  10.073   6.351   0.765 -0.7934 -2.3753 -1.0797
  679MOL0     H91659  10.010   6.118   0.818 -0.5066  1.1983 -0.6665
  679MOL0     H91660  10.158   6.096   0.901  1.3120  2.0742  0.4913
  679MOL0     H91661  10.098   6.164   0.611 -1.4593  0.7883  1.7509
  679MOL0     H91662  10.194   6.031   0.677  1.6807 -0.3121  2.3025
  679MOL0     H91663  10.514   6.313   0.622  0.9360 -2.5530 -0.4357
  679MOL0     H91664   9.628   6.224   0.824  0.0304  0.7109 -0.4958
  679MOL0     H91665   9.418   6.232   0.932 -0.0941  1.8854 -0.7641
  680MOL0     O91666   4.390  10.937   1.005  0.8316 -0.4512 -0.4888
  680MOL0     C91667   4.349  10.933   0.890  0.1252  0.0187  0.2121
  680MOL0     O91668   4.422  10.965   0.780  0.1873 -0.1914  0.1072
  680MOL0     C91669   4.545  11.030   0.780 -0.2416  0.4256  0.4412
  680MOL0     C91670   4.605  11.083   0.892  0.6153 -0.6151  0.4387
  680MOL0     C91671   4.713  11.168   0.872  0.9199  0.3009  0.1103
  680MOL0     C91672   4.776  11.173   0.743 -0.6243  0.4603  0.2840
  680MOL0     O91673   4.895  11.249   0.737  0.0651 -0.0249  0.7332
  680MOL0     C91674   4.934  11.281   0.607  0.1227  0.1111 -0.2387
  680MOL0     C91675   5.033  11.390   0.627 -0.7712  0.3990 -0.1594
  680MOL0     C91676   5.092  11.409   0.481 -0.6552  0.9478  0.4910
  680MOL0     C91677   5.211  11.505   0.495 -0.0992 -1.1043 -0.3058
  680MOL0     C91678   5.285  11.518   0.359  0.2669 -0.6141  0.6700
  680MOL0     C91679   5.219  11.634   0.274  0.1542  1.1759 -0.6010
  680MOL0     C91680   5.288  11.659   0.141 -0.2786  0.4030  0.3657
  680MOL0     C91681   5.230  11.777   0.061  1.2784 -0.3868  0.0949
  680MOL0     N91682   5.097  11.753  -0.000  0.4806 -0.0687  0.1750
  680MOL0     C91683   5.083  11.639  -0.075  0.2111 -0.8609 -1.6487
  680MOL0     C91684   4.955  11.638  -0.110 -1.0144  0.2782  0.6003
  680MOL0     C91685   4.895  11.523  -0.186 -0.3776  0.2001  0.1482
  680MOL0     C91686   4.765  11.475  -0.126 -0.0775 -0.1137  0.6519
  680MOL0     C91687   4.643  11.541  -0.192 -1.1034 -0.0446 -0.5662
  680MOL0     C91688   4.511  11.534  -0.116  1.0617  0.3759 -0.4414
  680MOL0     O91689   4.434  11.425  -0.156  0.2099 -0.2869  0.5166
  680MOL0     C91690   4.316  11.407  -0.098  0.7315  0.1869  0.1096
  680MOL0     C91691   4.263  11.279  -0.123  0.0553 -1.1332 -0.3299
  680MOL0     C91692   4.142  11.243  -0.073 -0.1378  0.2697 -0.4364
  680MOL0     C91693   4.107  11.098  -0.107  0.3619 -0.2018 -0.4694
  680MOL0     C91694   4.072  11.328   0.017  0.9818  0.1735 -0.6170
  680MOL0     C91695   3.941  11.297   0.075  0.5706 -0.2048  0.2128
  680MOL0     O91696   3.909  11.369   0.193 -0.0288  0.6733  0.4918
  680MOL0     C91697   3.778  11.393   0.230  0.1483  0.6544  0.3754
  680MOL0     C91698   3.662  11.395   0.154 -0.7902 -0.0563  0.4911
  680MOL0     C91699   3.539  11.437   0.201 -0.3382  0.2634 -0.0759
  680MOL0     C91700   3.525  11.444   0.337 -0.7646  0.5640 -0.0090
  680MOL0     O91701   3.400  11.460   0.384  0.0058  0.1424 -0.2093
  680MOL0     C91702   3.369  11.516   0.511  0.0481  0.1818 -0.2699
  680MOL0     C91703   3.238  11.599   0.510  0.0188  0.6564  0.2166
  680MOL0     C91704   3.116  11.516   0.451  0.7441 -0.1170 -1.4459
  680MOL0     C91705   2.989  11.587   0.479  0.5079 -0.1223 -0.4145
  680MOL0     C91706   2.874  11.536   0.389  0.6347 -0.4547 -1.0647
  680MOL0     C91707   2.740  11.609   0.414  0.1488 -0.8386 -0.8484
  680MOL0     C91708   2.649  11.584   0.303 -0.7354 -0.8718 -0.0889
  680MOL0     C91709   2.600  11.445   0.301  0.3283 -0.4561 -0.0322
  680MOL0    Cl91710   2.495  11.406   0.439 -0.0558  0.1936 -0.3249
  680MOL0     C91711   3.636  11.437   0.422 -0.1884  0.4450  0.0487
  680MOL0     C91712   3.758  11.409   0.366 -0.4357  0.8879  0.0703
  680MOL0     O91713   3.871  11.210   0.026 -0.1796  0.4878 -0.4698
  680MOL0     C91714   4.126  11.457   0.044 -0.2215  0.1307  0.1900
  680MOL0     C91715   4.250  11.494  -0.010  0.2011 -0.7067  0.3695
  680MOL0     N91716   4.894  11.752  -0.058 -0.4656 -0.8065 -0.0564
  680MOL0     N91717   4.981  11.831  -0.005 -0.0318 -0.0614  0.2728
  680MOL0     C91718   4.721  11.107   0.633 -1.0395  0.2061 -0.1191
  680MOL0     C91719   4.602  11.040   0.654  0.1425 -0.3496  0.6396
  680MOL0     C91720   4.207  10.894   0.860  0.6524 -0.8463  0.3465
  680MOL0     C91721   4.170  10.876   0.725 -0.0886  1.0545 -0.4899
  680MOL0     C91722   4.033  10.854   0.693  1.0073  0.3822 -0.6126
  680MOL0     C91723   3.940  10.848   0.797 -0.3645  0.5024  0.8969
  680MOL0     O91724   3.807  10.820   0.782 -0.2025 -0.0086 -0.7099
  680MOL0     C91725   3.745  10.799   0.649  0.0036 -0.1106  0.4511
  680MOL0     C91726   3.725  10.940   0.585 -0.1898 -0.1892 -0.1788
  680MOL0     C91727   3.645  11.035   0.662 -0.9794 -0.1005 -0.3589
  680MOL0     C91728   3.501  11.022   0.660  0.7063  1.0754 -0.8171
  680MOL0     C91729   3.440  11.093   0.557  0.5743 -0.0936 -0.3970
  680MOL0     C91730   3.394  11.148   0.460 -0.6543  0.6262  1.0277
  680MOL0     C91731   3.978  10.879   0.924  0.0009 -0.7906  0.2707
  680MOL0     C91732   4.111  10.899   0.960  0.5127 -0.2133  0.2815
  680MOL0     H91733   4.568  11.090   0.993 -0.8369  3.7217 -0.1622
  680MOL0     H91734   4.762  11.217   0.955 -1.4198  2.4131  0.3628
  680MOL0     H91735   4.982  11.195   0.561  1.6043  2.8450 -4.3193
  680MOL0     H91736   4.842  11.314   0.558 -0.1216 -2.7390 -1.9306
  680MOL0     H91737   4.970  11.476   0.650 -0.4293  0.3618  0.9729
  680MOL0     H91738   5.112  11.372   0.700 -0.9069  0.0397 -0.1002
  680MOL0     H91739   5.127  11.311   0.447  0.2778  1.4873 -0.1616
  680MOL0     H91740   5.011  11.436   0.413 -1.9370 -1.9328  0.7375
  680MOL0     H91741   5.178  11.605   0.524  2.3423  0.5343 -2.7083
  680MOL0     H91742   5.287  11.476   0.568  1.6227  0.6183 -1.3153
  680MOL0     H91743   5.391  11.532   0.385  0.5730  0.0069 -0.8305
  680MOL0     H91744   5.276  11.422   0.308  0.8122 -0.2741 -0.0791
  680MOL0     H91745   5.113  11.611   0.259  0.5549 -1.5378  0.2704
  680MOL0     H91746   5.225  11.728   0.330  2.0029  0.1287  1.1132
  680MOL0     H91747   5.395  11.680   0.151 -0.1063 -0.1596 -0.2187
  680MOL0     H91748   5.279  11.562   0.091 -3.2694  1.7661 -2.0629
  680MOL0     H91749   5.297  11.798  -0.022  1.0688  0.2292  0.0801
  680MOL0     H91750   5.223  11.867   0.123  1.5351 -0.9120  0.9155
  680MOL0     H91751   5.159  11.563  -0.090  0.7881 -0.3266 -1.5028
  680MOL0     H91752   4.882  11.551  -0.291  1.3702  0.6398  0.0204
  680MOL0     H91753   4.972  11.445  -0.190 -0.9500 -0.4792  1.7031
  680MOL0     H91754   4.762  11.489  -0.018  1.2198  2.2727  0.4536
  680MOL0     H91755   4.759  11.368  -0.147 -4.8797 -0.3481  1.9176
  680MOL0     H91756   4.626  11.502  -0.292 -0.2347 -0.7218 -0.4581
  680MOL0     H91757   4.664  11.649  -0.197 -1.9922  0.1797  0.1623
  680MOL0     H91758   4.449  11.618  -0.149  1.6776  1.1136  0.2377
  680MOL0     H91759   4.529  11.543  -0.008  0.5775  1.9038 -0.4666
  680MOL0     H91760   4.313  11.219  -0.198 -3.2486 -3.3343 -1.0305
  680MOL0     H91761   4.186  11.034  -0.146  0.9625  0.8284 -0.9807
  680MOL0     H91762   4.064  11.042  -0.023  3.2161 -2.2452 -0.2569
  680MOL0     H91763   4.028  11.106  -0.183  0.4840 -1.4362 -0.7521
  680MOL0     H91764   3.669  11.361   0.052  1.5665 -0.2548  0.6736
  680MOL0     H91765   3.457  11.453   0.132 -0.4262  1.4249  0.2802
  680MOL0     H91766   3.344  11.430   0.573 -0.5811  0.2293 -0.4447
  680MOL0     H91767   3.452  11.565   0.562 -1.6740  1.4097  1.5202
  680MOL0     H91768   3.209  11.628   0.612 -0.6890 -0.3069  0.3139
  680MOL0     H91769   3.240  11.693   0.454 -1.6063  0.6734  0.1337
  680MOL0     H91770   3.122  11.410   0.473  0.5728 -0.2130 -1.8481
  680MOL0     H91771   3.131  11.526   0.343  0.7209 -0.2776 -1.4629
  680MOL0     H91772   2.965  11.578   0.586  0.4940 -0.8711 -0.4733
  680MOL0     H91773   3.007  11.692   0.457 -1.5733  0.8314  1.8760
  680MOL0     H91774   2.858  11.432   0.417  1.3140 -0.4274 -0.5526
  680MOL0     H91775   2.899  11.540   0.283 -1.8147  1.5011 -1.6565
  680MOL0     H91776   2.691  11.586   0.509 -0.1504  0.1853 -0.7431
  680MOL0     H91777   2.772  11.714   0.415  1.4159 -1.2279  0.0742
  680MOL0     H91778   2.700  11.606   0.208  0.3632 -1.0122  0.4542
  680MOL0     H91779   2.557  11.643   0.300  0.3886  0.9316 -0.4016
  680MOL0     H91780   2.688  11.380   0.295  0.9652  0.1513  1.9911
  680MOL0     H91781   2.544  11.437   0.208 -0.0840 -0.8711  0.2415
  680MOL0     H91782   3.633  11.422   0.530  0.3428 -3.7550 -0.3272
  680MOL0     H91783   3.847  11.397   0.428 -0.1180  3.0905  0.1422
  680MOL0     H91784   4.079  11.534   0.104  0.1206 -0.3784  1.1233
  680MOL0     H91785   4.290  11.593   0.011 -1.2990 -0.7537  4.0510
  680MOL0     H91786   4.764  11.095   0.534  1.0310 -2.2749  0.9788
  680MOL0     H91787   4.548  10.984   0.578 -0.5103  1.0563  0.0355
  680MOL0     H91788   4.255  10.862   0.658  2.4759  0.5954  2.6153
  680MOL0     H91789   4.011  10.848   0.587 -2.2655  0.5410 -0.0615
  680MOL0     H91790   3.802  10.734   0.582  0.2924  3.9365 -3.7431
  680MOL0     H91791   3.642  10.761   0.659  0.6122 -2.5029 -1.3655
  680MOL0     H91792   3.698  10.944   0.479  2.0338  0.1565 -0.7885
  680MOL0     H91793   3.824  10.986   0.577 -0.3054  0.2669  0.8486
  680MOL0     H91794   3.670  11.131   0.616  5.0435 -1.4981 -0.8188
  680MOL0     H91795   3.680  11.038   0.766  0.3486  2.0964 -0.8063
  680MOL0     H91796   3.464  11.066   0.753  0.4688 -0.8306  0.0594
  680MOL0     H91797   3.476  10.915   0.662 -0.5889  1.3356  1.2986
  680MOL0     H91798   3.352  11.179   0.367  1.8844 -1.4747 -0.9508
  680MOL0     H91799   3.900  10.897   0.997  0.4760  0.6528  0.4603
  680MOL0     H91800   4.132  10.915   1.066  0.3052 -4.3785  1.1148
  681MOL0     O91801   3.936   2.064   3.065 -0.0664  0.5927 -0.0010
  681MOL0     C91802   3.937   2.118   2.956  0.4937 -0.3717  0.4706
  681MOL0     O91803   3.841   2.090   2.854 -0.2041 -0.3221  0.0101
  681MOL0     C91804   3.758   1.988   2.877  0.6114  0.2836  0.8931
  681MOL0     C91805   3.628   2.010   2.921  0.0543 -0.3043  0.1777
  681MOL0     C91806   3.540   1.903   2.927  0.2524  0.0085 -0.0365
  681MOL0     C91807   3.583   1.773   2.909 -0.0785  0.4604  0.9479
  681MOL0     O91808   3.507   1.660   2.930 -0.6718  0.0069  0.1368
  681MOL0     C91809   3.369   1.679   2.959  0.0963  0.7482  0.3696
  681MOL0     C91810   3.288   1.556   2.980 -0.7744  0.3732  0.3227
  681MOL0     C91811   3.146   1.585   3.029  0.0174 -0.0790  0.3984
  681MOL0     C91812   3.074   1.705   2.982 -0.3901 -0.0292  0.0216
  681MOL0     C91813   2.932   1.722   3.021 -0.5811 -0.2563  0.0799
  681MOL0     C91814   2.898   1.687   3.166 -0.5187  0.7289  0.4663
  681MOL0     C91815   2.741   1.696   3.179  0.0675 -0.0553  0.6044
  681MOL0     C91816   2.698   1.646   3.314  0.0564 -0.2034  0.7489
  681MOL0     N91817   2.559   1.680   3.347 -0.1555 -0.1837  0.0913
  681MOL0     C91818   2.504   1.805   3.387 -0.9758 -1.4570 -0.4483
  681MOL0     C91819   2.391   1.781   3.448  0.3534  0.7413 -0.3921
  681MOL0     C91820   2.308   1.885   3.515 -1.0687  0.2113  0.4014
  681MOL0     C91821   2.208   1.935   3.406 -0.0598  0.6952 -0.1320
  681MOL0     C91822   2.143   2.066   3.446 -0.1480  0.2321  0.4708
  681MOL0     C91823   2.033   2.058   3.555  0.2838 -0.1117 -0.8314
  681MOL0     O91824   1.969   2.188   3.588  0.0295  0.9466  0.1681
  681MOL0     C91825   1.845   2.204   3.529  0.0451  0.2598 -0.0105
  681MOL0     C91826   1.804   2.150   3.408 -0.2029 -0.2422  0.5666
  681MOL0     C91827   1.683   2.173   3.345  0.0864 -0.0125  0.9744
  681MOL0     C91828   1.656   2.131   3.197 -0.9152  0.5821 -0.3826
  681MOL0     C91829   1.591   2.245   3.426  0.5077  0.2135  0.7121
  681MOL0     C91830   1.454   2.272   3.383  0.4024  0.4946 -0.2231
  681MOL0     O91831   1.363   2.260   3.488  0.1795 -0.4746  0.3114
  681MOL0     C91832   1.228   2.270   3.455  0.2781  0.5308 -0.5775
  681MOL0     C91833   1.171   2.375   3.382  0.0353 -0.1506  0.9979
  681MOL0     C91834   1.038   2.380   3.343 -0.2804  0.3624  0.2197
  681MOL0     C91835   0.954   2.279   3.407 -0.0990  0.2967  0.7186
  681MOL0     O91836   0.817   2.275   3.392 -0.2753  0.1739  0.9042
  681MOL0     C91837   0.746   2.353   3.489  0.5938 -0.5186  0.5784
  681MOL0     C91838   0.678   2.260   3.594 -0.3192  0.1337  0.7048
  681MOL0     C91839   0.573   2.163   3.542  1.1968 -0.2449 -0.2169
  681MOL0     C91840   0.438   2.244   3.552  0.0788  0.2678 -0.1078
  681MOL0     C91841   0.340   2.164   3.466 -0.9195 -0.3270 -0.1657
  681MOL0     C91842   0.209   2.226   3.465  0.2545  0.0111 -1.0749
  681MOL0     C91843   0.113   2.149   3.363  0.0433 -0.6550  0.0013
  681MOL0     C91844  -0.025   2.216   3.360  0.0155  0.2202 -0.3387
  681MOL0    Cl91845  -0.067   2.232   3.533  0.2690  0.4125 -0.0337
  681MOL0     C91846   1.013   2.177   3.487  0.2840 -0.3497 -0.3719
  681MOL0     C91847   1.147   2.178   3.514  0.1148  0.6581 -0.1134
  681MOL0     O91848   1.433   2.292   3.265 -0.3365 -0.5447  0.5255
  681MOL0     C91849   1.627   2.300   3.544  0.4705 -0.3664  0.2137
  681MOL0     C91850   1.756   2.284   3.601  0.1841  0.5673  0.9444
  681MOL0     N91851   2.361   1.647   3.428 -0.3207  0.1520 -1.1364
  681MOL0     N91852   2.464   1.588   3.378 -0.1710  0.0101  0.0006
  681MOL0     C91853   3.711   1.753   2.862  0.0667 -0.0610  0.2960
  681MOL0     C91854   3.796   1.860   2.837 -0.1970 -0.3319  0.3335
  681MOL0     C91855   4.017   2.240   2.936  0.0234  0.2697  0.4027
  681MOL0     C91856   4.113   2.270   3.029  0.5489 -0.4780  0.4646
  681MOL0     C91857   4.197   2.377   3.013 -0.3467  0.2208  0.6154
  681MOL0     C91858   4.184   2.462   2.899  0.6140 -0.6790  0.0767
  681MOL0     O91859   4.266   2.570   2.874 -0.7349 -1.5276  0.5133
  681MOL0     C91860   4.370   2.609   2.966  0.6200 -0.3270 -0.2983
  681MOL0     C91861   4.492   2.528   2.939 -0.7777  0.3082  0.3034
  681MOL0     C91862   4.565   2.565   2.802 -1.2161 -0.0906 -1.4570
  681MOL0     C91863   4.659   2.687   2.817 -0.5236 -0.2118 -0.0525
  681MOL0     C91864   4.756   2.709   2.710 -0.8529 -0.0213 -0.8016
  681MOL0     C91865   4.830   2.733   2.618  0.1730 -0.5447  0.3883
  681MOL0     C91866   4.080   2.442   2.813  0.7835  0.0319  0.4221
  681MOL0     C91867   3.996   2.323   2.824 -0.0579  0.2171  0.4285
  681MOL0     H91868   3.587   2.105   2.953 -1.1221 -1.3600  1.9519
  681MOL0     H91869   3.440   1.925   2.961  0.4021 -1.0093  1.1459
  681MOL0     H91870   3.377   1.750   3.042  1.2351  0.7015  0.3183
  681MOL0     H91871   3.326   1.725   2.870 -2.6142  2.2086  2.2745
  681MOL0     H91872   3.281   1.509   2.881  2.8449 -0.8548  0.4946
  681MOL0     H91873   3.340   1.496   3.055 -1.2336  1.1967  1.3150
  681MOL0     H91874   3.080   1.499   3.017  1.3638 -1.0717 -0.1043
  681MOL0     H91875   3.165   1.591   3.137  2.8108 -4.6074  0.4396
  681MOL0     H91876   3.128   1.788   3.030 -2.1163  1.1738 -0.0365
  681MOL0     H91877   3.092   1.721   2.875  1.5523  4.3690  0.7600
  681MOL0     H91878   2.906   1.826   2.999 -0.4102 -0.6382 -2.2097
  681MOL0     H91879   2.875   1.663   2.948  1.0311 -0.2692 -1.2248
  681MOL0     H91880   2.929   1.585   3.190 -1.1505  0.7496  1.4494
  681MOL0     H91881   2.953   1.750   3.237  1.6118  0.9986 -1.3164
  681MOL0     H91882   2.723   1.804   3.172  1.6921  0.1154 -2.9466
  681MOL0     H91883   2.693   1.646   3.094  0.5756 -0.0128  0.2893
  681MOL0     H91884   2.762   1.701   3.384 -0.1430  3.7488 -1.8537
  681MOL0     H91885   2.707   1.537   3.321 -4.0827 -0.6148  3.1211
  681MOL0     H91886   2.549   1.903   3.391 -1.5502 -1.2031 -0.2177
  681MOL0     H91887   2.270   1.835   3.605  0.0429 -4.1524 -1.2599
  681MOL0     H91888   2.377   1.962   3.551 -0.1830 -0.2093 -0.3491
  681MOL0     H91889   2.128   1.866   3.376  0.1091  0.4039  0.0884
  681MOL0     H91890   2.267   1.963   3.318  0.7079 -1.3435 -0.3169
  681MOL0     H91891   2.105   2.122   3.360 -1.3995  0.4623  1.1471
  681MOL0     H91892   2.226   2.127   3.481  0.8537 -0.3624 -0.7818
  681MOL0     H91893   2.082   2.015   3.643 -0.0860  0.7798 -0.1781
  681MOL0     H91894   1.956   1.984   3.533 -0.1370 -0.7978  2.4322
  681MOL0     H91895   1.885   2.095   3.361 -0.8778  0.7812 -1.9473
  681MOL0     H91896   1.668   2.220   3.135  0.5277 -0.0878 -1.0936
  681MOL0     H91897   1.726   2.059   3.156 -1.4242 -1.5397  2.2045
  681MOL0     H91898   1.562   2.075   3.190  0.4354 -2.2691  2.0453
  681MOL0     H91899   1.233   2.455   3.342 -0.6423  0.2667  0.7824
  681MOL0     H91900   1.002   2.446   3.265  2.2784 -1.2106 -2.5095
  681MOL0     H91901   0.805   2.436   3.530  2.2196 -1.4168  0.1312
  681MOL0     H91902   0.661   2.406   3.446  0.9655 -0.1235  0.3153
  681MOL0     H91903   0.756   2.196   3.635  1.1371  0.8645 -0.7927
  681MOL0     H91904   0.636   2.318   3.676 -0.1505  1.0117  0.1938
  681MOL0     H91905   0.576   2.076   3.609  0.1993  1.1308  1.7228
  681MOL0     H91906   0.591   2.144   3.436 -0.2278  1.4560 -0.8200
  681MOL0     H91907   0.408   2.253   3.657 -2.6866  0.6361 -0.8445
  681MOL0     H91908   0.452   2.345   3.510  1.7763  0.2091  0.2227
  681MOL0     H91909   0.325   2.062   3.502  4.1522 -1.0255  0.7415
  681MOL0     H91910   0.371   2.155   3.361 -4.1574  0.6507 -1.3263
  681MOL0     H91911   0.167   2.224   3.566  1.5352 -0.9617 -0.5387
  681MOL0     H91912   0.218   2.329   3.431  0.2301  1.1888  2.1196
  681MOL0     H91913   0.091   2.045   3.386 -0.0199 -0.3105  1.6792
  681MOL0     H91914   0.159   2.157   3.264  0.1589 -0.5630  0.0622
  681MOL0     H91915  -0.106   2.158   3.316 -0.4438  0.9033 -0.4136
  681MOL0     H91916  -0.023   2.312   3.308  1.4457  0.6878  0.5020
  681MOL0     H91917   0.958   2.103   3.545 -0.2589  0.2253 -0.1372
  681MOL0     H91918   1.185   2.110   3.589  0.7085  1.6954  0.5495
  681MOL0     H91919   1.561   2.361   3.605  2.6719  1.7692  0.6281
  681MOL0     H91920   1.792   2.336   3.690  3.4428  0.6689 -0.3222
  681MOL0     H91921   3.743   1.655   2.829 -0.1054 -0.0174 -0.0083
  681MOL0     H91922   3.898   1.852   2.799 -1.2763 -1.5176 -2.6359
  681MOL0     H91923   4.121   2.204   3.115 -1.5804 -1.3506  0.0451
  681MOL0     H91924   4.276   2.395   3.084 -0.8247 -0.7911  1.4350
  681MOL0     H91925   4.393   2.715   2.950 -1.5528  0.1694 -0.4118
  681MOL0     H91926   4.340   2.598   3.071  1.9011  3.4020  0.6453
  681MOL0     H91927   4.469   2.421   2.950  0.2827  0.2501  2.3489
  681MOL0     H91928   4.560   2.545   3.022 -2.6829  2.7428  1.4890
  681MOL0     H91929   4.505   2.587   2.713  1.8857  0.5323 -3.5236
  681MOL0     H91930   4.619   2.475   2.773 -2.1977 -0.9407 -0.7279
  681MOL0     H91931   4.709   2.687   2.914  0.3501 -1.1118 -0.4865
  681MOL0     H91932   4.600   2.779   2.822  0.8585  0.6225  2.2156
  681MOL0     H91933   4.894   2.762   2.537  1.2048  1.0812  1.7318
  681MOL0     H91934   4.053   2.511   2.734  2.5491  0.8814  0.5360
  681MOL0     H91935   3.917   2.294   2.756 -0.8245 -1.5051  1.9682
  682MOL0     O91936   1.758   8.391   0.910 -0.4346  0.1217 -0.0047
  682MOL0     C91937   1.818   8.285   0.894  0.3927  0.0476  0.5315
  682MOL0     O91938   1.763   8.159   0.915  0.5306  0.3510  0.2247
  682MOL0     C91939   1.632   8.160   0.955  0.0580  0.6771 -0.2156
  682MOL0     C91940   1.619   8.158   1.092 -0.6996 -0.0194 -1.4985
  682MOL0     C91941   1.503   8.153   1.160  0.1443 -0.4894 -0.4160
  682MOL0     C91942   1.385   8.140   1.082 -0.1325  0.2194  0.0251
  682MOL0     O91943   1.279   8.133   1.164  0.1339 -0.1834  0.9583
  682MOL0     C91944   1.157   8.127   1.103  0.3467 -0.3320  0.7286
  682MOL0     C91945   1.056   8.141   1.217  0.2157  0.1541  1.1487
  682MOL0     C91946   0.910   8.128   1.175 -0.2237  0.3562  0.1505
  682MOL0     C91947   0.827   8.130   1.307  0.1482 -0.3997  0.0112
  682MOL0     C91948   0.684   8.081   1.282  0.4491  0.4476  0.0643
  682MOL0     C91949   0.680   7.938   1.227 -0.2267  1.0184  0.8063
  682MOL0     C91950   0.539   7.875   1.235  0.2707  0.0049 -0.7825
  682MOL0     C91951   0.522   7.769   1.355 -0.1141  1.1072 -0.8600
  682MOL0     N91952   0.406   7.684   1.316 -0.2452  0.1852  0.1741
  682MOL0     C91953   0.275   7.725   1.343  0.8898 -0.1389 -0.2045
  682MOL0     C91954   0.208   7.614   1.310  0.3845 -0.4046 -0.0404
  682MOL0     C91955   0.052   7.594   1.311 -1.0394 -0.5728 -0.0941
  682MOL0     C91956   0.027   7.475   1.212 -0.2028 -0.4290 -0.9210
  682MOL0     C91957  -0.133   7.442   1.217 -0.0582  0.4567  0.6553
  682MOL0     C91958  -0.211   7.556   1.143 -0.0679  0.7558  0.2616
  682MOL0     O91959  -0.344   7.515   1.134  0.0080 -0.6221  0.3257
  682MOL0     C91960  -0.424   7.527   1.244 -0.5651  0.7315  0.8626
  682MOL0     C91961  -0.550   7.470   1.239 -0.2441  0.6516 -0.6422
  682MOL0     C91962  -0.638   7.480   1.346  0.2680  0.3195 -0.7108
  682MOL0     C91963  -0.762   7.394   1.327  0.4317 -0.1898  0.1070
  682MOL0     C91964  -0.599   7.560   1.449  0.2115 -0.4188  0.0459
  682MOL0     C91965  -0.697   7.595   1.555 -0.8943 -0.2288 -0.0265
  682MOL0     O91966  -0.695   7.728   1.597  0.2824 -0.0615 -0.3893
  682MOL0     C91967  -0.790   7.773   1.688 -0.3390 -0.1624  0.3557
  682MOL0     C91968  -0.811   7.701   1.801  0.6893 -0.2520 -1.4358
  682MOL0     C91969  -0.895   7.751   1.901  0.8612  0.2705 -0.1752
  682MOL0     C91970  -0.972   7.868   1.877  0.9898 -0.0541  0.1613
  682MOL0     O91971  -1.055   7.924   1.967  0.3570  0.3586  0.5558
  682MOL0     C91972  -1.181   7.863   1.982 -0.1094 -0.3783  0.7215
  682MOL0     C91973  -1.268   7.925   2.097 -0.8033 -0.2770 -0.7460
  682MOL0     C91974  -1.388   7.834   2.122 -0.5212  0.5963  0.2335
  682MOL0     C91975  -1.483   7.867   2.238  0.0528  0.1750  0.7035
  682MOL0     C91976  -1.606   7.772   2.223  0.1651 -0.1588 -0.1071
  682MOL0     C91977  -1.700   7.766   2.346 -0.6090  0.3600 -0.0582
  682MOL0     C91978  -1.771   7.905   2.374  1.0506  0.3919 -0.7345
  682MOL0     C91979  -1.884   7.893   2.479 -0.7709 -0.3584  0.1695
  682MOL0    Cl91980  -1.990   7.747   2.449  0.1156  0.0311  0.1149
  682MOL0     C91981  -0.943   7.949   1.761  1.1690  0.4904  0.3699
  682MOL0     C91982  -0.846   7.896   1.665  0.2434 -0.8048  0.0158
  682MOL0     O91983  -0.778   7.503   1.587 -0.1959 -0.5630 -0.3335
  682MOL0     C91984  -0.473   7.616   1.458  0.1881  0.3303 -1.5822
  682MOL0     C91985  -0.380   7.593   1.360 -0.0288 -0.4201 -0.9056
  682MOL0     N91986   0.294   7.511   1.282  0.3375 -0.2838  0.5207
  682MOL0     N91987   0.414   7.549   1.294 -0.1281  0.1529 -0.0535
  682MOL0     C91988   1.392   8.137   0.946 -0.3799  0.0201  0.4025
  682MOL0     C91989   1.515   8.140   0.881 -0.2769  0.2189  0.4971
  682MOL0     C91990   1.955   8.292   0.851 -0.7216  0.1842  0.3172
  682MOL0     C91991   2.013   8.169   0.818 -0.8623  0.3290  0.6134
  682MOL0     C91992   2.150   8.168   0.790  1.0984 -0.0761  0.7287
  682MOL0     C91993   2.227   8.285   0.788  0.1533 -0.3730 -0.6731
  682MOL0     O91994   2.358   8.277   0.750 -0.6020  0.1534  0.4639
  682MOL0     C91995   2.449   8.387   0.773 -0.2599 -0.0512  0.2650
  682MOL0     C91996   2.592   8.349   0.730  0.2060  0.8627 -0.8978
  682MOL0     C91997   2.661   8.247   0.818  0.3140  0.5323 -0.3431
  682MOL0     C91998   2.804   8.210   0.777  0.8785  0.3713 -0.1172
  682MOL0     C91999   2.888   8.329   0.757 -0.3975 -0.3383  0.0293
  682MOL0     C92000   2.970   8.421   0.746 -0.0266  0.0979  0.3266
  682MOL0     C92001   2.163   8.408   0.821 -0.4925 -0.5821 -0.6262
  682MOL0     C92002   2.034   8.410   0.859 -0.3762  0.0696  0.4907
  682MOL0     H92003   1.704   8.161   1.160 -1.1464  2.0615 -0.9703
  682MOL0     H92004   1.506   8.158   1.268  1.7191 -0.5807 -0.4405
  682MOL0     H92005   1.144   8.209   1.033  2.1139 -1.6838 -1.3326
  682MOL0     H92006   1.145   8.034   1.047 -2.0995  0.3731 -0.0163
  682MOL0     H92007   1.075   8.062   1.290 -0.7901 -0.8494  0.3506
  682MOL0     H92008   1.070   8.241   1.261  1.5291  1.0304 -1.1138
  682MOL0     H92009   0.877   8.218   1.123 -1.6877 -0.5155 -0.5085
  682MOL0     H92010   0.897   8.032   1.125  0.6775  1.2477 -1.9215
  682MOL0     H92011   0.876   8.065   1.380  2.6661  1.6342  0.2710
  682MOL0     H92012   0.832   8.234   1.340 -0.1739 -0.7085  1.1020
  682MOL0     H92013   0.624   8.088   1.373  0.8751 -0.5477  0.4367
  682MOL0     H92014   0.639   8.146   1.207  1.0691  0.6492 -0.1416
  682MOL0     H92015   0.710   7.932   1.122  0.7691 -1.9848  1.1591
  682MOL0     H92016   0.754   7.874   1.278  0.7814  0.4184 -1.2986
  682MOL0     H92017   0.458   7.949   1.228 -2.0951 -2.4889 -1.5770
  682MOL0     H92018   0.519   7.818   1.144 -0.2568 -2.7236  0.9315
  682MOL0     H92019   0.505   7.804   1.458 -0.8344 -3.5352  0.8345
  682MOL0     H92020   0.613   7.709   1.357 -0.3163  0.7361 -2.1612
  682MOL0     H92021   0.230   7.820   1.368  0.8067 -0.4472  0.8705
  682MOL0     H92022   0.025   7.581   1.416 -0.6408  1.0678  0.2502
  682MOL0     H92023  -0.010   7.678   1.279  0.2840  1.1845  1.6791
  682MOL0     H92024   0.097   7.399   1.248 -0.0034  0.5148  0.8025
  682MOL0     H92025   0.062   7.496   1.111  2.7125  0.9463  0.2462
  682MOL0     H92026  -0.181   7.420   1.312 -0.1221  2.9204  1.2482
  682MOL0     H92027  -0.149   7.348   1.162  0.1048  1.2525 -0.8048
  682MOL0     H92028  -0.157   7.568   1.049 -3.4555  0.7477 -1.8331
  682MOL0     H92029  -0.192   7.657   1.181  3.0109  2.1068 -4.1287
  682MOL0     H92030  -0.576   7.406   1.155  0.3516  0.0043 -0.3468
  682MOL0     H92031  -0.854   7.446   1.351 -0.6572 -2.1783  0.4853
  682MOL0     H92032  -0.771   7.362   1.223 -2.3952  1.8818 -0.3915
  682MOL0     H92033  -0.760   7.309   1.397 -0.6796  1.3937  2.1616
  682MOL0     H92034  -0.757   7.607   1.807 -1.1548 -1.2729  0.5098
  682MOL0     H92035  -0.904   7.698   1.996  0.1950  2.0833  0.8132
  682MOL0     H92036  -1.236   7.883   1.890  1.4089 -1.8375 -0.5615
  682MOL0     H92037  -1.172   7.755   1.976 -0.1819 -0.3115 -1.2113
  682MOL0     H92038  -1.212   7.932   2.191 -2.6856  1.6767  0.3238
  682MOL0     H92039  -1.307   8.023   2.069 -0.5630  0.2701  0.6892
  682MOL0     H92040  -1.357   7.729   2.126 -2.9260 -0.2422 -1.1882
  682MOL0     H92041  -1.441   7.835   2.026 -1.0433 -0.0853  0.5054
  682MOL0     H92042  -1.448   7.847   2.340 -0.8121  0.8190  1.1401
  682MOL0     H92043  -1.537   7.962   2.233 -3.3515 -1.6694 -1.4118
  682MOL0     H92044  -1.569   7.672   2.203  0.7323 -0.1168  0.6895
  682MOL0     H92045  -1.662   7.808   2.136  1.9046 -1.9855 -2.0858
  682MOL0     H92046  -1.767   7.685   2.316 -0.3251 -1.1664  3.0488
  682MOL0     H92047  -1.651   7.740   2.440 -2.5321  0.1638  0.9478
  682MOL0     H92048  -1.805   7.960   2.286  0.7539 -0.3712 -1.0975
  682MOL0     H92049  -1.697   7.972   2.419 -1.0547  2.2698  0.1361
  682MOL0     H92050  -1.947   7.982   2.475  0.2646  0.3642 -0.6094
  682MOL0     H92051  -1.849   7.877   2.581 -0.5696 -0.5871  0.0678
  682MOL0     H92052  -0.987   8.048   1.745  0.9135  0.4464  0.7995
  682MOL0     H92053  -0.802   7.959   1.589  0.2306  3.0158  2.8833
  682MOL0     H92054  -0.446   7.687   1.536  1.6803 -1.5381 -0.2951
  682MOL0     H92055  -0.285   7.646   1.362 -0.4626  0.5117  3.3672
  682MOL0     H92056   1.293   8.129   0.903 -1.1635 -1.1244  2.3439
  682MOL0     H92057   1.521   8.130   0.773  0.8261  2.9694  0.2187
  682MOL0     H92058   1.954   8.078   0.819 -2.1015  1.0463 -1.5320
  682MOL0     H92059   2.195   8.071   0.773 -0.9783 -0.7919 -1.0832
  682MOL0     H92060   2.411   8.471   0.715 -1.0763 -0.2073  0.5586
  682MOL0     H92061   2.454   8.416   0.879  1.1709  1.2624 -0.1166
  682MOL0     H92062   2.650   8.441   0.720  0.3958  1.5700  4.3059
  682MOL0     H92063   2.583   8.298   0.633  0.4648 -0.6990 -0.1313
  682MOL0     H92064   2.603   8.154   0.818 -1.0969  1.3858 -0.3455
  682MOL0     H92065   2.669   8.290   0.918 -1.4647  0.4868 -0.1505
  682MOL0     H92066   2.800   8.150   0.685  1.4665 -2.4129  1.5511
  682MOL0     H92067   2.864   8.155   0.850  1.6207 -0.0029 -0.9773
  682MOL0     H92068   3.043   8.500   0.747  0.9439 -0.7716  0.1467
  682MOL0     H92069   2.215   8.502   0.827 -1.1920 -0.2452  0.4811
  682MOL0     H92070   1.979   8.495   0.898 -4.3144 -1.1472 -1.8695
  683MOL0     O92071   4.573   0.979   1.377  0.5865  0.2208 -0.7930
  683MOL0     C92072   4.642   0.901   1.449  0.1015 -0.8286 -0.0337
  683MOL0     O92073   4.590   0.792   1.526  0.1396 -0.3191 -0.2466
  683MOL0     C92074   4.454   0.773   1.525  0.5229  0.7007 -1.2757
  683MOL0     C92075   4.390   0.754   1.403  0.2842 -0.0969 -0.2087
  683MOL0     C92076   4.248   0.723   1.401  1.0551  1.2462  0.2691
  683MOL0     C92077   4.178   0.703   1.526 -0.3351 -0.4076 -0.5824
  683MOL0     O92078   4.046   0.677   1.524 -0.2963  0.2848 -0.6903
  683MOL0     C92079   3.990   0.599   1.633  0.4212 -0.1850  0.2116
  683MOL0     C92080   3.865   0.516   1.598 -0.1567  0.0071 -0.2421
  683MOL0     C92081   3.743   0.604   1.574 -0.1325  0.0940 -0.4599
  683MOL0     C92082   3.621   0.503   1.578 -0.4670  0.1864 -0.1374
  683MOL0     C92083   3.487   0.571   1.602 -0.1558  0.0416  0.3242
  683MOL0     C92084   3.382   0.468   1.632  0.1174 -0.4625 -0.2195
  683MOL0     C92085   3.243   0.527   1.679 -1.0000 -0.3985 -0.1105
  683MOL0     C92086   3.131   0.415   1.706 -0.8611 -0.6234  0.0139
  683MOL0     N92087   3.154   0.343   1.833 -0.2632  0.4591  0.0584
  683MOL0     C92088   3.181   0.378   1.965 -0.0511 -0.0963  1.0692
  683MOL0     C92089   3.245   0.267   2.018 -0.3675 -0.0796 -0.2981
  683MOL0     C92090   3.290   0.250   2.170 -0.3164  0.2443 -0.0565
  683MOL0     C92091   3.266   0.105   2.215  0.6132 -0.0053  0.0793
  683MOL0     C92092   3.313   0.083   2.357 -0.1927 -0.6858 -0.1980
  683MOL0     C92093   3.455   0.101   2.384  0.0613  0.1803  0.1406
  683MOL0     O92094   3.531   0.011   2.307 -0.2057  0.2610 -0.6772
  683MOL0     C92095   3.658  -0.004   2.339 -0.2297  0.3593  0.4625
  683MOL0     C92096   3.717   0.048   2.455  0.4428 -0.3616  0.1025
  683MOL0     C92097   3.851   0.039   2.473  0.0054  0.0670 -0.6680
  683MOL0     C92098   3.913   0.105   2.600 -0.2047 -0.3491  0.0522
  683MOL0     C92099   3.935  -0.031   2.380  0.3799  0.4353 -0.3640
  683MOL0     C92100   4.084  -0.041   2.378  0.2696 -0.3769 -0.2829
  683MOL0     O92101   4.145  -0.051   2.255 -0.3920  0.3011  0.0364
  683MOL0     C92102   4.284  -0.056   2.258 -0.0121 -0.1077 -0.6310
  683MOL0     C92103   4.343  -0.150   2.178 -0.3881 -0.3200  0.0526
  683MOL0     C92104   4.482  -0.145   2.173  0.0208  0.1277 -0.7555
  683MOL0     C92105   4.560  -0.046   2.220  0.0140 -0.3427  0.4485
  683MOL0     O92106   4.692  -0.056   2.194 -0.6689 -0.2610  0.1454
  683MOL0     C92107   4.789   0.008   2.286  0.5005  0.3459  0.2749
  683MOL0     C92108   4.932  -0.029   2.230  0.0529  0.4021  0.1082
  683MOL0     C92109   5.005  -0.112   2.343 -0.2094 -0.5035  0.0768
  683MOL0     C92110   5.139  -0.160   2.293 -0.8009  0.0898  0.7141
  683MOL0     C92111   5.211  -0.257   2.392  0.7566  0.4589  0.9859
  683MOL0     C92112   5.252  -0.184   2.529  0.3141  0.0054  0.0562
  683MOL0     C92113   5.325  -0.278   2.629  0.0711  1.1248 -0.7812
  683MOL0     C92114   5.238  -0.401   2.659  0.5362  0.2915  0.4207
  683MOL0    Cl92115   5.097  -0.360   2.759  0.1454 -0.0437  0.0589
  683MOL0     C92116   4.497   0.048   2.300 -0.5386 -0.3949  0.2558
  683MOL0     C92117   4.364   0.043   2.322  0.5900 -0.4851  0.6494
  683MOL0     O92118   4.144  -0.027   2.484 -0.4153 -0.0155 -1.1213
  683MOL0     C92119   3.865  -0.099   2.273 -0.7485 -0.2909  1.0470
  683MOL0     C92120   3.729  -0.077   2.249  0.0658  0.0376 -0.7913
  683MOL0     N92121   3.237   0.167   1.930  0.0869  1.2457  0.3999
  683MOL0     N92122   3.180   0.209   1.820 -0.3060  0.2898 -0.1323
  683MOL0     C92123   4.251   0.721   1.645 -0.0739 -1.1523 -1.0141
  683MOL0     C92124   4.389   0.741   1.645  0.4112  0.2151 -0.6558
  683MOL0     C92125   4.780   0.938   1.475  0.2525  0.4065  0.1331
  683MOL0     C92126   4.824   1.069   1.432 -0.0149  0.9215  0.4308
  683MOL0     C92127   4.956   1.107   1.451 -0.0348 -0.1294  0.3419
  683MOL0     C92128   5.048   1.015   1.515  0.5098  0.5775 -0.2084
  683MOL0     O92129   5.174   1.041   1.532  0.0639 -0.4084 -0.2900
  683MOL0     C92130   5.251   0.999   1.419 -0.3417 -0.2004 -0.4468
  683MOL0     C92131   5.399   1.009   1.448  0.2261 -0.5413 -0.0478
  683MOL0     C92132   5.450   0.893   1.539 -0.6776 -0.3228  0.0840
  683MOL0     C92133   5.582   0.918   1.601 -0.1434  0.5419  0.2767
  683MOL0     C92134   5.694   0.925   1.507 -0.4858 -0.5855 -0.1088
  683MOL0     C92135   5.796   0.920   1.446 -0.6769 -0.0276  0.1212
  683MOL0     C92136   5.006   0.888   1.553 -0.8161  0.6356 -0.0418
  683MOL0     C92137   4.870   0.846   1.543  0.0889  0.2965  0.1721
  683MOL0     H92138   4.439   0.771   1.307  1.3552 -1.3047  0.0925
  683MOL0     H92139   4.196   0.719   1.306 -0.3122 -1.7567  1.0461
  683MOL0     H92140   4.063   0.549   1.697  1.1323  0.5825  0.0101
  683MOL0     H92141   3.952   0.672   1.705  0.5396 -0.7489  0.8662
  683MOL0     H92142   3.877   0.445   1.515 -0.8387 -0.3248 -0.0629
  683MOL0     H92143   3.849   0.456   1.687  0.2490  1.0036  0.5186
  683MOL0     H92144   3.739   0.672   1.660 -0.5088 -1.6439  0.9683
  683MOL0     H92145   3.744   0.660   1.481 -1.7859  3.7773  1.5091
  683MOL0     H92146   3.631   0.453   1.481  1.1807 -1.5375  0.8560
  683MOL0     H92147   3.637   0.432   1.659 -0.6299  1.6290  1.2077
  683MOL0     H92148   3.480   0.643   1.684  2.8576  2.9545 -1.7117
  683MOL0     H92149   3.465   0.625   1.509  1.7745  1.0418  0.3888
  683MOL0     H92150   3.356   0.407   1.545  0.3453 -0.2390 -0.4462
  683MOL0     H92151   3.419   0.398   1.707 -0.7290 -0.3788  0.2814
  683MOL0     H92152   3.244   0.588   1.769  0.7396 -0.4457 -0.0720
  683MOL0     H92153   3.205   0.591   1.599 -3.1048  0.9350  1.8339
  683MOL0     H92154   3.116   0.350   1.620 -4.7761  2.1792 -1.7271
  683MOL0     H92155   3.036   0.469   1.707 -0.6490 -0.1910  2.1763
  683MOL0     H92156   3.159   0.471   2.016 -0.1936 -0.7864  2.3143
  683MOL0     H92157   3.399   0.261   2.168 -0.3861  1.3208 -2.4265
  683MOL0     H92158   3.250   0.331   2.232  1.3128  0.9349  0.1608
  683MOL0     H92159   3.327   0.040   2.152  1.9595  0.0536  1.2850
  683MOL0     H92160   3.160   0.080   2.210  0.4495  0.7983 -0.7738
  683MOL0     H92161   3.278  -0.006   2.410  2.5628 -1.5373  0.3449
  683MOL0     H92162   3.267   0.160   2.420 -0.8368 -1.5915  0.4740
  683MOL0     H92163   3.469   0.081   2.490  3.3069  1.6933  0.1351
  683MOL0     H92164   3.487   0.203   2.362 -0.4142  0.3079  0.0320
  683MOL0     H92165   3.659   0.116   2.518 -3.5873 -1.6327 -1.8549
  683MOL0     H92166   3.987   0.183   2.578 -2.7234  1.8522 -1.2440
  683MOL0     H92167   3.837   0.154   2.662  0.0454  0.4160 -0.2298
  683MOL0     H92168   3.956   0.026   2.662  0.3458  0.6397  0.9610
  683MOL0     H92169   4.294  -0.228   2.121 -1.4470  0.3614  0.0065
  683MOL0     H92170   4.528  -0.232   2.127  0.5210  0.4656 -0.9046
  683MOL0     H92171   4.790   0.117   2.276 -1.4292  0.3526 -0.2860
  683MOL0     H92172   4.774  -0.024   2.389 -0.5654  0.2700  0.1074
  683MOL0     H92173   4.918  -0.093   2.142 -1.8541 -1.9882  2.0013
  683MOL0     H92174   4.995   0.057   2.208  0.8551 -0.5561 -1.5643
  683MOL0     H92175   4.936  -0.195   2.358 -2.0669  0.2550 -3.2988
  683MOL0     H92176   5.004  -0.055   2.436 -0.7799 -1.3738  0.6139
  683MOL0     H92177   5.103  -0.205   2.200  0.0250  1.1880 -0.1658
  683MOL0     H92178   5.191  -0.064   2.283 -0.9947  0.1503  0.2351
  683MOL0     H92179   5.298  -0.292   2.337 -1.8886 -3.5050 -1.1703
  683MOL0     H92180   5.137  -0.336   2.410  0.7809  0.3592  0.6500
  683MOL0     H92181   5.318  -0.102   2.498  2.2603 -1.2651  0.6586
  683MOL0     H92182   5.159  -0.148   2.573  0.5715 -0.3586  0.9068
  683MOL0     H92183   5.359  -0.226   2.719  1.1576 -0.1114 -0.4458
  683MOL0     H92184   5.420  -0.315   2.588 -0.0306  1.1324 -1.0223
  683MOL0     H92185   5.297  -0.473   2.716  0.6075  0.2566  0.3033
  683MOL0     H92186   5.224  -0.458   2.566  3.1512  2.1680 -1.2419
  683MOL0     H92187   4.557   0.118   2.359 -1.6296  0.9146 -0.1302
  683MOL0     H92188   4.315   0.119   2.382  0.0310  1.6957 -2.3293
  683MOL0     H92189   3.928  -0.148   2.199 -2.8849  1.2395 -2.0045
  683MOL0     H92190   3.685  -0.119   2.159 -0.4280  1.1271 -1.0782
  683MOL0     H92191   4.209   0.720   1.745 -2.9762 -1.6868 -2.1457
  683MOL0     H92192   4.441   0.742   1.740 -1.8985  0.3676  0.6693
  683MOL0     H92193   4.755   1.138   1.385  0.2150 -0.7957 -2.6892
  683MOL0     H92194   4.984   1.210   1.431 -1.9776  0.9930  2.8787
  683MOL0     H92195   5.219   0.897   1.396 -1.0533 -0.6754  2.2459
  683MOL0     H92196   5.234   1.077   1.344 -0.4452 -0.1566 -0.3776
  683MOL0     H92197   5.428   1.104   1.495  0.3428 -2.1224  3.3809
  683MOL0     H92198   5.451   0.998   1.352 -0.1543  2.0088 -0.6114
  683MOL0     H92199   5.454   0.800   1.481 -1.8170  0.2331 -0.9182
  683MOL0     H92200   5.379   0.885   1.621 -1.0097  3.0173  0.2763
  683MOL0     H92201   5.596   0.834   1.669 -0.1330  0.9506  0.7855
  683MOL0     H92202   5.586   1.015   1.652 -0.0636  1.1218 -0.7950
  683MOL0     H92203   5.887   0.892   1.397  0.2644  0.3862  1.5879
  683MOL0     H92204   5.084   0.823   1.590 -0.3952  1.5998  0.8044
  683MOL0     H92205   4.825   0.750   1.564 -5.0577  2.0289 -1.4328
  684MOL0     O92206   4.890   2.661   6.731 -0.7861  0.5831  0.0004
  684MOL0     C92207   4.941   2.578   6.666  0.4139 -0.1169  0.2306
  684MOL0     O92208   4.881   2.516   6.556  0.1589  0.4015 -0.2213
  684MOL0     C92209   4.739   2.539   6.538 -0.1829  0.0277 -0.2051
  684MOL0     C92210   4.675   2.601   6.425 -0.4026  0.6172  0.4721
  684MOL0     C92211   4.535   2.590   6.409 -0.2702 -1.1469 -1.0789
  684MOL0     C92212   4.456   2.521   6.497  0.1398 -0.0705 -0.1706
  684MOL0     O92213   4.320   2.506   6.476  0.2299  0.2383 -0.0636
  684MOL0     C92214   4.231   2.408   6.542  0.0730  0.2247 -0.1724
  684MOL0     C92215   4.084   2.440   6.506  0.4572 -0.4961 -0.5938
  684MOL0     C92216   3.993   2.391   6.621  0.3869  0.5406  0.6628
  684MOL0     C92217   3.843   2.398   6.591  0.0993 -0.4987 -1.0117
  684MOL0     C92218   3.765   2.333   6.709  0.4254  0.5118  0.4841
  684MOL0     C92219   3.614   2.337   6.668  0.7303  0.4232 -0.7186
  684MOL0     C92220   3.508   2.354   6.794 -0.4345 -0.9386 -0.0381
  684MOL0     C92221   3.521   2.250   6.900  0.1744  0.3864 -0.5977
  684MOL0     N92222   3.389   2.206   6.960 -0.3906 -0.1086  0.5535
  684MOL0     C92223   3.308   2.096   6.926 -0.4793 -0.0400  0.8795
  684MOL0     C92224   3.201   2.113   7.011  0.2056  0.2051  0.7344
  684MOL0     C92225   3.080   2.021   7.019 -0.8785 -0.6545 -0.1098
  684MOL0     C92226   2.943   2.091   7.028 -0.3431  0.2582  0.0556
  684MOL0     C92227   2.911   2.152   7.163  0.2327  0.2979 -0.5016
  684MOL0     C92228   2.813   2.275   7.184 -0.2491 -0.3837 -0.3454
  684MOL0     O92229   2.804   2.302   7.326 -1.0280 -0.2749  0.7482
  684MOL0     C92230   2.714   2.396   7.364 -0.2598  0.3409 -0.2212
  684MOL0     C92231   2.711   2.416   7.499  0.6306  0.1675  1.1880
  684MOL0     C92232   2.618   2.502   7.567  0.2806  0.6538  0.6754
  684MOL0     C92233   2.624   2.506   7.720  0.3643 -0.3392 -0.4239
  684MOL0     C92234   2.507   2.550   7.492 -0.2860  0.7131 -0.5116
  684MOL0     C92235   2.394   2.625   7.543  0.0670  0.7801  0.2455
  684MOL0     O92236   2.331   2.719   7.463  0.7853 -0.0139  0.5154
  684MOL0     C92237   2.196   2.746   7.492 -0.7616  0.1510  0.1424
  684MOL0     C92238   2.103   2.664   7.442  1.1000  0.2851  0.0088
  684MOL0     C92239   1.967   2.679   7.480  0.3634 -0.2120 -0.5944
  684MOL0     C92240   1.934   2.793   7.565  0.3765  0.6840  0.1956
  684MOL0     O92241   1.805   2.820   7.599  0.2567  0.5489 -0.0499
  684MOL0     C92242   1.708   2.722   7.561 -0.2891 -0.8986 -0.4083
  684MOL0     C92243   1.577   2.779   7.596  0.2804  0.6294  0.2996
  684MOL0     C92244   1.557   2.915   7.529  0.1069 -0.2377 -0.6139
  684MOL0     C92245   1.412   2.963   7.548  0.3975  0.2553  0.7363
  684MOL0     C92246   1.408   3.113   7.535 -0.0301 -0.6465 -0.1839
  684MOL0     C92247   1.270   3.170   7.547  1.0877  0.5403  1.0086
  684MOL0     C92248   1.279   3.324   7.523 -0.1828 -0.0621 -0.4556
  684MOL0     C92249   1.139   3.382   7.533 -0.3728  0.5793  0.7082
  684MOL0    Cl92250   1.021   3.307   7.414 -0.3150  0.2992  0.0634
  684MOL0     C92251   2.037   2.877   7.611  0.2013 -0.0234 -0.7624
  684MOL0     C92252   2.168   2.854   7.576  1.0386  0.2098 -0.9644
  684MOL0     O92253   2.358   2.589   7.657  0.1979  0.6006  0.3483
  684MOL0     C92254   2.514   2.529   7.353  0.7031 -0.2429 -0.6075
  684MOL0     C92255   2.620   2.463   7.288  0.4662 -0.1364 -0.2480
  684MOL0     N92256   3.219   2.216   7.098  0.9505 -0.2673 -0.9281
  684MOL0     N92257   3.333   2.267   7.070 -0.3197 -0.0641 -0.1734
  684MOL0     C92258   4.515   2.478   6.616  0.7439 -0.5654  0.0286
  684MOL0     C92259   4.653   2.486   6.639 -0.8383  0.4756  0.1119
  684MOL0     C92260   5.072   2.534   6.697  0.2374  0.8174  0.3691
  684MOL0     C92261   5.122   2.571   6.824 -0.0305  0.0234  0.1984
  684MOL0     C92262   5.257   2.530   6.856  0.8240  0.6492 -0.1616
  684MOL0     C92263   5.332   2.456   6.769 -0.0632 -0.3664  0.8415
  684MOL0     O92264   5.456   2.430   6.825  0.1882 -0.3709  0.6218
  684MOL0     C92265   5.543   2.353   6.734 -0.0141  0.6715  0.1966
  684MOL0     C92266   5.654   2.309   6.826  0.8382  0.1338  0.2834
  684MOL0     C92267   5.722   2.440   6.883  0.2083  0.0213 -0.2170
  684MOL0     C92268   5.845   2.420   6.981 -0.0326 -0.5119 -0.3146
  684MOL0     C92269   5.950   2.372   6.889  0.1818  0.1771  0.0510
  684MOL0     C92270   6.032   2.341   6.809 -0.7678 -0.6173  0.4952
  684MOL0     C92271   5.284   2.431   6.635 -0.9344 -0.3450  0.4325
  684MOL0     C92272   5.155   2.462   6.609  0.2138  0.6402  0.4029
  684MOL0     H92273   4.738   2.637   6.345  0.8237 -2.5951 -0.1356
  684MOL0     H92274   4.493   2.636   6.320 -0.6158  0.1770 -0.2599
  684MOL0     H92275   4.255   2.304   6.517  2.5713  0.8235 -0.4929
  684MOL0     H92276   4.247   2.398   6.650 -0.7650 -0.3412 -0.0840
  684MOL0     H92277   4.072   2.548   6.491 -0.2792 -0.6930 -1.5725
  684MOL0     H92278   4.058   2.391   6.411 -0.3503 -0.9101 -0.1658
  684MOL0     H92279   4.020   2.285   6.632 -3.1458 -0.5891 -0.1071
  684MOL0     H92280   4.013   2.444   6.715 -0.2418  3.1399 -0.5780
  684MOL0     H92281   3.828   2.506   6.580  1.6551 -0.1593 -0.2015
  684MOL0     H92282   3.818   2.341   6.501 -0.7409 -2.3191  0.3065
  684MOL0     H92283   3.786   2.228   6.729 -2.2003 -0.3132 -0.6200
  684MOL0     H92284   3.779   2.399   6.795  0.6764  1.7317 -0.4758
  684MOL0     H92285   3.589   2.414   6.595 -0.7834  0.7145  0.0856
  684MOL0     H92286   3.595   2.240   6.621  2.5143 -1.5464  2.2618
  684MOL0     H92287   3.528   2.448   6.846  1.4088 -2.0318  1.3699
  684MOL0     H92288   3.408   2.358   6.751  0.1747  2.3562 -1.4582
  684MOL0     H92289   3.597   2.277   6.973  0.8438 -4.4090  0.8644
  684MOL0     H92290   3.566   2.161   6.853  1.9110 -0.9238  3.1712
  684MOL0     H92291   3.315   2.012   6.857 -0.1591 -1.4232  2.5540
  684MOL0     H92292   3.072   1.966   6.925 -2.8958  2.3621 -1.8690
  684MOL0     H92293   3.102   1.957   7.105 -0.7548  0.3438  0.6274
  684MOL0     H92294   2.863   2.018   7.010  1.4038 -1.3991 -1.3418
  684MOL0     H92295   2.943   2.168   6.950  2.2412  1.2724  0.9526
  684MOL0     H92296   3.006   2.168   7.215  0.4941 -0.9028 -0.5974
  684MOL0     H92297   2.854   2.075   7.215 -3.2916  2.4812 -0.7884
  684MOL0     H92298   2.716   2.247   7.142 -0.1617 -0.5448 -0.4387
  684MOL0     H92299   2.844   2.363   7.129  0.0410 -0.3345 -0.1029
  684MOL0     H92300   2.782   2.355   7.555  2.6617  0.0702 -1.3017
  684MOL0     H92301   2.541   2.457   7.772 -1.0469  2.9972  0.7675
  684MOL0     H92302   2.720   2.464   7.752  0.7587 -0.7352 -2.0645
  684MOL0     H92303   2.616   2.612   7.748  1.1098 -0.3993  0.0522
  684MOL0     H92304   2.123   2.572   7.386  0.2687 -0.7910  1.4074
  684MOL0     H92305   1.907   2.591   7.459  2.1716 -1.4744 -0.7055
  684MOL0     H92306   1.711   2.700   7.453  3.9028  2.9185 -1.3657
  684MOL0     H92307   1.727   2.629   7.616  1.8447 -0.3501 -0.1382
  684MOL0     H92308   1.499   2.704   7.576 -1.3318  2.4306 -0.3975
  684MOL0     H92309   1.575   2.792   7.705 -2.0551 -0.2768  0.4225
  684MOL0     H92310   1.583   2.901   7.424  1.0120  1.2497 -0.6123
  684MOL0     H92311   1.629   2.992   7.558  0.9459 -1.2478  0.1077
  684MOL0     H92312   1.352   2.908   7.475  2.9852 -3.4763  1.1040
  684MOL0     H92313   1.379   2.936   7.649 -1.8232  0.5839  0.1466
  684MOL0     H92314   1.456   3.156   7.447  0.7886  1.9125  1.4004
  684MOL0     H92315   1.478   3.146   7.612 -0.3148 -1.4207  0.4198
  684MOL0     H92316   1.194   3.136   7.476  1.1051 -1.6602  1.9407
  684MOL0     H92317   1.226   3.148   7.645 -0.9063 -1.1473 -0.1750
  684MOL0     H92318   1.325   3.347   7.427  3.0651 -1.4369  0.5958
  684MOL0     H92319   1.338   3.366   7.606  0.3027  0.5837 -1.1165
  684MOL0     H92320   1.142   3.489   7.514  2.7347  0.2083 -2.0453
  684MOL0     H92321   1.089   3.369   7.629 -1.6809 -2.8288 -0.2722
  684MOL0     H92322   2.011   2.949   7.688 -0.9788 -0.9737 -0.2300
  684MOL0     H92323   2.235   2.921   7.630 -1.2362  1.3001  0.6678
  684MOL0     H92324   2.439   2.567   7.284 -0.5084  0.0568  0.8112
  684MOL0     H92325   2.620   2.471   7.180  0.0428  0.0348 -0.2374
  684MOL0     H92326   4.450   2.428   6.687 -0.1011 -0.1628 -0.4432
  684MOL0     H92327   4.694   2.446   6.731  0.2439 -1.6218 -1.2063
  684MOL0     H92328   5.070   2.623   6.904  1.5700  0.8582  0.7415
  684MOL0     H92329   5.291   2.555   6.956 -0.2625  0.9735  0.1459
  684MOL0     H92330   5.505   2.265   6.681 -0.7460  2.3193 -2.1658
  684MOL0     H92331   5.573   2.419   6.652 -0.9802 -0.2611 -0.9447
  684MOL0     H92332   5.730   2.255   6.768 -1.0449 -2.0620 -0.3141
  684MOL0     H92333   5.603   2.251   6.903 -1.5054 -1.2285 -2.1252
  684MOL0     H92334   5.661   2.519   6.928  1.2704 -0.3403  2.0501
  684MOL0     H92335   5.765   2.496   6.800  1.9558  0.1985  0.7386
  684MOL0     H92336   5.813   2.355   7.063 -1.6756 -1.7140 -1.8260
  684MOL0     H92337   5.878   2.515   7.024 -1.5446  0.6869 -1.7007
  684MOL0     H92338   6.114   2.314   6.745 -0.8479  1.4079 -0.5557
  684MOL0     H92339   5.349   2.393   6.556 -2.7902 -0.1566 -1.2640
  684MOL0     H92340   5.113   2.433   6.513  1.7398 -2.0643  0.4355
  685MOL0     O92341   7.781   0.073   3.641 -0.2519  0.3319  0.2584
  685MOL0     C92342   7.801   0.193   3.619 -0.1579  0.6697 -1.1989
  685MOL0     O92343   7.703   0.283   3.596  0.2209 -0.1465  0.0088
  685MOL0     C92344   7.565   0.247   3.592  0.8995 -0.6122  0.5406
  685MOL0     C92345   7.519   0.152   3.496 -0.2080 -0.1104 -0.3689
  685MOL0     C92346   7.388   0.120   3.482 -0.2998  0.7330 -0.0173
  685MOL0     C92347   7.293   0.176   3.579 -0.1126 -1.3391  0.0011
  685MOL0     O92348   7.161   0.135   3.595  0.4082 -0.4491 -0.4528
  685MOL0     C92349   7.084   0.175   3.476 -0.0768  0.3186  0.9288
  685MOL0     C92350   7.048   0.319   3.484  0.6397 -0.3009  0.6405
  685MOL0     C92351   6.937   0.345   3.384 -0.6054 -0.6878  0.6095
  685MOL0     C92352   6.847   0.458   3.431 -0.2750 -0.5130 -0.2260
  685MOL0     C92353   6.739   0.527   3.337 -0.0928  0.6919  0.2468
  685MOL0     C92354   6.629   0.585   3.413  0.3043 -0.2629 -0.4883
  685MOL0     C92355   6.519   0.643   3.332  0.7483  0.4880 -0.3548
  685MOL0     C92356   6.467   0.562   3.219 -0.7090 -0.4047 -0.3234
  685MOL0     N92357   6.344   0.613   3.159 -0.5120 -0.1415 -0.7047
  685MOL0     C92358   6.334   0.637   3.026  0.2436  0.2258  0.3029
  685MOL0     C92359   6.203   0.640   2.998  0.3335 -0.6175 -0.2895
  685MOL0     C92360   6.135   0.675   2.872  0.3071 -0.8269  0.3452
  685MOL0     C92361   5.981   0.672   2.875  0.4095 -0.0471  0.1224
  685MOL0     C92362   5.909   0.765   2.771 -0.9785 -0.4058 -0.5708
  685MOL0     C92363   5.758   0.775   2.791 -0.4125 -1.1828 -0.2727
  685MOL0     O92364   5.705   0.818   2.666  0.3321  0.4889  0.2869
  685MOL0     C92365   5.569   0.823   2.647  0.1864 -0.1865 -1.5436
  685MOL0     C92366   5.524   0.834   2.518  0.0100  0.1810  0.4416
  685MOL0     C92367   5.394   0.848   2.471  0.1605  0.1443 -0.0007
  685MOL0     C92368   5.377   0.879   2.324 -0.8236 -0.2479 -0.0293
  685MOL0     C92369   5.292   0.848   2.574 -0.2982  0.1773 -0.4253
  685MOL0     C92370   5.151   0.864   2.540  0.1472  0.7448 -0.2239
  685MOL0     O92371   5.067   0.840   2.643 -0.0730 -0.5739 -0.2401
  685MOL0     C92372   4.931   0.866   2.642 -0.1926  0.8329 -0.5405
  685MOL0     C92373   4.861   0.787   2.737 -0.7877 -0.1941 -1.3462
  685MOL0     C92374   4.724   0.797   2.740  0.1482 -0.2519 -0.2986
  685MOL0     C92375   4.653   0.882   2.653 -1.0564  0.5645  0.3806
  685MOL0     O92376   4.516   0.886   2.668  0.1514  0.0601  0.2324
  685MOL0     C92377   4.446   0.926   2.552  0.1295 -0.1735  0.1352
  685MOL0     C92378   4.298   0.862   2.550 -0.1362  0.0123  0.6442
  685MOL0     C92379   4.198   0.934   2.639 -1.1194  0.8085  0.4513
  685MOL0     C92380   4.080   0.845   2.680 -0.3134 -0.0676  0.4204
  685MOL0     C92381   3.947   0.926   2.692 -0.2101  0.0877 -0.3679
  685MOL0     C92382   3.830   0.833   2.721 -0.2774 -0.4619 -0.6199
  685MOL0     C92383   3.714   0.908   2.772 -0.0755  0.1936 -0.2773
  685MOL0     C92384   3.597   0.815   2.807 -0.0580  0.2131  0.6256
  685MOL0    Cl92385   3.538   0.709   2.666  0.2986  0.0346 -0.6196
  685MOL0     C92386   4.727   0.962   2.566  0.3383  0.4754 -0.7172
  685MOL0     C92387   4.866   0.954   2.563  0.0324  0.1136 -0.7156
  685MOL0     O92388   5.118   0.895   2.426 -0.2272 -0.4416  0.1225
  685MOL0     C92389   5.334   0.818   2.712  0.0207 -0.6263 -0.0484
  685MOL0     C92390   5.474   0.812   2.742  0.5708  0.3677 -0.1130
  685MOL0     N92391   6.134   0.604   3.117  0.2568 -0.5501  0.5000
  685MOL0     N92392   6.223   0.601   3.209 -0.3124 -0.0459 -0.0316
  685MOL0     C92393   7.337   0.264   3.681 -0.4607  0.4444  1.0651
  685MOL0     C92394   7.475   0.303   3.675  0.8910  0.3307 -0.1013
  685MOL0     C92395   7.932   0.251   3.653  0.1883  0.5593 -1.3731
  685MOL0     C92396   7.943   0.387   3.680 -0.3346  0.3400 -0.3330
  685MOL0     C92397   8.067   0.451   3.725  0.0265  0.4534 -0.1205
  685MOL0     C92398   8.180   0.368   3.745  0.5712  0.7607 -0.7562
  685MOL0     O92399   8.303   0.421   3.780  0.0130 -0.1846  0.5815
  685MOL0     C92400   8.427   0.360   3.752  0.3187 -0.7985 -0.7664
  685MOL0     C92401   8.527   0.476   3.720 -0.7531  0.1346 -0.6991
  685MOL0     C92402   8.663   0.407   3.681  0.2698 -0.3489  0.2579
  685MOL0     C92403   8.779   0.505   3.661 -0.0555  0.1673  0.5090
  685MOL0     C92404   8.810   0.567   3.785 -0.3445 -0.5762 -0.4819
  685MOL0     C92405   8.840   0.601   3.897  0.0363  0.3128 -0.0393
  685MOL0     C92406   8.165   0.226   3.720  0.2432 -0.3295 -1.0249
  685MOL0     C92407   8.039   0.163   3.682 -0.0087  0.0020 -0.0965
  685MOL0     H92408   7.585   0.092   3.434 -0.4373 -0.6012 -0.1418
  685MOL0     H92409   7.359   0.045   3.410  0.4044  0.2511  0.1906
  685MOL0     H92410   7.143   0.157   3.385  1.7844  0.0468  2.1357
  685MOL0     H92411   6.997   0.110   3.477 -0.0530  0.2798  0.6315
  685MOL0     H92412   7.019   0.334   3.588  0.1757  1.0419  0.3358
  685MOL0     H92413   7.134   0.384   3.468  1.5276 -1.0681  2.1546
  685MOL0     H92414   6.984   0.372   3.289  2.0222 -1.1355  1.7120
  685MOL0     H92415   6.874   0.257   3.369 -0.2513 -0.6576 -1.3490
  685MOL0     H92416   6.797   0.410   3.516  1.9870 -0.9416  0.9420
  685MOL0     H92417   6.908   0.542   3.468 -0.8918  0.0263 -0.4126
  685MOL0     H92418   6.786   0.599   3.269 -1.5959  2.7174  1.2520
  685MOL0     H92419   6.694   0.447   3.278 -4.5258  2.2590  1.1103
  685MOL0     H92420   6.586   0.514   3.484  2.6878 -0.4117  0.9313
  685MOL0     H92421   6.672   0.660   3.481 -1.4309  1.6713 -1.4124
  685MOL0     H92422   6.432   0.650   3.398 -1.3589  0.4402 -2.9561
  685MOL0     H92423   6.551   0.736   3.285 -0.3482 -0.3924 -3.0360
  685MOL0     H92424   6.455   0.458   3.252 -1.7503 -0.0860  0.3777
  685MOL0     H92425   6.550   0.563   3.148  1.6563 -3.5397  2.1335
  685MOL0     H92426   6.421   0.655   2.964  2.0833  1.1030  2.9254
  685MOL0     H92427   6.149   0.784   2.872 -1.8447 -0.4869  1.6844
  685MOL0     H92428   6.180   0.628   2.784 -2.0327 -2.4237 -0.0827
  685MOL0     H92429   5.953   0.707   2.975 -1.0924 -4.6325  1.5496
  685MOL0     H92430   5.950   0.568   2.859  0.7792 -0.1212 -0.1380
  685MOL0     H92431   5.925   0.727   2.670 -1.9967 -1.7776 -0.2431
  685MOL0     H92432   5.953   0.865   2.776 -0.4728 -0.6798  1.0252
  685MOL0     H92433   5.735   0.842   2.875 -0.4666 -0.9178 -0.4962
  685MOL0     H92434   5.716   0.679   2.821  0.6137 -1.1460  1.4460
  685MOL0     H92435   5.604   0.836   2.444  1.0165 -3.7678  1.2222
  685MOL0     H92436   5.303   0.817   2.273  0.0656 -3.2724  2.0569
  685MOL0     H92437   5.348   0.985   2.323  0.3632  0.0865 -0.7475
  685MOL0     H92438   5.477   0.862   2.283 -0.7935  0.3766 -0.2228
  685MOL0     H92439   4.911   0.712   2.796  1.2224  0.2908 -2.3322
  685MOL0     H92440   4.669   0.728   2.803  3.0858 -1.8585  0.6958
  685MOL0     H92441   4.440   1.035   2.544 -1.8850 -0.0811  1.9079
  685MOL0     H92442   4.493   0.902   2.456  1.0140  2.1537 -0.0723
  685MOL0     H92443   4.260   0.863   2.447 -1.9704  1.7304  1.2550
  685MOL0     H92444   4.323   0.759   2.574 -0.8106 -0.3309 -0.0620
  685MOL0     H92445   4.161   1.019   2.582 -0.5328 -1.3691 -3.4818
  685MOL0     H92446   4.235   0.973   2.735 -1.5254  2.2607  0.0452
  685MOL0     H92447   4.066   0.770   2.601  0.4960 -0.7639  0.9080
  685MOL0     H92448   4.105   0.789   2.771  1.8671 -1.9505 -1.1961
  685MOL0     H92449   3.930   0.975   2.596  1.5776 -1.8675 -1.7726
  685MOL0     H92450   3.950   1.001   2.772 -1.2304  2.4146 -2.3859
  685MOL0     H92451   3.808   0.781   2.628  0.6453 -0.4041 -0.8840
  685MOL0     H92452   3.864   0.758   2.794  1.3922  0.2719 -0.5947
  685MOL0     H92453   3.683   0.991   2.707 -0.4191 -1.2802 -2.0789
  685MOL0     H92454   3.741   0.951   2.869  1.1686  0.0406 -0.5390
  685MOL0     H92455   3.514   0.871   2.849  0.2647  0.3078  1.1487
  685MOL0     H92456   3.634   0.741   2.879  1.8447 -1.3255 -1.7544
  685MOL0     H92457   4.663   1.028   2.507 -2.5808 -2.9621 -1.7375
  685MOL0     H92458   4.917   1.017   2.491 -0.8325  0.1151 -1.3413
  685MOL0     H92459   5.260   0.808   2.791  0.1479 -0.2217  0.1221
  685MOL0     H92460   5.503   0.788   2.844 -0.5420  4.3149  1.3043
  685MOL0     H92461   7.273   0.309   3.756 -0.9130  1.5836  0.0474
  685MOL0     H92462   7.514   0.366   3.755  0.2710  1.3769 -0.6065
  685MOL0     H92463   7.855   0.448   3.664 -0.3010 -0.1918 -2.9750
  685MOL0     H92464   8.080   0.558   3.738 -1.0159  0.7636 -1.3824
  685MOL0     H92465   8.461   0.303   3.839  1.3800  1.2349  0.2127
  685MOL0     H92466   8.427   0.298   3.662  5.1630 -0.1829 -1.4261
  685MOL0     H92467   8.550   0.536   3.809 -2.6869 -0.9079  0.5885
  685MOL0     H92468   8.487   0.533   3.635  0.0956  1.3442 -0.3020
  685MOL0     H92469   8.641   0.362   3.583 -3.5368 -0.7728  1.1599
  685MOL0     H92470   8.688   0.327   3.751  0.6950  0.8987  1.5626
  685MOL0     H92471   8.763   0.577   3.580  0.3305  0.9871  1.1431
  685MOL0     H92472   8.864   0.442   3.633 -3.3033 -4.5716  0.1722
  685MOL0     H92473   8.871   0.637   3.993 -0.6374  2.9774 -0.7459
  685MOL0     H92474   8.250   0.160   3.739 -1.0689 -1.6400  0.5891
  685MOL0     H92475   8.031   0.056   3.669 -0.4573  0.1353 -1.0108
  686MOL0     O92476   6.931   8.195   3.708  0.3576 -0.2523 -0.0715
  686MOL0     C92477   7.011   8.200   3.797 -0.7703  0.0604  0.9919
  686MOL0     O92478   6.984   8.205   3.938 -0.3640 -0.5202  0.2636
  686MOL0     C92479   6.857   8.158   3.969 -0.0782  0.0696 -0.8464
  686MOL0     C92480   6.839   8.023   4.013 -0.4390  0.5053  0.3152
  686MOL0     C92481   6.712   7.971   4.042  0.4296 -0.6124 -0.6686
  686MOL0     C92482   6.598   8.057   4.034  1.3044  0.2268 -0.4035
  686MOL0     O92483   6.467   8.027   4.063 -0.0329 -0.4723 -0.0496
  686MOL0     C92484   6.452   7.891   4.095  0.1664 -0.1511 -1.1035
  686MOL0     C92485   6.309   7.841   4.078  0.5594 -0.0566  0.1535
  686MOL0     C92486   6.200   7.918   4.161  0.3478 -0.4962 -0.0708
  686MOL0     C92487   6.055   7.861   4.156 -0.5537 -0.5248  0.1822
  686MOL0     C92488   5.972   7.937   4.260  0.0060  0.8385 -0.5290
  686MOL0     C92489   5.823   7.912   4.255  0.0760 -0.4351  0.1614
  686MOL0     C92490   5.788   7.767   4.284  0.2585  0.7279 -0.3535
  686MOL0     C92491   5.640   7.755   4.320 -0.1037  0.0318 -0.2326
  686MOL0     N92492   5.614   7.613   4.352 -0.1074 -0.2425  0.8773
  686MOL0     C92493   5.687   7.531   4.439 -0.6403 -0.1190  0.6169
  686MOL0     C92494   5.650   7.398   4.420  0.4182  0.1869  0.0833
  686MOL0     C92495   5.716   7.272   4.487 -0.3610  0.0265  0.1554
  686MOL0     C92496   5.714   7.286   4.636  0.0404 -0.4441  0.4587
  686MOL0     C92497   5.787   7.169   4.703  0.0198  0.5566  0.6949
  686MOL0     C92498   5.724   7.028   4.679  0.1257  0.0307 -0.3143
  686MOL0     O92499   5.587   7.054   4.713 -0.0340  0.6264 -0.3920
  686MOL0     C92500   5.489   6.968   4.661 -0.5725 -0.2947  0.1200
  686MOL0     C92501   5.516   6.852   4.589  0.3437 -0.3670 -0.2911
  686MOL0     C92502   5.405   6.777   4.535  0.3801  0.3622 -0.4030
  686MOL0     C92503   5.429   6.652   4.460 -0.2809  0.6052  0.1374
  686MOL0     C92504   5.268   6.822   4.555  0.4869  0.4786  0.0260
  686MOL0     C92505   5.138   6.751   4.523 -0.0990 -0.2392  1.2134
  686MOL0     O92506   5.025   6.778   4.590  0.1479 -0.0781  0.5996
  686MOL0     C92507   4.910   6.727   4.535 -0.0997  0.0172  0.3929
  686MOL0     C92508   4.873   6.591   4.547  0.0702 -0.5021  0.5565
  686MOL0     C92509   4.760   6.537   4.486 -0.6673 -0.4493  0.1419
  686MOL0     C92510   4.662   6.622   4.430  0.9242  0.4796  0.2153
  686MOL0     O92511   4.550   6.556   4.383 -0.2690  0.0271 -0.0013
  686MOL0     C92512   4.470   6.621   4.292 -0.8711 -0.7440 -0.2713
  686MOL0     C92513   4.341   6.537   4.277  0.3393 -0.6069  1.5917
  686MOL0     C92514   4.250   6.547   4.391 -0.1718 -0.1614  0.4583
  686MOL0     C92515   4.116   6.513   4.334 -0.0152  0.4047  0.0110
  686MOL0     C92516   4.014   6.517   4.445 -0.1680 -0.2388 -0.1056
  686MOL0     C92517   3.879   6.511   4.386  0.5035  0.1335 -0.5203
  686MOL0     C92518   3.766   6.510   4.491  0.4186 -0.5677 -0.0910
  686MOL0     C92519   3.624   6.470   4.448 -1.4659  0.0091  0.5869
  686MOL0    Cl92520   3.535   6.472   4.603  0.2085 -0.5312 -0.1543
  686MOL0     C92521   4.701   6.760   4.419 -0.0210  0.6101  0.1021
  686MOL0     C92522   4.819   6.808   4.470  0.4165 -0.6369 -0.1063
  686MOL0     O92523   5.146   6.671   4.428  0.1083 -0.5278 -0.0118
  686MOL0     C92524   5.250   6.937   4.631 -0.6588 -0.6380  0.5779
  686MOL0     C92525   5.358   7.006   4.678  0.6611  0.2374 -0.4094
  686MOL0     N92526   5.544   7.411   4.332  0.1032 -0.1293 -0.4037
  686MOL0     N92527   5.528   7.530   4.278 -0.3980 -0.1456 -0.0684
  686MOL0     C92528   6.605   8.188   3.978 -0.8469 -0.2925  0.2706
  686MOL0     C92529   6.739   8.236   3.949 -0.0558  0.4700 -0.1731
  686MOL0     C92530   7.149   8.200   3.767 -0.0101 -0.7992  0.0004
  686MOL0     C92531   7.243   8.167   3.863 -0.3355 -0.4310  0.5467
  686MOL0     C92532   7.380   8.169   3.821 -0.4216 -0.6489  0.3330
  686MOL0     C92533   7.427   8.206   3.691 -0.1072  0.3684  0.4398
  686MOL0     O92534   7.560   8.226   3.678  0.0557  0.7362  0.2078
  686MOL0     C92535   7.597   8.261   3.541 -0.9656  0.0478  0.1724
  686MOL0     C92536   7.747   8.299   3.552 -0.3122  0.1678 -0.0888
  686MOL0     C92537   7.835   8.180   3.571 -0.3745 -0.3257 -0.3149
  686MOL0     C92538   7.987   8.221   3.568  0.5048 -0.4831 -0.4787
  686MOL0     C92539   8.035   8.314   3.675 -1.0179  0.3172 -0.2562
  686MOL0     C92540   8.096   8.389   3.755 -0.8006  0.2727 -0.3132
  686MOL0     C92541   7.326   8.234   3.594 -0.4801  1.2380 -0.9932
  686MOL0     C92542   7.190   8.221   3.636  0.0533 -0.1889  0.2578
  686MOL0     H92543   6.926   7.959   4.006  0.5783  2.0040 -2.0779
  686MOL0     H92544   6.697   7.873   4.086  0.5564 -1.3410 -2.1916
  686MOL0     H92545   6.502   7.836   4.015 -1.3443  1.1647 -3.0624
  686MOL0     H92546   6.491   7.882   4.197  0.1927  2.1009 -0.8681
  686MOL0     H92547   6.274   7.854   3.975  0.3922 -2.6994 -0.1872
  686MOL0     H92548   6.316   7.735   4.100  1.9846  0.3266  1.7322
  686MOL0     H92549   6.225   7.921   4.267 -3.1896  0.6006  0.8559
  686MOL0     H92550   6.197   8.021   4.124  1.0681 -0.5159 -0.2095
  686MOL0     H92551   6.016   7.871   4.054  1.1454  2.2935 -0.2815
  686MOL0     H92552   6.065   7.757   4.190  4.4539 -0.1517  0.5766
  686MOL0     H92553   6.005   7.908   4.360 -1.2412 -4.8740 -1.3708
  686MOL0     H92554   5.988   8.044   4.245  4.1079  0.2736 -1.2294
  686MOL0     H92555   5.772   7.981   4.323  2.4513 -2.0225  3.8350
  686MOL0     H92556   5.787   7.930   4.153  2.3989 -0.3420 -0.7061
  686MOL0     H92557   5.806   7.705   4.196  1.3011  2.1803 -1.2210
  686MOL0     H92558   5.853   7.727   4.362  1.2985  1.4573 -0.8134
  686MOL0     H92559   5.575   7.792   4.240  2.0308 -0.9150 -2.5647
  686MOL0     H92560   5.627   7.808   4.415 -0.7780  0.1806 -0.4076
  686MOL0     H92561   5.772   7.557   4.503 -1.9428 -0.3099  2.5152
  686MOL0     H92562   5.665   7.181   4.456  0.8372 -0.3021 -0.9626
  686MOL0     H92563   5.823   7.264   4.464 -0.3710  0.7842 -0.1925
  686MOL0     H92564   5.611   7.286   4.673 -0.1841 -2.4885 -0.0607
  686MOL0     H92565   5.768   7.377   4.663  1.5809 -0.9997 -0.6535
  686MOL0     H92566   5.798   7.190   4.810  3.7699  0.1050  0.5096
  686MOL0     H92567   5.889   7.164   4.666  0.8750 -1.8703  3.0118
  686MOL0     H92568   5.775   6.964   4.752 -0.5298  0.6828  0.7483
  686MOL0     H92569   5.739   6.998   4.575 -1.4528  1.3273 -0.9511
  686MOL0     H92570   5.615   6.810   4.575  0.1368 -0.5135 -1.4050
  686MOL0     H92571   5.379   6.570   4.512  0.5462  2.8173  4.9661
  686MOL0     H92572   5.395   6.656   4.356 -1.2450  2.4515  0.4903
  686MOL0     H92573   5.536   6.628   4.466 -0.6380 -2.2086 -2.3508
  686MOL0     H92574   4.949   6.524   4.588  0.3682 -1.4935 -1.5165
  686MOL0     H92575   4.745   6.430   4.486  2.3629 -1.0419 -2.8551
  686MOL0     H92576   4.449   6.725   4.318  1.2283 -0.3501  0.0158
  686MOL0     H92577   4.514   6.633   4.193 -0.7183 -1.5666 -0.3170
  686MOL0     H92578   4.290   6.583   4.193  1.7119  1.0016  1.5935
  686MOL0     H92579   4.364   6.433   4.252 -0.7759 -0.7991  1.3081
  686MOL0     H92580   4.258   6.648   4.432 -0.4944  1.4256 -3.0052
  686MOL0     H92581   4.282   6.475   4.467  1.3314 -1.1884 -1.0756
  686MOL0     H92582   4.087   6.590   4.261 -4.1965 -1.1393 -0.2046
  686MOL0     H92583   4.116   6.415   4.286  3.0095  0.6662 -0.7568
  686MOL0     H92584   4.023   6.614   4.495  0.5049 -1.6973  2.8037
  686MOL0     H92585   4.036   6.443   4.522  2.0150 -1.9840 -2.2276
  686MOL0     H92586   3.868   6.598   4.321 -2.7306  1.0666  1.0648
  686MOL0     H92587   3.859   6.418   4.331 -1.7862 -0.8349  1.7180
  686MOL0     H92588   3.768   6.610   4.535 -0.7732 -1.8318  3.0895
  686MOL0     H92589   3.793   6.443   4.573  2.1791 -0.7870 -0.8022
  686MOL0     H92590   3.631   6.371   4.402 -1.3819  0.2234  0.1293
  686MOL0     H92591   3.584   6.531   4.367 -1.1152  0.9323  1.0909
  686MOL0     H92592   4.633   6.834   4.379  0.3983  1.4290  0.8967
  686MOL0     H92593   4.841   6.914   4.464  2.9420 -1.1128 -0.2059
  686MOL0     H92594   5.154   6.971   4.667 -0.1440  1.6523 -0.0558
  686MOL0     H92595   5.331   7.099   4.726 -1.3617 -0.8797  0.7060
  686MOL0     H92596   6.519   8.255   3.978 -0.1448  0.6356  0.3456
  686MOL0     H92597   6.765   8.335   3.913 -2.4008  0.7746 -1.2772
  686MOL0     H92598   7.217   8.150   3.967 -2.0608 -1.7765 -0.0455
  686MOL0     H92599   7.454   8.150   3.898  0.3375  0.6574 -0.0562
  686MOL0     H92600   7.573   8.186   3.464 -2.1011  1.6465 -1.1097
  686MOL0     H92601   7.539   8.346   3.505  2.1767  1.1579 -2.8977
  686MOL0     H92602   7.757   8.379   3.626 -0.5884 -0.5580  0.7501
  686MOL0     H92603   7.772   8.347   3.457 -1.5579  0.6475 -0.1987
  686MOL0     H92604   7.825   8.118   3.482 -0.4097  0.9407 -1.2163
  686MOL0     H92605   7.815   8.124   3.663  0.4328  0.2000  0.1868
  686MOL0     H92606   8.010   8.263   3.470  0.0590  0.8670 -0.0284
  686MOL0     H92607   8.042   8.127   3.579  1.8300  0.0802 -2.0008
  686MOL0     H92608   8.136   8.455   3.829 -2.9904  2.0590 -0.5996
  686MOL0     H92609   7.346   8.263   3.491  0.6853  0.4361 -1.0210
  686MOL0     H92610   7.120   8.236   3.554  0.2532  0.6372  0.2288
  687MOL0     O92611   6.669   4.642   4.997  0.0627 -0.1365 -0.2081
  687MOL0     C92612   6.715   4.632   4.883 -1.1071  0.0904  0.4779
  687MOL0     O92613   6.643   4.616   4.760  0.0441 -0.5818 -0.0321
  687MOL0     C92614   6.507   4.610   4.753 -0.0607  0.6305 -0.6193
  687MOL0     C92615   6.440   4.524   4.666  0.1422 -0.3859 -0.0269
  687MOL0     C92616   6.301   4.517   4.647 -0.2054 -0.2277 -0.2602
  687MOL0     C92617   6.224   4.612   4.725  0.0764  0.1645 -0.0061
  687MOL0     O92618   6.090   4.618   4.729  0.6380  0.4715  0.1555
  687MOL0     C92619   6.011   4.537   4.646  0.0458  0.4341 -0.6475
  687MOL0     C92620   5.860   4.559   4.680  0.8551  0.2615 -0.4083
  687MOL0     C92621   5.824   4.703   4.645  0.0891 -0.0021  0.1287
  687MOL0     C92622   5.699   4.743   4.732  1.0096 -0.7528  0.7456
  687MOL0     C92623   5.614   4.838   4.640 -0.1776  0.8170  0.4989
  687MOL0     C92624   5.675   4.982   4.647 -1.6185 -0.5405 -0.1054
  687MOL0     C92625   5.606   5.061   4.532 -0.4684 -0.0163 -0.1019
  687MOL0     C92626   5.614   5.213   4.550  0.0443  0.8096  0.0927
  687MOL0     N92627   5.493   5.262   4.613  0.0179 -0.5016 -1.0310
  687MOL0     C92628   5.438   5.224   4.732 -0.0677 -0.9909 -0.3246
  687MOL0     C92629   5.349   5.322   4.768 -0.2692 -0.4553  0.2330
  687MOL0     C92630   5.264   5.326   4.891 -1.1229  1.0619 -0.9735
  687MOL0     C92631   5.115   5.325   4.857  0.0049 -0.8881 -0.2523
  687MOL0     C92632   5.068   5.210   4.770 -0.3688  1.1939 -0.2544
  687MOL0     C92633   4.917   5.218   4.726 -0.7647  0.7529  0.8537
  687MOL0     O92634   4.846   5.269   4.835 -0.7609  0.4089  0.2151
  687MOL0     C92635   4.711   5.298   4.838  0.6752 -0.5436 -0.1705
  687MOL0     C92636   4.664   5.300   4.974  0.6903  0.2055  0.0031
  687MOL0     C92637   4.530   5.298   5.006  0.1967 -0.1690 -0.7982
  687MOL0     C92638   4.493   5.286   5.150  0.1362 -0.0938  0.5357
  687MOL0     C92639   4.437   5.299   4.902 -0.5293 -0.3185  0.8137
  687MOL0     C92640   4.285   5.303   4.927  0.5922  0.4872 -0.7644
  687MOL0     O92641   4.233   5.226   5.029 -0.1799  0.3329 -0.3439
  687MOL0     C92642   4.116   5.258   5.084  0.4154  0.0882  0.0772
  687MOL0     C92643   4.081   5.164   5.181  0.3959 -0.0583  0.6029
  687MOL0     C92644   3.961   5.183   5.252 -0.7102  0.0935 -0.2881
  687MOL0     C92645   3.877   5.296   5.229 -0.6268 -0.6098  0.6654
  687MOL0     O92646   3.765   5.300   5.312 -0.6676 -0.3720 -0.6192
  687MOL0     C92647   3.693   5.427   5.326  0.1051 -0.7577  0.1687
  687MOL0     C92648   3.541   5.414   5.345 -0.0401  0.5259  0.2357
  687MOL0     C92649   3.468   5.367   5.215 -0.4180  0.3534 -1.2377
  687MOL0     C92650   3.322   5.361   5.234 -0.0512  0.0301 -0.0322
  687MOL0     C92651   3.265   5.328   5.089 -0.2025 -0.0623 -0.1042
  687MOL0     C92652   3.110   5.351   5.085 -0.9767 -0.7850  0.3131
  687MOL0     C92653   3.072   5.495   5.098  0.1700  0.3970 -0.2058
  687MOL0     C92654   3.096   5.572   4.977  0.3451  1.0965  0.2136
  687MOL0    Cl92655   3.016   5.507   4.834  0.1685 -0.3893  0.4720
  687MOL0     C92656   3.916   5.391   5.139 -0.8479 -0.3893 -1.1289
  687MOL0     C92657   4.038   5.378   5.067 -0.7939 -0.3456 -0.0047
  687MOL0     O92658   4.216   5.369   4.849  1.0429  0.4971  0.0114
  687MOL0     C92659   4.487   5.289   4.768 -0.2152  0.4293  0.6446
  687MOL0     C92660   4.617   5.296   4.733 -0.4708 -0.1921 -0.2472
  687MOL0     N92661   5.353   5.414   4.671  0.6089 -0.0387  0.9599
  687MOL0     N92662   5.428   5.378   4.577 -0.6370  0.4265 -0.6296
  687MOL0     C92663   6.289   4.694   4.827  0.4300  0.4628  0.1216
  687MOL0     C92664   6.431   4.695   4.839 -0.2670  0.6842 -0.3038
  687MOL0     C92665   6.869   4.623   4.877  0.0753  0.9759 -0.3143
  687MOL0     C92666   6.943   4.632   4.996 -0.8575  0.4790  0.2436
  687MOL0     C92667   7.086   4.635   4.985 -0.3580 -0.6922 -0.7260
  687MOL0     C92668   7.158   4.620   4.869  0.8180 -0.1906 -0.4941
  687MOL0     O92669   7.293   4.611   4.877 -0.5908  0.2877  0.1652
  687MOL0     C92670   7.369   4.607   4.760 -0.2293  0.7660  0.1703
  687MOL0     C92671   7.413   4.453   4.742 -0.6922  0.2331  0.5475
  687MOL0     C92672   7.528   4.430   4.648  0.6000  0.1834  0.0113
  687MOL0     C92673   7.581   4.292   4.636  0.3342  0.1266  1.5034
  687MOL0     C92674   7.477   4.194   4.588 -0.3001  0.5194  0.3862
  687MOL0     C92675   7.395   4.109   4.563 -0.6552 -0.1566  0.7141
  687MOL0     C92676   7.078   4.605   4.750 -0.5834 -0.3690 -0.1076
  687MOL0     C92677   6.937   4.607   4.756 -0.8899 -0.0449  0.2759
  687MOL0     H92678   6.503   4.471   4.595  0.0262 -2.7057  1.5106
  687MOL0     H92679   6.266   4.457   4.564 -1.5840 -2.3566  1.7243
  687MOL0     H92680   6.047   4.549   4.543  3.6142 -0.5114  0.3768
  687MOL0     H92681   6.018   4.437   4.689 -1.3120  0.6517  0.1526
  687MOL0     H92682   5.794   4.489   4.628  1.5985  0.4159 -1.6024
  687MOL0     H92683   5.828   4.539   4.783 -3.5704  3.2963 -0.9122
  687MOL0     H92684   5.897   4.779   4.674 -0.5880 -0.1715  2.4118
  687MOL0     H92685   5.807   4.717   4.537 -0.3078 -0.0881  0.1802
  687MOL0     H92686   5.639   4.660   4.771 -1.4652  0.3003 -0.5849
  687MOL0     H92687   5.718   4.801   4.823 -3.0089 -1.7381  2.4242
  687MOL0     H92688   5.605   4.803   4.536 -2.5235  0.1381  0.8867
  687MOL0     H92689   5.509   4.832   4.666 -0.8369 -1.3238 -2.1734
  687MOL0     H92690   5.645   5.011   4.748  0.3961 -1.7849  0.9079
  687MOL0     H92691   5.783   4.983   4.633 -1.5539  0.9741  0.3477
  687MOL0     H92692   5.654   5.027   4.440  0.5257 -1.4510  0.8912
  687MOL0     H92693   5.502   5.029   4.523 -0.0910 -1.3402  0.0448
  687MOL0     H92694   5.631   5.262   4.454 -0.0264  1.8596  0.6047
  687MOL0     H92695   5.695   5.243   4.617  0.2097  1.6213 -0.4458
  687MOL0     H92696   5.481   5.140   4.786  1.0834  0.5218  1.2234
  687MOL0     H92697   5.300   5.241   4.950  0.8639  0.1358 -3.3089
  687MOL0     H92698   5.295   5.417   4.943  0.8248  0.6552 -1.3134
  687MOL0     H92699   5.096   5.424   4.815  1.3189 -0.7014 -0.4408
  687MOL0     H92700   5.065   5.313   4.953  1.9804 -0.2450  0.9091
  687MOL0     H92701   5.078   5.118   4.827 -1.8687 -0.1611 -2.0311
  687MOL0     H92702   5.135   5.200   4.684 -0.6713 -0.9147 -0.3035
  687MOL0     H92703   4.887   5.123   4.682 -0.2282  1.7166 -1.7623
  687MOL0     H92704   4.908   5.291   4.646  0.1295  1.2548  1.1938
  687MOL0     H92705   4.745   5.300   5.045 -1.1916 -2.3895  2.3477
  687MOL0     H92706   4.450   5.188   5.175  1.2968 -0.0303  2.9621
  687MOL0     H92707   4.587   5.299   5.204  1.4248  0.6423 -1.7294
  687MOL0     H92708   4.414   5.354   5.182 -2.0604 -2.1423 -0.1437
  687MOL0     H92709   4.134   5.073   5.203  0.9975  0.2755  0.5496
  687MOL0     H92710   3.917   5.107   5.317 -0.9536  2.2946  2.3168
  687MOL0     H92711   3.729   5.481   5.414  1.6791 -0.1367 -0.8112
  687MOL0     H92712   3.706   5.491   5.238 -1.2051  0.7323  1.0122
  687MOL0     H92713   3.522   5.337   5.421  4.0101 -2.7558 -1.6427
  687MOL0     H92714   3.495   5.510   5.371 -0.3702 -0.1644  2.4147
  687MOL0     H92715   3.505   5.267   5.192  1.1345  0.5955 -0.0193
  687MOL0     H92716   3.510   5.430   5.136  2.3509  0.6050  0.2830
  687MOL0     H92717   3.292   5.285   5.307  2.8924 -1.8228 -0.5792
  687MOL0     H92718   3.289   5.458   5.271 -3.1165 -1.0404  0.3705
  687MOL0     H92719   3.281   5.225   5.056 -1.5535 -0.4489  0.3688
  687MOL0     H92720   3.317   5.392   5.018  0.1095  0.7722  0.8631
  687MOL0     H92721   3.072   5.311   4.991  1.5153  2.7522 -2.4970
  687MOL0     H92722   3.056   5.315   5.173 -2.6067  1.9064  0.5270
  687MOL0     H92723   3.115   5.549   5.182 -0.1176  0.8620 -0.3526
  687MOL0     H92724   2.966   5.508   5.125  0.6534  1.8649  1.1567
  687MOL0     H92725   3.204   5.576   4.958  0.2527  1.0221 -0.3491
  687MOL0     H92726   3.056   5.670   5.006  3.7076  2.9147 -0.7846
  687MOL0     H92727   3.867   5.487   5.127 -3.6244 -1.7655 -1.4991
  687MOL0     H92728   4.054   5.447   4.986  0.9030 -1.0650 -0.3126
  687MOL0     H92729   4.417   5.281   4.686  1.7439 -0.6044 -1.0340
  687MOL0     H92730   4.634   5.282   4.627  0.7168  3.0731 -0.5926
  687MOL0     H92731   6.236   4.758   4.896 -0.3500 -0.0409  0.0060
  687MOL0     H92732   6.469   4.768   4.910  0.3866  0.8374 -0.7995
  687MOL0     H92733   6.885   4.643   5.087 -0.1555 -1.7741  1.0310
  687MOL0     H92734   7.142   4.644   5.078  1.2483 -0.5746 -1.6695
  687MOL0     H92735   7.319   4.661   4.680  1.2786  2.1218  0.0928
  687MOL0     H92736   7.453   4.675   4.778  3.3284 -2.8044 -1.3764
  687MOL0     H92737   7.328   4.399   4.700  1.3780 -1.8352 -1.2712
  687MOL0     H92738   7.448   4.416   4.838  0.6233 -1.4219 -0.5093
  687MOL0     H92739   7.603   4.493   4.697 -0.8738  1.7042  0.3987
  687MOL0     H92740   7.506   4.473   4.550  0.5069 -0.6019 -0.3162
  687MOL0     H92741   7.632   4.268   4.730  0.1311 -2.3931  1.0518
  687MOL0     H92742   7.655   4.301   4.556 -0.0545 -0.0541  1.1196
  687MOL0     H92743   7.319   4.038   4.537  0.5387 -2.2508  2.5819
  687MOL0     H92744   7.120   4.591   4.650  1.6030  2.4296  0.3102
  687MOL0     H92745   6.882   4.585   4.665  1.3103 -1.5191 -0.7761
  688MOL0     O92746   2.347   6.738   2.764  0.0267 -0.4821  0.6116
  688MOL0     C92747   2.434   6.651   2.737  0.3395 -0.0730 -0.0342
  688MOL0     O92748   2.425   6.519   2.763 -0.5431  0.2257 -0.4838
  688MOL0     C92749   2.305   6.443   2.758  0.4882 -1.0110 -1.3146
  688MOL0     C92750   2.185   6.502   2.717  0.9373  0.8420 -0.6209
  688MOL0     C92751   2.065   6.429   2.726 -0.5135 -0.5075 -0.0059
  688MOL0     C92752   2.060   6.298   2.764 -0.2628  0.1156 -0.0859
  688MOL0     O92753   1.938   6.230   2.759 -0.5377  0.0899  0.4322
  688MOL0     C92754   1.934   6.089   2.798  0.5417  0.3684  0.5335
  688MOL0     C92755   1.791   6.043   2.794  0.5290  0.0467  0.3236
  688MOL0     C92756   1.743   6.035   2.649 -0.5023 -0.1878  0.8484
  688MOL0     C92757   1.590   6.000   2.633  0.0593 -0.7663 -0.6059
  688MOL0     C92758   1.566   5.973   2.485  0.5547 -0.4053 -0.2360
  688MOL0     C92759   1.427   5.913   2.479 -0.4416 -0.7975 -0.0959
  688MOL0     C92760   1.388   5.883   2.329  0.2487 -0.4203 -0.3415
  688MOL0     C92761   1.295   5.765   2.316 -0.1432 -0.0104  0.4102
  688MOL0     N92762   1.153   5.778   2.365  0.2063 -0.0433 -0.7780
  688MOL0     C92763   1.110   5.797   2.495  0.4395 -0.0466 -1.0273
  688MOL0     C92764   0.974   5.797   2.487  0.6523  0.0110  0.4069
  688MOL0     C92765   0.878   5.806   2.598  0.2783  0.2494 -0.1982
  688MOL0     C92766   0.825   5.660   2.637 -0.0265 -0.4956 -0.0106
  688MOL0     C92767   0.763   5.676   2.771 -0.2153 -0.0998  0.7353
  688MOL0     C92768   0.714   5.536   2.806 -0.2285 -0.1922  0.9719
  688MOL0     O92769   0.633   5.520   2.920  0.6813 -0.2645 -0.8236
  688MOL0     C92770   0.492   5.519   2.905  0.1650 -0.7795 -0.0632
  688MOL0     C92771   0.417   5.482   3.018 -0.1629  0.4024 -0.5055
  688MOL0     C92772   0.278   5.488   3.031  0.0291  0.0306 -0.8596
  688MOL0     C92773   0.219   5.460   3.168  0.8024  1.0485  0.5462
  688MOL0     C92774   0.206   5.534   2.923 -0.9552 -0.5050  0.0149
  688MOL0     C92775   0.063   5.565   2.924 -0.1371  0.0817 -0.4080
  688MOL0     O92776   0.009   5.618   2.808  0.0601 -0.7956  0.2268
  688MOL0     C92777  -0.120   5.654   2.810  0.3663  0.3393 -0.1978
  688MOL0     C92778  -0.225   5.557   2.804 -0.0269 -0.2612 -0.8637
  688MOL0     C92779  -0.353   5.596   2.812  0.7873 -0.6652  0.5347
  688MOL0     C92780  -0.385   5.725   2.846  0.4783  0.3995  0.0778
  688MOL0     O92781  -0.517   5.749   2.859  0.6070 -0.5081 -0.1851
  688MOL0     C92782  -0.581   5.798   2.980 -0.2032 -1.0567 -0.1568
  688MOL0     C92783  -0.612   5.682   3.077 -0.4553  0.9592  0.3590
  688MOL0     C92784  -0.698   5.578   3.010 -0.3062  0.8718 -0.8056
  688MOL0     C92785  -0.771   5.484   3.110  0.8750  0.5854  0.3654
  688MOL0     C92786  -0.814   5.352   3.044 -0.3117  0.3374  0.4688
  688MOL0     C92787  -0.882   5.275   3.144  0.1805  0.2576  0.4100
  688MOL0     C92788  -0.904   5.128   3.096 -0.0416  0.0766  0.8412
  688MOL0     C92789  -1.061   5.097   3.090  0.2294 -0.2071  0.4214
  688MOL0    Cl92790  -1.129   5.195   2.960  0.0104  0.2972  0.2744
  688MOL0     C92791  -0.287   5.824   2.857 -0.4269  0.6188  0.4540
  688MOL0     C92792  -0.159   5.782   2.841 -0.0307 -0.8075  1.1535
  688MOL0     O92793  -0.007   5.547   3.024 -0.4233 -0.0591 -0.4101
  688MOL0     C92794   0.275   5.564   2.802  0.2183 -1.0124  0.2298
  688MOL0     C92795   0.415   5.560   2.793  0.0396 -0.3399  1.2576
  688MOL0     N92796   0.936   5.777   2.353  0.2553 -0.0580 -0.3394
  688MOL0     N92797   1.043   5.755   2.282  0.0312 -0.0099  0.4812
  688MOL0     C92798   2.178   6.239   2.807 -0.8149  0.9294  0.2669
  688MOL0     C92799   2.300   6.311   2.809 -0.1198 -0.2604  0.4249
  688MOL0     C92800   2.566   6.698   2.687 -0.0173  0.7871  0.3427
  688MOL0     C92801   2.671   6.608   2.640  0.4324  0.0527 -0.4213
  688MOL0     C92802   2.795   6.655   2.591 -0.3498  0.1929 -0.0925
  688MOL0     C92803   2.821   6.793   2.597 -0.7790  0.5662  0.2546
  688MOL0     O92804   2.949   6.837   2.554  0.2947  0.2452  0.1528
  688MOL0     C92805   2.974   6.977   2.561  0.4802 -0.3989 -1.1460
  688MOL0     C92806   3.114   7.006   2.513 -0.2849  0.3641 -0.4199
  688MOL0     C92807   3.228   6.939   2.602  0.8312 -0.0815  0.6589
  688MOL0     C92808   3.361   6.949   2.532  0.1302 -0.2562  0.2651
  688MOL0     C92809   3.401   7.090   2.486 -0.2496  0.4661 -0.7681
  688MOL0     C92810   3.453   7.196   2.445 -0.1841  0.8534 -0.1311
  688MOL0     C92811   2.719   6.880   2.636  0.2218 -0.3272  0.4753
  688MOL0     C92812   2.600   6.836   2.680  0.7228  0.2746 -0.3312
  688MOL0     H92813   2.178   6.601   2.673  0.9172  1.7673  1.3710
  688MOL0     H92814   1.968   6.470   2.701 -0.0250  1.0466  0.5220
  688MOL0     H92815   1.998   6.018   2.744  2.9332  1.2639  2.0207
  688MOL0     H92816   1.967   6.094   2.902 -1.7360  2.6037  1.2335
  688MOL0     H92817   1.784   5.951   2.851 -1.1675  0.4812  0.8747
  688MOL0     H92818   1.735   6.123   2.844  2.3263  0.1428  2.2957
  688MOL0     H92819   1.756   6.131   2.598  0.0979 -0.3520  0.6869
  688MOL0     H92820   1.800   5.956   2.599  0.9640  0.1852  1.8813
  688MOL0     H92821   1.569   5.911   2.692  1.8635 -1.4771 -0.9881
  688MOL0     H92822   1.524   6.085   2.653 -1.4588 -0.8005 -4.4933
  688MOL0     H92823   1.581   6.068   2.433  3.3669 -0.5732  0.1145
  688MOL0     H92824   1.633   5.899   2.441 -0.8335 -1.7424 -0.2169
  688MOL0     H92825   1.430   5.822   2.540  1.0244 -1.5201 -1.1786
  688MOL0     H92826   1.357   5.988   2.517 -0.0610 -0.0073 -0.9115
  688MOL0     H92827   1.340   5.969   2.282  0.3369  0.8490  1.7582
  688MOL0     H92828   1.483   5.858   2.281 -0.3647 -2.3184 -0.6377
  688MOL0     H92829   1.343   5.681   2.365 -0.2742  0.0946  0.7182
  688MOL0     H92830   1.293   5.738   2.210 -1.5274 -0.3335  0.4933
  688MOL0     H92831   1.156   5.819   2.591 -0.8619  1.6128 -0.7232
  688MOL0     H92832   0.927   5.853   2.684  1.1428  1.6869 -1.4375
  688MOL0     H92833   0.801   5.871   2.556 -0.2877 -0.1916  0.1434
  688MOL0     H92834   0.908   5.589   2.648  1.2365  0.9693  0.1123
  688MOL0     H92835   0.755   5.624   2.561 -2.8052 -0.1440  2.2106
  688MOL0     H92836   0.682   5.751   2.766 -0.0644 -0.0172 -1.2968
  688MOL0     H92837   0.844   5.701   2.840  0.2059 -1.5366  0.7732
  688MOL0     H92838   0.808   5.482   2.817  0.4048 -0.5557 -4.0307
  688MOL0     H92839   0.659   5.482   2.729  1.1041 -1.4266  0.8448
  688MOL0     H92840   0.476   5.460   3.106 -2.7989 -1.8642  0.8803
  688MOL0     H92841   0.164   5.542   3.216 -1.0558  0.1687  0.0094
  688MOL0     H92842   0.159   5.370   3.155  1.6781  0.5439 -0.1062
  688MOL0     H92843   0.302   5.427   3.232  0.9628  1.9262  0.8103
  688MOL0     H92844  -0.207   5.454   2.776 -0.8272 -0.2371 -1.4881
  688MOL0     H92845  -0.433   5.524   2.801 -1.4600  1.8040 -0.1904
  688MOL0     H92846  -0.514   5.864   3.035 -1.4072  0.2991 -0.2555
  688MOL0     H92847  -0.670   5.859   2.961 -0.8789 -1.7662  0.6467
  688MOL0     H92848  -0.514   5.644   3.106 -0.6138  1.3653  1.4979
  688MOL0     H92849  -0.666   5.719   3.164 -1.2282 -1.0597  0.7993
  688MOL0     H92850  -0.645   5.525   2.930 -0.5161 -0.3335 -0.1727
  688MOL0     H92851  -0.777   5.629   2.955 -0.8479 -1.4152 -2.3029
  688MOL0     H92852  -0.697   5.474   3.189  1.7491 -0.1720 -0.5286
  688MOL0     H92853  -0.860   5.537   3.147 -0.8960 -2.1478  0.2953
  688MOL0     H92854  -0.723   5.301   3.009  1.4554  3.9806 -0.7142
  688MOL0     H92855  -0.875   5.361   2.953  0.3294  1.5950  0.1379
  688MOL0     H92856  -0.816   5.269   3.231 -0.7132 -0.5019  1.0689
  688MOL0     H92857  -0.967   5.337   3.177 -0.1608 -1.1266  2.3322
  688MOL0     H92858  -0.853   5.070   3.173  0.0999  0.2308  0.8634
  688MOL0     H92859  -0.863   5.109   2.996  0.3970  1.5434  0.7128
  688MOL0     H92860  -1.112   5.124   3.183  0.5617  2.0242  0.0075
  688MOL0     H92861  -1.073   4.991   3.067  0.6861  0.3333 -2.7971
  688MOL0     H92862  -0.305   5.930   2.875 -1.5358  0.2582  1.5397
  688MOL0     H92863  -0.077   5.853   2.848 -0.3260  0.4111 -4.0905
  688MOL0     H92864   0.223   5.598   2.713  2.1346  1.1758 -0.1513
  688MOL0     H92865   0.456   5.595   2.699 -0.1814  2.9530  2.2826
  688MOL0     H92866   2.189   6.137   2.841 -3.7275  0.6125  0.5284
  688MOL0     H92867   2.395   6.269   2.839  1.4136  2.9662  0.4901
  688MOL0     H92868   2.647   6.503   2.636 -0.5746  0.2837 -0.7941
  688MOL0     H92869   2.872   6.589   2.552  1.3063  0.8340  1.8856
  688MOL0     H92870   2.893   7.039   2.519  0.5584  0.3928 -0.1522
  688MOL0     H92871   2.974   7.004   2.667 -2.0290 -0.5494 -1.0395
  688MOL0     H92872   3.127   7.114   2.520  0.5062  0.3344 -1.2535
  688MOL0     H92873   3.125   6.980   2.407  1.0073 -0.3425 -0.1409
  688MOL0     H92874   3.203   6.834   2.618 -0.5450  0.2108  0.5449
  688MOL0     H92875   3.235   6.980   2.704 -1.9873  2.4031  0.0102
  688MOL0     H92876   3.354   6.887   2.443  2.1729 -1.0112  0.5703
  688MOL0     H92877   3.441   6.909   2.596  1.5533  2.3225  0.2040
  688MOL0     H92878   3.481   7.298   2.428  1.1422  0.6806  0.8071
  688MOL0     H92879   2.717   6.988   2.622  2.9614 -0.1463  0.8147
  688MOL0     H92880   2.522   6.908   2.701  0.0310 -1.1721  2.5474
  689MOL0     O92881   2.075   0.280   7.659 -0.4185  0.2177 -0.4040
  689MOL0     C92882   2.081   0.174   7.729 -0.0022 -0.7237  0.2719
  689MOL0     O92883   1.996   0.065   7.720 -0.5344  0.5046 -0.5197
  689MOL0     C92884   1.875   0.091   7.664 -0.1341 -0.5455 -0.4560
  689MOL0     C92885   1.844   0.042   7.537  0.1613 -0.2957  0.7196
  689MOL0     C92886   1.726   0.081   7.478 -0.1246 -0.0359  0.4213
  689MOL0     C92887   1.639   0.172   7.537 -0.0568  0.0868 -0.2620
  689MOL0     O92888   1.519   0.226   7.489 -0.2171  0.5591  0.2607
  689MOL0     C92889   1.470   0.171   7.365 -0.1164 -0.6471  0.1518
  689MOL0     C92890   1.531   0.235   7.243 -0.1258  0.1440  0.3972
  689MOL0     C92891   1.428   0.265   7.130  0.1917  0.9175  0.3599
  689MOL0     C92892   1.501   0.354   7.032 -0.6918 -0.2279 -0.1893
  689MOL0     C92893   1.418   0.396   6.916  0.6815  0.9733 -0.0806
  689MOL0     C92894   1.346   0.284   6.835 -0.9721  0.3702 -0.3112
  689MOL0     C92895   1.247   0.327   6.724  0.2883 -0.3036 -0.1072
  689MOL0     C92896   1.291   0.442   6.624  0.3809 -0.6522  0.6414
  689MOL0     N92897   1.174   0.465   6.534  0.1433  0.3820 -0.2372
  689MOL0     C92898   1.117   0.383   6.440 -0.2220 -1.2144  0.3246
  689MOL0     C92899   0.993   0.434   6.426 -0.3556  0.4998 -0.4653
  689MOL0     C92900   0.890   0.359   6.355 -0.2118 -0.4893 -0.3753
  689MOL0     C92901   0.762   0.343   6.446  0.8254  0.0700  0.2812
  689MOL0     C92902   0.668   0.459   6.412 -0.3390  0.7027 -0.1256
  689MOL0     C92903   0.518   0.443   6.443 -0.1159  0.9134  0.2530
  689MOL0     O92904   0.458   0.350   6.348 -0.5381  0.3063 -0.3322
  689MOL0     C92905   0.321   0.359   6.332 -0.3361 -0.4190 -0.0027
  689MOL0     C92906   0.243   0.426   6.434  0.0896  0.1880  1.2877
  689MOL0     C92907   0.101   0.420   6.424 -0.5071 -0.5990  0.4702
  689MOL0     C92908   0.019   0.483   6.538  0.9397 -0.6591 -0.4018
  689MOL0     C92909   0.040   0.360   6.308  0.3565 -0.1828 -0.0503
  689MOL0     C92910  -0.113   0.338   6.299  0.0973  0.2381  0.7658
  689MOL0     O92911  -0.192   0.327   6.413  0.1497  0.3422 -0.3658
  689MOL0     C92912  -0.318   0.301   6.411  0.7533 -0.0315 -0.6276
  689MOL0     C92913  -0.406   0.374   6.327 -0.1464 -0.1357 -0.2669
  689MOL0     C92914  -0.542   0.364   6.351  0.3183  0.5428  0.5352
  689MOL0     C92915  -0.593   0.272   6.444 -1.0109 -0.8723  0.0844
  689MOL0     O92916  -0.724   0.257   6.461 -0.3363 -0.2930  0.2664
  689MOL0     C92917  -0.770   0.144   6.391  0.2220  0.3765  1.4824
  689MOL0     C92918  -0.846   0.182   6.255  0.1779  0.2365 -0.0369
  689MOL0     C92919  -0.994   0.220   6.265  0.3550 -0.2967 -0.2501
  689MOL0     C92920  -1.053   0.255   6.124 -0.1762  0.2340  0.0906
  689MOL0     C92921  -1.204   0.279   6.106 -0.5533  0.4870 -0.5535
  689MOL0     C92922  -1.242   0.292   5.961  0.4042  0.0626 -0.0721
  689MOL0     C92923  -1.399   0.313   5.941 -1.1895 -0.1016  0.4758
  689MOL0     C92924  -1.441   0.301   5.798 -0.1261  0.4046  1.0480
  689MOL0    Cl92925  -1.621   0.288   5.813 -0.4656  0.0477  0.2747
  689MOL0     C92926  -0.503   0.194   6.512 -0.1589 -0.5145 -0.0544
  689MOL0     C92927  -0.364   0.207   6.505 -0.3535 -0.7534 -0.4606
  689MOL0     O92928  -0.155   0.346   6.183 -0.0917 -0.6733  0.1147
  689MOL0     C92929   0.121   0.315   6.209 -1.0730  0.3379  0.7144
  689MOL0     C92930   0.257   0.297   6.224 -0.7352 -0.7093  0.4259
  689MOL0     N92931   0.987   0.558   6.488 -0.4507 -0.3095  0.2573
  689MOL0     N92932   1.097   0.577   6.550 -0.8955 -0.3824 -0.9010
  689MOL0     C92933   1.672   0.229   7.660  0.1223  0.5171  0.2532
  689MOL0     C92934   1.788   0.187   7.725  0.4582  0.1724  0.6918
  689MOL0     C92935   2.198   0.173   7.816  0.2357  0.0345  0.3040
  689MOL0     C92936   2.197   0.076   7.920 -0.1316  0.1385 -0.3508
  689MOL0     C92937   2.304   0.073   8.011 -0.1108  0.0276  0.1640
  689MOL0     C92938   2.414   0.168   7.994  0.9910 -0.4955 -0.3425
  689MOL0     O92939   2.510   0.178   8.098 -0.4471  0.9648 -0.0548
  689MOL0     C92940   2.575   0.305   8.122  0.3707  0.1815 -0.5218
  689MOL0     C92941   2.488   0.395   8.198 -0.1176 -0.4902 -0.3532
  689MOL0     C92942   2.393   0.349   8.313 -0.6675  0.3264  0.6362
  689MOL0     C92943   2.357   0.459   8.415  0.0293  0.6896 -0.0481
  689MOL0     C92944   2.319   0.574   8.345  0.4015 -0.4698  0.2738
  689MOL0     C92945   2.289   0.671   8.276 -0.5112 -0.3523  0.9436
  689MOL0     C92946   2.411   0.248   7.877 -0.6045  0.3830  0.3692
  689MOL0     C92947   2.304   0.252   7.789 -0.0379 -0.0238  0.2991
  689MOL0     H92948   1.901  -0.032   7.483 -0.7044  0.6998 -1.6903
  689MOL0     H92949   1.703   0.016   7.394 -0.0916 -1.4718  1.4790
  689MOL0     H92950   1.465   0.062   7.373  0.5547 -0.5382  3.8673
  689MOL0     H92951   1.363   0.195   7.364 -0.4885 -1.9878 -2.5805
  689MOL0     H92952   1.581   0.326   7.276  2.3361 -1.2999  0.9309
  689MOL0     H92953   1.607   0.164   7.208 -0.6460 -0.6471  0.8154
  689MOL0     H92954   1.401   0.169   7.084  0.9173 -0.4822  2.6545
  689MOL0     H92955   1.346   0.318   7.179  0.8767  0.8374  1.6531
  689MOL0     H92956   1.535   0.444   7.084 -0.2655 -0.6861  0.3534
  689MOL0     H92957   1.588   0.297   6.997  0.6134  1.2343  0.5574
  689MOL0     H92958   1.338   0.458   6.960  1.3829  1.3850  0.6444
  689MOL0     H92959   1.478   0.462   6.853  2.8041  1.1718  2.0041
  689MOL0     H92960   1.426   0.234   6.781  0.4248  2.4870 -0.3176
  689MOL0     H92961   1.294   0.219   6.906  2.9533 -0.2472  2.3619
  689MOL0     H92962   1.227   0.233   6.672 -0.6586 -0.6044  0.7689
  689MOL0     H92963   1.159   0.355   6.781 -0.2980 -1.9989 -0.1151
  689MOL0     H92964   1.381   0.401   6.576  1.2929  0.9653  0.9175
  689MOL0     H92965   1.319   0.539   6.665 -0.7533  0.1473 -0.3954
  689MOL0     H92966   1.156   0.296   6.387  0.5314 -1.1559  0.7659
  689MOL0     H92967   0.875   0.403   6.256 -1.8000 -1.1994 -0.4899
  689MOL0     H92968   0.928   0.258   6.334 -0.3023 -0.0214 -3.2734
  689MOL0     H92969   0.777   0.333   6.554 -0.7653  0.3162  0.5584
  689MOL0     H92970   0.707   0.252   6.422  0.7243 -0.3918  2.0810
  689MOL0     H92971   0.666   0.479   6.304 -1.1832 -0.3774 -0.3220
  689MOL0     H92972   0.708   0.547   6.464  0.0018  0.1851  0.4991
  689MOL0     H92973   0.469   0.541   6.444 -2.9004 -0.3826  0.2018
  689MOL0     H92974   0.509   0.401   6.544  1.7395  1.0130  0.4959
  689MOL0     H92975   0.281   0.453   6.533  1.3612  1.5932  0.4685
  689MOL0     H92976  -0.083   0.514   6.511  0.8406  1.2778  1.8678
  689MOL0     H92977   0.017   0.412   6.621 -0.7681 -0.7524 -0.4716
  689MOL0     H92978   0.063   0.574   6.580 -0.8280 -0.6579  1.6350
  689MOL0     H92979  -0.356   0.441   6.258  1.7042 -1.3327 -0.1787
  689MOL0     H92980  -0.609   0.426   6.292  2.6726 -0.0678 -3.1508
  689MOL0     H92981  -0.696   0.071   6.355 -1.8642 -0.5022 -1.4905
  689MOL0     H92982  -0.838   0.086   6.454 -1.0493  0.1470 -0.0373
  689MOL0     H92983  -0.786   0.253   6.198 -0.5643  1.5116  0.7169
  689MOL0     H92984  -0.844   0.094   6.190 -2.1387 -0.4619  0.7429
  689MOL0     H92985  -1.011   0.313   6.321 -3.4084  0.1271 -1.7508
  689MOL0     H92986  -1.049   0.139   6.314  1.0983  1.2022  3.3373
  689MOL0     H92987  -0.999   0.341   6.081 -0.4166  0.1059 -0.4749
  689MOL0     H92988  -1.026   0.172   6.059  2.3100  1.0732 -0.0692
  689MOL0     H92989  -1.222   0.370   6.163 -0.4551 -0.2319  0.6512
  689MOL0     H92990  -1.260   0.196   6.151  0.4175 -0.8692 -1.7655
  689MOL0     H92991  -1.185   0.375   5.917  2.3005 -2.0272 -1.8037
  689MOL0     H92992  -1.216   0.194   5.920  0.2622 -0.0204  0.0319
  689MOL0     H92993  -1.432   0.409   5.981 -0.6935  0.1263  0.3452
  689MOL0     H92994  -1.449   0.239   6.004 -1.8246 -0.5600 -0.5403
  689MOL0     H92995  -1.417   0.203   5.756 -1.2753 -0.3779  2.1354
  689MOL0     H92996  -1.397   0.387   5.746  1.9776 -0.2408  1.6911
  689MOL0     H92997  -0.554   0.115   6.567 -2.6301 -0.4666 -2.0937
  689MOL0     H92998  -0.309   0.147   6.576  0.6423 -0.3588 -0.8758
  689MOL0     H92999   0.083   0.277   6.114  4.4993  0.0275 -1.7504
  689MOL0     H93000   0.314   0.256   6.141  1.2186 -2.6025  2.5675
  689MOL0     H93001   1.616   0.314   7.699  1.2759  3.2489 -3.4496
  689MOL0     H93002   1.812   0.226   7.823  0.4686 -1.2412  1.2746
  689MOL0     H93003   2.106   0.022   7.943  1.7432 -2.2314  2.2961
  689MOL0     H93004   2.307   0.014   8.102  0.7424 -1.2629 -0.6573
  689MOL0     H93005   2.659   0.288   8.190  0.1528 -2.5120 -0.8322
  689MOL0     H93006   2.603   0.356   8.030  0.5348 -0.0626 -0.6076
  689MOL0     H93007   2.412   0.432   8.128 -2.5914 -0.8697  1.9629
  689MOL0     H93008   2.549   0.470   8.248 -3.0167  0.6384  1.7384
  689MOL0     H93009   2.439   0.277   8.382  3.1756  2.4182  0.5134
  689MOL0     H93010   2.312   0.292   8.266  0.7520  0.0514 -1.5602
  689MOL0     H93011   2.427   0.484   8.495 -2.1726  2.6609  1.3796
  689MOL0     H93012   2.269   0.435   8.475 -0.2399 -0.5541 -0.8835
  689MOL0     H93013   2.253   0.755   8.219  1.0530 -0.7948 -0.7942
  689MOL0     H93014   2.483   0.325   7.853  0.6603 -1.3498 -1.8015
  689MOL0     H93015   2.302   0.319   7.703 -0.8930  0.4661  0.6926
  690MOL0     O93016   7.317  11.179   3.715  0.0037  0.3791 -0.3345
  690MOL0     C93017   7.344  11.145   3.600  0.1977  0.9687 -0.0403
  690MOL0     O93018   7.251  11.098   3.510  0.0082  0.2142 -0.1608
  690MOL0     C93019   7.118  11.102   3.537  0.5463 -0.2540 -0.5856
  690MOL0     C93020   7.051  11.185   3.631  0.6935 -0.2363  0.2431
  690MOL0     C93021   6.905  11.161   3.643  0.4945 -0.3264  0.3855
  690MOL0     C93022   6.834  11.065   3.572  0.7705 -0.1806  0.1525
  690MOL0     O93023   6.701  11.055   3.590  1.0922  0.3654  0.4106
  690MOL0     C93024   6.661  10.928   3.653 -0.2827 -0.3379  0.0875
  690MOL0     C93025   6.596  10.955   3.787 -0.3332  0.0370  0.5079
  690MOL0     C93026   6.517  10.832   3.854 -0.0118 -0.0581 -0.4578
  690MOL0     C93027   6.411  10.886   3.950 -0.8529 -0.5377 -0.7842
  690MOL0     C93028   6.314  10.778   4.004 -0.2498  0.5040  0.1922
  690MOL0     C93029   6.208  10.831   4.098 -1.3035 -0.2730  0.3513
  690MOL0     C93030   6.119  10.718   4.141 -0.2907  0.4484 -0.6426
  690MOL0     C93031   6.017  10.761   4.252 -0.8976  0.8221 -0.0423
  690MOL0     N93032   5.893  10.814   4.201  0.2383  0.2054 -0.1857
  690MOL0     C93033   5.869  10.944   4.162  0.0676  0.7409 -1.7764
  690MOL0     C93034   5.746  10.942   4.108  0.4404 -0.1730  0.2410
  690MOL0     C93035   5.678  11.056   4.030  0.1504 -0.1707  0.8167
  690MOL0     C93036   5.631  11.006   3.885 -0.8516 -0.5245 -0.7735
  690MOL0     C93037   5.493  10.938   3.879  0.1418 -0.5587  0.0738
  690MOL0     C93038   5.376  11.026   3.912 -0.6211 -0.2974  0.5809
  690MOL0     O93039   5.366  11.130   3.817 -0.2861  0.3131  1.2680
  690MOL0     C93040   5.244  11.200   3.821 -0.3760 -0.8085  0.5249
  690MOL0     C93041   5.214  11.272   3.703 -1.0073  0.4524 -0.4837
  690MOL0     C93042   5.107  11.356   3.677  0.4805 -0.4090  0.0188
  690MOL0     C93043   5.097  11.439   3.544  0.1555  0.2613  1.1326
  690MOL0     C93044   5.004  11.353   3.777  0.2322  0.5821 -1.0632
  690MOL0     C93045   4.877  11.421   3.762  0.1871  0.6008  0.5208
  690MOL0     O93046   4.810  11.463   3.875  0.3391  0.5016  0.1798
  690MOL0     C93047   4.674  11.495   3.878 -0.0938  0.1548 -0.0618
  690MOL0     C93048   4.628  11.612   3.943 -0.9973  0.6844 -0.0101
  690MOL0     C93049   4.497  11.643   3.944  0.2694 -0.8161 -0.8014
  690MOL0     C93050   4.398  11.559   3.883  0.5773  0.6465 -0.1386
  690MOL0     O93051   4.263  11.583   3.889 -0.4234  0.1332 -0.2263
  690MOL0     C93052   4.179  11.535   3.787  0.9763 -0.2822  0.1286
  690MOL0     C93053   4.030  11.563   3.832  0.7752  0.0218  0.1845
  690MOL0     C93054   4.016  11.717   3.867  0.6292  1.4079  0.8779
  690MOL0     C93055   3.879  11.733   3.934  0.7548  0.3930  0.4548
  690MOL0     C93056   3.839  11.873   3.985 -0.6881  0.0122  0.3378
  690MOL0     C93057   3.690  11.892   4.005  0.5955 -0.0585  0.1257
  690MOL0     C93058   3.642  12.024   4.060  0.0884  0.6015  0.2535
  690MOL0     C93059   3.644  12.137   3.959  0.4988 -0.7335  0.3581
  690MOL0    Cl93060   3.499  12.125   3.859 -0.2728  0.2844  0.1136
  690MOL0     C93061   4.445  11.447   3.814  0.3343 -0.0504  0.5610
  690MOL0     C93062   4.575  11.414   3.807  0.6251 -1.5281  0.8123
  690MOL0     O93063   4.833  11.437   3.647 -0.7195  0.4497  0.0527
  690MOL0     C93064   5.027  11.275   3.899  0.3197 -0.2546 -0.7774
  690MOL0     C93065   5.146  11.207   3.921 -0.1593 -0.1488  0.0209
  690MOL0     N93066   5.702  10.810   4.109 -0.5302 -0.8272  0.7798
  690MOL0     N93067   5.792  10.735   4.160 -0.6532 -0.2512 -0.5013
  690MOL0     C93068   6.905  10.988   3.474 -0.1573  0.0318 -0.1882
  690MOL0     C93069   7.044  11.014   3.459 -0.0139  0.3249 -0.3572
  690MOL0     C93070   7.483  11.122   3.556  0.8034  0.6574  0.5138
  690MOL0     C93071   7.579  11.083   3.652 -0.5858 -0.3810 -0.0596
  690MOL0     C93072   7.719  11.076   3.612  0.4640 -0.8628  0.3522
  690MOL0     C93073   7.749  11.077   3.477  0.7618  0.6102 -0.0290
  690MOL0     O93074   7.875  11.064   3.432  0.0441 -0.1262  0.2309
  690MOL0     C93075   7.964  11.171   3.478 -0.3962 -0.0571 -0.2227
  690MOL0     C93076   7.953  11.295   3.375 -0.5586  0.0666  0.0041
  690MOL0     C93077   8.026  11.265   3.237 -0.4956  0.1965 -0.6425
  690MOL0     C93078   7.950  11.179   3.142 -0.0083 -0.5660 -0.6080
  690MOL0     C93079   7.864  11.256   3.053  0.3232 -1.6283 -0.0775
  690MOL0     C93080   7.810  11.318   2.966  0.6960 -0.5273 -0.9920
  690MOL0     C93081   7.644  11.094   3.380 -0.6129 -0.2754  0.1352
  690MOL0     C93082   7.516  11.115   3.424 -0.2742 -0.4897 -0.3678
  690MOL0     H93083   7.088  11.269   3.689 -0.2286 -0.0761  0.6147
  690MOL0     H93084   6.856  11.227   3.715  1.5142 -1.9364  2.6679
  690MOL0     H93085   6.577  10.876   3.607 -0.0871  0.1244 -0.7998
  690MOL0     H93086   6.748  10.864   3.673  1.3908  1.6994 -0.3820
  690MOL0     H93087   6.661  10.999   3.863 -0.5555 -0.8612  1.2255
  690MOL0     H93088   6.519  11.030   3.764  0.0806  0.3818  0.2288
  690MOL0     H93089   6.486  10.768   3.771 -1.0586 -1.2764  0.8326
  690MOL0     H93090   6.586  10.773   3.915 -0.3998  0.0667  0.1092
  690MOL0     H93091   6.461  10.939   4.032 -1.3946 -0.1391 -0.7066
  690MOL0     H93092   6.356  10.969   3.906 -1.0043 -0.6626 -0.8333
  690MOL0     H93093   6.273  10.724   3.918  3.0677  0.5509 -1.5891
  690MOL0     H93094   6.376  10.705   4.057 -1.6510  1.0094  2.7232
  690MOL0     H93095   6.254  10.864   4.192  0.3014 -4.6855  1.3486
  690MOL0     H93096   6.148  10.912   4.056  0.9196  1.5448  0.4455
  690MOL0     H93097   6.053  10.689   4.059  0.9939  2.2147 -2.4012
  690MOL0     H93098   6.188  10.642   4.179 -1.6135  0.4326  1.9112
  690MOL0     H93099   6.075  10.837   4.305  2.8556 -0.0543 -2.5083
  690MOL0     H93100   6.002  10.681   4.325  3.5237  3.1028  3.9314
  690MOL0     H93101   5.930  11.033   4.158  1.0768  0.0638 -1.9229
  690MOL0     H93102   5.595  11.098   4.088 -0.7184 -1.1693  0.3349
  690MOL0     H93103   5.751  11.137   4.021  0.0077 -0.2395 -1.4375
  690MOL0     H93104   5.710  10.941   3.846 -1.1997 -0.6652 -1.2542
  690MOL0     H93105   5.630  11.093   3.819  3.0071 -0.0208 -0.3850
  690MOL0     H93106   5.488  10.852   3.946 -2.2269 -0.0711  0.6114
  690MOL0     H93107   5.482  10.914   3.773  2.8283  0.8465 -0.6149
  690MOL0     H93108   5.394  11.072   4.010  0.0577 -0.7100  0.6597
  690MOL0     H93109   5.289  10.960   3.915 -2.2424  1.5698 -2.0225
  690MOL0     H93110   5.302  11.279   3.639  1.6434  1.7403  2.9687
  690MOL0     H93111   5.097  11.546   3.569  1.6895  0.9639 -1.4870
  690MOL0     H93112   5.180  11.428   3.474 -1.9238  0.6223 -1.5663
  690MOL0     H93113   5.008  11.411   3.487 -0.0719 -1.3329  2.2047
  690MOL0     H93114   4.698  11.678   3.994  1.3823 -1.7551  0.1219
  690MOL0     H93115   4.462  11.733   3.994 -0.3134 -2.3413  1.7535
  690MOL0     H93116   4.199  11.584   3.691 -2.0643  3.6776  1.2701
  690MOL0     H93117   4.175  11.426   3.775 -0.3549 -0.1643 -0.7100
  690MOL0     H93118   3.961  11.546   3.749 -2.1443  0.3677  2.3803
  690MOL0     H93119   4.000  11.495   3.913  0.1451  0.1014  0.0163
  690MOL0     H93120   4.040  11.776   3.778  2.1842 -2.0777 -1.2048
  690MOL0     H93121   4.080  11.745   3.951  2.6078 -1.3547  0.4102
  690MOL0     H93122   3.799  11.703   3.865 -0.8260  0.4934  2.1660
  690MOL0     H93123   3.877  11.663   4.018  0.4208  0.4938  0.5336
  690MOL0     H93124   3.874  11.942   3.907  0.8078 -1.1026 -0.0361
  690MOL0     H93125   3.897  11.893   4.075 -0.1806 -0.5274  0.1445
  690MOL0     H93126   3.631  11.891   3.913 -0.0674  1.0758  0.5090
  690MOL0     H93127   3.650  11.816   4.072  0.1905  1.5988  1.8833
  690MOL0     H93128   3.712  12.047   4.141  2.7320  1.1402 -2.0421
  690MOL0     H93129   3.548  12.010   4.115 -0.1496  0.1889 -0.2483
  690MOL0     H93130   3.724  12.139   3.885 -0.8823  2.2287 -1.2367
  690MOL0     H93131   3.631  12.229   4.017 -2.4800 -0.5473 -0.4107
  690MOL0     H93132   4.385  11.386   3.746  0.5385  0.3819 -0.0171
  690MOL0     H93133   4.604  11.326   3.750 -0.5992 -2.6369  1.8437
  690MOL0     H93134   4.955  11.275   3.981  1.2052 -1.0557  0.0359
  690MOL0     H93135   5.147  11.143   4.009 -1.0855  0.0488  0.1802
  690MOL0     H93136   6.872  10.910   3.406 -1.1042 -1.4874  1.9121
  690MOL0     H93137   7.094  10.975   3.371  0.1024  1.8226 -0.9932
  690MOL0     H93138   7.538  11.074   3.752 -0.9538 -2.2950 -0.3496
  690MOL0     H93139   7.792  11.067   3.692  0.6983 -0.8884  0.1370
  690MOL0     H93140   7.942  11.196   3.582  1.9889 -1.5218  0.7372
  690MOL0     H93141   8.064  11.124   3.480  0.1725  1.1464  1.0666
  690MOL0     H93142   8.010  11.379   3.417  0.9899  0.3273 -2.3604
  690MOL0     H93143   7.847  11.321   3.366 -0.4464  1.1758  1.4911
  690MOL0     H93144   8.120  11.216   3.261  0.2431  0.4515 -2.8418
  690MOL0     H93145   8.046  11.365   3.197 -0.9321  1.0390  1.1196
  690MOL0     H93146   7.888  11.104   3.191 -1.0090  0.0721 -0.8674
  690MOL0     H93147   8.016  11.120   3.077 -0.2308 -0.1054 -1.2707
  690MOL0     H93148   7.755  11.370   2.891 -1.7627 -0.3091  0.8116
  690MOL0     H93149   7.663  11.089   3.273 -2.7562 -0.4987 -0.2924
  690MOL0     H93150   7.435  11.125   3.353  0.1233  1.3734 -0.5932
  691MOL0     O93151   0.495   5.815   8.764 -0.0737  0.4788 -0.3422
  691MOL0     C93152   0.520   5.934   8.782 -0.0073 -1.0448 -0.0930
  691MOL0     O93153   0.443   6.040   8.750  0.7877  0.0465 -0.5501
  691MOL0     C93154   0.327   6.020   8.682  0.2198 -0.5520  0.3145
  691MOL0     C93155   0.332   5.935   8.565  0.9566  0.4072 -0.0406
  691MOL0     C93156   0.214   5.909   8.489 -0.3866  0.3241 -0.3756
  691MOL0     C93157   0.091   5.971   8.529 -1.1010  0.7367  0.5620
  691MOL0     O93158  -0.027   5.949   8.457 -0.5160 -0.2470 -0.0661
  691MOL0     C93159  -0.040   5.853   8.358 -0.4964 -0.0354 -0.4524
  691MOL0     C93160  -0.159   5.902   8.278  0.1947 -0.3920  0.4120
  691MOL0     C93161  -0.303   5.849   8.318 -0.4649  0.0350 -0.6306
  691MOL0     C93162  -0.405   5.927   8.230  0.0421 -0.0751  0.5508
  691MOL0     C93163  -0.548   5.888   8.259 -0.0001 -0.4898  0.3617
  691MOL0     C93164  -0.617   5.954   8.389 -0.8451  0.3121  0.9435
  691MOL0     C93165  -0.744   5.882   8.420  1.1102 -0.0945 -0.6673
  691MOL0     C93166  -0.809   5.941   8.542 -0.3363  0.8516 -0.1447
  691MOL0     N93167  -0.949   5.905   8.545 -0.2225 -0.3897 -0.6755
  691MOL0     C93168  -0.991   5.775   8.562 -0.7207 -0.1239 -0.4533
  691MOL0     C93169  -1.114   5.785   8.603  0.2428 -0.5467  0.4478
  691MOL0     C93170  -1.201   5.684   8.665  0.5070  0.9783 -0.3560
  691MOL0     C93171  -1.350   5.707   8.628 -0.4622 -0.2787  0.5159
  691MOL0     C93172  -1.433   5.617   8.720  0.3496 -0.7528  0.6187
  691MOL0     C93173  -1.586   5.642   8.686 -1.1719  0.2967 -0.3101
  691MOL0     O93174  -1.653   5.520   8.713 -0.0885 -0.2381  0.1304
  691MOL0     C93175  -1.795   5.507   8.693  0.1233  0.1982 -0.1413
  691MOL0     C93176  -1.852   5.382   8.726  0.0656 -0.7648 -0.0198
  691MOL0     C93177  -1.990   5.356   8.699  0.4304  0.4910 -0.2920
  691MOL0     C93178  -2.027   5.209   8.747 -0.2428  0.0037  0.7247
  691MOL0     C93179  -2.077   5.458   8.658 -0.6871 -0.2979  0.0081
  691MOL0     C93180  -2.225   5.454   8.647 -0.1601 -0.4520  0.0784
  691MOL0     O93181  -2.296   5.557   8.603  0.2417 -0.3201  0.4026
  691MOL0     C93182  -2.429   5.577   8.625 -0.6186  0.4702 -0.6690
  691MOL0     C93183  -2.475   5.713   8.622  0.1743  0.2957 -0.0145
  691MOL0     C93184  -2.614   5.747   8.631 -0.0474 -0.2097  0.2564
  691MOL0     C93185  -2.700   5.640   8.649  0.8515 -0.7395  0.1984
  691MOL0     O93186  -2.831   5.667   8.638  0.5782 -0.1869  0.0303
  691MOL0     C93187  -2.887   5.801   8.643 -0.2499 -0.2559  0.0882
  691MOL0     C93188  -3.036   5.770   8.657 -0.3595  0.0490  0.2077
  691MOL0     C93189  -3.133   5.889   8.632  0.0669 -0.2124  0.1847
  691MOL0     C93190  -3.281   5.853   8.674 -0.2077 -0.2635  0.2033
  691MOL0     C93191  -3.364   5.977   8.667 -0.4085 -0.2451 -0.2358
  691MOL0     C93192  -3.498   5.968   8.744 -0.3139  0.4126  0.4208
  691MOL0     C93193  -3.582   6.097   8.723 -0.3291 -0.1467 -0.5341
  691MOL0     C93194  -3.727   6.071   8.730  0.3566 -0.2716 -0.1847
  691MOL0    Cl93195  -3.775   5.983   8.875  0.5897  0.1134 -0.6193
  691MOL0     C93196  -2.661   5.508   8.658  0.3030  0.0452  1.1927
  691MOL0     C93197  -2.523   5.477   8.646 -0.2919  0.2139  0.2082
  691MOL0     O93198  -2.275   5.348   8.682  0.0164 -0.5739  0.9073
  691MOL0     C93199  -2.007   5.585   8.639  1.2394  0.7645  0.2209
  691MOL0     C93200  -1.880   5.614   8.658 -0.8355 -0.0666  0.7371
  691MOL0     N93201  -1.153   5.918   8.598 -0.0385 -0.4508 -1.2896
  691MOL0     N93202  -1.045   5.986   8.570  0.4583 -0.0493 -0.7608
  691MOL0     C93203   0.097   6.065   8.627 -0.6771 -0.5396 -0.7747
  691MOL0     C93204   0.211   6.085   8.711  0.3580  0.6236  0.8300
  691MOL0     C93205   0.644   5.959   8.855  0.1520 -0.2033  0.0514
  691MOL0     C93206   0.717   5.859   8.913 -0.0047  0.1507  0.4731
  691MOL0     C93207   0.825   5.883   8.999 -0.6466  0.3204 -0.1238
  691MOL0     C93208   0.853   6.018   9.038 -0.1755 -0.8255  0.6042
  691MOL0     O93209   0.943   6.052   9.132 -0.1094 -0.0039  0.1954
  691MOL0     C93210   1.024   5.960   9.208 -0.5539  0.9590 -0.4049
  691MOL0     C93211   0.945   5.905   9.325  0.5169 -0.0447  0.5347
  691MOL0     C93212   1.021   5.803   9.414 -0.5204 -0.6174  0.1044
  691MOL0     C93213   1.029   5.662   9.359  0.1330  0.3357  0.0106
  691MOL0     C93214   0.897   5.607   9.319 -0.4533 -0.2883  0.5393
  691MOL0     C93215   0.790   5.582   9.266 -0.2727  1.3521 -0.1294
  691MOL0     C93216   0.780   6.123   8.975  0.0287  1.1663 -0.4318
  691MOL0     C93217   0.680   6.097   8.884  0.1166  0.7825 -0.1410
  691MOL0     H93218   0.432   5.901   8.541 -0.3014 -2.5833 -1.6006
  691MOL0     H93219   0.227   5.838   8.408  0.0577  1.0306 -0.9333
  691MOL0     H93220   0.047   5.850   8.291 -0.7371 -1.2289 -0.7374
  691MOL0     H93221  -0.063   5.755   8.400 -1.2597  1.0133  1.7149
  691MOL0     H93222  -0.159   6.011   8.282  2.8779 -0.3625  1.9372
  691MOL0     H93223  -0.134   5.879   8.174  2.1013 -1.8170  1.1324
  691MOL0     H93224  -0.299   5.741   8.299 -0.4508 -0.1493  0.3793
  691MOL0     H93225  -0.326   5.863   8.424  0.0033  3.6123 -0.8780
  691MOL0     H93226  -0.398   6.034   8.249 -1.3094  0.5059 -1.8847
  691MOL0     H93227  -0.387   5.911   8.123  1.6031 -1.9965  1.0380
  691MOL0     H93228  -0.608   5.924   8.175  0.5217  0.8803  0.5580
  691MOL0     H93229  -0.552   5.779   8.269  1.4233 -0.7525 -1.4598
  691MOL0     H93230  -0.546   5.948   8.471 -2.4870  0.1538  2.4113
  691MOL0     H93231  -0.629   6.063   8.381  0.0720  0.4584  1.4154
  691MOL0     H93232  -0.814   5.882   8.335 -1.6172 -1.9524  1.4020
  691MOL0     H93233  -0.724   5.777   8.445 -1.7328 -0.2825  1.3527
  691MOL0     H93234  -0.812   6.050   8.538  0.1966  0.9073  0.7447
  691MOL0     H93235  -0.758   5.909   8.633  0.5184  2.5111  0.0146
  691MOL0     H93236  -0.932   5.684   8.558 -2.5665 -1.3636 -0.6009
  691MOL0     H93237  -1.175   5.584   8.630 -2.7301  1.0922 -3.6628
  691MOL0     H93238  -1.183   5.692   8.773 -0.6046  0.7576 -0.1446
  691MOL0     H93239  -1.378   5.692   8.523 -3.7083 -0.9498  1.3806
  691MOL0     H93240  -1.370   5.813   8.647  0.7281 -0.5444  3.9900
  691MOL0     H93241  -1.420   5.624   8.828 -0.6946  2.0370  0.6220
  691MOL0     H93242  -1.415   5.513   8.689 -2.1736 -1.0218 -0.2384
  691MOL0     H93243  -1.588   5.667   8.580 -2.7326 -0.9944 -0.6202
  691MOL0     H93244  -1.633   5.731   8.729  3.2129  2.8530 -0.2344
  691MOL0     H93245  -1.784   5.318   8.782  0.0079  0.1699  1.1484
  691MOL0     H93246  -1.943   5.157   8.794  1.3948  0.4187 -1.5627
  691MOL0     H93247  -2.110   5.211   8.818 -1.2185  2.5824 -0.3622
  691MOL0     H93248  -2.055   5.148   8.660  1.2320  2.5814 -1.7393
  691MOL0     H93249  -2.396   5.783   8.596  0.2740 -0.0678 -0.7102
  691MOL0     H93250  -2.637   5.848   8.599 -2.2799  0.0684  2.3897
  691MOL0     H93251  -2.859   5.871   8.722 -1.8107 -0.0079  0.4620
  691MOL0     H93252  -2.872   5.844   8.544 -2.3456 -0.6711 -0.4648
  691MOL0     H93253  -3.066   5.691   8.588  0.0101 -0.6698  0.8495
  691MOL0     H93254  -3.043   5.724   8.756  2.9348 -0.3454  0.3829
  691MOL0     H93255  -3.138   5.916   8.527  0.8023 -0.4200  0.0889
  691MOL0     H93256  -3.105   5.972   8.698 -1.3774 -0.3636  1.0245
  691MOL0     H93257  -3.326   5.775   8.611  2.6663 -0.9328 -1.1665
  691MOL0     H93258  -3.284   5.809   8.774  2.3431  2.1907  1.4881
  691MOL0     H93259  -3.377   6.008   8.563  1.8396  1.2830 -0.1134
  691MOL0     H93260  -3.311   6.060   8.714  0.6817 -0.7775 -0.4908
  691MOL0     H93261  -3.541   5.874   8.707  3.0903 -1.7750  1.4575
  691MOL0     H93262  -3.489   5.954   8.852 -1.1597 -1.7377  0.2682
  691MOL0     H93263  -3.555   6.131   8.623  0.5435 -1.0944 -0.6362
  691MOL0     H93264  -3.572   6.172   8.803 -2.7860  0.8751 -1.0886
  691MOL0     H93265  -3.757   6.020   8.639  2.8476 -0.9614 -0.7058
  691MOL0     H93266  -3.767   6.172   8.739  0.9433  0.2312 -2.5197
  691MOL0     H93267  -2.734   5.427   8.651 -0.4897  0.8587 -0.5942
  691MOL0     H93268  -2.501   5.371   8.644 -0.5197  0.1407 -2.9300
  691MOL0     H93269  -2.070   5.671   8.617  0.6772 -0.2632 -2.6539
  691MOL0     H93270  -1.843   5.714   8.639 -0.1260 -0.6317 -1.0907
  691MOL0     H93271   0.020   6.137   8.653 -0.6967 -1.0835  0.7678
  691MOL0     H93272   0.209   6.158   8.791  0.1726  0.7673  0.6972
  691MOL0     H93273   0.710   5.759   8.873  2.9075 -0.6552  1.6772
  691MOL0     H93274   0.882   5.801   9.040  1.0579  1.1644 -0.6857
  691MOL0     H93275   1.064   5.882   9.143 -0.2152 -0.7095  1.6868
  691MOL0     H93276   1.106   6.011   9.258 -0.6648  1.1039 -0.3692
  691MOL0     H93277   0.844   5.869   9.301 -0.1144  2.0403 -0.2020
  691MOL0     H93278   0.926   5.992   9.389 -1.7290  0.0509 -0.1763
  691MOL0     H93279   0.974   5.801   9.513 -3.2865  0.4242 -1.0851
  691MOL0     H93280   1.123   5.843   9.421 -0.7898 -0.0926  1.4593
  691MOL0     H93281   1.072   5.592   9.431 -2.5556  0.6181  2.0741
  691MOL0     H93282   1.098   5.662   9.275  3.3854 -0.1560  2.4989
  691MOL0     H93283   0.702   5.572   9.207  0.9012 -1.1220 -1.6229
  691MOL0     H93284   0.792   6.228   8.997  0.7739  1.0482 -0.2580
  691MOL0     H93285   0.636   6.182   8.833  0.1402  2.7122  2.7914
  692MOL0     O93286   6.416   5.688   0.122  0.4372 -0.6241  0.3081
  692MOL0     C93287   6.498   5.775   0.102  0.0971  0.2431  0.1971
  692MOL0     O93288   6.475   5.913   0.088  0.4826 -0.1796  0.6228
  692MOL0     C93289   6.344   5.953   0.078  0.1063 -0.4106  0.3796
  692MOL0     C93290   6.277   5.976   0.194  0.1560  0.1972 -0.7396
  692MOL0     C93291   6.150   6.015   0.199 -0.1355  0.0252 -0.1839
  692MOL0     C93292   6.078   6.029   0.083  0.2963 -0.2102  0.0576
  692MOL0     O93293   5.950   6.084   0.099 -0.4150  0.2059  0.1585
  692MOL0     C93294   5.857   6.069  -0.012  0.2935  1.0690 -0.2972
  692MOL0     C93295   5.722   6.054   0.043  1.2981  0.2833  0.3628
  692MOL0     C93296   5.612   6.003  -0.053 -0.2127 -1.0161 -0.2918
  692MOL0     C93297   5.508   5.933   0.026  0.7359 -0.3081  1.1014
  692MOL0     C93298   5.396   5.873  -0.049  0.1264  0.0114 -0.1674
  692MOL0     C93299   5.295   5.812   0.051 -0.6022  0.5055 -1.0257
  692MOL0     C93300   5.187   5.744  -0.028  0.7314  0.6553 -0.3637
  692MOL0     C93301   5.120   5.644   0.068 -0.2524  0.2972  0.4258
  692MOL0     N93302   4.992   5.583   0.017 -0.7592 -0.4624  0.4571
  692MOL0     C93303   4.868   5.650  -0.017 -0.7575  0.5905 -0.1169
  692MOL0     C93304   4.784   5.553  -0.063  0.9655 -0.0645  0.0921
  692MOL0     C93305   4.646   5.563  -0.120  1.0551 -0.7578 -0.6715
  692MOL0     C93306   4.544   5.547  -0.006  0.2696  0.5477 -0.7462
  692MOL0     C93307   4.421   5.625  -0.046  0.1959 -0.2235  0.7251
  692MOL0     C93308   4.314   5.609   0.058  0.1997  1.4366 -0.6052
  692MOL0     O93309   4.183   5.647   0.019 -0.2001  0.9998  0.0768
  692MOL0     C93310   4.080   5.656   0.108 -0.3889  0.0740 -0.1251
  692MOL0     C93311   4.089   5.597   0.236 -0.1655 -0.3795 -0.6712
  692MOL0     C93312   3.977   5.597   0.320 -0.2364  0.3912 -0.2989
  692MOL0     C93313   3.991   5.534   0.454  0.0798 -0.0634  0.3238
  692MOL0     C93314   3.853   5.652   0.277 -0.7351  1.1652  0.4218
  692MOL0     C93315   3.737   5.661   0.365  0.4262  0.3876 -0.0092
  692MOL0     O93316   3.722   5.572   0.470 -0.2565 -0.5657 -0.3931
  692MOL0     C93317   3.617   5.574   0.556  0.2019 -0.5211  0.1817
  692MOL0     C93318   3.646   5.567   0.692 -0.2649 -0.1677  0.0707
  692MOL0     C93319   3.539   5.541   0.782 -0.7362 -0.5907  0.2578
  692MOL0     C93320   3.407   5.524   0.738  0.4796 -0.3629  0.4017
  692MOL0     O93321   3.314   5.505   0.842  0.6208  0.0248 -0.9555
  692MOL0     C93322   3.177   5.536   0.794  0.3996  0.7226 -0.4387
  692MOL0     C93323   3.093   5.556   0.922 -0.2586  0.4337 -0.5567
  692MOL0     C93324   2.946   5.505   0.905  0.5962  0.1957  0.3501
  692MOL0     C93325   2.856   5.539   1.024 -0.8670  0.1400 -0.1348
  692MOL0     C93326   2.838   5.424   1.127 -0.9692 -0.7304  0.2770
  692MOL0     C93327   2.735   5.460   1.236 -0.5229  1.0930  0.1031
  692MOL0     C93328   2.685   5.322   1.292  0.2054 -0.2539 -0.1765
  692MOL0     C93329   2.585   5.315   1.411 -0.0823 -0.4723 -0.0153
  692MOL0    Cl93330   2.436   5.401   1.360  0.0105  0.2150  0.3509
  692MOL0     C93331   3.381   5.525   0.602 -0.9973 -0.8270  0.6573
  692MOL0     C93332   3.484   5.548   0.506 -0.1520 -0.1399 -0.0033
  692MOL0     O93333   3.652   5.741   0.333  0.3792  0.4480  0.7027
  692MOL0     C93334   3.844   5.705   0.147 -0.9944 -0.6981  0.5768
  692MOL0     C93335   3.956   5.710   0.061 -0.3113  0.4897 -0.6357
  692MOL0     N93336   4.854   5.433  -0.058  0.0394  0.0831 -0.2916
  692MOL0     N93337   4.976   5.453  -0.019 -0.9005  0.1375 -0.7377
  692MOL0     C93338   6.141   6.005  -0.040  0.0995 -0.5520 -0.0951
  692MOL0     C93339   6.279   5.968  -0.042  0.0499 -0.8011 -0.5243
  692MOL0     C93340   6.635   5.727   0.096  0.1882 -0.0651  0.4272
  692MOL0     C93341   6.736   5.805   0.037 -0.3865 -0.2877 -0.4828
  692MOL0     C93342   6.861   5.739   0.025 -0.1071 -1.0387 -1.1300
  692MOL0     C93343   6.899   5.614   0.078 -0.5449  0.5981  0.1880
  692MOL0     O93344   7.029   5.572   0.072 -0.0133  0.5829 -0.1902
  692MOL0     C93345   7.063   5.439   0.126 -0.0101  0.6043 -0.5387
  692MOL0     C93346   7.214   5.423   0.146  0.1607  0.2490 -0.5450
  692MOL0     C93347   7.256   5.270   0.170 -0.5392  0.8895 -0.7166
  692MOL0     C93348   7.394   5.247   0.243  0.4778  0.3679  0.7753
  692MOL0     C93349   7.499   5.311   0.168 -0.2776  0.0780 -0.2181
  692MOL0     C93350   7.587   5.356   0.098  0.0940 -0.0844 -1.0865
  692MOL0     C93351   6.796   5.545   0.136  0.1921  0.3370 -1.3992
  692MOL0     C93352   6.669   5.597   0.155 -0.8009 -1.3065  0.7275
  692MOL0     H93353   6.331   5.971   0.288  1.1821 -3.5451 -1.3661
  692MOL0     H93354   6.087   6.030   0.287 -1.0790  1.0003 -0.9941
  692MOL0     H93355   5.870   6.159  -0.074 -0.7157  2.1166  0.9618
  692MOL0     H93356   5.883   5.979  -0.069  2.9125 -0.5006  3.0307
  692MOL0     H93357   5.726   5.975   0.119 -0.8986 -1.2353 -0.9963
  692MOL0     H93358   5.681   6.149   0.079  2.7461  0.4858  1.5933
  692MOL0     H93359   5.576   6.087  -0.113  0.4440 -0.4016  0.1584
  692MOL0     H93360   5.666   5.936  -0.121 -0.0353  0.4407 -1.6467
  692MOL0     H93361   5.554   5.847   0.076 -0.3736 -0.6934  1.4756
  692MOL0     H93362   5.464   5.997   0.103 -0.4317 -0.5777  0.6711
  692MOL0     H93363   5.355   5.957  -0.106  1.4410  1.5016  1.0024
  692MOL0     H93364   5.439   5.796  -0.114  1.3600 -0.6667  1.3811
  692MOL0     H93365   5.350   5.746   0.118 -1.2074  0.8470 -0.1761
  692MOL0     H93366   5.252   5.890   0.115  1.7999  0.8977  0.2279
  692MOL0     H93367   5.112   5.807  -0.075  0.1016 -0.5437 -1.0159
  692MOL0     H93368   5.231   5.681  -0.105  1.3860 -0.8039  1.1375
  692MOL0     H93369   5.091   5.705   0.155  2.3512  1.5974  0.4711
  692MOL0     H93370   5.186   5.562   0.095 -2.7843 -2.6524 -1.6449
  692MOL0     H93371   4.858   5.758  -0.013 -0.9883  0.5382  0.8828
  692MOL0     H93372   4.641   5.661  -0.168  0.4021 -1.6608 -2.5358
  692MOL0     H93373   4.631   5.483  -0.194  0.6340 -2.5712  1.2623
  692MOL0     H93374   4.579   5.593   0.086 -0.2258  2.5053 -1.4813
  692MOL0     H93375   4.515   5.442   0.005 -1.9766  1.1510 -0.2615
  692MOL0     H93376   4.384   5.591  -0.143 -2.8046  1.5603  1.1302
  692MOL0     H93377   4.450   5.730  -0.060  1.5306 -0.3183  2.4877
  692MOL0     H93378   4.345   5.684   0.131  0.7154  2.4558 -1.8201
  692MOL0     H93379   4.307   5.506   0.093 -2.3123  2.2337  1.4735
  692MOL0     H93380   4.185   5.554   0.265  0.7330  1.6067 -0.4914
  692MOL0     H93381   3.955   5.431   0.462 -0.6791  0.2968  1.7410
  692MOL0     H93382   4.093   5.539   0.493 -0.1328 -3.2604  1.5812
  692MOL0     H93383   3.937   5.590   0.530 -2.8087  0.4100 -1.8951
  692MOL0     H93384   3.747   5.585   0.725 -0.0003 -1.6895  0.1540
  692MOL0     H93385   3.565   5.542   0.888 -0.7283  3.3216  0.3808
  692MOL0     H93386   3.174   5.619   0.723 -0.5869  0.9936 -0.0937
  692MOL0     H93387   3.148   5.443   0.744  4.2779 -0.6833 -0.4290
  692MOL0     H93388   3.146   5.516   1.009 -2.3716  0.3960  0.7897
  692MOL0     H93389   3.086   5.665   0.926  2.8012  0.8993 -3.7745
  692MOL0     H93390   2.939   5.398   0.883  0.5909 -0.3355  2.6211
  692MOL0     H93391   2.903   5.560   0.821 -1.3459 -0.6271  0.7487
  692MOL0     H93392   2.897   5.629   1.071  2.3367 -1.3852  0.2830
  692MOL0     H93393   2.759   5.563   0.980 -0.6990 -2.1280 -1.9442
  692MOL0     H93394   2.931   5.397   1.178 -0.3146  3.5036  1.7244
  692MOL0     H93395   2.802   5.337   1.072 -1.6084 -0.7081  0.6534
  692MOL0     H93396   2.768   5.531   1.311  0.5130  0.4738  0.2537
  692MOL0     H93397   2.651   5.503   1.181 -3.0790 -2.0999  1.1321
  692MOL0     H93398   2.773   5.260   1.310  0.4528  0.0734 -0.2619
  692MOL0     H93399   2.630   5.264   1.216  0.3471 -0.8758  0.1836
  692MOL0     H93400   2.618   5.371   1.499 -1.2894 -0.3583  0.3885
  692MOL0     H93401   2.571   5.211   1.441  0.5006 -1.5936 -3.2594
  692MOL0     H93402   3.282   5.501   0.566  0.0918 -2.2380 -1.6163
  692MOL0     H93403   3.474   5.551   0.398  2.4371  0.0607 -0.2834
  692MOL0     H93404   3.748   5.749   0.124 -0.0996 -0.0886 -2.4195
  692MOL0     H93405   3.954   5.758  -0.036  2.4503  1.5519 -0.2741
  692MOL0     H93406   6.079   6.022  -0.128 -1.9498  0.1384  1.3941
  692MOL0     H93407   6.320   5.931  -0.135 -1.4549  0.8639 -1.9321
  692MOL0     H93408   6.710   5.901  -0.007  1.4526  1.0126  1.0966
  692MOL0     H93409   6.935   5.800  -0.026  0.8295 -2.5820 -1.7060
  692MOL0     H93410   7.007   5.419   0.218 -0.3025 -0.0729 -0.8549
  692MOL0     H93411   7.031   5.366   0.051 -0.3112 -0.5879  0.7182
  692MOL0     H93412   7.250   5.485   0.229 -1.5377  0.8727 -0.2347
  692MOL0     H93413   7.257   5.462   0.054  2.5718  1.0936  0.8399
  692MOL0     H93414   7.261   5.226   0.070 -1.2621 -0.0612 -0.3454
  692MOL0     H93415   7.181   5.221   0.233  0.8261  0.0921  0.3230
  692MOL0     H93416   7.420   5.142   0.261 -2.1298 -0.2223  1.4878
  692MOL0     H93417   7.381   5.292   0.341 -2.0483 -0.1408  0.7369
  692MOL0     H93418   7.656   5.419   0.044  1.1736  1.6377  2.0383
  692MOL0     H93419   6.801   5.442   0.170  0.4983  1.0661  0.9399
  692MOL0     H93420   6.592   5.537   0.203 -0.0643 -2.2000  0.8207
  693MOL0     O93421   2.670   0.493   0.138 -0.0179  0.2291  0.2134
  693MOL0     C93422   2.646   0.572   0.049 -0.1847 -0.0272  0.0705
  693MOL0     O93423   2.522   0.582  -0.009 -0.0206  0.0414 -0.2896
  693MOL0     C93424   2.424   0.503   0.045  0.2790  0.7078  0.6658
  693MOL0     C93425   2.321   0.545   0.139  0.0770 -0.1850  0.2848
  693MOL0     C93426   2.223   0.454   0.177 -0.2543 -0.4306  0.9251
  693MOL0     C93427   2.217   0.325   0.119  0.1690 -0.7525 -0.2406
  693MOL0     O93428   2.130   0.227   0.161  0.4361 -0.4874 -0.5377
  693MOL0     C93429   2.123   0.192   0.300 -0.0503 -0.9953  0.3992
  693MOL0     C93430   2.071   0.053   0.320 -0.3313 -0.6683  0.0638
  693MOL0     C93431   1.923   0.037   0.294  0.4900  0.7166  0.8894
  693MOL0     C93432   1.890  -0.117   0.275  1.0340  0.7892  0.1857
  693MOL0     C93433   1.744  -0.145   0.317  0.1302  0.3398  0.6519
  693MOL0     C93434   1.749  -0.246   0.435  0.2153  0.8777  0.2194
  693MOL0     C93435   1.623  -0.298   0.494 -0.6991  0.5320 -0.5703
  693MOL0     C93436   1.624  -0.425   0.586 -0.9652 -1.1689 -0.2630
  693MOL0     N93437   1.736  -0.414   0.681 -0.1248  0.5535  0.0595
  693MOL0     C93438   1.757  -0.322   0.786  0.3049 -0.3286  0.4770
  693MOL0     C93439   1.865  -0.371   0.844 -0.4189 -0.0783 -0.2669
  693MOL0     C93440   1.923  -0.332   0.974 -0.2403 -0.2100  0.1110
  693MOL0     C93441   1.904  -0.180   0.992  0.2009  0.5807 -0.1137
  693MOL0     C93442   1.967  -0.121   1.121 -0.7398  0.8349 -0.3024
  693MOL0     C93443   1.926   0.023   1.131  0.2831  0.1229 -0.5199
  693MOL0     O93444   1.793   0.046   1.098 -0.1852  0.0125  0.2497
  693MOL0     C93445   1.689   0.032   1.188  0.8038 -0.1995 -0.3704
  693MOL0     C93446   1.614   0.142   1.233 -0.9172 -0.2398  0.1563
  693MOL0     C93447   1.497   0.138   1.297 -0.1060 -0.8069 -0.5069
  693MOL0     C93448   1.432   0.277   1.325  0.4227  0.4039 -0.1138
  693MOL0     C93449   1.450   0.008   1.340  0.3108 -0.6839 -0.4890
  693MOL0     C93450   1.299  -0.003   1.389 -0.4067  0.0090  0.1658
  693MOL0     O93451   1.250  -0.125   1.375 -0.2787  0.8374 -0.0559
  693MOL0     C93452   1.121  -0.163   1.413  0.0904 -0.3226  0.3366
  693MOL0     C93453   1.073  -0.286   1.365 -0.1256 -0.2439  0.0045
  693MOL0     C93454   0.944  -0.340   1.398 -0.6417  0.3571  0.2103
  693MOL0     C93455   0.859  -0.267   1.488  0.4135 -0.2208 -0.1677
  693MOL0     O93456   0.740  -0.313   1.535  0.4185  0.7231  0.7925
  693MOL0     C93457   0.662  -0.397   1.441 -0.1460  0.7962 -0.7621
  693MOL0     C93458   0.511  -0.369   1.477 -0.6073 -0.3614 -0.4123
  693MOL0     C93459   0.415  -0.374   1.355  0.8685  0.8327 -0.4006
  693MOL0     C93460   0.412  -0.523   1.297 -0.0982  0.3942  0.4005
  693MOL0     C93461   0.274  -0.545   1.226  0.7315  0.1621  0.2521
  693MOL0     C93462   0.275  -0.698   1.193 -0.6070  0.6328  0.3537
  693MOL0     C93463   0.145  -0.740   1.129 -0.0609  0.1565  0.8211
  693MOL0     C93464   0.132  -0.898   1.130 -0.2953  1.1426 -0.0190
  693MOL0    Cl93465   0.262  -0.984   1.040  0.0092  0.0135  0.1986
  693MOL0     C93466   0.914  -0.151   1.534 -0.3112 -0.3040  0.4698
  693MOL0     C93467   1.034  -0.093   1.499  0.0561 -0.1591  0.3516
  693MOL0     O93468   1.233   0.094   1.432 -0.7252  0.4573  0.0520
  693MOL0     C93469   1.522  -0.109   1.312 -0.0656  0.0858  0.3577
  693MOL0     C93470   1.635  -0.098   1.226 -1.3796  0.4547 -0.3658
  693MOL0     N93471   1.921  -0.481   0.777  0.0092 -0.2340  0.4340
  693MOL0     N93472   1.833  -0.506   0.686  0.8751  0.1575 -0.2299
  693MOL0     C93473   2.313   0.289   0.030 -0.2109 -0.1824  0.0257
  693MOL0     C93474   2.414   0.380  -0.012  0.2355  0.4309 -0.2077
  693MOL0     C93475   2.743   0.682   0.021 -0.9134 -0.4818 -0.5828
  693MOL0     C93476   2.734   0.767  -0.086 -0.4856 -0.8413 -0.2283
  693MOL0     C93477   2.844   0.842  -0.129  0.1652  0.0055 -0.5548
  693MOL0     C93478   2.958   0.844  -0.049  0.1123 -0.5070 -0.5594
  693MOL0     O93479   3.060   0.929  -0.077  0.3730 -0.2142 -0.4127
  693MOL0     C93480   3.069   0.976  -0.213  1.3666 -0.6550 -0.8655
  693MOL0     C93481   3.184   1.074  -0.239  0.7149  0.6371 -0.1389
  693MOL0     C93482   3.313   1.001  -0.217 -0.4132 -0.1434 -0.4025
  693MOL0     C93483   3.429   1.067  -0.299  0.1014  0.8761  0.3193
  693MOL0     C93484   3.555   0.995  -0.303 -0.2432 -0.7140  0.6321
  693MOL0     C93485   3.665   0.942  -0.296 -0.2419  0.3885 -0.1234
  693MOL0     C93486   2.954   0.777   0.073  0.5211 -0.7612  0.7420
  693MOL0     C93487   2.850   0.692   0.107  0.6084 -0.9588 -0.1785
  693MOL0     H93488   2.326   0.643   0.187 -1.3854 -1.5367  3.5185
  693MOL0     H93489   2.147   0.492   0.245  0.1432  2.8542 -0.3303
  693MOL0     H93490   2.222   0.196   0.345  0.1930 -1.4620 -0.0910
  693MOL0     H93491   2.063   0.267   0.354 -0.2525 -1.2846  0.5758
  693MOL0     H93492   2.127  -0.014   0.253  0.5816  0.3848 -0.2679
  693MOL0     H93493   2.096   0.030   0.424  2.5728 -0.1852 -0.4476
  693MOL0     H93494   1.864   0.075   0.378 -2.4898 -0.7368 -0.4146
  693MOL0     H93495   1.904   0.091   0.201 -1.4981 -0.2900  0.6648
  693MOL0     H93496   1.916  -0.143   0.172  0.6543  0.2066  0.2376
  693MOL0     H93497   1.948  -0.178   0.345 -1.0465 -0.9736  0.4700
  693MOL0     H93498   1.676  -0.063   0.343 -1.9491 -1.2140  0.4112
  693MOL0     H93499   1.698  -0.189   0.228 -1.2291 -0.8949  1.9005
  693MOL0     H93500   1.806  -0.337   0.414 -0.4366  1.1835 -3.4146
  693MOL0     H93501   1.795  -0.197   0.522  0.5960 -1.3447  1.3326
  693MOL0     H93502   1.586  -0.215   0.555  1.6271  0.6665  0.7390
  693MOL0     H93503   1.546  -0.318   0.419 -0.5129 -0.7105 -0.4434
  693MOL0     H93504   1.630  -0.512   0.520  0.1919 -1.2129 -0.1332
  693MOL0     H93505   1.528  -0.438   0.637 -0.7640  0.9511  0.7525
  693MOL0     H93506   1.684  -0.249   0.822  0.9290  0.0164  1.0590
  693MOL0     H93507   1.872  -0.394   1.048  1.8712 -0.3110  1.5536
  693MOL0     H93508   2.029  -0.356   0.973 -0.1330  0.1708 -1.5784
  693MOL0     H93509   1.800  -0.153   0.974 -0.0334  0.1048  0.4793
  693MOL0     H93510   1.959  -0.135   0.909  0.6408 -1.4207 -0.9752
  693MOL0     H93511   2.075  -0.139   1.132 -1.3248 -1.9111  2.2387
  693MOL0     H93512   1.919  -0.172   1.205 -0.2959 -2.2144 -1.7692
  693MOL0     H93513   1.986   0.073   1.054  2.0316 -1.1629 -0.0778
  693MOL0     H93514   1.948   0.071   1.227 -1.3063 -0.5702  0.2204
  693MOL0     H93515   1.652   0.239   1.204 -2.0494  0.9826  2.5364
  693MOL0     H93516   1.354   0.303   1.253  0.0058 -0.1963  0.1091
  693MOL0     H93517   1.402   0.281   1.431  0.8661  0.5943  0.0039
  693MOL0     H93518   1.506   0.358   1.324  1.6219 -0.6540  0.2555
  693MOL0     H93519   1.133  -0.363   1.318 -1.7403 -2.4957  1.3695
  693MOL0     H93520   0.920  -0.440   1.363 -2.2265  0.7996 -0.0917
  693MOL0     H93521   0.681  -0.379   1.335  2.0931 -2.0464 -0.9787
  693MOL0     H93522   0.679  -0.504   1.456  0.0452  1.1624  2.2637
  693MOL0     H93523   0.486  -0.441   1.556 -0.2788 -0.9122 -0.8020
  693MOL0     H93524   0.499  -0.269   1.519 -1.6918 -0.5094 -0.3330
  693MOL0     H93525   0.434  -0.306   1.271  0.7289 -3.7626 -4.5930
  693MOL0     H93526   0.316  -0.367   1.401  1.3403 -0.3501  0.8889
  693MOL0     H93527   0.494  -0.528   1.225  1.1344  0.2247  1.7799
  693MOL0     H93528   0.434  -0.592   1.379 -2.0543 -1.3256 -0.4180
  693MOL0     H93529   0.263  -0.482   1.137 -2.1951 -2.4270 -1.3984
  693MOL0     H93530   0.183  -0.517   1.279 -2.5183  0.5929 -4.8197
  693MOL0     H93531   0.359  -0.730   1.131 -1.7581 -2.7128  0.3038
  693MOL0     H93532   0.291  -0.755   1.285 -1.1803 -2.0231 -1.0840
  693MOL0     H93533   0.132  -0.699   1.029  0.3481 -3.8337 -1.0541
  693MOL0     H93534   0.065  -0.694   1.188 -0.1455  1.0229  0.0631
  693MOL0     H93535   0.036  -0.933   1.091 -0.1006 -2.3606  2.2144
  693MOL0     H93536   0.133  -0.921   1.237  0.5029  1.7696  0.1193
  693MOL0     H93537   0.850  -0.105   1.608  0.5083  0.1015  0.9421
  693MOL0     H93538   1.074  -0.009   1.555 -1.9900  0.4505  1.0208
  693MOL0     H93539   1.485  -0.201   1.357 -0.5540 -0.0860 -0.3765
  693MOL0     H93540   1.669  -0.196   1.192  2.5200  0.6364  2.3713
  693MOL0     H93541   2.331   0.187  -0.003 -1.6217 -0.6128  0.5032
  693MOL0     H93542   2.493   0.345  -0.078  0.5605  0.3802  0.2000
  693MOL0     H93543   2.642   0.764  -0.144 -2.2876 -1.2288  2.4569
  693MOL0     H93544   2.833   0.890  -0.226  2.5582 -1.0606 -1.4190
  693MOL0     H93545   3.074   0.890  -0.281  2.0739  1.5781 -3.8056
  693MOL0     H93546   2.982   1.036  -0.240  1.0115 -1.4437 -1.5369
  693MOL0     H93547   3.177   1.162  -0.174  1.9458  1.3864 -0.9860
  693MOL0     H93548   3.173   1.122  -0.336 -2.4731  4.1313  1.6517
  693MOL0     H93549   3.300   0.895  -0.237  0.7967 -0.9623  2.5402
  693MOL0     H93550   3.342   1.012  -0.112  0.8688 -1.7168 -0.5591
  693MOL0     H93551   3.452   1.166  -0.260  1.3551  1.1544 -1.0355
  693MOL0     H93552   3.401   1.071  -0.404  1.2778 -0.5861 -0.0889
  693MOL0     H93553   3.749   0.883  -0.269  0.9416  1.6356 -0.9608
  693MOL0     H93554   3.030   0.795   0.148  0.5534  1.5325  0.2051
  693MOL0     H93555   2.860   0.628   0.195 -1.3011 -1.3532 -0.2094
  694MOL0     O93556   0.352   8.424   0.258 -0.8189 -0.8924 -0.5114
  694MOL0     C93557   0.424   8.409   0.360 -0.3214  0.0182 -0.1884
  694MOL0     O93558   0.381   8.352   0.472 -0.1980 -0.1345  0.3636
  694MOL0     C93559   0.250   8.300   0.470 -0.9402  0.2003 -0.5966
  694MOL0     C93560   0.159   8.362   0.552 -0.1002  0.2423 -0.4405
  694MOL0     C93561   0.022   8.322   0.564 -0.8343 -0.3688  0.2223
  694MOL0     C93562  -0.022   8.209   0.501 -0.3642  0.7200  0.2121
  694MOL0     O93563  -0.145   8.155   0.512 -0.1215  0.6034  0.0636
  694MOL0     C93564  -0.252   8.231   0.483  0.2685  0.3499  0.5135
  694MOL0     C93565  -0.377   8.134   0.469 -0.3547  0.3725 -0.4414
  694MOL0     C93566  -0.499   8.200   0.410  0.5762  0.4112  0.4947
  694MOL0     C93567  -0.608   8.232   0.509  0.0392  0.9312 -0.5811
  694MOL0     C93568  -0.721   8.310   0.451  0.5711 -0.2925  0.3123
  694MOL0     C93569  -0.858   8.320   0.532 -0.4408 -0.0922 -0.7361
  694MOL0     C93570  -0.962   8.414   0.466 -0.3071  0.7979 -0.3402
  694MOL0     C93571  -1.028   8.352   0.350  0.2208 -0.5629 -0.1859
  694MOL0     N93572  -1.060   8.467   0.269  0.6840  0.2731  0.4837
  694MOL0     C93573  -1.183   8.525   0.255 -0.9276 -0.1521 -0.8971
  694MOL0     C93574  -1.171   8.617   0.159 -0.7659  0.3049  0.4312
  694MOL0     C93575  -1.285   8.688   0.104  0.7267 -0.2602 -0.5210
  694MOL0     C93576  -1.406   8.708   0.197  0.0830 -0.5869  0.9229
  694MOL0     C93577  -1.500   8.815   0.140 -0.1762 -0.3689  0.4672
  694MOL0     C93578  -1.643   8.788   0.186 -0.1276 -0.0176  0.3992
  694MOL0     O93579  -1.667   8.827   0.327 -0.0630  0.7422 -0.7439
  694MOL0     C93580  -1.790   8.796   0.391  0.5716  0.5309 -0.0398
  694MOL0     C93581  -1.818   8.865   0.509  0.7525 -0.3144 -0.7624
  694MOL0     C93582  -1.933   8.834   0.586  1.0301  1.2318 -0.8306
  694MOL0     C93583  -1.949   8.906   0.714  0.2498 -0.3173  0.3238
  694MOL0     C93584  -2.033   8.733   0.537 -1.3597  0.0452 -0.5443
  694MOL0     C93585  -2.159   8.693   0.611  0.2067  0.1087 -0.0935
  694MOL0     O93586  -2.263   8.633   0.540 -0.2340 -0.5059  0.4684
  694MOL0     C93587  -2.373   8.586   0.608 -0.1024 -0.2513  0.5293
  694MOL0     C93588  -2.449   8.656   0.702 -0.4145 -0.3387 -0.6501
  694MOL0     C93589  -2.552   8.595   0.774 -0.0865  0.7153  1.1801
  694MOL0     C93590  -2.592   8.468   0.724 -0.3177 -0.2342 -0.4515
  694MOL0     O93591  -2.693   8.396   0.772  0.6405 -0.0171 -0.6548
  694MOL0     C93592  -2.775   8.455   0.880  1.4461  0.1056  0.5035
  694MOL0     C93593  -2.884   8.351   0.901 -0.1984  0.2684 -0.0740
  694MOL0     C93594  -3.013   8.385   0.826 -0.0603  0.9858 -0.3697
  694MOL0     C93595  -3.127   8.310   0.877  0.1201  0.5975 -0.2633
  694MOL0     C93596  -3.251   8.322   0.799  0.0691  0.1382  1.0431
  694MOL0     C93597  -3.373   8.269   0.877  0.2178 -0.9230  0.8203
  694MOL0     C93598  -3.500   8.257   0.793  0.2052 -0.0790 -0.1855
  694MOL0     C93599  -3.581   8.132   0.836 -0.4804 -0.5388  0.4163
  694MOL0    Cl93600  -3.648   8.058   0.699  0.0893 -0.0175  0.3589
  694MOL0     C93601  -2.516   8.398   0.632 -0.5141 -0.2430  0.0814
  694MOL0     C93602  -2.401   8.457   0.584 -1.4282  0.4466  0.0826
  694MOL0     O93603  -2.145   8.702   0.731 -0.2264 -0.4483 -0.1744
  694MOL0     C93604  -2.006   8.670   0.409  0.1285 -0.2074 -0.0241
  694MOL0     C93605  -1.892   8.714   0.341  0.2855  0.3641  0.6373
  694MOL0     N93606  -1.036   8.623   0.115 -0.5659  1.1327  0.5443
  694MOL0     N93607  -0.975   8.536   0.188 -0.0583 -0.3273  0.6459
  694MOL0     C93608   0.074   8.129   0.428  0.6897 -0.7954  0.6079
  694MOL0     C93609   0.208   8.179   0.411  0.4533  0.7366 -0.6766
  694MOL0     C93610   0.566   8.451   0.367 -0.5278 -0.1181 -0.0105
  694MOL0     C93611   0.653   8.398   0.465 -0.0962  0.5842  0.2385
  694MOL0     C93612   0.787   8.434   0.470  0.4888 -0.8611  0.2462
  694MOL0     C93613   0.838   8.507   0.361 -0.2327  0.2183 -0.0698
  694MOL0     O93614   0.975   8.531   0.342 -0.6661 -0.2847  0.2289
  694MOL0     C93615   1.069   8.491   0.442 -0.2220 -0.3056 -0.5505
  694MOL0     C93616   1.125   8.358   0.402  0.1350 -0.4816 -0.4391
  694MOL0     C93617   1.168   8.362   0.258 -0.6832  0.7398  0.1279
  694MOL0     C93618   1.254   8.241   0.216 -0.0514 -0.3616 -0.3676
  694MOL0     C93619   1.171   8.122   0.202  0.0103 -0.2459  0.0253
  694MOL0     C93620   1.080   8.035   0.192  0.6960  1.2314 -0.6486
  694MOL0     C93621   0.753   8.550   0.256 -0.2874 -0.2134 -0.4512
  694MOL0     C93622   0.614   8.530   0.267 -0.5215  0.3869 -0.4030
  694MOL0     H93623   0.185   8.446   0.616 -2.9783 -1.0393  2.7130
  694MOL0     H93624  -0.044   8.374   0.632 -0.3798  0.4520  0.0501
  694MOL0     H93625  -0.270   8.295   0.569  0.8019  0.2357  0.7150
  694MOL0     H93626  -0.243   8.288   0.390 -3.7077  0.6603  0.1632
  694MOL0     H93627  -0.348   8.045   0.412  2.0756  0.3436  0.7284
  694MOL0     H93628  -0.403   8.091   0.566 -0.9031 -1.9241 -1.5220
  694MOL0     H93629  -0.469   8.293   0.361  0.7799  0.4501  0.6937
  694MOL0     H93630  -0.544   8.139   0.331  3.7911  1.7626 -2.6915
  694MOL0     H93631  -0.645   8.139   0.554  0.1530  0.4694 -1.4334
  694MOL0     H93632  -0.571   8.285   0.597  0.8926  0.7485 -0.8278
  694MOL0     H93633  -0.685   8.410   0.426  0.6209 -0.3384  0.1975
  694MOL0     H93634  -0.754   8.261   0.359  0.6825  2.3980 -1.2475
  694MOL0     H93635  -0.895   8.217   0.544  3.3037 -1.4583  0.5272
  694MOL0     H93636  -0.840   8.357   0.633 -3.4043 -1.4496  0.4306
  694MOL0     H93637  -1.037   8.444   0.539 -1.8640 -0.5438 -1.3055
  694MOL0     H93638  -0.917   8.507   0.432  1.4876 -0.3544 -1.2733
  694MOL0     H93639  -1.118   8.308   0.394 -1.7287  1.2717 -2.0993
  694MOL0     H93640  -0.971   8.271   0.303 -0.1284 -0.9197 -0.0010
  694MOL0     H93641  -1.271   8.488   0.307 -0.5374  1.4425  0.9816
  694MOL0     H93642  -1.264   8.784   0.055  1.5661  0.5815  1.4062
  694MOL0     H93643  -1.329   8.632   0.021  1.6770  0.5895 -1.6442
  694MOL0     H93644  -1.371   8.732   0.297  2.4291 -1.2675  0.3087
  694MOL0     H93645  -1.459   8.612   0.194 -0.2272 -0.4195  0.9347
  694MOL0     H93646  -1.498   8.811   0.030  2.1666 -0.9736  0.4796
  694MOL0     H93647  -1.463   8.914   0.166 -4.5956  2.1069 -1.4590
  694MOL0     H93648  -1.668   8.683   0.173 -0.5908  0.1211  0.1336
  694MOL0     H93649  -1.695   8.855   0.117  0.4820 -2.6067 -2.8314
  694MOL0     H93650  -1.739   8.928   0.550  1.0579 -1.7501  0.9652
  694MOL0     H93651  -2.054   8.935   0.726 -0.6898 -3.2730  0.1318
  694MOL0     H93652  -1.917   8.833   0.789  0.8198 -0.4482 -0.0373
  694MOL0     H93653  -1.875   8.987   0.722  1.1716 -0.9706 -1.1660
  694MOL0     H93654  -2.418   8.756   0.733 -2.3134 -0.3967  1.7260
  694MOL0     H93655  -2.613   8.640   0.851 -0.3310  1.3639  0.6226
  694MOL0     H93656  -2.712   8.453   0.969  3.0169 -0.1752 -0.5818
  694MOL0     H93657  -2.807   8.559   0.872 -0.9730 -0.6702 -1.3768
  694MOL0     H93658  -2.851   8.248   0.890  1.8379  0.4458  3.1329
  694MOL0     H93659  -2.911   8.353   1.007  1.4760 -2.2005  0.4841
  694MOL0     H93660  -2.999   8.366   0.719 -2.8579 -0.7908 -0.5201
  694MOL0     H93661  -3.027   8.493   0.832  0.0139  0.9677  0.1442
  694MOL0     H93662  -3.094   8.206   0.884  0.3661  0.4023 -3.0110
  694MOL0     H93663  -3.149   8.343   0.978 -0.1747  2.6936 -0.9726
  694MOL0     H93664  -3.243   8.252   0.715 -0.4802 -1.4086  2.2505
  694MOL0     H93665  -3.270   8.423   0.760 -3.1682 -0.7483 -0.0197
  694MOL0     H93666  -3.353   8.170   0.919  0.6804 -0.9411  0.5675
  694MOL0     H93667  -3.393   8.335   0.961 -0.2879  0.6314 -0.4720
  694MOL0     H93668  -3.484   8.258   0.685 -1.7443  3.9341 -0.6252
  694MOL0     H93669  -3.566   8.340   0.821  1.1992  0.7486 -0.2487
  694MOL0     H93670  -3.662   8.159   0.904 -0.8471  1.8274 -0.8380
  694MOL0     H93671  -3.513   8.051   0.864  0.9667  0.4545 -0.0896
  694MOL0     H93672  -2.550   8.296   0.615 -0.5319  0.0661 -1.9999
  694MOL0     H93673  -2.341   8.396   0.518 -0.4681 -1.9896  2.9790
  694MOL0     H93674  -2.061   8.592   0.359  0.5878  0.1912 -1.1996
  694MOL0     H93675  -1.873   8.664   0.247 -0.0696  0.8426  0.3081
  694MOL0     H93676   0.045   8.034   0.382  0.2199 -0.1056 -0.5912
  694MOL0     H93677   0.280   8.116   0.359  1.4803  1.6493 -0.3881
  694MOL0     H93678   0.617   8.331   0.542 -1.5283  0.5903 -0.3891
  694MOL0     H93679   0.846   8.394   0.552  2.4656 -1.4482 -1.3676
  694MOL0     H93680   1.154   8.560   0.445  2.0902 -2.8954 -1.8647
  694MOL0     H93681   1.029   8.488   0.543  0.0447  4.0601 -0.1521
  694MOL0     H93682   1.049   8.279   0.410  1.2992 -1.5393  0.6656
  694MOL0     H93683   1.200   8.320   0.472 -1.3554 -1.7996  0.5096
  694MOL0     H93684   1.221   8.456   0.241 -1.5345  1.2546  0.2574
  694MOL0     H93685   1.076   8.360   0.198 -1.6614 -3.5339  1.3924
  694MOL0     H93686   1.342   8.220   0.278 -0.8489 -3.1504 -0.0581
  694MOL0     H93687   1.300   8.264   0.119  1.2687  2.1730  0.7313
  694MOL0     H93688   1.009   7.954   0.193  3.6658 -1.6391  2.4154
  694MOL0     H93689   0.795   8.611   0.176  2.0915 -3.0177 -1.5584
  694MOL0     H93690   0.541   8.564   0.194 -0.4006 -1.9509 -1.7036
  695MOL0     O93691   5.938   5.150   3.440 -0.1369 -0.6834  0.9620
  695MOL0     C93692   5.968   5.224   3.535  0.0083  0.3429  0.3355
  695MOL0     O93693   5.915   5.231   3.653 -0.0546  0.2052  0.0142
  695MOL0     C93694   5.807   5.145   3.687 -0.7354  0.4310 -0.2350
  695MOL0     C93695   5.698   5.184   3.768 -0.1160  0.9855 -0.1113
  695MOL0     C93696   5.593   5.098   3.801 -0.4502  0.2480 -0.6240
  695MOL0     C93697   5.598   4.965   3.754  0.8837  0.1818 -0.1323
  695MOL0     O93698   5.487   4.886   3.786 -0.2729  1.0566 -0.7381
  695MOL0     C93699   5.502   4.742   3.777  0.0222 -0.7765  0.0852
  695MOL0     C93700   5.392   4.673   3.870 -1.3654  0.4124  0.3585
  695MOL0     C93701   5.252   4.725   3.839 -0.0685 -0.0699 -0.5553
  695MOL0     C93702   5.160   4.597   3.813  0.3569 -0.4951  0.4832
  695MOL0     C93703   5.015   4.620   3.772 -0.5526  0.0013 -0.2604
  695MOL0     C93704   4.928   4.485   3.763  0.3535 -0.1632 -0.3132
  695MOL0     C93705   4.774   4.526   3.742  0.2516  0.2123 -0.6741
  695MOL0     C93706   4.695   4.585   3.862  0.6237 -0.3615 -0.6588
  695MOL0     N93707   4.549   4.561   3.849 -0.3076  1.3430 -0.4512
  695MOL0     C93708   4.472   4.639   3.769  0.0273  0.7164 -0.1645
  695MOL0     C93709   4.353   4.566   3.761  0.3814  0.0240 -0.9548
  695MOL0     C93710   4.240   4.631   3.686 -0.4864 -0.8797 -0.5497
  695MOL0     C93711   4.218   4.559   3.556 -0.0147 -0.1090  0.1880
  695MOL0     C93712   4.156   4.424   3.563 -0.2327  0.3399  0.8168
  695MOL0     C93713   4.002   4.438   3.574 -0.0182  0.3568 -0.1706
  695MOL0     O93714   3.946   4.439   3.704 -0.0360  0.9569 -0.7851
  695MOL0     C93715   3.812   4.482   3.713 -0.3430  0.7998 -0.0910
  695MOL0     C93716   3.771   4.536   3.836  0.0365  0.8931 -0.4449
  695MOL0     C93717   3.638   4.574   3.870 -0.4323 -0.3057  0.1087
  695MOL0     C93718   3.612   4.606   4.019 -0.1124  0.1763  0.9289
  695MOL0     C93719   3.539   4.563   3.768 -0.2138  0.2279  0.4563
  695MOL0     C93720   3.395   4.601   3.794  0.2145 -0.0745  0.0579
  695MOL0     O93721   3.285   4.540   3.731  0.2290 -0.3649 -0.2585
  695MOL0     C93722   3.167   4.602   3.772  0.3402  0.4927  0.3866
  695MOL0     C93723   3.120   4.716   3.710 -0.9955  0.4248 -0.5100
  695MOL0     C93724   2.993   4.755   3.760  1.0419 -0.1449  0.2242
  695MOL0     C93725   2.915   4.689   3.856  0.0497  0.1529  0.2682
  695MOL0     O93726   2.798   4.762   3.897 -0.3415  0.0873  0.1579
  695MOL0     C93727   2.752   4.721   4.026 -0.9841  0.4577  0.2055
  695MOL0     C93728   2.648   4.822   4.088 -1.1833  0.0636 -0.6387
  695MOL0     C93729   2.697   4.946   4.167 -0.9243  0.0571  0.6761
  695MOL0     C93730   2.592   5.034   4.222  0.4653 -0.3816  0.5515
  695MOL0     C93731   2.645   5.155   4.304  0.5682 -0.2642 -1.0203
  695MOL0     C93732   2.537   5.221   4.385 -0.5073  0.7623 -0.2143
  695MOL0     C93733   2.599   5.332   4.466 -0.1065 -0.8340 -0.1044
  695MOL0     C93734   2.491   5.406   4.556 -0.0967  0.3674  0.2904
  695MOL0    Cl93735   2.536   5.590   4.550 -0.4975  0.2941 -0.4778
  695MOL0     C93736   2.968   4.570   3.903 -0.7274 -0.1059 -0.5851
  695MOL0     C93737   3.094   4.524   3.867 -0.4120 -0.1716  0.1843
  695MOL0     O93738   3.388   4.690   3.876 -0.3980 -0.5921 -0.7250
  695MOL0     C93739   3.578   4.508   3.642 -0.5961  0.6339  0.5274
  695MOL0     C93740   3.712   4.466   3.619 -0.4852  0.0283  0.1833
  695MOL0     N93741   4.367   4.455   3.846 -0.0423  0.1493  0.5564
  695MOL0     N93742   4.490   4.449   3.893  0.6741  0.2645  0.4280
  695MOL0     C93743   5.710   4.918   3.683 -0.0500 -0.3672  0.4819
  695MOL0     C93744   5.815   5.008   3.653 -0.3975  0.4119  0.5650
  695MOL0     C93745   6.056   5.341   3.513 -0.0988 -0.3010  0.8716
  695MOL0     C93746   6.098   5.377   3.382 -0.5533  0.6025 -0.1754
  695MOL0     C93747   6.185   5.483   3.357 -0.9041  0.6388  0.0580
  695MOL0     C93748   6.236   5.554   3.464 -0.4731  0.0342  0.2925
  695MOL0     O93749   6.326   5.645   3.434  0.7284  0.2051 -0.5804
  695MOL0     C93750   6.384   5.731   3.536  0.6626 -0.9325  0.9551
  695MOL0     C93751   6.484   5.835   3.468  0.6977  0.8848 -0.3533
  695MOL0     C93752   6.416   5.913   3.360 -0.0054  0.8267  0.8934
  695MOL0     C93753   6.525   5.985   3.279 -0.2003  0.5912 -0.2234
  695MOL0     C93754   6.569   6.097   3.363  0.0052 -0.2336  0.0882
  695MOL0     C93755   6.590   6.179   3.449  0.0499 -0.0110 -0.0034
  695MOL0     C93756   6.203   5.531   3.594 -0.4314  0.5937 -0.2626
  695MOL0     C93757   6.115   5.425   3.618  0.5104  0.3848  0.3823
  695MOL0     H93758   5.684   5.290   3.785 -2.2806  0.7022  0.1976
  695MOL0     H93759   5.509   5.141   3.854  0.6615  0.7312  0.7988
  695MOL0     H93760   5.512   4.709   3.673  0.7242 -0.0598 -0.0877
  695MOL0     H93761   5.586   4.713   3.841 -0.9905  0.3044  2.0050
  695MOL0     H93762   5.400   4.565   3.857  0.4419  0.3047  1.9065
  695MOL0     H93763   5.407   4.685   3.978 -3.2608 -0.6742  0.7747
  695MOL0     H93764   5.212   4.775   3.928  0.0363  0.5932 -0.8819
  695MOL0     H93765   5.251   4.793   3.754 -0.0468  2.1100  1.0795
  695MOL0     H93766   5.208   4.540   3.733  1.6765  1.2916 -0.0707
  695MOL0     H93767   5.159   4.543   3.908  2.9063 -0.0955  0.8018
  695MOL0     H93768   4.982   4.699   3.840  1.9601  2.3965 -1.5999
  695MOL0     H93769   5.019   4.669   3.674  2.1298  0.3422 -0.0577
  695MOL0     H93770   4.963   4.430   3.675  0.4829  1.1087 -1.0937
  695MOL0     H93771   4.945   4.426   3.854  0.5778  0.3950  0.0128
  695MOL0     H93772   4.774   4.591   3.654 -2.0312  2.7666  1.0410
  695MOL0     H93773   4.727   4.429   3.722  1.9966 -0.6849 -0.6341
  695MOL0     H93774   4.719   4.692   3.863 -2.5505  0.5241 -2.5496
  695MOL0     H93775   4.733   4.539   3.954  2.0198  0.6526 -0.6970
  695MOL0     H93776   4.505   4.725   3.712 -0.9547  1.6669  0.6688
  695MOL0     H93777   4.154   4.635   3.754  1.2813 -0.5200  1.8063
  695MOL0     H93778   4.278   4.733   3.674 -2.8128  0.3568  1.7802
  695MOL0     H93779   4.310   4.553   3.498 -2.2675 -0.8970 -3.6381
  695MOL0     H93780   4.157   4.623   3.492  1.6014  0.8565 -0.4352
  695MOL0     H93781   4.183   4.365   3.651  0.0490 -0.8270 -0.0183
  695MOL0     H93782   4.194   4.370   3.475 -0.0703  1.3756  0.2382
  695MOL0     H93783   3.961   4.352   3.521  0.1731  0.7433 -0.9731
  695MOL0     H93784   3.970   4.526   3.517  1.2231  1.8149  1.2947
  695MOL0     H93785   3.844   4.537   3.916  0.6500 -0.6049 -0.9439
  695MOL0     H93786   3.511   4.571   4.044 -1.0126  1.8495 -0.1606
  695MOL0     H93787   3.673   4.550   4.090  0.1893 -0.9863 -0.2149
  695MOL0     H93788   3.616   4.715   4.030 -4.3592  0.8060 -1.4843
  695MOL0     H93789   3.173   4.779   3.640  2.3511 -1.8507 -0.2667
  695MOL0     H93790   2.954   4.844   3.711 -0.2204  0.2307  1.8224
  695MOL0     H93791   2.712   4.619   4.024 -0.0805  0.0722  1.1879
  695MOL0     H93792   2.835   4.725   4.097 -2.0371 -0.6175  1.5490
  695MOL0     H93793   2.586   4.856   4.005 -4.9240 -2.8220  0.6993
  695MOL0     H93794   2.596   4.750   4.152  0.3321 -0.2414  0.3015
  695MOL0     H93795   2.765   4.995   4.096  0.3479 -2.1614  0.2420
  695MOL0     H93796   2.753   4.916   4.256 -0.0568  0.0053  0.1313
  695MOL0     H93797   2.521   5.068   4.146  0.5250  1.3519  1.2259
  695MOL0     H93798   2.524   4.980   4.288  0.3167 -0.0087  0.7079
  695MOL0     H93799   2.690   5.230   4.237 -1.3779  3.4153  1.4781
  695MOL0     H93800   2.725   5.117   4.368  1.5985  0.1176 -2.0517
  695MOL0     H93801   2.457   5.274   4.331  0.7937  1.7265 -1.2656
  695MOL0     H93802   2.500   5.144   4.453 -1.6865  0.4961 -1.1235
  695MOL0     H93803   2.654   5.406   4.407  2.2430 -1.1994  1.4625
  695MOL0     H93804   2.680   5.294   4.529  3.5989  1.2487 -3.1429
  695MOL0     H93805   2.501   5.373   4.660  1.2351  0.0337  0.0734
  695MOL0     H93806   2.393   5.390   4.511  0.7997 -0.8408 -1.3541
  695MOL0     H93807   2.915   4.507   3.974  0.0505  0.1964  0.2844
  695MOL0     H93808   3.128   4.426   3.898 -0.1114 -0.8328 -2.0639
  695MOL0     H93809   3.499   4.495   3.568  1.5995 -1.4880 -1.6452
  695MOL0     H93810   3.750   4.435   3.522 -0.9997  1.3996 -0.4726
  695MOL0     H93811   5.727   4.815   3.655  0.4132  0.2047 -1.5168
  695MOL0     H93812   5.908   4.971   3.612  0.9222  1.7858  2.1442
  695MOL0     H93813   6.070   5.307   3.304  2.3020 -2.1663  1.0619
  695MOL0     H93814   6.216   5.503   3.254  0.7689  0.1124  0.4316
  695MOL0     H93815   6.300   5.787   3.580 -0.4550 -1.4470 -0.4700
  695MOL0     H93816   6.434   5.684   3.621  4.0410  4.1450  2.2439
  695MOL0     H93817   6.572   5.781   3.432  0.3164  0.8974 -1.3328
  695MOL0     H93818   6.514   5.906   3.546  2.4471  0.6939 -0.8061
  695MOL0     H93819   6.346   5.986   3.401  0.0573  0.8357  0.9837
  695MOL0     H93820   6.354   5.848   3.296 -0.8871  0.6907  1.8694
  695MOL0     H93821   6.458   6.029   3.205 -2.3725 -0.8562  0.7724
  695MOL0     H93822   6.604   5.931   3.226  0.6940  0.8217  0.8473
  695MOL0     H93823   6.610   6.260   3.516  0.1661  0.8694 -1.0622
  695MOL0     H93824   6.236   5.587   3.681 -1.1578  0.6213  0.0039
  695MOL0     H93825   6.092   5.408   3.722 -0.2621 -0.2680  0.1104
  696MOL0     O93826   2.312   1.118   5.373 -0.7076  0.0354  0.8576
  696MOL0     C93827   2.328   1.235   5.397 -0.3731 -0.3081  0.7233
  696MOL0     O93828   2.234   1.314   5.458 -0.3740  0.6093  0.6694
  696MOL0     C93829   2.117   1.267   5.512  0.9358  0.1028 -0.4526
  696MOL0     C93830   2.113   1.145   5.584  0.1052  0.0540  0.5784
  696MOL0     C93831   2.007   1.103   5.652  0.1102  0.1455  0.0063
  696MOL0     C93832   1.890   1.175   5.650 -0.4459  0.6730 -0.2258
  696MOL0     O93833   1.766   1.123   5.704 -0.8721 -0.2125  0.1104
  696MOL0     C93834   1.756   1.002   5.771  0.4282  0.6016  0.1837
  696MOL0     C93835   1.628   0.993   5.857  0.4937 -0.5138 -0.3977
  696MOL0     C93836   1.507   0.997   5.765  0.1228  0.2189  0.2039
  696MOL0     C93837   1.376   0.978   5.837 -0.3190  0.5907  0.2941
  696MOL0     C93838   1.253   1.006   5.739  0.6582  0.1881  0.5434
  696MOL0     C93839   1.133   0.936   5.800 -0.8747  0.3464 -0.0132
  696MOL0     C93840   1.006   0.938   5.709 -0.5327 -0.0846  0.4617
  696MOL0     C93841   0.994   0.818   5.623 -1.0257  0.3608  0.5206
  696MOL0     N93842   0.941   0.706   5.708  0.2954  0.3342  0.5304
  696MOL0     C93843   0.811   0.702   5.760  0.0457  0.4806  0.0986
  696MOL0     C93844   0.813   0.584   5.830 -0.4275  0.5239 -0.2968
  696MOL0     C93845   0.701   0.540   5.919 -0.0971  0.2579 -0.7767
  696MOL0     C93846   0.568   0.534   5.855 -0.2792 -0.1139  0.1127
  696MOL0     C93847   0.461   0.488   5.958 -0.0708 -1.0090  0.2125
  696MOL0     C93848   0.321   0.471   5.894 -0.8110 -0.3986 -0.3076
  696MOL0     O93849   0.320   0.383   5.784  0.3379  0.2211 -0.3993
  696MOL0     C93850   0.205   0.317   5.751  0.1743  0.4178  0.2083
  696MOL0     C93851   0.080   0.355   5.810 -0.0695  0.3029  0.6685
  696MOL0     C93852  -0.038   0.285   5.772  0.1803  0.1450 -0.0424
  696MOL0     C93853  -0.161   0.306   5.863  0.0995  0.4828  0.0635
  696MOL0     C93854  -0.030   0.179   5.675  0.0048  0.1493 -0.3896
  696MOL0     C93855  -0.153   0.094   5.629 -0.6572 -0.1979 -0.6336
  696MOL0     O93856  -0.121  -0.018   5.562  0.4023  0.0825  1.1389
  696MOL0     C93857  -0.234  -0.104   5.540 -0.5150  0.1944  0.9560
  696MOL0     C93858  -0.287  -0.097   5.412 -0.2421  0.3810 -0.0708
  696MOL0     C93859  -0.388  -0.180   5.373  0.5680  0.2316  0.1226
  696MOL0     C93860  -0.437  -0.278   5.465 -0.1805  0.0305 -0.2972
  696MOL0     O93861  -0.552  -0.353   5.433 -0.2489 -0.5960 -0.0745
  696MOL0     C93862  -0.611  -0.439   5.526 -0.4923  0.2548  0.4624
  696MOL0     C93863  -0.728  -0.523   5.456 -0.1292 -0.4141  0.8329
  696MOL0     C93864  -0.841  -0.429   5.417  0.3015 -0.5479 -1.2837
  696MOL0     C93865  -0.918  -0.399   5.545 -0.3358 -1.5761  0.0163
  696MOL0     C93866  -1.033  -0.306   5.510 -0.3061 -0.0889 -0.4183
  696MOL0     C93867  -1.134  -0.305   5.626  0.6510 -0.0896  0.6890
  696MOL0     C93868  -1.251  -0.208   5.599 -0.5066  0.5624  1.2859
  696MOL0     C93869  -1.293  -0.124   5.718 -0.1618  0.0761  0.4150
  696MOL0    Cl93870  -1.324  -0.217   5.864 -0.2736  0.2068  0.1997
  696MOL0     C93871  -0.376  -0.290   5.597  0.7745  0.0576  0.7850
  696MOL0     C93872  -0.276  -0.196   5.635  0.2186  0.3400 -0.6673
  696MOL0     O93873  -0.266   0.130   5.665 -0.1183  0.6689  0.6323
  696MOL0     C93874   0.098   0.140   5.634 -1.0324 -0.1935 -0.4246
  696MOL0     C93875   0.220   0.213   5.668  0.2559  0.2832  0.1609
  696MOL0     N93876   0.937   0.519   5.812  0.5057 -0.5130  0.1697
  696MOL0     N93877   1.013   0.591   5.736  0.5877 -0.0184  0.4273
  696MOL0     C93878   1.896   1.305   5.596  0.9884  0.5416  0.2911
  696MOL0     C93879   2.001   1.358   5.530 -0.6807 -0.0941  0.1375
  696MOL0     C93880   2.446   1.306   5.345 -0.3994 -0.3351 -0.1406
  696MOL0     C93881   2.453   1.442   5.382  0.0725  0.1458  0.0751
  696MOL0     C93882   2.557   1.526   5.324 -0.2030  0.6017 -0.4008
  696MOL0     C93883   2.651   1.466   5.240  0.1559 -0.1662  0.5935
  696MOL0     O93884   2.755   1.539   5.192  0.1247  0.3207 -0.5014
  696MOL0     C93885   2.863   1.567   5.276 -1.0591 -0.0575  0.0870
  696MOL0     C93886   2.954   1.672   5.208  0.7854  0.2058  0.1463
  696MOL0     C93887   3.082   1.649   5.285  0.3812 -0.2436 -0.3150
  696MOL0     C93888   3.194   1.755   5.267  0.0986 -0.2457  0.8976
  696MOL0     C93889   3.315   1.758   5.351  0.1009  0.2051 -0.3102
  696MOL0     C93890   3.422   1.739   5.406  0.5042 -0.5013  0.3855
  696MOL0     C93891   2.649   1.322   5.214  0.3134 -0.0828 -0.2950
  696MOL0     C93892   2.549   1.244   5.267  0.3630 -0.2833  0.4848
  696MOL0     H93893   2.205   1.087   5.585 -0.4450 -0.8375  0.7638
  696MOL0     H93894   2.007   1.009   5.707 -3.8994  1.4689  2.6939
  696MOL0     H93895   1.756   0.919   5.699 -1.3402  0.8410 -0.1308
  696MOL0     H93896   1.848   0.991   5.829  1.9904  2.1311 -1.8322
  696MOL0     H93897   1.630   0.899   5.912  1.4983  0.3248  1.0708
  696MOL0     H93898   1.623   1.076   5.929  0.4038  1.3823 -2.4792
  696MOL0     H93899   1.500   1.096   5.717 -1.4900  1.6512  3.1189
  696MOL0     H93900   1.512   0.930   5.679 -1.6461 -1.5848  1.4157
  696MOL0     H93901   1.367   0.876   5.878  0.8263 -0.0937 -1.0798
  696MOL0     H93902   1.367   1.039   5.927  0.4206  0.2310  0.6229
  696MOL0     H93903   1.228   1.111   5.717 -0.8405  0.0447  1.4174
  696MOL0     H93904   1.270   0.955   5.644 -0.3690 -2.3301  1.6275
  696MOL0     H93905   1.155   0.833   5.831 -2.3659  0.0216  0.0360
  696MOL0     H93906   1.110   0.986   5.894 -0.5849 -1.0093  0.7925
  696MOL0     H93907   0.912   0.946   5.765  0.5857  0.5921  2.3214
  696MOL0     H93908   1.016   1.030   5.652 -0.1366 -0.3704  0.0677
  696MOL0     H93909   1.089   0.785   5.580  0.0901  1.3897  2.0987
  696MOL0     H93910   0.920   0.832   5.543 -3.6166 -1.1534  2.4539
  696MOL0     H93911   0.736   0.780   5.760  0.8073  1.2634  1.8024
  696MOL0     H93912   0.727   0.440   5.955  2.5288  1.4703  0.9962
  696MOL0     H93913   0.700   0.601   6.010  1.6071 -3.8664  2.3912
  696MOL0     H93914   0.586   0.467   5.770  3.4816 -3.3083  3.0192
  696MOL0     H93915   0.540   0.633   5.818 -1.9913 -0.4715  0.3663
  696MOL0     H93916   0.456   0.569   6.031 -0.4801 -0.7783 -0.0697
  696MOL0     H93917   0.499   0.396   6.002  0.5432 -0.4904  0.7841
  696MOL0     H93918   0.278   0.566   5.861 -0.0550  0.6572  1.5331
  696MOL0     H93919   0.257   0.422   5.968 -2.1850  0.9444 -0.5478
  696MOL0     H93920   0.075   0.438   5.879  1.7736 -0.9270  2.4264
  696MOL0     H93921  -0.179   0.209   5.910 -2.0725  0.5414 -0.5588
  696MOL0     H93922  -0.142   0.385   5.936 -0.9247  1.5045 -0.7550
  696MOL0     H93923  -0.251   0.335   5.809  1.3469  3.6691 -0.4790
  696MOL0     H93924  -0.250  -0.021   5.345 -1.7746  1.0246 -0.2205
  696MOL0     H93925  -0.431  -0.153   5.277 -3.0289  2.2633  2.0818
  696MOL0     H93926  -0.525  -0.503   5.547  1.0991  1.7935 -0.9747
  696MOL0     H93927  -0.648  -0.392   5.617 -1.8464 -0.5869  0.3781
  696MOL0     H93928  -0.685  -0.579   5.372  1.5749 -1.7660  2.4997
  696MOL0     H93929  -0.760  -0.599   5.528 -1.7692 -0.0383  0.5340
  696MOL0     H93930  -0.903  -0.479   5.341 -0.9124 -0.1882 -0.5617
  696MOL0     H93931  -0.806  -0.337   5.371 -2.3640  0.6413 -1.1372
  696MOL0     H93932  -0.960  -0.491   5.587  1.0074 -2.0647  0.3355
  696MOL0     H93933  -0.849  -0.353   5.615  1.5710 -1.8335 -1.6174
  696MOL0     H93934  -1.090  -0.333   5.421 -0.0518  1.2254 -1.0039
  696MOL0     H93935  -0.991  -0.207   5.487  0.8834 -0.7052 -1.0111
  696MOL0     H93936  -1.171  -0.405   5.649 -0.3030  0.8171  3.6014
  696MOL0     H93937  -1.084  -0.269   5.716  0.6074 -0.6869  0.9502
  696MOL0     H93938  -1.336  -0.272   5.572 -0.9019  1.8453 -0.7800
  696MOL0     H93939  -1.225  -0.151   5.509 -0.1504 -0.5810  0.6426
  696MOL0     H93940  -1.385  -0.071   5.696 -1.3552 -2.4548 -1.2241
  696MOL0     H93941  -1.218  -0.049   5.744 -1.4149  1.7873 -0.7093
  696MOL0     H93942  -0.409  -0.363   5.670  3.2801 -0.7168  1.2195
  696MOL0     H93943  -0.236  -0.194   5.735  1.1196 -0.0573 -1.0078
  696MOL0     H93944   0.107   0.049   5.575  1.9986 -0.3929  0.1735
  696MOL0     H93945   0.323   0.192   5.639 -0.0300 -0.9830  0.0037
  696MOL0     H93946   1.806   1.366   5.605 -1.4505 -2.6498 -0.4563
  696MOL0     H93947   1.991   1.457   5.487 -0.9900  0.2954  1.0811
  696MOL0     H93948   2.390   1.486   5.458  0.8241  0.0716  0.7504
  696MOL0     H93949   2.567   1.626   5.366 -0.5191  0.6689 -0.4872
  696MOL0     H93950   2.829   1.605   5.373 -1.3622  0.1716 -0.1080
  696MOL0     H93951   2.923   1.476   5.286 -1.3371 -0.1789  0.7185
  696MOL0     H93952   2.928   1.779   5.209  0.0166  0.0404 -0.7649
  696MOL0     H93953   2.973   1.651   5.103 -0.2078 -0.4723  0.0857
  696MOL0     H93954   3.115   1.545   5.275  0.8659 -0.1206 -0.0258
  696MOL0     H93955   3.056   1.665   5.390  2.9390  0.2616  0.3208
  696MOL0     H93956   3.146   1.853   5.270 -0.3525 -0.4689  1.0903
  696MOL0     H93957   3.229   1.744   5.164  0.0914 -0.7899  0.9483
  696MOL0     H93958   3.517   1.725   5.454  1.1061 -2.1560 -1.1691
  696MOL0     H93959   2.734   1.286   5.157 -1.9653  0.0422 -4.0718
  696MOL0     H93960   2.559   1.138   5.246 -1.9391 -0.5859  0.5939
  697MOL0     O93961   4.863   2.334   8.409 -0.1632  0.7517  0.1078
  697MOL0     C93962   4.907   2.304   8.519 -0.4096 -0.0345  0.1029
  697MOL0     O93963   4.834   2.243   8.615 -0.1119  0.1623 -0.0095
  697MOL0     C93964   4.703   2.219   8.567 -0.8787  0.7648 -0.4146
  697MOL0     C93965   4.594   2.286   8.628 -0.8895 -0.3555  0.1210
  697MOL0     C93966   4.461   2.241   8.617 -0.0807 -0.4262  0.0179
  697MOL0     C93967   4.430   2.112   8.566 -1.5618  0.2802 -0.8038
  697MOL0     O93968   4.306   2.059   8.575 -0.4732  0.1047 -0.1574
  697MOL0     C93969   4.225   2.056   8.460  0.1756 -0.1498  0.9970
  697MOL0     C93970   4.138   1.935   8.479 -0.2091 -0.4669  0.2466
  697MOL0     C93971   4.207   1.804   8.468  0.6074  0.2667  0.2156
  697MOL0     C93972   4.116   1.678   8.464 -0.2464 -0.4612  0.2337
  697MOL0     C93973   4.206   1.555   8.419 -0.1586 -0.2786 -0.2329
  697MOL0     C93974   4.127   1.427   8.419 -0.3851 -0.3862 -0.9230
  697MOL0     C93975   3.976   1.426   8.410  1.0090 -0.2487 -0.1643
  697MOL0     C93976   3.923   1.288   8.368 -0.4889  0.4705  0.2763
  697MOL0     N93977   3.780   1.295   8.338  0.9807  0.7324 -0.0726
  697MOL0     C93978   3.711   1.354   8.238 -0.5049 -0.6755 -0.0600
  697MOL0     C93979   3.584   1.316   8.248 -0.5808 -0.0330  0.0783
  697MOL0     C93980   3.472   1.340   8.158 -0.6663 -0.3570 -0.3084
  697MOL0     C93981   3.425   1.492   8.156  0.1569  0.0825  0.1595
  697MOL0     C93982   3.354   1.525   8.024  1.0957  0.5148 -0.6469
  697MOL0     C93983   3.265   1.651   8.019  0.6368 -0.2229  0.9812
  697MOL0     O93984   3.211   1.669   7.888 -1.2514  0.1629  1.0665
  697MOL0     C93985   3.085   1.662   7.855  0.1832 -0.1223 -0.1244
  697MOL0     C93986   3.048   1.572   7.766 -0.4686 -0.5077 -0.4732
  697MOL0     C93987   2.921   1.579   7.694 -0.5646  0.7108  0.1138
  697MOL0     C93988   2.908   1.490   7.577  0.1117  0.0074 -0.3219
  697MOL0     C93989   2.816   1.655   7.749 -0.6392  1.4751 -0.5991
  697MOL0     C93990   2.675   1.650   7.715 -0.9147  0.0017  0.5499
  697MOL0     O93991   2.587   1.682   7.811  0.7356 -0.2486 -0.1382
  697MOL0     C93992   2.453   1.713   7.792 -0.0764  0.1186  0.1956
  697MOL0     C93993   2.362   1.669   7.883  0.5220 -0.1554 -0.1256
  697MOL0     C93994   2.226   1.694   7.868 -0.4399 -0.1063  0.1360
  697MOL0     C93995   2.178   1.746   7.750 -0.6708  0.7078 -0.3605
  697MOL0     O93996   2.045   1.770   7.747  1.0269 -0.7018  0.1142
  697MOL0     C93997   1.984   1.788   7.625 -0.2591 -0.0676 -0.1168
  697MOL0     C93998   1.840   1.844   7.634 -1.4695  0.5115  0.2811
  697MOL0     C93999   1.750   1.737   7.693 -1.1945 -0.3496  0.3669
  697MOL0     C94000   1.606   1.773   7.668  0.6717  0.0163  0.7161
  697MOL0     C94001   1.498   1.661   7.716  0.6266 -0.3074  0.6763
  697MOL0     C94002   1.507   1.634   7.862  0.0624  0.6393  0.2119
  697MOL0     C94003   1.486   1.758   7.951  0.5209  0.3167  1.0110
  697MOL0     C94004   1.508   1.729   8.092  0.2098 -0.0760  0.0348
  697MOL0    Cl94005   1.405   1.589   8.149 -0.3405  0.2512 -0.5819
  697MOL0     C94006   2.263   1.789   7.652 -0.1146  0.2266  0.6959
  697MOL0     C94007   2.406   1.779   7.674  0.4544  0.4803  0.6459
  697MOL0     O94008   2.647   1.629   7.598  0.0391  0.2120  0.5517
  697MOL0     C94009   2.854   1.738   7.860  0.4349 -0.3396 -0.0664
  697MOL0     C94010   2.986   1.741   7.904 -0.2554 -0.1813 -0.1215
  697MOL0     N94011   3.568   1.224   8.348 -0.8256 -0.4748  0.1929
  697MOL0     N94012   3.691   1.211   8.402  0.3290 -0.0121 -0.5165
  697MOL0     C94013   4.536   2.040   8.508 -0.0096 -0.1478 -0.0598
  697MOL0     C94014   4.667   2.096   8.502  0.5796 -0.8967 -0.1081
  697MOL0     C94015   5.048   2.325   8.550  0.5503 -0.4884 -0.1681
  697MOL0     C94016   5.107   2.282   8.666  0.3909 -1.0456  0.5677
  697MOL0     C94017   5.234   2.324   8.703 -0.4198  0.2382  0.3081
  697MOL0     C94018   5.310   2.409   8.629 -0.2816 -0.5408  0.1733
  697MOL0     O94019   5.440   2.422   8.667 -0.6998  0.5945 -0.5251
  697MOL0     C94020   5.529   2.512   8.589  0.6264  0.1611  0.5173
  697MOL0     C94021   5.678   2.482   8.612 -0.4991  0.9748 -0.2902
  697MOL0     C94022   5.756   2.594   8.547  0.0887 -0.0451 -0.8155
  697MOL0     C94023   5.906   2.603   8.586 -0.2265  0.8756 -0.2927
  697MOL0     C94024   5.969   2.726   8.531 -0.6832  0.8803 -0.6402
  697MOL0     C94025   6.024   2.829   8.498  0.6683  0.0803 -0.9605
  697MOL0     C94026   5.252   2.452   8.508 -0.8566 -0.5132 -0.1396
  697MOL0     C94027   5.122   2.414   8.473  0.4480  0.1492  0.1025
  697MOL0     H94028   4.605   2.375   8.689 -0.1247 -0.0950 -0.3728
  697MOL0     H94029   4.381   2.284   8.677  0.3744 -1.3479  1.3429
  697MOL0     H94030   4.176   2.153   8.449  2.3548  1.0512  1.2116
  697MOL0     H94031   4.287   2.045   8.370  0.5295 -0.8695  1.3169
  697MOL0     H94032   4.087   1.955   8.573 -1.1822  2.2526 -0.7533
  697MOL0     H94033   4.058   1.937   8.404 -1.0378  2.7621  1.0356
  697MOL0     H94034   4.277   1.803   8.384  1.7350  0.2077  1.1355
  697MOL0     H94035   4.273   1.797   8.555  1.0750  1.4299 -0.0248
  697MOL0     H94036   4.074   1.659   8.564 -0.6878 -2.2058 -0.2464
  697MOL0     H94037   4.037   1.688   8.389  0.4092 -0.9593 -0.5436
  697MOL0     H94038   4.250   1.569   8.320  1.9647 -3.9447  0.0308
  697MOL0     H94039   4.296   1.548   8.480 -1.4779  0.0821  1.8755
  697MOL0     H94040   4.173   1.376   8.334  0.4587  2.6162 -2.4362
  697MOL0     H94041   4.144   1.363   8.506  1.9573  0.1188 -0.9459
  697MOL0     H94042   3.928   1.456   8.504 -1.0977  0.4054 -1.3887
  697MOL0     H94043   3.938   1.497   8.336  3.0815  1.2828  0.1571
  697MOL0     H94044   3.945   1.213   8.445 -0.8174 -1.1490 -1.1380
  697MOL0     H94045   3.974   1.250   8.279  1.0305 -1.5446  1.9136
  697MOL0     H94046   3.745   1.430   8.168  0.2068 -2.4800 -1.7638
  697MOL0     H94047   3.502   1.305   8.059  2.4882  0.6873  0.1794
  697MOL0     H94048   3.387   1.279   8.190 -2.1339  0.7869 -1.8281
  697MOL0     H94049   3.511   1.560   8.155  0.8053 -0.7121  0.4996
  697MOL0     H94050   3.357   1.518   8.237  0.4402 -0.6842  0.6527
  697MOL0     H94051   3.301   1.433   7.998  1.7992 -0.4551  1.1764
  697MOL0     H94052   3.431   1.550   7.950  0.9239 -0.2452 -1.1037
  697MOL0     H94053   3.317   1.740   8.054 -1.0926  0.0386  3.1555
  697MOL0     H94054   3.185   1.630   8.091 -1.9893  0.1851 -1.6213
  697MOL0     H94055   3.128   1.507   7.731 -0.2283 -0.1502 -0.5969
  697MOL0     H94056   2.853   1.400   7.608  0.3697 -0.1346 -0.2803
  697MOL0     H94057   2.856   1.532   7.490  1.0612  0.2061 -0.8072
  697MOL0     H94058   3.010   1.471   7.544  1.2072  2.2924  1.4577
  697MOL0     H94059   2.393   1.619   7.974  1.8108  0.7736 -0.0265
  697MOL0     H94060   2.151   1.652   7.933  2.0269 -2.4710  1.6854
  697MOL0     H94061   2.037   1.866   7.569 -0.9493  1.4829  1.3135
  697MOL0     H94062   1.980   1.688   7.581  1.6735  0.0323 -0.6131
  697MOL0     H94063   1.837   1.927   7.706 -4.1469 -0.9430  2.0493
  697MOL0     H94064   1.820   1.867   7.529  1.9746 -0.8724 -0.8305
  697MOL0     H94065   1.777   1.708   7.795  0.6093  2.9499  0.9412
  697MOL0     H94066   1.762   1.643   7.638  0.7124  0.3967 -0.5963
  697MOL0     H94067   1.584   1.876   7.698  1.4005  0.5065 -0.3936
  697MOL0     H94068   1.592   1.790   7.561 -1.2657  0.9510  1.0709
  697MOL0     H94069   1.503   1.571   7.653 -0.1392  1.4176 -2.0059
  697MOL0     H94070   1.397   1.696   7.691  0.1990 -2.7016 -1.4425
  697MOL0     H94071   1.434   1.558   7.893  0.3649  1.2629  2.6717
  697MOL0     H94072   1.606   1.592   7.880 -0.4631  0.1065  2.1435
  697MOL0     H94073   1.386   1.799   7.932  0.3393 -0.4808  0.2273
  697MOL0     H94074   1.559   1.834   7.919 -0.3740  0.3640 -1.0261
  697MOL0     H94075   1.506   1.818   8.155  5.5011  0.4436 -0.0466
  697MOL0     H94076   1.614   1.708   8.109 -0.3073 -1.2133  2.2488
  697MOL0     H94077   2.233   1.838   7.560 -1.0808  0.9061  1.3637
  697MOL0     H94078   2.473   1.819   7.599  0.5165  0.2404  0.5729
  697MOL0     H94079   2.781   1.807   7.900 -0.1341 -1.3637  0.7230
  697MOL0     H94080   3.019   1.818   7.974 -1.3833  1.4223 -1.2792
  697MOL0     H94081   4.514   1.939   8.475 -1.6176 -0.2701  1.2841
  697MOL0     H94082   4.764   2.060   8.468  2.5887  3.4637  0.4003
  697MOL0     H94083   5.059   2.215   8.737  1.3350 -2.7823 -0.3822
  697MOL0     H94084   5.277   2.324   8.803  0.2979  3.7147  0.1513
  697MOL0     H94085   5.524   2.499   8.480 -2.5015 -2.3694  0.8403
  697MOL0     H94086   5.498   2.615   8.610  0.6738 -0.5987  5.4300
  697MOL0     H94087   5.704   2.384   8.572  0.1194  0.6311  0.9120
  697MOL0     H94088   5.698   2.485   8.720  0.0102  0.9452 -0.3830
  697MOL0     H94089   5.715   2.687   8.589  1.3207 -1.1574  3.2916
  697MOL0     H94090   5.725   2.603   8.443 -0.7801 -1.4176 -0.6958
  697MOL0     H94091   5.968   2.522   8.547 -0.9203  0.2176 -0.0453
  697MOL0     H94092   5.913   2.605   8.695  1.3238 -0.7278 -0.3284
  697MOL0     H94093   6.080   2.919   8.484 -0.0861  0.7476  0.1522
  697MOL0     H94094   5.308   2.506   8.432  1.9972 -2.2004  0.6065
  697MOL0     H94095   5.072   2.452   8.384 -1.8859 -2.8274 -0.0389
  698MOL0     O94096   0.059   8.085   4.783 -0.6557  0.5755  0.4917
  698MOL0     C94097  -0.009   8.124   4.876 -0.1439 -0.3775 -0.0127
  698MOL0     O94098  -0.138   8.173   4.865 -0.2605 -0.5345 -0.3992
  698MOL0     C94099  -0.209   8.176   4.749  0.2337  0.0074  0.6253
  698MOL0     C94100  -0.164   8.142   4.622 -0.1467 -0.2407 -0.4313
  698MOL0     C94101  -0.250   8.134   4.516  0.4093 -0.3346  0.9124
  698MOL0     C94102  -0.391   8.148   4.537  0.2776 -0.5061  0.0123
  698MOL0     O94103  -0.483   8.148   4.437 -0.2648 -0.0426 -0.6302
  698MOL0     C94104  -0.446   8.092   4.309 -0.0013 -0.1067 -0.5531
  698MOL0     C94105  -0.569   8.090   4.215 -0.1766  0.8719  0.0173
  698MOL0     C94106  -0.639   8.226   4.209  0.2819  0.2629 -0.4976
  698MOL0     C94107  -0.779   8.217   4.264  0.0639 -0.1175 -0.2136
  698MOL0     C94108  -0.872   8.334   4.258  0.5509  0.0029 -0.5754
  698MOL0     C94109  -0.916   8.391   4.119 -1.0174  0.1039 -0.3114
  698MOL0     C94110  -1.029   8.499   4.125  0.2597  0.2310 -0.1086
  698MOL0     C94111  -0.980   8.624   4.194 -0.2828  0.1467 -0.2633
  698MOL0     N94112  -1.058   8.747   4.177  1.0801  0.3494 -0.4430
  698MOL0     C94113  -1.194   8.745   4.177 -1.3125  0.0577 -0.5989
  698MOL0     C94114  -1.238   8.854   4.116  0.5391 -0.2382  0.2856
  698MOL0     C94115  -1.375   8.894   4.143  0.9601  0.4196  0.0212
  698MOL0     C94116  -1.477   8.793   4.095 -0.1752 -0.9275  0.6931
  698MOL0     C94117  -1.474   8.787   3.944  0.4633  0.1067 -0.1615
  698MOL0     C94118  -1.583   8.693   3.898 -0.1562  0.2376 -0.6412
  698MOL0     O94119  -1.711   8.734   3.927  0.9146 -0.0876 -0.5487
  698MOL0     C94120  -1.787   8.786   3.822 -1.0040  0.6709 -0.2182
  698MOL0     C94121  -1.921   8.809   3.850 -0.0667  0.3308 -1.3854
  698MOL0     C94122  -2.011   8.878   3.774  0.9223 -0.8929  0.4393
  698MOL0     C94123  -2.149   8.914   3.830 -1.2752 -0.3033  0.4726
  698MOL0     C94124  -1.967   8.908   3.640 -1.0049 -0.3630  0.7672
  698MOL0     C94125  -2.059   8.949   3.533 -0.2488 -0.3201  0.3317
  698MOL0     O94126  -1.996   9.006   3.427  0.0842  0.2266 -0.0689
  698MOL0     C94127  -2.061   9.071   3.319 -0.4962 -1.2024  0.4573
  698MOL0     C94128  -1.973   9.124   3.221  0.2672  0.8807  0.0661
  698MOL0     C94129  -2.021   9.170   3.100  0.1729 -0.2903 -0.1024
  698MOL0     C94130  -2.157   9.180   3.074 -0.2867 -1.0459  1.2016
  698MOL0     O94131  -2.184   9.217   2.942  0.4216 -0.0883  0.1668
  698MOL0     C94132  -2.296   9.300   2.908  0.2379 -0.9497 -0.6578
  698MOL0     C94133  -2.374   9.256   2.784  1.5901 -0.3607  0.6261
  698MOL0     C94134  -2.456   9.124   2.815 -0.3162 -0.5736 -0.8558
  698MOL0     C94135  -2.554   9.090   2.702 -0.7182 -0.1116 -0.0952
  698MOL0     C94136  -2.636   8.973   2.742 -0.2892 -1.5599  0.3979
  698MOL0     C94137  -2.754   8.944   2.644 -0.2203  0.2301 -0.2591
  698MOL0     C94138  -2.816   8.811   2.681  0.8129 -0.6894  0.4548
  698MOL0     C94139  -2.900   8.742   2.562 -0.1110  0.0457 -1.0500
  698MOL0    Cl94140  -2.786   8.641   2.467  0.0407 -0.0495 -0.3971
  698MOL0     C94141  -2.246   9.133   3.170 -0.1904  0.2030 -0.6398
  698MOL0     C94142  -2.196   9.082   3.288 -0.5134 -0.0791 -0.2429
  698MOL0     O94143  -2.176   8.933   3.541  0.0274 -0.9522 -0.3404
  698MOL0     C94144  -1.828   8.873   3.600 -0.0428  0.1487 -0.1461
  698MOL0     C94145  -1.739   8.815   3.693 -0.3698 -0.0077 -0.0853
  698MOL0     N94146  -1.128   8.919   4.065  0.3913 -0.2453 -0.2150
  698MOL0     N94147  -1.026   8.858   4.112 -0.5506  0.2060 -0.3338
  698MOL0     C94148  -0.435   8.184   4.660  0.8490  0.0875 -0.5655
  698MOL0     C94149  -0.347   8.188   4.766 -0.0477 -0.5666 -0.3654
  698MOL0     C94150   0.046   8.129   5.002 -0.2356 -0.2728  0.4703
  698MOL0     C94151   0.172   8.068   5.029  0.1214 -0.4791  0.2285
  698MOL0     C94152   0.217   8.046   5.165  0.1896  1.0918  0.0307
  698MOL0     C94153   0.143   8.076   5.273 -0.1922 -0.6357 -0.1760
  698MOL0     O94154   0.190   8.030   5.394  0.7902 -0.0673 -0.4688
  698MOL0     C94155   0.104   8.039   5.513 -0.4206 -0.2601  0.7550
  698MOL0     C94156   0.163   7.966   5.634  0.5147  0.1702 -1.0820
  698MOL0     C94157   0.316   7.993   5.654  0.9725  0.1099  0.2948
  698MOL0     C94158   0.364   7.964   5.790 -0.5374 -0.1131 -1.6358
  698MOL0     C94159   0.332   7.832   5.840  0.9763 -0.2523 -0.7674
  698MOL0     C94160   0.332   7.723   5.890  0.4017 -0.0593 -0.4745
  698MOL0     C94161   0.029   8.145   5.253 -0.5150 -0.7134  0.3270
  698MOL0     C94162  -0.016   8.174   5.119 -0.7510 -0.1788  0.4102
  698MOL0     H94163  -0.063   8.115   4.591  0.2794 -1.3054  1.6696
  698MOL0     H94164  -0.209   8.118   4.417 -0.5811 -0.6368  0.5357
  698MOL0     H94165  -0.373   8.159   4.264  0.2012  0.6219  0.7999
  698MOL0     H94166  -0.419   7.988   4.333  1.8090  0.7417  1.4132
  698MOL0     H94167  -0.520   8.074   4.118 -0.8056 -2.0126  0.0872
  698MOL0     H94168  -0.642   8.011   4.232 -0.0494  0.1919 -2.3636
  698MOL0     H94169  -0.584   8.303   4.264  2.2942  0.5120 -2.6465
  698MOL0     H94170  -0.644   8.257   4.104 -0.2237 -1.5498 -1.0456
  698MOL0     H94171  -0.828   8.131   4.216 -1.6879 -0.0007  1.2601
  698MOL0     H94172  -0.765   8.195   4.370  2.5170  3.7855  0.4883
  698MOL0     H94173  -0.966   8.316   4.311 -0.1715  0.2496 -1.7346
  698MOL0     H94174  -0.813   8.410   4.309  1.3747  1.4795 -3.4803
  698MOL0     H94175  -0.828   8.435   4.071 -0.2629 -0.0712  0.8891
  698MOL0     H94176  -0.962   8.307   4.065  0.9871 -2.5830  1.8876
  698MOL0     H94177  -1.056   8.534   4.024 -1.6387  1.5718  0.7962
  698MOL0     H94178  -1.120   8.453   4.165  0.9208 -0.6122  0.4558
  698MOL0     H94179  -0.882   8.647   4.151 -0.8813  1.4962 -0.9716
  698MOL0     H94180  -0.965   8.611   4.302  1.1060 -0.3186 -0.4958
  698MOL0     H94181  -1.252   8.678   4.240 -0.4263  0.4557  0.6934
  698MOL0     H94182  -1.393   8.908   4.250  0.2332 -0.1453 -0.0167
  698MOL0     H94183  -1.384   8.987   4.087  0.1758  0.9468  0.9740
  698MOL0     H94184  -1.576   8.833   4.118 -0.1850 -0.0713 -0.7167
  698MOL0     H94185  -1.451   8.694   4.132 -0.0774 -1.4667 -0.7660
  698MOL0     H94186  -1.384   8.731   3.918 -1.0736 -3.2495  1.1184
  698MOL0     H94187  -1.489   8.882   3.891  1.1227 -0.8779 -2.2132
  698MOL0     H94188  -1.556   8.601   3.951  0.1202  0.6671 -0.0264
  698MOL0     H94189  -1.563   8.660   3.795  0.9126  2.1404 -1.0945
  698MOL0     H94190  -1.961   8.770   3.944 -0.5586  0.3404 -1.5867
  698MOL0     H94191  -2.225   8.838   3.809 -3.6939  1.8370  1.0275
  698MOL0     H94192  -2.140   8.936   3.936  0.1716 -2.2017  0.7927
  698MOL0     H94193  -2.186   9.008   3.787 -0.5962  0.6570  1.9139
  698MOL0     H94194  -1.866   9.110   3.235 -0.0375 -1.3314  0.6845
  698MOL0     H94195  -1.963   9.205   3.016 -3.9607 -0.1212 -3.2107
  698MOL0     H94196  -2.363   9.305   2.994 -0.0330 -2.8471 -0.7074
  698MOL0     H94197  -2.263   9.400   2.879 -0.9484 -0.7044 -1.2349
  698MOL0     H94198  -2.449   9.332   2.758  1.0125 -1.0549  0.2134
  698MOL0     H94199  -2.306   9.247   2.699  2.3249  0.8921  1.0510
  698MOL0     H94200  -2.512   9.133   2.909 -0.4323  0.7650 -1.0356
  698MOL0     H94201  -2.384   9.043   2.827  0.2900 -0.2256 -1.9743
  698MOL0     H94202  -2.632   9.162   2.679 -2.1935 -1.9280 -1.1224
  698MOL0     H94203  -2.501   9.074   2.607 -0.7294  0.9663 -0.2953
  698MOL0     H94204  -2.689   9.000   2.834 -0.4591  1.5460 -0.5025
  698MOL0     H94205  -2.568   8.890   2.768  0.1243 -1.6931 -1.0145
  698MOL0     H94206  -2.832   9.021   2.640 -0.4686  0.0506  0.9103
  698MOL0     H94207  -2.713   8.935   2.543  2.2757  0.3180  0.6894
  698MOL0     H94208  -2.876   8.831   2.770  0.6822 -0.0082  0.2229
  698MOL0     H94209  -2.739   8.738   2.708  1.0383  0.4044  3.0976
  698MOL0     H94210  -2.960   8.814   2.506 -3.6655 -0.5817  1.5824
  698MOL0     H94211  -2.975   8.671   2.597 -0.8860 -0.3050 -3.2568
  698MOL0     H94212  -2.353   9.120   3.155 -0.0684 -3.8036  0.5407
  698MOL0     H94213  -2.259   9.042   3.367  0.4404  1.9486  1.6628
  698MOL0     H94214  -1.795   8.885   3.497  3.0589  2.4325  0.9400
  698MOL0     H94215  -1.639   8.799   3.654 -0.3286  1.5324 -0.6757
  698MOL0     H94216  -0.535   8.217   4.685  1.2807  0.9711  0.0375
  698MOL0     H94217  -0.387   8.218   4.863  0.6300 -0.9644  0.0405
  698MOL0     H94218   0.217   8.023   4.941 -5.3279 -2.6302 -1.8794
  698MOL0     H94219   0.310   7.990   5.166 -0.2520  0.3014 -1.1345
  698MOL0     H94220   0.093   8.144   5.543 -1.3002  0.4260 -1.6714
  698MOL0     H94221   0.006   7.998   5.486  0.0433 -2.7793  2.5772
  698MOL0     H94222   0.163   7.857   5.620 -2.0240 -0.1419  0.5950
  698MOL0     H94223   0.101   7.999   5.718  0.3432  1.9077 -1.8485
  698MOL0     H94224   0.332   8.101   5.648 -0.8393  0.3788 -0.6118
  698MOL0     H94225   0.370   7.931   5.582  2.9809  1.1658  0.8330
  698MOL0     H94226   0.324   8.050   5.845 -0.5662  0.0833 -1.9646
  698MOL0     H94227   0.472   7.982   5.797 -0.9715  2.3775 -0.2808
  698MOL0     H94228   0.324   7.627   5.937  2.6396  0.3603  0.9110
  698MOL0     H94229  -0.030   8.193   5.330  0.7163  2.5425 -0.5954
  698MOL0     H94230  -0.112   8.223   5.111 -0.4448  0.4140  0.3194
  699MOL0     O94231   9.486   3.689   7.421 -0.5356  0.1031 -0.1929
  699MOL0     C94232   9.508   3.658   7.536 -0.1006 -0.7297  0.3184
  699MOL0     O94233   9.438   3.569   7.604  0.1652  0.9000  0.2140
  699MOL0     C94234   9.341   3.498   7.533  0.1614  0.4995 -0.3354
  699MOL0     C94235   9.379   3.389   7.458 -0.0824 -0.2177 -0.2081
  699MOL0     C94236   9.274   3.324   7.390  0.1792  0.3537  0.5003
  699MOL0     C94237   9.135   3.354   7.408 -0.0033  0.2831  0.4631
  699MOL0     O94238   9.041   3.302   7.335  0.0192  0.0934 -0.0391
  699MOL0     C94239   9.064   3.207   7.227 -0.0818  0.4221 -0.0204
  699MOL0     C94240   8.925   3.158   7.182 -0.8802 -0.8663  0.7634
  699MOL0     C94241   8.860   3.256   7.091 -0.3348 -0.2559  0.1230
  699MOL0     C94242   8.731   3.199   7.042  0.6694 -0.3382  0.2386
  699MOL0     C94243   8.657   3.292   6.947  0.5388  0.0480 -0.8643
  699MOL0     C94244   8.640   3.436   6.998 -0.0177  0.0337 -0.5514
  699MOL0     C94245   8.533   3.447   7.112  0.7055 -1.1953  0.8756
  699MOL0     C94246   8.511   3.595   7.151  0.1240  0.0821 -0.9094
  699MOL0     N94247   8.479   3.610   7.296  0.4677  0.6783 -0.8284
  699MOL0     C94248   8.351   3.606   7.352 -0.8226 -0.6915  0.6374
  699MOL0     C94249   8.377   3.620   7.483 -0.2232  0.0429 -0.5800
  699MOL0     C94250   8.287   3.604   7.605 -0.3495  0.4474 -0.1195
  699MOL0     C94251   8.150   3.669   7.578  0.2434  0.0816 -0.5328
  699MOL0     C94252   8.064   3.682   7.704  0.5091  0.0673 -0.8146
  699MOL0     C94253   8.011   3.561   7.777  0.2034 -0.3085 -0.0120
  699MOL0     O94254   7.916   3.490   7.688  0.3861 -0.6519  0.4045
  699MOL0     C94255   7.788   3.524   7.660  0.7991  0.6764 -0.3247
  699MOL0     C94256   7.709   3.433   7.587  0.4860 -0.3694  0.0289
  699MOL0     C94257   7.576   3.465   7.555 -0.6113 -0.0661 -0.0659
  699MOL0     C94258   7.498   3.346   7.502  0.1337  0.1102  0.3890
  699MOL0     C94259   7.529   3.590   7.579 -0.0167  0.9902  0.5909
  699MOL0     C94260   7.387   3.631   7.556 -0.0478 -0.5347  0.7858
  699MOL0     O94261   7.286   3.541   7.568  0.4685 -0.0009  0.4322
  699MOL0     C94262   7.169   3.570   7.497  0.1616  0.0228  0.5496
  699MOL0     C94263   7.047   3.521   7.549 -0.4924 -1.1962  0.0113
  699MOL0     C94264   6.932   3.528   7.473 -0.2854  0.1292  0.5423
  699MOL0     C94265   6.923   3.575   7.346 -0.7855 -0.1043 -0.5916
  699MOL0     O94266   6.813   3.568   7.280  0.0107 -0.8348  1.1731
  699MOL0     C94267   6.799   3.577   7.132 -0.2362  0.4881  0.0536
  699MOL0     C94268   6.655   3.560   7.083  0.3106 -0.1241  0.2077
  699MOL0     C94269   6.593   3.416   7.109 -0.2496 -0.1070 -0.7764
  699MOL0     C94270   6.459   3.377   7.031 -0.5286  1.4854 -0.2305
  699MOL0     C94271   6.359   3.477   7.079 -0.1501 -0.0443  0.3720
  699MOL0     C94272   6.229   3.438   7.005  1.0877  0.0528 -0.1893
  699MOL0     C94273   6.101   3.523   7.038 -1.3280 -0.7495 -0.0234
  699MOL0     C94274   5.998   3.453   7.126  0.3541  0.5707  0.5223
  699MOL0    Cl94275   6.079   3.426   7.272  0.4348 -0.3161  0.3383
  699MOL0     C94276   7.046   3.611   7.288 -0.1535 -0.1539  0.5158
  699MOL0     C94277   7.165   3.612   7.367 -0.3202 -0.5772 -0.2558
  699MOL0     O94278   7.375   3.748   7.519 -0.3120  0.1298 -0.2312
  699MOL0     C94279   7.610   3.684   7.641  0.1447  0.7670 -0.0861
  699MOL0     C94280   7.738   3.654   7.683  0.0906 -0.6117  0.4564
  699MOL0     N94281   8.514   3.630   7.506  0.0244  0.9649 -0.4071
  699MOL0     N94282   8.576   3.640   7.391  0.9584  0.0940 -0.0544
  699MOL0     C94283   9.106   3.465   7.492  0.0443  0.2646 -0.2869
  699MOL0     C94284   9.206   3.531   7.555 -0.6456  0.4270 -0.0008
  699MOL0     C94285   9.610   3.737   7.608  0.7247  0.6202 -0.5406
  699MOL0     C94286   9.623   3.715   7.745 -0.0499 -0.1363 -0.5014
  699MOL0     C94287   9.731   3.775   7.815 -0.0519  0.9529 -0.3927
  699MOL0     C94288   9.824   3.858   7.752 -0.5442  0.9223  0.3506
  699MOL0     O94289   9.930   3.906   7.825  0.4756  0.1590  0.4257
  699MOL0     C94290  10.053   3.932   7.755 -0.1139 -0.4649  0.2795
  699MOL0     C94291  10.159   3.912   7.864  0.0507 -0.2382 -0.0174
  699MOL0     C94292  10.302   3.963   7.803  0.2504 -0.3454 -0.4575
  699MOL0     C94293  10.400   3.966   7.922 -0.1182 -0.0712  0.0249
  699MOL0     C94294  10.518   4.039   7.894 -0.9908  0.2316  0.4495
  699MOL0     C94295  10.614   4.115   7.887 -0.4410  0.2231  0.5843
  699MOL0     C94296   9.807   3.885   7.615  0.0769  0.0279  1.4976
  699MOL0     C94297   9.706   3.812   7.541 -0.5371 -1.4571  0.1188
  699MOL0     H94298   9.484   3.363   7.453  0.0991 -0.0636  2.0063
  699MOL0     H94299   9.299   3.246   7.319  0.3758  1.7579 -1.0337
  699MOL0     H94300   9.126   3.258   7.152  1.5229 -0.3659  0.7333
  699MOL0     H94301   9.132   3.127   7.256 -0.4370  0.6418  1.4892
  699MOL0     H94302   8.945   3.067   7.124  2.8289 -0.1326  0.6069
  699MOL0     H94303   8.861   3.130   7.266 -0.6142 -2.5467  0.4458
  699MOL0     H94304   8.848   3.348   7.150  1.7778  0.7040 -0.8117
  699MOL0     H94305   8.917   3.274   6.999 -1.5554 -0.4061 -0.6725
  699MOL0     H94306   8.749   3.104   6.991  1.4068  0.3889 -0.9033
  699MOL0     H94307   8.677   3.193   7.137 -0.6774  2.1354 -0.2857
  699MOL0     H94308   8.712   3.289   6.853  0.4051 -0.7050 -0.9200
  699MOL0     H94309   8.561   3.246   6.921  0.0053  1.2374 -1.0745
  699MOL0     H94310   8.733   3.486   7.029 -0.1937  0.0148  0.0131
  699MOL0     H94311   8.615   3.491   6.907  1.3406  1.5554 -0.0632
  699MOL0     H94312   8.432   3.411   7.088  0.6542  0.5417 -1.9272
  699MOL0     H94313   8.571   3.395   7.200  0.4724 -1.6187  0.7312
  699MOL0     H94314   8.430   3.645   7.098 -2.1272  0.9192  2.8919
  699MOL0     H94315   8.602   3.656   7.143 -0.2099  0.4993 -1.5217
  699MOL0     H94316   8.254   3.585   7.309 -1.3316  0.4976  1.1498
  699MOL0     H94317   8.273   3.497   7.623  3.5091 -0.0616  0.9424
  699MOL0     H94318   8.347   3.632   7.693 -0.5820 -0.3311  0.3043
  699MOL0     H94319   8.100   3.618   7.494 -1.6797  2.3676 -0.9138
  699MOL0     H94320   8.175   3.770   7.543  0.1726 -0.5436 -2.5183
  699MOL0     H94321   7.984   3.748   7.671 -1.3525 -0.7816  1.6724
  699MOL0     H94322   8.120   3.742   7.776  0.3351 -1.1078  0.3418
  699MOL0     H94323   7.960   3.588   7.870  0.3455  0.9263 -0.2746
  699MOL0     H94324   8.091   3.492   7.804  0.5275 -0.8950 -2.3077
  699MOL0     H94325   7.738   3.336   7.546 -1.7139  0.0553 -2.7985
  699MOL0     H94326   7.550   3.271   7.441 -1.7317 -0.5835 -0.4134
  699MOL0     H94327   7.447   3.291   7.582 -1.7574  1.4509  0.1674
  699MOL0     H94328   7.432   3.395   7.430 -0.7302 -3.0068 -1.1025
  699MOL0     H94329   7.035   3.485   7.651  1.7502 -0.9425  0.4310
  699MOL0     H94330   6.841   3.493   7.521 -0.7159 -0.0790 -0.4196
  699MOL0     H94331   6.834   3.675   7.099  0.7205 -0.1359 -0.8549
  699MOL0     H94332   6.861   3.498   7.087  1.1844  1.1999  0.6776
  699MOL0     H94333   6.599   3.634   7.141 -2.6334 -2.1187  0.1195
  699MOL0     H94334   6.656   3.578   6.975  6.0967 -1.0709 -0.2300
  699MOL0     H94335   6.568   3.395   7.214  3.1923  0.8351  0.3542
  699MOL0     H94336   6.658   3.331   7.085 -0.5219 -0.1480 -1.3937
  699MOL0     H94337   6.477   3.378   6.923 -2.3881 -0.1406 -0.5990
  699MOL0     H94338   6.437   3.276   7.067  1.7368  1.7588  2.2689
  699MOL0     H94339   6.392   3.577   7.050  0.8285 -1.1172 -2.6303
  699MOL0     H94340   6.345   3.466   7.187 -2.6074  0.2769  0.1543
  699MOL0     H94341   6.241   3.444   6.896 -1.0945  0.6978 -0.4362
  699MOL0     H94342   6.198   3.334   7.020 -1.5755  0.8461  0.1912
  699MOL0     H94343   6.055   3.551   6.942  1.8842  0.5551 -1.3360
  699MOL0     H94344   6.118   3.618   7.089  0.8945 -2.1696  2.1090
  699MOL0     H94345   5.970   3.360   7.076 -0.3978  0.8949  0.3192
  699MOL0     H94346   5.907   3.507   7.153 -1.2569 -1.0133 -1.4467
  699MOL0     H94347   7.053   3.650   7.187 -0.6068  0.3245  0.6630
  699MOL0     H94348   7.262   3.642   7.329  0.2941  0.8708  2.2337
  699MOL0     H94349   7.581   3.784   7.670 -1.6455 -0.8339  4.4284
  699MOL0     H94350   7.790   3.737   7.730  0.5135  0.5056 -1.8518
  699MOL0     H94351   8.999   3.480   7.496 -0.2451 -0.6053 -2.8739
  699MOL0     H94352   9.174   3.611   7.620 -1.9393 -0.1561  0.1041
  699MOL0     H94353   9.561   3.646   7.802  2.6117 -2.1678  0.1135
  699MOL0     H94354   9.734   3.763   7.923 -2.3971 -1.1714 -0.4761
  699MOL0     H94355  10.062   3.873   7.663  0.1056  2.0874 -1.4331
  699MOL0     H94356  10.053   4.037   7.724 -1.6238 -0.9489 -1.5887
  699MOL0     H94357  10.156   3.807   7.895 -0.7870 -1.4692 -3.6809
  699MOL0     H94358  10.133   3.973   7.951  3.4793  0.5045  0.6324
  699MOL0     H94359  10.275   4.060   7.759 -1.2787 -1.2338 -1.5557
  699MOL0     H94360  10.336   3.891   7.729 -0.1012 -0.1884 -0.7735
  699MOL0     H94361  10.431   3.864   7.949 -1.0530 -1.1388 -2.6185
  699MOL0     H94362  10.351   4.024   8.000 -3.1891  1.2061 -2.6522
  699MOL0     H94363  10.692   4.180   7.854 -1.4555  0.1566 -2.2351
  699MOL0     H94364   9.876   3.952   7.565 -0.0968  0.8287  2.2987
  699MOL0     H94365   9.704   3.826   7.433  0.5705 -3.3513 -0.1972
  700MOL0     O94366   7.230   6.954   0.671  0.2285 -0.2156  0.4581
  700MOL0     C94367   7.236   6.990   0.553 -0.3179 -0.0123 -0.8577
  700MOL0     O94368   7.140   7.064   0.494  0.4534  0.2115 -0.1005
  700MOL0     C94369   7.020   7.107   0.552  0.0575  0.7917 -0.6492
  700MOL0     C94370   6.906   7.121   0.468  0.4032  1.0835  0.1619
  700MOL0     C94371   6.783   7.156   0.525  0.5803  0.4377  0.2285
  700MOL0     C94372   6.773   7.197   0.654  0.7141  0.0698 -0.1868
  700MOL0     O94373   6.660   7.236   0.718 -0.1832 -0.5993 -0.3033
  700MOL0     C94374   6.539   7.188   0.661 -0.1061 -0.0111 -0.9237
  700MOL0     C94375   6.424   7.257   0.736 -0.1289 -0.1561 -0.3603
  700MOL0     C94376   6.282   7.210   0.710 -0.3078  0.2545  0.3125
  700MOL0     C94377   6.171   7.303   0.774  0.7018 -0.1068 -1.1795
  700MOL0     C94378   6.033   7.258   0.745  0.9782  0.2885 -1.0151
  700MOL0     C94379   5.933   7.343   0.823  0.5683 -0.0819 -0.3557
  700MOL0     C94380   5.788   7.286   0.801 -0.6979 -0.1776 -0.0722
  700MOL0     C94381   5.687   7.364   0.887 -0.0596 -0.8025 -0.1471
  700MOL0     N94382   5.553   7.352   0.846 -0.3917 -0.3782 -0.3875
  700MOL0     C94383   5.483   7.413   0.742 -0.3588  0.6674  0.4991
  700MOL0     C94384   5.354   7.374   0.771  0.2210 -0.2818  0.0386
  700MOL0     C94385   5.252   7.405   0.668  0.1203 -0.4766 -0.1080
  700MOL0     C94386   5.106   7.409   0.719 -0.2650  0.2064 -0.2909
  700MOL0     C94387   5.022   7.275   0.701  0.1777 -0.3399  1.0296
  700MOL0     C94388   4.951   7.274   0.563  0.2334 -0.7232  0.1346
  700MOL0     O94389   4.876   7.395   0.540 -1.0070 -0.6032 -0.1408
  700MOL0     C94390   4.784   7.401   0.438 -0.5010 -0.0834 -0.6775
  700MOL0     C94391   4.816   7.317   0.323  0.5943 -0.1172 -0.9883
  700MOL0     C94392   4.729   7.321   0.213 -0.1740 -0.1768 -0.7674
  700MOL0     C94393   4.761   7.240   0.096 -0.4145 -0.0496  1.0410
  700MOL0     C94394   4.610   7.389   0.217  0.6766 -1.1434  0.4380
  700MOL0     C94395   4.510   7.412   0.110  0.4209  0.1632  0.1131
  700MOL0     O94396   4.399   7.463   0.156 -0.3366 -0.6029 -0.0243
  700MOL0     C94397   4.290   7.501   0.078  0.7779  0.2544 -0.0470
  700MOL0     C94398   4.185   7.551   0.149  0.6435  0.3591  0.1406
  700MOL0     C94399   4.059   7.580   0.085 -0.3388 -0.4087  0.0033
  700MOL0     C94400   4.041   7.576  -0.055 -0.8693 -0.2903  0.4342
  700MOL0     O94401   3.925   7.618  -0.121  0.6536  0.2511 -0.0661
  700MOL0     C94402   3.825   7.677  -0.036 -0.5436 -0.2579 -0.0890
  700MOL0     C94403   3.705   7.742  -0.120  0.7033 -0.9216  0.7635
  700MOL0     C94404   3.580   7.758  -0.032 -0.3752  0.3006  0.5046
  700MOL0     C94405   3.464   7.801  -0.119  0.1284 -0.0743  0.4340
  700MOL0     C94406   3.330   7.779  -0.048 -0.2163 -0.1953 -1.0184
  700MOL0     C94407   3.207   7.815  -0.135  0.7353 -0.1755  0.5200
  700MOL0     C94408   3.076   7.834  -0.063 -0.1479  0.3914 -0.1893
  700MOL0     C94409   2.964   7.877  -0.166  0.0967 -0.5161 -0.9900
  700MOL0    Cl94410   2.808   7.860  -0.083  0.1783  0.4064  0.0038
  700MOL0     C94411   4.154   7.549  -0.129  0.1579 -0.2652  0.0192
  700MOL0     C94412   4.261   7.491  -0.063  0.5255  0.9090  0.1672
  700MOL0     O94413   4.533   7.383  -0.009  1.0219  0.4046  0.3416
  700MOL0     C94414   4.577   7.465   0.336 -0.2463  0.2157 -0.4429
  700MOL0     C94415   4.667   7.471   0.445  0.3948 -0.4375  0.3035
  700MOL0     N94416   5.352   7.285   0.879 -0.4311 -0.0110 -0.2893
  700MOL0     N94417   5.465   7.275   0.915  0.1347 -0.5970  0.2904
  700MOL0     C94418   6.879   7.189   0.737  0.6838 -0.2487  0.3410
  700MOL0     C94419   7.006   7.146   0.685  0.2724  0.0884  0.2072
  700MOL0     C94420   7.362   6.954   0.481  0.4627  0.8632 -0.5885
  700MOL0     C94421   7.456   6.869   0.529 -0.2837 -0.2473 -0.2085
  700MOL0     C94422   7.572   6.834   0.454 -0.4584 -0.6298  0.0045
  700MOL0     C94423   7.595   6.891   0.333 -0.5157  0.0284  0.6924
  700MOL0     O94424   7.704   6.857   0.252 -0.6084 -0.9874 -0.3578
  700MOL0     C94425   7.815   6.790   0.311 -0.0371 -0.1318 -0.2101
  700MOL0     C94426   7.931   6.761   0.216  0.4290 -0.4976 -0.7038
  700MOL0     C94427   8.056   6.714   0.291 -0.2648  0.1190  0.9662
  700MOL0     C94428   8.039   6.567   0.332  0.2826 -0.1549 -0.0958
  700MOL0     C94429   8.158   6.489   0.295 -0.5529 -0.5730  0.0185
  700MOL0     C94430   8.257   6.431   0.261 -0.1714  0.2256 -0.5899
  700MOL0     C94431   7.496   6.969   0.280 -0.0755  0.7479  0.4025
  700MOL0     C94432   7.380   7.003   0.348  0.1207 -0.6435 -0.0218
  700MOL0     H94433   6.905   7.112   0.360  2.0015 -2.3937  0.3165
  700MOL0     H94434   6.696   7.158   0.461  0.2914  4.1762  0.5021
  700MOL0     H94435   6.528   7.213   0.555  1.7016 -0.0836 -1.1668
  700MOL0     H94436   6.530   7.081   0.680  0.2688  0.1394  0.1573
  700MOL0     H94437   6.451   7.246   0.841  2.6488  3.5018 -0.4767
  700MOL0     H94438   6.433   7.365   0.721 -0.2613 -0.1396 -0.3169
  700MOL0     H94439   6.256   7.218   0.604  1.9444  3.9316 -0.1247
  700MOL0     H94440   6.265   7.106   0.742 -1.0698  0.7299  1.5132
  700MOL0     H94441   6.195   7.296   0.881  1.4760  3.4888 -0.9871
  700MOL0     H94442   6.164   7.411   0.758  2.1641  0.3495  0.8809
  700MOL0     H94443   6.022   7.269   0.637 -1.0063  2.2158 -0.6947
  700MOL0     H94444   6.023   7.152   0.772 -1.1312  0.3133 -1.4819
  700MOL0     H94445   5.951   7.332   0.930  0.8949  1.4954 -0.2292
  700MOL0     H94446   5.939   7.447   0.789  0.6829 -0.8198 -2.8525
  700MOL0     H94447   5.756   7.285   0.697 -0.1162  1.8172 -0.3123
  700MOL0     H94448   5.791   7.184   0.842 -0.1466 -0.2170 -0.2102
  700MOL0     H94449   5.722   7.467   0.871  0.5260 -1.0441 -0.4349
  700MOL0     H94450   5.696   7.333   0.991 -1.5041 -4.2334 -0.9071
  700MOL0     H94451   5.529   7.481   0.671 -0.2728 -0.9157 -1.0354
  700MOL0     H94452   5.282   7.502   0.629  0.5306  0.6641  2.7870
  700MOL0     H94453   5.255   7.338   0.581 -1.8642 -0.0446 -0.5573
  700MOL0     H94454   5.065   7.499   0.673  0.0333  1.5475  1.9563
  700MOL0     H94455   5.123   7.437   0.823 -1.3288  4.0343 -1.0008
  700MOL0     H94456   4.947   7.267   0.779 -0.2027  0.4967  0.7667
  700MOL0     H94457   5.084   7.186   0.712  0.9306  0.1570  0.8627
  700MOL0     H94458   4.897   7.180   0.549 -3.0212  1.1799 -1.3697
  700MOL0     H94459   5.026   7.283   0.484  0.6616 -1.2387  0.4789
  700MOL0     H94460   4.909   7.261   0.329  2.2265  2.6159  2.2163
  700MOL0     H94461   4.679   7.173   0.068  0.5256 -0.7227 -0.2268
  700MOL0     H94462   4.792   7.316   0.023 -0.8941  0.8834  1.7908
  700MOL0     H94463   4.850   7.178   0.114 -0.0719  0.3873  0.8583
  700MOL0     H94464   4.199   7.538   0.256  3.4735  1.8526  0.0604
  700MOL0     H94465   3.977   7.599   0.153 -0.8563  0.4418 -0.8424
  700MOL0     H94466   3.774   7.597   0.020  1.0632 -0.3371  1.3317
  700MOL0     H94467   3.873   7.747   0.033  1.6872 -0.8341 -0.9621
  700MOL0     H94468   3.730   7.831  -0.178  1.3466 -1.7585 -0.3033
  700MOL0     H94469   3.689   7.673  -0.204  0.7794 -1.1800  0.9583
  700MOL0     H94470   3.592   7.827   0.052 -1.4984 -0.4743  1.3160
  700MOL0     H94471   3.569   7.660   0.015 -1.9997 -1.3649 -3.0180
  700MOL0     H94472   3.489   7.905  -0.139  0.3785 -0.2017  0.0884
  700MOL0     H94473   3.456   7.748  -0.215  1.8743  2.4057 -1.1946
  700MOL0     H94474   3.325   7.849   0.036  1.0527 -0.0535 -1.0363
  700MOL0     H94475   3.318   7.675  -0.017 -1.3049  0.6366  1.5910
  700MOL0     H94476   3.238   7.910  -0.179 -0.8018 -0.2563 -0.8604
  700MOL0     H94477   3.184   7.734  -0.204 -3.9842 -0.0695  1.6451
  700MOL0     H94478   3.084   7.906   0.019  2.0271  1.9113 -1.6475
  700MOL0     H94479   3.054   7.735  -0.019  1.3991  0.7494  1.5150
  700MOL0     H94480   2.970   7.806  -0.249  0.1856 -0.7348 -0.7963
  700MOL0     H94481   2.987   7.978  -0.203  2.0830 -0.0644  1.2017
  700MOL0     H94482   4.164   7.544  -0.237 -3.3203 -0.1588 -0.4090
  700MOL0     H94483   4.344   7.453  -0.121  0.5302  0.8784  0.1945
  700MOL0     H94484   4.492   7.529   0.357 -0.3589  0.3231 -1.2200
  700MOL0     H94485   4.658   7.532   0.534  0.3435 -1.9563  1.3705
  700MOL0     H94486   6.876   7.234   0.835 -0.2528 -1.2633  0.7960
  700MOL0     H94487   7.090   7.146   0.755  0.4781  1.6674 -0.0154
  700MOL0     H94488   7.444   6.824   0.627  3.3507 -1.2047 -0.0398
  700MOL0     H94489   7.644   6.767   0.499  1.6438  1.8042  0.4606
  700MOL0     H94490   7.848   6.858   0.390 -1.3168  1.2978 -0.8521
  700MOL0     H94491   7.779   6.693   0.346  0.0714  0.4591  1.6680
  700MOL0     H94492   7.946   6.862   0.178 -0.6752  0.5464  1.4565
  700MOL0     H94493   7.915   6.700   0.127  3.3688 -0.1388 -1.5888
  700MOL0     H94494   8.064   6.773   0.383  0.8443  0.3595  0.7239
  700MOL0     H94495   8.142   6.731   0.226 -1.5081 -0.3599 -0.8842
  700MOL0     H94496   7.965   6.512   0.273  1.7874  0.3336 -2.5332
  700MOL0     H94497   8.028   6.578   0.441 -0.2006 -2.9619  0.2241
  700MOL0     H94498   8.348   6.378   0.242  1.8863  3.0876  0.5709
  700MOL0     H94499   7.500   6.998   0.175  2.4468  2.0062  0.7828
  700MOL0     H94500   7.306   7.067   0.300  0.4723  0.6584  1.1267
  701MOL0     O94501   1.173   7.318  10.437  0.4346  0.2024 -0.4846
  701MOL0     C94502   1.202   7.384  10.535  0.3822 -0.2086 -0.3896
  701MOL0     O94503   1.120   7.458  10.611 -0.0820  0.1585  0.3162
  701MOL0     C94504   0.986   7.469  10.568  0.0931  0.1391  0.3089
  701MOL0     C94505   0.949   7.486  10.427  0.3123  0.2384  0.0118
  701MOL0     C94506   0.816   7.497  10.396  0.1815  0.3064 -0.0071
  701MOL0     C94507   0.714   7.479  10.492  0.8172  0.1119 -0.5090
  701MOL0     O94508   0.586   7.479  10.466  0.4797 -0.3871  0.5712
  701MOL0     C94509   0.552   7.440  10.332  0.5948 -0.4660  0.1103
  701MOL0     C94510   0.393   7.443  10.328 -1.0081 -0.0559 -0.4267
  701MOL0     C94511   0.326   7.314  10.373  0.4630 -0.5065  0.4650
  701MOL0     C94512   0.171   7.328  10.373 -0.4074 -0.3630  0.2798
  701MOL0     C94513   0.103   7.187  10.332 -0.1112  0.7023 -0.2799
  701MOL0     C94514  -0.044   7.227  10.304  0.2235 -0.3909  0.3319
  701MOL0     C94515  -0.114   7.106  10.234  0.8295 -0.3727  0.3182
  701MOL0     C94516  -0.055   7.096  10.084  0.0613 -0.0549 -0.3490
  701MOL0     N94517  -0.143   7.014   9.994 -0.2973  0.2702  0.3066
  701MOL0     C94518  -0.237   7.064   9.908  0.1279  0.9642  0.3030
  701MOL0     C94519  -0.266   6.959   9.828 -0.3126 -1.1108  0.8640
  701MOL0     C94520  -0.360   6.960   9.710  0.0008  0.6907 -0.2031
  701MOL0     C94521  -0.488   7.007   9.765  0.5864 -0.4037  0.2228
  701MOL0     C94522  -0.606   6.973   9.672 -0.1029 -0.1985 -0.6235
  701MOL0     C94523  -0.741   6.975   9.742  0.1269 -0.2683 -0.0429
  701MOL0     O94524  -0.773   6.874   9.839 -0.5075 -0.4711  0.4987
  701MOL0     C94525  -0.876   6.905   9.934 -0.8133 -0.5919  0.0620
  701MOL0     C94526  -0.831   6.933  10.064  0.7731  0.1859 -0.5585
  701MOL0     C94527  -0.930   6.943  10.169  0.2914  0.3493 -0.3784
  701MOL0     C94528  -0.874   6.964  10.306  0.3599 -0.2829  0.6159
  701MOL0     C94529  -1.066   6.931  10.134  0.2643 -0.9640 -0.0351
  701MOL0     C94530  -1.173   6.938  10.237  0.5640  0.4766  0.0076
  701MOL0     O94531  -1.295   6.884  10.200 -0.3374  0.1132  0.2546
  701MOL0     C94532  -1.405   6.893  10.282 -0.5148 -0.3340 -1.3252
  701MOL0     C94533  -1.533   6.893  10.222  0.0222 -0.1875  0.6933
  701MOL0     C94534  -1.649   6.886  10.298 -0.3127  0.1827  0.1975
  701MOL0     C94535  -1.630   6.892  10.443  1.2630  0.4729  0.9788
  701MOL0     O94536  -1.754   6.896  10.499 -0.3003 -0.2287 -0.1463
  701MOL0     C94537  -1.776   6.923  10.634 -0.3617  0.2851 -0.0350
  701MOL0     C94538  -1.818   7.077  10.656 -0.1920  0.5093 -0.1083
  701MOL0     C94539  -1.922   7.118  10.544 -0.2231  0.8147  0.1339
  701MOL0     C94540  -1.989   7.240  10.588 -0.3112 -1.0211  0.3198
  701MOL0     C94541  -2.094   7.292  10.491  0.6304  0.5702  1.1559
  701MOL0     C94542  -2.145   7.426  10.545  1.0866 -0.6059  1.1529
  701MOL0     C94543  -2.277   7.464  10.483  0.2929 -0.9292  0.4958
  701MOL0     C94544  -2.237   7.553  10.357 -0.3320 -0.1623 -1.0246
  701MOL0    Cl94545  -2.371   7.529  10.236 -0.2316 -0.1523  0.1299
  701MOL0     C94546  -1.506   6.891  10.506  0.3879  0.3282  0.7822
  701MOL0     C94547  -1.397   6.879  10.425  0.0214  0.0299  0.5324
  701MOL0     O94548  -1.151   7.003  10.336 -0.3657 -0.2823 -0.0058
  701MOL0     C94549  -1.105   6.903   9.998 -0.3212  0.7582  0.2939
  701MOL0     C94550  -1.002   6.882   9.900  0.7124 -0.2854  0.0968
  701MOL0     N94551  -0.189   6.855   9.863 -0.2858 -0.6134 -0.2634
  701MOL0     N94552  -0.108   6.893   9.953  0.0405  0.5138  0.0277
  701MOL0     C94553   0.744   7.466  10.635  0.0632 -0.3149  0.8569
  701MOL0     C94554   0.882   7.464  10.666 -0.5796  0.4856  0.2421
  701MOL0     C94555   1.341   7.372  10.582  0.5859 -0.7239 -0.2190
  701MOL0     C94556   1.390   7.462  10.679  0.7528  1.0049 -0.0296
  701MOL0     C94557   1.527   7.455  10.724  0.6591 -0.7280  0.4785
  701MOL0     C94558   1.607   7.362  10.666  0.4749 -0.4728  0.9398
  701MOL0     O94559   1.743   7.373  10.693  0.4786 -0.1341 -0.1780
  701MOL0     C94560   1.834   7.368  10.583  0.0875  0.0194  0.6670
  701MOL0     C94561   1.965   7.423  10.625  0.7076  0.7303  0.1274
  701MOL0     C94562   2.058   7.321  10.693  0.3089 -0.1086  1.8253
  701MOL0     C94563   2.205   7.368  10.683  0.1951  0.4059  0.3020
  701MOL0     C94564   2.300   7.264  10.725 -0.0975 -0.1771 -0.5151
  701MOL0     C94565   2.376   7.192  10.783 -0.1710  0.8036  0.7271
  701MOL0     C94566   1.555   7.272  10.577  0.4880  0.3735  0.0496
  701MOL0     C94567   1.423   7.270  10.530  0.0170 -0.0963 -0.1756
  701MOL0     H94568   1.025   7.495  10.351  0.5652  2.8824  0.4557
  701MOL0     H94569   0.799   7.508  10.290  1.5670 -0.9752 -0.4113
  701MOL0     H94570   0.588   7.500  10.248  1.5910 -1.5551 -0.2708
  701MOL0     H94571   0.596   7.342  10.309  1.2274 -0.1765  0.0564
  701MOL0     H94572   0.353   7.528  10.384 -2.9368 -1.9990  1.3065
  701MOL0     H94573   0.361   7.461  10.225 -1.2669 -0.4821 -0.4244
  701MOL0     H94574   0.360   7.243  10.297 -1.7336  0.2255 -1.3167
  701MOL0     H94575   0.362   7.287  10.473  2.6968 -1.0188 -0.4212
  701MOL0     H94576   0.140   7.363  10.472  2.2148  0.5662  0.8651
  701MOL0     H94577   0.151   7.406  10.299  0.5194 -1.7390 -1.5086
  701MOL0     H94578   0.158   7.142  10.248 -0.8082 -2.3493  0.7617
  701MOL0     H94579   0.098   7.113  10.412  1.0316 -2.1204 -2.6424
  701MOL0     H94580  -0.094   7.260  10.395 -1.1240  1.0923 -0.8940
  701MOL0     H94581  -0.058   7.320  10.249 -0.7890  0.5034  1.9958
  701MOL0     H94582  -0.084   7.020  10.295  1.4273  0.3517  1.0635
  701MOL0     H94583  -0.222   7.124  10.230  1.1700  1.6292 -1.7777
  701MOL0     H94584   0.046   7.054  10.091  0.0980  0.2949  2.3725
  701MOL0     H94585  -0.046   7.200  10.051  1.9720 -0.4781 -1.2573
  701MOL0     H94586  -0.280   7.162   9.898  0.2631  0.9759 -0.1902
  701MOL0     H94587  -0.309   7.009   9.626  1.3719 -0.3146  0.0142
  701MOL0     H94588  -0.379   6.857   9.679  0.0611  0.4780  0.4509
  701MOL0     H94589  -0.491   7.113   9.790  1.3662 -0.7960  2.1633
  701MOL0     H94590  -0.498   6.959   9.863  1.4593  0.6229  0.8342
  701MOL0     H94591  -0.596   6.871   9.633 -0.1745 -0.8709  1.0322
  701MOL0     H94592  -0.608   7.051   9.596  0.3384  1.0855  0.6429
  701MOL0     H94593  -0.829   6.986   9.677 -1.2295 -0.7767  1.6201
  701MOL0     H94594  -0.739   7.063   9.806  2.4661 -0.7897  0.7035
  701MOL0     H94595  -0.725   6.936  10.087  1.1094 -1.1578 -1.7500
  701MOL0     H94596  -0.768   6.988  10.292 -0.1698  1.7504 -0.1716
  701MOL0     H94597  -0.907   7.045  10.372  2.0323  0.3151  0.7718
  701MOL0     H94598  -0.881   6.878  10.373  1.8123 -1.7255 -0.9851
  701MOL0     H94599  -1.547   6.898  10.114  0.5068  2.1071  0.6966
  701MOL0     H94600  -1.747   6.896  10.253 -0.1001 -2.8706 -1.1115
  701MOL0     H94601  -1.847   6.857  10.685 -0.1357  0.2030  0.1727
  701MOL0     H94602  -1.682   6.913  10.688 -0.2479 -0.1598 -0.3123
  701MOL0     H94603  -1.839   7.104  10.760  0.1817  2.4657 -0.4910
  701MOL0     H94604  -1.725   7.129  10.628 -0.8328  0.7749 -1.8243
  701MOL0     H94605  -1.989   7.034  10.523  1.2578 -0.2089 -0.7679
  701MOL0     H94606  -1.874   7.142  10.448  0.5480  1.9093  0.7632
  701MOL0     H94607  -2.038   7.215  10.682  1.4967 -1.8924  1.0955
  701MOL0     H94608  -1.907   7.311  10.603  0.4569 -2.0115  0.9759
  701MOL0     H94609  -2.176   7.219  10.487  0.8341  0.3753  0.1389
  701MOL0     H94610  -2.051   7.299  10.391  1.3971 -0.6702  1.3732
  701MOL0     H94611  -2.158   7.406  10.651 -0.9786 -2.0830  0.6735
  701MOL0     H94612  -2.077   7.511  10.531  0.2421  0.4510  3.1126
  701MOL0     H94613  -2.328   7.536  10.548  0.1200 -0.1173 -0.5156
  701MOL0     H94614  -2.354   7.389  10.466 -3.2146  2.6282 -0.8386
  701MOL0     H94615  -2.137   7.530  10.318  0.6982 -1.1546  1.9683
  701MOL0     H94616  -2.240   7.658  10.387 -0.3022 -0.3814 -0.2531
  701MOL0     H94617  -1.484   6.877  10.611  0.2169 -1.0958  0.6521
  701MOL0     H94618  -1.304   6.872  10.481  1.4688 -0.1723 -1.7222
  701MOL0     H94619  -1.206   6.886   9.960  0.5921  1.9249 -3.0180
  701MOL0     H94620  -1.025   6.846   9.800  0.2355 -1.7623  0.7052
  701MOL0     H94621   0.667   7.460  10.711 -0.0765  1.4238  0.8893
  701MOL0     H94622   0.916   7.449  10.768 -0.9118  1.0885  0.4431
  701MOL0     H94623   1.328   7.538  10.726 -0.6774  0.8311 -1.5416
  701MOL0     H94624   1.576   7.525  10.791  0.9793 -2.0831  1.7155
  701MOL0     H94625   1.844   7.262  10.559  0.4938 -0.2130  1.8189
  701MOL0     H94626   1.790   7.439  10.513 -0.4900  0.0420  1.0440
  701MOL0     H94627   1.947   7.504  10.696 -0.4042 -0.9913  1.8994
  701MOL0     H94628   2.014   7.459  10.534  0.4187 -0.2180 -0.4253
  701MOL0     H94629   2.043   7.225  10.645 -4.0528  0.3550  1.8114
  701MOL0     H94630   2.037   7.315  10.801 -1.1067 -1.0843  1.5227
  701MOL0     H94631   2.214   7.461  10.740  0.9852  1.6207 -1.7056
  701MOL0     H94632   2.219   7.394  10.578 -0.8391  2.1685  0.5626
  701MOL0     H94633   2.441   7.127  10.838  2.1111  0.9418 -1.6164
  701MOL0     H94634   1.627   7.195  10.552 -0.7860 -0.8654  0.0736
  701MOL0     H94635   1.397   7.192  10.459 -0.2432 -1.4440  1.3520
  702MOL0     O94636   4.960   6.801   1.409 -0.6065  0.3672  0.4177
  702MOL0     C94637   4.948   6.917   1.452 -0.3726 -0.6137  0.4869
  702MOL0     O94638   4.835   6.998   1.441 -0.5294 -0.5872  0.5733
  702MOL0     C94639   4.720   6.929   1.437 -0.1476 -1.0028 -0.2626
  702MOL0     C94640   4.690   6.871   1.314  0.7116 -0.2008  0.1653
  702MOL0     C94641   4.566   6.804   1.295 -0.1106  0.8255 -0.1805
  702MOL0     C94642   4.477   6.799   1.402  0.9943 -0.2751  0.0506
  702MOL0     O94643   4.349   6.747   1.388  0.8317 -0.3545 -0.0753
  702MOL0     C94644   4.297   6.748   1.255  0.3417 -0.4491  0.2632
  702MOL0     C94645   4.141   6.757   1.264  0.0274 -0.1373 -0.9129
  702MOL0     C94646   4.068   6.772   1.129 -0.9164  0.0120 -0.0045
  702MOL0     C94647   3.923   6.716   1.135  0.2067 -0.3402 -0.6072
  702MOL0     C94648   3.859   6.758   1.005  0.2109  0.2275  1.1573
  702MOL0     C94649   3.719   6.688   0.984 -0.2810 -0.2996 -0.5025
  702MOL0     C94650   3.634   6.748   0.868 -0.7359 -0.6726 -0.5199
  702MOL0     C94651   3.508   6.665   0.831 -0.2219  0.0807  0.5782
  702MOL0     N94652   3.403   6.683   0.928  0.5703  0.8589  0.0722
  702MOL0     C94653   3.322   6.791   0.945 -0.3641  0.1506 -0.1057
  702MOL0     C94654   3.244   6.770   1.060  0.8122 -0.2161  0.1816
  702MOL0     C94655   3.141   6.865   1.120  0.3939  0.1876 -0.2902
  702MOL0     C94656   2.999   6.803   1.122 -0.7082 -0.0201  1.2023
  702MOL0     C94657   2.896   6.890   1.188  0.1451  0.1327  0.5457
  702MOL0     C94658   2.750   6.843   1.172  0.1397 -0.3495  0.2228
  702MOL0     O94659   2.710   6.858   1.034 -0.0303  0.4784 -0.3216
  702MOL0     C94660   2.577   6.842   1.008 -1.0320  1.0012  0.1907
  702MOL0     C94661   2.502   6.724   1.040  0.1899 -0.0979  0.4952
  702MOL0     C94662   2.372   6.705   1.013 -0.7790  0.1515  0.1914
  702MOL0     C94663   2.316   6.566   1.032  0.1486  0.4939  0.2121
  702MOL0     C94664   2.307   6.805   0.927 -0.0192  0.0726 -0.4779
  702MOL0     C94665   2.162   6.796   0.886  0.0082 -0.1354  0.0797
  702MOL0     O94666   2.099   6.911   0.837 -1.2305  0.0609 -0.1138
  702MOL0     C94667   1.973   6.933   0.868 -0.6004  0.2667 -0.3125
  702MOL0     C94668   1.921   7.046   0.802  0.6728  0.4445  0.6608
  702MOL0     C94669   1.789   7.088   0.830 -0.3862  0.6719 -0.2092
  702MOL0     C94670   1.707   7.004   0.916 -1.1252 -0.8405  0.2233
  702MOL0     O94671   1.572   7.034   0.932  0.4600 -0.1431 -0.4917
  702MOL0     C94672   1.484   6.926   0.917  1.5874 -0.7889  0.9770
  702MOL0     C94673   1.346   6.990   0.943 -0.3581  0.4571  0.6220
  702MOL0     C94674   1.231   6.910   0.882 -0.4060 -0.6158 -0.6993
  702MOL0     C94675   1.092   6.954   0.926  0.6918 -0.2265  0.5148
  702MOL0     C94676   0.987   6.841   0.895  0.8904 -1.0493  0.2889
  702MOL0     C94677   0.846   6.905   0.898 -0.0359  0.5078  0.4084
  702MOL0     C94678   0.818   7.013   0.797  0.6158  0.3152 -0.3646
  702MOL0     C94679   0.672   7.050   0.768 -0.0558  0.4273  0.0947
  702MOL0    Cl94680   0.677   7.181   0.643  0.1686 -0.1336  0.3737
  702MOL0     C94681   1.768   6.902   0.983  0.4086  0.6336  0.8339
  702MOL0     C94682   1.899   6.870   0.969  0.9100 -0.2290  0.4207
  702MOL0     O94683   2.111   6.684   0.896 -0.1157 -0.6554  0.7285
  702MOL0     C94684   2.379   6.920   0.889  1.1780 -0.4359 -0.1707
  702MOL0     C94685   2.511   6.935   0.922  0.3534  0.3633  0.5510
  702MOL0     N94686   3.266   6.635   1.097  0.5321 -0.4896 -0.2330
  702MOL0     N94687   3.370   6.595   1.030  0.5703  0.0472 -0.4635
  702MOL0     C94688   4.524   6.844   1.527 -0.0066  0.5009  0.8837
  702MOL0     C94689   4.642   6.916   1.548  0.0440  0.9434  0.7456
  702MOL0     C94690   5.063   6.971   1.531 -0.8636  1.1905  0.1854
  702MOL0     C94691   5.180   6.885   1.548 -0.0095 -0.1093 -0.5964
  702MOL0     C94692   5.289   6.940   1.620  0.1786 -0.0005 -1.0565
  702MOL0     C94693   5.277   7.069   1.668  0.6204 -0.2337 -0.5422
  702MOL0     O94694   5.379   7.108   1.745  0.2651 -0.1227 -0.3797
  702MOL0     C94695   5.381   7.236   1.805  0.0444 -0.7563  1.1541
  702MOL0     C94696   5.497   7.242   1.905  1.0741  1.2051  0.3029
  702MOL0     C94697   5.632   7.289   1.853  0.8083 -0.4328 -0.0388
  702MOL0     C94698   5.674   7.199   1.737 -0.0562 -0.6582 -0.0927
  702MOL0     C94699   5.795   7.245   1.680 -0.3157  0.1003 -0.5355
  702MOL0     C94700   5.891   7.295   1.628  0.0757 -0.1212  0.2013
  702MOL0     C94701   5.159   7.146   1.657  0.7903 -0.2517  0.1984
  702MOL0     C94702   5.056   7.095   1.583 -0.8053  0.1188 -0.0147
  702MOL0     H94703   4.760   6.882   1.231  2.1243 -1.1959  1.1776
  702MOL0     H94704   4.550   6.747   1.204 -0.2384 -1.8048  1.3750
  702MOL0     H94705   4.324   6.841   1.204  0.5093  0.2952  1.6672
  702MOL0     H94706   4.331   6.663   1.194  0.0780  0.8333 -1.7517
  702MOL0     H94707   4.116   6.662   1.311  2.0015  0.4181  1.4268
  702MOL0     H94708   4.106   6.830   1.337  0.7587 -0.9462  0.2847
  702MOL0     H94709   4.061   6.878   1.104  1.2995 -0.0032 -0.9136
  702MOL0     H94710   4.133   6.724   1.056 -1.8024 -1.0953 -0.0975
  702MOL0     H94711   3.927   6.607   1.147  1.9099 -0.4164 -1.5185
  702MOL0     H94712   3.869   6.764   1.218 -0.2436  2.2650 -2.3049
  702MOL0     H94713   3.842   6.866   1.008  0.0121  0.2863 -0.7546
  702MOL0     H94714   3.932   6.745   0.924 -2.2344 -1.0615 -0.9470
  702MOL0     H94715   3.736   6.585   0.950  0.1161  0.3529 -2.3814
  702MOL0     H94716   3.660   6.696   1.075  0.6996 -0.5453  0.1750
  702MOL0     H94717   3.609   6.850   0.899 -0.6714 -0.6371 -0.5866
  702MOL0     H94718   3.702   6.756   0.783 -0.6855  3.6259 -0.3095
  702MOL0     H94719   3.527   6.559   0.815 -1.3299 -0.3115  1.7822
  702MOL0     H94720   3.470   6.695   0.733 -0.2790  0.1377  0.6180
  702MOL0     H94721   3.324   6.885   0.891 -2.3590  0.1151 -0.3153
  702MOL0     H94722   3.175   6.899   1.218 -0.1847  1.0061 -0.3679
  702MOL0     H94723   3.131   6.961   1.068 -0.6340  3.0404  4.5637
  702MOL0     H94724   2.997   6.698   1.149  1.3695 -0.0386  1.3749
  702MOL0     H94725   2.975   6.801   1.015  0.1196  0.8731  0.9785
  702MOL0     H94726   2.885   6.990   1.146  1.2307 -0.1844 -0.5414
  702MOL0     H94727   2.910   6.892   1.297 -0.5537 -1.1056  0.6806
  702MOL0     H94728   2.677   6.893   1.236 -0.3048  0.2529 -0.7246
  702MOL0     H94729   2.753   6.736   1.196  2.8299 -0.4969 -0.4041
  702MOL0     H94730   2.563   6.639   1.068  2.7165  0.3503 -2.9948
  702MOL0     H94731   2.237   6.573   1.107  1.5680  0.8613  1.7442
  702MOL0     H94732   2.265   6.527   0.943 -0.6879 -0.4133  1.0632
  702MOL0     H94733   2.381   6.486   1.068 -2.2087 -3.1260 -2.8542
  702MOL0     H94734   1.983   7.105   0.735  0.8046  0.2083  0.5720
  702MOL0     H94735   1.748   7.174   0.778  0.1541  0.8728 -0.3104
  702MOL0     H94736   1.492   6.876   0.820  3.2087 -0.9371  1.1599
  702MOL0     H94737   1.499   6.845   0.989  3.0247 -1.9549 -0.5317
  702MOL0     H94738   1.333   7.002   1.051 -1.9635 -0.2455  0.5463
  702MOL0     H94739   1.345   7.090   0.900  0.8197  0.3792  0.4001
  702MOL0     H94740   1.251   6.805   0.904  0.6026 -1.1185 -3.5885
  702MOL0     H94741   1.241   6.922   0.773 -0.2467 -1.2855 -0.7592
  702MOL0     H94742   1.103   6.982   1.031  2.8404 -2.6576  1.0606
  702MOL0     H94743   1.076   7.043   0.866  1.6009 -1.0993 -1.0866
  702MOL0     H94744   0.985   6.770   0.979 -0.4019 -0.6884  0.5750
  702MOL0     H94745   1.001   6.791   0.798 -0.1362  0.7352 -0.8177
  702MOL0     H94746   0.765   6.831   0.886 -0.6257  1.5748 -4.0034
  702MOL0     H94747   0.833   6.951   0.996 -0.7026 -1.9672  1.5559
  702MOL0     H94748   0.867   6.977   0.706 -1.7679  1.7438 -2.3393
  702MOL0     H94749   0.871   7.106   0.819 -0.2443  1.1587 -1.7003
  702MOL0     H94750   0.611   7.088   0.850 -0.7327 -1.5855  0.5869
  702MOL0     H94751   0.628   6.957   0.731 -0.6939  1.3230 -1.5148
  702MOL0     H94752   1.710   6.833   1.043  0.1122 -0.2501 -0.4236
  702MOL0     H94753   1.945   6.797   1.035 -1.0433 -2.2509 -0.3232
  702MOL0     H94754   2.328   6.999   0.836  1.2316  0.4252  1.0107
  702MOL0     H94755   2.575   7.016   0.888  0.4730  0.8377  1.8506
  702MOL0     H94756   4.456   6.825   1.610  1.8490 -0.0859  2.3489
  702MOL0     H94757   4.669   6.945   1.650 -1.5752 -0.6107  1.6809
  702MOL0     H94758   5.189   6.792   1.493 -0.6787 -0.4678 -0.1011
  702MOL0     H94759   5.379   6.881   1.633  0.4909  0.4757 -1.0241
  702MOL0     H94760   5.390   7.304   1.720  2.8176 -1.6493  0.6472
  702MOL0     H94761   5.283   7.249   1.852 -0.5700  1.1914 -0.5138
  702MOL0     H94762   5.515   7.142   1.945  0.4758  1.2946  0.8187
  702MOL0     H94763   5.467   7.313   1.984  0.2688  1.3913 -0.1597
  702MOL0     H94764   5.704   7.288   1.935  1.1878 -5.1276 -0.1693
  702MOL0     H94765   5.615   7.389   1.812 -2.6573 -1.8220 -2.5049
  702MOL0     H94766   5.597   7.198   1.659 -0.8011  1.3183  0.5633
  702MOL0     H94767   5.677   7.092   1.761 -2.5110 -0.8884 -0.5267
  702MOL0     H94768   5.968   7.357   1.586  1.0471 -2.0155 -0.9889
  702MOL0     H94769   5.137   7.241   1.703 -1.3355  0.5604 -2.2453
  702MOL0     H94770   4.975   7.166   1.571  0.1157  1.2476  0.2817
  703MOL0     O94771   3.593   7.256   3.450  0.5266  0.8551  0.1566
  703MOL0     C94772   3.612   7.154   3.386 -0.5793  0.1811 -0.7654
  703MOL0     O94773   3.513   7.055   3.341 -0.5287 -0.3107 -0.0462
  703MOL0     C94774   3.384   7.087   3.362  0.6526 -0.6777  0.7638
  703MOL0     C94775   3.306   6.984   3.374  0.1850  0.3684  0.2297
  703MOL0     C94776   3.165   6.994   3.379  0.0884 -0.8770 -0.4466
  703MOL0     C94777   3.105   7.119   3.368 -0.5105  0.3881  0.0644
  703MOL0     O94778   2.970   7.133   3.369 -0.6023 -0.2632  0.1218
  703MOL0     C94779   2.888   7.023   3.411 -0.0385 -0.1206  0.1179
  703MOL0     C94780   2.741   7.039   3.431  0.5999  0.1041  0.0521
  703MOL0     C94781   2.675   6.915   3.480 -0.0362 -0.0344  0.5533
  703MOL0     C94782   2.524   6.919   3.470  0.0069  0.1340 -0.4860
  703MOL0     C94783   2.472   6.803   3.559  0.1151  0.1749  0.0761
  703MOL0     C94784   2.319   6.816   3.589 -0.8806  0.2179 -0.3705
  703MOL0     C94785   2.270   6.674   3.637 -0.4777  0.2326  0.0431
  703MOL0     C94786   2.124   6.668   3.611  1.6205  0.1724  0.4273
  703MOL0     N94787   2.084   6.528   3.628 -0.5536  0.5529  0.1443
  703MOL0     C94788   2.054   6.462   3.747 -0.0507 -0.0123 -0.0835
  703MOL0     C94789   2.005   6.342   3.715 -0.9248 -0.4973 -0.0525
  703MOL0     C94790   1.960   6.249   3.822  0.8889  0.4846  0.0280
  703MOL0     C94791   1.809   6.260   3.845  0.7837 -0.0844  0.4617
  703MOL0     C94792   1.757   6.171   3.950 -0.1724  0.4491  0.1645
  703MOL0     C94793   1.610   6.190   3.977 -0.1522  0.0576 -1.1984
  703MOL0     O94794   1.589   6.317   4.041 -0.0564 -0.2165 -0.5969
  703MOL0     C94795   1.460   6.341   4.090 -0.6042  0.5327 -0.7923
  703MOL0     C94796   1.454   6.440   4.191  0.4469 -0.1900 -0.3974
  703MOL0     C94797   1.328   6.476   4.237 -0.3926  0.5683 -0.5954
  703MOL0     C94798   1.332   6.600   4.325  0.0835  0.1232  0.1128
  703MOL0     C94799   1.217   6.406   4.199  0.2669 -0.0120  1.0043
  703MOL0     C94800   1.074   6.446   4.232  0.2350 -0.1167 -0.2785
  703MOL0     O94801   0.984   6.349   4.201  0.4365  0.3598 -0.7917
  703MOL0     C94802   0.853   6.380   4.211 -0.2350  0.7497 -1.2177
  703MOL0     C94803   0.793   6.442   4.329  0.5055  0.3687  0.4725
  703MOL0     C94804   0.658   6.450   4.346 -0.0510 -0.1746 -0.5933
  703MOL0     C94805   0.575   6.383   4.258 -0.0258 -0.1456  0.6382
  703MOL0     O94806   0.433   6.383   4.268 -0.4382  0.3444  0.0420
  703MOL0     C94807   0.378   6.372   4.403  0.2786  0.8092 -0.5323
  703MOL0     C94808   0.232   6.349   4.392 -0.2606 -0.1014  0.4667
  703MOL0     C94809   0.187   6.218   4.316 -0.3348  0.9741 -0.0696
  703MOL0     C94810   0.033   6.210   4.283  0.0820  0.3131  0.1461
  703MOL0     C94811   0.004   6.079   4.211 -0.1093 -0.3329  0.8210
  703MOL0     C94812  -0.145   6.051   4.218  0.5334 -0.0528 -0.0771
  703MOL0     C94813  -0.192   6.012   4.358  0.2457  0.4236  0.0900
  703MOL0     C94814  -0.348   5.999   4.361 -0.4725 -0.3499  0.0308
  703MOL0    Cl94815  -0.428   6.164   4.373  0.2845 -0.3160  0.7502
  703MOL0     C94816   0.626   6.327   4.142 -0.0563  0.4571 -0.3221
  703MOL0     C94817   0.760   6.319   4.123  0.8397 -0.1678 -0.2716
  703MOL0     O94818   1.049   6.559   4.275  0.1828 -0.5968  0.0950
  703MOL0     C94819   1.233   6.295   4.110 -0.0193 -0.2912  0.7308
  703MOL0     C94820   1.357   6.258   4.061 -0.6005  0.4862 -0.3104
  703MOL0     N94821   2.003   6.339   3.576 -0.7999 -0.0273  0.1393
  703MOL0     N94822   2.060   6.442   3.523  0.1186  0.0662  0.2194
  703MOL0     C94823   3.186   7.228   3.345 -0.4522 -0.4192 -0.9867
  703MOL0     C94824   3.326   7.215   3.342  0.3413 -0.2897 -0.2721
  703MOL0     C94825   3.754   7.147   3.345  0.5233  1.0240 -0.1102
  703MOL0     C94826   3.859   7.206   3.412 -0.5264 -0.5220  0.4686
  703MOL0     C94827   3.989   7.181   3.357  0.3278 -0.4461  0.0460
  703MOL0     C94828   4.014   7.104   3.249  0.1940  0.6673  1.4299
  703MOL0     O94829   4.139   7.061   3.197  0.3854  0.5764 -0.0372
  703MOL0     C94830   4.270   7.093   3.253  0.5159  0.4406 -0.0695
  703MOL0     C94831   4.326   7.206   3.173 -0.3638  0.2922  0.0319
  703MOL0     C94832   4.351   7.158   3.034  0.7036  0.0351  0.4732
  703MOL0     C94833   4.404   7.265   2.939 -0.5138  0.0611 -0.4558
  703MOL0     C94834   4.535   7.317   2.977 -0.5208  0.3848 -0.1961
  703MOL0     C94835   4.636   7.362   3.019  0.8770 -0.2829 -0.0525
  703MOL0     C94836   3.905   7.049   3.181 -1.2235  0.1487 -0.1796
  703MOL0     C94837   3.778   7.064   3.231 -0.4231  0.6275 -0.3734
  703MOL0     H94838   3.350   6.885   3.386 -1.2171 -0.5290 -1.5587
  703MOL0     H94839   3.112   6.901   3.399  2.5010 -1.9208  1.6540
  703MOL0     H94840   2.902   6.940   3.342  0.7580 -0.6808  0.9196
  703MOL0     H94841   2.928   6.979   3.503  1.3007 -0.2506 -0.4947
  703MOL0     H94842   2.717   7.115   3.506 -1.9111  0.4770 -1.0382
  703MOL0     H94843   2.710   7.078   3.333  0.2501  0.3106  0.2414
  703MOL0     H94844   2.722   6.834   3.424  0.7009  1.0968 -0.4879
  703MOL0     H94845   2.706   6.892   3.582  1.1745  0.2190  0.2508
  703MOL0     H94846   2.491   7.017   3.504 -2.2954 -0.8972  0.4605
  703MOL0     H94847   2.485   6.902   3.370 -0.5874  0.4897 -0.3213
  703MOL0     H94848   2.502   6.709   3.512 -2.7669 -0.4320 -0.7297
  703MOL0     H94849   2.527   6.795   3.654 -1.0492 -1.5196  0.6492
  703MOL0     H94850   2.304   6.889   3.669  1.5329 -0.2728  0.6187
  703MOL0     H94851   2.267   6.835   3.495 -0.9309 -2.1326 -0.8809
  703MOL0     H94852   2.318   6.598   3.574  1.0170  1.0307  0.1808
  703MOL0     H94853   2.286   6.647   3.742 -1.7264 -2.4934 -0.3882
  703MOL0     H94854   2.100   6.705   3.511  0.8877  0.0854  0.5665
  703MOL0     H94855   2.069   6.728   3.683  0.1085 -1.8043  0.9899
  703MOL0     H94856   2.063   6.504   3.846 -0.2446  2.6105 -1.0958
  703MOL0     H94857   1.970   6.144   3.793 -0.5590 -0.2851  2.0370
  703MOL0     H94858   2.022   6.264   3.911  1.2282 -1.4095  0.1413
  703MOL0     H94859   1.766   6.236   3.748 -1.4580 -2.4194  1.8997
  703MOL0     H94860   1.777   6.363   3.865  2.3682  0.4071  0.5958
  703MOL0     H94861   1.812   6.181   4.044  1.5512 -0.2119 -0.7176
  703MOL0     H94862   1.767   6.065   3.923 -2.8812 -0.3859  2.0066
  703MOL0     H94863   1.577   6.120   4.054  1.6893  1.9789  1.5206
  703MOL0     H94864   1.555   6.173   3.884 -0.9741 -1.2475 -0.4936
  703MOL0     H94865   1.542   6.495   4.221  1.7567 -1.1028 -2.3456
  703MOL0     H94866   1.330   6.698   4.277  2.2692  0.7536  1.1781
  703MOL0     H94867   1.250   6.591   4.398  0.9095  1.2844  1.2359
  703MOL0     H94868   1.425   6.584   4.380  1.7124 -0.8216 -2.7230
  703MOL0     H94869   0.853   6.483   4.410  1.4637  0.8705 -0.4786
  703MOL0     H94870   0.613   6.508   4.426 -2.9462  0.3294 -2.4198
  703MOL0     H94871   0.417   6.291   4.465  0.0671  2.7341  2.2457
  703MOL0     H94872   0.386   6.465   4.459 -2.3848 -0.4170  2.2146
  703MOL0     H94873   0.178   6.355   4.487 -1.8796  0.9218 -0.4471
  703MOL0     H94874   0.199   6.433   4.329  1.2286 -0.1104 -0.3534
  703MOL0     H94875   0.209   6.139   4.389  1.0002  0.6780 -0.7609
  703MOL0     H94876   0.263   6.195   4.241  0.3926 -0.5892  1.0839
  703MOL0     H94877  -0.019   6.229   4.378  0.8496  0.6692  0.5043
  703MOL0     H94878   0.013   6.294   4.216  1.0771  1.0915  0.8076
  703MOL0     H94879   0.068   6.009   4.265  0.9670 -1.6335 -1.9343
  703MOL0     H94880   0.036   6.080   4.107  2.7578  0.8066  1.6344
  703MOL0     H94881  -0.201   6.137   4.180 -0.4304 -0.5908  0.0902
  703MOL0     H94882  -0.170   5.974   4.145 -2.3646 -0.6986  1.4236
  703MOL0     H94883  -0.168   6.086   4.435  2.8078  0.0787 -0.2977
  703MOL0     H94884  -0.142   5.923   4.395 -0.5142  0.3457  0.9541
  703MOL0     H94885  -0.361   5.934   4.448  0.6154 -0.0143  0.4547
  703MOL0     H94886  -0.398   5.945   4.280 -0.0986  0.6094 -0.8645
  703MOL0     H94887   0.558   6.298   4.063  2.6416  0.8800 -2.9863
  703MOL0     H94888   0.790   6.271   4.031  0.5320  2.2874 -1.7358
  703MOL0     H94889   1.143   6.242   4.080  0.3893 -2.5211  3.1244
  703MOL0     H94890   1.355   6.171   3.997 -1.2140 -2.0113  2.8235
  703MOL0     H94891   3.143   7.328   3.338 -0.5590 -0.2902  0.8833
  703MOL0     H94892   3.384   7.302   3.314 -1.4450  0.5096 -1.7685
  703MOL0     H94893   3.840   7.264   3.502 -0.6021  0.4824 -0.1772
  703MOL0     H94894   4.071   7.226   3.410 -0.4749  1.7178 -0.4415
  703MOL0     H94895   4.250   7.116   3.358 -2.9719 -0.6033 -0.3887
  703MOL0     H94896   4.329   7.001   3.256  1.3541  0.9606 -0.0998
  703MOL0     H94897   4.422   7.246   3.208 -0.5909 -0.3620  1.5223
  703MOL0     H94898   4.255   7.288   3.165  0.6466  1.8482  4.1650
  703MOL0     H94899   4.254   7.126   2.994  1.1126  1.0811 -1.5083
  703MOL0     H94900   4.416   7.071   3.031  1.7530  0.7738  1.0931
  703MOL0     H94901   4.338   7.350   2.917  0.3559  1.2573  1.3313
  703MOL0     H94902   4.430   7.219   2.843  4.1687  1.0695  0.1047
  703MOL0     H94903   4.730   7.396   3.058 -0.3406  1.4497  1.5791
  703MOL0     H94904   3.925   6.981   3.098 -0.9653 -0.0883  0.0760
  703MOL0     H94905   3.706   7.003   3.177 -0.5219 -0.5989  1.0750
  704MOL0     O94906  10.073   9.899   6.306 -0.3902  0.2676  0.6350
  704MOL0     C94907  10.159   9.964   6.370  0.3374  0.0333  0.8890
  704MOL0     O94908  10.150  10.094   6.402  0.1337  0.5419 -1.1287
  704MOL0     C94909  10.029  10.156   6.389 -0.7402  0.3172  0.3642
  704MOL0     C94910  10.005  10.256   6.285  0.3579  0.5005 -0.0248
  704MOL0     C94911   9.879  10.314   6.285  0.4988 -0.0153 -0.1379
  704MOL0     C94912   9.785  10.295   6.393  0.1316  0.2201  0.9445
  704MOL0     O94913   9.664  10.359   6.411  0.2544  0.1716  0.3372
  704MOL0     C94914   9.648  10.477   6.336 -0.5580  0.7861  0.0150
  704MOL0     C94915   9.578  10.447   6.203  0.8772  0.0175  0.8234
  704MOL0     C94916   9.451  10.367   6.226 -0.4238 -0.1607 -0.5975
  704MOL0     C94917   9.343  10.443   6.309  0.3927  0.3728  0.0725
  704MOL0     C94918   9.299  10.583   6.246  0.3284  0.2119 -0.5757
  704MOL0     C94919   9.168  10.635   6.299 -0.3796  0.4657 -0.3989
  704MOL0     C94920   9.130  10.773   6.240 -0.2336 -0.0025  0.2981
  704MOL0     C94921   9.001  10.831   6.290  0.0893  0.0102 -0.1542
  704MOL0     N94922   8.952  10.939   6.206  0.2501 -0.3072 -0.1056
  704MOL0     C94923   8.939  11.079   6.233 -0.6132 -0.2279  0.1945
  704MOL0     C94924   8.863  11.117   6.127  0.2631 -0.0125  0.3974
  704MOL0     C94925   8.824  11.263   6.097  0.5384  0.4546  0.2130
  704MOL0     C94926   8.668  11.266   6.110  1.3719 -0.9382  0.6120
  704MOL0     C94927   8.620  11.404   6.070  0.3880  0.2989  0.0092
  704MOL0     C94928   8.479  11.438   6.127  0.3636  0.4574  0.3854
  704MOL0     O94929   8.376  11.372   6.050 -0.5901  0.3607  0.5988
  704MOL0     C94930   8.249  11.373   6.092  0.1760  1.0301  0.3294
  704MOL0     C94931   8.197  11.457   6.191 -0.4953  0.0161  0.0017
  704MOL0     C94932   8.065  11.461   6.232  0.1294  0.0787 -0.1012
  704MOL0     C94933   8.032  11.559   6.339 -0.2979 -1.1796  0.4452
  704MOL0     C94934   7.981  11.366   6.168  0.1111  0.4670  0.2486
  704MOL0     C94935   7.842  11.355   6.215  1.3062 -0.9514  0.5617
  704MOL0     O94936   7.792  11.423   6.320 -0.0231 -0.1770  0.4348
  704MOL0     C94937   7.665  11.435   6.342  0.5330  0.3580 -0.0059
  704MOL0     C94938   7.567  11.336   6.337  1.2060 -0.2722  0.4920
  704MOL0     C94939   7.429  11.372   6.366  0.0972 -0.5060  0.0298
  704MOL0     C94940   7.397  11.498   6.410  0.3068 -0.9387  0.1701
  704MOL0     O94941   7.276  11.541   6.452  0.2610  0.0539 -0.3280
  704MOL0     C94942   7.169  11.445   6.458 -0.2258 -0.5800  0.1615
  704MOL0     C94943   7.058  11.507   6.530  1.2967 -0.5548 -0.4139
  704MOL0     C94944   6.925  11.438   6.493 -0.0629 -0.5876  0.1897
  704MOL0     C94945   6.812  11.469   6.589 -0.7856 -0.8395 -0.0586
  704MOL0     C94946   6.667  11.437   6.537  0.4752 -0.6764 -0.7508
  704MOL0     C94947   6.557  11.475   6.637  0.4431 -1.4498 -0.3146
  704MOL0     C94948   6.528  11.626   6.657 -0.2863  0.3069 -0.2671
  704MOL0     C94949   6.408  11.631   6.745  0.4810 -0.5074 -0.7256
  704MOL0    Cl94950   6.258  11.600   6.652  0.1641  0.2060  0.1558
  704MOL0     C94951   7.498  11.595   6.395  0.6333  0.6554 -0.7264
  704MOL0     C94952   7.623  11.567   6.362 -0.2045 -0.2606 -0.1331
  704MOL0     O94953   7.768  11.282   6.149  0.3071  0.1698  0.5092
  704MOL0     C94954   8.023  11.286   6.064 -0.5254 -0.1762  0.8391
  704MOL0     C94955   8.154  11.296   6.017  0.5233  0.1923 -0.3235
  704MOL0     N94956   8.840  11.016   6.037 -0.6354  0.5171  0.4068
  704MOL0     N94957   8.885  10.910   6.096 -0.6823 -0.2464 -0.6303
  704MOL0     C94958   9.810  10.202   6.492  0.3311 -0.5192  0.1885
  704MOL0     C94959   9.927  10.124   6.477 -0.5981 -0.2567 -0.2325
  704MOL0     C94960  10.295   9.905   6.377 -0.7449  1.0773  0.4780
  704MOL0     C94961  10.309   9.772   6.317 -0.2084 -0.6549  0.9749
  704MOL0     C94962  10.437   9.708   6.311  0.2787 -1.3390  0.1155
  704MOL0     C94963  10.552   9.765   6.366 -0.2046  0.1839 -0.0867
  704MOL0     O94964  10.673   9.701   6.372  0.1089  0.1135  0.0293
  704MOL0     C94965  10.757   9.694   6.255 -0.0870 -0.8773  0.0381
  704MOL0     C94966  10.808   9.828   6.203  0.5348 -0.2988 -0.4378
  704MOL0     C94967  10.929   9.827   6.115 -0.4738 -0.3671  0.8432
  704MOL0     C94968  10.970   9.961   6.064  1.0723 -0.7069 -0.7843
  704MOL0     C94969  11.102   9.940   6.006 -0.0963 -0.4190 -0.4880
  704MOL0     C94970  11.205   9.927   5.935 -0.3648  0.1463 -0.1773
  704MOL0     C94971  10.530   9.883   6.442  0.1648  0.5228  0.4367
  704MOL0     C94972  10.407   9.952   6.443 -0.3995 -0.0996  1.0435
  704MOL0     H94973  10.083  10.286   6.216 -0.3501  0.4032 -0.8863
  704MOL0     H94974   9.851  10.385   6.208 -0.2647  1.3661  1.3596
  704MOL0     H94975   9.592  10.549   6.396 -0.3644  1.2599 -0.3689
  704MOL0     H94976   9.744  10.529   6.327 -0.0122  0.2300  2.0525
  704MOL0     H94977   9.553  10.536   6.144 -1.9197 -0.9759  0.3795
  704MOL0     H94978   9.654  10.389   6.150  0.5831  0.5518 -0.2120
  704MOL0     H94979   9.407  10.335   6.131  0.4492  2.9944 -2.2260
  704MOL0     H94980   9.478  10.278   6.284  0.8373  0.3780 -0.3178
  704MOL0     H94981   9.264  10.369   6.322  0.7043  0.6066  5.4445
  704MOL0     H94982   9.380  10.464   6.410  1.5585  0.2948 -0.3309
  704MOL0     H94983   9.367  10.665   6.272 -3.2089  1.9493  4.9169
  704MOL0     H94984   9.275  10.566   6.140 -1.6346 -1.4221  0.0794
  704MOL0     H94985   9.091  10.567   6.260  0.6958 -0.2631 -1.3255
  704MOL0     H94986   9.167  10.645   6.408 -3.1600  1.2155 -0.4107
  704MOL0     H94987   9.209  10.847   6.246 -1.4001  1.5632 -2.0515
  704MOL0     H94988   9.117  10.758   6.132 -2.6691 -0.2251  0.5497
  704MOL0     H94989   9.014  10.858   6.395 -0.5032 -0.7941  0.1341
  704MOL0     H94990   8.922  10.756   6.284 -1.8210  2.0311 -2.3706
  704MOL0     H94991   8.969  11.132   6.322  0.1330 -2.9242  1.6817
  704MOL0     H94992   8.869  11.337   6.164 -1.4675  2.9426 -1.0206
  704MOL0     H94993   8.843  11.295   5.994 -1.8000 -1.7018 -1.0094
  704MOL0     H94994   8.629  11.243   6.210 -0.8237 -0.6602 -0.1143
  704MOL0     H94995   8.614  11.205   6.036  0.9387  0.1961 -0.0432
  704MOL0     H94996   8.628  11.416   5.961  6.9707 -1.5585 -0.1568
  704MOL0     H94997   8.692  11.476   6.110  1.7372 -1.1911  0.4122
  704MOL0     H94998   8.457  11.545   6.130 -2.7873  0.0998 -2.5875
  704MOL0     H94999   8.482  11.393   6.226  0.4106 -0.6461 -0.0972
  704MOL0     H95000   8.268  11.530   6.228  1.3185 -0.9860 -1.3207
  704MOL0     H95001   8.006  11.517   6.437 -1.8479  1.8218  1.4572
  704MOL0     H95002   8.117  11.628   6.351  0.5290 -2.1526  0.2972
  704MOL0     H95003   7.946  11.621   6.314 -0.8690 -3.0328 -2.6494
  704MOL0     H95004   7.577  11.230   6.316 -3.6367 -1.0499  1.0388
  704MOL0     H95005   7.359  11.289   6.368  0.3332 -0.7035  0.7490
  704MOL0     H95006   7.134  11.402   6.364 -3.8829  0.0121  1.1081
  704MOL0     H95007   7.198  11.367   6.529  0.0534  1.4073  2.3661
  704MOL0     H95008   7.089  11.507   6.634 -0.0133  0.9783  0.0211
  704MOL0     H95009   7.055  11.614   6.505 -0.1053 -0.2035  1.1301
  704MOL0     H95010   6.933  11.329   6.486  0.3059 -0.5083 -0.8784
  704MOL0     H95011   6.890  11.483   6.399 -2.1675  0.2250  1.2932
  704MOL0     H95012   6.831  11.413   6.682  2.0951  2.2697  1.4402
  704MOL0     H95013   6.812  11.573   6.623  2.5087 -0.7721 -0.0008
  704MOL0     H95014   6.644  11.330   6.529 -1.3199 -0.2903 -1.3506
  704MOL0     H95015   6.650  11.490   6.443 -3.0331  3.2603  1.7104
  704MOL0     H95016   6.463  11.424   6.615 -1.8575  2.8576 -1.8111
  704MOL0     H95017   6.583  11.431   6.734 -2.0130 -0.5982  0.8125
  704MOL0     H95018   6.512  11.686   6.567  1.3825  0.4860 -0.4780
  704MOL0     H95019   6.623  11.662   6.699 -0.5397  1.5582 -0.7493
  704MOL0     H95020   6.403  11.725   6.800  0.5424 -2.2325  2.5018
  704MOL0     H95021   6.412  11.546   6.814 -0.1353 -0.9607 -1.2276
  704MOL0     H95022   7.468  11.695   6.427  0.6541  1.1119 -2.0879
  704MOL0     H95023   7.698  11.644   6.359 -0.6550  0.1678 -0.6076
  704MOL0     H95024   7.967  11.218   6.001 -4.2513  4.5247 -1.6078
  704MOL0     H95025   8.197  11.243   5.932 -0.0045  2.1661 -1.9069
  704MOL0     H95026   9.742  10.171   6.570  0.3205 -1.4511 -0.1766
  704MOL0     H95027   9.946  10.056   6.559 -1.6154  1.9453  1.9672
  704MOL0     H95028  10.222   9.723   6.274 -2.6176  3.4373  0.6427
  704MOL0     H95029  10.445   9.607   6.272 -1.7009 -2.2721  1.9103
  704MOL0     H95030  10.841   9.628   6.281  0.9335 -0.5876 -2.3111
  704MOL0     H95031  10.697   9.652   6.174 -2.9488  2.4266  0.2116
  704MOL0     H95032  10.842   9.878   6.295 -1.8474  0.7557 -0.0565
  704MOL0     H95033  10.729   9.881   6.149 -1.1430 -1.5102  0.7494
  704MOL0     H95034  10.905   9.766   6.027  0.0583  3.5214 -2.2771
  704MOL0     H95035  11.009   9.778   6.172 -2.4092 -2.0692  2.2075
  704MOL0     H95036  10.969  10.039   6.141 -0.0690 -2.9028  1.5843
  704MOL0     H95037  10.908  10.001   5.983 -0.1001 -0.0854  0.3838
  704MOL0     H95038  11.298   9.923   5.883 -0.0558  0.1839  0.3708
  704MOL0     H95039  10.616   9.932   6.487  2.8449 -1.9341 -1.6387
  704MOL0     H95040  10.408  10.046   6.498 -0.7630  1.8014 -1.9115
  705MOL0     O95041   5.802  10.652   1.382  0.4947  0.1981 -0.4597
  705MOL0     C95042   5.760  10.769   1.395  0.3047  0.4324 -0.3423
  705MOL0     O95043   5.646  10.813   1.468 -0.0504 -0.3384  0.5410
  705MOL0     C95044   5.557  10.722   1.516 -0.0553 -0.1557  0.1906
  705MOL0     C95045   5.492  10.642   1.424  0.1373 -0.2886 -0.1777
  705MOL0     C95046   5.380  10.564   1.461 -0.2796  0.5383 -0.1044
  705MOL0     C95047   5.337  10.568   1.598  0.6127 -0.3708 -0.3998
  705MOL0     O95048   5.231  10.504   1.651  0.1387  0.9766 -0.0883
  705MOL0     C95049   5.126  10.462   1.564  0.7270  0.0095 -0.3996
  705MOL0     C95050   5.011  10.401   1.656  0.1137 -1.3147 -0.1706
  705MOL0     C95051   4.879  10.374   1.576  0.1792 -0.2520 -0.1554
  705MOL0     C95052   4.766  10.329   1.671  0.2716  0.5399 -0.7907
  705MOL0     C95053   4.625  10.336   1.609 -0.6394 -0.0681 -0.0160
  705MOL0     C95054   4.510  10.298   1.705 -0.2749 -0.4522 -0.0271
  705MOL0     C95055   4.470  10.422   1.793  0.7539 -0.3764 -0.1036
  705MOL0     C95056   4.354  10.373   1.882 -0.1534  0.3213  0.4531
  705MOL0     N95057   4.227  10.348   1.813 -0.2101  0.2414  1.0126
  705MOL0     C95058   4.149  10.435   1.747  0.1062  0.1103 -1.3885
  705MOL0     C95059   4.074  10.354   1.674  0.3888  0.4764  0.6213
  705MOL0     C95060   3.975  10.398   1.562 -0.3564  0.3301 -0.9038
  705MOL0     C95061   3.835  10.424   1.614  0.3336  0.4398 -0.4942
  705MOL0     C95062   3.741  10.473   1.505 -0.7961  0.0967 -0.2955
  705MOL0     C95063   3.698  10.622   1.512 -0.0965  0.5288  0.2512
  705MOL0     O95064   3.627  10.658   1.624  0.0155 -0.0227 -0.2968
  705MOL0     C95065   3.516  10.586   1.656  0.1901  0.3710  0.3120
  705MOL0     C95066   3.394  10.645   1.624 -0.2717 -0.0690 -0.5498
  705MOL0     C95067   3.271  10.580   1.647  0.2718 -0.3271 -0.8574
  705MOL0     C95068   3.140  10.649   1.594 -0.0478 -0.1851  0.0622
  705MOL0     C95069   3.272  10.459   1.720 -0.4980 -0.1300 -0.6886
  705MOL0     C95070   3.150  10.373   1.747 -0.0587 -0.3370 -0.1640
  705MOL0     O95071   3.178  10.260   1.812  0.0322  0.8560 -0.3682
  705MOL0     C95072   3.075  10.178   1.856  0.2636 -0.7985 -0.9170
  705MOL0     C95073   2.982  10.229   1.947  0.5443  0.1465  0.1379
  705MOL0     C95074   2.881  10.139   1.999  0.4606 -1.5456  0.3223
  705MOL0     C95075   2.880  10.007   1.962  0.0592  0.4271  0.7310
  705MOL0     O95076   2.772   9.933   2.004 -0.6911  0.7765 -0.0342
  705MOL0     C95077   2.732   9.824   1.914 -0.1922  0.2201 -0.1984
  705MOL0     C95078   2.599   9.781   1.975 -0.0823  0.0813 -0.0954
  705MOL0     C95079   2.632   9.662   2.078 -0.2595 -0.1098 -0.9436
  705MOL0     C95080   2.541   9.668   2.200 -0.0274 -0.5723 -0.5922
  705MOL0     C95081   2.398   9.611   2.177  0.4284  0.2732 -0.2076
  705MOL0     C95082   2.393   9.498   2.065  0.1005 -0.7399 -0.1794
  705MOL0     C95083   2.252   9.446   2.041  0.2566  0.2944  0.3829
  705MOL0     C95084   2.244   9.369   1.910 -0.7099  0.3707 -0.8038
  705MOL0    Cl95085   2.085   9.308   1.874  0.2246  0.2060 -0.2396
  705MOL0     C95086   2.974   9.963   1.864 -0.6978  0.9519 -0.0826
  705MOL0     C95087   3.066  10.050   1.814 -0.2058  0.9714  0.8193
  705MOL0     O95088   3.036  10.416   1.720 -0.0420  0.5135 -0.1506
  705MOL0     C95089   3.406  10.413   1.764 -0.8134  0.2272 -0.3277
  705MOL0     C95090   3.519  10.473   1.730 -0.0958 -0.1518  0.3415
  705MOL0     N95091   4.091  10.222   1.705 -0.3673  0.5473  0.0126
  705MOL0     N95092   4.181  10.217   1.798 -0.6314 -0.5709 -0.6361
  705MOL0     C95093   5.412  10.641   1.688  0.3119  0.9523 -0.8094
  705MOL0     C95094   5.514  10.717   1.652 -0.9805  0.3609  0.3653
  705MOL0     C95095   5.844  10.867   1.326  0.1051  0.5527  0.7506
  705MOL0     C95096   5.794  10.994   1.305 -0.3115  0.0349 -0.5951
  705MOL0     C95097   5.870  11.101   1.250 -0.6222  1.2872  0.0350
  705MOL0     C95098   5.999  11.081   1.207 -0.0093 -0.0750  0.0394
  705MOL0     O95099   6.070  11.183   1.156 -0.6789 -0.8097  0.2373
  705MOL0     C95100   6.206  11.167   1.106  0.4345 -1.4070  0.6696
  705MOL0     C95101   6.197  11.142   0.960  0.3418 -0.4752  0.0397
  705MOL0     C95102   6.329  11.162   0.882 -0.9281 -0.5076  0.6749
  705MOL0     C95103   6.340  11.058   0.767  0.1993  0.5977  0.3155
  705MOL0     C95104   6.338  10.912   0.799  1.2031  0.9018  0.3391
  705MOL0     C95105   6.331  10.795   0.822 -0.3730  0.7091  0.0953
  705MOL0     C95106   6.053  10.949   1.224 -0.4543  0.1939 -0.4924
  705MOL0     C95107   5.978  10.845   1.286  0.2882 -0.1366 -0.0915
  705MOL0     H95108   5.516  10.640   1.318 -0.2614  2.5822 -0.3977
  705MOL0     H95109   5.325  10.497   1.395 -1.4805 -0.0012  1.3942
  705MOL0     H95110   5.085  10.534   1.494 -0.1098 -0.9902 -0.9706
  705MOL0     H95111   5.173  10.385   1.501  1.7985 -0.3139  0.7439
  705MOL0     H95112   5.047  10.318   1.716 -0.9292 -0.1102  2.2673
  705MOL0     H95113   4.991  10.487   1.720  1.4833  0.6619 -2.2070
  705MOL0     H95114   4.851  10.473   1.537  0.6926  0.3609  0.9733
  705MOL0     H95115   4.902  10.296   1.503  2.4084 -0.3500  0.5574
  705MOL0     H95116   4.778  10.226   1.706 -0.6201  0.3589 -0.9943
  705MOL0     H95117   4.766  10.392   1.760  0.7230 -0.0062 -0.3997
  705MOL0     H95118   4.609  10.437   1.570  2.1204  1.0326  1.4121
  705MOL0     H95119   4.628  10.266   1.525  1.7910  0.9921 -0.8922
  705MOL0     H95120   4.423  10.261   1.650 -0.6051  1.1784 -0.6580
  705MOL0     H95121   4.538  10.211   1.766 -0.7106 -0.2766  0.4215
  705MOL0     H95122   4.543  10.458   1.866  2.2059  3.2127 -2.9992
  705MOL0     H95123   4.434  10.503   1.729  1.9238  1.9773  2.0607
  705MOL0     H95124   4.325  10.461   1.941  1.3144 -2.0275  5.1952
  705MOL0     H95125   4.384  10.287   1.942 -2.2996  0.1459  1.3655
  705MOL0     H95126   4.140  10.543   1.739 -0.8201  0.2242  0.5035
  705MOL0     H95127   4.007  10.490   1.512 -0.5404  1.2839  0.6641
  705MOL0     H95128   3.967  10.312   1.494 -1.0531 -1.4049  1.2499
  705MOL0     H95129   3.835  10.486   1.704 -2.2208  0.1681 -0.2431
  705MOL0     H95130   3.800  10.328   1.654 -0.6380  1.3466  0.9011
  705MOL0     H95131   3.647  10.417   1.510 -1.2522  0.9175  0.6704
  705MOL0     H95132   3.801  10.457   1.415  2.8192  0.3915  1.8788
  705MOL0     H95133   3.647  10.651   1.420  0.0813  3.1722  0.8941
  705MOL0     H95134   3.790  10.680   1.508  0.5331 -0.2877  1.8264
  705MOL0     H95135   3.401  10.749   1.596  1.1011 -0.2557 -0.9329
  705MOL0     H95136   3.166  10.721   1.515  1.5217 -1.2061 -0.4159
  705MOL0     H95137   3.072  10.578   1.545 -0.2905 -0.1288  0.3198
  705MOL0     H95138   3.074  10.688   1.671  0.4698 -1.6198  1.2859
  705MOL0     H95139   2.987  10.330   1.986 -4.5184  0.0889  1.7280
  705MOL0     H95140   2.799  10.178   2.059  2.1586  1.5967  0.8264
  705MOL0     H95141   2.720   9.855   1.809 -0.4476 -1.9898 -0.8694
  705MOL0     H95142   2.804   9.741   1.916 -0.5140 -0.1017 -1.1013
  705MOL0     H95143   2.548   9.871   2.011  2.2176  1.4478 -0.0912
  705MOL0     H95144   2.541   9.742   1.890 -1.6343  1.5729  0.2238
  705MOL0     H95145   2.723   9.697   2.126 -1.1085 -1.8337  2.1494
  705MOL0     H95146   2.646   9.565   2.029 -1.7231 -1.6370  1.4408
  705MOL0     H95147   2.590   9.610   2.279  0.9569  1.9786  0.7670
  705MOL0     H95148   2.518   9.766   2.244  0.1770 -0.9390  0.3621
  705MOL0     H95149   2.336   9.692   2.137 -1.2903  0.0352  1.8376
  705MOL0     H95150   2.363   9.598   2.279  1.4400  0.9996  0.2511
  705MOL0     H95151   2.425   9.552   1.976 -1.6525 -0.0627 -0.4530
  705MOL0     H95152   2.457   9.416   2.097  1.4528  0.6607  0.8228
  705MOL0     H95153   2.174   9.522   2.049 -2.6403 -2.2970 -1.0301
  705MOL0     H95154   2.219   9.380   2.121 -3.5795  1.9024  0.2945
  705MOL0     H95155   2.324   9.294   1.907  0.0263  1.1793 -2.1307
  705MOL0     H95156   2.278   9.429   1.825 -0.4029  2.6719  0.8634
  705MOL0     H95157   2.987   9.861   1.829  0.6349  0.6103  1.3199
  705MOL0     H95158   3.129  10.008   1.737 -0.6241 -1.8894  1.9363
  705MOL0     H95159   3.421  10.321   1.820 -1.6796 -0.2107 -0.7840
  705MOL0     H95160   3.617  10.436   1.759  0.4323  1.6111  0.9214
  705MOL0     H95161   5.365  10.651   1.786 -0.0151  1.8358 -1.0487
  705MOL0     H95162   5.569  10.782   1.719 -0.1282 -0.4761  0.4895
  705MOL0     H95163   5.688  11.006   1.324 -0.9050 -2.7411 -1.6243
  705MOL0     H95164   5.830  11.202   1.244 -1.1622  0.9799 -3.3341
  705MOL0     H95165   6.263  11.258   1.130 -0.6956 -1.0421  2.1255
  705MOL0     H95166   6.262  11.090   1.159 -1.6914 -3.1468  0.5326
  705MOL0     H95167   6.128  11.214   0.914  0.0616 -0.2623  0.7769
  705MOL0     H95168   6.160  11.040   0.947  0.0551 -0.3882  0.1545
  705MOL0     H95169   6.408  11.144   0.955 -1.8848 -0.5549  1.7294
  705MOL0     H95170   6.341  11.265   0.849  0.5912  0.2089  3.1648
  705MOL0     H95171   6.432  11.083   0.713  0.1085  2.3477  0.9165
  705MOL0     H95172   6.257  11.076   0.697  3.1020  3.3713 -2.7604
  705MOL0     H95173   6.329  10.690   0.841 -0.5075  0.7746  0.4389
  705MOL0     H95174   6.159  10.928   1.209 -0.1523  2.4394 -1.9344
  705MOL0     H95175   6.019  10.748   1.313 -3.7765 -1.7631  0.9361
  706MOL0     O95176   1.011   6.833   1.305 -0.3132  0.2941 -0.1079
  706MOL0     C95177   1.076   6.832   1.408 -0.0270 -0.1269 -0.3960
  706MOL0     O95178   1.040   6.909   1.517 -0.2682  0.0358 -0.2153
  706MOL0     C95179   0.924   6.985   1.516  0.0387 -0.0357 -0.3302
  706MOL0     C95180   0.927   7.130   1.540 -0.0102 -0.8897  0.7480
  706MOL0     C95181   0.805   7.200   1.548  0.1972  0.2670 -0.6186
  706MOL0     C95182   0.683   7.133   1.549  0.1144 -0.2218  0.3725
  706MOL0     O95183   0.564   7.190   1.555 -0.4222 -0.8144  0.8268
  706MOL0     C95184   0.541   7.303   1.633 -0.3007  0.9772  0.2910
  706MOL0     C95185   0.387   7.311   1.653  0.1701  0.0325  0.8042
  706MOL0     C95186   0.341   7.418   1.755 -0.2415 -0.6596  0.9762
  706MOL0     C95187   0.354   7.389   1.901 -0.1197  0.3678  0.0982
  706MOL0     C95188   0.268   7.466   1.991  0.5227 -0.1796 -0.3208
  706MOL0     C95189   0.110   7.463   1.974 -0.1474 -0.7219  0.1178
  706MOL0     C95190   0.049   7.531   2.093  0.8530 -0.0499 -0.2027
  706MOL0     C95191   0.048   7.684   2.077 -0.8125 -0.1931 -0.2096
  706MOL0     N95192   0.007   7.766   2.195  0.2680 -1.0390 -0.4304
  706MOL0     C95193  -0.109   7.755   2.274  0.0651 -0.4277 -0.2632
  706MOL0     C95194  -0.087   7.841   2.382 -0.2979 -1.2208 -0.0586
  706MOL0     C95195  -0.178   7.847   2.499 -0.4453 -0.2323  0.6333
  706MOL0     C95196  -0.300   7.927   2.459 -0.2143 -0.5778  0.6944
  706MOL0     C95197  -0.410   7.912   2.569 -0.4237  0.6735  0.0817
  706MOL0     C95198  -0.520   8.012   2.544 -0.0216  0.0490 -0.1966
  706MOL0     O95199  -0.581   7.965   2.417  0.3043  0.8447 -0.5206
  706MOL0     C95200  -0.719   7.982   2.420  0.2943 -0.6334 -0.3113
  706MOL0     C95201  -0.802   7.872   2.399  0.3341  0.1542  0.3991
  706MOL0     C95202  -0.940   7.886   2.413 -0.4452  0.2193  0.5356
  706MOL0     C95203  -1.020   7.766   2.370  0.4645  0.4875 -0.2529
  706MOL0     C95204  -1.002   8.014   2.459  0.2250 -0.1689  0.0823
  706MOL0     C95205  -1.146   8.045   2.480  0.9116  0.1383 -0.0112
  706MOL0     O95206  -1.176   8.164   2.536 -0.0752  0.2227  0.2147
  706MOL0     C95207  -1.309   8.194   2.557 -0.0655  0.4222  0.3091
  706MOL0     C95208  -1.397   8.209   2.449 -0.4107  0.2250  0.1874
  706MOL0     C95209  -1.529   8.242   2.475 -1.6378  0.8201 -0.0234
  706MOL0     C95210  -1.576   8.238   2.610  0.9269 -0.1073  0.3892
  706MOL0     O95211  -1.712   8.277   2.629 -0.4487  0.9306  0.6363
  706MOL0     C95212  -1.771   8.268   2.757  0.1194 -0.3485  0.4684
  706MOL0     C95213  -1.912   8.321   2.758 -0.5722 -0.2700 -0.4825
  706MOL0     C95214  -2.006   8.223   2.684 -0.0001  0.7198  0.4888
  706MOL0     C95215  -2.136   8.285   2.629  0.5641  0.3934  0.0838
  706MOL0     C95216  -2.192   8.237   2.495  1.0862  0.7390 -0.3539
  706MOL0     C95217  -2.297   8.332   2.442 -0.2198 -0.2572 -0.1032
  706MOL0     C95218  -2.367   8.269   2.322 -0.0831  0.8702  0.3366
  706MOL0     C95219  -2.516   8.299   2.319  0.5269  0.6483 -0.4807
  706MOL0    Cl95220  -2.574   8.266   2.160  0.2009 -0.3964  0.2798
  706MOL0     C95221  -1.494   8.200   2.721  0.1628  0.1777  1.2665
  706MOL0     C95222  -1.360   8.178   2.684 -0.1265 -0.2235  0.4862
  706MOL0     O95223  -1.228   7.962   2.444 -0.3889 -0.0216 -0.0981
  706MOL0     C95224  -0.914   8.117   2.473 -0.9158 -0.5381 -0.1629
  706MOL0     C95225  -0.777   8.108   2.445  0.1800  0.2971  0.2102
  706MOL0     N95226   0.043   7.892   2.371 -0.3503 -0.2990  0.4609
  706MOL0     N95227   0.094   7.852   2.252 -0.0315 -1.1234 -0.4226
  706MOL0     C95228   0.682   7.001   1.516  0.4279  0.3757 -1.1796
  706MOL0     C95229   0.794   6.924   1.498  1.1700  1.0093 -0.4075
  706MOL0     C95230   1.190   6.741   1.419 -0.5108 -0.3423 -0.8967
  706MOL0     C95231   1.244   6.690   1.539  0.2754  0.3025  0.5445
  706MOL0     C95232   1.358   6.605   1.549 -0.0032  0.6229  0.4394
  706MOL0     C95233   1.427   6.563   1.432  0.5857 -0.0434  0.0656
  706MOL0     O95234   1.538   6.486   1.434  0.4129  0.6084 -0.2942
  706MOL0     C95235   1.528   6.350   1.376 -0.8413 -0.1384  0.9465
  706MOL0     C95236   1.417   6.266   1.441 -0.8677 -0.8961 -0.0533
  706MOL0     C95237   1.460   6.200   1.578  1.0528 -0.5949  0.4039
  706MOL0     C95238   1.381   6.079   1.601  0.4787  0.4592  0.3585
  706MOL0     C95239   1.416   5.973   1.508 -0.1271  0.9954 -0.5976
  706MOL0     C95240   1.445   5.874   1.446 -0.3975  0.7970  0.1176
  706MOL0     C95241   1.367   6.596   1.309  0.6407 -0.6451 -0.8803
  706MOL0     C95242   1.247   6.684   1.306 -0.0144  0.9604 -0.1620
  706MOL0     H95243   1.022   7.179   1.556 -1.8675  3.4511 -0.0425
  706MOL0     H95244   0.806   7.308   1.557 -3.7577  0.4618 -0.6187
  706MOL0     H95245   0.584   7.288   1.732  1.5865 -0.2912 -0.6698
  706MOL0     H95246   0.592   7.389   1.589  0.1841  1.6361  2.0661
  706MOL0     H95247   0.354   7.346   1.555  0.1042 -0.5536  0.6122
  706MOL0     H95248   0.339   7.214   1.667 -1.6594  0.1104 -3.5085
  706MOL0     H95249   0.391   7.510   1.722 -1.1906 -0.3780  0.2632
  706MOL0     H95250   0.234   7.430   1.735  0.1574  0.2110 -0.8480
  706MOL0     H95251   0.320   7.286   1.920  0.7863 -0.1724 -1.0607
  706MOL0     H95252   0.460   7.398   1.928 -0.5278  2.9841  1.0219
  706MOL0     H95253   0.293   7.443   2.095  0.6054 -0.3187 -0.3707
  706MOL0     H95254   0.306   7.568   1.980  2.8579 -1.0470 -0.7078
  706MOL0     H95255   0.076   7.517   1.885 -2.4578 -2.6917 -0.2948
  706MOL0     H95256   0.077   7.359   1.972 -0.6514 -0.5640  0.1101
  706MOL0     H95257  -0.054   7.493   2.102  0.6626  0.7167  1.1565
  706MOL0     H95258   0.097   7.493   2.183  0.6591 -0.0024 -0.0764
  706MOL0     H95259  -0.006   7.717   1.988  1.2144  2.9188 -0.4210
  706MOL0     H95260   0.152   7.717   2.078 -0.6050 -0.8176 -0.4816
  706MOL0     H95261  -0.199   7.697   2.254  0.2318 -1.3337  1.4303
  706MOL0     H95262  -0.220   7.747   2.516 -1.9629  0.5079  1.4578
  706MOL0     H95263  -0.126   7.883   2.588 -1.5295 -0.4378  1.3701
  706MOL0     H95264  -0.336   7.888   2.363 -0.0765  0.0437  0.3872
  706MOL0     H95265  -0.272   8.030   2.437 -1.8549 -0.3943 -0.7485
  706MOL0     H95266  -0.369   7.936   2.668 -2.3607 -0.8724  1.3194
  706MOL0     H95267  -0.456   7.813   2.574  2.9339 -1.1960 -1.8736
  706MOL0     H95268  -0.481   8.113   2.532  0.8218 -0.1594  0.6332
  706MOL0     H95269  -0.594   8.005   2.624 -0.6338 -1.5204 -0.8506
  706MOL0     H95270  -0.754   7.781   2.365  1.8390  0.4539  1.5873
  706MOL0     H95271  -1.032   7.770   2.262 -0.1647  1.7886 -0.1574
  706MOL0     H95272  -0.957   7.680   2.393  3.2725  2.7430  1.2047
  706MOL0     H95273  -1.123   7.755   2.403  0.5944 -0.9737 -0.2997
  706MOL0     H95274  -1.371   8.201   2.344  1.6372  1.5465  0.5320
  706MOL0     H95275  -1.590   8.255   2.386 -0.1943 -2.9479 -1.7639
  706MOL0     H95276  -1.760   8.164   2.789  2.0396 -0.1534  0.5561
  706MOL0     H95277  -1.701   8.319   2.824  0.7322 -0.5436 -0.0107
  706MOL0     H95278  -1.957   8.337   2.856 -0.2814 -0.3737 -0.3310
  706MOL0     H95279  -1.926   8.423   2.721 -0.2936  0.6490  1.8320
  706MOL0     H95280  -2.016   8.127   2.735 -1.0768 -0.0120 -1.0280
  706MOL0     H95281  -1.955   8.197   2.591 -0.1125  5.5326 -1.2183
  706MOL0     H95282  -2.220   8.264   2.695 -1.2286 -2.8706 -2.8982
  706MOL0     H95283  -2.115   8.392   2.627  0.6044  0.5067  2.8142
  706MOL0     H95284  -2.210   8.131   2.518  0.9251  1.2182  1.9171
  706MOL0     H95285  -2.108   8.234   2.425 -1.0632 -2.6141 -3.1389
  706MOL0     H95286  -2.374   8.342   2.519 -1.1611 -3.5233 -0.4650
  706MOL0     H95287  -2.267   8.432   2.410  3.0823 -1.0467  0.2256
  706MOL0     H95288  -2.342   8.163   2.329  1.6422  1.1700 -0.7760
  706MOL0     H95289  -2.320   8.295   2.227  1.8444 -0.8693  0.7309
  706MOL0     H95290  -2.538   8.404   2.344 -1.8906  0.0154  0.3064
  706MOL0     H95291  -2.573   8.245   2.395  0.7316  0.4670 -0.4558
  706MOL0     H95292  -1.546   8.177   2.814 -2.4166  0.7178  0.0565
  706MOL0     H95293  -1.298   8.133   2.761  1.2001 -1.7846 -1.3889
  706MOL0     H95294  -0.946   8.218   2.493  0.8267  0.2797 -1.2521
  706MOL0     H95295  -0.708   8.190   2.456 -0.7134  1.3852 -1.8720
  706MOL0     H95296   0.579   6.968   1.509  0.5015 -0.1444  0.0277
  706MOL0     H95297   0.779   6.819   1.474  0.5223  0.6343  1.5219
  706MOL0     H95298   1.190   6.723   1.628 -1.9370  2.4890 -1.4855
  706MOL0     H95299   1.379   6.568   1.649  0.4812 -2.2448 -0.6319
  706MOL0     H95300   1.496   6.363   1.272 -1.5330 -1.4984  0.9573
  706MOL0     H95301   1.618   6.288   1.377 -1.2607 -0.7661  0.7402
  706MOL0     H95302   1.395   6.187   1.369 -1.5978 -2.6685  1.9980
  706MOL0     H95303   1.326   6.323   1.462 -0.7333 -0.3032 -0.9882
  706MOL0     H95304   1.429   6.262   1.663 -2.1061  0.7844 -1.5725
  706MOL0     H95305   1.564   6.167   1.585  2.0096  2.0112 -0.3384
  706MOL0     H95306   1.273   6.095   1.593  0.1835 -1.9408 -2.3254
  706MOL0     H95307   1.409   6.037   1.698 -0.6612 -0.3649  0.3486
  706MOL0     H95308   1.474   5.792   1.384  2.0926  1.4867  0.2574
  706MOL0     H95309   1.413   6.546   1.225  1.4707  0.2979 -1.0151
  706MOL0     H95310   1.211   6.705   1.206  0.1495  0.6847 -0.2813
  707MOL0     O95311   6.960   7.133   6.320 -0.7229 -0.4180 -0.3519
  707MOL0     C95312   7.054   7.106   6.395  0.3674 -0.1290  0.2887
  707MOL0     O95313   7.088   6.976   6.437  0.3219 -0.4525  0.1964
  707MOL0     C95314   6.995   6.884   6.404 -0.1926 -0.7319  0.5963
  707MOL0     C95315   6.911   6.815   6.492 -0.2343 -0.3444  0.0849
  707MOL0     C95316   6.829   6.709   6.437  0.0708 -0.7978  0.0745
  707MOL0     C95317   6.826   6.674   6.303 -0.3319 -0.4137 -0.0128
  707MOL0     O95318   6.767   6.559   6.253  0.0578 -0.1840 -0.1996
  707MOL0     C95319   6.674   6.577   6.149 -0.9749 -0.1223  1.0997
  707MOL0     C95320   6.593   6.453   6.157  0.2577  0.2455  0.4344
  707MOL0     C95321   6.484   6.435   6.051 -0.0543  0.1967 -0.0300
  707MOL0     C95322   6.386   6.314   6.077 -0.0398 -0.1518  0.4228
  707MOL0     C95323   6.282   6.293   5.966  0.0749 -0.0802  0.5075
  707MOL0     C95324   6.173   6.188   6.006  0.2047 -0.7983  1.0641
  707MOL0     C95325   6.074   6.167   5.893 -0.8216 -0.5300  0.5237
  707MOL0     C95326   5.929   6.203   5.931  0.2400  0.0109  0.0980
  707MOL0     N95327   5.837   6.147   5.835 -0.6218  0.0572  0.3239
  707MOL0     C95328   5.794   6.020   5.836  0.1567  0.3183  0.8141
  707MOL0     C95329   5.706   6.004   5.735  0.1598  0.0958 -0.5998
  707MOL0     C95330   5.649   5.872   5.704  0.2106  0.2490 -0.0365
  707MOL0     C95331   5.557   5.829   5.817 -0.7116  0.4205  0.6576
  707MOL0     C95332   5.478   5.696   5.795 -0.1145 -0.5279  0.5940
  707MOL0     C95333   5.365   5.664   5.896  1.0774 -0.0316 -0.0130
  707MOL0     O95334   5.423   5.595   6.007  0.0369 -0.3628  0.0406
  707MOL0     C95335   5.353   5.505   6.086  0.3170  0.7198  0.9774
  707MOL0     C95336   5.214   5.487   6.090 -0.7253 -0.1799  0.1199
  707MOL0     C95337   5.152   5.385   6.169  0.3913 -1.0598  0.2685
  707MOL0     C95338   5.001   5.366   6.150  0.3329  0.3075  0.2699
  707MOL0     C95339   5.226   5.311   6.259 -0.3294  0.2809  0.1354
  707MOL0     C95340   5.163   5.223   6.361 -0.0019  0.0415  0.0849
  707MOL0     O95341   5.061   5.133   6.321 -0.4450 -0.7233  0.1255
  707MOL0     C95342   5.021   5.051   6.428  0.3908  0.1588  0.8044
  707MOL0     C95343   4.958   5.087   6.551 -0.9906  0.6717 -0.0624
  707MOL0     C95344   4.916   4.988   6.645  0.3721  0.8445  0.7617
  707MOL0     C95345   4.943   4.856   6.627 -0.1727  0.1122  0.5051
  707MOL0     O95346   4.913   4.745   6.708 -0.2610  0.3542 -0.2840
  707MOL0     C95347   4.809   4.761   6.805  0.4289 -0.3656  0.0328
  707MOL0     C95348   4.668   4.745   6.738 -0.0021  0.1367  0.1057
  707MOL0     C95349   4.557   4.779   6.829  0.0782  0.5594 -0.6662
  707MOL0     C95350   4.540   4.914   6.901  0.2861 -0.3066 -1.1489
  707MOL0     C95351   4.444   4.898   7.019 -0.3467 -0.4250 -0.0762
  707MOL0     C95352   4.291   4.911   6.983  0.1776 -0.1871  0.3119
  707MOL0     C95353   4.182   4.905   7.102 -0.1675 -0.0120  0.5117
  707MOL0     C95354   4.180   5.019   7.203  0.3244  0.9471  0.0292
  707MOL0    Cl95355   4.024   5.031   7.300 -0.2074 -0.1613 -0.0693
  707MOL0     C95356   5.008   4.821   6.508  0.3247 -0.0954 -0.7232
  707MOL0     C95357   5.045   4.914   6.408 -0.1670 -0.1618 -0.7137
  707MOL0     O95358   5.218   5.223   6.471  0.4510  0.0071  0.2164
  707MOL0     C95359   5.360   5.350   6.271  0.1649 -0.4055  0.0799
  707MOL0     C95360   5.423   5.439   6.186 -0.6020 -1.2006 -0.6509
  707MOL0     N95361   5.703   6.125   5.669 -0.0191 -0.2952  0.1846
  707MOL0     N95362   5.786   6.207   5.720 -0.0753 -0.7278  0.8083
  707MOL0     C95363   6.905   6.753   6.213  0.4504  0.2871 -0.4963
  707MOL0     C95364   6.989   6.854   6.264  0.1386 -0.2312 -0.3972
  707MOL0     C95365   7.151   7.209   6.439  0.3289 -0.2628 -0.2029
  707MOL0     C95366   7.186   7.331   6.378 -0.4497 -0.0623 -0.1673
  707MOL0     C95367   7.285   7.428   6.419 -0.6183 -0.2635 -0.1566
  707MOL0     C95368   7.344   7.407   6.546 -0.1643  0.3149 -0.3080
  707MOL0     O95369   7.433   7.489   6.606 -0.0340  0.5999 -0.0316
  707MOL0     C95370   7.400   7.628   6.607 -0.2319 -0.3920  0.2288
  707MOL0     C95371   7.369   7.647   6.761 -0.3208  0.0001  1.0781
  707MOL0     C95372   7.369   7.790   6.813  0.3105 -1.3433  0.0199
  707MOL0     C95373   7.355   7.799   6.963  0.2683  0.1798  0.1614
  707MOL0     C95374   7.481   7.811   7.029 -0.1075 -0.1468 -0.0740
  707MOL0     C95375   7.594   7.819   7.063  0.8866  0.0576 -0.4501
  707MOL0     C95376   7.317   7.279   6.593 -0.9061 -0.5035 -0.3226
  707MOL0     C95377   7.231   7.185   6.551 -0.2418  0.2648  0.9263
  707MOL0     H95378   6.915   6.842   6.597 -1.4522  0.9321 -0.1639
  707MOL0     H95379   6.774   6.655   6.513  0.7432  2.6105  3.2622
  707MOL0     H95380   6.621   6.671   6.159 -1.9541 -0.7051  1.5165
  707MOL0     H95381   6.720   6.569   6.050 -0.0683  4.2105  0.9851
  707MOL0     H95382   6.664   6.370   6.147 -0.2237  0.0780 -2.7920
  707MOL0     H95383   6.543   6.435   6.253 -2.1716 -2.3959 -1.1337
  707MOL0     H95384   6.419   6.522   6.037 -1.1182 -0.4259  0.7830
  707MOL0     H95385   6.544   6.409   5.964 -2.1941  0.0378 -1.5393
  707MOL0     H95386   6.447   6.226   6.103  3.2661  1.4281 -1.2906
  707MOL0     H95387   6.337   6.328   6.174 -0.3968  0.6858  0.1333
  707MOL0     H95388   6.229   6.388   5.952  1.0530  0.5849  1.1402
  707MOL0     H95389   6.320   6.281   5.865 -1.4786  2.8544 -0.5230
  707MOL0     H95390   6.234   6.102   6.032  2.7218  0.6783  0.4435
  707MOL0     H95391   6.115   6.230   6.089 -0.4211 -0.8843  0.6798
  707MOL0     H95392   6.096   6.220   5.800 -0.5240 -0.2260  0.7669
  707MOL0     H95393   6.062   6.060   5.871 -0.9457 -0.2548 -0.8069
  707MOL0     H95394   5.921   6.312   5.931  0.5843  0.0420 -0.6365
  707MOL0     H95395   5.902   6.167   6.030 -1.6569 -3.0699 -1.3793
  707MOL0     H95396   5.824   5.939   5.903 -2.0443 -0.0674  1.3977
  707MOL0     H95397   5.594   5.880   5.610 -1.9225 -0.1650  1.1085
  707MOL0     H95398   5.731   5.800   5.697 -0.5723 -0.8767  1.5563
  707MOL0     H95399   5.481   5.907   5.831  0.5321  2.4693 -2.7960
  707MOL0     H95400   5.601   5.825   5.917 -1.0211 -2.8768  0.7739
  707MOL0     H95401   5.547   5.611   5.795 -0.7053 -1.0238  0.0139
  707MOL0     H95402   5.431   5.709   5.697  3.0882  1.3824 -0.8435
  707MOL0     H95403   5.285   5.604   5.852 -2.1593  0.2326  4.6673
  707MOL0     H95404   5.314   5.756   5.926 -0.3337 -0.5018 -0.8854
  707MOL0     H95405   5.155   5.544   6.019 -0.0548 -0.4333 -0.6510
  707MOL0     H95406   4.967   5.422   6.063 -0.2120 -1.1909 -0.5250
  707MOL0     H95407   4.959   5.265   6.146 -1.0148  0.8591 -0.1505
  707MOL0     H95408   4.954   5.406   6.240  0.1427 -3.1765  1.8927
  707MOL0     H95409   4.943   5.190   6.580 -1.9172  0.2839  0.8959
  707MOL0     H95410   4.870   5.017   6.739  0.2655 -1.5971  1.5207
  707MOL0     H95411   4.825   4.682   6.878  3.3907 -1.7171 -1.9050
  707MOL0     H95412   4.820   4.863   6.844 -1.7533 -0.1403  0.1987
  707MOL0     H95413   4.660   4.813   6.653 -1.7935 -0.1701  0.0057
  707MOL0     H95414   4.647   4.642   6.708  0.6051 -0.7529  2.4781
  707MOL0     H95415   4.567   4.712   6.915 -0.1339  0.5321 -0.6608
  707MOL0     H95416   4.461   4.767   6.777 -0.6254  2.7804  0.0176
  707MOL0     H95417   4.633   4.948   6.948  0.1527 -0.8047 -0.5077
  707MOL0     H95418   4.496   4.988   6.833 -2.8761 -0.8401  0.1131
  707MOL0     H95419   4.469   4.971   7.097  1.3802  0.6720 -1.5622
  707MOL0     H95420   4.453   4.809   7.081 -1.8610  0.3281  1.3090
  707MOL0     H95421   4.288   5.007   6.930  0.9052 -0.5115 -0.3309
  707MOL0     H95422   4.268   4.826   6.918 -0.6918  0.6156 -0.4690
  707MOL0     H95423   4.193   4.810   7.154 -3.1997  0.9134  3.1597
  707MOL0     H95424   4.083   4.901   7.056 -0.9565  2.9261  1.6896
  707MOL0     H95425   4.200   5.113   7.151  0.4059  1.1126  0.3591
  707MOL0     H95426   4.257   5.005   7.280 -0.1254 -0.7436  0.2112
  707MOL0     H95427   5.039   4.717   6.499  0.6754 -0.1638  0.9333
  707MOL0     H95428   5.093   4.873   6.320 -1.0729 -2.4771 -0.1848
  707MOL0     H95429   5.417   5.291   6.341  0.3179 -1.1561 -0.6677
  707MOL0     H95430   5.528   5.461   6.201 -0.2597 -3.0897  0.0036
  707MOL0     H95431   6.920   6.717   6.112 -0.0554  0.5124 -0.6541
  707MOL0     H95432   7.051   6.913   6.196  1.3393 -1.1271 -0.1155
  707MOL0     H95433   7.132   7.341   6.284 -1.4581  0.7056  0.4823
  707MOL0     H95434   7.319   7.507   6.353 -0.7355 -1.0120 -1.1327
  707MOL0     H95435   7.475   7.688   6.554 -0.8564 -1.0901 -1.5415
  707MOL0     H95436   7.309   7.652   6.552  0.3705  1.4740  0.0033
  707MOL0     H95437   7.445   7.592   6.819 -1.8821 -2.7638  0.6869
  707MOL0     H95438   7.277   7.594   6.791 -0.4832 -1.4373 -1.6803
  707MOL0     H95439   7.281   7.846   6.779  0.5551 -0.5926  0.5857
  707MOL0     H95440   7.452   7.852   6.777  0.2564 -0.8385  0.7269
  707MOL0     H95441   7.311   7.709   7.006 -0.2756 -0.8919 -2.4663
  707MOL0     H95442   7.289   7.882   6.991 -0.1187 -0.3391  0.7967
  707MOL0     H95443   7.696   7.842   7.085  0.1215  5.4190 -1.2785
  707MOL0     H95444   7.376   7.257   6.681  0.4315  1.7003 -0.5932
  707MOL0     H95445   7.224   7.086   6.594  0.9284 -1.6157 -2.7930
  708MOL0     O95446   9.205   2.666  10.031 -0.5577  0.5637  0.3257
  708MOL0     C95447   9.278   2.750   9.991  0.2850 -0.6091  0.2293
  708MOL0     O95448   9.246   2.859   9.915 -0.1903 -0.0730 -0.1680
  708MOL0     C95449   9.118   2.907   9.894  0.3319 -0.5757 -0.5345
  708MOL0     C95450   9.107   2.992   9.787  0.1150  0.4469 -0.0455
  708MOL0     C95451   8.983   3.020   9.732 -0.4237  0.9120 -0.2874
  708MOL0     C95452   8.865   2.965   9.778  0.2339 -0.0299 -0.8422
  708MOL0     O95453   8.745   2.999   9.715 -0.2202  1.2017  0.6718
  708MOL0     C95454   8.744   2.971   9.573  0.2802 -0.9214 -0.3643
  708MOL0     C95455   8.618   2.893   9.527 -0.6803 -1.0708 -0.1523
  708MOL0     C95456   8.504   2.992   9.488 -0.1835 -0.3466  0.2450
  708MOL0     C95457   8.420   3.032   9.607 -0.0771 -0.2728 -0.0103
  708MOL0     C95458   8.283   3.088   9.560  1.4144  0.1055  0.3143
  708MOL0     C95459   8.298   3.231   9.491  0.6233  1.1711 -0.1015
  708MOL0     C95460   8.161   3.299   9.474 -0.6819  0.2594 -0.2858
  708MOL0     C95461   8.172   3.453   9.440 -0.6466 -0.0848 -0.2677
  708MOL0     N95462   8.177   3.465   9.299 -0.7102 -0.1093 -0.4182
  708MOL0     C95463   8.079   3.505   9.210  0.0418 -0.5321 -0.6451
  708MOL0     C95464   8.133   3.495   9.088 -0.3259 -0.2765 -0.7904
  708MOL0     C95465   8.081   3.531   8.956 -0.2345 -0.5607  1.0118
  708MOL0     C95466   8.043   3.679   8.953 -0.0260 -0.0185  0.7812
  708MOL0     C95467   7.976   3.713   8.824  0.2790 -0.7513 -0.1782
  708MOL0     C95468   7.964   3.863   8.803 -0.1082 -0.0733 -0.4295
  708MOL0     O95469   7.900   3.900   8.685  0.7196 -0.3969 -0.5644
  708MOL0     C95470   7.767   3.879   8.668  0.1829 -0.1538  0.4382
  708MOL0     C95471   7.726   3.820   8.554 -0.1347  0.2714 -0.2987
  708MOL0     C95472   7.587   3.813   8.524  0.5296 -0.6149  0.0646
  708MOL0     C95473   7.548   3.760   8.390 -1.0035 -0.7530 -0.4232
  708MOL0     C95474   7.495   3.859   8.614 -0.9730  0.7923 -0.0575
  708MOL0     C95475   7.354   3.878   8.602 -0.0264 -0.2003  0.9375
  708MOL0     O95476   7.282   3.859   8.716 -0.3687 -0.2050 -0.9975
  708MOL0     C95477   7.151   3.898   8.729 -0.7542  0.8488 -0.5388
  708MOL0     C95478   7.121   4.001   8.811 -0.0722 -0.5231  0.4600
  708MOL0     C95479   6.986   4.027   8.841  0.5795  0.4198 -0.8989
  708MOL0     C95480   6.890   3.946   8.788 -0.6131 -0.2075 -0.6737
  708MOL0     O95481   6.762   3.986   8.811  0.2236  0.0756 -0.0525
  708MOL0     C95482   6.724   3.964   8.947 -0.6086 -0.7272 -0.0018
  708MOL0     C95483   6.627   3.842   8.963 -0.1814 -0.8978 -0.7959
  708MOL0     C95484   6.506   3.866   8.872 -0.7259  0.0511  0.0308
  708MOL0     C95485   6.365   3.832   8.934  0.4045  0.6288 -0.4651
  708MOL0     C95486   6.329   3.938   9.042 -0.9887  0.1560  0.4717
  708MOL0     C95487   6.174   3.939   9.072 -0.5653  0.6806 -0.1364
  708MOL0     C95488   6.143   3.826   9.170  0.1849  0.8619 -0.0563
  708MOL0     C95489   6.002   3.851   9.240 -0.2708 -0.4783 -0.6260
  708MOL0    Cl95490   5.877   3.887   9.134  0.3205 -0.0033 -0.2806
  708MOL0     C95491   6.921   3.837   8.702  0.4683 -0.2487 -0.8194
  708MOL0     C95492   7.053   3.815   8.677 -0.3021 -0.4512  0.1398
  708MOL0     O95493   7.301   3.904   8.494  0.1982  0.1571  0.3481
  708MOL0     C95494   7.545   3.914   8.735  0.9444 -0.0565 -0.2779
  708MOL0     C95495   7.684   3.927   8.761  0.6687 -0.7385 -0.1784
  708MOL0     N95496   8.272   3.463   9.101 -0.4645  0.1086  0.4771
  708MOL0     N95497   8.289   3.434   9.222 -0.5923  0.0832  0.4351
  708MOL0     C95498   8.876   2.882   9.887  0.0994  0.2636  0.6595
  708MOL0     C95499   8.999   2.858   9.953  0.1983 -0.4415  0.1277
  708MOL0     C95500   9.413   2.745  10.028 -0.3546  0.0028 -0.1885
  708MOL0     C95501   9.462   2.644  10.114 -0.0817 -0.5771  0.1215
  708MOL0     C95502   9.600   2.629  10.142  1.2760  0.0065 -0.7856
  708MOL0     C95503   9.689   2.720  10.079 -0.5541  0.4378 -0.3945
  708MOL0     O95504   9.822   2.690  10.110 -0.3663 -0.1605  0.0149
  708MOL0     C95505   9.923   2.798  10.100  0.3156 -0.2634  0.9872
  708MOL0     C95506  10.045   2.763  10.185 -0.2375  0.6509 -0.1786
  708MOL0     C95507  10.024   2.816  10.330  0.5671  0.0099  0.7402
  708MOL0     C95508  10.033   2.966  10.331 -0.0732 -0.1561 -0.5639
  708MOL0     C95509  10.031   3.020  10.467  0.2418  0.1460  0.3733
  708MOL0     C95510  10.031   3.063  10.578 -0.1135 -0.0717 -0.0181
  708MOL0     C95511   9.642   2.819   9.985 -0.4911 -1.1574 -0.0267
  708MOL0     C95512   9.510   2.831   9.965  0.9460  0.2838  0.6784
  708MOL0     H95513   9.197   3.028   9.738  0.2885 -1.0951 -0.8983
  708MOL0     H95514   8.982   3.075   9.638  0.6380 -0.2366 -1.0122
  708MOL0     H95515   8.769   3.065   9.523 -1.1146  0.0222  0.6356
  708MOL0     H95516   8.824   2.896   9.564 -0.3835 -1.6947  0.0075
  708MOL0     H95517   8.640   2.824   9.444  1.6975 -0.4602 -0.0936
  708MOL0     H95518   8.573   2.819   9.594  0.9509 -2.2448 -0.2950
  708MOL0     H95519   8.546   3.075   9.431  1.6891  0.9426  3.2555
  708MOL0     H95520   8.430   2.940   9.426 -0.3654 -0.2223  0.3579
  708MOL0     H95521   8.399   2.944   9.669  1.4844  0.2918  1.4206
  708MOL0     H95522   8.466   3.104   9.675 -2.3950  0.9648  0.3445
  708MOL0     H95523   8.234   3.019   9.491  1.4862  0.7203 -0.3628
  708MOL0     H95524   8.218   3.106   9.645 -0.4246  2.9801 -1.5333
  708MOL0     H95525   8.363   3.300   9.545  1.8278  0.3057 -0.4008
  708MOL0     H95526   8.334   3.214   9.389  0.2119 -1.1764  0.0778
  708MOL0     H95527   8.094   3.249   9.404 -2.2862  1.6285  0.2001
  708MOL0     H95528   8.111   3.291   9.571  1.5841  3.8579  1.3959
  708MOL0     H95529   8.258   3.509   9.477 -0.7055  0.2980 -0.7016
  708MOL0     H95530   8.077   3.495   9.476 -1.6880 -2.0840 -0.5408
  708MOL0     H95531   7.979   3.544   9.221  1.0167  1.9859 -0.0889
  708MOL0     H95532   8.158   3.500   8.885 -0.8961 -0.7772  0.3860
  708MOL0     H95533   7.990   3.472   8.945 -2.8660  3.5711 -2.4730
  708MOL0     H95534   8.134   3.740   8.950  1.0676 -1.6220 -1.4342
  708MOL0     H95535   7.989   3.710   9.042  0.1671 -1.5628  1.4620
  708MOL0     H95536   7.877   3.666   8.821 -0.0347 -0.0574 -1.7793
  708MOL0     H95537   8.033   3.682   8.736  1.2534  3.3306 -1.2081
  708MOL0     H95538   8.067   3.899   8.795  0.4141 -1.7858 -2.3186
  708MOL0     H95539   7.924   3.914   8.891 -0.7489  1.0870 -1.3673
  708MOL0     H95540   7.790   3.771   8.482 -1.6138 -1.0565 -0.7788
  708MOL0     H95541   7.634   3.706   8.348  1.4714  1.6449  1.2108
  708MOL0     H95542   7.456   3.702   8.396 -2.5552  1.7243  3.3343
  708MOL0     H95543   7.531   3.845   8.323  0.0191 -1.9038 -2.2486
  708MOL0     H95544   7.204   4.059   8.850 -0.3907 -1.2373  2.3153
  708MOL0     H95545   6.956   4.114   8.900 -1.8192 -1.8751  1.5526
  708MOL0     H95546   6.813   3.952   9.009 -0.5417 -1.3681 -0.2103
  708MOL0     H95547   6.685   4.057   8.988  0.9831 -0.6416  1.4305
  708MOL0     H95548   6.679   3.750   8.933  1.0814 -0.5131  0.0979
  708MOL0     H95549   6.602   3.822   9.068  0.2132  1.6788 -0.1520
  708MOL0     H95550   6.520   3.806   8.782 -0.6650 -1.8028  1.2114
  708MOL0     H95551   6.503   3.973   8.851  2.2151 -0.0533 -1.3965
  708MOL0     H95552   6.295   3.821   8.850 -1.4056 -0.8986  1.1723
  708MOL0     H95553   6.356   3.735   8.982 -0.2749  1.0887  0.3510
  708MOL0     H95554   6.363   4.039   9.017  1.7831  0.4957  4.6023
  708MOL0     H95555   6.397   3.915   9.124  0.8865  1.7903 -0.5443
  708MOL0     H95556   6.146   4.037   9.114 -0.5128  0.8408 -0.4773
  708MOL0     H95557   6.114   3.935   8.981 -1.0068 -0.2436  0.1800
  708MOL0     H95558   6.216   3.812   9.250 -1.5327  0.3372  1.4867
  708MOL0     H95559   6.143   3.735   9.110 -0.3945 -0.0223  1.2546
  708MOL0     H95560   6.018   3.933   9.310 -3.5585 -2.5263  2.9402
  708MOL0     H95561   5.981   3.767   9.307 -0.5788 -1.3547 -1.7792
  708MOL0     H95562   6.835   3.783   8.663 -2.3853  0.3720  3.8397
  708MOL0     H95563   7.075   3.737   8.605  0.5590  1.9775 -2.3991
  708MOL0     H95564   7.482   3.965   8.807  0.3252 -0.8349 -0.2626
  708MOL0     H95565   7.719   3.979   8.850 -2.1815 -0.1404  0.6927
  708MOL0     H95566   8.791   2.832   9.935 -1.3431  1.9182 -0.0840
  708MOL0     H95567   8.981   2.789  10.035 -3.2248  0.6133  0.4413
  708MOL0     H95568   9.386   2.576  10.151 -3.5815  2.6515 -0.3935
  708MOL0     H95569   9.651   2.552  10.199  0.9237 -1.0403 -1.8661
  708MOL0     H95570   9.959   2.805   9.997 -0.5605 -2.2347  0.5182
  708MOL0     H95571   9.884   2.898  10.122  0.8008 -0.1110  1.1562
  708MOL0     H95572  10.128   2.813  10.134 -2.4121  1.4929 -3.1481
  708MOL0     H95573  10.060   2.655  10.194  0.7615  0.7933  0.0894
  708MOL0     H95574  10.104   2.796  10.401  1.3501  2.4643  0.6503
  708MOL0     H95575   9.927   2.791  10.374 -1.2131  2.5747 -1.4126
  708MOL0     H95576   9.964   3.023  10.268  0.5757 -0.8453 -1.9356
  708MOL0     H95577  10.135   2.984  10.294 -0.0387 -1.4844 -1.1799
  708MOL0     H95578  10.027   3.082  10.683 -0.6777  0.9527 -0.2062
  708MOL0     H95579   9.708   2.887   9.932 -0.8039 -1.4676 -0.8333
  708MOL0     H95580   9.477   2.912   9.902 -1.4755 -1.1804 -0.0493
  709MOL0     O95581   3.885   6.623   5.489  0.8054 -0.0157  0.2929
  709MOL0     C95582   3.870   6.740   5.454  0.6909 -0.8261 -0.2190
  709MOL0     O95583   3.752   6.814   5.480 -0.5218 -0.0167  0.3822
  709MOL0     C95584   3.652   6.746   5.550  0.5231 -0.0573  0.5153
  709MOL0     C95585   3.648   6.743   5.686  0.2084 -0.1436 -0.3349
  709MOL0     C95586   3.537   6.692   5.748  0.3649 -0.7953 -0.7622
  709MOL0     C95587   3.434   6.630   5.678 -0.5295  0.2668  1.2947
  709MOL0     O95588   3.326   6.573   5.741 -0.5881 -0.0693 -0.8502
  709MOL0     C95589   3.350   6.512   5.869 -1.2454 -0.5104 -0.2502
  709MOL0     C95590   3.241   6.411   5.881  0.5156 -0.0534 -1.4134
  709MOL0     C95591   3.260   6.318   6.006 -0.4198 -0.0940  0.6337
  709MOL0     C95592   3.134   6.260   6.059  0.3072  0.7730 -0.4344
  709MOL0     C95593   3.158   6.160   6.172  0.3342  0.3804 -1.2702
  709MOL0     C95594   3.092   6.019   6.128 -0.3658 -0.9782  0.7775
  709MOL0     C95595   3.087   5.934   6.250 -0.2851  0.4396  0.5412
  709MOL0     C95596   3.004   5.806   6.231  0.2255  0.1040  0.8588
  709MOL0     N95597   2.856   5.827   6.203  0.3908  0.3025  0.1059
  709MOL0     C95598   2.766   5.881   6.293  0.9215 -0.2494 -0.3958
  709MOL0     C95599   2.640   5.860   6.242 -0.8224  0.4319 -0.0583
  709MOL0     C95600   2.509   5.877   6.307  0.3862  0.4310 -0.2112
  709MOL0     C95601   2.408   5.758   6.291 -0.0942  0.1821  0.2087
  709MOL0     C95602   2.468   5.613   6.334 -0.2758  0.3522  0.2095
  709MOL0     C95603   2.535   5.615   6.470  0.0198  0.3083  0.6783
  709MOL0     O95604   2.460   5.674   6.572 -0.0908 -0.3312  0.2402
  709MOL0     C95605   2.333   5.629   6.601  0.3168 -0.9817  0.4713
  709MOL0     C95606   2.279   5.505   6.579 -0.1696 -0.0954 -0.3128
  709MOL0     C95607   2.142   5.484   6.589  0.4363 -0.1866  0.1810
  709MOL0     C95608   2.113   5.341   6.566  0.5815 -0.5713 -0.6104
  709MOL0     C95609   2.050   5.591   6.622 -0.7297  0.6564  0.1672
  709MOL0     C95610   1.909   5.573   6.643 -0.2647  0.4133 -1.2715
  709MOL0     O95611   1.826   5.683   6.647 -0.4592  0.4112  0.1462
  709MOL0     C95612   1.697   5.663   6.674  0.5933 -0.7546  0.2368
  709MOL0     C95613   1.615   5.568   6.612 -0.1638  0.5808 -0.2204
  709MOL0     C95614   1.482   5.554   6.652  0.0910 -0.3383 -0.1571
  709MOL0     C95615   1.430   5.627   6.754 -0.0828 -0.1907  0.1559
  709MOL0     O95616   1.300   5.617   6.800  0.4999  0.0869  0.9642
  709MOL0     C95617   1.228   5.491   6.778  0.3138  0.4603 -0.2377
  709MOL0     C95618   1.105   5.485   6.854  0.2839 -0.6741 -0.5520
  709MOL0     C95619   0.982   5.539   6.777  0.6596 -0.7043 -0.4862
  709MOL0     C95620   0.870   5.554   6.875 -0.3985 -0.3548  0.6375
  709MOL0     C95621   0.731   5.612   6.814  0.2031 -0.0940 -0.4852
  709MOL0     C95622   0.679   5.528   6.701 -0.1477  0.1991  0.5059
  709MOL0     C95623   0.551   5.585   6.635  0.3399  0.0869 -0.4708
  709MOL0     C95624   0.430   5.608   6.730  0.0110 -0.8164 -0.0518
  709MOL0    Cl95625   0.392   5.466   6.828 -0.2590  0.1034 -0.1625
  709MOL0     C95626   1.508   5.732   6.809  0.7330  0.4730  0.6061
  709MOL0     C95627   1.636   5.747   6.773 -0.1866 -0.1139  0.3903
  709MOL0     O95628   1.871   5.464   6.687 -0.0378  0.1955  0.0003
  709MOL0     C95629   2.105   5.715   6.622 -0.2109 -0.2063 -0.1001
  709MOL0     C95630   2.242   5.734   6.619 -0.4005  0.0235  0.0501
  709MOL0     N95631   2.657   5.815   6.114 -0.7594 -0.5272 -0.0118
  709MOL0     N95632   2.777   5.802   6.095 -0.1963 -0.0918 -0.0255
  709MOL0     C95633   3.440   6.629   5.536  0.5013 -0.2447  0.4261
  709MOL0     C95634   3.553   6.681   5.473  0.7514  0.3233 -0.4268
  709MOL0     C95635   3.987   6.801   5.383  0.6615  0.1967 -0.9596
  709MOL0     C95636   4.102   6.732   5.346  0.9342 -0.5734  0.2904
  709MOL0     C95637   4.189   6.785   5.250 -1.0307 -0.3677 -0.8935
  709MOL0     C95638   4.173   6.913   5.197  0.3696  0.8723  0.4818
  709MOL0     O95639   4.252   6.981   5.117 -0.4275 -0.0827  0.4543
  709MOL0     C95640   4.392   6.962   5.128  0.5610  0.2528  0.6600
  709MOL0     C95641   4.456   7.014   5.263  0.3038  0.2303 -0.1138
  709MOL0     C95642   4.608   6.988   5.277  0.2461  0.1234  0.0517
  709MOL0     C95643   4.654   6.974   5.422 -0.0200 -0.5976 -0.1164
  709MOL0     C95644   4.795   6.923   5.425  0.4011 -0.4371  0.4067
  709MOL0     C95645   4.906   6.872   5.417  0.3475  0.5815 -0.5172
  709MOL0     C95646   4.054   6.975   5.234  0.6240  0.2189 -0.6767
  709MOL0     C95647   3.957   6.919   5.321 -0.5941 -0.6417 -0.3369
  709MOL0     H95648   3.728   6.781   5.750 -0.8046  0.4816  0.5893
  709MOL0     H95649   3.526   6.686   5.855  0.1581 -0.5138 -0.7670
  709MOL0     H95650   3.445   6.458   5.866 -1.5543 -1.0608 -0.2620
  709MOL0     H95651   3.364   6.585   5.950  1.8076 -0.2407 -0.8952
  709MOL0     H95652   3.143   6.460   5.888  0.4550 -0.0100 -2.4119
  709MOL0     H95653   3.244   6.354   5.788 -3.4324  0.2476 -1.8852
  709MOL0     H95654   3.328   6.236   5.985 -4.3714 -2.9556 -2.7033
  709MOL0     H95655   3.288   6.385   6.088  0.7375  0.0175  0.1648
  709MOL0     H95656   3.068   6.340   6.094 -0.6452 -0.9167  1.8393
  709MOL0     H95657   3.078   6.211   5.980 -0.4710  1.6500 -0.4444
  709MOL0     H95658   3.264   6.146   6.193  0.0627 -1.8903 -1.1198
  709MOL0     H95659   3.110   6.210   6.257 -1.6658 -2.3730 -0.6257
  709MOL0     H95660   2.994   6.041   6.086  0.4219 -4.0798 -3.3490
  709MOL0     H95661   3.153   5.975   6.048 -0.7611 -0.4722  0.1869
  709MOL0     H95662   3.183   5.909   6.295  0.0630 -2.2756 -1.4587
  709MOL0     H95663   3.030   5.984   6.328 -1.5231 -0.1579  0.0525
  709MOL0     H95664   3.015   5.745   6.321 -1.2727  0.2018  1.1345
  709MOL0     H95665   3.045   5.759   6.141  0.4340  0.6204  0.6811
  709MOL0     H95666   2.782   5.920   6.393 -1.0267  0.6220 -0.3799
  709MOL0     H95667   2.518   5.902   6.413 -1.3964 -2.0425  0.6187
  709MOL0     H95668   2.476   5.963   6.248  3.0212  1.8730  0.2493
  709MOL0     H95669   2.389   5.764   6.183  0.2190 -0.2867  0.1236
  709MOL0     H95670   2.317   5.774   6.349  0.4904  1.2800  0.8448
  709MOL0     H95671   2.546   5.589   6.261  1.1500  1.3221  1.3933
  709MOL0     H95672   2.386   5.540   6.327 -0.0890 -0.0361  1.7831
  709MOL0     H95673   2.633   5.662   6.465  1.2220 -2.0797  0.8065
  709MOL0     H95674   2.552   5.508   6.484 -0.5551  0.1073 -0.0846
  709MOL0     H95675   2.345   5.423   6.553  1.1873  0.2247  1.8621
  709MOL0     H95676   2.014   5.315   6.527  1.8246 -2.3842 -2.7852
  709MOL0     H95677   2.184   5.301   6.493  0.2245  3.0746 -3.2180
  709MOL0     H95678   2.138   5.286   6.658  0.1965 -2.1389 -1.4164
  709MOL0     H95679   1.653   5.519   6.522 -0.9548 -2.5555  1.0089
  709MOL0     H95680   1.413   5.492   6.596  0.6362  0.2885 -1.5798
  709MOL0     H95681   1.206   5.495   6.671  2.1322  0.9642 -0.6347
  709MOL0     H95682   1.304   5.417   6.808 -0.5702 -0.4481 -0.1690
  709MOL0     H95683   1.066   5.385   6.876 -4.4637  0.6176 -1.7591
  709MOL0     H95684   1.119   5.548   6.943  3.1221  1.2815 -2.2400
  709MOL0     H95685   0.950   5.459   6.710  0.1952  0.6074 -1.8961
  709MOL0     H95686   1.007   5.633   6.727  0.1785 -0.5239 -0.3852
  709MOL0     H95687   0.850   5.450   6.903  2.3336 -0.9113  0.7136
  709MOL0     H95688   0.909   5.606   6.963  2.8394 -1.9732  0.3130
  709MOL0     H95689   0.753   5.713   6.776 -1.3887  0.2338 -0.5858
  709MOL0     H95690   0.664   5.630   6.898  2.9298  0.1119  1.7821
  709MOL0     H95691   0.755   5.537   6.622 -0.3211  1.0372  0.4213
  709MOL0     H95692   0.648   5.428   6.732 -0.7210  0.1430 -0.2010
  709MOL0     H95693   0.507   5.523   6.556  2.7592 -3.3946  0.6404
  709MOL0     H95694   0.574   5.681   6.588 -2.0485  1.5115  1.1453
  709MOL0     H95695   0.352   5.643   6.662 -0.6662  2.0561  2.0095
  709MOL0     H95696   0.437   5.691   6.802 -1.8080  0.1123 -0.8916
  709MOL0     H95697   1.457   5.783   6.890 -3.7136  0.3514 -1.8310
  709MOL0     H95698   1.692   5.829   6.815  0.5120 -0.4358  0.0939
  709MOL0     H95699   2.047   5.806   6.631  0.7295  0.5313 -1.1610
  709MOL0     H95700   2.297   5.828   6.619 -2.0324  1.0349 -0.9920
  709MOL0     H95701   3.366   6.583   5.472  0.7505  0.3127 -0.2668
  709MOL0     H95702   3.560   6.673   5.365 -0.3892 -3.7320 -0.3476
  709MOL0     H95703   4.114   6.633   5.388  0.9099 -0.0356  1.6205
  709MOL0     H95704   4.274   6.721   5.235  0.3038  0.4505  2.3268
  709MOL0     H95705   4.398   6.853   5.133 -2.0590  0.0414  0.2816
  709MOL0     H95706   4.451   6.983   5.038 -0.4343  0.8245  0.1272
  709MOL0     H95707   4.414   6.955   5.345  2.6204  1.7713  2.3519
  709MOL0     H95708   4.426   7.117   5.281  0.3844  0.2157  0.1081
  709MOL0     H95709   4.675   7.060   5.230  1.1526  0.5561  1.9132
  709MOL0     H95710   4.622   6.890   5.229 -0.0365 -0.9883  2.0886
  709MOL0     H95711   4.588   6.910   5.481 -0.3655  0.6953  0.9412
  709MOL0     H95712   4.658   7.071   5.473  0.4814 -0.6330 -0.0748
  709MOL0     H95713   5.001   6.824   5.430  0.9049  1.3554 -1.5597
  709MOL0     H95714   4.028   7.076   5.203 -1.0568  0.6936  1.9541
  709MOL0     H95715   3.867   6.973   5.346 -1.5185 -2.5273  0.6133
  710MOL0     O95716  10.587   2.536   3.189  0.0445 -0.4643 -0.0873
  710MOL0     C95717  10.685   2.462   3.205  0.1613  0.4007  0.3054
  710MOL0     O95718  10.739   2.375   3.113 -0.0678  0.0008  0.3594
  710MOL0     C95719  10.670   2.372   2.991 -0.5992 -0.3459  0.6570
  710MOL0     C95720  10.583   2.271   2.975  0.6347 -0.3484  0.3271
  710MOL0     C95721  10.519   2.254   2.851  0.5453 -0.0138 -0.0960
  710MOL0     C95722  10.525   2.353   2.749  0.9326 -0.0827 -0.4219
  710MOL0     O95723  10.448   2.349   2.636 -0.5364 -0.0014 -0.6965
  710MOL0     C95724  10.352   2.253   2.616  0.0035  0.6994  0.0079
  710MOL0     C95725  10.247   2.314   2.526  0.2348  0.9492  0.0955
  710MOL0     C95726  10.108   2.247   2.546 -1.0170  0.5486  0.3483
  710MOL0     C95727  10.110   2.101   2.498  0.1798 -0.0014  0.4394
  710MOL0     C95728   9.975   2.031   2.508 -0.1702 -0.5246 -0.1856
  710MOL0     C95729   9.965   1.915   2.413 -0.4129  0.9363 -1.3160
  710MOL0     C95730   9.826   1.853   2.404 -0.4162 -0.0954 -0.4760
  710MOL0     C95731   9.753   1.923   2.288  1.0371  0.8314 -0.2437
  710MOL0     N95732   9.615   1.857   2.276 -0.1561  0.3744  0.5585
  710MOL0     C95733   9.522   1.862   2.377  0.3137  0.5453 -1.2003
  710MOL0     C95734   9.428   1.775   2.330 -0.1923  0.3145 -0.1884
  710MOL0     C95735   9.301   1.748   2.404  0.2157  0.0065  0.8614
  710MOL0     C95736   9.179   1.748   2.308 -0.6716  0.5597  0.3659
  710MOL0     C95737   9.142   1.887   2.254 -0.6109 -0.8393 -0.6049
  710MOL0     C95738   8.997   1.884   2.203 -0.6220 -0.4758 -0.6859
  710MOL0     O95739   8.974   1.788   2.099 -0.6279 -0.3049  0.0155
  710MOL0     C95740   8.853   1.764   2.041  0.1989  0.8982 -0.0045
  710MOL0     C95741   8.762   1.871   2.025  0.2407 -1.0006  0.3056
  710MOL0     C95742   8.632   1.850   1.971 -0.4772  0.4534  0.4991
  710MOL0     C95743   8.549   1.982   1.946  0.6083 -0.4215  0.9917
  710MOL0     C95744   8.586   1.717   1.944 -1.1687  0.6035 -0.1372
  710MOL0     C95745   8.449   1.671   1.908 -0.7951 -0.5119 -0.3368
  710MOL0     O95746   8.439   1.572   1.820 -0.0737 -0.3050  0.4342
  710MOL0     C95747   8.311   1.524   1.797  0.0159  0.3890 -0.0994
  710MOL0     C95748   8.280   1.508   1.660 -0.4426 -0.3394 -0.2631
  710MOL0     C95749   8.166   1.444   1.607 -0.9374 -0.1473 -0.0667
  710MOL0     C95750   8.067   1.412   1.703 -0.0426  0.2841 -0.2930
  710MOL0     O95751   7.938   1.381   1.678 -0.1497  0.2692  0.6692
  710MOL0     C95752   7.895   1.301   1.564 -0.1069  0.1146 -0.0312
  710MOL0     C95753   7.935   1.148   1.586  0.4823 -0.4865 -0.0207
  710MOL0     C95754   7.850   1.058   1.484 -0.5362  0.2118 -1.2440
  710MOL0     C95755   7.879   0.906   1.498 -1.0913 -0.9886  0.2808
  710MOL0     C95756   7.763   0.832   1.418  0.6618 -0.5068  0.1986
  710MOL0     C95757   7.777   0.683   1.424 -0.1585 -0.9640  0.0643
  710MOL0     C95758   7.715   0.594   1.315  0.0047 -0.1420 -0.4462
  710MOL0     C95759   7.672   0.452   1.374 -0.0237 -1.3809  0.6137
  710MOL0    Cl95760   7.599   0.362   1.237 -0.3328 -0.2562 -0.0329
  710MOL0     C95761   8.091   1.436   1.836 -0.7168  0.1709  0.2080
  710MOL0     C95762   8.213   1.491   1.880  0.1640 -0.5379 -0.2925
  710MOL0     O95763   8.360   1.732   1.962  1.0348 -0.3429 -0.1779
  710MOL0     C95764   8.685   1.609   1.949  0.1544  0.3369  0.0754
  710MOL0     C95765   8.811   1.636   1.999 -0.5104 -0.0831 -0.3133
  710MOL0     N95766   9.462   1.724   2.217  0.2375  0.5096 -0.2681
  710MOL0     N95767   9.576   1.767   2.183  0.8807 -0.2247  0.2948
  710MOL0     C95768  10.607   2.460   2.780 -0.3068 -0.5399  0.0080
  710MOL0     C95769  10.686   2.475   2.899 -0.3716 -0.1909  0.1705
  710MOL0     C95770  10.748   2.467   3.339 -0.3729  0.4325  0.2044
  710MOL0     C95771  10.839   2.365   3.380  0.8623 -0.3223  0.8454
  710MOL0     C95772  10.905   2.365   3.504 -1.1008  0.3534 -0.0506
  710MOL0     C95773  10.886   2.471   3.591 -0.2145  0.1102  0.1853
  710MOL0     O95774  10.947   2.462   3.712  0.2365 -0.3517 -0.0548
  710MOL0     C95775  11.080   2.518   3.716 -0.0244 -0.1239 -0.3529
  710MOL0     C95776  11.095   2.667   3.694  0.7394  0.4844  1.2760
  710MOL0     C95777  11.249   2.710   3.694  0.6825  1.2050  0.6088
  710MOL0     C95778  11.265   2.852   3.646 -0.8171 -0.6709  0.3425
  710MOL0     C95779  11.248   2.950   3.754 -1.2646  0.6384 -0.1947
  710MOL0     C95780  11.249   3.021   3.853  0.0098 -0.3049 -0.0743
  710MOL0     C95781  10.788   2.564   3.560 -0.4878 -0.3759 -0.5046
  710MOL0     C95782  10.730   2.565   3.436 -0.1715  1.0668  0.8971
  710MOL0     H95783  10.578   2.193   3.051  2.0357 -0.3798  0.4270
  710MOL0     H95784  10.459   2.163   2.846  1.6806 -0.7171 -1.5008
  710MOL0     H95785  10.400   2.176   2.555 -2.6571 -0.0638 -1.2820
  710MOL0     H95786  10.311   2.200   2.702  0.2820  1.2952  0.5170
  710MOL0     H95787  10.239   2.419   2.555  0.2842  0.6975  1.0628
  710MOL0     H95788  10.285   2.306   2.424 -2.4075 -3.0312 -0.7802
  710MOL0     H95789  10.088   2.258   2.653 -0.1299  0.0105  0.5766
  710MOL0     H95790  10.036   2.303   2.487 -1.4542 -0.7788 -0.4023
  710MOL0     H95791  10.163   2.089   2.402 -1.5779  0.3435 -0.6147
  710MOL0     H95792  10.183   2.055   2.566  0.0547 -0.0477  0.5422
  710MOL0     H95793   9.962   2.001   2.612 -2.0149 -0.3942 -0.3533
  710MOL0     H95794   9.893   2.101   2.489 -1.6188 -1.8146  1.0450
  710MOL0     H95795  10.000   1.936   2.311  0.3219 -0.4880 -1.3735
  710MOL0     H95796  10.034   1.839   2.451 -1.1027  1.0156  0.1421
  710MOL0     H95797   9.844   1.748   2.380  0.9597  0.1057 -0.3945
  710MOL0     H95798   9.770   1.858   2.497 -3.7971  0.9437 -2.3776
  710MOL0     H95799   9.812   1.922   2.196  0.9009 -4.9343 -0.5937
  710MOL0     H95800   9.738   2.025   2.327 -0.5387  0.0770  1.2599
  710MOL0     H95801   9.513   1.904   2.477 -2.0625 -0.6889 -0.8178
  710MOL0     H95802   9.287   1.653   2.458 -1.3879  1.0389  2.3828
  710MOL0     H95803   9.285   1.825   2.479  1.6522 -1.0209  2.2787
  710MOL0     H95804   9.104   1.704   2.375 -0.9333  0.9088  0.3013
  710MOL0     H95805   9.193   1.681   2.223 -0.0685  0.5488  0.4700
  710MOL0     H95806   9.212   1.913   2.175 -2.6170  1.2460 -1.8086
  710MOL0     H95807   9.154   1.961   2.333 -0.1166 -0.9978 -0.5278
  710MOL0     H95808   8.972   1.987   2.173 -4.1960 -0.2742  2.3479
  710MOL0     H95809   8.941   1.863   2.294  0.9505 -1.2469  0.1408
  710MOL0     H95810   8.778   1.973   2.058 -2.4839  1.3109 -4.3968
  710MOL0     H95811   8.608   2.064   1.987 -1.2310  0.8254  1.2934
  710MOL0     H95812   8.544   2.007   1.839  0.3058 -0.8490  0.9031
  710MOL0     H95813   8.449   1.995   1.990  0.2839  1.3434 -0.1363
  710MOL0     H95814   8.352   1.552   1.592  2.2002 -2.6154  0.8730
  710MOL0     H95815   8.150   1.432   1.500  0.7628  0.7101 -0.4395
  710MOL0     H95816   7.786   1.309   1.558 -0.2394 -1.2462  0.2174
  710MOL0     H95817   7.947   1.334   1.474  1.0676  1.0986  0.9662
  710MOL0     H95818   8.040   1.125   1.567  0.3651 -2.5893  1.5410
  710MOL0     H95819   7.920   1.126   1.692  1.7867  3.1339  1.0792
  710MOL0     H95820   7.867   1.097   1.383  0.3149 -1.3724 -1.7465
  710MOL0     H95821   7.746   1.068   1.516  0.1164  0.2307  1.0830
  710MOL0     H95822   7.974   0.880   1.451  1.2639  1.5653  3.2218
  710MOL0     H95823   7.886   0.870   1.601 -0.4264  0.1930  0.6780
  710MOL0     H95824   7.767   0.872   1.316  2.1358  1.9926  1.1559
  710MOL0     H95825   7.669   0.871   1.456 -0.0117  0.2772 -2.1046
  710MOL0     H95826   7.877   0.642   1.443 -0.5937 -1.9056  0.3589
  710MOL0     H95827   7.726   0.663   1.519  0.1810 -1.8012  0.0765
  710MOL0     H95828   7.787   0.564   1.238  1.1876 -0.2233  0.6601
  710MOL0     H95829   7.637   0.648   1.260  0.5686  1.4538  0.2618
  710MOL0     H95830   7.600   0.459   1.456  0.2792  2.0179  0.7495
  710MOL0     H95831   7.755   0.396   1.419 -0.3389 -1.7275  0.7660
  710MOL0     H95832   8.016   1.420   1.913 -0.4408  0.8596  0.6311
  710MOL0     H95833   8.217   1.503   1.987 -0.4371 -1.1985 -0.1859
  710MOL0     H95834   8.671   1.504   1.928 -0.2985 -0.7036  4.5938
  710MOL0     H95835   8.873   1.551   2.024 -1.5455 -0.3955  1.3259
  710MOL0     H95836  10.607   2.535   2.702 -0.5498  0.4778  0.9776
  710MOL0     H95837  10.743   2.562   2.930 -0.5802 -0.7711  2.3685
  710MOL0     H95838  10.871   2.289   3.309 -0.2371  0.8074 -0.9488
  710MOL0     H95839  10.991   2.299   3.512 -0.2104  1.4790 -0.0044
  710MOL0     H95840  11.117   2.498   3.817 -1.4384  0.2509  0.2703
  710MOL0     H95841  11.151   2.461   3.655 -0.1831  0.9311 -1.5617
  710MOL0     H95842  11.043   2.723   3.773 -0.2486  2.0755 -0.4470
  710MOL0     H95843  11.037   2.695   3.606 -1.3214 -1.6360  1.8477
  710MOL0     H95844  11.305   2.641   3.630 -2.1265 -2.0265  1.3423
  710MOL0     H95845  11.295   2.702   3.792  0.7079 -2.6067  0.4422
  710MOL0     H95846  11.212   2.873   3.553 -0.4118  2.7582  0.7333
  710MOL0     H95847  11.372   2.861   3.624 -0.9439 -0.9094 -0.3720
  710MOL0     H95848  11.253   3.075   3.945  0.0500 -1.1321  0.4213
  710MOL0     H95849  10.777   2.652   3.624 -0.7685 -1.4561  0.9756
  710MOL0     H95850  10.667   2.651   3.413 -1.4458  0.4307  1.9174
  711MOL0     O95851   4.731  11.160   5.360  0.1748 -0.9749 -0.6496
  711MOL0     C95852   4.768  11.183   5.244  0.6257 -0.2624  0.2941
  711MOL0     O95853   4.683  11.189   5.130 -0.0053 -0.1581 -0.0062
  711MOL0     C95854   4.546  11.189   5.149 -0.5831  0.1763  0.6497
  711MOL0     C95855   4.484  11.116   5.056  0.1604 -0.4249  0.8565
  711MOL0     C95856   4.348  11.129   5.050  0.3079 -0.7378 -0.0504
  711MOL0     C95857   4.279  11.223   5.129  0.3779 -0.4234  0.0764
  711MOL0     O95858   4.143  11.249   5.139  0.0056 -0.2280 -0.3191
  711MOL0     C95859   4.058  11.205   5.031 -0.7586  0.5092 -0.0210
  711MOL0     C95860   3.913  11.224   5.062 -0.1475 -0.2141  0.5913
  711MOL0     C95861   3.832  11.227   4.930  0.1574  0.0712  0.0837
  711MOL0     C95862   3.686  11.239   4.972 -1.1445  0.0873 -0.3835
  711MOL0     C95863   3.590  11.196   4.862 -1.0190 -0.0934 -0.0013
  711MOL0     C95864   3.598  11.296   4.742 -0.3670 -0.1820 -0.1298
  711MOL0     C95865   3.507  11.249   4.626  0.7495 -0.5375 -0.1376
  711MOL0     C95866   3.349  11.258   4.648  0.5750  1.3168 -0.1461
  711MOL0     N95867   3.273  11.157   4.558  1.2018  0.3503 -0.6185
  711MOL0     C95868   3.256  11.030   4.578 -1.4318  0.0419 -0.4794
  711MOL0     C95869   3.185  10.979   4.483  0.9031 -0.1226 -0.2220
  711MOL0     C95870   3.142  10.835   4.456 -0.1893 -0.4870 -0.5036
  711MOL0     C95871   2.996  10.811   4.401 -0.7711  0.6236 -0.2633
  711MOL0     C95872   2.975  10.669   4.340  0.0088 -0.0830  0.2334
  711MOL0     C95873   2.838  10.642   4.291  0.5515 -1.1917 -0.2809
  711MOL0     O95874   2.742  10.639   4.397  0.3692  0.2142 -0.5629
  711MOL0     C95875   2.681  10.522   4.428  0.1212  0.4462 -0.0669
  711MOL0     C95876   2.760  10.407   4.467  0.9905 -0.6932 -0.2159
  711MOL0     C95877   2.696  10.292   4.506  0.6429  0.6589  0.1169
  711MOL0     C95878   2.785  10.171   4.546 -0.3618 -0.1180 -0.1108
  711MOL0     C95879   2.553  10.281   4.487  0.3268 -0.0543 -0.0258
  711MOL0     C95880   2.478  10.156   4.489 -0.3846 -0.5545 -0.8693
  711MOL0     O95881   2.339  10.164   4.518  0.5787 -0.1992 -0.3482
  711MOL0     C95882   2.262  10.057   4.505 -1.0969 -0.7030 -0.3105
  711MOL0     C95883   2.297   9.929   4.554  0.4624  0.0769 -0.0910
  711MOL0     C95884   2.208   9.823   4.539 -0.0812  0.0979 -0.3926
  711MOL0     C95885   2.086   9.833   4.477 -0.6955 -0.9119 -0.2155
  711MOL0     O95886   2.010   9.728   4.457 -0.7160 -0.4280  0.5786
  711MOL0     C95887   1.867   9.740   4.466 -0.3706  0.2156  0.2022
  711MOL0     C95888   1.828   9.634   4.570 -0.6896  0.3678  0.0941
  711MOL0     C95889   1.677   9.631   4.608 -0.1462 -0.6787  0.2184
  711MOL0     C95890   1.641   9.521   4.707 -0.2894  0.4836  0.3710
  711MOL0     C95891   1.497   9.527   4.741 -0.5800 -0.1922 -0.4404
  711MOL0     C95892   1.438   9.391   4.798 -0.1899 -0.5170 -0.6662
  711MOL0     C95893   1.285   9.392   4.832  0.3228  0.1514 -0.1465
  711MOL0     C95894   1.194   9.411   4.710  0.1947  0.2119 -0.4660
  711MOL0    Cl95895   1.021   9.423   4.779  0.0535  0.2886 -0.6305
  711MOL0     C95896   2.046   9.960   4.433  0.6430  0.5683  0.0967
  711MOL0     C95897   2.130  10.070   4.459 -1.3004 -0.3319  0.8329
  711MOL0     O95898   2.540  10.054   4.484  0.5866 -0.1339 -0.1784
  711MOL0     C95899   2.483  10.390   4.445  0.4534  0.9670 -0.0892
  711MOL0     C95900   2.543  10.513   4.426  0.4049 -0.4265  0.3250
  711MOL0     N95901   3.153  11.091   4.405  0.2273  0.1309  0.2743
  711MOL0     N95902   3.197  11.200   4.455  0.2242 -0.1871  0.2656
  711MOL0     C95903   4.343  11.286   5.228 -0.4572 -0.4571 -0.8059
  711MOL0     C95904   4.483  11.268   5.237 -0.3226  0.1803  0.4763
  711MOL0     C95905   4.912  11.220   5.222 -0.7647  0.2980 -0.2453
  711MOL0     C95906   4.997  11.223   5.336 -0.0058  0.1825  0.2721
  711MOL0     C95907   5.130  11.261   5.322  0.4343 -0.0372  0.1712
  711MOL0     C95908   5.190  11.282   5.198  0.3395  0.3394 -0.7923
  711MOL0     O95909   5.321  11.300   5.185  0.6981  0.1517 -0.1330
  711MOL0     C95910   5.413  11.281   5.293 -0.1079 -0.5248  0.2412
  711MOL0     C95911   5.567  11.285   5.240 -0.3656 -0.1341 -0.7060
  711MOL0     C95912   5.591  11.427   5.185 -0.6543 -0.1645 -2.0877
  711MOL0     C95913   5.730  11.495   5.231  0.6171 -0.8638  0.0539
  711MOL0     C95914   5.710  11.640   5.215 -0.5123 -0.7005 -0.5537
  711MOL0     C95915   5.706  11.756   5.205 -0.2742  0.2379 -0.7571
  711MOL0     C95916   5.114  11.257   5.089 -0.6448  0.9674 -0.0294
  711MOL0     C95917   4.974  11.237   5.094 -0.2421 -0.1134  0.2503
  711MOL0     H95918   4.543  11.053   4.990 -0.7299  2.1885 -2.7728
  711MOL0     H95919   4.288  11.079   4.975 -0.6247 -1.5735  1.2106
  711MOL0     H95920   4.094  11.274   4.954 -0.0089  0.6877  0.4718
  711MOL0     H95921   4.067  11.098   5.010  0.6202  0.8581 -1.4671
  711MOL0     H95922   3.872  11.148   5.129  0.5824 -1.9897 -0.8940
  711MOL0     H95923   3.904  11.318   5.118 -1.9837 -0.2507  0.4227
  711MOL0     H95924   3.866  11.306   4.864 -0.1120 -1.0137 -1.4115
  711MOL0     H95925   3.852  11.131   4.880  2.2357 -0.0989  1.1418
  711MOL0     H95926   3.663  11.172   5.056 -1.1884 -0.9639 -1.2176
  711MOL0     H95927   3.663  11.341   5.003  0.0314  0.1524  0.3602
  711MOL0     H95928   3.615  11.096   4.824  0.0487 -0.2403  1.0137
  711MOL0     H95929   3.489  11.203   4.902 -0.4169  0.9916  1.4390
  711MOL0     H95930   3.572  11.394   4.782  1.8262 -0.2715  1.7419
  711MOL0     H95931   3.700  11.315   4.708  0.6206 -1.5480  1.8441
  711MOL0     H95932   3.534  11.307   4.537  0.4817  0.9671  0.7335
  711MOL0     H95933   3.531  11.144   4.606  0.8815 -0.3233 -1.1879
  711MOL0     H95934   3.313  11.357   4.619  0.1434  0.7201 -1.7276
  711MOL0     H95935   3.330  11.238   4.754 -0.7536 -0.6653 -0.7143
  711MOL0     H95936   3.302  10.976   4.660  0.5161  1.3748 -0.6144
  711MOL0     H95937   3.222  10.790   4.397  2.1873  1.4568  1.0279
  711MOL0     H95938   3.154  10.773   4.545  0.1740 -0.6748 -0.6816
  711MOL0     H95939   2.977  10.889   4.327  1.3324 -1.6017 -3.4160
  711MOL0     H95940   2.934  10.815   4.491  1.5962 -1.2154  1.5939
  711MOL0     H95941   2.992  10.605   4.427  0.5508 -1.3757 -0.7685
  711MOL0     H95942   3.053  10.655   4.264  0.9435  1.0504  0.9467
  711MOL0     H95943   2.842  10.549   4.234  0.9302 -0.4702 -1.4917
  711MOL0     H95944   2.811  10.712   4.210  2.0457 -0.0348  0.1645
  711MOL0     H95945   2.867  10.406   4.484  0.7064 -0.9781  1.8136
  711MOL0     H95946   2.727  10.108   4.614  0.8701  1.8496  2.9957
  711MOL0     H95947   2.814  10.109   4.461  0.0250  2.7234 -2.2058
  711MOL0     H95948   2.870  10.216   4.597 -1.9609  2.2513  0.6176
  711MOL0     H95949   2.393   9.906   4.599  0.5516  2.1268  0.8859
  711MOL0     H95950   2.243   9.723   4.564  2.2585  0.4923 -1.7644
  711MOL0     H95951   1.819   9.834   4.494  0.3697  1.3483 -2.0894
  711MOL0     H95952   1.811   9.727   4.372  0.0734  3.4785 -0.6049
  711MOL0     H95953   1.843   9.528   4.544 -3.2179 -0.5352  1.8954
  711MOL0     H95954   1.883   9.659   4.660 -1.5669 -0.9837  1.0516
  711MOL0     H95955   1.624   9.615   4.514  1.4235  0.3266 -0.8983
  711MOL0     H95956   1.655   9.732   4.644  0.1956 -0.4208 -0.2826
  711MOL0     H95957   1.658   9.419   4.670 -1.7335  0.8424 -1.4123
  711MOL0     H95958   1.707   9.540   4.792  0.4725 -0.2763 -0.0411
  711MOL0     H95959   1.426   9.553   4.662 -2.0934 -0.7287  0.6915
  711MOL0     H95960   1.477   9.604   4.816 -0.4630 -2.5580  2.2092
  711MOL0     H95961   1.442   9.303   4.733 -2.0301  0.5292 -2.2979
  711MOL0     H95962   1.492   9.371   4.891  0.4005 -2.1387 -1.3151
  711MOL0     H95963   1.264   9.468   4.907  1.9661  1.3487 -0.8407
  711MOL0     H95964   1.266   9.294   4.878  2.9192 -0.1328  0.4557
  711MOL0     H95965   1.209   9.334   4.634  2.5317  2.6497 -2.6881
  711MOL0     H95966   1.225   9.507   4.667 -0.8388  1.3276  1.1834
  711MOL0     H95967   1.951   9.979   4.384  1.5920  2.6726 -1.0967
  711MOL0     H95968   2.080  10.164   4.438 -0.2287 -0.0746 -0.7060
  711MOL0     H95969   2.375  10.386   4.429  0.3753 -1.5025  0.5778
  711MOL0     H95970   2.485  10.602   4.406  1.1764 -0.2009 -1.0097
  711MOL0     H95971   4.299  11.347   5.307  1.5992 -0.0035  0.0379
  711MOL0     H95972   4.541  11.322   5.310  0.7017  0.8860 -0.8144
  711MOL0     H95973   4.952  11.212   5.434 -0.7611  1.4946  0.0950
  711MOL0     H95974   5.181  11.255   5.417  1.7206 -2.6739 -0.5876
  711MOL0     H95975   5.388  11.353   5.372 -1.9624 -1.3507  0.4644
  711MOL0     H95976   5.411  11.181   5.337  1.2923 -1.2627 -1.2859
  711MOL0     H95977   5.597  11.204   5.172  2.3516 -0.3279  0.5604
  711MOL0     H95978   5.632  11.262   5.325  1.6359  4.7979 -0.6177
  711MOL0     H95979   5.513  11.494   5.221 -1.0615 -0.9830 -1.4122
  711MOL0     H95980   5.578  11.415   5.077  0.8386  0.1601 -2.3264
  711MOL0     H95981   5.807  11.465   5.159  0.0738 -2.7133  0.1855
  711MOL0     H95982   5.767  11.469   5.331 -0.7482 -3.2628  0.0176
  711MOL0     H95983   5.715  11.863   5.196  0.7513  0.4991  2.1991
  711MOL0     H95984   5.149  11.241   4.987 -1.0993 -1.9201  0.1753
  711MOL0     H95985   4.908  11.231   5.008  0.2538 -1.0873 -0.0719
  712MOL0     O95986  11.195   6.501   2.791  0.8227 -0.4778 -0.3108
  712MOL0     C95987  11.277   6.434   2.722  0.4760  0.0872 -0.0617
  712MOL0     O95988  11.256   6.318   2.653  0.7718 -0.4555  0.6408
  712MOL0     C95989  11.127   6.276   2.637  0.1411  0.8677  0.1432
  712MOL0     C95990  11.021   6.362   2.582 -0.7573  0.7342 -0.2634
  712MOL0     C95991  10.896   6.319   2.547  0.5912  0.7325 -0.2804
  712MOL0     C95992  10.858   6.183   2.575 -0.6001 -0.3012 -0.1098
  712MOL0     O95993  10.735   6.129   2.555 -0.5887  0.3420  0.2959
  712MOL0     C95994  10.646   6.194   2.472 -0.1581  0.1472 -0.0877
  712MOL0     C95995  10.575   6.296   2.562 -0.0211 -0.1556 -0.1590
  712MOL0     C95996  10.436   6.250   2.616 -0.5281  0.1186 -0.4310
  712MOL0     C95997  10.318   6.252   2.519 -0.5646  0.3075 -0.5058
  712MOL0     C95998  10.187   6.200   2.591 -0.3032  0.1719  1.1073
  712MOL0     C95999  10.066   6.214   2.491 -0.4138 -0.2423 -0.0311
  712MOL0     C96000   9.952   6.116   2.526  1.1023 -0.4583 -0.5715
  712MOL0     C96001   9.855   6.095   2.412  0.5166 -0.4608 -0.3656
  712MOL0     N96002   9.765   5.990   2.452  0.5113 -0.7423  0.0886
  712MOL0     C96003   9.740   5.878   2.381 -0.0395  0.2436  0.0699
  712MOL0     C96004   9.618   5.838   2.423  0.8308  0.6417 -0.2359
  712MOL0     C96005   9.544   5.715   2.386  0.5601  0.2332  0.8506
  712MOL0     C96006   9.459   5.735   2.257  0.0457 -0.2065 -1.3246
  712MOL0     C96007   9.355   5.624   2.247  0.1679 -0.2422  0.0419
  712MOL0     C96008   9.251   5.657   2.140  0.1579  0.1415  0.1456
  712MOL0     O96009   9.173   5.780   2.161 -0.4662  0.0073 -0.2187
  712MOL0     C96010   9.043   5.773   2.118 -0.3302  0.0450 -0.6787
  712MOL0     C96011   8.974   5.889   2.154 -0.1952 -0.3494 -0.5940
  712MOL0     C96012   8.838   5.902   2.133 -0.5197 -0.3399 -0.0054
  712MOL0     C96013   8.770   6.019   2.196  0.6415 -0.4567 -0.2170
  712MOL0     C96014   8.765   5.804   2.062 -0.3117 -0.5618 -0.0431
  712MOL0     C96015   8.624   5.812   2.012 -0.7339 -0.5554 -0.1274
  712MOL0     O96016   8.544   5.706   2.007 -0.2754  0.2476  0.1725
  712MOL0     C96017   8.413   5.733   1.999 -0.2363  0.0243  0.0632
  712MOL0     C96018   8.342   5.703   1.883  0.2046 -0.8331  0.6903
  712MOL0     C96019   8.219   5.755   1.857  1.7440 -0.1881 -0.4824
  712MOL0     C96020   8.141   5.815   1.959  1.3328  0.3421 -0.0910
  712MOL0     O96021   8.013   5.859   1.928 -0.9222  0.0170  0.6237
  712MOL0     C96022   7.987   5.997   1.947  0.5618 -0.4526  0.7414
  712MOL0     C96023   7.841   6.051   1.909 -0.7479  0.4556 -0.2447
  712MOL0     C96024   7.727   5.975   1.967  0.1409 -0.0979 -0.0129
  712MOL0     C96025   7.599   6.001   1.888 -0.8628  0.3446 -0.2473
  712MOL0     C96026   7.482   5.913   1.936  0.2685 -0.0464  1.0872
  712MOL0     C96027   7.399   5.966   2.055  0.3069 -0.2990  0.2846
  712MOL0     C96028   7.276   5.869   2.077 -0.0489  0.5598  0.8903
  712MOL0     C96029   7.196   5.934   2.193  0.1943  0.1560  0.0123
  712MOL0    Cl96030   7.060   5.828   2.230  0.2586  0.6940 -0.2792
  712MOL0     C96031   8.201   5.827   2.085  0.4869  0.1469 -0.5961
  712MOL0     C96032   8.338   5.793   2.095  0.4108 -0.6159 -0.0677
  712MOL0     O96033   8.590   5.926   1.992  0.6170  0.1201 -0.3652
  712MOL0     C96034   8.840   5.693   2.022  0.1176  0.2616  0.4065
  712MOL0     C96035   8.975   5.674   2.058 -0.1278 -0.0540 -0.3729
  712MOL0     N96036   9.582   5.919   2.533 -0.5296 -0.2560 -0.7006
  712MOL0     N96037   9.664   6.017   2.537 -0.2119 -0.2170  0.9929
  712MOL0     C96038  10.960   6.100   2.626 -0.1402  0.6245  0.3340
  712MOL0     C96039  11.088   6.141   2.657  0.2902 -0.9866 -0.2735
  712MOL0     C96040  11.425   6.462   2.749  0.1523  0.2682  0.7391
  712MOL0     C96041  11.470   6.596   2.778 -0.6907 -0.4307 -0.6482
  712MOL0     C96042  11.609   6.634   2.798  0.5269 -0.1286  0.3558
  712MOL0     C96043  11.708   6.536   2.772 -0.6390  0.0979 -0.5008
  712MOL0     O96044  11.840   6.563   2.792  0.2975 -0.8902 -0.5018
  712MOL0     C96045  11.894   6.507   2.922  0.1171  0.4129 -0.1277
  712MOL0     C96046  12.043   6.553   2.924 -0.3462  0.4541  0.3699
  712MOL0     C96047  12.146   6.492   3.019 -0.4140  0.0454  0.0006
  712MOL0     C96048  12.279   6.554   3.009 -0.3823  0.8770  0.2109
  712MOL0     C96049  12.370   6.458   3.083  0.5251 -0.4893 -0.0071
  712MOL0     C96050  12.452   6.381   3.125 -0.0473  0.7661 -0.6351
  712MOL0     C96051  11.661   6.406   2.745 -0.5315 -0.6706  0.3691
  712MOL0     C96052  11.527   6.372   2.727  0.1187 -0.4961  0.5681
  712MOL0     H96053  11.040   6.464   2.551 -2.5133  1.4945  1.0057
  712MOL0     H96054  10.820   6.386   2.507  0.2577  1.1444  0.9881
  712MOL0     H96055  10.695   6.240   2.386 -0.1565 -0.4235 -0.3961
  712MOL0     H96056  10.579   6.119   2.429 -1.0787  1.7468 -1.6078
  712MOL0     H96057  10.629   6.336   2.648 -0.2610  3.7695 -1.6077
  712MOL0     H96058  10.555   6.380   2.495 -1.9797  0.5377  1.1855
  712MOL0     H96059  10.444   6.145   2.645 -0.9727 -1.0314 -4.0199
  712MOL0     H96060  10.413   6.315   2.701  6.8124  2.9157  0.1461
  712MOL0     H96061  10.303   6.358   2.499  1.5655  0.8412  0.3780
  712MOL0     H96062  10.353   6.191   2.435  0.6738 -0.3912  0.4646
  712MOL0     H96063  10.203   6.095   2.619 -2.2153 -0.5690 -0.3629
  712MOL0     H96064  10.179   6.256   2.685  0.3229 -0.1733  1.3802
  712MOL0     H96065  10.036   6.319   2.500  0.2746 -0.1799  2.0998
  712MOL0     H96066  10.106   6.183   2.394 -0.1179  3.4648 -1.2406
  712MOL0     H96067   9.995   6.022   2.561  0.0840 -0.7267 -0.0245
  712MOL0     H96068   9.897   6.142   2.616  0.5719  0.0666 -1.0369
  712MOL0     H96069   9.912   6.062   2.325 -1.0269 -1.6991 -0.9487
  712MOL0     H96070   9.802   6.189   2.392 -0.1430 -0.0625  2.7002
  712MOL0     H96071   9.790   5.829   2.299  1.2393  4.8994 -2.3165
  712MOL0     H96072   9.621   5.641   2.364 -0.7727 -0.3000 -2.8136
  712MOL0     H96073   9.482   5.672   2.465  0.4552 -0.3925  0.4390
  712MOL0     H96074   9.522   5.741   2.168  1.7635 -1.1866 -0.2406
  712MOL0     H96075   9.400   5.825   2.275 -0.6901 -0.8783 -0.2185
  712MOL0     H96076   9.306   5.602   2.342  0.7832 -0.2443  0.3556
  712MOL0     H96077   9.406   5.536   2.208 -1.3132 -0.1109 -2.4582
  712MOL0     H96078   9.192   5.566   2.129  0.5674 -0.1321  0.1942
  712MOL0     H96079   9.309   5.659   2.047  1.9319 -2.7967  1.0633
  712MOL0     H96080   9.025   5.966   2.211  0.2347 -0.6553 -0.5494
  712MOL0     H96081   8.746   6.098   2.123  0.1137 -1.3042 -0.9839
  712MOL0     H96082   8.683   5.987   2.254  2.7369 -0.8750  2.9090
  712MOL0     H96083   8.837   6.064   2.269 -0.8223  1.9861 -0.2510
  712MOL0     H96084   8.395   5.655   1.801  1.6477  1.4183  0.2085
  712MOL0     H96085   8.185   5.727   1.758 -0.9961 -3.1532  1.1307
  712MOL0     H96086   7.999   6.022   2.053  0.7178  0.8105  0.4444
  712MOL0     H96087   8.066   6.045   1.888 -0.3008 -0.0948 -0.1494
  712MOL0     H96088   7.835   6.150   1.955 -3.3529 -0.0935  0.7608
  712MOL0     H96089   7.826   6.054   1.801 -2.8484 -0.4528 -0.0093
  712MOL0     H96090   7.735   5.994   2.075  1.2758 -0.5642  0.0014
  712MOL0     H96091   7.752   5.869   1.956  1.6518  0.3148 -0.7093
  712MOL0     H96092   7.571   6.106   1.897  0.7438  0.6025  3.0268
  712MOL0     H96093   7.612   5.972   1.783  2.6063  1.1571 -0.1801
  712MOL0     H96094   7.521   5.817   1.972 -2.3403 -0.4094  3.2683
  712MOL0     H96095   7.411   5.902   1.854 -1.7735  1.9217  2.4689
  712MOL0     H96096   7.446   5.968   2.154  2.1007 -1.1071 -0.5092
  712MOL0     H96097   7.361   6.068   2.042  1.9649  0.4233  0.8115
  712MOL0     H96098   7.297   5.765   2.102  2.5917  1.0773  1.0704
  712MOL0     H96099   7.215   5.881   1.987 -0.0882  2.2900  1.0984
  712MOL0     H96100   7.155   6.030   2.160 -0.8868 -0.3055 -0.0313
  712MOL0     H96101   7.254   5.956   2.283  0.0254  0.7017 -0.0100
  712MOL0     H96102   8.143   5.872   2.165 -0.6004 -1.2104 -0.5780
  712MOL0     H96103   8.385   5.830   2.185  0.6458  1.7615 -1.0797
  712MOL0     H96104   8.789   5.613   1.970 -2.7619  2.4605 -0.4160
  712MOL0     H96105   9.017   5.579   2.027  2.4337 -0.2070  2.9413
  712MOL0     H96106  10.940   6.003   2.670  0.9765 -1.4274 -3.2038
  712MOL0     H96107  11.164   6.076   2.698  3.5437  2.4020 -0.4095
  712MOL0     H96108  11.398   6.674   2.800 -1.6336 -1.8390  1.5840
  712MOL0     H96109  11.639   6.733   2.830 -1.7926  1.5142 -2.1808
  712MOL0     H96110  11.844   6.547   3.010  2.1367  1.1851  0.7289
  712MOL0     H96111  11.871   6.400   2.921 -2.1124  0.7873  1.9377
  712MOL0     H96112  12.043   6.662   2.931  2.0721  0.6377 -1.3015
  712MOL0     H96113  12.079   6.536   2.822  1.9177  0.0553  1.1954
  712MOL0     H96114  12.147   6.387   2.988  1.9303  0.2133 -0.7289
  712MOL0     H96115  12.122   6.507   3.125  3.6269  5.2270  0.6071
  712MOL0     H96116  12.266   6.657   3.042 -0.4891  0.9203  0.0404
  712MOL0     H96117  12.292   6.551   2.900 -1.6104  4.9618 -0.2084
  712MOL0     H96118  12.519   6.307   3.164  0.3306  0.9753 -0.8855
  712MOL0     H96119  11.738   6.330   2.732 -0.0722  0.1260 -2.1438
  712MOL0     H96120  11.501   6.273   2.691  0.9901  0.1024 -1.9173
  713MOL0     O96121   2.209   0.766   1.844 -0.2814  0.0128  0.1140
  713MOL0     C96122   2.229   0.647   1.878  0.3672  0.1030  0.0818
  713MOL0     O96123   2.136   0.560   1.927  0.3512  0.2153  0.3811
  713MOL0     C96124   2.034   0.616   2.008 -0.1372 -0.1965  1.0134
  713MOL0     C96125   1.940   0.525   2.041  0.8948  0.1231 -0.0341
  713MOL0     C96126   1.839   0.549   2.143 -0.7079  0.1324  1.2446
  713MOL0     C96127   1.841   0.676   2.204  0.9407  0.5952 -0.2460
  713MOL0     O96128   1.755   0.713   2.298 -0.1416  0.2849  0.3008
  713MOL0     C96129   1.656   0.609   2.348  0.1664  0.3229 -0.2927
  713MOL0     C96130   1.557   0.681   2.432 -0.4457 -0.7599  0.5807
  713MOL0     C96131   1.445   0.579   2.466 -0.5641  0.5622 -0.3184
  713MOL0     C96132   1.329   0.658   2.512 -0.3765  0.5103  0.5017
  713MOL0     C96133   1.197   0.584   2.511 -1.2034  0.0632 -0.3461
  713MOL0     C96134   1.086   0.676   2.577  0.3466  0.8211  0.0458
  713MOL0     C96135   0.976   0.576   2.612 -0.5107 -0.0399 -0.5120
  713MOL0     C96136   0.863   0.660   2.655  0.2406 -0.7879 -0.6352
  713MOL0     N96137   0.741   0.587   2.667 -0.3146 -0.7680 -0.3054
  713MOL0     C96138   0.656   0.557   2.558 -0.8621 -0.9637 -0.5553
  713MOL0     C96139   0.555   0.477   2.608 -0.3223 -0.0117 -0.5744
  713MOL0     C96140   0.452   0.387   2.537 -1.0384 -0.2617 -0.2704
  713MOL0     C96141   0.501   0.245   2.539 -1.0468  1.1504  0.5859
  713MOL0     C96142   0.432   0.153   2.445  0.7749  0.7574 -0.3464
  713MOL0     C96143   0.285   0.123   2.483 -0.5070 -0.5997  0.2094
  713MOL0     O96144   0.245   0.021   2.394  0.2802  0.0151  0.6457
  713MOL0     C96145   0.117   0.010   2.363  0.1202 -0.1300 -1.1406
  713MOL0     C96146   0.006   0.057   2.441  0.0024 -0.7505 -0.6153
  713MOL0     C96147  -0.125   0.036   2.420 -0.0539  0.2504 -0.6660
  713MOL0     C96148  -0.232   0.079   2.521  0.5697 -0.4988 -0.0764
  713MOL0     C96149  -0.158  -0.029   2.290  1.0296 -0.1921 -0.3634
  713MOL0     C96150  -0.300  -0.058   2.239  0.8002  0.0262 -0.1524
  713MOL0     O96151  -0.405  -0.009   2.320 -0.1926  0.1454 -0.2305
  713MOL0     C96152  -0.527  -0.050   2.274 -0.2619  0.1391 -0.5904
  713MOL0     C96153  -0.578  -0.171   2.317  0.6946 -0.2446 -0.4732
  713MOL0     C96154  -0.704  -0.219   2.293  0.1571  0.5269 -0.9166
  713MOL0     C96155  -0.787  -0.140   2.225  0.7435  0.0875  0.5505
  713MOL0     O96156  -0.923  -0.159   2.205 -0.0724 -0.6205  0.3200
  713MOL0     C96157  -0.990  -0.272   2.259  0.5746 -0.1012  0.1393
  713MOL0     C96158  -1.117  -0.294   2.172 -0.4262 -0.2351 -0.1495
  713MOL0     C96159  -1.244  -0.224   2.225  0.4794 -0.5714 -0.5125
  713MOL0     C96160  -1.363  -0.242   2.132 -0.2385 -0.5074 -0.5289
  713MOL0     C96161  -1.486  -0.167   2.193  0.2693  0.0566 -0.3784
  713MOL0     C96162  -1.591  -0.173   2.087  0.1739  0.0088  0.5705
  713MOL0     C96163  -1.731  -0.123   2.118 -0.6049  0.6588 -1.0115
  713MOL0     C96164  -1.777  -0.189   2.252 -0.1921  0.0943 -0.9009
  713MOL0    Cl96165  -1.954  -0.175   2.294 -0.1035  0.0782  0.1373
  713MOL0     C96166  -0.743  -0.013   2.175  0.7420  0.1313  0.6385
  713MOL0     C96167  -0.604   0.031   2.193 -0.1100 -0.7669 -1.1664
  713MOL0     O96168  -0.309  -0.116   2.128  0.0494 -0.4699  0.0836
  713MOL0     C96169  -0.048  -0.071   2.213  0.7879 -0.0494  0.2523
  713MOL0     C96170   0.080  -0.060   2.252 -0.8506 -0.0094  0.0849
  713MOL0     N96171   0.582   0.476   2.747 -0.1418  0.0848 -1.2987
  713MOL0     N96172   0.681   0.551   2.786 -0.0835  0.1446  0.2479
  713MOL0     C96173   1.938   0.766   2.175  0.2446  0.3105 -0.1909
  713MOL0     C96174   2.027   0.740   2.070 -1.0315 -0.2626 -0.8711
  713MOL0     C96175   2.362   0.596   1.865  0.2872  0.7230 -0.1773
  713MOL0     C96176   2.461   0.663   1.787  0.1016 -0.6758  0.6861
  713MOL0     C96177   2.591   0.620   1.787  0.1333 -1.1914  0.3933
  713MOL0     C96178   2.631   0.504   1.846 -0.2418 -0.3364 -1.0675
  713MOL0     O96179   2.760   0.463   1.830 -0.3041  0.4286  0.4426
  713MOL0     C96180   2.801   0.328   1.848  1.2651 -0.6132  0.8482
  713MOL0     C96181   2.844   0.317   1.999 -1.0673 -0.7197  0.2279
  713MOL0     C96182   2.869   0.165   2.019 -0.2283 -0.3422  0.5533
  713MOL0     C96183   2.869   0.108   2.163 -0.2452 -0.0479 -0.1016
  713MOL0     C96184   2.746   0.096   2.228 -0.9200 -0.1490 -0.1872
  713MOL0     C96185   2.644   0.096   2.289 -0.1377 -0.4580  0.2521
  713MOL0     C96186   2.534   0.430   1.910  0.2461 -0.0968  0.7341
  713MOL0     C96187   2.401   0.477   1.925 -0.3178 -0.6066 -0.2447
  713MOL0     H96188   1.947   0.426   1.997 -0.0362 -1.1480  2.4607
  713MOL0     H96189   1.780   0.465   2.179  1.3580 -1.2087  1.6939
  713MOL0     H96190   1.589   0.569   2.272 -0.6238 -2.7560  1.7967
  713MOL0     H96191   1.711   0.524   2.390 -0.3762 -0.0894 -0.4011
  713MOL0     H96192   1.600   0.722   2.524  2.1481  3.5183 -2.2480
  713MOL0     H96193   1.523   0.772   2.382  3.1601  1.3792  1.6605
  713MOL0     H96194   1.420   0.511   2.384 -3.6593  0.1266  0.8460
  713MOL0     H96195   1.481   0.529   2.557  0.2511  2.7997  0.6664
  713MOL0     H96196   1.353   0.691   2.614  1.7820 -1.3355  0.6589
  713MOL0     H96197   1.313   0.742   2.444 -0.9081 -0.9098 -1.1823
  713MOL0     H96198   1.172   0.548   2.411  1.2118  1.6190 -1.5855
  713MOL0     H96199   1.211   0.491   2.568  1.3627  0.5328 -0.1155
  713MOL0     H96200   1.134   0.713   2.668  0.7549 -0.0417  0.1956
  713MOL0     H96201   1.056   0.758   2.511  3.4913  2.1502  0.1104
  713MOL0     H96202   0.956   0.514   2.524 -0.2124  1.2864 -1.5658
  713MOL0     H96203   1.012   0.520   2.698  2.1147  0.6213 -1.0754
  713MOL0     H96204   0.842   0.734   2.577 -1.7811 -0.3817  0.2264
  713MOL0     H96205   0.891   0.714   2.745  1.3253  0.1008 -1.4763
  713MOL0     H96206   0.664   0.576   2.451 -0.6664 -1.4230 -0.6252
  713MOL0     H96207   0.354   0.400   2.582 -0.5849  1.7604  0.2422
  713MOL0     H96208   0.445   0.415   2.431 -0.4689  0.6457 -0.0827
  713MOL0     H96209   0.488   0.215   2.644  1.0136  1.4488  0.9775
  713MOL0     H96210   0.609   0.246   2.519 -1.3991 -1.0608 -1.8689
  713MOL0     H96211   0.483   0.057   2.439 -1.3807 -0.3587 -2.2524
  713MOL0     H96212   0.432   0.195   2.344 -1.0393  0.5029 -0.4798
  713MOL0     H96213   0.230   0.214   2.456  0.5891 -0.4484 -1.7518
  713MOL0     H96214   0.294   0.109   2.591  0.3706  1.1538  0.4126
  713MOL0     H96215   0.010   0.129   2.523 -2.9855  2.1386 -2.7301
  713MOL0     H96216  -0.199   0.135   2.609  3.1187  0.3090 -1.4560
  713MOL0     H96217  -0.293   0.150   2.465  0.6132  0.8853  1.5456
  713MOL0     H96218  -0.292  -0.007   2.554 -1.0547 -0.0325 -1.6242
  713MOL0     H96219  -0.508  -0.243   2.358  0.3808 -2.0179 -2.8904
  713MOL0     H96220  -0.733  -0.318   2.327 -1.8463  1.7767  1.3849
  713MOL0     H96221  -0.922  -0.355   2.277  2.1454  1.2398  0.6632
  713MOL0     H96222  -1.029  -0.249   2.359 -4.0874 -0.8795 -1.2526
  713MOL0     H96223  -1.095  -0.243   2.078  0.2381  1.3046  0.7860
  713MOL0     H96224  -1.137  -0.401   2.163  0.6332 -0.4245 -0.4253
  713MOL0     H96225  -1.227  -0.120   2.255 -0.4757 -0.3981 -0.5386
  713MOL0     H96226  -1.264  -0.272   2.322  1.2295  0.8025  0.3554
  713MOL0     H96227  -1.347  -0.206   2.030  0.8690  2.0331  0.4579
  713MOL0     H96228  -1.385  -0.348   2.115 -3.0464 -0.4410  1.9159
  713MOL0     H96229  -1.467  -0.061   2.213  0.0513 -0.2449  1.6013
  713MOL0     H96230  -1.523  -0.217   2.282 -4.6229 -1.4169 -2.8474
  713MOL0     H96231  -1.557  -0.106   2.008 -2.1591  0.7503  0.1408
  713MOL0     H96232  -1.613  -0.274   2.050 -0.8156  0.6557 -0.6702
  713MOL0     H96233  -1.797  -0.149   2.034 -0.7812  0.7024 -0.8865
  713MOL0     H96234  -1.741  -0.015   2.133  1.1864  0.5947  1.0857
  713MOL0     H96235  -1.728  -0.145   2.340 -4.7460  1.0094  1.4606
  713MOL0     H96236  -1.751  -0.295   2.257  0.0754  0.2089  2.1620
  713MOL0     H96237  -0.817   0.057   2.138  1.0358  0.4512  0.6519
  713MOL0     H96238  -0.556   0.115   2.143 -0.2545 -0.7207 -1.2256
  713MOL0     H96239  -0.076  -0.122   2.121  5.1499 -3.8116  0.6556
  713MOL0     H96240   0.159  -0.094   2.186  1.3971  2.1409  1.4937
  713MOL0     H96241   1.960   0.863   2.220  2.8127 -1.0109  1.6498
  713MOL0     H96242   2.110   0.809   2.057  0.3957 -1.3384  1.6567
  713MOL0     H96243   2.434   0.746   1.723 -1.3497 -1.1453  0.6651
  713MOL0     H96244   2.664   0.690   1.745 -0.6346  1.1250  2.6872
  713MOL0     H96245   2.714   0.272   1.812 -0.6290  0.8701  2.8052
  713MOL0     H96246   2.888   0.315   1.784 -0.0076 -0.2863 -1.0299
  713MOL0     H96247   2.762   0.333   2.069 -0.4551 -2.2747  1.3689
  713MOL0     H96248   2.926   0.382   2.029  0.1274 -0.2513 -3.4514
  713MOL0     H96249   2.963   0.141   1.969 -0.1594  2.2372 -0.6813
  713MOL0     H96250   2.792   0.104   1.969 -0.7785  1.6114 -1.1240
  713MOL0     H96251   2.922   0.175   2.232 -1.1963 -0.3612  0.9726
  713MOL0     H96252   2.920   0.013   2.152  0.7859  0.2254  1.8117
  713MOL0     H96253   2.567   0.110   2.361  0.3957 -1.1900  0.9786
  713MOL0     H96254   2.560   0.341   1.967  0.9486 -0.7180 -0.5049
  713MOL0     H96255   2.328   0.423   1.985  0.9177  0.2688  2.2022
  714MOL0     O96256   5.586   8.316   1.965  0.5488 -0.3066  0.4279
  714MOL0     C96257   5.606   8.240   1.873 -0.3585  0.0839  1.0668
  714MOL0     O96258   5.520   8.147   1.817  0.3683 -0.1929 -0.3239
  714MOL0     C96259   5.391   8.145   1.871 -0.4656  0.2608 -0.3656
  714MOL0     C96260   5.308   8.259   1.875  0.3542  0.0944  0.6385
  714MOL0     C96261   5.184   8.253   1.925  0.3014  0.2082  1.3766
  714MOL0     C96262   5.127   8.141   1.978 -0.0334 -0.3211  0.4929
  714MOL0     O96263   5.003   8.157   2.029 -0.1835  0.0310  0.4942
  714MOL0     C96264   4.949   8.036   2.095  0.5861 -0.3672 -0.0746
  714MOL0     C96265   4.878   7.939   1.993  0.7199  0.3948  0.5987
  714MOL0     C96266   4.734   7.900   2.026  0.0625  0.6004  0.5297
  714MOL0     C96267   4.632   8.011   2.030  0.0807 -0.3072  0.2521
  714MOL0     C96268   4.500   7.939   2.008 -0.4369  0.1060  0.1972
  714MOL0     C96269   4.469   7.867   2.136 -0.0980  0.2559  0.0703
  714MOL0     C96270   4.319   7.840   2.161 -0.3600 -0.2478  0.2019
  714MOL0     C96271   4.303   7.757   2.297 -1.2427 -0.0977 -0.3106
  714MOL0     N96272   4.161   7.736   2.323 -0.1401  0.8551  0.2617
  714MOL0     C96273   4.096   7.617   2.357  0.2874 -0.2060 -0.4541
  714MOL0     C96274   3.960   7.650   2.357 -0.2926 -1.1152  0.0316
  714MOL0     C96275   3.835   7.562   2.380  0.3884  0.1993  0.0544
  714MOL0     C96276   3.781   7.563   2.524  0.0798 -0.7417  0.2124
  714MOL0     C96277   3.713   7.702   2.560 -0.2998 -0.2024 -0.1662
  714MOL0     C96278   3.640   7.697   2.692  0.2824  0.1388 -0.1510
  714MOL0     O96279   3.562   7.815   2.714 -0.5570 -0.0771  0.5104
  714MOL0     C96280   3.437   7.793   2.773 -0.1092 -0.6119 -0.7019
  714MOL0     C96281   3.331   7.856   2.712 -0.2866  0.1169  0.6621
  714MOL0     C96282   3.198   7.829   2.746  0.1356 -0.4871 -0.2224
  714MOL0     C96283   3.098   7.916   2.678 -0.4214  0.4587 -0.0357
  714MOL0     C96284   3.170   7.752   2.863  0.1548  0.4231  0.5990
  714MOL0     C96285   3.034   7.726   2.910  0.2722 -1.1108  0.0239
  714MOL0     O96286   3.028   7.716   3.040  0.3125 -0.1223 -0.0223
  714MOL0     C96287   2.937   7.634   3.100 -0.1313 -0.0214  0.4551
  714MOL0     C96288   2.810   7.681   3.143  1.0037 -0.4862 -0.6270
  714MOL0     C96289   2.729   7.590   3.207 -0.3735 -0.2049 -0.0911
  714MOL0     C96290   2.758   7.455   3.221 -0.6520  0.2722  0.1720
  714MOL0     O96291   2.664   7.365   3.263  0.6638 -0.8321 -0.3263
  714MOL0     C96292   2.610   7.377   3.399  0.6052  0.3791 -0.1262
  714MOL0     C96293   2.487   7.464   3.426 -0.4688 -0.1166  0.7498
  714MOL0     C96294   2.378   7.387   3.500  0.3655  0.2326 -0.1190
  714MOL0     C96295   2.275   7.327   3.409  0.2660  0.1033  0.0387
  714MOL0     C96296   2.177   7.235   3.478 -1.3574 -0.9334  0.2219
  714MOL0     C96297   2.095   7.155   3.375  0.1419  0.2146 -0.8714
  714MOL0     C96298   1.986   7.063   3.450  0.2696 -0.6556 -0.0550
  714MOL0     C96299   1.902   6.989   3.360  0.1058  0.9852 -0.0999
  714MOL0    Cl96300   1.981   6.881   3.245 -0.4224  0.0237  0.2786
  714MOL0     C96301   2.881   7.409   3.181 -0.2242 -0.5001  0.7049
  714MOL0     C96302   2.979   7.502   3.127  0.0147 -0.1926  0.2764
  714MOL0     O96303   2.936   7.714   2.834  0.3930  0.0894 -0.5520
  714MOL0     C96304   3.278   7.694   2.938  0.6371  0.9491  0.0940
  714MOL0     C96305   3.412   7.704   2.884  0.6788 -1.6095 -0.3787
  714MOL0     N96306   3.949   7.781   2.320  0.3530 -0.0570  0.3224
  714MOL0     N96307   4.072   7.833   2.302  0.3496  0.4576 -0.5106
  714MOL0     C96308   5.206   8.024   1.978 -0.1721  0.0214  0.0476
  714MOL0     C96309   5.342   8.027   1.933 -0.1191 -0.5005  0.6786
  714MOL0     C96310   5.743   8.243   1.818  0.8473 -0.1429  0.4490
  714MOL0     C96311   5.780   8.156   1.714  0.6913  0.3088 -0.0452
  714MOL0     C96312   5.899   8.161   1.648 -0.9924 -0.3963  0.2590
  714MOL0     C96313   5.991   8.261   1.678  0.0229  0.0164 -0.2785
  714MOL0     O96314   6.116   8.258   1.628 -0.2503 -0.1568 -0.3013
  714MOL0     C96315   6.142   8.211   1.498  0.3182 -0.1768  0.2064
  714MOL0     C96316   6.241   8.296   1.430 -0.1694  0.3704 -0.0844
  714MOL0     C96317   6.385   8.265   1.486 -0.0388 -0.3797  0.6903
  714MOL0     C96318   6.497   8.357   1.428 -0.0428 -0.4183  0.1760
  714MOL0     C96319   6.526   8.329   1.287  1.0004 -0.1532 -0.1032
  714MOL0     C96320   6.545   8.294   1.172 -0.5592  0.1183  0.2133
  714MOL0     C96321   5.963   8.347   1.789 -0.5684 -0.3406 -0.0992
  714MOL0     C96322   5.840   8.338   1.860  0.0650  0.7615  0.8290
  714MOL0     H96323   5.353   8.355   1.849 -0.7142  1.3197  3.0116
  714MOL0     H96324   5.136   8.351   1.923 -1.3660 -0.5968  0.1114
  714MOL0     H96325   5.032   8.003   2.157  1.5220  1.7384 -0.1207
  714MOL0     H96326   4.876   8.067   2.170  1.4112  1.3028  0.0973
  714MOL0     H96327   4.870   7.992   1.897  0.7271 -2.2007 -0.9108
  714MOL0     H96328   4.940   7.853   1.966  0.5257  0.8198 -1.3899
  714MOL0     H96329   4.712   7.824   1.950 -0.6871  0.5595  0.7752
  714MOL0     H96330   4.734   7.862   2.129 -0.6402  2.8920  1.4428
  714MOL0     H96331   4.636   8.054   2.130 -0.4619 -2.3183  1.1816
  714MOL0     H96332   4.659   8.084   1.953 -1.2190  0.0177  0.0795
  714MOL0     H96333   4.421   8.010   1.979  0.4499  0.9406 -0.2436
  714MOL0     H96334   4.499   7.869   1.925 -0.5155 -0.7365  0.8982
  714MOL0     H96335   4.520   7.770   2.137 -0.0799  0.2671  0.3044
  714MOL0     H96336   4.506   7.925   2.221 -0.2590 -0.4856  0.6597
  714MOL0     H96337   4.270   7.937   2.162  0.4938  0.3088 -2.6952
  714MOL0     H96338   4.276   7.781   2.079 -0.5192 -1.2649  0.9949
  714MOL0     H96339   4.351   7.812   2.379  0.2934 -1.3420 -0.3205
  714MOL0     H96340   4.354   7.661   2.287 -0.8005  0.2579 -1.8400
  714MOL0     H96341   4.142   7.520   2.373 -0.6135 -0.8273 -1.4318
  714MOL0     H96342   3.759   7.585   2.304  0.7718 -2.7653 -1.3725
  714MOL0     H96343   3.866   7.459   2.364  0.4770  0.4727 -1.7271
  714MOL0     H96344   3.863   7.545   2.594  1.4825  0.5088 -1.0200
  714MOL0     H96345   3.708   7.483   2.536 -1.9291  0.8934 -0.4315
  714MOL0     H96346   3.636   7.731   2.489  0.9309 -0.2213 -1.5750
  714MOL0     H96347   3.797   7.771   2.573 -0.1275 -0.0965 -1.6285
  714MOL0     H96348   3.712   7.691   2.774  0.2161  0.4895 -0.0662
  714MOL0     H96349   3.576   7.608   2.692  0.5897 -0.1457 -2.4072
  714MOL0     H96350   3.351   7.935   2.640 -6.3330  1.1540 -0.4057
  714MOL0     H96351   3.136   7.991   2.609 -1.3451  1.0172  0.0414
  714MOL0     H96352   3.021   7.853   2.633 -1.7376  0.8347  1.5651
  714MOL0     H96353   3.054   7.967   2.765 -0.0938  0.4953  0.1076
  714MOL0     H96354   2.784   7.786   3.136  2.6612 -0.1233 -2.3870
  714MOL0     H96355   2.629   7.627   3.226 -0.6430 -1.0649  0.1828
  714MOL0     H96356   2.577   7.279   3.434  0.5533  0.8518  1.2153
  714MOL0     H96357   2.690   7.407   3.468  0.9832  0.0577 -0.4219
  714MOL0     H96358   2.516   7.544   3.494 -1.9630  0.3995  0.8021
  714MOL0     H96359   2.444   7.507   3.335 -0.3293 -0.9610  0.2663
  714MOL0     H96360   2.323   7.456   3.564  0.4849 -0.6513  0.9712
  714MOL0     H96361   2.427   7.315   3.566  1.1905 -1.5621 -2.5541
  714MOL0     H96362   2.229   7.416   3.365  0.1022 -0.6329 -1.3216
  714MOL0     H96363   2.319   7.279   3.322 -0.1455  2.4771 -1.6011
  714MOL0     H96364   2.110   7.309   3.524  1.3787  0.4456  2.2369
  714MOL0     H96365   2.223   7.180   3.561 -4.0678 -2.9652  0.5149
  714MOL0     H96366   2.044   7.225   3.308  0.7979  1.8754  0.2794
  714MOL0     H96367   2.153   7.086   3.314  1.6571  2.3482 -1.9857
  714MOL0     H96368   1.921   7.110   3.524  0.6366  1.1983 -0.8491
  714MOL0     H96369   2.034   6.989   3.514  2.6376  0.6047 -0.2725
  714MOL0     H96370   1.855   7.058   3.289  1.6460 -0.1767 -2.3247
  714MOL0     H96371   1.819   6.936   3.408  0.2822 -1.2403 -2.0988
  714MOL0     H96372   2.903   7.305   3.203 -1.8349 -1.2378 -0.9488
  714MOL0     H96373   3.079   7.464   3.107  1.3560  1.9052  2.3964
  714MOL0     H96374   3.257   7.626   3.020 -0.5678  0.2237 -0.7792
  714MOL0     H96375   3.488   7.643   2.932  1.6988 -1.5318 -1.8686
  714MOL0     H96376   5.164   7.927   2.001 -1.4489  0.8799  1.5980
  714MOL0     H96377   5.415   7.947   1.939  0.7727  0.3869  2.7573
  714MOL0     H96378   5.709   8.078   1.687  0.8695 -0.3013  1.1584
  714MOL0     H96379   5.907   8.091   1.566  0.8901 -1.2605  1.1148
  714MOL0     H96380   6.184   8.109   1.500  0.8751 -0.0601 -2.4580
  714MOL0     H96381   6.050   8.211   1.439  1.2284  1.1008 -1.2812
  714MOL0     H96382   6.223   8.403   1.447  2.1324  0.7565  0.2665
  714MOL0     H96383   6.238   8.283   1.321  0.2505  0.0639 -0.0615
  714MOL0     H96384   6.406   8.160   1.465 -1.5092 -0.2745 -1.5874
  714MOL0     H96385   6.381   8.262   1.595  2.1271 -3.7124  0.8126
  714MOL0     H96386   6.588   8.342   1.487  0.4786 -1.6748 -0.9004
  714MOL0     H96387   6.468   8.462   1.421  4.3150  0.9116 -0.9991
  714MOL0     H96388   6.557   8.260   1.071 -0.0438  3.7803 -1.1128
  714MOL0     H96389   6.035   8.420   1.824  1.4942 -3.0999  1.8664
  714MOL0     H96390   5.820   8.399   1.947  0.0091 -0.1933  1.4925
  715MOL0     O96391  10.765   2.668   7.986  0.1712  0.7136  0.0397
  715MOL0     C96392  10.785   2.676   7.862 -0.0262 -0.3143 -0.5043
  715MOL0     O96393  10.713   2.615   7.766 -0.1423 -0.9465 -0.3804
  715MOL0     C96394  10.604   2.535   7.799 -0.4406  0.3225 -0.2120
  715MOL0     C96395  10.482   2.593   7.830 -0.8401  0.5430  0.0024
  715MOL0     C96396  10.369   2.510   7.852 -0.2206 -0.3691 -0.1625
  715MOL0     C96397  10.376   2.374   7.860 -1.0143 -0.4425  0.4479
  715MOL0     O96398  10.269   2.289   7.873 -0.3308  0.1740 -0.7360
  715MOL0     C96399  10.149   2.347   7.923 -0.1488  0.4928 -0.3622
  715MOL0     C96400  10.057   2.230   7.953 -0.4222  0.9647 -0.6410
  715MOL0     C96401   9.907   2.280   7.985 -0.5280  0.0103 -0.5064
  715MOL0     C96402   9.902   2.337   8.127  0.7174  0.0061 -1.0574
  715MOL0     C96403   9.758   2.375   8.160  0.4326 -0.1134 -0.9623
  715MOL0     C96404   9.676   2.265   8.241  0.3719 -0.2760 -0.1051
  715MOL0     C96405   9.532   2.298   8.281  1.2802 -0.2811  0.0351
  715MOL0     C96406   9.457   2.384   8.183  0.1490  0.3476  0.0817
  715MOL0     N96407   9.323   2.421   8.224  0.3010 -0.2539 -0.3054
  715MOL0     C96408   9.281   2.555   8.241  0.2498  0.7289 -0.1640
  715MOL0     C96409   9.152   2.534   8.282  0.7887  0.5726 -0.0109
  715MOL0     C96410   9.051   2.636   8.321  0.4935 -0.6697  0.2672
  715MOL0     C96411   8.925   2.641   8.231  0.2937  0.7266  0.9213
  715MOL0     C96412   8.933   2.629   8.078 -0.6588  0.4557 -0.1679
  715MOL0     C96413   8.787   2.638   8.034  0.0787 -0.1232 -0.5978
  715MOL0     O96414   8.714   2.526   8.089 -0.3616  0.8851 -0.3107
  715MOL0     C96415   8.570   2.520   8.069 -0.7849 -0.5629  0.0390
  715MOL0     C96416   8.503   2.419   8.143  0.7781  0.6841 -0.0266
  715MOL0     C96417   8.365   2.404   8.141 -0.2239 -0.3827 -0.2887
  715MOL0     C96418   8.303   2.295   8.227 -0.3029  0.1421 -0.8700
  715MOL0     C96419   8.287   2.499   8.071  0.7719 -0.1290 -0.1987
  715MOL0     C96420   8.142   2.486   8.060  0.4269  0.2532  0.7902
  715MOL0     O96421   8.079   2.604   8.062  0.3663  0.2959  0.1694
  715MOL0     C96422   7.949   2.630   8.018  0.8009 -0.0467 -0.6383
  715MOL0     C96423   7.836   2.557   8.026 -0.0583  0.2548  0.1540
  715MOL0     C96424   7.709   2.591   7.981  0.2171  0.8892 -0.0149
  715MOL0     C96425   7.690   2.714   7.922  0.7248 -0.3712  0.1881
  715MOL0     O96426   7.581   2.758   7.862 -0.1669  0.1070  0.7604
  715MOL0     C96427   7.501   2.823   7.959  0.3914 -0.1844  0.2564
  715MOL0     C96428   7.430   2.730   8.057 -1.6093 -0.3601  0.3514
  715MOL0     C96429   7.350   2.610   7.994  0.4682 -0.0898 -0.6487
  715MOL0     C96430   7.198   2.632   7.974  0.8738 -0.4797  0.7329
  715MOL0     C96431   7.132   2.502   7.921 -0.0595 -0.2394  0.2378
  715MOL0     C96432   6.982   2.503   7.917  0.3077  0.2264  0.5277
  715MOL0     C96433   6.934   2.482   8.059  0.0651  0.4941 -0.4361
  715MOL0     C96434   6.789   2.418   8.042 -0.7496  0.2598 -0.1771
  715MOL0    Cl96435   6.729   2.368   8.202  0.1773 -0.1405 -0.5750
  715MOL0     C96436   7.800   2.797   7.914 -0.4842 -0.3869 -0.0129
  715MOL0     C96437   7.926   2.755   7.954  0.4775 -0.2467 -0.5735
  715MOL0     O96438   8.089   2.375   8.037 -0.1840 -0.7973 -0.4408
  715MOL0     C96439   8.356   2.601   7.996  1.1744 -0.3248 -0.0762
  715MOL0     C96440   8.491   2.616   7.998  0.4413  0.4097  0.2650
  715MOL0     N96441   9.120   2.395   8.292  0.2730  0.3585  0.6528
  715MOL0     N96442   9.223   2.327   8.246 -0.2568  0.3395 -0.0518
  715MOL0     C96443  10.512   2.319   7.846  0.3576 -0.0538  0.2395
  715MOL0     C96444  10.623   2.398   7.810  1.3235 -0.2423 -0.0905
  715MOL0     C96445  10.902   2.763   7.819 -0.4374  0.1091 -0.4019
  715MOL0     C96446  10.939   2.769   7.682 -0.8438 -0.2550 -0.1977
  715MOL0     C96447  11.068   2.811   7.644 -0.2972 -0.0038 -1.1796
  715MOL0     C96448  11.153   2.873   7.736  0.0582 -0.0867  0.5603
  715MOL0     O96449  11.271   2.924   7.686 -0.3512  0.4925 -0.3610
  715MOL0     C96450  11.342   3.010   7.766 -0.3593 -0.3319  0.0223
  715MOL0     C96451  11.478   3.057   7.708 -0.0062 -0.2031 -0.0964
  715MOL0     C96452  11.464   3.168   7.610  0.4728  1.2158 -0.0714
  715MOL0     C96453  11.581   3.174   7.502  0.1841 -0.2164 -0.0672
  715MOL0     C96454  11.715   3.153   7.557  0.2784 -1.1055  0.3746
  715MOL0     C96455  11.819   3.123   7.609 -0.3265 -0.0921  0.0284
  715MOL0     C96456  11.117   2.882   7.866 -0.9893 -1.1384 -0.2476
  715MOL0     C96457  10.997   2.829   7.916 -0.3211  0.7169  0.4383
  715MOL0     H96458  10.483   2.701   7.820 -2.4569  0.6152  0.2230
  715MOL0     H96459  10.273   2.560   7.859 -0.2349 -0.6154  2.0929
  715MOL0     H96460  10.171   2.402   8.015  2.5300  0.1881 -0.7212
  715MOL0     H96461  10.104   2.408   7.845 -2.1030 -3.0243 -2.2405
  715MOL0     H96462  10.054   2.163   7.866 -4.1621 -0.7115  0.5554
  715MOL0     H96463  10.092   2.180   8.044  1.2969  1.3440 -1.0558
  715MOL0     H96464   9.890   2.362   7.915  2.7102  2.0284  0.8114
  715MOL0     H96465   9.841   2.197   7.959  1.3936 -1.0994 -2.1438
  715MOL0     H96466   9.933   2.258   8.197 -3.8542 -0.1744  1.1090
  715MOL0     H96467   9.978   2.416   8.127  0.2506  0.6004 -4.4442
  715MOL0     H96468   9.761   2.467   8.221  1.4470 -0.2650 -0.7542
  715MOL0     H96469   9.708   2.401   8.067  1.1627  0.1768 -1.2856
  715MOL0     H96470   9.683   2.167   8.194  3.5270  0.3226 -1.1594
  715MOL0     H96471   9.726   2.255   8.338  1.9355 -0.8699 -0.9473
  715MOL0     H96472   9.488   2.199   8.292  0.9043 -0.0506  0.6826
  715MOL0     H96473   9.529   2.339   8.383  2.7539 -3.0343  1.2758
  715MOL0     H96474   9.462   2.333   8.087  1.8994  0.8633 -0.1522
  715MOL0     H96475   9.506   2.480   8.164  0.9195 -0.6041 -3.4987
  715MOL0     H96476   9.327   2.653   8.231 -2.8859  2.3193 -0.2697
  715MOL0     H96477   9.007   2.618   8.420 -2.5627 -2.4108 -1.2665
  715MOL0     H96478   9.103   2.732   8.321 -2.4113  1.0633 -1.2763
  715MOL0     H96479   8.872   2.734   8.254 -2.7492 -0.3628 -0.9892
  715MOL0     H96480   8.857   2.565   8.274  0.6423 -0.7764 -1.0385
  715MOL0     H96481   8.983   2.538   8.044 -0.6190  0.5126 -0.2642
  715MOL0     H96482   8.984   2.719   8.043  1.3984 -0.8460 -0.6816
  715MOL0     H96483   8.784   2.636   7.925 -2.1109  3.9010 -0.8105
  715MOL0     H96484   8.747   2.734   8.069 -4.4589 -1.4356 -1.4991
  715MOL0     H96485   8.558   2.346   8.201 -1.4646  0.6798  2.3040
  715MOL0     H96486   8.268   2.214   8.162 -3.7552  1.7133 -1.1429
  715MOL0     H96487   8.376   2.262   8.302 -2.0363 -0.4135  0.6520
  715MOL0     H96488   8.224   2.328   8.294  0.1714  0.6846 -0.5687
  715MOL0     H96489   7.852   2.458   8.066 -0.0480  0.9979  2.0985
  715MOL0     H96490   7.634   2.513   7.992  1.2926 -0.6140 -2.4893
  715MOL0     H96491   7.566   2.894   8.012  1.9856  0.0836 -1.9178
  715MOL0     H96492   7.437   2.892   7.904  0.1590  0.5090  1.3622
  715MOL0     H96493   7.505   2.683   8.122 -2.1615 -0.3660  0.9940
  715MOL0     H96494   7.364   2.782   8.127  0.6275  0.6144  1.8408
  715MOL0     H96495   7.352   2.519   8.054  0.7189 -1.0814 -2.1083
  715MOL0     H96496   7.395   2.577   7.900 -2.6091 -0.9586 -1.9145
  715MOL0     H96497   7.147   2.666   8.065 -2.6685  0.4839 -1.4389
  715MOL0     H96498   7.172   2.714   7.907 -0.6795 -1.5649 -0.0432
  715MOL0     H96499   7.175   2.414   7.970  0.4470 -1.5817 -2.4429
  715MOL0     H96500   7.154   2.504   7.814 -3.3189  0.0259 -0.5336
  715MOL0     H96501   6.939   2.594   7.873 -0.3186 -0.9857 -1.4616
  715MOL0     H96502   6.955   2.417   7.855  2.2434 -0.4008  0.4861
  715MOL0     H96503   6.931   2.578   8.110 -0.6753  0.5510 -0.5753
  715MOL0     H96504   6.995   2.402   8.101  0.0504 -1.0703 -3.1247
  715MOL0     H96505   6.799   2.338   7.968 -0.7877  2.5163 -2.7368
  715MOL0     H96506   6.720   2.492   8.001 -2.4806  0.2933  2.5056
  715MOL0     H96507   7.796   2.887   7.854 -1.0897 -1.2479 -1.3144
  715MOL0     H96508   8.012   2.815   7.926  0.2269  0.5624  0.3245
  715MOL0     H96509   8.295   2.672   7.941  1.0147  0.3495  0.9398
  715MOL0     H96510   8.528   2.701   7.941  0.7566  0.5388  0.6523
  715MOL0     H96511  10.532   2.213   7.856  1.8426  0.2682  1.0580
  715MOL0     H96512  10.718   2.349   7.796  1.6334  0.7457 -1.7538
  715MOL0     H96513  10.878   2.713   7.612  1.4205 -0.3847 -2.2154
  715MOL0     H96514  11.100   2.786   7.543 -1.3912  0.5949 -1.6919
  715MOL0     H96515  11.291   3.104   7.791 -2.9840 -1.3739 -0.9636
  715MOL0     H96516  11.369   2.951   7.854  0.7004 -1.6131 -1.1155
  715MOL0     H96517  11.512   2.963   7.664 -1.2607 -0.5619 -0.3445
  715MOL0     H96518  11.549   3.097   7.781  0.3717  2.3040 -1.7341
  715MOL0     H96519  11.442   3.265   7.655 -2.1037  0.4191  0.5600
  715MOL0     H96520  11.371   3.153   7.554 -1.0822  1.4701  2.2975
  715MOL0     H96521  11.569   3.271   7.453  0.2032 -1.0615 -1.8219
  715MOL0     H96522  11.563   3.094   7.430 -0.5937 -1.1124  1.0943
  715MOL0     H96523  11.911   3.097   7.657 -0.1117 -1.2807 -0.9606
  715MOL0     H96524  11.190   2.911   7.942  0.3989  0.2236 -2.0141
  715MOL0     H96525  10.975   2.828   8.022  3.0549 -2.0425  1.2728
  716MOL0     O96526   8.849   6.484   4.242  0.0374  0.3425 -0.3637
  716MOL0     C96527   8.794   6.573   4.311 -0.0301  0.1236  0.5026
  716MOL0     O96528   8.853   6.688   4.349 -0.8437 -0.1518 -0.6750
  716MOL0     C96529   8.984   6.710   4.308  0.1657  0.3404 -0.0785
  716MOL0     C96530   9.047   6.688   4.185 -0.7187  0.4473 -1.0004
  716MOL0     C96531   9.173   6.734   4.149 -0.2998 -0.1707 -0.2095
  716MOL0     C96532   9.253   6.810   4.238 -0.1722  0.5527 -0.1199
  716MOL0     O96533   9.366   6.870   4.193 -0.6586  0.3195  0.5510
  716MOL0     C96534   9.485   6.811   4.240 -0.6773  0.1376 -0.9732
  716MOL0     C96535   9.610   6.900   4.202  0.5440 -0.6407  0.5754
  716MOL0     C96536   9.738   6.831   4.270  0.2437  1.1288  0.3054
  716MOL0     C96537   9.860   6.877   4.193  0.1747  0.0778  0.4331
  716MOL0     C96538   9.982   6.806   4.243  0.1388 -0.2583 -0.5869
  716MOL0     C96539  10.003   6.668   4.181  0.1217 -0.5884  0.6581
  716MOL0     C96540  10.141   6.609   4.232  0.7848  0.5211  0.3592
  716MOL0     C96541  10.152   6.467   4.170  0.1787 -0.2148 -0.6257
  716MOL0     N96542  10.283   6.418   4.201 -0.2684  0.7037 -1.0088
  716MOL0     C96543  10.381   6.413   4.105 -0.2596  0.2953 -0.6334
  716MOL0     C96544  10.490   6.363   4.172 -0.0111  0.2741  0.6199
  716MOL0     C96545  10.613   6.297   4.108  0.1495  0.4731  1.1245
  716MOL0     C96546  10.569   6.149   4.072  0.5347 -0.2675 -0.3892
  716MOL0     C96547  10.660   6.062   3.987 -0.0861 -0.3788  0.9110
  716MOL0     C96548  10.614   5.916   3.990  0.6321  0.0267  0.6407
  716MOL0     O96549  10.668   5.862   3.874  0.2831  0.1912  0.6253
  716MOL0     C96550  10.613   5.752   3.813  0.2696 -0.3292 -0.0696
  716MOL0     C96551  10.640   5.739   3.681  0.4019  0.8703  0.5677
  716MOL0     C96552  10.581   5.631   3.595  0.0247 -0.3969  0.2531
  716MOL0     C96553  10.612   5.642   3.445  0.2528  0.3506 -0.4100
  716MOL0     C96554  10.496   5.539   3.646  0.1316 -0.2862 -1.0181
  716MOL0     C96555  10.429   5.433   3.575 -0.4147  0.0612  0.3323
  716MOL0     O96556  10.356   5.347   3.657 -0.2385 -0.0839  1.3964
  716MOL0     C96557  10.267   5.258   3.601  0.4563 -0.0021  0.1064
  716MOL0     C96558  10.160   5.316   3.521  0.2155  1.1504 -0.8236
  716MOL0     C96559  10.070   5.222   3.470  0.2806  0.5180 -0.0419
  716MOL0     C96560  10.087   5.084   3.497  0.3127  0.2000  0.4327
  716MOL0     O96561   9.998   4.999   3.430  0.6508 -0.3689  0.5062
  716MOL0     C96562   9.941   4.885   3.493 -1.0262  0.8424  0.2028
  716MOL0     C96563   9.859   4.916   3.619  0.3949 -0.0179  1.1614
  716MOL0     C96564   9.777   4.800   3.678 -0.1228 -0.2278  0.1655
  716MOL0     C96565   9.685   4.841   3.790  0.2389 -0.4381 -1.0550
  716MOL0     C96566   9.638   4.707   3.864  0.1205 -0.5033  0.4848
  716MOL0     C96567   9.547   4.612   3.779  0.6913  1.0210  0.4995
  716MOL0     C96568   9.526   4.482   3.863 -0.1716 -0.9551  0.4018
  716MOL0     C96569   9.427   4.396   3.781 -0.0388 -0.3759 -0.6714
  716MOL0    Cl96570   9.393   4.247   3.878  0.0521  0.0752  0.1739
  716MOL0     C96571  10.188   5.040   3.582 -0.5707  0.1456 -0.5387
  716MOL0     C96572  10.275   5.126   3.637  0.0838 -0.2614 -0.3700
  716MOL0     O96573  10.443   5.418   3.451 -0.7038 -0.4352  0.1515
  716MOL0     C96574  10.476   5.547   3.788  0.1027  0.2864 -0.1322
  716MOL0     C96575  10.525   5.657   3.869 -0.3481  0.3025 -0.3181
  716MOL0     N96576  10.446   6.339   4.298 -0.1211 -0.4004 -0.4134
  716MOL0     N96577  10.323   6.366   4.324  0.0249 -0.1810  0.6744
  716MOL0     C96578   9.193   6.830   4.366 -0.1336  0.3483 -1.0475
  716MOL0     C96579   9.066   6.777   4.399 -0.5320 -0.8192 -0.2364
  716MOL0     C96580   8.646   6.568   4.332 -0.8729 -0.8368 -0.4781
  716MOL0     C96581   8.586   6.443   4.347  0.1077 -0.0570 -0.1155
  716MOL0     C96582   8.447   6.437   4.369 -0.1994  0.4850 -0.2096
  716MOL0     C96583   8.370   6.551   4.372  0.9810 -0.0724  0.5021
  716MOL0     O96584   8.233   6.528   4.390 -0.7628  0.3823  0.1220
  716MOL0     C96585   8.171   6.624   4.476  0.6162  0.7076  0.4110
  716MOL0     C96586   8.043   6.565   4.527  0.0846  0.8199 -0.1181
  716MOL0     C96587   7.934   6.569   4.416 -0.6434  0.1974  0.0479
  716MOL0     C96588   7.846   6.441   4.425  0.1131  0.6490  0.2857
  716MOL0     C96589   7.705   6.474   4.457  0.3430 -0.3773 -0.0990
  716MOL0     C96590   7.590   6.488   4.492  0.3659 -0.4354  0.3688
  716MOL0     C96591   8.435   6.674   4.373 -0.0636  0.7254 -0.4062
  716MOL0     C96592   8.569   6.685   4.347 -0.0778  0.0114  0.9029
  716MOL0     H96593   8.997   6.627   4.110 -0.0653 -3.2143  1.2884
  716MOL0     H96594   9.220   6.722   4.052  2.5143  1.6603  0.7944
  716MOL0     H96595   9.480   6.792   4.347  2.1387  1.9811 -0.4171
  716MOL0     H96596   9.494   6.709   4.199  2.7942 -0.4328  0.8414
  716MOL0     H96597   9.618   6.904   4.093 -0.9264  1.1038  0.4715
  716MOL0     H96598   9.583   7.001   4.237  0.3039 -0.1240 -0.9873
  716MOL0     H96599   9.730   6.848   4.377 -0.8631 -2.1574  0.8463
  716MOL0     H96600   9.736   6.723   4.257  2.2568  1.1971 -1.2151
  716MOL0     H96601   9.838   6.860   4.088  1.8963  2.2557 -0.3479
  716MOL0     H96602   9.863   6.984   4.211 -1.1504  0.3916 -1.0619
  716MOL0     H96603  10.067   6.867   4.211 -0.1284  0.2179 -0.4130
  716MOL0     H96604   9.972   6.805   4.352 -1.0091 -0.3124 -0.6793
  716MOL0     H96605   9.918   6.609   4.217 -0.1874 -0.7686 -0.3379
  716MOL0     H96606   9.999   6.665   4.072  0.9669 -0.7153  0.6241
  716MOL0     H96607  10.228   6.670   4.205  0.8141  1.0580  1.5965
  716MOL0     H96608  10.142   6.598   4.341 -2.8138  1.4832  0.5967
  716MOL0     H96609  10.146   6.472   4.061  0.7625  2.4761 -0.6128
  716MOL0     H96610  10.074   6.402   4.209  0.7262 -0.7332 -0.3684
  716MOL0     H96611  10.378   6.431   3.998 -0.6224 -1.0036 -0.8625
  716MOL0     H96612  10.639   6.350   4.015  0.8950 -1.1988  0.3236
  716MOL0     H96613  10.699   6.304   4.175 -0.8409  0.5346  2.4110
  716MOL0     H96614  10.473   6.156   4.020 -0.6304 -0.1393  1.6479
  716MOL0     H96615  10.542   6.102   4.167 -0.9697  2.0164  0.4079
  716MOL0     H96616  10.762   6.073   4.025  0.2243  0.2028 -0.0559
  716MOL0     H96617  10.669   6.099   3.884  3.6549  1.0423  1.5703
  716MOL0     H96618  10.506   5.904   3.996  0.2739  1.2871 -1.8268
  716MOL0     H96619  10.657   5.871   4.081  0.7420 -1.0781  0.0650
  716MOL0     H96620  10.709   5.812   3.639  0.1565  0.7769 -0.0101
  716MOL0     H96621  10.647   5.740   3.413 -2.5499  0.9624 -1.8920
  716MOL0     H96622  10.694   5.586   3.399 -1.7207 -2.1275 -1.1650
  716MOL0     H96623  10.515   5.626   3.396 -0.0767  2.4858 -0.5597
  716MOL0     H96624  10.153   5.422   3.496 -1.3117  1.9528  2.4403
  716MOL0     H96625   9.998   5.265   3.402  1.9946 -0.3323 -2.5281
  716MOL0     H96626   9.868   4.844   3.422  0.1156 -1.2493  0.1546
  716MOL0     H96627  10.007   4.799   3.509 -0.7765  0.8523 -0.6993
  716MOL0     H96628   9.928   4.943   3.699  0.6190 -0.2473  1.0504
  716MOL0     H96629   9.801   5.005   3.596  0.8558 -0.2936 -1.3227
  716MOL0     H96630   9.843   4.714   3.697 -0.4901 -0.4201  0.5817
  716MOL0     H96631   9.713   4.767   3.595 -1.9588 -1.1181  1.8682
  716MOL0     H96632   9.745   4.901   3.859  0.8733 -0.1400 -1.8477
  716MOL0     H96633   9.601   4.905   3.761 -0.3727 -1.0614 -0.6921
  716MOL0     H96634   9.576   4.736   3.949 -0.4199 -2.7894  0.9361
  716MOL0     H96635   9.722   4.655   3.911 -0.8558 -0.0453  2.8618
  716MOL0     H96636   9.447   4.655   3.769 -1.3610 -2.4883  3.5434
  716MOL0     H96637   9.595   4.573   3.688  1.5878 -1.1562  1.8378
  716MOL0     H96638   9.486   4.500   3.963  2.1442 -0.3167  1.2668
  716MOL0     H96639   9.619   4.433   3.892 -0.3113 -1.7049 -0.3408
  716MOL0     H96640   9.468   4.379   3.682 -0.0859  0.7456 -0.8999
  716MOL0     H96641   9.327   4.441   3.782  0.1846  0.5112  3.8631
  716MOL0     H96642  10.202   4.935   3.604  3.0456  0.9864  2.3801
  716MOL0     H96643  10.366   5.102   3.692  0.3362 -0.0778 -0.7018
  716MOL0     H96644  10.417   5.479   3.850 -0.8157  1.4940  0.3684
  716MOL0     H96645  10.498   5.665   3.974  0.5829 -0.1979 -0.0233
  716MOL0     H96646   9.249   6.894   4.433  1.2068  0.8126 -2.5573
  716MOL0     H96647   9.034   6.799   4.501  3.0286  0.9611  0.6443
  716MOL0     H96648   8.652   6.357   4.346  1.7025  1.1128 -1.7807
  716MOL0     H96649   8.387   6.347   4.371 -2.0115  1.6221 -1.3322
  716MOL0     H96650   8.227   6.643   4.569 -2.5597  0.4293  2.5360
  716MOL0     H96651   8.162   6.720   4.425 -1.6352 -1.8178 -4.6342
  716MOL0     H96652   8.026   6.627   4.616  3.2222  1.0589  0.4276
  716MOL0     H96653   8.070   6.461   4.550  1.3885  0.9947 -0.7606
  716MOL0     H96654   7.980   6.580   4.318 -0.8026 -0.6997 -0.1381
  716MOL0     H96655   7.870   6.656   4.436  0.8407  1.3272  0.0420
  716MOL0     H96656   7.882   6.359   4.487 -0.8782 -1.6397 -1.9755
  716MOL0     H96657   7.844   6.395   4.326 -1.6755  3.3048 -1.0357
  716MOL0     H96658   7.488   6.510   4.518 -0.3324 -3.5817  0.6245
  716MOL0     H96659   8.380   6.766   4.391  0.6810  1.6259 -2.4349
  716MOL0     H96660   8.618   6.781   4.344  3.0767 -1.3109  3.8018
  717MOL0     O96661   0.798   0.619   2.299 -0.5211  0.1948 -0.4656
  717MOL0     C96662   0.865   0.726   2.298 -0.2258  0.3308 -0.4797
  717MOL0     O96663   0.807   0.852   2.304  0.7682 -0.2647  1.1312
  717MOL0     C96664   0.667   0.857   2.312  0.0119  0.6297  0.4112
  717MOL0     C96665   0.576   0.823   2.208 -0.3256 -0.1240 -0.4860
  717MOL0     C96666   0.441   0.832   2.224 -0.0660  0.1002 -0.4829
  717MOL0     C96667   0.390   0.877   2.344  0.6496  0.3371 -0.3370
  717MOL0     O96668   0.254   0.889   2.374  0.1640  0.0510  0.9189
  717MOL0     C96669   0.167   0.808   2.290  0.1488  0.4151  0.8388
  717MOL0     C96670   0.024   0.822   2.347 -0.9092 -0.0099 -0.0865
  717MOL0     C96671  -0.039   0.956   2.336 -0.8514  0.4339 -0.4356
  717MOL0     C96672  -0.178   0.959   2.383  0.0290 -0.2115 -1.3496
  717MOL0     C96673  -0.200   0.967   2.532 -0.6613  0.8947  0.0499
  717MOL0     C96674  -0.342   0.982   2.583  0.6571  0.0200 -0.4040
  717MOL0     C96675  -0.410   0.844   2.577 -0.1615 -0.5337  0.2099
  717MOL0     C96676  -0.404   0.763   2.703  0.0838 -0.1408  0.0225
  717MOL0     N96677  -0.440   0.832   2.823 -0.2688 -1.0395  0.4132
  717MOL0     C96678  -0.565   0.831   2.862  0.7178  0.0095  0.2184
  717MOL0     C96679  -0.561   0.884   2.992 -0.0920  0.0680 -0.0019
  717MOL0     C96680  -0.668   0.889   3.095 -1.3530 -0.6765  0.2267
  717MOL0     C96681  -0.806   0.909   3.032 -0.4280 -0.7783 -0.1219
  717MOL0     C96682  -0.885   0.788   3.022  0.1259  0.2382  0.1972
  717MOL0     C96683  -1.034   0.812   2.962  0.0807  0.7242  0.0813
  717MOL0     O96684  -1.090   0.677   2.946 -0.1576  0.8241  0.4984
  717MOL0     C96685  -1.219   0.661   2.921  0.4427  0.7065 -1.8027
  717MOL0     C96686  -1.264   0.595   2.812 -0.1180  0.0547 -0.3406
  717MOL0     C96687  -1.399   0.583   2.786 -0.2085  0.4119  0.1158
  717MOL0     C96688  -1.442   0.507   2.657  0.3328  0.7779  0.2465
  717MOL0     C96689  -1.489   0.641   2.870  0.0388 -0.0597  0.0112
  717MOL0     C96690  -1.639   0.645   2.842  0.2751  0.2890 -0.4285
  717MOL0     O96691  -1.669   0.697   2.718  0.4842  0.6423  0.2256
  717MOL0     C96692  -1.794   0.696   2.663 -0.3086  0.7916  0.1107
  717MOL0     C96693  -1.811   0.627   2.541  0.2114 -0.2770  0.0341
  717MOL0     C96694  -1.946   0.608   2.497 -0.3368 -0.6655  0.3405
  717MOL0     C96695  -2.057   0.664   2.564 -0.1211  0.1885 -0.2673
  717MOL0     O96696  -2.182   0.649   2.507 -0.7342 -0.0921 -0.1575
  717MOL0     C96697  -2.288   0.728   2.553 -0.0162  0.1297 -0.0393
  717MOL0     C96698  -2.412   0.663   2.498  0.2462 -0.7597  0.3490
  717MOL0     C96699  -2.539   0.740   2.535 -0.4520  0.1016  0.4162
  717MOL0     C96700  -2.646   0.702   2.441  0.5240 -0.5646  1.0368
  717MOL0     C96701  -2.781   0.747   2.480  0.4856  0.2225 -0.7092
  717MOL0     C96702  -2.884   0.651   2.422 -0.5578 -0.0653  0.0465
  717MOL0     C96703  -2.891   0.511   2.476 -0.9057  0.4896  0.3255
  717MOL0     C96704  -2.923   0.524   2.634 -0.5971 -0.8101 -0.3818
  717MOL0    Cl96705  -2.966   0.363   2.716 -0.2393 -0.3567  0.5735
  717MOL0     C96706  -2.032   0.729   2.680 -0.3543 -0.2480  0.0174
  717MOL0     C96707  -1.904   0.745   2.730 -0.3200 -1.1751 -0.2482
  717MOL0     O96708  -1.720   0.604   2.924  0.0026  0.2995 -0.7301
  717MOL0     C96709  -1.435   0.696   2.986  0.1161  0.2601 -0.5721
  717MOL0     C96710  -1.311   0.714   3.014 -0.3752  0.3390  0.7279
  717MOL0     N96711  -0.442   0.953   3.010  0.4020 -0.0936 -0.1271
  717MOL0     N96712  -0.360   0.915   2.907  0.3573  0.3992 -0.0615
  717MOL0     C96713   0.478   0.929   2.438  0.5876 -0.2363  0.7948
  717MOL0     C96714   0.613   0.922   2.422 -0.5540  0.4508 -0.4796
  717MOL0     C96715   1.007   0.727   2.243  0.5334 -0.5500 -0.3500
  717MOL0     C96716   1.071   0.609   2.199 -0.6122  0.1003 -0.0625
  717MOL0     C96717   1.197   0.609   2.126  1.0410 -0.2319 -0.0435
  717MOL0     C96718   1.257   0.730   2.102  0.6085 -0.0675 -0.3813
  717MOL0     O96719   1.382   0.723   2.033 -0.1731  0.7363  0.0588
  717MOL0     C96720   1.464   0.832   2.030 -0.4505 -0.2059 -0.2389
  717MOL0     C96721   1.602   0.822   1.951  0.4746 -0.0941  0.3298
  717MOL0     C96722   1.680   0.947   1.997  0.0801  0.0829 -0.1081
  717MOL0     C96723   1.784   0.985   1.892 -0.1145  0.5995 -0.6519
  717MOL0     C96724   1.861   1.094   1.954  0.3649 -0.3469 -1.1418
  717MOL0     C96725   1.925   1.180   2.015 -0.0870 -0.4036  0.5183
  717MOL0     C96726   1.192   0.848   2.145  0.9608 -0.8294  0.8028
  717MOL0     C96727   1.069   0.846   2.216  0.2565  0.4193 -0.5804
  717MOL0     H96728   0.618   0.777   2.119  1.1628  1.1642 -0.4874
  717MOL0     H96729   0.374   0.800   2.144 -1.0004  3.1008 -1.0094
  717MOL0     H96730   0.159   0.846   2.188 -3.4358 -0.0119  0.8282
  717MOL0     H96731   0.199   0.704   2.290  0.3691  0.4746  0.1550
  717MOL0     H96732  -0.046   0.750   2.302 -0.6772  0.1560 -0.7189
  717MOL0     H96733   0.047   0.802   2.452  1.4651  0.5185 -0.4670
  717MOL0     H96734   0.030   1.030   2.378  2.8525 -3.0819  0.3177
  717MOL0     H96735  -0.041   0.982   2.230  0.4933 -2.5296 -1.3146
  717MOL0     H96736  -0.225   1.046   2.336 -0.5714 -1.0601 -2.3710
  717MOL0     H96737  -0.219   0.868   2.338  0.7488 -1.1546 -0.1608
  717MOL0     H96738  -0.144   0.887   2.581 -1.4844  0.2893  0.0112
  717MOL0     H96739  -0.153   1.062   2.561  1.7400  0.4943 -2.0744
  717MOL0     H96740  -0.341   1.032   2.681  0.8674  3.1924 -1.9062
  717MOL0     H96741  -0.398   1.048   2.517  1.3062  0.5343 -0.4486
  717MOL0     H96742  -0.512   0.870   2.547 -0.7153  2.3675  3.8658
  717MOL0     H96743  -0.374   0.785   2.492  0.5256  1.1195 -0.6830
  717MOL0     H96744  -0.301   0.725   2.703  0.7662  1.6120  0.1630
  717MOL0     H96745  -0.450   0.664   2.701 -0.8261  0.2588  0.6251
  717MOL0     H96746  -0.646   0.772   2.822  1.3015 -0.0812 -0.8363
  717MOL0     H96747  -0.655   0.804   3.163  3.5267  0.0501  0.5816
  717MOL0     H96748  -0.645   0.982   3.148  1.4102  0.0919 -2.0764
  717MOL0     H96749  -0.795   0.947   2.930 -0.3500  1.1356  0.5459
  717MOL0     H96750  -0.855   0.978   3.101 -2.5424  1.1846 -3.3042
  717MOL0     H96751  -0.890   0.741   3.121 -0.9979  1.3842  0.7106
  717MOL0     H96752  -0.829   0.715   2.963 -0.5573  0.3839 -0.6559
  717MOL0     H96753  -1.041   0.858   2.863 -2.0124 -1.3865 -0.8527
  717MOL0     H96754  -1.089   0.875   3.032 -0.1945  0.5976 -0.0199
  717MOL0     H96755  -1.196   0.556   2.738  2.6613  0.0020  2.0449
  717MOL0     H96756  -1.466   0.576   2.576 -2.3462 -1.2724 -0.9113
  717MOL0     H96757  -1.359   0.449   2.615  0.9742  2.0461 -0.2978
  717MOL0     H96758  -1.530   0.444   2.678 -0.0729  1.8267  1.8807
  717MOL0     H96759  -1.740   0.566   2.487 -1.5806 -0.9521 -1.6621
  717MOL0     H96760  -1.967   0.548   2.409  1.5743 -0.5895 -0.1937
  717MOL0     H96761  -2.289   0.728   2.662 -0.1565  0.9336 -0.0400
  717MOL0     H96762  -2.257   0.829   2.527  1.3119  0.2036  1.6420
  717MOL0     H96763  -2.407   0.658   2.389  0.8185  1.6369  0.2108
  717MOL0     H96764  -2.414   0.563   2.542 -0.7325 -1.6067 -1.4969
  717MOL0     H96765  -2.527   0.848   2.519 -3.5485  0.3032 -1.3901
  717MOL0     H96766  -2.573   0.718   2.636 -0.5573  0.8986  0.5586
  717MOL0     H96767  -2.637   0.744   2.341 -0.8151 -1.4105  0.5383
  717MOL0     H96768  -2.634   0.595   2.423  0.4334 -0.7957  2.2635
  717MOL0     H96769  -2.797   0.845   2.436  1.4195 -0.7956 -3.5491
  717MOL0     H96770  -2.798   0.766   2.587 -0.7120 -1.0949 -0.6244
  717MOL0     H96771  -2.982   0.699   2.427 -1.2467 -1.0130 -2.5338
  717MOL0     H96772  -2.857   0.641   2.316  0.8741 -1.0038  0.4701
  717MOL0     H96773  -2.797   0.461   2.452 -1.2538 -0.2531  0.5035
  717MOL0     H96774  -2.970   0.461   2.420  0.3534 -0.5864 -0.5524
  717MOL0     H96775  -3.006   0.591   2.659  0.7265  0.2805  1.3104
  717MOL0     H96776  -2.831   0.565   2.676  0.1373 -1.8191 -0.9524
  717MOL0     H96777  -2.110   0.777   2.739 -1.4813 -3.2158  1.0894
  717MOL0     H96778  -1.875   0.806   2.814 -0.6936 -1.1374 -0.1455
  717MOL0     H96779  -1.503   0.723   3.065  0.7082  1.0726 -0.3255
  717MOL0     H96780  -1.280   0.771   3.101  1.7601 -0.7942  0.7768
  717MOL0     H96781   0.433   0.973   2.526 -0.5217 -0.9929  0.6338
  717MOL0     H96782   0.681   0.957   2.499  2.5097 -0.7233 -2.4575
  717MOL0     H96783   1.027   0.511   2.215 -0.3455 -0.1795 -1.0100
  717MOL0     H96784   1.231   0.513   2.089 -0.4303 -1.4905  1.7059
  717MOL0     H96785   1.404   0.909   1.982 -0.6955  0.2967  0.8266
  717MOL0     H96786   1.488   0.869   2.131 -0.8720 -0.3674 -0.0804
  717MOL0     H96787   1.588   0.817   1.843  1.2939 -0.4810  0.2325
  717MOL0     H96788   1.650   0.728   1.979 -1.2488 -1.6217 -1.5209
  717MOL0     H96789   1.726   0.932   2.095  0.1958  0.3776 -0.1157
  717MOL0     H96790   1.624   1.040   2.012  1.6976  0.9784  0.7597
  717MOL0     H96791   1.730   1.013   1.801 -0.9372 -0.1860 -0.4155
  717MOL0     H96792   1.845   0.898   1.866 -0.4439 -0.5993  2.2624
  717MOL0     H96793   1.960   1.264   2.072 -1.7532  2.5275 -2.4089
  717MOL0     H96794   1.232   0.948   2.132 -1.5841  0.4733  2.2315
  717MOL0     H96795   1.019   0.939   2.243  2.8239  1.7893 -0.2616
  718MOL0     O96796   5.671   1.101   0.728  0.7956  0.8040 -0.3700
  718MOL0     C96797   5.669   1.022   0.823 -0.0397 -0.1604 -0.0017
  718MOL0     O96798   5.780   0.975   0.889  0.2679  0.0128  0.0641
  718MOL0     C96799   5.901   1.039   0.850 -0.0169 -0.1685 -0.3001
  718MOL0     C96800   5.985   1.110   0.940  1.0531  0.2790 -0.3421
  718MOL0     C96801   6.105   1.172   0.894  0.1478  0.5989  0.9538
  718MOL0     C96802   6.148   1.155   0.767 -0.7914  0.2480  0.0018
  718MOL0     O96803   6.270   1.229   0.738 -0.6739  0.6249 -0.0890
  718MOL0     C96804   6.303   1.246   0.597 -0.0773 -0.0247  0.4428
  718MOL0     C96805   6.410   1.149   0.542 -0.2265 -0.2141  0.0641
  718MOL0     C96806   6.551   1.163   0.611 -0.1347  0.2565  0.4238
  718MOL0     C96807   6.650   1.056   0.554 -0.4332 -0.3637 -0.1419
  718MOL0     C96808   6.791   1.076   0.624 -0.7100  0.4098 -0.1218
  718MOL0     C96809   6.865   1.206   0.585  0.3998  0.6543  0.1322
  718MOL0     C96810   6.993   1.199   0.669  0.3141  0.6379 -0.0007
  718MOL0     C96811   7.089   1.309   0.623  0.0518 -0.3068  0.1786
  718MOL0     N96812   7.225   1.290   0.686  0.4528 -0.5887 -0.0381
  718MOL0     C96813   7.351   1.324   0.630  0.5007 -0.4076 -0.4924
  718MOL0     C96814   7.436   1.311   0.736 -0.4098 -0.4558  0.4353
  718MOL0     C96815   7.586   1.350   0.738  0.3481  0.3506 -0.1204
  718MOL0     C96816   7.600   1.463   0.841  0.0588 -0.2142  0.5339
  718MOL0     C96817   7.738   1.528   0.849 -0.0936  0.8729 -0.5011
  718MOL0     C96818   7.807   1.593   0.724 -0.9316 -0.1621 -0.0685
  718MOL0     O96819   7.895   1.706   0.752  0.3642 -0.2777  0.2319
  718MOL0     C96820   8.019   1.687   0.811  0.7449 -0.1655 -0.4414
  718MOL0     C96821   8.076   1.561   0.838 -0.1210  0.6965 -1.0362
  718MOL0     C96822   8.206   1.543   0.893 -0.6151  0.0773 -0.6635
  718MOL0     C96823   8.264   1.405   0.903  0.7764 -0.5986 -0.1328
  718MOL0     C96824   8.281   1.659   0.925  0.3955 -0.0239 -0.0705
  718MOL0     C96825   8.423   1.658   0.976 -0.4482 -0.1336  0.4059
  718MOL0     O96826   8.467   1.786   1.006  0.0238  0.3749 -0.1745
  718MOL0     C96827   8.600   1.814   0.996 -0.4931 -0.1447  0.0505
  718MOL0     C96828   8.682   1.820   1.110  1.0286  0.2970 -1.7396
  718MOL0     C96829   8.816   1.851   1.093 -0.2282 -0.5662  0.3964
  718MOL0     C96830   8.872   1.876   0.966  0.0504  0.0491  0.3063
  718MOL0     O96831   9.004   1.902   0.941 -0.3151  0.4974  0.1443
  718MOL0     C96832   9.102   1.794   0.992  0.2245  0.7018 -0.1561
  718MOL0     C96833   9.244   1.815   0.952 -0.0747  0.3909 -0.0041
  718MOL0     C96834   9.316   1.927   1.047  0.0414  0.4847  0.6049
  718MOL0     C96835   9.425   2.000   0.971  0.4868  0.8186  0.5804
  718MOL0     C96836   9.559   1.926   0.976 -0.0262 -0.5879  0.0985
  718MOL0     C96837   9.649   1.986   0.870  1.1955 -0.7202 -0.1434
  718MOL0     C96838   9.749   2.083   0.931 -0.0450  0.6724 -0.5404
  718MOL0     C96839   9.841   2.144   0.826 -0.6710 -0.2250 -0.4386
  718MOL0    Cl96840   9.924   2.019   0.735  0.1826  0.4667  0.2159
  718MOL0     C96841   8.787   1.857   0.857 -0.1553  0.2392  0.2021
  718MOL0     C96842   8.651   1.836   0.869  0.2719 -0.2632  0.6500
  718MOL0     O96843   8.490   1.557   0.973 -0.0826  0.8169  0.5616
  718MOL0     C96844   8.216   1.783   0.892 -1.3439 -1.1251  0.4336
  718MOL0     C96845   8.093   1.803   0.830 -0.1171  0.4888 -0.5781
  718MOL0     N96846   7.369   1.278   0.844 -0.5339 -0.2340 -1.2321
  718MOL0     N96847   7.249   1.256   0.818 -0.0574 -0.1894 -0.5854
  718MOL0     C96848   6.072   1.079   0.683  0.9657 -0.4087  0.0139
  718MOL0     C96849   5.948   1.021   0.720  0.1987 -0.3147  0.3079
  718MOL0     C96850   5.541   0.974   0.856 -0.4918  0.6169  0.6120
  718MOL0     C96851   5.442   0.957   0.759  0.2674  0.0788  0.8091
  718MOL0     C96852   5.317   0.897   0.791 -0.1741  0.2222 -0.3759
  718MOL0     C96853   5.301   0.844   0.927 -0.9337  0.2940  0.3692
  718MOL0     O96854   5.193   0.777   0.980  0.5452  0.4027 -0.1906
  718MOL0     C96855   5.083   0.745   0.894  0.9638  0.8777  0.8228
  718MOL0     C96856   4.965   0.685   0.982 -0.3870 -0.7696 -0.3390
  718MOL0     C96857   4.935   0.787   1.096  0.4481 -0.1391 -0.1510
  718MOL0     C96858   4.812   0.761   1.190  0.0506  0.1794  0.7823
  718MOL0     C96859   4.705   0.682   1.134 -0.3237  0.7917  0.4257
  718MOL0     C96860   4.612   0.608   1.096  0.0788 -1.5200  0.3517
  718MOL0     C96861   5.404   0.860   1.020 -0.3463  0.4578 -0.5140
  718MOL0     C96862   5.524   0.916   0.988 -0.2759  0.5576  0.3075
  718MOL0     H96863   5.955   1.128   1.043 -2.6302  3.3442 -1.7120
  718MOL0     H96864   6.167   1.225   0.966 -0.4273  1.1096  1.0866
  718MOL0     H96865   6.218   1.246   0.528  1.4695  2.8205 -1.7062
  718MOL0     H96866   6.348   1.345   0.583 -0.3852  0.1568  0.7207
  718MOL0     H96867   6.381   1.045   0.559 -2.1724 -0.1361 -2.2805
  718MOL0     H96868   6.411   1.161   0.433 -0.6733 -1.6415 -0.1098
  718MOL0     H96869   6.593   1.264   0.616 -1.7621  0.9113  2.3498
  718MOL0     H96870   6.545   1.133   0.716  1.1937 -0.0856  0.4150
  718MOL0     H96871   6.600   0.961   0.575 -2.3828  0.1252 -2.2132
  718MOL0     H96872   6.657   1.060   0.445 -1.4794  1.3715 -0.1883
  718MOL0     H96873   6.790   1.068   0.733 -0.2045 -1.0711 -0.1983
  718MOL0     H96874   6.850   0.986   0.602 -1.1191 -0.0151  0.4851
  718MOL0     H96875   6.885   1.205   0.478 -1.5920  3.9545 -0.4340
  718MOL0     H96876   6.807   1.296   0.607 -0.3559 -0.0229  1.0086
  718MOL0     H96877   6.974   1.227   0.773  1.9646  2.8666 -0.2381
  718MOL0     H96878   7.042   1.102   0.653 -3.0667 -1.1035 -0.8188
  718MOL0     H96879   7.044   1.403   0.656  0.5482 -0.2985  0.8498
  718MOL0     H96880   7.081   1.313   0.514 -5.4403 -2.0742  0.1915
  718MOL0     H96881   7.368   1.370   0.533  1.3968  0.8445  0.2281
  718MOL0     H96882   7.648   1.269   0.775  0.5317  0.1589 -0.8213
  718MOL0     H96883   7.624   1.374   0.638  1.6295 -3.8273 -0.8619
  718MOL0     H96884   7.592   1.409   0.936 -0.1606 -1.5401 -0.2105
  718MOL0     H96885   7.530   1.547   0.841  2.8847  2.3064  0.3895
  718MOL0     H96886   7.802   1.448   0.887 -1.6435 -0.6427 -0.9161
  718MOL0     H96887   7.735   1.608   0.923 -2.0143  0.2162  0.2004
  718MOL0     H96888   7.723   1.641   0.673 -1.6147 -2.6381 -1.4686
  718MOL0     H96889   7.848   1.521   0.653  2.9568  2.7821 -1.1813
  718MOL0     H96890   8.024   1.470   0.811  0.1471 -0.0833  0.9052
  718MOL0     H96891   8.195   1.323   0.881  3.3188 -3.2624  1.0707
  718MOL0     H96892   8.354   1.396   0.841 -0.1961  0.0021 -1.6863
  718MOL0     H96893   8.287   1.380   1.007 -1.7985  1.2196  0.9826
  718MOL0     H96894   8.631   1.800   1.203  0.1018  3.6626 -1.3936
  718MOL0     H96895   8.876   1.844   1.183 -0.9744 -1.7072  0.8242
  718MOL0     H96896   9.095   1.798   1.101 -2.5755  1.9213 -0.3030
  718MOL0     H96897   9.072   1.696   0.954 -0.1835  0.1748  1.4298
  718MOL0     H96898   9.291   1.717   0.967 -1.0137  0.3138  3.2399
  718MOL0     H96899   9.229   1.848   0.849  0.9173 -3.2833 -1.4910
  718MOL0     H96900   9.364   1.884   1.135  1.5355  1.9700  0.5695
  718MOL0     H96901   9.246   2.000   1.091 -0.0078 -0.8092  2.7885
  718MOL0     H96902   9.385   2.018   0.871 -0.1165 -1.8866  0.2491
  718MOL0     H96903   9.440   2.096   1.020  2.3303  0.6926  0.3170
  718MOL0     H96904   9.545   1.820   0.949  2.3373 -0.7293 -0.8196
  718MOL0     H96905   9.609   1.926   1.073 -0.6379 -2.2865  0.4568
  718MOL0     H96906   9.695   1.898   0.824 -1.5473 -1.8235 -0.9164
  718MOL0     H96907   9.600   2.028   0.783 -0.7252 -3.8868 -0.7495
  718MOL0     H96908   9.811   2.028   1.003  1.0134  0.3510 -1.6658
  718MOL0     H96909   9.689   2.156   0.985  1.4358  0.2904  1.7517
  718MOL0     H96910   9.909   2.208   0.882 -0.8853 -0.0950 -0.3274
  718MOL0     H96911   9.788   2.207   0.755 -0.5493 -0.0386 -0.3631
  718MOL0     H96912   8.843   1.862   0.764 -1.3520  1.2770 -0.4970
  718MOL0     H96913   8.583   1.830   0.785 -0.4106 -2.2273  1.3054
  718MOL0     H96914   8.280   1.870   0.894 -0.8080 -1.5302  1.4954
  718MOL0     H96915   8.045   1.896   0.803 -1.5045  0.6276  2.0327
  718MOL0     H96916   6.104   1.060   0.581  0.4188  1.1288 -0.4836
  718MOL0     H96917   5.887   0.967   0.648 -1.0799  1.3993  0.0352
  718MOL0     H96918   5.463   1.010   0.667 -2.5907  2.2520  1.2724
  718MOL0     H96919   5.233   0.878   0.725 -0.8049 -2.3942  1.0277
  718MOL0     H96920   5.047   0.837   0.847  0.8483  0.1127 -0.6520
  718MOL0     H96921   5.108   0.678   0.810 -1.1476  1.9557 -0.7574
  718MOL0     H96922   5.002   0.597   1.036 -0.1143  0.2825  1.2677
  718MOL0     H96923   4.871   0.662   0.930 -1.4096  3.2680 -0.5793
  718MOL0     H96924   4.906   0.877   1.040 -1.6691 -2.6101 -3.4483
  718MOL0     H96925   5.022   0.804   1.160  0.1776  1.7023 -0.2242
  718MOL0     H96926   4.766   0.859   1.203  2.8032  2.0860 -2.1854
  718MOL0     H96927   4.837   0.723   1.289  1.9519  0.5159  0.4798
  718MOL0     H96928   4.531   0.561   1.045 -1.8466 -0.1952  2.0363
  718MOL0     H96929   5.390   0.821   1.121 -0.6521 -1.9553 -1.4398
  718MOL0     H96930   5.592   0.910   1.073 -1.3921  0.7148  1.2283
  719MOL0     O96931   0.247   2.296   1.251 -0.2982 -0.7545  1.3309
  719MOL0     C96932   0.271   2.303   1.372 -1.0224  0.0782 -0.3014
  719MOL0     O96933   0.186   2.270   1.470  0.6052  0.0475 -0.4108
  719MOL0     C96934   0.053   2.269   1.454  0.9511  0.2817  0.7694
  719MOL0     C96935  -0.014   2.156   1.500  0.3732 -0.2020 -0.3150
  719MOL0     C96936  -0.146   2.144   1.494  0.1355 -0.7341  1.0255
  719MOL0     C96937  -0.219   2.238   1.414 -0.3060 -0.1634 -0.0020
  719MOL0     O96938  -0.353   2.216   1.401  0.5723 -0.0030 -0.0923
  719MOL0     C96939  -0.392   2.150   1.278  0.0849  0.2733 -0.2850
  719MOL0     C96940  -0.507   2.222   1.210  0.2276 -0.5447  0.1183
  719MOL0     C96941  -0.650   2.174   1.246 -0.2654  0.0834 -0.4323
  719MOL0     C96942  -0.672   2.140   1.398  0.3872  0.4695 -0.3386
  719MOL0     C96943  -0.823   2.103   1.431 -0.3283  1.2688 -0.6988
  719MOL0     C96944  -0.850   2.071   1.574  0.0379  0.1476 -0.1350
  719MOL0     C96945  -0.797   1.946   1.623 -0.1640 -0.0762  0.1642
  719MOL0     C96946  -0.849   1.932   1.768 -0.5282 -0.3026  0.3739
  719MOL0     N96947  -0.758   2.008   1.854 -0.3442  0.0061 -0.3072
  719MOL0     C96948  -0.637   1.961   1.878 -0.4437 -0.4095  0.5171
  719MOL0     C96949  -0.575   2.051   1.958 -0.4446 -0.5714  0.0808
  719MOL0     C96950  -0.439   2.050   2.017 -0.4102 -0.4048  0.8696
  719MOL0     C96951  -0.349   2.177   2.013 -0.1447  0.0774  0.2258
  719MOL0     C96952  -0.273   2.198   1.878  0.1449 -0.0620  1.0179
  719MOL0     C96953  -0.147   2.284   1.864  0.4882  0.3983 -0.2270
  719MOL0     O96954  -0.025   2.223   1.908 -1.0086 -0.0532 -0.0561
  719MOL0     C96955   0.098   2.285   1.905 -0.2374  0.0252  0.0678
  719MOL0     C96956   0.202   2.222   1.975 -0.2050 -0.9467  0.8697
  719MOL0     C96957   0.326   2.276   1.980 -0.4007  0.3436 -0.1685
  719MOL0     C96958   0.438   2.190   2.037  0.7493  0.6621  0.2402
  719MOL0     C96959   0.354   2.396   1.906 -0.4591  0.3202  1.0083
  719MOL0     C96960   0.482   2.459   1.875 -0.0309 -0.0762 -0.3416
  719MOL0     O96961   0.570   2.463   1.980 -0.5339 -0.1067 -0.4564
  719MOL0     C96962   0.681   2.557   1.975  0.5663  0.6503  0.7115
  719MOL0     C96963   0.707   2.635   2.083 -0.8536 -0.2630  0.4360
  719MOL0     C96964   0.826   2.710   2.094 -0.2526 -0.1513 -0.1387
  719MOL0     C96965   0.912   2.711   1.984  0.2898  1.2357 -0.1268
  719MOL0     O96966   1.020   2.799   1.969 -0.6845  0.4168 -1.0898
  719MOL0     C96967   1.070   2.867   2.081 -0.6396  0.0705 -0.5458
  719MOL0     C96968   1.217   2.928   2.060  0.1458 -0.7325 -0.1848
  719MOL0     C96969   1.200   3.064   2.001  0.9732  0.1185 -0.2377
  719MOL0     C96970   1.333   3.124   1.969 -0.8581  0.5305  0.3462
  719MOL0     C96971   1.324   3.270   1.925  0.8962 -0.2837 -0.2433
  719MOL0     C96972   1.458   3.312   1.879 -0.0736  0.6746  0.2117
  719MOL0     C96973   1.446   3.414   1.767 -0.0171 -0.2073 -0.7572
  719MOL0     C96974   1.586   3.448   1.720 -0.1129  0.6602 -0.1156
  719MOL0    Cl96975   1.570   3.540   1.571 -0.0414 -0.8337  0.1819
  719MOL0     C96976   0.879   2.648   1.867 -0.2764  0.1988 -0.1651
  719MOL0     C96977   0.772   2.567   1.859  0.4706  0.5179 -0.3793
  719MOL0     O96978   0.487   2.535   1.778  0.2750  0.2680  0.3404
  719MOL0     C96979   0.246   2.467   1.848 -0.4869 -0.8698 -0.3300
  719MOL0     C96980   0.117   2.415   1.851  0.0118  0.1719 -0.0546
  719MOL0     N96981  -0.661   2.159   1.961  0.1301 -0.6296  0.7323
  719MOL0     N96982  -0.776   2.129   1.906  0.6504  0.2239  0.1446
  719MOL0     C96983  -0.165   2.362   1.379 -0.9910  0.0569 -0.1801
  719MOL0     C96984  -0.020   2.375   1.396  0.4155  0.3415  0.4990
  719MOL0     C96985   0.410   2.347   1.401  0.1140  0.4256  0.0703
  719MOL0     C96986   0.499   2.398   1.298  1.0127  0.3477  0.4831
  719MOL0     C96987   0.625   2.443   1.312 -0.6674 -0.5552 -1.3464
  719MOL0     C96988   0.678   2.434   1.447  0.9573  1.0998  0.5852
  719MOL0     O96989   0.807   2.457   1.484  0.5070 -0.5858 -0.4528
  719MOL0     C96990   0.883   2.518   1.376  0.3438 -0.7111 -0.2475
  719MOL0     C96991   1.012   2.575   1.436  0.5292  0.0868  0.0014
  719MOL0     C96992   1.107   2.625   1.318  0.9453 -0.9412 -0.8709
  719MOL0     C96993   1.249   2.655   1.370 -0.2016 -0.1399 -0.4083
  719MOL0     C96994   1.333   2.668   1.253 -0.2858  0.1809  0.1068
  719MOL0     C96995   1.410   2.677   1.161 -0.9516  0.5925 -0.3563
  719MOL0     C96996   0.594   2.376   1.541  0.4389  0.0569  0.0891
  719MOL0     C96997   0.463   2.346   1.530  0.2904  0.0711  0.2565
  719MOL0     H96998   0.044   2.077   1.548  0.0858  0.4277  1.1376
  719MOL0     H96999  -0.197   2.059   1.539 -2.1175 -0.0360 -0.0475
  719MOL0     H97000  -0.308   2.157   1.208  0.5304 -0.3604  0.1717
  719MOL0     H97001  -0.412   2.044   1.298  3.5660 -0.5057 -0.2475
  719MOL0     H97002  -0.502   2.330   1.230  1.6354 -0.5552 -0.0216
  719MOL0     H97003  -0.493   2.208   1.102  1.6668  2.0714 -0.1270
  719MOL0     H97004  -0.727   2.239   1.205  0.7362  0.3706 -1.9276
  719MOL0     H97005  -0.666   2.074   1.204 -0.5553 -0.6897  1.3755
  719MOL0     H97006  -0.608   2.059   1.435  1.4805  1.5039  0.0958
  719MOL0     H97007  -0.648   2.231   1.454  0.1348 -0.2732  1.0315
  719MOL0     H97008  -0.878   2.191   1.398 -1.0363  0.8541 -0.6285
  719MOL0     H97009  -0.856   2.024   1.364  2.0357 -0.4735  0.0386
  719MOL0     H97010  -0.820   2.149   1.645  1.1778 -0.4160  0.0117
  719MOL0     H97011  -0.959   2.059   1.582 -0.0507  1.5277  1.2636
  719MOL0     H97012  -0.837   1.864   1.563 -1.2603  0.7779 -0.3082
  719MOL0     H97013  -0.689   1.936   1.611 -0.4895 -2.2197 -1.6719
  719MOL0     H97014  -0.843   1.825   1.792  0.4867 -1.3589 -3.7778
  719MOL0     H97015  -0.955   1.956   1.779 -0.8552 -1.6038  0.3431
  719MOL0     H97016  -0.594   1.870   1.838 -0.6855 -0.4646  0.3828
  719MOL0     H97017  -0.468   2.029   2.121 -0.8340  2.3330  1.3735
  719MOL0     H97018  -0.379   1.965   1.985  0.7143  0.5279  0.4462
  719MOL0     H97019  -0.265   2.167   2.082 -1.9910 -0.6490  2.4951
  719MOL0     H97020  -0.410   2.262   2.047 -0.3467  0.6719 -1.4788
  719MOL0     H97021  -0.349   2.232   1.807 -1.1917 -1.4113  1.7314
  719MOL0     H97022  -0.257   2.100   1.833  0.2864  0.7234 -0.7156
  719MOL0     H97023  -0.150   2.373   1.927  1.1208  2.4232 -2.8794
  719MOL0     H97024  -0.145   2.322   1.762 -1.2408 -1.1760 -0.9061
  719MOL0     H97025   0.183   2.140   2.043 -0.4826  1.1357  3.4576
  719MOL0     H97026   0.501   2.173   1.949 -2.4148  2.3921 -2.6016
  719MOL0     H97027   0.502   2.243   2.108  0.8770  1.7660 -0.6532
  719MOL0     H97028   0.407   2.093   2.077  1.0801  0.0822 -0.8754
  719MOL0     H97029   0.656   2.633   2.179  1.5772 -1.1036  1.8052
  719MOL0     H97030   0.856   2.764   2.184 -0.6234 -2.3308  1.3786
  719MOL0     H97031   1.007   2.952   2.110 -0.3981  0.5150 -1.2975
  719MOL0     H97032   1.069   2.790   2.158 -7.4010 -1.0298 -1.1655
  719MOL0     H97033   1.273   2.934   2.154 -0.5549  1.7634  0.1495
  719MOL0     H97034   1.263   2.863   1.986  0.3764 -1.2301  0.3914
  719MOL0     H97035   1.150   3.132   2.070  1.6850  1.1322 -0.6842
  719MOL0     H97036   1.142   3.061   1.908 -2.0567 -0.3241  1.5376
  719MOL0     H97037   1.402   3.113   2.053 -1.3094 -0.7637  0.5629
  719MOL0     H97038   1.389   3.063   1.897 -0.7577  0.1906  0.7043
  719MOL0     H97039   1.296   3.344   2.000 -1.6060  0.1109 -1.4276
  719MOL0     H97040   1.245   3.290   1.851 -0.1797  0.4024  1.0424
  719MOL0     H97041   1.514   3.357   1.961  0.5295  2.3760 -1.0609
  719MOL0     H97042   1.528   3.237   1.842 -1.3808 -0.3398 -0.3031
  719MOL0     H97043   1.395   3.504   1.805 -2.4021 -0.9109 -2.0502
  719MOL0     H97044   1.393   3.366   1.685 -0.8217 -0.5995 -0.0242
  719MOL0     H97045   1.631   3.352   1.693 -0.4153  0.2370  0.8425
  719MOL0     H97046   1.647   3.496   1.798  2.3008 -1.6990 -0.4063
  719MOL0     H97047   0.948   2.661   1.784 -0.4446  0.6247 -0.2366
  719MOL0     H97048   0.738   2.506   1.776 -1.6028  1.7570 -0.4994
  719MOL0     H97049   0.251   2.570   1.812  0.5772 -0.8901 -0.2857
  719MOL0     H97050   0.034   2.476   1.816 -0.0491 -0.9976 -2.0924
  719MOL0     H97051  -0.223   2.446   1.342  0.1644  0.7834 -0.3885
  719MOL0     H97052   0.037   2.465   1.375  1.2851 -0.4779 -0.7365
  719MOL0     H97053   0.464   2.403   1.195  1.4398  1.1293  0.3641
  719MOL0     H97054   0.690   2.468   1.229  2.4199  1.8454  1.5392
  719MOL0     H97055   0.907   2.435   1.310  0.2340  0.0697 -1.3050
  719MOL0     H97056   0.841   2.602   1.320 -0.0037 -0.7793 -0.0902
  719MOL0     H97057   1.054   2.490   1.490  0.7083  0.2842  0.1746
  719MOL0     H97058   0.992   2.648   1.515  1.3539 -0.0276  0.3220
  719MOL0     H97059   1.066   2.721   1.285  0.1686 -1.2994 -0.9536
  719MOL0     H97060   1.110   2.560   1.230  1.3414  0.9443 -2.3423
  719MOL0     H97061   1.287   2.574   1.433 -1.3672 -0.6669 -0.3641
  719MOL0     H97062   1.249   2.748   1.428  0.4005  0.2629 -1.0342
  719MOL0     H97063   1.472   2.666   1.074 -1.8533 -2.0062 -0.7545
  719MOL0     H97064   0.627   2.346   1.640 -3.8442 -1.5856  1.2175
  719MOL0     H97065   0.410   2.296   1.610  2.5767 -1.7253  0.7314
  720MOL0     O97066   1.406   1.770   8.421  0.4590  0.5587 -0.2787
  720MOL0     C97067   1.420   1.850   8.511 -0.7094 -0.0783  0.5335
  720MOL0     O97068   1.357   1.856   8.635 -0.7128 -0.1497  0.7328
  720MOL0     C97069   1.261   1.767   8.661  0.1637 -0.7862  0.2917
  720MOL0     C97070   1.148   1.744   8.584 -0.0994  0.4037  0.0944
  720MOL0     C97071   1.036   1.669   8.638 -0.0467  0.5657 -0.7660
  720MOL0     C97072   1.036   1.620   8.770 -0.1900  0.0505 -0.2869
  720MOL0     O97073   0.933   1.544   8.821  0.2344 -0.3452  0.3298
  720MOL0     C97074   0.799   1.576   8.796  0.2804 -0.7184 -0.4470
  720MOL0     C97075   0.740   1.706   8.840  0.6075  0.2373  0.5169
  720MOL0     C97076   0.581   1.712   8.814 -0.5653 -0.2259  0.0444
  720MOL0     C97077   0.539   1.720   8.664 -0.0259 -0.3760 -0.2574
  720MOL0     C97078   0.390   1.677   8.637  0.3184 -0.4267  1.3605
  720MOL0     C97079   0.292   1.760   8.723 -0.4080  0.6287  0.5845
  720MOL0     C97080   0.144   1.726   8.716  0.0915  0.2853 -0.6217
  720MOL0     C97081   0.101   1.599   8.794 -0.2115 -0.0794  0.0696
  720MOL0     N97082  -0.048   1.584   8.781 -0.0790  0.2552  0.1569
  720MOL0     C97083  -0.133   1.666   8.839  0.0176 -0.0316  0.6442
  720MOL0     C97084  -0.260   1.623   8.810  0.6149  0.1673 -0.4085
  720MOL0     C97085  -0.389   1.669   8.880 -0.4715 -0.6824  0.1709
  720MOL0     C97086  -0.442   1.562   8.980 -0.5018 -0.4150 -0.1419
  720MOL0     C97087  -0.573   1.606   9.054  0.0895 -0.0058  0.3513
  720MOL0     C97088  -0.618   1.493   9.148 -0.6547  0.3932 -0.0596
  720MOL0     O97089  -0.748   1.520   9.201 -0.7594 -0.6482 -0.1564
  720MOL0     C97090  -0.795   1.453   9.310  0.6760  0.9232 -0.9488
  720MOL0     C97091  -0.721   1.359   9.391  0.4563  0.5560  0.7087
  720MOL0     C97092  -0.784   1.294   9.504 -0.8401 -0.1005  0.7369
  720MOL0     C97093  -0.701   1.193   9.578 -0.5821 -0.4310 -0.2875
  720MOL0     C97094  -0.917   1.344   9.541  0.9191 -0.0588 -0.0196
  720MOL0     C97095  -0.992   1.299   9.663  0.7783 -0.1940 -0.4056
  720MOL0     O97096  -1.127   1.301   9.646 -0.2765 -0.2043 -0.0465
  720MOL0     C97097  -1.196   1.280   9.768 -0.2074  0.8521 -0.0934
  720MOL0     C97098  -1.265   1.384   9.812  0.1343 -0.3899 -0.7346
  720MOL0     C97099  -1.345   1.382   9.932  0.1080  1.6671 -0.2561
  720MOL0     C97100  -1.352   1.267  10.009  1.0957  1.0914  0.0136
  720MOL0     O97101  -1.433   1.253  10.123  0.2869 -0.6219 -0.1636
  720MOL0     C97102  -1.476   1.371  10.190 -0.5890 -1.7274  0.5201
  720MOL0     C97103  -1.550   1.344  10.320 -0.5782  0.6301  0.2411
  720MOL0     C97104  -1.617   1.462  10.391  0.6169 -0.2786  0.0812
  720MOL0     C97105  -1.520   1.581  10.408  0.5246  0.4026 -0.2474
  720MOL0     C97106  -1.603   1.688  10.491  0.1583 -0.1991 -0.4822
  720MOL0     C97107  -1.708   1.770  10.410  0.7237 -0.2767  0.7392
  720MOL0     C97108  -1.788   1.862  10.505 -0.2899 -0.3494  0.0847
  720MOL0     C97109  -1.913   1.930  10.436  0.0507  0.2545  0.0139
  720MOL0    Cl97110  -1.997   2.006  10.574 -0.1240 -0.0671  0.1260
  720MOL0     C97111  -1.271   1.160   9.976  0.2289  0.1014  0.1994
  720MOL0     C97112  -1.202   1.163   9.856  0.2611  0.0568  0.8675
  720MOL0     O97113  -0.927   1.279   9.766 -0.8958 -0.6928 -0.0142
  720MOL0     C97114  -0.985   1.433   9.448  0.0010 -0.5341  0.3569
  720MOL0     C97115  -0.924   1.487   9.333 -0.0213 -0.8656  0.3713
  720MOL0     N97116  -0.245   1.515   8.718  0.7130 -0.2384  0.0181
  720MOL0     N97117  -0.117   1.490   8.710 -0.3316  0.1476 -0.6284
  720MOL0     C97118   1.154   1.644   8.849  0.0126  1.1158  0.3539
  720MOL0     C97119   1.264   1.714   8.789 -0.1083  0.2504  0.2440
  720MOL0     C97120   1.528   1.959   8.491 -0.3505 -0.0191  0.1165
  720MOL0     C97121   1.546   2.015   8.357  0.3193 -0.5401  0.8624
  720MOL0     C97122   1.657   2.099   8.334  0.0997  0.7355 -0.2029
  720MOL0     C97123   1.745   2.128   8.438 -0.2848 -0.9219 -0.7606
  720MOL0     O97124   1.854   2.208   8.411 -0.2543 -0.2185  0.7076
  720MOL0     C97125   1.903   2.294   8.518 -0.3766 -0.0217 -0.1069
  720MOL0     C97126   1.966   2.422   8.459 -0.3749  0.0239  0.5270
  720MOL0     C97127   2.004   2.506   8.579 -0.2415 -0.6638 -0.2082
  720MOL0     C97128   2.083   2.632   8.520 -0.4163 -0.2838 -0.3783
  720MOL0     C97129   2.012   2.724   8.429 -0.4304  0.1875  0.6882
  720MOL0     C97130   1.959   2.806   8.365  0.4777  0.0517  0.5176
  720MOL0     C97131   1.733   2.063   8.560  0.1051  0.3493  0.1158
  720MOL0     C97132   1.618   1.993   8.592 -0.2676  0.0489  0.0646
  720MOL0     H97133   1.148   1.791   8.487 -0.6974  4.0179  1.6890
  720MOL0     H97134   0.949   1.665   8.573 -1.8764  1.1032  1.4948
  720MOL0     H97135   0.781   1.566   8.688 -2.1495  0.6386 -0.2437
  720MOL0     H97136   0.736   1.501   8.844 -0.2235 -0.6460 -0.9831
  720MOL0     H97137   0.751   1.714   8.948 -0.9889 -1.6174  0.8702
  720MOL0     H97138   0.788   1.790   8.789 -0.6886  0.7405  0.0513
  720MOL0     H97139   0.544   1.620   8.860 -1.3228  0.2554  0.3991
  720MOL0     H97140   0.546   1.805   8.859  0.6593 -0.0731  0.7251
  720MOL0     H97141   0.547   1.821   8.622  1.3837 -0.8090 -1.0923
  720MOL0     H97142   0.595   1.649   8.602  0.4404  0.3460 -0.6749
  720MOL0     H97143   0.377   1.697   8.530  0.7682  0.8859  1.5390
  720MOL0     H97144   0.379   1.569   8.649 -0.5921 -0.5898 -0.4438
  720MOL0     H97145   0.317   1.748   8.828  2.3749  1.7428  0.1237
  720MOL0     H97146   0.319   1.864   8.703  1.1434  0.3346  1.0287
  720MOL0     H97147   0.087   1.809   8.759 -0.8609 -0.4419 -0.4605
  720MOL0     H97148   0.117   1.725   8.610  0.6191  0.9466 -0.7676
  720MOL0     H97149   0.118   1.606   8.902  1.4946  1.6448 -0.2431
  720MOL0     H97150   0.167   1.518   8.763  1.8904  0.6667  2.2591
  720MOL0     H97151  -0.111   1.755   8.898 -0.6991  1.4404 -1.2281
  720MOL0     H97152  -0.374   1.767   8.927 -2.3327  0.0438 -0.6333
  720MOL0     H97153  -0.464   1.694   8.803 -0.8609  0.4550  0.8860
  720MOL0     H97154  -0.363   1.540   9.052 -0.2772 -2.1437 -0.8633
  720MOL0     H97155  -0.468   1.469   8.929 -1.0712 -1.0377  1.2261
  720MOL0     H97156  -0.654   1.634   8.987 -0.5588  1.3300  1.6246
  720MOL0     H97157  -0.554   1.695   9.114  1.4381 -1.3612  2.0599
  720MOL0     H97158  -0.537   1.483   9.222 -0.2274 -0.7020 -0.6461
  720MOL0     H97159  -0.612   1.397   9.095 -1.0328 -0.7185  1.7924
  720MOL0     H97160  -0.620   1.334   9.361  0.7964  0.6579  1.7602
  720MOL0     H97161  -0.661   1.124   9.504  0.4096 -0.4310  0.2269
  720MOL0     H97162  -0.617   1.249   9.622 -1.1847 -0.7342  1.3143
  720MOL0     H97163  -0.754   1.144   9.660 -1.3321  2.4239  1.0671
  720MOL0     H97164  -1.253   1.479   9.761 -0.7213 -0.4215 -1.0075
  720MOL0     H97165  -1.403   1.468   9.963 -1.0064 -0.0816  2.9944
  720MOL0     H97166  -1.379   1.416  10.216 -0.9538 -0.3145 -0.4764
  720MOL0     H97167  -1.533   1.436  10.124  0.5385  0.9013  1.9686
  720MOL0     H97168  -1.623   1.262  10.314  0.0825  0.0586 -0.1659
  720MOL0     H97169  -1.477   1.295  10.385  0.6721  1.0490 -0.7970
  720MOL0     H97170  -1.657   1.427  10.487 -0.1931 -2.0342 -0.8410
  720MOL0     H97171  -1.702   1.497  10.332  0.3106  1.7541  1.6123
  720MOL0     H97172  -1.430   1.558  10.466  1.4039  5.3312  0.8206
  720MOL0     H97173  -1.484   1.632  10.318 -2.0486  1.4158 -0.7844
  720MOL0     H97174  -1.530   1.753  10.542 -0.9830 -0.0892  1.0927
  720MOL0     H97175  -1.656   1.635  10.571 -0.8454  0.1974 -0.8669
  720MOL0     H97176  -1.653   1.832  10.338  1.9642  0.8254  2.5357
  720MOL0     H97177  -1.783   1.710  10.359  0.8791 -0.1143  0.3167
  720MOL0     H97178  -1.713   1.937  10.532 -0.7811  0.5419 -0.9421
  720MOL0     H97179  -1.829   1.794  10.581 -1.7372  0.3101 -0.0854
  720MOL0     H97180  -1.978   1.855  10.389 -2.2789  0.1592  3.1053
  720MOL0     H97181  -1.886   2.003  10.359 -0.9980 -0.1368 -0.7483
  720MOL0     H97182  -1.273   1.065  10.028  1.7509 -0.6818 -1.0757
  720MOL0     H97183  -1.148   1.078   9.815 -1.4819  0.5654 -2.9613
  720MOL0     H97184  -1.084   1.465   9.480  0.2184 -0.5711  1.0787
  720MOL0     H97185  -0.967   1.560   9.265 -1.5307 -1.5431  0.5602
  720MOL0     H97186   1.152   1.613   8.953 -1.7833 -1.0540 -0.2547
  720MOL0     H97187   1.359   1.744   8.833  1.2658 -1.7667 -1.2060
  720MOL0     H97188   1.480   1.995   8.273  1.8581 -1.5578 -0.1535
  720MOL0     H97189   1.669   2.140   8.234  1.7117  2.4406  0.6400
  720MOL0     H97190   1.820   2.323   8.583  0.0619  0.2611  0.3332
  720MOL0     H97191   1.978   2.237   8.574 -0.5656 -0.5686 -0.4053
  720MOL0     H97192   1.892   2.472   8.395 -0.9284  1.2475  2.0474
  720MOL0     H97193   2.054   2.408   8.396 -1.5781 -0.1398 -1.2083
  720MOL0     H97194   2.074   2.459   8.650  1.4942  1.7973 -0.1562
  720MOL0     H97195   1.918   2.538   8.638 -0.2012  1.1475 -1.0842
  720MOL0     H97196   2.167   2.590   8.464 -0.2810 -2.1012  1.0953
  720MOL0     H97197   2.115   2.690   8.606  1.7165 -2.3020  0.2868
  720MOL0     H97198   1.904   2.873   8.302 -1.9308 -1.4710  0.8731
  720MOL0     H97199   1.810   2.089   8.633  1.9666 -0.9837 -1.2825
  720MOL0     H97200   1.600   1.962   8.694  1.7258  1.5872  0.9394
  721MOL0     O97201   7.998   8.075   9.144 -0.7495  0.7831 -0.8281
  721MOL0     C97202   8.065   8.177   9.147  1.0761 -0.6758  1.0090
  721MOL0     O97203   8.024   8.296   9.090  0.2650  0.1494 -0.7788
  721MOL0     C97204   7.897   8.305   9.058  0.1123 -0.1865 -0.2043
  721MOL0     C97205   7.860   8.292   8.925  0.0150  0.1400  0.8728
  721MOL0     C97206   7.723   8.283   8.883  0.3969 -0.9683  0.3393
  721MOL0     C97207   7.626   8.306   8.977  0.6999  0.0473 -0.1168
  721MOL0     O97208   7.496   8.301   8.920  0.1805 -0.4158 -0.2291
  721MOL0     C97209   7.387   8.314   9.012  0.5752  0.6813  0.8106
  721MOL0     C97210   7.250   8.308   8.922 -0.2528 -0.6170 -0.0176
  721MOL0     C97211   7.225   8.161   8.873 -0.1402  0.2461  0.2728
  721MOL0     C97212   7.166   8.069   8.980 -0.6747  0.3058 -0.3123
  721MOL0     C97213   7.176   7.917   8.955 -0.5810 -0.6374  0.5404
  721MOL0     C97214   7.088   7.873   8.846 -0.4038  0.2579  0.1865
  721MOL0     C97215   7.107   7.715   8.829 -0.0266  0.1931 -1.1684
  721MOL0     C97216   7.061   7.655   8.700  1.2075  0.3514 -0.7710
  721MOL0     N97217   6.915   7.678   8.676 -0.0261 -0.2119  0.5385
  721MOL0     C97218   6.827   7.592   8.728  1.2943  0.5215  0.1984
  721MOL0     C97219   6.710   7.640   8.686  0.2868  0.4268  0.3289
  721MOL0     C97220   6.571   7.592   8.724  0.5329  0.1891 -0.1138
  721MOL0     C97221   6.493   7.502   8.619  0.7289 -1.4154  0.7197
  721MOL0     C97222   6.439   7.583   8.502 -0.2996 -0.8715  0.5744
  721MOL0     C97223   6.372   7.512   8.384 -0.5838  1.3620 -0.1036
  721MOL0     O97224   6.324   7.389   8.451 -0.2299 -0.8171 -0.7006
  721MOL0     C97225   6.188   7.363   8.460 -0.3795 -0.5756  0.2981
  721MOL0     C97226   6.145   7.249   8.387  0.7323 -0.0330 -0.7756
  721MOL0     C97227   6.013   7.214   8.396 -0.2721 -0.5613 -0.2139
  721MOL0     C97228   5.977   7.073   8.335 -0.8834 -0.5067  0.4263
  721MOL0     C97229   5.921   7.292   8.480  0.4671 -0.3362 -0.0457
  721MOL0     C97230   5.775   7.266   8.501  0.2896 -0.9172 -0.0178
  721MOL0     O97231   5.718   7.171   8.427 -0.3477  0.2600  0.1844
  721MOL0     C97232   5.585   7.191   8.423 -0.1078  0.0462  0.0327
  721MOL0     C97233   5.526   7.276   8.329 -0.5047 -1.0905 -0.9695
  721MOL0     C97234   5.392   7.296   8.327  1.1547  0.0609  0.3252
  721MOL0     C97235   5.304   7.217   8.405  0.7285 -0.0032 -0.3539
  721MOL0     O97236   5.171   7.248   8.402 -0.4477 -0.8030  0.0088
  721MOL0     C97237   5.080   7.146   8.450  0.5716  0.1170 -0.3324
  721MOL0     C97238   4.954   7.139   8.366  0.3412 -0.0663 -0.9492
  721MOL0     C97239   4.961   7.055   8.239 -1.3281 -0.5550  1.3426
  721MOL0     C97240   4.837   7.083   8.152 -0.0858 -0.3702  0.0248
  721MOL0     C97241   4.872   7.048   8.001  0.4283  0.2378 -0.3044
  721MOL0     C97242   4.768   7.115   7.911  0.3406  0.3151  0.3038
  721MOL0     C97243   4.786   7.078   7.767  0.6199  0.5718  0.8549
  721MOL0     C97244   4.775   7.194   7.667 -0.8386 -0.0572 -0.0020
  721MOL0    Cl97245   4.597   7.242   7.644 -0.0691  0.0963 -0.2416
  721MOL0     C97246   5.363   7.137   8.505  0.7307 -0.6852 -0.2474
  721MOL0     C97247   5.499   7.121   8.512 -0.4298  0.1314  0.7297
  721MOL0     O97248   5.716   7.327   8.597 -0.0840  0.1342  0.3972
  721MOL0     C97249   5.969   7.413   8.539  0.3273  0.2926 -0.9366
  721MOL0     C97250   6.097   7.448   8.522  0.5116 -0.0267  0.0570
  721MOL0     N97251   6.729   7.749   8.596 -0.8907  0.8174 -0.2069
  721MOL0     N97252   6.859   7.767   8.596 -0.2876 -0.1196 -0.1020
  721MOL0     C97253   7.656   8.337   9.111  0.4017  0.8353  0.2456
  721MOL0     C97254   7.792   8.339   9.152 -0.5266 -0.7273  0.9986
  721MOL0     C97255   8.186   8.172   9.223  0.6267  0.6817 -0.0915
  721MOL0     C97256   8.285   8.270   9.206  0.1006  0.2401  0.1232
  721MOL0     C97257   8.399   8.276   9.279  0.0637 -0.1207 -0.3379
  721MOL0     C97258   8.429   8.167   9.366 -0.0557 -0.7009 -0.8978
  721MOL0     O97259   8.554   8.143   9.425  0.0906  0.1968  0.4563
  721MOL0     C97260   8.640   8.258   9.436 -0.0213 -0.8058  0.1979
  721MOL0     C97261   8.771   8.244   9.516  0.0577 -0.2468 -0.5847
  721MOL0     C97262   8.875   8.153   9.451  0.2163  0.9182  0.2204
  721MOL0     C97263   9.001   8.146   9.541  0.3301 -0.3008 -0.4937
  721MOL0     C97264   9.083   8.268   9.537 -0.3630 -0.0754  0.0911
  721MOL0     C97265   9.155   8.367   9.538 -0.7900 -0.2388 -0.1533
  721MOL0     C97266   8.331   8.071   9.381  0.6962 -0.4725 -0.1951
  721MOL0     C97267   8.210   8.073   9.318  0.1051 -0.6474 -0.4728
  721MOL0     H97268   7.935   8.272   8.849 -0.0802  0.2178  0.7575
  721MOL0     H97269   7.699   8.285   8.778  2.1044  0.8203 -0.0926
  721MOL0     H97270   7.399   8.234   9.086  3.3242  2.9708  3.1120
  721MOL0     H97271   7.383   8.412   9.062  3.5598  1.4076 -0.1336
  721MOL0     H97272   7.160   8.345   8.974  0.9815 -0.7814  2.4003
  721MOL0     H97273   7.258   8.372   8.834 -1.1478  0.9085  0.9670
  721MOL0     H97274   7.161   8.162   8.784 -0.9707  2.2998  0.8390
  721MOL0     H97275   7.327   8.132   8.849  0.3265  2.3264 -0.4221
  721MOL0     H97276   7.233   8.094   9.062  0.5815  0.4568 -1.3385
  721MOL0     H97277   7.062   8.097   8.996 -1.0881 -2.0656  1.7424
  721MOL0     H97278   7.278   7.895   8.922 -0.4380  0.2359  0.3628
  721MOL0     H97279   7.157   7.873   9.053  4.0969  1.6951  2.8159
  721MOL0     H97280   6.984   7.896   8.871 -0.3403  0.8215 -0.0625
  721MOL0     H97281   7.111   7.928   8.754 -0.5546  0.7720  0.4516
  721MOL0     H97282   7.213   7.689   8.839  0.8606  4.0389  1.6320
  721MOL0     H97283   7.054   7.664   8.910  1.6230 -0.5973 -0.5427
  721MOL0     H97284   7.086   7.549   8.704 -0.6140 -0.0888 -0.1765
  721MOL0     H97285   7.114   7.714   8.625 -1.3143  2.0824 -1.3374
  721MOL0     H97286   6.846   7.515   8.802  0.6974 -0.3663 -0.5627
  721MOL0     H97287   6.575   7.522   8.809  2.3478 -1.3319 -1.3832
  721MOL0     H97288   6.498   7.667   8.755 -1.3065 -1.5530  0.0295
  721MOL0     H97289   6.404   7.465   8.671 -1.4299 -0.1742 -1.8747
  721MOL0     H97290   6.552   7.416   8.585 -0.6641 -1.3619 -2.0618
  721MOL0     H97291   6.519   7.645   8.460 -1.1554  0.8217  1.3664
  721MOL0     H97292   6.365   7.649   8.547 -0.7832 -0.4207 -0.8578
  721MOL0     H97293   6.452   7.497   8.311 -0.6403 -2.0213  0.3805
  721MOL0     H97294   6.295   7.574   8.338 -1.2853 -1.2626 -2.7955
  721MOL0     H97295   6.213   7.175   8.347  0.1854 -0.5001 -0.8481
  721MOL0     H97296   5.897   7.092   8.264 -0.1493 -0.6274 -0.4556
  721MOL0     H97297   6.061   7.029   8.279 -1.3163 -0.9607  0.1280
  721MOL0     H97298   5.953   7.002   8.415 -1.4873 -1.0990 -0.2707
  721MOL0     H97299   5.579   7.341   8.260  0.1257  2.3266  2.3762
  721MOL0     H97300   5.348   7.370   8.261  2.3476  1.6895  1.2775
  721MOL0     H97301   5.122   7.045   8.449  0.7562  0.1891 -1.8307
  721MOL0     H97302   5.052   7.169   8.554  0.4459 -2.4082  0.2582
  721MOL0     H97303   4.891   7.081   8.434  2.5495 -1.0212  0.3531
  721MOL0     H97304   4.915   7.241   8.360  0.8941  0.4262  2.1709
  721MOL0     H97305   4.968   6.947   8.254  0.1118 -0.8086 -0.7379
  721MOL0     H97306   5.057   7.079   8.192 -0.9028 -1.7038  1.5937
  721MOL0     H97307   4.751   7.029   8.192 -0.9349  1.1496  0.2988
  721MOL0     H97308   4.815   7.190   8.154  1.0432 -0.1232  1.2962
  721MOL0     H97309   4.869   6.942   7.974 -1.7180 -0.5978  2.7349
  721MOL0     H97310   4.972   7.088   7.986  0.7241 -0.3616  0.0354
  721MOL0     H97311   4.669   7.084   7.944 -0.1341  0.9321 -0.5176
  721MOL0     H97312   4.779   7.223   7.913  3.2023  0.1474 -1.3557
  721MOL0     H97313   4.711   7.002   7.741 -2.4424  4.1653 -2.2191
  721MOL0     H97314   4.886   7.035   7.767 -0.2500 -1.6553 -1.0731
  721MOL0     H97315   4.800   7.161   7.566 -0.2825  0.1126  0.0786
  721MOL0     H97316   4.836   7.280   7.696  0.2138 -0.6561 -0.4169
  721MOL0     H97317   5.309   7.080   8.581  1.5056 -0.1914  0.7068
  721MOL0     H97318   5.543   7.068   8.595 -0.1203  0.5063  0.8083
  721MOL0     H97319   5.914   7.478   8.606  0.7720 -0.6363  0.3742
  721MOL0     H97320   6.126   7.530   8.587  1.4381 -1.3713  1.3951
  721MOL0     H97321   7.578   8.357   9.184  0.2318  0.1489  0.2573
  721MOL0     H97322   7.831   8.353   9.253  1.1354 -1.1389  0.4445
  721MOL0     H97323   8.268   8.351   9.135 -2.3859 -1.1668 -1.0302
  721MOL0     H97324   8.475   8.350   9.255  2.5525 -3.0954 -2.5098
  721MOL0     H97325   8.674   8.290   9.337  0.7153 -0.5643  0.5274
  721MOL0     H97326   8.583   8.343   9.475  1.6359 -0.3311  1.7061
  721MOL0     H97327   8.744   8.205   9.614 -1.6027  0.7594 -0.5956
  721MOL0     H97328   8.813   8.341   9.544  0.5339 -0.7983  0.6764
  721MOL0     H97329   8.902   8.193   9.353  0.6329  2.0338  0.7727
  721MOL0     H97330   8.838   8.050   9.440  1.1461  0.2943  2.4235
  721MOL0     H97331   9.066   8.066   9.503  0.6775 -0.3062  0.1039
  721MOL0     H97332   8.971   8.128   9.644 -0.0216 -1.0734 -0.7227
  721MOL0     H97333   9.192   8.467   9.542 -0.1054 -0.4564 -0.7432
  721MOL0     H97334   8.347   7.987   9.447 -0.8341 -1.1229 -0.6288
  721MOL0     H97335   8.145   7.989   9.339 -1.8302  0.8645 -0.0975
  722MOL0     O97336   2.453  10.937  10.764 -0.0847 -0.1513 -0.0185
  722MOL0     C97337   2.461  11.030  10.688  0.1410  0.6236 -0.5795
  722MOL0     O97338   2.355  11.100  10.645  0.2342  0.2270  0.4635
  722MOL0     C97339   2.230  11.071  10.700  0.4149  0.3141  0.5412
  722MOL0     C97340   2.166  10.942  10.695  0.0460 -0.8346  0.5902
  722MOL0     C97341   2.041  10.923  10.754  0.1504  0.6925 -0.5763
  722MOL0     C97342   1.966  11.025  10.794 -0.1447 -0.9785 -0.5128
  722MOL0     O97343   1.845  10.984  10.840  0.8856  0.9383  0.0266
  722MOL0     C97344   1.756  11.096  10.859  0.4097  0.9512  0.8354
  722MOL0     C97345   1.621  11.035  10.869 -0.0793  0.5879  0.0900
  722MOL0     C97346   1.573  10.991  10.728 -0.3400 -0.1397 -0.2713
  722MOL0     C97347   1.466  10.886  10.732  0.3735  0.4199 -0.2056
  722MOL0     C97348   1.408  10.869  10.584 -0.2009 -0.2665 -0.3133
  722MOL0     C97349   1.321  10.744  10.590  0.8868  0.0169  0.7664
  722MOL0     C97350   1.399  10.615  10.585  0.4558 -0.5096 -0.4504
  722MOL0     C97351   1.310  10.484  10.581  0.3188 -0.0995  0.9468
  722MOL0     N97352   1.397  10.373  10.603  0.5771 -0.1003 -0.1401
  722MOL0     C97353   1.469  10.299  10.514 -0.6572 -0.0783 -0.1092
  722MOL0     C97354   1.533  10.206  10.582  0.4917  0.2511 -0.6352
  722MOL0     C97355   1.639  10.114  10.527 -0.5473  0.4798  1.0868
  722MOL0     C97356   1.787  10.174  10.520  0.3664  0.1797  0.2926
  722MOL0     C97357   1.795  10.313  10.452  0.9742 -0.3284  0.2021
  722MOL0     C97358   1.943  10.343  10.439 -0.5465 -0.1829  0.5439
  722MOL0     O97359   2.002  10.262  10.335 -0.1526  0.5777 -0.0033
  722MOL0     C97360   2.123  10.306  10.281  0.4159  0.5184  0.0901
  722MOL0     C97361   2.172  10.236  10.173  0.5615  0.5070  0.0838
  722MOL0     C97362   2.302  10.267  10.113  0.1578 -0.0417  0.4932
  722MOL0     C97363   2.349  10.184   9.997 -0.6659 -0.1547 -0.1684
  722MOL0     C97364   2.375  10.379  10.167 -0.8873  0.0714 -0.9782
  722MOL0     C97365   2.521  10.414  10.114  0.6640 -0.6211 -0.0443
  722MOL0     O97366   2.598  10.312  10.087 -0.1858 -0.4740 -1.0872
  722MOL0     C97367   2.730  10.343  10.036 -0.5467 -0.6749  0.2066
  722MOL0     C97368   2.828  10.413  10.108 -0.6189 -0.2661 -0.1555
  722MOL0     C97369   2.956  10.452  10.054 -0.3663  0.7262 -0.4497
  722MOL0     C97370   2.983  10.418   9.930  0.4203  0.1302  0.3696
  722MOL0     O97371   3.100  10.464   9.870  0.8778 -0.4181  0.7573
  722MOL0     C97372   3.084  10.520   9.741  0.2779 -0.0737 -0.7678
  722MOL0     C97373   3.199  10.605   9.733 -0.0765 -0.2064 -0.6957
  722MOL0     C97374   3.332  10.528   9.723  0.3468 -0.3856  0.0800
  722MOL0     C97375   3.454  10.617   9.706  0.5377  0.2465 -0.7624
  722MOL0     C97376   3.589  10.529   9.724 -0.2024 -0.1240  0.9991
  722MOL0     C97377   3.643  10.462   9.597 -0.1798  0.2574 -0.1067
  722MOL0     C97378   3.752  10.351   9.629  1.0927 -0.5250  0.5663
  722MOL0     C97379   3.815  10.289   9.501  0.5629 -0.2901  0.3102
  722MOL0    Cl97380   3.871  10.121   9.536 -0.7062 -0.1822 -0.3696
  722MOL0     C97381   2.888  10.345   9.850  0.6487  0.7079 -0.4147
  722MOL0     C97382   2.767  10.308   9.904  0.1341  0.6306 -0.5145
  722MOL0     O97383   2.545  10.531  10.091  1.0532 -0.6871  0.1595
  722MOL0     C97384   2.318  10.459  10.267 -0.5633 -0.3479 -0.4243
  722MOL0     C97385   2.202  10.413  10.326  0.3203  1.1570 -0.7559
  722MOL0     N97386   1.523  10.240  10.719 -0.5802  0.7642  0.5715
  722MOL0     N97387   1.432  10.335  10.723 -0.0712  0.2026  0.7340
  722MOL0     C97388   2.021  11.156  10.800  0.3264 -0.3869 -0.3386
  722MOL0     C97389   2.150  11.175  10.754 -0.7608  0.4670  0.5368
  722MOL0     C97390   2.592  11.058  10.643  0.4461  0.3174 -0.8053
  722MOL0     C97391   2.613  11.179  10.564  0.2859 -0.3913  1.0678
  722MOL0     C97392   2.738  11.210  10.516 -0.0988 -0.0666  1.1983
  722MOL0     C97393   2.844  11.137  10.539 -0.1532 -0.3047 -1.1578
  722MOL0     O97394   2.957  11.167  10.471 -0.0734 -0.1427  0.3431
  722MOL0     C97395   3.075  11.097  10.504 -0.1284  0.3215  0.5485
  722MOL0     C97396   3.178  11.137  10.402 -0.3434  0.6122 -0.3712
  722MOL0     C97397   3.228  11.287  10.417 -0.4414  0.3725  0.5144
  722MOL0     C97398   3.274  11.314  10.565 -0.0959 -0.5660  0.4589
  722MOL0     C97399   3.380  11.417  10.568  0.0274 -0.6337  0.7608
  722MOL0     C97400   3.464  11.502  10.558 -0.3053  0.0458 -0.5047
  722MOL0     C97401   2.834  11.026  10.626  0.6955  0.1634 -0.0051
  722MOL0     C97402   2.707  10.982  10.673 -0.3655 -0.3822 -0.0906
  722MOL0     H97403   2.230  10.861  10.662 -0.0509 -0.1195 -1.5236
  722MOL0     H97404   1.999  10.823  10.753 -1.4403  1.3320 -1.4024
  722MOL0     H97405   1.772  11.141  10.957  0.2039  1.2201  0.7469
  722MOL0     H97406   1.766  11.171  10.779 -0.7685 -0.5724 -0.8159
  722MOL0     H97407   1.630  10.939  10.921  2.3936 -1.0982 -3.0881
  722MOL0     H97408   1.551  11.102  10.920 -1.3388  0.2872 -1.1839
  722MOL0     H97409   1.535  11.081  10.678 -0.1581 -0.1358 -0.4027
  722MOL0     H97410   1.655  10.956  10.664 -0.3859  1.3184 -1.1812
  722MOL0     H97411   1.506  10.788  10.759  0.1984 -0.1329 -1.8523
  722MOL0     H97412   1.385  10.908  10.803  1.8411  1.3300  1.2704
  722MOL0     H97413   1.347  10.953  10.549 -0.7423 -0.4872  0.0869
  722MOL0     H97414   1.496  10.858  10.519 -0.0997  1.8686 -0.5848
  722MOL0     H97415   1.265  10.746  10.684 -2.5961  0.0595 -1.1406
  722MOL0     H97416   1.257  10.748  10.501  2.1038  1.2487 -0.0818
  722MOL0     H97417   1.470  10.622  10.502  1.6300  1.6144  0.6360
  722MOL0     H97418   1.463  10.623  10.674  1.5274  1.0981 -1.3080
  722MOL0     H97419   1.255  10.478  10.487 -0.6454  1.4565  1.3597
  722MOL0     H97420   1.233  10.479  10.659  0.3802  0.3952  1.0447
  722MOL0     H97421   1.477  10.325  10.409  0.3476  0.2935  0.0524
  722MOL0     H97422   1.633  10.018  10.578 -1.1301  0.3844  0.8530
  722MOL0     H97423   1.605  10.099  10.424 -2.5541  0.7993  1.6533
  722MOL0     H97424   1.851  10.110  10.458 -1.4620 -1.7354  0.2917
  722MOL0     H97425   1.830  10.170  10.620 -4.8638  0.0947  2.8759
  722MOL0     H97426   1.743  10.392  10.506  0.3065 -0.6968  0.1086
  722MOL0     H97427   1.749  10.308  10.353 -0.3215  2.2501  0.5913
  722MOL0     H97428   1.990  10.316  10.534  2.5762 -0.1219 -0.8655
  722MOL0     H97429   1.962  10.448  10.416 -0.2929 -0.0960  1.1278
  722MOL0     H97430   2.101  10.166  10.130 -1.8565  2.9631 -0.2446
  722MOL0     H97431   2.271  10.126   9.947 -1.8712  1.9930 -0.9020
  722MOL0     H97432   2.384  10.257   9.924 -1.5328  0.9199  0.4660
  722MOL0     H97433   2.431  10.117  10.024 -0.0925  0.3290 -0.6937
  722MOL0     H97434   2.808  10.447  10.209 -0.2926 -1.1106  0.1988
  722MOL0     H97435   3.025  10.520  10.102  2.2052  0.6038 -3.6235
  722MOL0     H97436   3.085  10.440   9.667 -1.3787 -1.6833  0.8486
  722MOL0     H97437   2.989  10.574   9.742  0.7662  0.8094 -0.9446
  722MOL0     H97438   3.182  10.659   9.639 -1.5948  2.3761  0.9588
  722MOL0     H97439   3.195  10.678   9.814  0.6969  0.6434 -1.3960
  722MOL0     H97440   3.329  10.459   9.638 -2.3756  1.1397 -1.1790
  722MOL0     H97441   3.343  10.472   9.816  0.4598  3.1388  2.3796
  722MOL0     H97442   3.446  10.678   9.616 -2.3736 -0.1291 -0.8658
  722MOL0     H97443   3.443  10.694   9.783  1.1914  2.2871 -2.6195
  722MOL0     H97444   3.579  10.462   9.810 -1.6696 -0.9627  0.2129
  722MOL0     H97445   3.674  10.594   9.747 -0.0336  0.6643 -1.5623
  722MOL0     H97446   3.558  10.425   9.537  0.3932 -1.0301 -0.1508
  722MOL0     H97447   3.679  10.541   9.530 -0.3673  0.2943 -0.1655
  722MOL0     H97448   3.723  10.277   9.705  0.2744 -0.7015  0.0904
  722MOL0     H97449   3.828  10.416   9.674 -0.1902  2.1369 -0.8738
  722MOL0     H97450   3.900  10.344   9.461 -1.9469  3.9386  0.2642
  722MOL0     H97451   3.737  10.275   9.425 -1.4222  0.1977  2.1449
  722MOL0     H97452   2.920  10.321   9.749  2.6739  3.6965 -0.6289
  722MOL0     H97453   2.702  10.246   9.842  0.0621 -0.7590  0.8800
  722MOL0     H97454   2.372  10.547  10.301 -1.0480  0.9756 -2.8295
  722MOL0     H97455   2.180  10.453  10.425  1.9709  0.7370 -0.1737
  722MOL0     H97456   1.968  11.245  10.831  2.1636  0.6552 -0.0516
  722MOL0     H97457   2.197  11.273  10.751  0.3006 -0.0445 -1.6401
  722MOL0     H97458   2.532  11.242  10.529  0.3238 -1.4013 -0.9922
  722MOL0     H97459   2.753  11.293  10.447 -1.7039 -0.7265  0.0166
  722MOL0     H97460   3.106  11.115  10.607  0.6046 -1.0339  0.5947
  722MOL0     H97461   3.069  10.989  10.490  1.9860  0.2638 -0.3858
  722MOL0     H97462   3.119  11.134  10.310 -0.2593  3.9565 -0.6492
  722MOL0     H97463   3.265  11.071  10.401  0.6142  1.8186 -0.1550
  722MOL0     H97464   3.148  11.354  10.387 -0.8174 -0.1930  0.2313
  722MOL0     H97465   3.314  11.282  10.349  2.1283 -3.8291  3.5676
  722MOL0     H97466   3.317  11.219  10.600  0.0272 -1.2203 -1.3479
  722MOL0     H97467   3.189  11.340  10.628  1.0517  1.8038  1.1432
  722MOL0     H97468   3.547  11.569  10.556  0.7044 -1.1154  0.6708
  722MOL0     H97469   2.922  10.974  10.664 -0.6568 -1.6597  0.7801
  722MOL0     H97470   2.723  10.892  10.733  0.5962 -0.3617 -0.3007
  723MOL0     O97471   8.909   4.898   9.514 -0.3009 -0.0475 -0.3628
  723MOL0     C97472   8.907   4.885   9.393 -0.5121 -0.3895 -0.3314
  723MOL0     O97473   8.800   4.863   9.308  0.2431  1.3770 -0.1130
  723MOL0     C97474   8.670   4.856   9.356 -0.3817 -0.3468  0.4365
  723MOL0     C97475   8.586   4.755   9.302 -0.6154 -0.5026 -0.1411
  723MOL0     C97476   8.453   4.741   9.348 -0.3445  0.0511 -0.4953
  723MOL0     C97477   8.395   4.847   9.438 -0.4230  1.0920  0.4064
  723MOL0     O97478   8.264   4.861   9.482  0.7033  0.2389 -0.1346
  723MOL0     C97479   8.164   4.777   9.424  0.3065 -0.5262 -0.6926
  723MOL0     C97480   8.029   4.825   9.485 -0.0237  0.4594  0.5016
  723MOL0     C97481   8.017   4.790   9.630  0.0424 -0.1833  0.4646
  723MOL0     C97482   7.886   4.824   9.683  0.0139  0.9442 -0.3898
  723MOL0     C97483   7.874   4.812   9.837 -0.8449  0.3815 -0.3598
  723MOL0     C97484   7.744   4.847   9.901 -0.3763 -0.1030  0.1788
  723MOL0     C97485   7.705   4.995   9.894  0.0634 -0.4258  0.6296
  723MOL0     C97486   7.560   5.026   9.944 -0.7678 -1.1437 -0.3685
  723MOL0     N97487   7.452   4.945   9.879 -0.1836  0.7637  0.0210
  723MOL0     C97488   7.422   4.936   9.740  1.0700 -0.9789  0.0293
  723MOL0     C97489   7.322   4.840   9.724 -0.6493 -0.1318 -0.0022
  723MOL0     C97490   7.260   4.805   9.591 -0.3075  0.0368  1.0563
  723MOL0     C97491   7.114   4.832   9.590 -1.3481  0.1228 -1.0374
  723MOL0     C97492   7.076   4.982   9.616 -0.8825 -0.9408 -0.7646
  723MOL0     C97493   6.929   5.020   9.620  0.2522 -0.1011 -0.1887
  723MOL0     O97494   6.865   4.927   9.706  0.5145  0.7293  0.3450
  723MOL0     C97495   6.740   4.963   9.762 -0.3999  0.2071 -0.6025
  723MOL0     C97496   6.679   4.869   9.836  1.0595 -0.5639  0.3697
  723MOL0     C97497   6.555   4.883   9.888 -0.3999 -0.1701  0.3350
  723MOL0     C97498   6.489   4.770   9.947 -0.4826 -0.1759 -0.7904
  723MOL0     C97499   6.486   5.005   9.865 -0.4387 -0.3002  0.4863
  723MOL0     C97500   6.345   5.038   9.903  0.7750 -0.7565 -1.0657
  723MOL0     O97501   6.284   4.990  10.019 -0.5686 -0.3362  0.0970
  723MOL0     C97502   6.168   5.047  10.057 -0.2249 -0.1772  0.9015
  723MOL0     C97503   6.055   4.971  10.055  0.6085 -0.4897  0.1515
  723MOL0     C97504   5.926   5.025  10.086  0.5543 -0.0001  0.1631
  723MOL0     C97505   5.913   5.161  10.123  0.3151  0.5335 -0.6902
  723MOL0     O97506   5.792   5.221  10.143 -0.0325 -0.0152  0.7423
  723MOL0     C97507   5.673   5.147  10.106 -0.0821  1.0717  0.1861
  723MOL0     C97508   5.544   5.223  10.107  0.5036 -0.1903  0.8696
  723MOL0     C97509   5.422   5.129  10.110 -0.3688  0.3522 -0.4207
  723MOL0     C97510   5.295   5.210  10.099 -0.2398  0.5424 -0.1184
  723MOL0     C97511   5.162   5.135  10.140 -0.4976 -0.6321 -0.9286
  723MOL0     C97512   5.022   5.206  10.131  1.1331  0.0237 -0.1835
  723MOL0     C97513   4.908   5.108  10.093  0.1636 -0.3776  0.3520
  723MOL0     C97514   4.892   4.993  10.184  0.1695  0.6414 -0.3295
  723MOL0    Cl97515   4.740   4.915  10.172  0.2221  0.3088 -0.0725
  723MOL0     C97516   6.027   5.236  10.128  1.0700  0.7597  0.0799
  723MOL0     C97517   6.153   5.180  10.089  0.2093 -0.3880 -0.1833
  723MOL0     O97518   6.291   5.124   9.832  0.2759 -0.0442  0.5499
  723MOL0     C97519   6.553   5.103   9.791 -0.3765 -0.4333 -0.1938
  723MOL0     C97520   6.679   5.087   9.741  0.1530  0.9355 -0.0514
  723MOL0     N97521   7.292   4.797   9.852  0.5984 -0.2804  0.3810
  723MOL0     N97522   7.369   4.857   9.940 -0.3373  0.2173  0.2312
  723MOL0     C97523   8.479   4.953   9.472  0.4367  0.6434 -1.1205
  723MOL0     C97524   8.615   4.946   9.443  0.1202 -0.3062  0.3805
  723MOL0     C97525   9.040   4.877   9.328  0.6834  1.1943 -0.1856
  723MOL0     C97526   9.162   4.883   9.400 -0.6387  0.1217  0.2451
  723MOL0     C97527   9.286   4.882   9.325  0.2316 -0.1725  0.2996
  723MOL0     C97528   9.285   4.890   9.187  0.6244 -0.2964  0.4988
  723MOL0     O97529   9.393   4.915   9.108  0.1600 -0.8437  0.3967
  723MOL0     C97530   9.521   4.896   9.158  0.1261  0.3050  0.3833
  723MOL0     C97531   9.624   4.907   9.053  0.2572  0.1836  0.1288
  723MOL0     C97532   9.653   4.781   8.974 -1.3122 -1.0031  0.8769
  723MOL0     C97533   9.537   4.734   8.879  0.1001  0.4360  0.3657
  723MOL0     C97534   9.553   4.815   8.755 -0.5485 -0.2776  0.9759
  723MOL0     C97535   9.570   4.896   8.660 -0.0198  0.5943 -0.5472
  723MOL0     C97536   9.168   4.883   9.113  0.1197  0.3097  0.4471
  723MOL0     C97537   9.045   4.872   9.186 -0.9918  0.6650 -0.5345
  723MOL0     H97538   8.633   4.686   9.232 -0.3414 -2.5010  1.9014
  723MOL0     H97539   8.392   4.660   9.309  2.7910 -2.4362 -0.7040
  723MOL0     H97540   8.152   4.797   9.318 -0.7054  0.1761 -0.4558
  723MOL0     H97541   8.177   4.669   9.435  4.8715 -0.9374 -5.8523
  723MOL0     H97542   8.007   4.932   9.470 -2.3052  0.0754  0.7707
  723MOL0     H97543   7.946   4.770   9.441  1.7287 -1.7111 -0.2365
  723MOL0     H97544   8.020   4.680   9.623 -1.7097 -0.1651 -2.1241
  723MOL0     H97545   8.100   4.825   9.691  1.4654  1.6117 -2.3216
  723MOL0     H97546   7.871   4.929   9.658 -0.2208  0.7037 -1.3005
  723MOL0     H97547   7.809   4.764   9.633 -1.3284  2.9012 -0.7753
  723MOL0     H97548   7.907   4.709   9.856 -1.9556 -0.4171 -2.3696
  723MOL0     H97549   7.941   4.882   9.886 -3.0179 -0.3283  4.1761
  723MOL0     H97550   7.670   4.779   9.858  2.5048 -4.0122  0.7931
  723MOL0     H97551   7.741   4.814  10.005  1.4580 -1.5154 -0.1548
  723MOL0     H97552   7.780   5.043   9.957  0.7200 -1.4661  0.6637
  723MOL0     H97553   7.719   5.043   9.797  1.0641  0.4236  1.1751
  723MOL0     H97554   7.538   5.133   9.935 -0.0524 -0.8287  1.2278
  723MOL0     H97555   7.559   4.988  10.047  1.8116 -2.6122 -0.8151
  723MOL0     H97556   7.468   4.991   9.659  0.8538  0.5417  0.9084
  723MOL0     H97557   7.300   4.864   9.508 -1.3480  0.8854  1.1401
  723MOL0     H97558   7.272   4.698   9.574 -0.2854  0.0260  1.1396
  723MOL0     H97559   7.066   4.767   9.664  0.9716 -1.6059 -0.9375
  723MOL0     H97560   7.079   4.800   9.492  0.0793 -0.9984 -1.2029
  723MOL0     H97561   7.123   5.041   9.537 -1.8987 -1.4724 -1.7816
  723MOL0     H97562   7.119   5.020   9.710  1.8750 -1.6830 -1.6202
  723MOL0     H97563   6.892   5.003   9.519  0.5317  1.9642 -0.6908
  723MOL0     H97564   6.929   5.120   9.665  1.2362  0.2041 -0.8468
  723MOL0     H97565   6.728   4.774   9.857 -1.6017 -1.7808  1.5252
  723MOL0     H97566   6.521   4.683   9.889 -1.4045 -0.1413 -1.3809
  723MOL0     H97567   6.517   4.765  10.053 -0.4734 -2.1834 -0.8493
  723MOL0     H97568   6.381   4.754   9.942 -0.4784  0.1267 -4.4870
  723MOL0     H97569   6.066   4.866  10.029  0.1664  0.0315 -2.4007
  723MOL0     H97570   5.840   4.961  10.069  0.2157  1.0525 -2.3935
  723MOL0     H97571   5.694   5.100  10.009  1.9220  0.7557  0.7467
  723MOL0     H97572   5.668   5.066  10.179 -1.3224  0.4967 -0.5043
  723MOL0     H97573   5.541   5.284  10.198  1.3403 -1.3320  1.6942
  723MOL0     H97574   5.541   5.284  10.016 -1.4098 -3.0276 -1.1079
  723MOL0     H97575   5.427   5.069  10.202  0.2208 -3.1327 -2.5526
  723MOL0     H97576   5.436   5.056  10.031  7.6907 -1.0202  1.4350
  723MOL0     H97577   5.297   5.293  10.170 -2.2958  0.8485 -0.3383
  723MOL0     H97578   5.283   5.253   9.999  0.1092 -0.3972 -0.5738
  723MOL0     H97579   5.178   5.090  10.238  2.2571  0.2695 -0.8829
  723MOL0     H97580   5.152   5.048  10.074  1.3028  0.0044 -2.1029
  723MOL0     H97581   4.994   5.262  10.221  1.9509 -0.0504  0.1234
  723MOL0     H97582   5.028   5.276  10.047 -1.4428 -0.7905 -1.1437
  723MOL0     H97583   4.922   5.068   9.992  1.3725  2.3526 -0.6644
  723MOL0     H97584   4.810   5.155  10.092 -0.0735 -0.8792 -0.3256
  723MOL0     H97585   4.901   5.012  10.292  0.1779 -0.4175 -0.1243
  723MOL0     H97586   4.968   4.917  10.160 -0.0694 -0.1583  1.2628
  723MOL0     H97587   6.010   5.340  10.156 -1.0107  0.4897 -0.0143
  723MOL0     H97588   6.242   5.241  10.100  1.4479 -1.8182 -1.6828
  723MOL0     H97589   6.510   5.200   9.768 -0.6141 -0.4570  0.1516
  723MOL0     H97590   6.727   5.173   9.696  0.0565  1.4454  0.8058
  723MOL0     H97591   8.435   5.035   9.528 -1.6657  0.4466 -2.3608
  723MOL0     H97592   8.679   5.027   9.478 -1.7626  1.0195  0.9475
  723MOL0     H97593   9.169   4.903   9.506  0.6633 -3.8269  1.0745
  723MOL0     H97594   9.384   4.888   9.372  2.2557  0.9935 -3.5744
  723MOL0     H97595   9.537   4.980   9.227 -0.5213  0.8792 -0.1483
  723MOL0     H97596   9.535   4.797   9.204  1.7814  0.5512  0.4689
  723MOL0     H97597   9.715   4.943   9.101 -0.0623  3.0940 -1.2195
  723MOL0     H97598   9.605   4.987   8.981  0.4926  0.4921  0.4112
  723MOL0     H97599   9.691   4.709   9.047  0.8671 -1.0159 -0.2115
  723MOL0     H97600   9.743   4.803   8.916 -2.5544  0.4274 -0.6121
  723MOL0     H97601   9.441   4.759   8.924  0.3298  0.1095  1.0495
  723MOL0     H97602   9.545   4.628   8.852 -1.3415  0.3989  0.0019
  723MOL0     H97603   9.571   4.954   8.570  0.2356 -0.9371 -1.5703
  723MOL0     H97604   9.169   4.866   9.005 -0.1010  0.3681  0.4343
  723MOL0     H97605   8.952   4.880   9.131 -0.5372  0.7018 -1.3135
  724MOL0     O97606   3.904   3.826   0.637 -0.1242  0.1860  0.3947
  724MOL0     C97607   3.886   3.762   0.533 -0.6751 -0.3190  0.3298
  724MOL0     O97608   3.804   3.661   0.512  1.0572  0.3790 -0.2013
  724MOL0     C97609   3.686   3.643   0.585 -0.1660 -0.5353  0.3177
  724MOL0     C97610   3.615   3.522   0.551 -0.3419  0.1108 -0.0709
  724MOL0     C97611   3.497   3.493   0.623  0.1228 -0.7877 -0.8082
  724MOL0     C97612   3.444   3.576   0.722 -0.2044  0.1083  0.9476
  724MOL0     O97613   3.329   3.536   0.785  0.0567 -0.0919 -0.2727
  724MOL0     C97614   3.248   3.636   0.842  0.1584 -0.1570  0.6089
  724MOL0     C97615   3.133   3.567   0.917 -0.5966  0.1673  0.2213
  724MOL0     C97616   3.183   3.488   1.041 -0.0226  0.0418 -0.4817
  724MOL0     C97617   3.058   3.422   1.107 -0.0159  0.0172 -0.5167
  724MOL0     C97618   3.098   3.340   1.226 -0.3121 -0.1391 -1.1192
  724MOL0     C97619   2.990   3.250   1.292 -0.3016 -0.0370  0.3019
  724MOL0     C97620   3.057   3.170   1.418 -0.1128 -0.2220  0.2687
  724MOL0     C97621   3.110   3.268   1.524  0.9708  0.7112  0.4819
  724MOL0     N97622   3.094   3.208   1.649  0.2894  0.1069 -0.2150
  724MOL0     C97623   3.191   3.148   1.722  0.1865 -0.6276  0.5541
  724MOL0     C97624   3.123   3.078   1.816 -0.5717  1.3247 -0.4030
  724MOL0     C97625   3.195   3.003   1.927  0.3342  0.9600  0.6363
  724MOL0     C97626   3.301   3.084   2.006  0.9574 -0.4914 -0.0871
  724MOL0     C97627   3.238   3.195   2.096 -0.7466 -0.5564 -0.3587
  724MOL0     C97628   3.254   3.332   2.032  0.3660 -0.7219  0.0960
  724MOL0     O97629   3.184   3.427   2.118  0.5283  0.2899  0.4789
  724MOL0     C97630   3.043   3.450   2.109  0.2629 -0.0436 -0.3473
  724MOL0     C97631   2.949   3.373   2.035 -0.0499 -0.7337 -0.2969
  724MOL0     C97632   2.814   3.397   2.059  0.1603  0.4606 -0.3746
  724MOL0     C97633   2.719   3.324   1.972  0.1428  0.0793  0.6855
  724MOL0     C97634   2.767   3.511   2.137  0.0201  0.5482 -0.8239
  724MOL0     C97635   2.628   3.556   2.162 -0.3706  0.2941 -0.1499
  724MOL0     O97636   2.527   3.507   2.084  0.7747  0.0510  0.2302
  724MOL0     C97637   2.398   3.536   2.110 -0.0829 -0.7342 -0.3669
  724MOL0     C97638   2.304   3.522   2.006 -0.8677  0.2430 -0.1208
  724MOL0     C97639   2.169   3.548   2.021 -0.3165 -0.4786 -0.1361
  724MOL0     C97640   2.116   3.558   2.154  0.0402 -0.2318 -0.5588
  724MOL0     O97641   1.984   3.593   2.187 -0.7452  1.0867  0.1740
  724MOL0     C97642   1.883   3.542   2.103 -0.8037  0.7420  0.4895
  724MOL0     C97643   1.811   3.653   2.025 -0.2483 -0.2884 -0.8200
  724MOL0     C97644   1.738   3.754   2.129  0.3237 -0.9827  0.2777
  724MOL0     C97645   1.673   3.871   2.070  0.0423 -0.2157  0.1778
  724MOL0     C97646   1.618   3.962   2.181  0.8675  0.1899 -0.8893
  724MOL0     C97647   1.473   3.921   2.233 -0.2779  0.0662 -0.5491
  724MOL0     C97648   1.417   4.015   2.342  0.6779 -0.4371  0.0331
  724MOL0     C97649   1.268   3.978   2.357  0.2406 -0.2869  0.1805
  724MOL0    Cl97650   1.176   4.091   2.451  0.1925 -0.1649  0.0703
  724MOL0     C97651   2.206   3.566   2.266  0.0436  0.4783  0.2372
  724MOL0     C97652   2.345   3.562   2.238 -1.3108  0.1707 -0.0343
  724MOL0     O97653   2.615   3.644   2.243 -0.2034  0.2177 -0.2728
  724MOL0     C97654   2.871   3.580   2.217  0.9260  0.0093  0.0025
  724MOL0     C97655   3.001   3.552   2.201  0.7030 -0.4815  0.6514
  724MOL0     N97656   2.984   3.092   1.805 -0.8985 -0.0694  0.1598
  724MOL0     N97657   2.972   3.178   1.707 -0.9687  0.6611 -0.2843
  724MOL0     C97658   3.507   3.698   0.740 -0.8534 -1.0909  0.3314
  724MOL0     C97659   3.640   3.728   0.682 -0.4820 -0.4836 -0.4111
  724MOL0     C97660   3.955   3.818   0.417 -0.1762 -0.3901 -0.3891
  724MOL0     C97661   3.949   3.736   0.304 -0.1399  0.4202  0.4512
  724MOL0     C97662   4.004   3.778   0.185  0.5835  0.4913  0.2265
  724MOL0     C97663   4.071   3.902   0.170  0.3340 -1.0079  0.2922
  724MOL0     O97664   4.125   3.932   0.050 -0.5252  0.6143  0.4363
  724MOL0     C97665   4.176   4.065   0.028  0.2340  0.1181 -0.0452
  724MOL0     C97666   4.233   4.099  -0.098  0.4232 -0.0997  0.4260
  724MOL0     C97667   4.310   4.237  -0.100  0.4539  0.0792 -0.1780
  724MOL0     C97668   4.365   4.282  -0.229  0.1552  0.8213 -0.2372
  724MOL0     C97669   4.478   4.191  -0.255 -0.1450 -0.0023 -1.1055
  724MOL0     C97670   4.566   4.116  -0.269  0.4284 -0.2318 -0.9592
  724MOL0     C97671   4.072   3.990   0.282  0.2925  0.0503 -0.2145
  724MOL0     C97672   4.016   3.952   0.408 -0.5836  0.1416 -0.4821
  724MOL0     H97673   3.667   3.449   0.490  1.2703 -1.4100  2.8870
  724MOL0     H97674   3.431   3.407   0.619 -3.6408  1.3636  4.3209
  724MOL0     H97675   3.297   3.694   0.920 -3.4662 -0.2702  3.2471
  724MOL0     H97676   3.204   3.700   0.765 -0.1935  1.0824  1.8117
  724MOL0     H97677   3.059   3.641   0.950 -1.3883  1.0956 -3.1329
  724MOL0     H97678   3.083   3.492   0.855  0.9348 -0.2212 -0.5782
  724MOL0     H97679   3.260   3.417   1.009  1.4143  1.3268 -0.0160
  724MOL0     H97680   3.238   3.547   1.115 -0.8679 -2.3889  2.3105
  724MOL0     H97681   2.984   3.490   1.150  2.2099  0.7192  2.5037
  724MOL0     H97682   3.018   3.363   1.023  2.9149 -3.9664  0.5897
  724MOL0     H97683   3.169   3.264   1.193 -0.7114 -1.7885  1.5511
  724MOL0     H97684   3.138   3.412   1.298  1.3278  0.0627 -2.1745
  724MOL0     H97685   2.903   3.307   1.323 -0.4754  0.8711 -1.6709
  724MOL0     H97686   2.957   3.179   1.215 -0.0162  1.4570 -1.2796
  724MOL0     H97687   2.977   3.111   1.464  0.4314  0.3708  2.0270
  724MOL0     H97688   3.140   3.109   1.381 -1.1258 -0.7123 -1.3101
  724MOL0     H97689   3.054   3.362   1.529  1.9137  1.2799  0.5434
  724MOL0     H97690   3.214   3.288   1.500  1.9553 -1.2386  2.7323
  724MOL0     H97691   3.299   3.157   1.712 -0.1031  0.3649 -2.9393
  724MOL0     H97692   3.122   2.968   2.001 -0.1322  3.4034  1.4048
  724MOL0     H97693   3.246   2.916   1.883  0.6895  1.0902  0.7807
  724MOL0     H97694   3.359   3.139   1.931 -1.5658 -2.7759 -4.0671
  724MOL0     H97695   3.370   3.019   2.061  0.8619  0.0374  0.6675
  724MOL0     H97696   3.308   3.187   2.180  1.2185 -1.1780 -1.9634
  724MOL0     H97697   3.134   3.175   2.122 -0.5319  0.5052  1.4628
  724MOL0     H97698   3.223   3.340   1.927  3.1454  2.1209 -0.6738
  724MOL0     H97699   3.358   3.367   2.034  0.7043 -1.6986 -0.0287
  724MOL0     H97700   2.963   3.287   1.969 -3.7297 -1.1839 -0.7065
  724MOL0     H97701   2.623   3.309   2.022 -0.2201 -1.7828 -0.4679
  724MOL0     H97702   2.695   3.396   1.893 -2.2917  2.9127  3.7061
  724MOL0     H97703   2.744   3.223   1.938 -0.9112 -0.2953  1.0141
  724MOL0     H97704   2.348   3.506   1.908  4.0983 -0.7346  2.0009
  724MOL0     H97705   2.097   3.551   1.939 -1.6233  0.5210  0.9831
  724MOL0     H97706   1.926   3.463   2.040  0.7689  2.0340 -0.1095
  724MOL0     H97707   1.812   3.482   2.162 -0.6326  0.5729  0.5253
  724MOL0     H97708   1.883   3.711   1.965 -0.1380 -0.3834 -0.7790
  724MOL0     H97709   1.739   3.600   1.963  1.0461  0.3612 -2.9993
  724MOL0     H97710   1.815   3.790   2.199  0.5645 -1.1865  0.1190
  724MOL0     H97711   1.667   3.706   2.197  1.7463  0.2870  2.8086
  724MOL0     H97712   1.748   3.931   2.018 -1.2488  1.1499 -0.1912
  724MOL0     H97713   1.597   3.841   1.996  0.3391  0.2524 -0.3251
  724MOL0     H97714   1.609   4.065   2.144  0.4615  0.3847 -0.2644
  724MOL0     H97715   1.687   3.975   2.265  0.2962  2.5561 -0.7284
  724MOL0     H97716   1.405   3.909   2.149 -1.3853 -0.4333  0.3866
  724MOL0     H97717   1.480   3.825   2.285  0.3853  0.3945 -0.0161
  724MOL0     H97718   1.425   4.119   2.310 -0.4005 -0.1183  0.7366
  724MOL0     H97719   1.472   4.019   2.436 -0.1151  0.4778  0.4806
  724MOL0     H97720   1.268   3.876   2.397 -0.2176 -0.7968 -1.0466
  724MOL0     H97721   1.218   3.978   2.260  1.7040  0.4866 -0.6093
  724MOL0     H97722   2.159   3.564   2.363 -1.8909 -0.1778 -0.6762
  724MOL0     H97723   2.406   3.578   2.326 -1.2130 -0.2910 -0.0184
  724MOL0     H97724   2.856   3.670   2.276  0.3419  0.0474 -0.1875
  724MOL0     H97725   3.080   3.602   2.257  1.4126  0.0464 -0.7576
  724MOL0     H97726   3.482   3.774   0.814  0.9956  0.4748 -0.5448
  724MOL0     H97727   3.687   3.820   0.715 -1.4434  1.3385 -3.5997
  724MOL0     H97728   3.910   3.635   0.297  0.3467  0.3179 -1.1411
  724MOL0     H97729   4.010   3.720   0.094  2.4271  0.3298  0.4038
  724MOL0     H97730   4.092   4.130   0.053 -1.2032 -0.1969 -3.4523
  724MOL0     H97731   4.262   4.084   0.094  0.0757 -0.0920  0.2219
  724MOL0     H97732   4.154   4.098  -0.173 -0.8433 -0.6306  1.7166
  724MOL0     H97733   4.301   4.021  -0.133  0.4170  0.2380 -0.3603
  724MOL0     H97734   4.394   4.221  -0.032 -0.5991  0.1050  1.1903
  724MOL0     H97735   4.258   4.312  -0.039  0.1940 -0.4252  0.2253
  724MOL0     H97736   4.394   4.387  -0.218  0.7353  1.0221 -2.8977
  724MOL0     H97737   4.290   4.292  -0.308  1.4700  1.0559 -1.4964
  724MOL0     H97738   4.644   4.047  -0.293  0.9894  0.3385 -0.7779
  724MOL0     H97739   4.131   4.080   0.274  1.3420 -0.6220 -0.2269
  724MOL0     H97740   4.019   4.014   0.497  2.9149 -2.5812  1.5662
  725MOL0     O97741   3.927  10.829   4.871  0.1874  1.1412  0.5016
  725MOL0     C97742   3.978  10.719   4.903  0.1656 -0.8392 -1.2288
  725MOL0     O97743   3.905  10.610   4.945  0.3135  0.2921  0.3258
  725MOL0     C97744   3.773  10.593   4.904 -0.1079  0.0463  0.7054
  725MOL0     C97745   3.709  10.492   4.976  0.3789 -0.4218  0.0036
  725MOL0     C97746   3.575  10.470   4.960 -0.1121 -0.1645  0.4863
  725MOL0     C97747   3.510  10.534   4.860  0.5554 -0.2384 -0.7179
  725MOL0     O97748   3.385  10.481   4.829  0.0058 -0.2793  0.6102
  725MOL0     C97749   3.279  10.549   4.883  0.6694  0.7632  0.2168
  725MOL0     C97750   3.148  10.468   4.862 -0.1525 -0.2339  1.3717
  725MOL0     C97751   3.152  10.334   4.927 -0.0331 -0.6248  0.5073
  725MOL0     C97752   3.027  10.261   4.886 -1.1729 -0.2249  0.0223
  725MOL0     C97753   3.009  10.122   4.957  1.0933 -0.3106 -0.1693
  725MOL0     C97754   2.871  10.123   5.036  0.5929  0.0753  0.1064
  725MOL0     C97755   2.882  10.018   5.151 -0.6158 -0.2808 -0.7261
  725MOL0     C97756   2.754  10.006   5.244  0.1527  0.3446 -1.1318
  725MOL0     N97757   2.637   9.955   5.164  0.1350  0.3361  0.0621
  725MOL0     C97758   2.504   9.990   5.184 -0.2394  0.4255  0.7655
  725MOL0     C97759   2.426   9.920   5.102 -0.2625 -0.5755 -0.4370
  725MOL0     C97760   2.274   9.920   5.080  1.4278 -0.0385 -0.2955
  725MOL0     C97761   2.204   9.789   5.061 -0.3537 -0.6542 -0.0914
  725MOL0     C97762   2.171   9.763   4.910 -0.1750 -0.1143  0.7411
  725MOL0     C97763   2.040   9.827   4.866 -0.5192  0.0341  0.0678
  725MOL0     O97764   1.924   9.756   4.917 -0.1800 -0.1677  0.3754
  725MOL0     C97765   1.804   9.832   4.897 -0.1856  0.0662 -0.2943
  725MOL0     C97766   1.705   9.795   4.980  0.0479  0.0582 -0.1224
  725MOL0     C97767   1.572   9.855   4.982  0.5415  0.5020  0.5444
  725MOL0     C97768   1.479   9.788   5.073 -0.1162 -0.0260 -0.0907
  725MOL0     C97769   1.555   9.963   4.890 -0.6874  0.3567 -0.4942
  725MOL0     C97770   1.431  10.033   4.871  0.1291 -0.5160  0.0972
  725MOL0     O97771   1.428  10.142   4.776 -0.2927 -0.1813 -0.4969
  725MOL0     C97772   1.305  10.203   4.744 -0.0814 -0.1875 -0.3183
  725MOL0     C97773   1.199  10.223   4.832 -0.9460 -0.1229  0.0582
  725MOL0     C97774   1.076  10.271   4.796 -0.6655  1.0215 -0.4297
  725MOL0     C97775   1.050  10.302   4.663 -0.5092  0.1684  0.1149
  725MOL0     O97776   0.938  10.357   4.618  0.0064 -0.3613  0.7871
  725MOL0     C97777   0.820  10.341   4.702  0.5953  0.0662 -0.3215
  725MOL0     C97778   0.762  10.202   4.730  0.2690 -0.5389  0.3596
  725MOL0     C97779   0.737  10.113   4.607  0.1210 -0.0967  0.7644
  725MOL0     C97780   0.691   9.977   4.652  0.8667  0.3955 -0.5251
  725MOL0     C97781   0.805   9.889   4.708 -0.4986 -0.1758 -1.0520
  725MOL0     C97782   0.945   9.904   4.643 -0.6039 -0.3712 -0.6131
  725MOL0     C97783   1.040   9.811   4.709 -0.3826 -0.4887  0.2666
  725MOL0     C97784   1.189   9.837   4.663  0.2905 -0.2545 -0.6606
  725MOL0    Cl97785   1.203   9.777   4.499 -0.1819  0.3314  0.2033
  725MOL0     C97786   1.154  10.277   4.564 -0.0871  0.2764 -0.5736
  725MOL0     C97787   1.284  10.227   4.606  0.4869 -0.6211  0.1335
  725MOL0     O97788   1.331   9.986   4.930  0.0351 -0.6434  0.2288
  725MOL0     C97789   1.662  10.010   4.804  0.1418  0.1021 -0.2978
  725MOL0     C97790   1.783   9.940   4.806  0.2994  0.4348  0.2643
  725MOL0     N97791   2.518   9.840   5.033 -0.1385 -0.0174  1.1766
  725MOL0     N97792   2.642   9.861   5.073  0.0823  0.0507 -0.3578
  725MOL0     C97793   3.563  10.636   4.780 -1.1586 -0.2523 -0.6471
  725MOL0     C97794   3.699  10.659   4.799 -0.0096  0.3443  0.1558
  725MOL0     C97795   4.118  10.710   4.903 -0.3418 -0.1335  0.4282
  725MOL0     C97796   4.182  10.590   4.928 -0.3121 -0.7473 -0.8244
  725MOL0     C97797   4.321  10.591   4.927  0.4434  0.3748  0.8879
  725MOL0     C97798   4.399  10.715   4.905  0.1306  0.3236 -0.1889
  725MOL0     O97799   4.529  10.708   4.912 -0.3540 -0.1459 -0.9290
  725MOL0     C97800   4.586  10.692   5.044  0.2105  0.5657  0.5396
  725MOL0     C97801   4.738  10.687   5.040  0.3444 -0.3353  0.0321
  725MOL0     C97802   4.788  10.829   5.059 -1.0496 -0.9248  0.0288
  725MOL0     C97803   4.940  10.839   5.109  0.0683  0.0970 -0.1902
  725MOL0     C97804   5.041  10.763   5.040 -0.2633  0.1725  0.4120
  725MOL0     C97805   5.111  10.696   4.969  0.2142  1.0858  0.3526
  725MOL0     C97806   4.332  10.821   4.862 -0.0179 -0.3727  0.6765
  725MOL0     C97807   4.195  10.828   4.867 -0.2188  0.4685 -0.4313
  725MOL0     H97808   3.768  10.446   5.055  0.4360  2.3630  1.7199
  725MOL0     H97809   3.527  10.399   5.027 -2.4311  0.1092 -0.7676
  725MOL0     H97810   3.289  10.568   4.990 -0.6037  3.7208 -0.0752
  725MOL0     H97811   3.253  10.647   4.841 -0.1787  1.5275  2.3750
  725MOL0     H97812   3.064  10.525   4.904 -0.3151  0.2695  0.3888
  725MOL0     H97813   3.126  10.459   4.755 -0.4963 -3.8292  1.6263
  725MOL0     H97814   3.235  10.280   4.882 -0.6068  0.2697 -1.7551
  725MOL0     H97815   3.147  10.344   5.036 -2.2595 -1.8927  0.5990
  725MOL0     H97816   2.940  10.326   4.901 -0.5682  2.2911 -5.1850
  725MOL0     H97817   3.027  10.246   4.778 -1.4012 -0.8403  0.1009
  725MOL0     H97818   2.999  10.039   4.887 -2.5147 -2.9010  3.0232
  725MOL0     H97819   3.093  10.110   5.026  1.5082  1.0274 -0.4076
  725MOL0     H97820   2.848  10.216   5.090 -2.7158 -1.1285  1.0277
  725MOL0     H97821   2.785  10.098   4.972 -1.4333 -1.2101  3.0780
  725MOL0     H97822   2.907   9.916   5.121 -1.3556 -0.9517  0.8287
  725MOL0     H97823   2.957  10.054   5.223 -2.3676  2.4903 -0.1318
  725MOL0     H97824   2.716  10.098   5.291  1.0012 -0.7670  2.0216
  725MOL0     H97825   2.783   9.931   5.318 -4.9504 -1.4070 -0.5244
  725MOL0     H97826   2.465  10.070   5.246 -0.8291  0.8131 -0.0963
  725MOL0     H97827   2.222   9.965   5.166 -3.0480 -1.7973 -1.7524
  725MOL0     H97828   2.243   9.977   4.992 -1.4856  0.0766  0.6776
  725MOL0     H97829   2.105   9.803   5.105 -1.1311  1.8728 -2.4022
  725MOL0     H97830   2.262   9.704   5.099  0.1280 -0.6735 -0.8579
  725MOL0     H97831   2.152   9.655   4.909  1.4300 -0.4340  1.7914
  725MOL0     H97832   2.255   9.802   4.852 -1.8213  3.1801  0.3119
  725MOL0     H97833   2.035   9.817   4.758  0.1226 -0.2124  0.0529
  725MOL0     H97834   2.031   9.927   4.909 -1.0620 -0.4406  1.1100
  725MOL0     H97835   1.744   9.714   5.040  0.2323 -2.1168 -2.9926
  725MOL0     H97836   1.398   9.747   5.011  2.5520 -0.5715 -3.5324
  725MOL0     H97837   1.526   9.717   5.141 -1.6057 -0.9607  0.0026
  725MOL0     H97838   1.430   9.857   5.142 -1.6939 -1.8220  0.6716
  725MOL0     H97839   1.218  10.209   4.938  2.2200 -0.9861 -0.5053
  725MOL0     H97840   1.004  10.278   4.877  0.7391  0.9624  0.8816
  725MOL0     H97841   0.848  10.377   4.801 -1.3622  0.1662  0.2281
  725MOL0     H97842   0.751  10.415   4.661  0.7183 -0.7783 -2.1604
  725MOL0     H97843   0.826  10.157   4.807  1.2117 -1.6124 -1.0022
  725MOL0     H97844   0.669  10.211   4.786  0.8762 -0.0102  1.3191
  725MOL0     H97845   0.825  10.095   4.545 -0.7689 -0.8249 -0.3276
  725MOL0     H97846   0.661  10.147   4.536  0.0542 -1.7663 -0.0142
  725MOL0     H97847   0.615   9.988   4.730  0.4026 -0.4180 -0.8574
  725MOL0     H97848   0.645   9.917   4.573  0.3508  0.4758 -0.2943
  725MOL0     H97849   0.766   9.787   4.702 -3.7485  0.6872  2.1239
  725MOL0     H97850   0.828   9.901   4.814  0.7263  0.8777 -1.4103
  725MOL0     H97851   0.932   9.885   4.536  3.0291 -4.1821 -0.6468
  725MOL0     H97852   0.986  10.004   4.661 -1.5215 -0.5082  3.2713
  725MOL0     H97853   1.005   9.708   4.695 -1.0325 -0.3764  1.0198
  725MOL0     H97854   1.047   9.832   4.816  0.7831  1.5123 -0.1509
  725MOL0     H97855   1.252   9.774   4.725  0.6315 -0.4306 -1.1819
  725MOL0     H97856   1.213   9.944   4.671  1.9330 -0.7438  2.4957
  725MOL0     H97857   1.141  10.304   4.459  1.2092  0.7889 -0.6219
  725MOL0     H97858   1.365  10.217   4.534  1.1251  1.1993  0.5430
  725MOL0     H97859   1.648  10.083   4.725 -0.5056 -0.1560 -0.4276
  725MOL0     H97860   1.855   9.974   4.731 -2.7554  1.4030 -2.4591
  725MOL0     H97861   3.508  10.698   4.710  0.3715  3.7130  1.3103
  725MOL0     H97862   3.745  10.746   4.754  1.1713 -0.0176  0.6160
  725MOL0     H97863   4.126  10.503   4.958 -1.7299 -1.4754 -4.9570
  725MOL0     H97864   4.364  10.492   4.943  0.0724 -0.4853 -2.6128
  725MOL0     H97865   4.552  10.774   5.107  0.2594  0.0856  1.1959
  725MOL0     H97866   4.557  10.591   5.076  1.1530 -0.7776 -2.4193
  725MOL0     H97867   4.772  10.647   4.944  2.8179  0.0609  0.6764
  725MOL0     H97868   4.780  10.621   5.116 -2.7645 -1.2139  1.1381
  725MOL0     H97869   4.725  10.879   5.133 -0.1780 -0.7686  0.6799
  725MOL0     H97870   4.786  10.890   4.968  0.8540 -2.7980 -1.3630
  725MOL0     H97871   4.946  10.826   5.217 -3.3330  2.7471  0.5008
  725MOL0     H97872   4.962  10.944   5.091  1.4229  0.3054  2.2798
  725MOL0     H97873   5.174  10.639   4.904 -1.1876  0.2368 -0.3211
  725MOL0     H97874   4.391  10.906   4.831 -1.0225  0.0753 -0.0492
  725MOL0     H97875   4.156  10.923   4.832 -2.2665 -0.6448 -1.3100
  726MOL0     O97876   7.326  10.959   3.215 -0.4305 -0.3300  0.1265
  726MOL0     C97877   7.380  10.993   3.114  0.4289 -0.0156  0.1323
  726MOL0     O97878   7.326  11.076   3.013 -0.8013 -0.8728 -0.0720
  726MOL0     C97879   7.203  11.131   3.042  0.2563  0.6584 -0.0935
  726MOL0     C97880   7.185  11.220   3.142 -0.1182 -0.2509  0.4309
  726MOL0     C97881   7.062  11.288   3.162 -0.2786  0.0735  1.2147
  726MOL0     C97882   6.956  11.263   3.069 -0.4014 -0.7001 -0.8159
  726MOL0     O97883   6.830  11.328   3.089 -0.3073  0.2918 -0.6338
  726MOL0     C97884   6.765  11.274   3.200 -0.1193  0.6269  0.2285
  726MOL0     C97885   6.629  11.346   3.224 -0.0844  0.2852 -0.1994
  726MOL0     C97886   6.574  11.317   3.371 -0.4567  0.1891  0.6428
  726MOL0     C97887   6.640  11.411   3.477 -0.7656 -0.1426  0.6213
  726MOL0     C97888   6.578  11.401   3.618  0.3743  0.0768 -0.4334
  726MOL0     C97889   6.437  11.427   3.623  0.2484 -0.5050  0.6127
  726MOL0     C97890   6.396  11.573   3.592 -0.1476 -0.1942 -0.9363
  726MOL0     C97891   6.245  11.587   3.621  0.6838 -0.0196 -0.8135
  726MOL0     N97892   6.211  11.732   3.628  0.1677 -0.2123  0.1527
  726MOL0     C97893   6.218  11.823   3.520 -0.3084 -0.2429 -0.1733
  726MOL0     C97894   6.171  11.939   3.573  0.4016 -0.4765  0.1245
  726MOL0     C97895   6.194  12.086   3.533  0.1281  0.3638  0.2178
  726MOL0     C97896   6.073  12.187   3.528  0.6005  0.2355 -0.3337
  726MOL0     C97897   5.983  12.158   3.408  0.1063 -0.2042  0.7431
  726MOL0     C97898   5.877  12.269   3.380  0.3221  0.2287 -0.4801
  726MOL0     O97899   5.797  12.307   3.496 -0.3973  0.4523  0.0751
  726MOL0     C97900   5.729  12.424   3.494  0.9080 -0.2225 -0.3322
  726MOL0     C97901   5.662  12.467   3.613 -0.3529  0.4219  0.2876
  726MOL0     C97902   5.574  12.579   3.615  0.2087  0.3248 -0.4326
  726MOL0     C97903   5.525  12.606   3.756  0.0351 -0.0902  0.4549
  726MOL0     C97904   5.556  12.659   3.502  0.2811 -0.7809 -0.9555
  726MOL0     C97905   5.471  12.778   3.490  0.7868  0.1502  1.0395
  726MOL0     O97906   5.440  12.812   3.362 -0.2501  0.6443  0.4442
  726MOL0     C97907   5.340  12.909   3.344 -1.1185 -0.1024 -0.5383
  726MOL0     C97908   5.211  12.896   3.393  0.8207 -0.2458  0.0124
  726MOL0     C97909   5.114  12.982   3.346  0.7959 -0.0548  0.4006
  726MOL0     C97910   5.136  13.089   3.266 -0.2147 -0.0941  0.1352
  726MOL0     O97911   5.045  13.183   3.233  0.5928 -0.4478  0.4189
  726MOL0     C97912   4.905  13.150   3.247  0.5047 -0.8554 -0.7103
  726MOL0     C97913   4.822  13.261   3.184  0.3683  0.2397 -0.6045
  726MOL0     C97914   4.672  13.233   3.201 -0.0514  0.0793 -0.6667
  726MOL0     C97915   4.606  13.340   3.119  0.5826  0.2525  1.2156
  726MOL0     C97916   4.452  13.329   3.123  0.1820  0.7811 -1.2654
  726MOL0     C97917   4.377  13.212   3.057 -0.1990 -0.0290 -0.0396
  726MOL0     C97918   4.229  13.249   3.058  0.1202  0.6095 -0.2799
  726MOL0     C97919   4.153  13.117   3.022 -0.0944  0.1222 -0.4639
  726MOL0    Cl97920   4.185  13.071   2.849  0.1235 -0.1493 -0.5047
  726MOL0     C97921   5.265  13.102   3.211 -0.0114 -0.7245 -0.0585
  726MOL0     C97922   5.363  13.011   3.257 -0.2629  0.3570  0.2220
  726MOL0     O97923   5.404  12.812   3.588 -0.2449 -0.1419  0.0688
  726MOL0     C97924   5.619  12.608   3.382 -0.1103  0.5485 -0.0073
  726MOL0     C97925   5.700  12.499   3.378 -0.0300  0.2531 -0.2321
  726MOL0     N97926   6.143  11.917   3.708  0.2479  0.0047  0.2679
  726MOL0     N97927   6.153  11.793   3.736 -0.1596  0.4516 -0.4023
  726MOL0     C97928   6.978  11.175   2.970 -0.1715  0.8619 -0.2689
  726MOL0     C97929   7.099  11.104   2.958 -1.0135 -0.3545  0.1853
  726MOL0     C97930   7.510  10.933   3.083  0.1666 -0.4939  0.4410
  726MOL0     C97931   7.591  10.990   2.981  0.5813 -0.0536 -1.2697
  726MOL0     C97932   7.725  10.943   2.958  0.2375 -0.2583  0.2878
  726MOL0     C97933   7.772  10.832   3.022  0.4076 -0.1224  0.1051
  726MOL0     O97934   7.896  10.784   2.993  0.3628  1.2245  0.0330
  726MOL0     C97935   7.957  10.816   2.869 -0.6092  0.1489  0.0496
  726MOL0     C97936   8.094  10.743   2.863  0.4096 -0.2206  0.3541
  726MOL0     C97937   8.193  10.813   2.958 -1.2868 -0.5471  0.3877
  726MOL0     C97938   8.346  10.775   2.939  0.6965 -0.5232  0.1476
  726MOL0     C97939   8.432  10.873   3.014  0.5260  0.4647  0.2706
  726MOL0     C97940   8.500  10.936   3.087  0.1968  0.0220  0.6025
  726MOL0     C97941   7.692  10.782   3.122  0.1825 -0.9642 -0.4688
  726MOL0     C97942   7.565  10.829   3.156 -0.3931  1.1964  0.6286
  726MOL0     H97943   7.268  11.251   3.205 -1.1204  2.7450  0.4499
  726MOL0     H97944   7.053  11.364   3.239  0.1630  1.9961 -0.5606
  726MOL0     H97945   6.755  11.167   3.182 -0.8580  0.9341 -1.3721
  726MOL0     H97946   6.828  11.287   3.288  3.1538 -0.7575 -1.7463
  726MOL0     H97947   6.642  11.455   3.218 -0.6118  0.3424 -0.3576
  726MOL0     H97948   6.555  11.311   3.151  1.3517  0.2427 -1.6879
  726MOL0     H97949   6.468  11.342   3.360 -0.4715 -1.1798 -4.3255
  726MOL0     H97950   6.592  11.213   3.398  0.5018 -0.1040 -1.0170
  726MOL0     H97951   6.748  11.393   3.479 -0.1779  2.8333 -0.4885
  726MOL0     H97952   6.629  11.510   3.433 -3.0265 -0.7085 -0.2604
  726MOL0     H97953   6.597  11.301   3.659  0.0377  0.2730  0.2118
  726MOL0     H97954   6.629  11.475   3.679  2.3974 -0.1857 -1.7014
  726MOL0     H97955   6.386  11.360   3.554 -0.3697 -0.9105  1.4439
  726MOL0     H97956   6.407  11.425   3.729 -0.5915 -0.6064  0.3792
  726MOL0     H97957   6.454  11.635   3.662 -0.5877 -1.7518  0.8896
  726MOL0     H97958   6.432  11.596   3.492  2.1440  1.1078  0.0907
  726MOL0     H97959   6.222  11.530   3.711 -1.8685  2.8389  0.5297
  726MOL0     H97960   6.188  11.543   3.539  0.4337  0.2892 -0.8088
  726MOL0     H97961   6.273  11.806   3.428  0.6226 -0.7984  0.4662
  726MOL0     H97962   6.279  12.120   3.593  2.3809  0.0042 -2.5949
  726MOL0     H97963   6.248  12.093   3.439 -0.3420  2.9461  0.0698
  726MOL0     H97964   6.109  12.291   3.525  0.8796  0.1702  0.4766
  726MOL0     H97965   6.017  12.182   3.622 -0.6437 -0.1888 -1.0733
  726MOL0     H97966   5.939  12.059   3.418  1.6395 -1.1033 -0.7517
  726MOL0     H97967   6.050  12.151   3.321 -0.7751  0.9497 -0.0657
  726MOL0     H97968   5.820  12.255   3.288 -0.7991  0.5685  0.1411
  726MOL0     H97969   5.946  12.348   3.349  3.3208 -2.1519 -0.3595
  726MOL0     H97970   5.666  12.405   3.702 -0.2636 -2.3816 -1.5200
  726MOL0     H97971   5.551  12.531   3.830  1.9274 -0.5736 -0.6316
  726MOL0     H97972   5.551  12.708   3.787 -0.6572  0.3682 -0.4244
  726MOL0     H97973   5.416  12.601   3.758 -0.2482  2.2847 -2.2838
  726MOL0     H97974   5.191  12.806   3.449  0.2448 -0.3444 -0.3438
  726MOL0     H97975   5.014  12.955   3.378  1.4932  1.3264  4.3886
  726MOL0     H97976   4.888  13.056   3.193  0.2860 -1.2915  0.0835
  726MOL0     H97977   4.882  13.146   3.354 -0.5941  1.1810 -0.8319
  726MOL0     H97978   4.851  13.359   3.223 -0.2571  0.7741 -1.4317
  726MOL0     H97979   4.849  13.259   3.078  1.3866 -2.0618 -0.3592
  726MOL0     H97980   4.644  13.235   3.306 -0.1578 -1.4101 -0.6462
  726MOL0     H97981   4.647  13.131   3.169  1.2215 -0.4148 -0.1417
  726MOL0     H97982   4.634  13.442   3.147  1.9807 -0.0312  0.9563
  726MOL0     H97983   4.632  13.332   3.013 -0.2173  1.8646  0.8806
  726MOL0     H97984   4.412  13.422   3.082 -1.4319  0.5136 -0.3528
  726MOL0     H97985   4.418  13.339   3.226  1.9885 -1.0555 -0.4179
  726MOL0     H97986   4.424  13.209   2.959  5.7850 -1.6383  2.4205
  726MOL0     H97987   4.396  13.118   3.109 -0.3972  1.6954  3.4830
  726MOL0     H97988   4.212  13.327   2.984  0.1016  0.7037 -0.1767
  726MOL0     H97989   4.192  13.285   3.155 -1.1967 -3.4629  0.9525
  726MOL0     H97990   4.049  13.138   3.049 -0.0187 -0.2290  0.1268
  726MOL0     H97991   4.174  13.039   3.097  0.1153  1.2886  0.7299
  726MOL0     H97992   5.280  13.187   3.146 -3.3410 -1.4294 -1.9321
  726MOL0     H97993   5.462  13.024   3.216 -1.2591  0.2140 -2.4180
  726MOL0     H97994   5.617  12.661   3.288  1.8409  0.0417 -0.3679
  726MOL0     H97995   5.731  12.473   3.277  1.6286  2.0809 -0.2457
  726MOL0     H97996   6.896  11.140   2.908 -0.6064  2.0634 -0.4133
  726MOL0     H97997   7.106  11.026   2.883  1.3367 -0.9952  0.9932
  726MOL0     H97998   7.551  11.075   2.926  0.6260  0.3281 -0.7188
  726MOL0     H97999   7.758  10.999   2.871 -1.7043  2.5171  1.2100
  726MOL0     H98000   7.891  10.770   2.796 -1.8659  1.4313  0.3377
  726MOL0     H98001   7.963  10.924   2.850 -1.5586 -0.2710 -3.1144
  726MOL0     H98002   8.125  10.748   2.758 -0.4070  2.3455  0.1734
  726MOL0     H98003   8.090  10.640   2.898 -0.7990 -1.0723 -2.0659
  726MOL0     H98004   8.164  10.798   3.063  1.1547 -1.7888  0.9445
  726MOL0     H98005   8.185  10.920   2.939 -0.6558 -0.8970 -2.0862
  726MOL0     H98006   8.389  10.766   2.839  1.2505  2.0206  0.0957
  726MOL0     H98007   8.363  10.676   2.981 -0.8197  0.1383  2.5134
  726MOL0     H98008   8.556  11.002   3.151 -0.5466  3.3935 -1.9464
  726MOL0     H98009   7.720  10.687   3.166  0.2802 -0.5964  0.2824
  726MOL0     H98010   7.505  10.777   3.231  2.5760 -3.0894  0.3921
  727MOL0     O98011  10.694   2.964   7.281  0.0102  0.2507 -0.3452
  727MOL0     C98012  10.802   2.942   7.333  0.4058 -0.1416  0.3848
  727MOL0     O98013  10.847   2.817   7.363  0.0867 -0.0890  0.4323
  727MOL0     C98014  10.762   2.710   7.373 -0.6948  0.2881 -0.3187
  727MOL0     C98015  10.651   2.710   7.452  0.3935  0.5415  0.3543
  727MOL0     C98016  10.568   2.595   7.465  0.0262  0.6855  0.1295
  727MOL0     C98017  10.597   2.482   7.391  0.5333 -0.7865  0.4200
  727MOL0     O98018  10.523   2.373   7.391 -0.0956  0.4401  0.2199
  727MOL0     C98019  10.401   2.363   7.472 -0.1997  0.0427  0.4282
  727MOL0     C98020  10.295   2.265   7.417  0.3011 -0.4457 -0.4699
  727MOL0     C98021  10.190   2.241   7.531  0.3318  0.4395  0.6434
  727MOL0     C98022  10.078   2.144   7.482  0.4005  1.1482 -0.3019
  727MOL0     C98023   9.964   2.202   7.393 -0.9922 -0.4800  0.6112
  727MOL0     C98024   9.866   2.087   7.351 -0.2248 -0.2152  0.3285
  727MOL0     C98025   9.791   2.033   7.474  0.1454 -0.0666 -0.6522
  727MOL0     C98026   9.647   1.991   7.461 -0.1896  0.4163  0.0371
  727MOL0     N98027   9.593   1.965   7.603  0.3456 -0.0213  0.2775
  727MOL0     C98028   9.587   2.055   7.702 -0.5801  0.3883  0.2992
  727MOL0     C98029   9.570   1.977   7.813 -0.1139  0.0369  0.8160
  727MOL0     C98030   9.546   2.050   7.943  0.0907 -0.4716 -0.0972
  727MOL0     C98031   9.404   2.085   7.964  0.3251 -0.1197 -0.6856
  727MOL0     C98032   9.300   1.970   7.943  0.6941 -0.3523 -0.0227
  727MOL0     C98033   9.262   1.888   8.069 -1.0599  0.1462 -0.3956
  727MOL0     O98034   9.144   1.813   8.052  0.1688  0.5240 -0.0727
  727MOL0     C98035   9.029   1.873   8.031  0.3967  0.8994 -0.1232
  727MOL0     C98036   9.000   1.996   8.085  0.9232 -0.9344 -0.0585
  727MOL0     C98037   8.880   2.064   8.049 -0.7288  0.5276  0.8832
  727MOL0     C98038   8.872   2.196   8.105 -0.5866 -0.2948 -0.0719
  727MOL0     C98039   8.777   2.002   7.972 -0.2207 -1.0012  1.1751
  727MOL0     C98040   8.644   2.060   7.939 -0.1776  0.1397  0.4853
  727MOL0     O98041   8.558   1.974   7.878  0.5408 -0.2703 -0.2752
  727MOL0     C98042   8.426   2.001   7.847  0.9319  0.3248 -0.0363
  727MOL0     C98043   8.347   2.104   7.883 -0.6608  0.0930  0.5199
  727MOL0     C98044   8.216   2.108   7.841  0.4405  0.2484  1.1124
  727MOL0     C98045   8.161   2.009   7.754  0.2065  0.0887  0.5345
  727MOL0     O98046   8.031   2.028   7.716  0.1612 -0.1508  0.1191
  727MOL0     C98047   7.989   1.956   7.607 -0.6784 -0.5067  0.2858
  727MOL0     C98048   7.845   1.951   7.626 -0.6265  0.0123 -0.0198
  727MOL0     C98049   7.789   1.872   7.507 -0.3106 -0.2539  0.2242
  727MOL0     C98050   7.644   1.830   7.551  0.0031 -0.4229 -1.0161
  727MOL0     C98051   7.561   1.755   7.444 -0.1315  0.0681  0.3726
  727MOL0     C98052   7.417   1.713   7.476 -0.2814 -0.9919  0.5548
  727MOL0     C98053   7.345   1.677   7.347 -0.0447 -1.1134 -0.2642
  727MOL0     C98054   7.227   1.598   7.371 -0.0448 -0.7386 -0.1540
  727MOL0    Cl98055   7.164   1.532   7.219 -0.0559 -0.2348  0.0117
  727MOL0     C98056   8.248   1.905   7.717 -0.3286  0.6900  0.3946
  727MOL0     C98057   8.380   1.903   7.757 -0.7799  0.0873 -0.3000
  727MOL0     O98058   8.618   2.172   7.977  0.3160 -0.5616 -0.5152
  727MOL0     C98059   8.814   1.876   7.922 -0.1591  0.8978 -0.0419
  727MOL0     C98060   8.930   1.816   7.958 -0.4073  0.1044 -0.1525
  727MOL0     N98061   9.547   1.848   7.777 -1.4907 -1.0296 -0.4120
  727MOL0     N98062   9.570   1.842   7.652 -0.0764  0.4125  0.3714
  727MOL0     C98063  10.700   2.486   7.298 -0.0827 -0.1033 -0.2799
  727MOL0     C98064  10.785   2.604   7.292 -0.8903 -0.2419 -0.5071
  727MOL0     C98065  10.897   3.048   7.352  0.0797  0.1535 -0.9036
  727MOL0     C98066  10.860   3.184   7.349  0.8059  0.4265  0.0201
  727MOL0     C98067  10.952   3.290   7.368  0.1918 -0.1681  0.9329
  727MOL0     C98068  11.082   3.264   7.396  0.1008 -0.4849 -0.1962
  727MOL0     O98069  11.173   3.368   7.414 -0.2998  1.0235  0.1370
  727MOL0     C98070  11.149   3.492   7.359 -0.4549  1.3176  0.7344
  727MOL0     C98071  11.261   3.587   7.397 -0.5415  0.3009 -0.1064
  727MOL0     C98072  11.401   3.513   7.387  0.0933 -1.0833  0.4262
  727MOL0     C98073  11.505   3.620   7.401 -0.4882  0.4424 -0.0880
  727MOL0     C98074  11.632   3.559   7.411  0.2575 -0.2816 -0.7296
  727MOL0     C98075  11.733   3.503   7.398 -0.2069  0.3447 -0.2994
  727MOL0     C98076  11.126   3.131   7.395 -0.5568  0.4809 -0.8895
  727MOL0     C98077  11.037   3.026   7.378  0.4602 -0.4122 -0.8996
  727MOL0     H98078  10.613   2.789   7.516 -1.7959  0.4802 -0.7640
  727MOL0     H98079  10.479   2.594   7.526 -0.7832 -1.3268 -1.0029
  727MOL0     H98080  10.424   2.321   7.570 -0.1750 -0.2674  0.2908
  727MOL0     H98081  10.348   2.456   7.495  2.9184  2.3231 -0.8280
  727MOL0     H98082  10.241   2.308   7.332  0.0478  1.1815  0.4779
  727MOL0     H98083  10.340   2.169   7.390 -0.3340 -0.2968 -2.1904
  727MOL0     H98084  10.230   2.201   7.625  2.8278  3.1650  0.9019
  727MOL0     H98085  10.139   2.336   7.549  0.6583  0.4121  1.7928
  727MOL0     H98086  10.118   2.064   7.419 -0.5019  1.3326 -1.1231
  727MOL0     H98087  10.035   2.094   7.569  0.8523  0.5995 -0.3866
  727MOL0     H98088   9.906   2.285   7.436 -0.5838  0.3806 -0.4463
  727MOL0     H98089  10.010   2.249   7.306 -1.8081  3.3348  2.0556
  727MOL0     H98090   9.791   2.132   7.286  0.6802  2.5538  1.0907
  727MOL0     H98091   9.929   2.006   7.312 -0.2440 -0.4871  0.8550
  727MOL0     H98092   9.852   1.951   7.513  0.3106 -0.1739 -1.1343
  727MOL0     H98093   9.791   2.114   7.547 -1.6609  1.0495 -1.8233
  727MOL0     H98094   9.639   1.905   7.394  0.2006  0.6127 -0.2597
  727MOL0     H98095   9.588   2.075   7.423  1.5458  1.5469 -0.2539
  727MOL0     H98096   9.606   2.162   7.701 -0.1983  0.3293 -1.4103
  727MOL0     H98097   9.574   1.979   8.022 -2.5660  0.5214  1.9112
  727MOL0     H98098   9.617   2.131   7.961  0.4462 -1.0242  1.0846
  727MOL0     H98099   9.377   2.161   7.890  0.0067  1.0502  0.5964
  727MOL0     H98100   9.375   2.121   8.063 -1.9319 -2.5700 -0.3486
  727MOL0     H98101   9.314   1.909   7.853 -0.8283  0.1440 -0.6203
  727MOL0     H98102   9.205   2.020   7.923 -0.4451 -1.9080  1.2640
  727MOL0     H98103   9.251   1.949   8.159 -3.2841 -0.2182 -0.3630
  727MOL0     H98104   9.350   1.826   8.087  0.2603  1.6991 -1.3023
  727MOL0     H98105   9.075   2.044   8.147  0.1093 -0.1668  0.3368
  727MOL0     H98106   8.961   2.245   8.146 -2.7806  3.8688  0.3070
  727MOL0     H98107   8.844   2.269   8.027  2.3010  0.2419 -0.7438
  727MOL0     H98108   8.801   2.198   8.188  0.3685 -2.6412  0.8753
  727MOL0     H98109   8.380   2.181   7.952 -2.5922  0.4275  1.1557
  727MOL0     H98110   8.152   2.195   7.856 -1.2245 -1.0321  1.7651
  727MOL0     H98111   8.017   2.008   7.515 -1.2529 -2.1220 -0.8569
  727MOL0     H98112   8.028   1.854   7.607  0.8181  0.0043 -1.4594
  727MOL0     H98113   7.831   1.908   7.725  2.5600  0.4807  0.7228
  727MOL0     H98114   7.801   2.051   7.624 -2.9404 -0.9255  0.2546
  727MOL0     H98115   7.845   1.781   7.483 -0.6120  0.0532 -1.8124
  727MOL0     H98116   7.792   1.942   7.422 -3.3209  2.5968  2.1952
  727MOL0     H98117   7.643   1.769   7.642  0.2450  1.6855  0.4674
  727MOL0     H98118   7.587   1.921   7.574  1.2406  0.3914 -1.0434
  727MOL0     H98119   7.615   1.663   7.421 -3.5993 -2.1935  0.4538
  727MOL0     H98120   7.565   1.820   7.356  0.9627 -2.6605 -1.7537
  727MOL0     H98121   7.400   1.636   7.551  0.3724  0.3852  2.1735
  727MOL0     H98122   7.366   1.805   7.507  0.1723  0.2319 -2.0390
  727MOL0     H98123   7.410   1.611   7.290 -0.7500 -2.4575  0.4372
  727MOL0     H98124   7.318   1.769   7.293  1.5386  0.0702  0.8646
  727MOL0     H98125   7.148   1.664   7.408 -2.0161 -2.1019 -1.7329
  727MOL0     H98126   7.253   1.519   7.442 -0.1554  0.6118  1.4382
  727MOL0     H98127   8.212   1.825   7.653 -1.2415  1.7108 -0.4228
  727MOL0     H98128   8.442   1.817   7.731  0.3771  1.4271 -2.2096
  727MOL0     H98129   8.749   1.822   7.855  0.3212 -1.5731  1.3581
  727MOL0     H98130   8.945   1.715   7.922 -1.5046  0.6873 -2.4707
  727MOL0     H98131  10.704   2.396   7.238  1.9409 -1.0929  1.2265
  727MOL0     H98132  10.863   2.616   7.217  0.8432 -3.2160  0.6355
  727MOL0     H98133  10.758   3.221   7.338  0.9993  0.8621 -0.3382
  727MOL0     H98134  10.914   3.391   7.353  0.6650 -0.1018  0.1339
  727MOL0     H98135  11.144   3.477   7.251 -0.2535  2.4217  0.5623
  727MOL0     H98136  11.053   3.538   7.386 -0.7639  1.3220 -0.3383
  727MOL0     H98137  11.232   3.634   7.492 -1.9062  0.3625 -0.5342
  727MOL0     H98138  11.252   3.660   7.316 -2.4092 -0.3537 -0.5437
  727MOL0     H98139  11.420   3.451   7.299  0.1923 -3.8094  2.2496
  727MOL0     H98140  11.406   3.457   7.480 -2.6956  1.1389  2.0844
  727MOL0     H98141  11.470   3.679   7.486 -1.3178 -0.0246 -0.1028
  727MOL0     H98142  11.505   3.687   7.314  0.0604  0.4649 -0.0769
  727MOL0     H98143  11.822   3.445   7.387 -1.3033 -0.8793 -3.8770
  727MOL0     H98144  11.233   3.119   7.408 -0.7458  1.3878  2.2363
  727MOL0     H98145  11.078   2.926   7.371 -0.4512 -0.8066 -0.7744
  728MOL0     O98146   7.352   5.169   9.497  0.3968 -0.2649  0.8264
  728MOL0     C98147   7.382   5.260   9.416 -0.6905  0.2734 -1.1534
  728MOL0     O98148   7.304   5.356   9.360  0.4074 -0.4362 -0.3448
  728MOL0     C98149   7.167   5.320   9.372  0.1682  0.7733 -0.7256
  728MOL0     C98150   7.107   5.232   9.284 -0.1739 -0.0588 -0.3585
  728MOL0     C98151   6.971   5.198   9.309 -0.0476  0.0803  0.5723
  728MOL0     C98152   6.889   5.273   9.394 -0.2048  0.5054 -0.6192
  728MOL0     O98153   6.754   5.256   9.405  1.2252 -1.0423  0.0456
  728MOL0     C98154   6.678   5.143   9.359 -0.7568  0.3346  0.5763
  728MOL0     C98155   6.528   5.170   9.385 -0.4449 -0.1505 -0.9006
  728MOL0     C98156   6.436   5.095   9.297  0.0700 -0.4261 -0.1156
  728MOL0     C98157   6.299   5.137   9.334  1.1495  0.5534 -0.2877
  728MOL0     C98158   6.193   5.071   9.242  0.1534 -0.4675  0.4992
  728MOL0     C98159   6.192   4.916   9.259 -0.3760 -1.0117 -0.9876
  728MOL0     C98160   6.095   4.855   9.163  0.0221  0.2563  0.7500
  728MOL0     C98161   6.110   4.700   9.152  0.3195 -0.4448 -0.1893
  728MOL0     N98162   6.006   4.645   9.065 -0.3888 -0.6149  0.0659
  728MOL0     C98163   5.868   4.632   9.088 -0.4319 -1.3235 -0.6156
  728MOL0     C98164   5.817   4.613   8.964 -0.2434  0.5157  0.1153
  728MOL0     C98165   5.673   4.580   8.934 -0.5275  0.2474  0.6602
  728MOL0     C98166   5.624   4.451   9.006  0.1839 -0.6375  0.4245
  728MOL0     C98167   5.501   4.381   8.947 -0.5395 -0.0162 -0.3998
  728MOL0     C98168   5.495   4.224   8.974  0.0326  0.8599  0.6338
  728MOL0     O98169   5.393   4.155   8.897 -0.2571 -0.2906 -0.4979
  728MOL0     C98170   5.262   4.158   8.936  0.0721  0.0002  0.4048
  728MOL0     C98171   5.186   4.055   8.876  0.6630  1.0667 -0.1102
  728MOL0     C98172   5.048   4.040   8.896  0.7393 -0.5853  0.0806
  728MOL0     C98173   4.983   3.921   8.824  0.2861  0.3450 -0.5622
  728MOL0     C98174   4.976   4.140   8.973  0.2294  0.0389 -0.0334
  728MOL0     C98175   4.825   4.158   8.980 -0.4064  0.5387  0.7325
  728MOL0     O98176   4.760   4.169   9.103 -0.4400  0.4011  0.2699
  728MOL0     C98177   4.629   4.196   9.114 -0.2916  0.2765 -0.0738
  728MOL0     C98178   4.588   4.286   9.204 -0.1579  0.4814 -0.8738
  728MOL0     C98179   4.450   4.312   9.219  0.4335 -0.1747  0.8100
  728MOL0     C98180   4.357   4.247   9.139  0.4119  0.5537 -0.1181
  728MOL0     O98181   4.220   4.244   9.156 -0.1674 -0.2060  0.1283
  728MOL0     C98182   4.168   4.334   9.260  0.1840 -0.8898  0.6416
  728MOL0     C98183   4.015   4.344   9.256 -0.0464  0.6864 -0.4340
  728MOL0     C98184   3.951   4.213   9.298 -0.1254 -0.0183 -0.4004
  728MOL0     C98185   3.802   4.228   9.333  0.0254  0.6916 -0.0576
  728MOL0     C98186   3.758   4.088   9.373  0.7670 -0.2816 -0.7096
  728MOL0     C98187   3.607   4.083   9.408  0.5600 -0.4524 -0.0289
  728MOL0     C98188   3.537   3.946   9.390  0.8110  0.3787 -0.4267
  728MOL0     C98189   3.403   3.938   9.466  0.1422  0.7533  0.6423
  728MOL0    Cl98190   3.426   3.978   9.650  0.1906 -0.2148  0.3211
  728MOL0     C98191   4.399   4.170   9.039  0.1401  0.3480  0.1479
  728MOL0     C98192   4.535   4.131   9.032 -0.5279 -0.2717  0.0451
  728MOL0     O98193   4.769   4.159   8.873 -0.0871  0.1895 -0.6726
  728MOL0     C98194   5.057   4.232   9.051 -0.1482 -0.3611  0.7957
  728MOL0     C98195   5.200   4.235   9.030  0.0079  0.2507  0.3697
  728MOL0     N98196   5.921   4.619   8.875 -0.4791  0.3664  0.3856
  728MOL0     N98197   6.036   4.626   8.936 -0.8159 -0.0929  0.1723
  728MOL0     C98198   6.952   5.379   9.470 -0.6087  0.0389  0.8143
  728MOL0     C98199   7.090   5.405   9.449  0.8136  0.8047 -0.0290
  728MOL0     C98200   7.530   5.266   9.391 -0.2731 -0.1098  0.5538
  728MOL0     C98201   7.584   5.351   9.307 -0.0971 -0.0043  0.5999
  728MOL0     C98202   7.729   5.346   9.275 -0.2389 -0.4871  0.6646
  728MOL0     C98203   7.815   5.246   9.329 -0.0466 -0.3802  0.1390
  728MOL0     O98204   7.951   5.246   9.322 -0.2384 -0.4523  0.2622
  728MOL0     C98205   8.003   5.315   9.205  0.3250  0.1858 -0.4410
  728MOL0     C98206   8.148   5.272   9.196 -0.3357  0.3930 -0.8197
  728MOL0     C98207   8.163   5.132   9.151 -0.0639 -0.6565  0.2280
  728MOL0     C98208   8.305   5.074   9.149 -0.5263 -0.5800 -0.5860
  728MOL0     C98209   8.311   4.938   9.112 -0.4333 -0.2363  0.4337
  728MOL0     C98210   8.316   4.832   9.068 -0.6109  0.6618  0.0142
  728MOL0     C98211   7.745   5.153   9.412 -0.5503  0.1672 -0.0065
  728MOL0     C98212   7.609   5.158   9.439  0.6319 -0.0183 -0.2138
  728MOL0     H98213   7.168   5.193   9.204  0.9625  1.8050 -0.4499
  728MOL0     H98214   6.924   5.115   9.258 -1.6943  2.0015 -1.2858
  728MOL0     H98215   6.693   5.142   9.250 -3.7475 -0.0171  0.0680
  728MOL0     H98216   6.713   5.045   9.395 -1.6547 -1.1647 -2.2903
  728MOL0     H98217   6.502   5.144   9.488  1.8466 -1.3703 -0.5503
  728MOL0     H98218   6.510   5.277   9.373 -2.8568 -0.5693 -1.3898
  728MOL0     H98219   6.465   5.125   9.196 -0.4857 -1.5110 -0.6163
  728MOL0     H98220   6.452   4.989   9.317  0.0598 -0.4808 -0.4003
  728MOL0     H98221   6.275   5.091   9.431 -0.4150  2.1196  0.1089
  728MOL0     H98222   6.284   5.245   9.337 -0.0961  0.4034  2.3694
  728MOL0     H98223   6.100   5.119   9.272  1.0032  0.4087  1.8268
  728MOL0     H98224   6.211   5.105   9.140 -0.2719  1.2363  0.9557
  728MOL0     H98225   6.293   4.874   9.248 -0.6081 -2.0726  0.4430
  728MOL0     H98226   6.159   4.888   9.360  1.3837 -0.9620 -0.3606
  728MOL0     H98227   5.990   4.881   9.179 -0.2520 -0.1452 -0.2779
  728MOL0     H98228   6.123   4.893   9.064 -0.2989 -1.1588  0.0838
  728MOL0     H98229   6.092   4.651   9.248  3.8645  1.1331  1.4780
  728MOL0     H98230   6.210   4.669   9.120  1.0532  0.7717  0.7897
  728MOL0     H98231   5.811   4.639   9.180 -0.5064 -0.9809 -0.6847
  728MOL0     H98232   5.619   4.671   8.960  0.9477  1.6712 -1.0129
  728MOL0     H98233   5.670   4.561   8.826 -1.9301 -3.6017  1.2337
  728MOL0     H98234   5.617   4.480   9.111  1.6705  3.7923 -0.4747
  728MOL0     H98235   5.707   4.381   8.996 -0.6437 -1.5130 -0.6176
  728MOL0     H98236   5.502   4.388   8.838 -1.8190 -0.6438 -0.4682
  728MOL0     H98237   5.409   4.428   8.984 -1.4074 -2.1153  0.2503
  728MOL0     H98238   5.477   4.207   9.081  1.1939 -0.6594  0.6302
  728MOL0     H98239   5.586   4.175   8.940 -0.2700  0.7396 -0.0076
  728MOL0     H98240   5.231   3.981   8.811  0.1741  0.6117  0.0648
  728MOL0     H98241   5.050   3.840   8.854  0.6491  1.3999  1.7114
  728MOL0     H98242   4.879   3.901   8.852 -0.2548 -2.8537 -4.1016
  728MOL0     H98243   4.981   3.923   8.715  0.1261  0.0263 -0.5674
  728MOL0     H98244   4.661   4.331   9.271  2.0870 -6.2976  2.2381
  728MOL0     H98245   4.419   4.371   9.306  1.3972  0.6530  0.6209
  728MOL0     H98246   4.219   4.295   9.349 -1.0655  0.3514  1.9619
  728MOL0     H98247   4.210   4.435   9.256 -2.4429  0.2514 -0.1621
  728MOL0     H98248   3.995   4.419   9.333  2.7181  1.7090 -0.6125
  728MOL0     H98249   3.972   4.386   9.165  2.3031  2.5140 -0.7787
  728MOL0     H98250   4.002   4.166   9.382 -1.8541 -0.1657  0.6254
  728MOL0     H98251   3.967   4.138   9.220  0.0587  1.8220 -2.2241
  728MOL0     H98252   3.789   4.297   9.417  2.5333  1.9853 -0.6349
  728MOL0     H98253   3.736   4.260   9.252 -3.1945 -0.0483  2.0745
  728MOL0     H98254   3.818   4.061   9.460 -0.2576  0.3714  0.2243
  728MOL0     H98255   3.778   4.016   9.293  0.0720 -0.7861 -0.4397
  728MOL0     H98256   3.587   4.128   9.506 -1.4379  1.3566 -1.1738
  728MOL0     H98257   3.556   4.154   9.341  3.0167  1.8954  0.3980
  728MOL0     H98258   3.593   3.856   9.420  1.1276  0.4756 -0.7075
  728MOL0     H98259   3.519   3.924   9.284  0.4385 -1.2583 -0.0596
  728MOL0     H98260   3.361   3.839   9.447  2.7213 -0.1211 -0.9631
  728MOL0     H98261   3.336   4.013   9.422 -3.1860 -1.8309  0.9248
  728MOL0     H98262   4.318   4.124   8.983  0.5068 -3.7197  2.5125
  728MOL0     H98263   4.560   4.066   8.949 -1.1279  0.6652 -0.9152
  728MOL0     H98264   5.001   4.297   9.117  0.0642  0.3610  0.2763
  728MOL0     H98265   5.253   4.303   9.096 -0.6712  0.9452  0.2119
  728MOL0     H98266   6.900   5.451   9.531  0.8397  2.9142 -1.0784
  728MOL0     H98267   7.133   5.486   9.507 -0.2781  0.2409  1.6607
  728MOL0     H98268   7.516   5.422   9.262 -0.0086  0.9243  1.8914
  728MOL0     H98269   7.770   5.412   9.199  1.8907 -1.7111  0.6843
  728MOL0     H98270   7.942   5.304   9.115 -0.3659  1.2876 -0.1256
  728MOL0     H98271   8.006   5.422   9.225  0.7288  0.0413  0.2924
  728MOL0     H98272   8.197   5.282   9.294  1.4326 -0.9769 -1.5066
  728MOL0     H98273   8.198   5.342   9.129 -1.3542  2.2173  0.2397
  728MOL0     H98274   8.114   5.127   9.054 -2.2178  0.1902  1.2225
  728MOL0     H98275   8.100   5.069   9.213 -2.0840  2.0551  1.1057
  728MOL0     H98276   8.339   5.091   9.252 -1.6588 -1.5822 -0.0222
  728MOL0     H98277   8.380   5.126   9.088  1.3651  0.1336  2.1050
  728MOL0     H98278   8.335   4.742   9.012  0.1382  1.7784 -1.6381
  728MOL0     H98279   7.795   5.068   9.456  1.7285  0.8212 -1.1970
  728MOL0     H98280   7.566   5.086   9.508 -0.8360 -2.1554 -3.1189
  729MOL0     O98281   2.606   1.955   7.271  0.6440 -0.2146 -0.0859
  729MOL0     C98282   2.601   2.005   7.389  0.3081  0.1025 -0.1446
  729MOL0     O98283   2.694   2.001   7.486 -0.2391 -0.0107 -0.6887
  729MOL0     C98284   2.811   1.930   7.464 -0.9830 -0.4805  0.3299
  729MOL0     C98285   2.915   1.986   7.535 -0.1411  0.6164 -0.4470
  729MOL0     C98286   3.046   1.944   7.518  0.2452 -0.7236  0.7534
  729MOL0     C98287   3.074   1.821   7.450  0.2230 -0.6351 -0.6457
  729MOL0     O98288   3.192   1.746   7.450  0.0540  0.2133 -0.7325
  729MOL0     C98289   3.294   1.802   7.538 -0.1373 -0.2083 -0.0221
  729MOL0     C98290   3.421   1.716   7.544  0.4488 -0.2329 -0.4705
  729MOL0     C98291   3.535   1.803   7.607 -0.1914 -0.6548  0.2196
  729MOL0     C98292   3.535   1.800   7.764 -0.3396  0.1454  0.4233
  729MOL0     C98293   3.648   1.876   7.824  0.0649  0.0071 -0.5943
  729MOL0     C98294   3.662   1.822   7.969 -0.6601  0.3428 -0.3114
  729MOL0     C98295   3.790   1.860   8.048  0.0570 -0.0456 -0.2059
  729MOL0     C98296   3.821   1.776   8.170  0.3551 -0.4506 -0.4540
  729MOL0     N98297   3.727   1.797   8.282  0.0210 -0.2359  0.5676
  729MOL0     C98298   3.737   1.897   8.371  0.4128  0.3079 -0.6644
  729MOL0     C98299   3.629   1.889   8.458 -0.4211 -0.0782 -0.3687
  729MOL0     C98300   3.616   1.957   8.599 -0.3226 -0.2723  0.1124
  729MOL0     C98301   3.554   2.093   8.591  0.7398 -0.8409  0.2028
  729MOL0     C98302   3.407   2.078   8.547  0.8079 -0.5204 -1.0593
  729MOL0     C98303   3.312   2.038   8.669  0.6674  0.4342 -0.6569
  729MOL0     O98304   3.289   2.138   8.776 -0.5858  0.4672 -0.1266
  729MOL0     C98305   3.157   2.140   8.817  0.3149 -0.7623 -0.3442
  729MOL0     C98306   3.113   2.035   8.904  0.2246 -0.6405  0.3441
  729MOL0     C98307   2.981   2.026   8.940  0.8036  0.3882  0.0078
  729MOL0     C98308   2.952   1.903   9.027 -0.2019 -0.6193 -0.0462
  729MOL0     C98309   2.891   2.124   8.889 -0.4175 -0.0760 -0.3207
  729MOL0     C98310   2.746   2.127   8.922  1.2653 -0.2608  0.2307
  729MOL0     O98311   2.706   2.043   9.015 -0.2636 -0.1302  0.3429
  729MOL0     C98312   2.577   2.033   9.050 -0.1058 -0.1043 -0.2366
  729MOL0     C98313   2.492   1.950   8.986  0.6613  0.4464  0.0260
  729MOL0     C98314   2.359   1.929   9.035 -0.6626  0.5917 -0.2827
  729MOL0     C98315   2.313   2.002   9.146 -0.0280 -0.3517 -0.2572
  729MOL0     O98316   2.183   1.969   9.192 -0.3993 -0.6448 -0.5772
  729MOL0     C98317   2.101   2.067   9.246 -0.2946  0.3613  0.3825
  729MOL0     C98318   1.973   2.002   9.294  0.0408 -0.0603  0.0775
  729MOL0     C98319   1.887   2.106   9.359  0.6292 -0.9424 -0.7987
  729MOL0     C98320   1.752   2.062   9.407 -0.5116 -0.0823 -0.0025
  729MOL0     C98321   1.673   2.177   9.468 -0.6094  0.3543  0.2371
  729MOL0     C98322   1.532   2.138   9.517 -0.1201  0.2567 -0.5046
  729MOL0     C98323   1.442   2.256   9.537 -0.2658  0.3981  0.5905
  729MOL0     C98324   1.466   2.338   9.661  0.4081 -0.2388  0.0801
  729MOL0    Cl98325   1.415   2.262   9.814  0.5189  0.0203 -0.3995
  729MOL0     C98326   2.394   2.093   9.211  0.4382 -0.0627 -0.1920
  729MOL0     C98327   2.526   2.109   9.159 -0.5735  0.8374  1.1771
  729MOL0     O98328   2.671   2.212   8.866  0.8154  0.1853  0.0166
  729MOL0     C98329   2.935   2.228   8.804  0.3326 -0.1211 -0.4309
  729MOL0     C98330   3.069   2.238   8.761 -0.1502  0.6468  0.6950
  729MOL0     N98331   3.551   1.788   8.403  0.3871 -0.0622  0.1866
  729MOL0     N98332   3.603   1.736   8.300  0.1369  0.3182 -0.1665
  729MOL0     C98333   2.965   1.766   7.386 -0.1852 -0.0072 -1.0747
  729MOL0     C98334   2.840   1.822   7.386  0.2637  0.2896 -0.2090
  729MOL0     C98335   2.471   2.074   7.420  0.2695  0.0291 -0.4359
  729MOL0     C98336   2.458   2.162   7.537 -0.0141 -0.5711  0.0933
  729MOL0     C98337   2.342   2.231   7.575 -0.0954 -1.0794  0.1083
  729MOL0     C98338   2.226   2.198   7.505 -0.3900  0.5640 -0.3303
  729MOL0     O98339   2.104   2.235   7.548 -0.6744  0.1450  0.0369
  729MOL0     C98340   2.092   2.326   7.651  0.1349 -0.1961 -0.0551
  729MOL0     C98341   1.947   2.355   7.667  1.5163 -0.1047  0.3967
  729MOL0     C98342   1.860   2.243   7.713 -0.5208 -0.0711  0.3645
  729MOL0     C98343   1.707   2.285   7.708 -0.2975  0.6785 -0.6499
  729MOL0     C98344   1.628   2.216   7.805 -0.5971  0.4566 -0.0621
  729MOL0     C98345   1.561   2.153   7.890 -0.6515  0.2903 -0.3376
  729MOL0     C98346   2.226   2.109   7.389 -0.4368  0.4144  0.5293
  729MOL0     C98347   2.353   2.057   7.341 -0.4842 -0.4244 -0.5597
  729MOL0     H98348   2.889   2.072   7.595  1.2743 -0.2707  1.5621
  729MOL0     H98349   3.122   1.986   7.582 -0.9123 -0.8462  2.2820
  729MOL0     H98350   3.320   1.906   7.520 -1.5361  0.1980  0.1988
  729MOL0     H98351   3.254   1.799   7.640 -0.1772 -1.2878 -0.0562
  729MOL0     H98352   3.406   1.620   7.594 -1.7397  1.1307  1.7273
  729MOL0     H98353   3.442   1.696   7.438 -0.8113 -1.3534 -0.5304
  729MOL0     H98354   3.637   1.779   7.574 -0.1177  1.0350 -0.9133
  729MOL0     H98355   3.528   1.907   7.574 -2.0939 -1.2186 -1.3177
  729MOL0     H98356   3.444   1.846   7.803  1.8870  2.4370  3.4073
  729MOL0     H98357   3.541   1.695   7.793  1.0781 -0.4038 -1.5958
  729MOL0     H98358   3.743   1.867   7.770  2.5568  3.6772  2.5537
  729MOL0     H98359   3.623   1.982   7.834  2.5263  0.5602  0.4685
  729MOL0     H98360   3.568   1.849   8.018 -0.7441 -0.2600 -0.1215
  729MOL0     H98361   3.657   1.712   7.969 -1.5585  0.3748  0.1600
  729MOL0     H98362   3.875   1.850   7.980  0.1399  0.4337 -0.1771
  729MOL0     H98363   3.782   1.965   8.079 -0.3871  0.1831 -1.0557
  729MOL0     H98364   3.919   1.810   8.203  1.0587 -1.5095 -1.3771
  729MOL0     H98365   3.839   1.669   8.154 -0.1736 -1.3430  3.7761
  729MOL0     H98366   3.821   1.965   8.380  0.1336  0.6391 -0.5326
  729MOL0     H98367   3.554   1.894   8.664  0.0623 -1.4241 -0.5967
  729MOL0     H98368   3.717   1.960   8.640  0.2810 -2.5207 -1.0611
  729MOL0     H98369   3.599   2.160   8.517 -0.1319 -0.9035 -0.4002
  729MOL0     H98370   3.550   2.142   8.688 -0.8985 -0.5805  0.0310
  729MOL0     H98371   3.392   1.994   8.479 -1.1214 -1.9086  0.9435
  729MOL0     H98372   3.366   2.161   8.490 -0.6843 -1.2192 -1.0615
  729MOL0     H98373   3.356   1.951   8.720  0.7093  1.3575  0.9388
  729MOL0     H98374   3.216   2.014   8.624  0.8329 -0.6290 -0.4848
  729MOL0     H98375   3.188   1.962   8.934 -0.2546 -1.0317  0.6084
  729MOL0     H98376   2.881   1.836   8.978 -0.1753 -1.0793  0.5302
  729MOL0     H98377   3.036   1.839   9.052 -0.3139 -0.2980  1.2383
  729MOL0     H98378   2.908   1.928   9.125 -1.1101  1.7967 -0.9928
  729MOL0     H98379   2.522   1.904   8.892 -3.5214 -2.5002 -0.1937
  729MOL0     H98380   2.292   1.855   8.992  0.5596 -0.8651  0.2768
  729MOL0     H98381   2.152   2.086   9.341  0.9632 -0.9061 -0.0029
  729MOL0     H98382   2.077   2.147   9.176 -0.1962  0.3147  0.2967
  729MOL0     H98383   1.925   1.960   9.206 -4.5210  0.8661  1.8420
  729MOL0     H98384   2.003   1.922   9.363 -0.9436 -1.9638 -1.5933
  729MOL0     H98385   1.878   2.186   9.285  0.9320  0.3196  0.4730
  729MOL0     H98386   1.938   2.154   9.444 -1.0548  1.8403 -1.2349
  729MOL0     H98387   1.695   2.019   9.323  1.3629  0.1947 -1.4899
  729MOL0     H98388   1.767   1.990   9.487  1.5182 -0.9067 -1.0704
  729MOL0     H98389   1.655   2.252   9.390  2.3469 -1.4998 -2.4697
  729MOL0     H98390   1.728   2.232   9.546  1.4086 -0.4487 -0.5407
  729MOL0     H98391   1.490   2.069   9.443  0.0250 -0.8787  0.4306
  729MOL0     H98392   1.533   2.088   9.615 -1.2342 -0.2348 -0.7292
  729MOL0     H98393   1.342   2.212   9.542  1.0026 -3.4989 -2.8534
  729MOL0     H98394   1.457   2.316   9.447  2.2772  0.6058  1.0833
  729MOL0     H98395   1.414   2.433   9.651  1.4448  0.1668 -2.0304
  729MOL0     H98396   1.572   2.358   9.683  0.8108  0.2525 -2.1024
  729MOL0     H98397   2.360   2.155   9.293 -1.8067  2.1637 -2.6110
  729MOL0     H98398   2.594   2.186   9.193  0.9237 -1.2032  3.0495
  729MOL0     H98399   2.863   2.296   8.760  0.9980  0.0944 -1.2171
  729MOL0     H98400   3.093   2.319   8.693 -0.1212 -0.5216 -0.7352
  729MOL0     H98401   2.977   1.674   7.329 -0.7962 -0.4506 -0.5118
  729MOL0     H98402   2.756   1.769   7.341 -0.0329 -0.8850  1.6198
  729MOL0     H98403   2.558   2.174   7.577  0.6704  1.7665 -2.0892
  729MOL0     H98404   2.338   2.295   7.662 -1.0758 -2.4839  1.1518
  729MOL0     H98405   2.131   2.286   7.745  0.1824  2.4880  1.1748
  729MOL0     H98406   2.142   2.421   7.629 -1.1726  0.6677  0.5540
  729MOL0     H98407   1.900   2.382   7.572  3.0120 -1.3583 -0.7469
  729MOL0     H98408   1.957   2.444   7.730 -0.0309  2.0676 -2.1686
  729MOL0     H98409   1.881   2.224   7.819 -0.4995 -1.0699  0.1897
  729MOL0     H98410   1.878   2.150   7.659  1.8998  0.5531 -0.0143
  729MOL0     H98411   1.663   2.255   7.612  1.2172  1.0623 -1.4898
  729MOL0     H98412   1.698   2.393   7.723  1.1476  0.7000  0.2811
  729MOL0     H98413   1.501   2.093   7.955  0.5798  1.8447  2.4223
  729MOL0     H98414   2.138   2.084   7.331  1.5157  0.1199 -2.5291
  729MOL0     H98415   2.350   1.982   7.263  0.5312  0.1568 -1.1719
  730MOL0     O98416   1.194   4.834   2.684 -0.2334 -0.5461  0.4664
  730MOL0     C98417   1.240   4.927   2.759 -1.2977 -0.1799  0.5675
  730MOL0     O98418   1.183   4.981   2.869 -0.3212  0.9317  0.0036
  730MOL0     C98419   1.074   4.914   2.925  0.0603  0.0273  0.6103
  730MOL0     C98420   0.951   4.923   2.864 -1.2017 -0.1348  0.3686
  730MOL0     C98421   0.839   4.857   2.914 -0.4154  0.0175  0.1380
  730MOL0     C98422   0.854   4.775   3.032  0.8806 -0.4293  0.3718
  730MOL0     O98423   0.738   4.708   3.064 -0.5054 -0.5476 -0.0517
  730MOL0     C98424   0.742   4.582   3.135  0.9930 -0.1698  0.2078
  730MOL0     C98425   0.615   4.566   3.234 -0.0704  0.0126  0.2716
  730MOL0     C98426   0.601   4.689   3.319 -0.6103  0.1289  0.0222
  730MOL0     C98427   0.451   4.701   3.361 -0.6156 -0.0321  0.3181
  730MOL0     C98428   0.447   4.765   3.498 -0.4423  0.3965  0.6787
  730MOL0     C98429   0.312   4.822   3.529  0.1164 -0.7058 -0.2011
  730MOL0     C98430   0.194   4.728   3.543 -0.2941  0.3542 -0.9649
  730MOL0     C98431   0.058   4.798   3.522 -0.2234 -0.1746  0.0647
  730MOL0     N98432  -0.060   4.715   3.523  1.0700  0.6046 -0.6925
  730MOL0     C98433  -0.130   4.680   3.409 -0.7905  0.2622 -0.5444
  730MOL0     C98434  -0.244   4.622   3.458 -0.4888 -0.4709  0.2258
  730MOL0     C98435  -0.359   4.561   3.375 -0.2655 -0.7979 -0.1764
  730MOL0     C98436  -0.355   4.412   3.380  0.4128  0.1252 -0.6771
  730MOL0     C98437  -0.498   4.359   3.349  0.8344  0.1572  0.6957
  730MOL0     C98438  -0.509   4.207   3.390 -0.7657  0.1501  0.0531
  730MOL0     O98439  -0.581   4.132   3.297  0.1705  0.4153 -0.0655
  730MOL0     C98440  -0.713   4.163   3.269 -0.1429 -0.4164  0.2622
  730MOL0     C98441  -0.793   4.241   3.344 -0.4936  0.3249  0.3312
  730MOL0     C98442  -0.930   4.251   3.320 -0.6036  0.2185 -0.6008
  730MOL0     C98443  -0.999   4.332   3.428  0.3659  0.0764  0.3278
  730MOL0     C98444  -0.989   4.179   3.210 -0.9360 -0.1156 -0.1037
  730MOL0     C98445  -1.132   4.180   3.179 -0.6669  0.0480  0.0659
  730MOL0     O98446  -1.167   4.116   3.065  0.1815  0.4781 -0.4891
  730MOL0     C98447  -1.294   4.070   3.046  0.1687 -0.0062 -0.0390
  730MOL0     C98448  -1.395   4.053   3.146  0.3617  1.2089  0.3682
  730MOL0     C98449  -1.528   4.022   3.110  0.4302 -0.3473 -0.1997
  730MOL0     C98450  -1.556   3.988   2.978  0.0949  0.2830 -0.8508
  730MOL0     O98451  -1.691   3.964   2.938  0.7928  0.2254 -0.0191
  730MOL0     C98452  -1.788   3.917   3.027 -0.1936 -0.0408 -0.0535
  730MOL0     C98453  -1.852   3.810   2.956  0.2140  0.5784  0.7785
  730MOL0     C98454  -1.964   3.754   3.043 -0.3976  0.8880 -0.0525
  730MOL0     C98455  -2.092   3.821   2.999 -0.3346 -0.9242 -1.0376
  730MOL0     C98456  -2.197   3.828   3.103 -0.1043 -0.0101 -0.4576
  730MOL0     C98457  -2.296   3.940   3.071  0.6732  0.0413 -0.3298
  730MOL0     C98458  -2.374   3.925   2.940  0.6770 -0.0435 -0.2070
  730MOL0     C98459  -2.468   4.048   2.916 -0.2668  0.4335 -0.9371
  730MOL0    Cl98460  -2.624   4.019   2.998 -0.2596  0.1809  0.3382
  730MOL0     C98461  -1.454   3.990   2.881  0.1869  0.4752  0.4946
  730MOL0     C98462  -1.325   4.039   2.914  0.5979  0.7342 -0.0288
  730MOL0     O98463  -1.209   4.229   3.264  0.2758 -0.3507 -0.4156
  730MOL0     C98464  -0.907   4.105   3.126 -0.4683  0.1098 -0.4086
  730MOL0     C98465  -0.769   4.101   3.162  0.4383 -0.8448 -0.8210
  730MOL0     N98466  -0.232   4.618   3.598 -0.0083 -0.0507 -0.6609
  730MOL0     N98467  -0.127   4.673   3.636  0.0804 -0.1012  0.2660
  730MOL0     C98468   0.978   4.769   3.097 -0.0208  0.5403  0.4281
  730MOL0     C98469   1.083   4.836   3.038 -0.4717 -1.2914 -1.0077
  730MOL0     C98470   1.354   5.004   2.701 -0.0684  0.6470  1.0629
  730MOL0     C98471   1.430   4.956   2.591 -0.2680  0.7903 -0.1959
  730MOL0     C98472   1.544   5.017   2.549  0.2393  0.1253 -0.2343
  730MOL0     C98473   1.582   5.136   2.610  1.1865  0.4316 -0.0607
  730MOL0     O98474   1.697   5.201   2.582  0.0297  0.3545  0.4053
  730MOL0     C98475   1.740   5.214   2.448  0.1348  0.8238 -0.1896
  730MOL0     C98476   1.850   5.104   2.418 -0.5310 -0.3448  0.4380
  730MOL0     C98477   1.991   5.160   2.397 -0.4130  0.0630 -0.1399
  730MOL0     C98478   2.092   5.059   2.331 -0.2352 -0.7828 -0.0831
  730MOL0     C98479   2.148   4.982   2.436  0.5272  0.0779  0.2865
  730MOL0     C98480   2.205   4.909   2.518  0.1058  0.3289  0.2585
  730MOL0     C98481   1.505   5.192   2.718  0.4756 -0.6007  1.0453
  730MOL0     C98482   1.387   5.132   2.756  0.5630  0.0263  0.0401
  730MOL0     H98483   0.956   4.971   2.766  2.2214 -0.4282  0.2983
  730MOL0     H98484   0.745   4.867   2.860 -0.8609  2.3777  1.2427
  730MOL0     H98485   0.755   4.499   3.066 -1.2289 -0.5061  0.1286
  730MOL0     H98486   0.829   4.580   3.201  0.6528  2.2830  0.8424
  730MOL0     H98487   0.529   4.555   3.166 -0.1822 -1.7473  0.6524
  730MOL0     H98488   0.617   4.478   3.298  0.7446 -0.7962 -0.8222
  730MOL0     H98489   0.664   4.681   3.408 -1.5806 -0.5957  0.6727
  730MOL0     H98490   0.622   4.783   3.268 -2.3874  0.9012  0.6175
  730MOL0     H98491   0.402   4.775   3.297  1.2873 -0.1023 -1.2988
  730MOL0     H98492   0.400   4.604   3.353 -0.1357 -0.1251 -2.9459
  730MOL0     H98493   0.484   4.695   3.574  0.2884  2.1113  1.9661
  730MOL0     H98494   0.519   4.847   3.493 -0.4698  0.3204 -1.9181
  730MOL0     H98495   0.327   4.883   3.619  0.4446  1.7355 -1.8166
  730MOL0     H98496   0.286   4.891   3.449  0.7677 -2.8356 -2.3450
  730MOL0     H98497   0.207   4.655   3.462  0.9115  1.5486 -1.8911
  730MOL0     H98498   0.201   4.689   3.646 -1.7205  0.4671 -0.8110
  730MOL0     H98499   0.072   4.849   3.426  3.3996 -0.4059  0.3362
  730MOL0     H98500   0.051   4.876   3.598 -0.0938  1.3087 -1.3735
  730MOL0     H98501  -0.100   4.691   3.306  0.8499  1.9162  0.0597
  730MOL0     H98502  -0.453   4.590   3.422 -1.5658 -3.5805 -0.8312
  730MOL0     H98503  -0.361   4.592   3.270 -0.1335 -1.4818 -0.3838
  730MOL0     H98504  -0.311   4.373   3.473  0.6785  0.3437 -0.7098
  730MOL0     H98505  -0.274   4.382   3.312  1.3468 -2.2263  1.2888
  730MOL0     H98506  -0.525   4.368   3.243 -1.2901 -1.0909  1.0745
  730MOL0     H98507  -0.569   4.414   3.410 -2.0277 -1.8624 -0.5902
  730MOL0     H98508  -0.539   4.204   3.496  2.2647  2.1846  1.1006
  730MOL0     H98509  -0.409   4.165   3.391 -0.6379  0.4014 -1.2506
  730MOL0     H98510  -0.751   4.291   3.431  1.8838  0.6796 -0.9464
  730MOL0     H98511  -1.058   4.268   3.495 -1.8216  0.8226 -0.7639
  730MOL0     H98512  -0.942   4.388   3.503  0.0900 -0.7442  1.1675
  730MOL0     H98513  -1.075   4.396   3.380  0.1590  1.5228  2.4368
  730MOL0     H98514  -1.365   4.070   3.249  2.3656 -2.1925  0.4826
  730MOL0     H98515  -1.608   4.021   3.184 -0.6727 -2.2444 -1.3252
  730MOL0     H98516  -1.738   3.883   3.118  0.4832  1.0530  0.0131
  730MOL0     H98517  -1.850   4.001   3.060  0.7579  1.3476 -1.5628
  730MOL0     H98518  -1.881   3.837   2.854 -0.5700  0.9896  1.1050
  730MOL0     H98519  -1.780   3.730   2.938  0.2654 -0.3140  4.2288
  730MOL0     H98520  -1.925   3.783   3.140  1.1254 -1.8167  0.2465
  730MOL0     H98521  -1.963   3.644   3.043  0.8804  0.8833  0.9516
  730MOL0     H98522  -2.068   3.928   2.993 -1.5549 -0.4836  1.0372
  730MOL0     H98523  -2.131   3.775   2.908 -2.3959 -0.6485 -0.3420
  730MOL0     H98524  -2.152   3.848   3.201  1.1164 -3.5602 -0.1292
  730MOL0     H98525  -2.250   3.733   3.109 -1.9649  0.6733 -3.7094
  730MOL0     H98526  -2.366   3.966   3.151  1.5396 -0.9206  0.7719
  730MOL0     H98527  -2.244   4.036   3.066 -0.6669  0.9389  1.7330
  730MOL0     H98528  -2.432   3.832   2.946  2.4998 -1.2221  0.0657
  730MOL0     H98529  -2.301   3.924   2.858  4.7320  2.8513  2.9679
  730MOL0     H98530  -2.495   4.064   2.811 -2.6369 -0.2948 -0.5121
  730MOL0     H98531  -2.426   4.140   2.957 -1.3399  0.5552 -0.0316
  730MOL0     H98532  -1.470   3.965   2.777  1.5002  0.2562  0.3292
  730MOL0     H98533  -1.250   4.059   2.839  0.1115 -1.4975 -1.1955
  730MOL0     H98534  -0.942   4.056   3.036  0.7561 -1.9889  0.2026
  730MOL0     H98535  -0.698   4.040   3.108  1.1931 -0.4937 -0.2414
  730MOL0     H98536   0.984   4.698   3.179 -2.1956  0.5879  0.6965
  730MOL0     H98537   1.175   4.834   3.096  0.1910  1.8188 -1.7746
  730MOL0     H98538   1.397   4.863   2.545 -1.4200  0.7778  0.6287
  730MOL0     H98539   1.600   4.969   2.469 -0.0609 -1.5583  0.5377
  730MOL0     H98540   1.660   5.205   2.374  1.1371  2.1329 -1.4818
  730MOL0     H98541   1.786   5.312   2.437  1.6226 -0.0728 -2.5760
  730MOL0     H98542   1.809   5.055   2.329 -0.8227 -2.1055  1.4950
  730MOL0     H98543   1.853   5.037   2.504  0.4596  2.3445  2.6174
  730MOL0     H98544   2.032   5.195   2.492 -0.6273 -2.5591  1.0034
  730MOL0     H98545   1.981   5.250   2.335  0.8199  1.0703  1.0402
  730MOL0     H98546   2.169   5.118   2.281  0.2351  1.1914  2.7778
  730MOL0     H98547   2.053   4.982   2.262  3.7502 -0.6207 -2.8544
  730MOL0     H98548   2.246   4.832   2.580 -0.2726 -0.8527 -0.9106
  730MOL0     H98549   1.544   5.283   2.762 -0.1896  0.0303  0.3568
  730MOL0     H98550   1.331   5.171   2.840 -1.4866 -1.4532 -0.5507
  731MOL0     O98551   9.362   2.327   2.214 -0.0050  0.1483 -0.3414
  731MOL0     C98552   9.420   2.247   2.139 -0.9079  0.5556 -0.3419
  731MOL0     O98553   9.360   2.154   2.049  0.1718  0.1789  0.0284
  731MOL0     C98554   9.231   2.188   2.004 -0.5191  0.2563 -0.3415
  731MOL0     C98555   9.183   2.312   1.976  0.0188  0.2596  0.3824
  731MOL0     C98556   9.059   2.340   1.920  0.2907 -0.3209 -0.0723
  731MOL0     C98557   8.975   2.231   1.881 -0.4645  0.1177 -0.5485
  731MOL0     O98558   8.853   2.252   1.815 -0.2654 -0.7223  0.1609
  731MOL0     C98559   8.819   2.386   1.776  0.6023 -0.1110  0.3924
  731MOL0     C98560   8.672   2.380   1.743  0.7327 -0.0556  0.5484
  731MOL0     C98561   8.613   2.514   1.721 -0.5638 -0.7980  0.0459
  731MOL0     C98562   8.462   2.511   1.717  0.4563 -0.4161 -0.2202
  731MOL0     C98563   8.409   2.654   1.704 -0.3374  0.2413 -0.3771
  731MOL0     C98564   8.255   2.655   1.697 -0.0577  1.3012 -1.4021
  731MOL0     C98565   8.204   2.802   1.664  0.4822  1.1150  0.2498
  731MOL0     C98566   8.226   2.903   1.772  0.1457 -0.2038 -0.1550
  731MOL0     N98567   8.136   3.023   1.747  0.1075  0.1115 -0.0686
  731MOL0     C98568   7.993   3.039   1.724  0.2662  0.2647  0.3823
  731MOL0     C98569   7.972   3.168   1.696  1.2482  0.4220  0.4192
  731MOL0     C98570   7.838   3.236   1.672  0.2180  0.6245  0.7666
  731MOL0     C98571   7.774   3.173   1.541 -0.2370  0.1049  0.2293
  731MOL0     C98572   7.787   3.271   1.429 -0.6951  0.4742 -0.2225
  731MOL0     C98573   7.725   3.223   1.300  0.1719  0.4964 -0.2057
  731MOL0     O98574   7.586   3.190   1.319 -0.4654  0.4075 -0.1484
  731MOL0     C98575   7.522   3.146   1.206  0.9250 -0.3020  0.3550
  731MOL0     C98576   7.385   3.164   1.192 -1.1019  0.3004 -0.1351
  731MOL0     C98577   7.309   3.120   1.073  0.5062 -0.0006 -0.1224
  731MOL0     C98578   7.158   3.152   1.085 -0.0098  0.1950 -0.7781
  731MOL0     C98579   7.382   3.067   0.961 -0.0899 -0.0369  0.7450
  731MOL0     C98580   7.318   3.020   0.830 -0.0911 -0.3045 -0.6793
  731MOL0     O98581   7.408   2.983   0.725  0.2034 -0.0832 -0.0102
  731MOL0     C98582   7.342   2.975   0.603 -0.9474  0.1277  0.2315
  731MOL0     C98583   7.229   2.892   0.565 -0.7738 -0.9754  0.0073
  731MOL0     C98584   7.169   2.906   0.446 -0.5336  0.0669 -0.4812
  731MOL0     C98585   7.232   2.983   0.342  0.1951 -0.6497  0.9173
  731MOL0     O98586   7.169   2.994   0.214  0.2874  0.2663  0.0865
  731MOL0     C98587   7.221   3.075   0.106 -0.0263 -0.2738 -0.3920
  731MOL0     C98588   7.131   3.075  -0.024  0.0131  0.5690  0.1096
  731MOL0     C98589   7.125   2.941  -0.095 -0.7663  0.1206  0.2561
  731MOL0     C98590   7.052   2.942  -0.228  1.0067 -0.4533 -0.7069
  731MOL0     C98591   7.102   3.023  -0.347 -0.5567 -0.1129 -0.7130
  731MOL0     C98592   7.006   3.053  -0.465 -0.6215  0.9027  0.1315
  731MOL0     C98593   6.989   2.920  -0.536  0.0309  0.0386  0.4629
  731MOL0     C98594   6.878   2.924  -0.636  0.4031  0.2825  0.2261
  731MOL0    Cl98595   6.868   2.764  -0.721 -0.1127 -0.2637  0.0752
  731MOL0     C98596   7.333   3.065   0.373 -1.0608  0.3377 -0.1543
  731MOL0     C98597   7.394   3.066   0.504 -0.3018  0.5569 -0.2050
  731MOL0     O98598   7.194   3.014   0.823 -0.3075 -0.7082  0.1566
  731MOL0     C98599   7.516   3.051   0.978 -0.5046 -0.0364 -0.4444
  731MOL0     C98600   7.589   3.094   1.097  0.5130 -0.4145  0.0236
  731MOL0     N98601   8.096   3.229   1.715  0.7527 -0.2549 -0.6767
  731MOL0     N98602   8.192   3.147   1.745 -0.1008  0.2911 -1.4503
  731MOL0     C98603   9.018   2.105   1.897 -0.2712 -0.2853 -0.5100
  731MOL0     C98604   9.144   2.083   1.963  0.4166 -0.3430 -0.7950
  731MOL0     C98605   9.571   2.239   2.155 -0.3249  0.0165 -0.5197
  731MOL0     C98606   9.635   2.309   2.257  0.0718 -0.5866 -0.4524
  731MOL0     C98607   9.771   2.317   2.261 -0.2527 -0.3579  1.4016
  731MOL0     C98608   9.849   2.253   2.171  0.4362  0.8831  0.5948
  731MOL0     O98609   9.983   2.276   2.179  0.0642  0.0544 -0.5481
  731MOL0     C98610  10.052   2.296   2.056  0.1515  0.0967 -0.2947
  731MOL0     C98611  10.202   2.319   2.078  0.3712  0.3549 -0.0351
  731MOL0     C98612  10.217   2.454   2.151  0.3389 -0.1092 -0.0247
  731MOL0     C98613  10.361   2.493   2.164 -0.4898 -0.3884 -0.7099
  731MOL0     C98614  10.386   2.570   2.290  0.0669  0.0394  1.0035
  731MOL0     C98615  10.397   2.638   2.391  0.9202 -0.3195  0.4915
  731MOL0     C98616   9.788   2.186   2.066 -0.5168  1.4023 -1.4293
  731MOL0     C98617   9.651   2.173   2.059  0.4044  0.1176 -0.5911
  731MOL0     H98618   9.254   2.391   1.998  0.1987  0.1049  0.3635
  731MOL0     H98619   9.024   2.440   1.897 -1.5206 -1.3263 -2.1208
  731MOL0     H98620   8.822   2.461   1.856 -2.6810  0.6347 -0.0386
  731MOL0     H98621   8.873   2.433   1.694 -1.7121  2.2996  0.1162
  731MOL0     H98622   8.648   2.324   1.653  0.6788 -0.0908  0.5846
  731MOL0     H98623   8.621   2.339   1.831  0.8205  0.2208  0.7319
  731MOL0     H98624   8.652   2.586   1.794 -2.0139  0.2341 -0.1568
  731MOL0     H98625   8.653   2.556   1.629  0.5359  1.1400  1.3459
  731MOL0     H98626   8.430   2.455   1.629 -0.7190 -0.5338  0.2578
  731MOL0     H98627   8.419   2.473   1.810 -2.5164  0.2391 -1.2073
  731MOL0     H98628   8.446   2.713   1.788  0.7354 -0.0213 -0.6443
  731MOL0     H98629   8.443   2.688   1.606 -1.6113  0.1892 -0.8583
  731MOL0     H98630   8.222   2.583   1.621  3.6739 -0.8319 -1.2466
  731MOL0     H98631   8.219   2.618   1.794  2.7460 -0.5007 -0.9460
  731MOL0     H98632   8.236   2.848   1.570  0.4235 -0.3935 -0.5345
  731MOL0     H98633   8.095   2.792   1.653  0.8564 -0.5832 -3.1688
  731MOL0     H98634   8.329   2.939   1.780 -0.2864  1.1572 -0.4134
  731MOL0     H98635   8.192   2.865   1.869 -2.8410  0.6097 -0.7858
  731MOL0     H98636   7.914   2.966   1.725  0.1276  0.2986 -1.7217
  731MOL0     H98637   7.769   3.225   1.756  2.6103 -0.0559  2.7434
  731MOL0     H98638   7.854   3.342   1.651 -1.5633  0.3769 -2.6298
  731MOL0     H98639   7.671   3.142   1.562 -0.0391  0.1293  1.2925
  731MOL0     H98640   7.828   3.082   1.512 -1.7112 -0.9017  0.4916
  731MOL0     H98641   7.893   3.288   1.408 -0.5066  0.9824  1.0333
  731MOL0     H98642   7.750   3.372   1.448 -0.5442  0.6335 -0.7733
  731MOL0     H98643   7.780   3.130   1.281 -1.3410 -1.1147  2.6275
  731MOL0     H98644   7.743   3.299   1.224  2.1412  0.7118  0.4259
  731MOL0     H98645   7.327   3.210   1.272 -0.4124 -2.8987  2.4435
  731MOL0     H98646   7.135   3.212   0.997  0.8048  0.3531 -0.8962
  731MOL0     H98647   7.091   3.068   1.104  3.0403 -1.9714  1.4173
  731MOL0     H98648   7.149   3.222   1.168 -0.2609 -1.6531  0.8310
  731MOL0     H98649   7.184   2.807   0.615 -1.5006 -0.9050 -0.5132
  731MOL0     H98650   7.087   2.839   0.422 -0.8768 -0.8149  2.6518
  731MOL0     H98651   7.217   3.175   0.149 -1.8761 -0.1196 -0.8723
  731MOL0     H98652   7.326   3.053   0.082 -0.0869 -0.0018 -0.9198
  731MOL0     H98653   7.030   3.100   0.009  0.0043 -1.3885  1.7955
  731MOL0     H98654   7.171   3.154  -0.089  0.9286 -1.0725 -1.4028
  731MOL0     H98655   7.084   2.864  -0.029 -0.4227  1.2798  1.8967
  731MOL0     H98656   7.230   2.915  -0.114 -1.3095 -2.4559  0.4676
  731MOL0     H98657   7.054   2.839  -0.265 -1.0638 -0.3800 -1.1696
  731MOL0     H98658   6.952   2.980  -0.204  0.5285 -1.1774 -1.4587
  731MOL0     H98659   7.194   2.974  -0.381  1.0674  1.7929  0.6705
  731MOL0     H98660   7.125   3.121  -0.303  1.1795 -0.0186 -1.7677
  731MOL0     H98661   6.908   3.084  -0.427 -0.5846  0.1041  0.8996
  731MOL0     H98662   7.037   3.133  -0.534  0.0287 -0.1304 -0.8121
  731MOL0     H98663   6.966   2.841  -0.463 -2.8345 -0.1013 -0.4683
  731MOL0     H98664   7.082   2.885  -0.583  0.7667  2.7412 -0.2630
  731MOL0     H98665   6.914   3.004  -0.702  1.6321 -2.5733 -2.8653
  731MOL0     H98666   6.780   2.951  -0.597 -0.5899 -0.8435 -1.3927
  731MOL0     H98667   7.371   3.121   0.288 -0.9619  1.3335  0.5374
  731MOL0     H98668   7.479   3.130   0.527 -0.7774  1.0618  0.1807
  731MOL0     H98669   7.586   3.020   0.902  2.3575  0.9309  1.6108
  731MOL0     H98670   7.697   3.079   1.107  0.2250 -2.1924  0.8913
  731MOL0     H98671   8.970   2.025   1.841 -4.6568  1.9255 -0.3503
  731MOL0     H98672   9.188   1.984   1.961  1.3687  0.0431  0.2935
  731MOL0     H98673   9.578   2.360   2.333 -0.3081 -2.0173  0.2541
  731MOL0     H98674   9.818   2.378   2.338 -1.8715 -1.7445  3.5983
  731MOL0     H98675  10.053   2.200   2.004  1.7236  0.5205 -1.0739
  731MOL0     H98676  10.006   2.374   1.994 -1.3325 -0.4689  0.0362
  731MOL0     H98677  10.250   2.311   1.980 -1.5990 -1.2166 -0.9602
  731MOL0     H98678  10.257   2.240   2.130  0.0532 -0.6975 -1.2412
  731MOL0     H98679  10.172   2.440   2.250  1.8037  0.2823  0.7226
  731MOL0     H98680  10.156   2.529   2.100 -1.0247 -1.3731 -0.3220
  731MOL0     H98681  10.397   2.546   2.076  1.8865 -0.1302  0.3317
  731MOL0     H98682  10.423   2.403   2.176 -0.6450 -0.6298 -1.6198
  731MOL0     H98683  10.381   2.687   2.484 -1.1218 -1.6910  0.9301
  731MOL0     H98684   9.842   2.121   1.998 -1.3898 -1.5735  0.5262
  731MOL0     H98685   9.614   2.112   1.978 -0.2108  1.3617 -1.2647
  732MOL0     O98686   4.046   5.641   9.144 -0.1719  0.0724 -0.4353
  732MOL0     C98687   4.094   5.560   9.061  0.2529 -0.2051 -0.4130
  732MOL0     O98688   4.019   5.482   8.979  0.9549  0.7670 -0.4212
  732MOL0     C98689   3.884   5.504   8.973  0.1793 -0.0692  0.4067
  732MOL0     C98690   3.830   5.629   8.944 -0.0989 -0.5686 -0.5352
  732MOL0     C98691   3.691   5.646   8.950 -0.0560  0.2182  0.4773
  732MOL0     C98692   3.603   5.541   8.992  0.0787 -0.3124  0.4603
  732MOL0     O98693   3.465   5.551   9.006 -0.9543 -0.2686  0.1417
  732MOL0     C98694   3.394   5.654   8.927 -0.3326  0.3838 -0.1712
  732MOL0     C98695   3.264   5.595   8.881 -0.1599 -0.5318  0.2590
  732MOL0     C98696   3.175   5.527   8.985 -0.0276  0.0008 -0.4312
  732MOL0     C98697   3.071   5.462   8.910 -0.1028  0.1546  0.5810
  732MOL0     C98698   2.962   5.379   8.990 -0.4511 -1.0576  0.4625
  732MOL0     C98699   2.871   5.303   8.889  0.4518 -0.9980 -0.3462
  732MOL0     C98700   2.774   5.227   8.976  0.3837  0.3727 -0.3270
  732MOL0     C98701   2.676   5.154   8.885  0.2814 -0.6336 -0.3192
  732MOL0     N98702   2.582   5.087   8.980 -0.6614  0.4880 -0.2377
  732MOL0     C98703   2.622   4.972   9.040  0.0347  0.4081 -0.2867
  732MOL0     C98704   2.506   4.935   9.111 -0.4300 -0.3052  0.1613
  732MOL0     C98705   2.489   4.797   9.181 -0.7145 -0.5282  0.4039
  732MOL0     C98706   2.385   4.712   9.112  0.3937  0.0905 -0.7664
  732MOL0     C98707   2.357   4.585   9.199  0.7519 -0.1492  0.2788
  732MOL0     C98708   2.234   4.504   9.150  1.1097  0.7200  0.3868
  732MOL0     O98709   2.206   4.410   9.251 -0.3228 -0.1038  0.2962
  732MOL0     C98710   2.118   4.303   9.230 -0.4910 -0.4762  0.9989
  732MOL0     C98711   2.034   4.268   9.331 -0.3376  0.0737  1.1193
  732MOL0     C98712   1.939   4.166   9.313 -0.6175  0.6133 -0.6432
  732MOL0     C98713   1.859   4.133   9.426  0.6553  0.4990  0.7282
  732MOL0     C98714   1.918   4.100   9.194 -0.0728 -0.7744  0.3308
  732MOL0     C98715   1.804   4.005   9.162  0.5329  0.5065  0.9329
  732MOL0     O98716   1.701   3.982   9.250 -0.1553  0.0597 -0.8817
  732MOL0     C98717   1.607   3.879   9.240 -0.6740  0.1413 -0.5628
  732MOL0     C98718   1.473   3.895   9.276 -0.2417  0.4577  0.1054
  732MOL0     C98719   1.375   3.794   9.265  0.1981  0.1229  0.0158
  732MOL0     C98720   1.419   3.664   9.221  0.0955  0.0373  0.0126
  732MOL0     O98721   1.340   3.556   9.205 -0.2546  0.2824  0.3950
  732MOL0     C98722   1.204   3.574   9.195  0.3003 -0.2820 -0.0463
  732MOL0     C98723   1.119   3.463   9.256 -0.4727 -0.4936  0.4247
  732MOL0     C98724   0.972   3.502   9.256  0.1870  0.6268  0.2002
  732MOL0     C98725   0.884   3.395   9.325  0.0061 -0.3845 -0.2218
  732MOL0     C98726   0.875   3.280   9.223  0.5298  0.4893 -0.2597
  732MOL0     C98727   0.819   3.150   9.283 -0.0238 -0.2058  0.1440
  732MOL0     C98728   0.673   3.162   9.311 -0.1388 -0.2112 -0.5763
  732MOL0     C98729   0.609   3.025   9.301 -0.6737 -0.2353 -1.0644
  732MOL0    Cl98730   0.444   3.040   9.239 -0.3575 -0.0033  0.3793
  732MOL0     C98731   1.553   3.648   9.191 -0.5736  0.7964 -0.1943
  732MOL0     C98732   1.643   3.752   9.191  0.1979 -0.3412  0.3412
  732MOL0     O98733   1.809   3.956   9.046 -0.1259  0.1424 -0.8559
  732MOL0     C98734   2.005   4.134   9.091 -0.5808  0.6207  0.9799
  732MOL0     C98735   2.100   4.240   9.105  0.1063 -0.3522  0.4225
  732MOL0     N98736   2.417   5.039   9.103  0.0222  0.1799  0.2995
  732MOL0     N98737   2.462   5.135   9.023 -0.4431 -0.5146  0.5217
  732MOL0     C98738   3.658   5.418   9.018  0.0906  0.0185  0.9086
  732MOL0     C98739   3.794   5.394   8.999 -0.0175 -0.4601 -0.4194
  732MOL0     C98740   4.243   5.533   9.060 -0.7483  0.0062  0.1402
  732MOL0     C98741   4.329   5.593   9.157  1.2323  0.3017  0.0487
  732MOL0     C98742   4.465   5.563   9.153  0.3652 -0.0246  0.5494
  732MOL0     C98743   4.517   5.481   9.054 -0.1706 -0.2584  0.6814
  732MOL0     O98744   4.652   5.467   9.030 -0.1357 -0.0261  0.8230
  732MOL0     C98745   4.725   5.434   9.147 -0.2925  0.3020 -0.5215
  732MOL0     C98746   4.867   5.407   9.100  1.0676 -0.5713 -0.6130
  732MOL0     C98747   4.973   5.412   9.211 -0.2212 -0.0306  0.4240
  732MOL0     C98748   5.116   5.414   9.156  0.5329 -0.0536 -0.3503
  732MOL0     C98749   5.143   5.533   9.072  0.4863  1.0985 -0.3032
  732MOL0     C98750   5.168   5.627   8.999  0.6731 -0.9014  0.9442
  732MOL0     C98751   4.437   5.437   8.955 -0.1298  0.2429 -0.7566
  732MOL0     C98752   4.301   5.459   8.958 -0.1581  1.1301 -0.2448
  732MOL0     H98753   3.904   5.699   8.906 -1.4013  1.1204 -0.1209
  732MOL0     H98754   3.638   5.740   8.934 -1.1042 -0.0278  2.2579
  732MOL0     H98755   3.367   5.741   8.987 -3.6478 -2.0125  2.1848
  732MOL0     H98756   3.442   5.689   8.835 -0.1681  0.1027 -0.1928
  732MOL0     H98757   3.206   5.678   8.839  1.3572  0.7413  0.5960
  732MOL0     H98758   3.293   5.523   8.804  1.0125  2.3732 -2.2168
  732MOL0     H98759   3.234   5.455   9.042  0.4034  2.3408  2.3351
  732MOL0     H98760   3.125   5.599   9.050 -0.3854 -0.0873 -0.6071
  732MOL0     H98761   3.018   5.537   8.851 -2.2926 -0.5682  1.5154
  732MOL0     H98762   3.125   5.402   8.836  1.3347  0.6591  1.1853
  732MOL0     H98763   3.020   5.309   9.051 -0.5973 -0.8025  0.9007
  732MOL0     H98764   2.901   5.447   9.051 -1.9007 -1.6164 -0.3295
  732MOL0     H98765   2.808   5.380   8.842  0.7853 -0.3170  0.3159
  732MOL0     H98766   2.919   5.237   8.816  2.4717 -1.2445  1.1089
  732MOL0     H98767   2.824   5.151   9.036 -3.0367 -0.4992  1.7010
  732MOL0     H98768   2.725   5.288   9.053  1.7362 -1.8326  2.4546
  732MOL0     H98769   2.727   5.078   8.824  0.5254  1.7729 -3.3524
  732MOL0     H98770   2.630   5.219   8.810  2.3854  5.2048  2.8160
  732MOL0     H98771   2.716   4.919   9.028 -0.7582 -1.9439  2.5067
  732MOL0     H98772   2.584   4.745   9.193 -0.2104  0.6100  1.4841
  732MOL0     H98773   2.455   4.823   9.281  1.2117  1.8364  0.5212
  732MOL0     H98774   2.426   4.688   9.013 -0.6513 -2.1470 -0.7146
  732MOL0     H98775   2.303   4.780   9.088  0.0614  0.1248  0.3933
  732MOL0     H98776   2.336   4.619   9.301  1.9974 -4.4072  2.1761
  732MOL0     H98777   2.445   4.523   9.215 -1.6547 -3.6903  0.8065
  732MOL0     H98778   2.247   4.447   9.058 -1.9584  2.3017 -1.2025
  732MOL0     H98779   2.149   4.573   9.139  1.2347  0.9574  0.8581
  732MOL0     H98780   2.046   4.319   9.427 -2.3519  3.1290 -0.0754
  732MOL0     H98781   1.752   4.153   9.414  0.6018 -0.7095 -1.1465
  732MOL0     H98782   1.872   4.026   9.439 -2.7639 -0.3748 -1.6157
  732MOL0     H98783   1.881   4.186   9.520  0.3192  0.6900  0.7008
  732MOL0     H98784   1.440   3.995   9.304 -0.1480  0.8370 -1.0905
  732MOL0     H98785   1.274   3.825   9.288  0.4467 -0.0555  1.4988
  732MOL0     H98786   1.158   3.661   9.244 -2.0996 -2.2676  1.4284
  732MOL0     H98787   1.177   3.580   9.089 -1.5587  1.7340  0.4652
  732MOL0     H98788   1.135   3.381   9.185 -0.3841  0.2442 -0.4150
  732MOL0     H98789   1.145   3.430   9.357 -0.8063 -1.2435  0.2713
  732MOL0     H98790   0.949   3.523   9.151  2.5395 -0.8675 -0.6837
  732MOL0     H98791   0.953   3.595   9.310 -2.2900  1.8186 -2.4017
  732MOL0     H98792   0.926   3.360   9.420  1.4895  3.0917  0.5713
  732MOL0     H98793   0.791   3.450   9.341  0.9677  1.3713 -0.4259
  732MOL0     H98794   0.973   3.253   9.184  2.5040 -0.1013  4.4240
  732MOL0     H98795   0.809   3.306   9.140 -2.8042 -2.2049  1.3241
  732MOL0     H98796   0.850   3.069   9.215  0.8914  0.0139  0.2808
  732MOL0     H98797   0.866   3.132   9.381  0.5836  1.8481  0.2808
  732MOL0     H98798   0.624   3.237   9.247 -0.6419 -0.1166 -0.0893
  732MOL0     H98799   0.665   3.206   9.411 -0.6790 -0.2134 -0.6158
  732MOL0     H98800   0.588   2.979   9.398 -1.2140  0.1534 -0.9890
  732MOL0     H98801   0.675   2.963   9.240  2.8105  2.4076 -0.2662
  732MOL0     H98802   1.588   3.550   9.160 -0.0010  0.8570  0.2533
  732MOL0     H98803   1.746   3.742   9.161  1.0900  3.8412  1.3635
  732MOL0     H98804   2.000   4.094   8.990 -2.8198  0.9509  0.9255
  732MOL0     H98805   2.151   4.256   9.011 -2.0298 -0.0963 -0.7645
  732MOL0     H98806   3.586   5.338   9.037 -0.2374 -0.2783 -1.2815
  732MOL0     H98807   3.831   5.294   9.018  0.3337 -0.1587  0.5507
  732MOL0     H98808   4.281   5.666   9.222  2.3375  0.6535  0.4969
  732MOL0     H98809   4.528   5.594   9.235 -1.8162  0.4289  2.1618
  732MOL0     H98810   4.730   5.516   9.220 -1.6249 -0.7993  0.8857
  732MOL0     H98811   4.695   5.349   9.209  1.3572  0.0235 -0.0530
  732MOL0     H98812   4.898   5.473   9.018  0.8061 -2.1833 -2.0777
  732MOL0     H98813   4.873   5.312   9.044 -0.9827 -1.1099 -0.0054
  732MOL0     H98814   4.955   5.328   9.278  1.6302 -1.9938 -1.4146
  732MOL0     H98815   4.962   5.506   9.266  0.5213  0.1382  0.2933
  732MOL0     H98816   5.129   5.334   9.082  1.2936  2.2643 -2.8765
  732MOL0     H98817   5.194   5.414   9.232  1.0847 -0.6288 -0.9064
  732MOL0     H98818   5.187   5.708   8.932  1.0165 -1.0617  0.8443
  732MOL0     H98819   4.478   5.379   8.873 -1.3364 -2.1264  0.2349
  732MOL0     H98820   4.250   5.413   8.874  1.1379 -0.7474 -0.0701
  733MOL0     O98821   6.382   7.099   6.096 -1.4170  0.2749 -0.0109
  733MOL0     C98822   6.479   7.048   6.147  0.2247  0.4213  0.1448
  733MOL0     O98823   6.544   6.943   6.099  0.5388  0.3864 -0.0745
  733MOL0     C98824   6.493   6.859   6.001  0.4259  0.2296  0.0202
  733MOL0     C98825   6.581   6.807   5.909  0.5917 -0.0068 -0.0033
  733MOL0     C98826   6.543   6.712   5.812 -0.1811  0.2349  0.9642
  733MOL0     C98827   6.409   6.658   5.812 -0.0207  0.5208  0.8488
  733MOL0     O98828   6.363   6.561   5.733  0.6151  0.3694 -0.5592
  733MOL0     C98829   6.461   6.468   5.684  0.2005  0.1744 -0.0685
  733MOL0     C98830   6.415   6.395   5.553  0.6516  0.3397 -0.4226
  733MOL0     C98831   6.281   6.334   5.554  0.0543 -0.6327  0.6663
  733MOL0     C98832   6.237   6.285   5.414  0.2819  0.0626  0.8102
  733MOL0     C98833   6.112   6.200   5.425  0.3807  0.1140  0.3586
  733MOL0     C98834   6.098   6.123   5.292 -0.3107 -0.2981 -0.5320
  733MOL0     C98835   6.010   6.003   5.303 -0.3027 -0.5537  0.8536
  733MOL0     C98836   6.022   5.914   5.426  0.5577  0.3271  0.7877
  733MOL0     N98837   5.934   5.794   5.401 -0.7930 -0.3423  0.1111
  733MOL0     C98838   5.803   5.783   5.355  0.0908 -0.2081  0.8155
  733MOL0     C98839   5.766   5.649   5.363 -1.2797 -0.0051  0.3638
  733MOL0     C98840   5.638   5.577   5.332  0.3997 -0.3843  0.5513
  733MOL0     C98841   5.527   5.625   5.425  0.3923 -0.0733 -0.1391
  733MOL0     C98842   5.380   5.592   5.377  0.3696  0.5259 -0.3809
  733MOL0     C98843   5.366   5.438   5.332  0.3163 -0.9060  0.3882
  733MOL0     O98844   5.235   5.417   5.273 -0.3698  0.8132 -0.1217
  733MOL0     C98845   5.128   5.405   5.358  0.3372  0.1327  0.2815
  733MOL0     C98846   5.124   5.377   5.495 -0.0266 -0.6874 -0.4535
  733MOL0     C98847   5.003   5.377   5.567  0.7152  0.5961 -0.2335
  733MOL0     C98848   5.015   5.348   5.712  0.2737  0.0455  0.4191
  733MOL0     C98849   4.884   5.388   5.498 -0.7267 -0.7314  0.6751
  733MOL0     C98850   4.747   5.409   5.566 -0.4051 -0.8108 -0.4193
  733MOL0     O98851   4.641   5.383   5.479 -0.7015 -0.0170 -0.7384
  733MOL0     C98852   4.520   5.362   5.532  0.5071  1.0628  0.6763
  733MOL0     C98853   4.420   5.410   5.460  0.3815  0.9763  0.9470
  733MOL0     C98854   4.280   5.408   5.506  0.5323  0.2767 -0.0743
  733MOL0     C98855   4.254   5.353   5.628 -0.4640 -0.0623 -0.8794
  733MOL0     O98856   4.123   5.348   5.664  0.2465 -0.1116  0.5856
  733MOL0     C98857   4.077   5.269   5.782 -0.0369 -0.6384 -0.0598
  733MOL0     C98858   3.932   5.264   5.769  0.3156 -0.7648 -0.2792
  733MOL0     C98859   3.860   5.161   5.678  0.4703 -0.0690 -0.0714
  733MOL0     C98860   3.704   5.166   5.691 -0.2033 -0.1729 -0.4440
  733MOL0     C98861   3.629   5.105   5.569 -0.4155 -0.0970 -0.2885
  733MOL0     C98862   3.483   5.090   5.616 -0.2598  0.6844 -0.0592
  733MOL0     C98863   3.390   5.024   5.511  0.0673  0.5551 -0.2715
  733MOL0     C98864   3.436   4.876   5.474  0.2716 -0.0708 -0.3680
  733MOL0    Cl98865   3.414   4.760   5.602  0.1778  0.0708  0.0751
  733MOL0     C98866   4.355   5.305   5.710 -0.5021  0.0729  0.3722
  733MOL0     C98867   4.491   5.307   5.661  0.7513 -0.5183  0.2929
  733MOL0     O98868   4.744   5.438   5.686  0.1966 -0.5278  0.0051
  733MOL0     C98869   4.883   5.405   5.355 -0.3357 -0.3539 -0.3721
  733MOL0     C98870   5.008   5.414   5.287  0.1690  0.3620 -0.0703
  733MOL0     N98871   5.877   5.590   5.420  0.3904 -0.2846 -0.7174
  733MOL0     N98872   5.974   5.668   5.440  0.2334 -0.4767  0.2747
  733MOL0     C98873   6.324   6.706   5.912  0.8620 -0.0849  0.8540
  733MOL0     C98874   6.359   6.811   5.999  0.6197  0.2662 -0.0122
  733MOL0     C98875   6.532   7.116   6.272 -0.0273  0.5448 -0.4802
  733MOL0     C98876   6.485   7.245   6.324 -0.0003 -0.3561 -0.1106
  733MOL0     C98877   6.530   7.294   6.446  0.6373 -0.3463  0.2353
  733MOL0     C98878   6.637   7.235   6.515  0.7714 -0.3291  0.7625
  733MOL0     O98879   6.677   7.290   6.636  0.7378  0.4010  0.4535
  733MOL0     C98880   6.813   7.314   6.653 -0.3044 -0.1221  0.2797
  733MOL0     C98881   6.869   7.406   6.538 -0.1099 -0.3007  0.8045
  733MOL0     C98882   6.835   7.552   6.566  0.8538  0.2341 -0.0843
  733MOL0     C98883   6.952   7.642   6.603  0.9038 -0.0354  0.5494
  733MOL0     C98884   6.981   7.616   6.739  0.6160 -0.0583  0.0116
  733MOL0     C98885   6.995   7.575   6.849 -0.2469  0.0462 -0.6424
  733MOL0     C98886   6.681   7.110   6.466  0.4936 -0.0083  0.2595
  733MOL0     C98887   6.636   7.050   6.347  0.9609 -0.3863 -1.0955
  733MOL0     H98888   6.681   6.848   5.895  0.3721  0.8802  0.8979
  733MOL0     H98889   6.617   6.684   5.737 -2.3916 -2.0486 -0.5084
  733MOL0     H98890   6.557   6.515   5.657  1.6182  0.1080  4.1420
  733MOL0     H98891   6.485   6.387   5.753 -1.1806  0.1016  0.3510
  733MOL0     H98892   6.417   6.466   5.469  0.6182  2.7436  1.4922
  733MOL0     H98893   6.484   6.312   5.536 -1.6213 -1.9253  0.8070
  733MOL0     H98894   6.295   6.247   5.618  1.8675  0.2133  1.4832
  733MOL0     H98895   6.212   6.409   5.592  2.5001  2.1823 -0.0530
  733MOL0     H98896   6.210   6.366   5.345  3.2544  0.6219  0.1502
  733MOL0     H98897   6.316   6.238   5.355  0.2022  0.3921  0.4367
  733MOL0     H98898   6.133   6.131   5.507 -1.1507 -1.4790 -0.5185
  733MOL0     H98899   6.026   6.264   5.445  0.0086  0.5868 -2.4653
  733MOL0     H98900   6.061   6.203   5.227 -1.1946  0.7030  1.1550
  733MOL0     H98901   6.196   6.087   5.258  0.6279 -0.4056  2.0638
  733MOL0     H98902   5.907   6.037   5.286  0.7001  3.7106  2.1398
  733MOL0     H98903   6.033   5.946   5.212 -0.3560  2.0275 -0.9131
  733MOL0     H98904   5.986   5.974   5.510 -1.4263  2.1326 -1.2043
  733MOL0     H98905   6.126   5.894   5.453  0.3300  0.4036  1.7619
  733MOL0     H98906   5.743   5.862   5.313  0.7293  0.5847  1.3676
  733MOL0     H98907   5.600   5.589   5.230  0.7353 -1.8445  0.2451
  733MOL0     H98908   5.648   5.469   5.335 -0.5995 -0.4982  0.2281
  733MOL0     H98909   5.529   5.734   5.426 -2.0616  0.0496 -0.7681
  733MOL0     H98910   5.534   5.589   5.528  0.4880  2.1338  0.6701
  733MOL0     H98911   5.333   5.661   5.306  0.8924  1.2809 -0.0211
  733MOL0     H98912   5.310   5.601   5.460 -1.4004 -1.7959 -1.5348
  733MOL0     H98913   5.391   5.379   5.420  2.7661 -2.0147 -0.9420
  733MOL0     H98914   5.435   5.414   5.250 -0.3107  0.4480 -0.5657
  733MOL0     H98915   5.215   5.354   5.550 -0.1917 -1.4923 -0.5074
  733MOL0     H98916   4.921   5.305   5.748 -1.4200  1.7961 -1.6350
  733MOL0     H98917   5.094   5.277   5.736  0.9284 -0.1461 -2.0419
  733MOL0     H98918   5.030   5.441   5.768 -2.7576 -0.1835  1.8260
  733MOL0     H98919   4.449   5.467   5.373  1.0368 -0.6755  0.0285
  733MOL0     H98920   4.198   5.441   5.443  1.9431 -0.5347 -2.4813
  733MOL0     H98921   4.117   5.167   5.778 -4.2675 -2.5306 -0.8246
  733MOL0     H98922   4.107   5.310   5.879 -0.8627  1.2453 -0.5526
  733MOL0     H98923   3.907   5.239   5.872  2.7680 -2.8450 -0.1176
  733MOL0     H98924   3.885   5.362   5.759 -1.6625 -1.6450 -0.0250
  733MOL0     H98925   3.891   5.063   5.715  1.7335 -0.1793 -1.3258
  733MOL0     H98926   3.883   5.161   5.571 -4.2856  0.9172 -1.3265
  733MOL0     H98927   3.668   5.120   5.783  3.7271  2.1497  2.6091
  733MOL0     H98928   3.668   5.270   5.690 -2.0619 -0.7844 -1.6451
  733MOL0     H98929   3.673   5.007   5.546 -1.3068 -0.2311 -1.5525
  733MOL0     H98930   3.626   5.165   5.478  1.6094  0.1940 -0.2169
  733MOL0     H98931   3.477   5.026   5.705 -2.0524  0.0123 -0.6053
  733MOL0     H98932   3.445   5.186   5.652  1.3370  1.0979  0.6003
  733MOL0     H98933   3.392   5.088   5.423  1.9739  1.2121  0.1994
  733MOL0     H98934   3.284   5.018   5.537 -0.0841  0.5372 -0.8688
  733MOL0     H98935   3.541   4.878   5.443  0.4840 -1.1672  0.2435
  733MOL0     H98936   3.389   4.818   5.394  1.2649 -0.4548 -0.6790
  733MOL0     H98937   4.333   5.251   5.801  1.4322 -0.2398  0.6949
  733MOL0     H98938   4.573   5.262   5.715  0.9627 -3.6739 -2.3594
  733MOL0     H98939   4.795   5.419   5.293  0.4325  1.6899 -1.0823
  733MOL0     H98940   5.019   5.433   5.181 -0.8352  0.1093 -0.2290
  733MOL0     H98941   6.227   6.660   5.931  0.3777 -1.0591 -3.1956
  733MOL0     H98942   6.296   6.843   6.081 -0.1619 -1.4240  0.0814
  733MOL0     H98943   6.409   7.292   6.261  0.4574 -1.7164 -1.7762
  733MOL0     H98944   6.478   7.378   6.492  0.6865  0.7698 -1.6213
  733MOL0     H98945   6.825   7.365   6.749  0.7846 -3.2111  1.9349
  733MOL0     H98946   6.868   7.219   6.658 -1.9713 -1.0932  1.0611
  733MOL0     H98947   6.837   7.383   6.436 -0.3475  2.7288  0.1035
  733MOL0     H98948   6.978   7.396   6.542  0.0807  0.6308 -1.0368
  733MOL0     H98949   6.761   7.556   6.645  0.8683  2.4111 -0.1226
  733MOL0     H98950   6.783   7.601   6.483  0.0188 -0.5955 -0.0713
  733MOL0     H98951   6.926   7.748   6.594  1.5511 -0.0269 -3.1259
  733MOL0     H98952   7.036   7.617   6.538  1.5091 -0.1024  1.3439
  733MOL0     H98953   6.995   7.533   6.948  3.4180  1.3813  0.0612
  733MOL0     H98954   6.737   7.050   6.538 -1.5117 -1.7151  0.5052
  733MOL0     H98955   6.677   6.953   6.321  0.9253 -0.5257 -0.6456
  734MOL0     O98956   9.474   3.062   2.544 -0.3046 -0.3284  0.0484
  734MOL0     C98957   9.511   3.103   2.437 -0.4943  0.0538  0.2952
  734MOL0     O98958   9.439   3.149   2.332 -0.7175 -0.8739  0.0081
  734MOL0     C98959   9.307   3.160   2.354  0.3448  0.3794 -0.0606
  734MOL0     C98960   9.226   3.043   2.373 -1.1107  0.5334  0.2227
  734MOL0     C98961   9.083   3.046   2.389 -0.1102 -0.2563  0.0929
  734MOL0     C98962   9.018   3.169   2.368 -1.0033 -0.4911  0.8782
  734MOL0     O98963   8.879   3.180   2.345  0.5890  0.3628  0.3033
  734MOL0     C98964   8.792   3.122   2.441 -1.1857  0.1459 -0.1049
  734MOL0     C98965   8.664   3.198   2.408  0.2793 -0.0255 -0.5955
  734MOL0     C98966   8.551   3.148   2.501  0.3117 -0.0252 -0.5063
  734MOL0     C98967   8.413   3.193   2.459  0.8845  0.5049  0.1546
  734MOL0     C98968   8.298   3.148   2.556  0.1933 -0.1533 -0.0266
  734MOL0     C98969   8.297   3.193   2.705 -0.5024 -0.6138 -0.4253
  734MOL0     C98970   8.176   3.151   2.788  0.0745  0.4394  0.0900
  734MOL0     C98971   8.205   3.138   2.930 -0.2561  0.7220 -1.7106
  734MOL0     N98972   8.083   3.120   3.008 -0.0830  0.6163  0.2370
  734MOL0     C98973   7.986   3.212   3.039 -0.2457 -1.2862 -0.2811
  734MOL0     C98974   7.908   3.150   3.133  0.1485  0.3820  0.6172
  734MOL0     C98975   7.799   3.214   3.206 -0.0013  0.7874 -0.4598
  734MOL0     C98976   7.677   3.266   3.108  0.0694  0.7770  0.3094
  734MOL0     C98977   7.579   3.163   3.056  0.7479  0.5947 -0.1745
  734MOL0     C98978   7.481   3.111   3.172 -0.5909 -0.4069 -0.0888
  734MOL0     O98979   7.383   3.208   3.201 -0.3086  0.2214 -0.4982
  734MOL0     C98980   7.265   3.207   3.127  0.2179 -0.4053  0.7467
  734MOL0     C98981   7.171   3.307   3.167  0.5224 -1.1099 -0.9396
  734MOL0     C98982   7.044   3.310   3.110 -0.8214 -0.2344 -0.0952
  734MOL0     C98983   6.958   3.441   3.127  0.6850 -0.0715 -0.3193
  734MOL0     C98984   7.001   3.197   3.032 -0.3355  0.4021  0.1259
  734MOL0     C98985   6.868   3.190   2.978 -0.2929  1.2163 -0.5769
  734MOL0     O98986   6.757   3.210   3.061  0.0071  0.3508  0.2132
  734MOL0     C98987   6.631   3.193   3.026  0.3293 -0.1515  0.4875
  734MOL0     C98988   6.545   3.299   3.061  1.3596  0.0920 -0.3510
  734MOL0     C98989   6.405   3.287   3.049  0.0474  0.1162 -0.1504
  734MOL0     C98990   6.357   3.169   2.988 -0.1639  0.6647 -0.7284
  734MOL0     O98991   6.223   3.153   2.956 -0.5134  0.9042  0.3921
  734MOL0     C98992   6.128   3.255   2.983  0.3590  0.2014 -0.5203
  734MOL0     C98993   5.986   3.209   2.934  0.4783  0.2216 -0.1387
  734MOL0     C98994   5.874   3.304   2.984  0.5517  0.3387 -0.2639
  734MOL0     C98995   5.801   3.261   3.113  0.5119 -0.8084  0.5434
  734MOL0     C98996   5.662   3.333   3.127 -0.2420  0.8491  0.1277
  734MOL0     C98997   5.668   3.490   3.125 -0.4244  0.2897 -0.1757
  734MOL0     C98998   5.538   3.547   3.183  0.5515  0.3446 -0.3930
  734MOL0     C98999   5.510   3.688   3.132  0.2292 -0.3438 -1.2301
  734MOL0    Cl99000   5.471   3.724   2.964  0.1401  0.0758  0.7612
  734MOL0     C99001   6.447   3.071   2.946 -0.6860 -0.2220  0.2026
  734MOL0     C99002   6.583   3.077   2.969 -0.0557 -0.2694  0.5247
  734MOL0     O99003   6.877   3.163   2.861 -0.0061 -0.2905  0.7102
  734MOL0     C99004   7.097   3.097   2.997  0.0869  0.3795 -0.1527
  734MOL0     C99005   7.224   3.105   3.040 -0.4549  0.0638 -0.2281
  734MOL0     N99006   7.948   3.018   3.144 -0.0305 -0.2610  0.5635
  734MOL0     N99007   8.056   3.005   3.078 -0.5272 -0.2401  0.0306
  734MOL0     C99008   9.097   3.287   2.336 -1.0627  0.5604 -0.3772
  734MOL0     C99009   9.234   3.276   2.333  0.1387  0.1332  0.0075
  734MOL0     C99010   9.663   3.079   2.412  0.3209  0.1933 -0.4368
  734MOL0     C99011   9.754   3.028   2.507 -1.0891  0.3752  0.6299
  734MOL0     C99012   9.893   3.026   2.473  0.1671  0.5975  0.4819
  734MOL0     C99013   9.941   3.099   2.362  0.7038 -0.2553 -0.2343
  734MOL0     O99014  10.076   3.101   2.358  0.7065 -0.1467  0.1764
  734MOL0     C99015  10.137   3.193   2.264 -1.1541  0.0495 -0.0529
  734MOL0     C99016  10.297   3.185   2.288 -0.1689  0.2398 -0.2641
  734MOL0     C99017  10.343   3.198   2.433 -1.4235  0.4457 -0.0865
  734MOL0     C99018  10.497   3.200   2.442 -0.6327 -0.4023  0.0640
  734MOL0     C99019  10.562   3.221   2.570  0.7652 -0.2457  0.1033
  734MOL0     C99020  10.585   3.234   2.688  0.7979  0.3508 -0.0961
  734MOL0     C99021   9.855   3.147   2.264 -0.3152 -0.4565  0.3813
  734MOL0     C99022   9.712   3.136   2.296 -0.4317 -0.0545 -0.0551
  734MOL0     H99023   9.276   2.947   2.369  0.3265  1.2808 -0.6206
  734MOL0     H99024   9.017   2.960   2.389  1.3721 -1.4468 -0.3890
  734MOL0     H99025   8.783   3.014   2.428  0.6668  0.0191 -0.6185
  734MOL0     H99026   8.812   3.150   2.545 -0.5660 -0.3524 -0.0783
  734MOL0     H99027   8.673   3.306   2.426  2.3765 -0.6855  3.9290
  734MOL0     H99028   8.635   3.181   2.304 -1.2408 -2.8198  0.1868
  734MOL0     H99029   8.556   3.039   2.500 -4.7495 -0.4986 -2.0856
  734MOL0     H99030   8.571   3.187   2.601  2.5445  0.1432 -0.9714
  734MOL0     H99031   8.423   3.302   2.453  1.3198  0.5760  1.7025
  734MOL0     H99032   8.392   3.161   2.356 -0.0223  1.7674 -0.0776
  734MOL0     H99033   8.205   3.179   2.508  0.7692  2.5312  0.3914
  734MOL0     H99034   8.299   3.039   2.555 -0.3965 -0.2224  2.0604
  734MOL0     H99035   8.391   3.157   2.748 -0.0334  1.5556  0.5463
  734MOL0     H99036   8.299   3.302   2.716  1.4886 -0.7502  1.2401
  734MOL0     H99037   8.094   3.221   2.770 -2.1504 -2.4174 -1.7544
  734MOL0     H99038   8.147   3.048   2.764 -1.5771  0.1006  3.0775
  734MOL0     H99039   8.270   3.217   2.969  3.1081 -1.6854 -1.9195
  734MOL0     H99040   8.268   3.052   2.956 -3.0647 -0.3963  2.3346
  734MOL0     H99041   7.985   3.315   3.004  4.6143 -1.2098 -0.8786
  734MOL0     H99042   7.762   3.141   3.278 -3.1522  1.3398 -1.3517
  734MOL0     H99043   7.843   3.299   3.259  1.4486  0.5337 -1.2286
  734MOL0     H99044   7.725   3.314   3.022  0.7726 -1.9760 -0.9330
  734MOL0     H99045   7.614   3.341   3.157  1.6878  1.8312  0.9117
  734MOL0     H99046   7.621   3.068   3.022  0.2390 -0.0708  1.0092
  734MOL0     H99047   7.525   3.210   2.972  0.6191  0.0808 -0.3871
  734MOL0     H99048   7.539   3.089   3.262 -2.8827 -2.3875  1.0213
  734MOL0     H99049   7.440   3.013   3.146 -1.2224 -0.0720 -0.3701
  734MOL0     H99050   7.207   3.377   3.242 -0.4593  0.2291 -1.6554
  734MOL0     H99051   7.032   3.521   3.142  0.6711 -0.1473  0.1877
  734MOL0     H99052   6.903   3.468   3.037 -0.5900  0.3505  0.5609
  734MOL0     H99053   6.896   3.437   3.217  2.4679  1.3411  1.0569
  734MOL0     H99054   6.576   3.387   3.117 -1.6033 -0.1897  1.9760
  734MOL0     H99055   6.342   3.372   3.074  1.1634  1.4342 -1.6260
  734MOL0     H99056   6.125   3.276   3.090 -0.7376 -0.1125 -0.4790
  734MOL0     H99057   6.153   3.350   2.935 -3.4822  0.1731 -2.9881
  734MOL0     H99058   5.993   3.227   2.827 -1.4172 -1.2866 -0.5616
  734MOL0     H99059   5.959   3.104   2.946 -0.4922  0.7867  4.9172
  734MOL0     H99060   5.802   3.307   2.902 -1.1982  1.2903  1.2272
  734MOL0     H99061   5.911   3.406   3.001 -2.3275  1.7011 -1.4767
  734MOL0     H99062   5.791   3.152   3.110  0.6457 -0.7969 -1.0195
  734MOL0     H99063   5.854   3.296   3.203 -1.8833  2.5173  0.8555
  734MOL0     H99064   5.599   3.298   3.209  2.0465  1.3968  2.2236
  734MOL0     H99065   5.611   3.298   3.037  0.8467  0.5719 -0.4031
  734MOL0     H99066   5.754   3.520   3.186  2.2479 -4.1057 -1.3049
  734MOL0     H99067   5.686   3.530   3.025 -2.2033  0.2101 -0.5592
  734MOL0     H99068   5.538   3.543   3.292 -2.0739  1.0042 -0.3024
  734MOL0     H99069   5.455   3.480   3.158 -0.0858  0.1364  2.0318
  734MOL0     H99070   5.591   3.756   3.160 -0.6937  0.7248 -1.0766
  734MOL0     H99071   5.420   3.729   3.178  1.8990  3.3141 -0.8924
  734MOL0     H99072   6.408   2.985   2.892 -1.5531  0.5924 -0.5131
  734MOL0     H99073   6.650   2.998   2.935  0.0664  0.2835 -0.5715
  734MOL0     H99074   7.064   3.021   2.927  1.5629 -0.1412 -0.3137
  734MOL0     H99075   7.286   3.020   3.012 -1.5212 -0.4062 -1.2023
  734MOL0     H99076   9.051   3.384   2.320 -0.7861  0.5663 -1.1566
  734MOL0     H99077   9.290   3.359   2.291 -0.4058  1.1145  1.1755
  734MOL0     H99078   9.725   2.999   2.608 -0.8568  0.2854  0.6699
  734MOL0     H99079   9.968   2.983   2.539  2.9050 -1.9114 -3.8292
  734MOL0     H99080  10.108   3.169   2.161  3.0161 -0.4502 -1.2933
  734MOL0     H99081  10.107   3.296   2.284 -1.1646 -0.3379  2.1447
  734MOL0     H99082  10.330   3.272   2.231 -2.2782 -0.4122 -2.6674
  734MOL0     H99083  10.335   3.097   2.236 -0.2783  1.7847 -3.1595
  734MOL0     H99084  10.308   3.115   2.495  0.7406 -2.3384 -2.3261
  734MOL0     H99085  10.306   3.286   2.486  1.0628  1.8321 -0.4931
  734MOL0     H99086  10.536   3.271   2.369 -0.9303  0.3345  0.6091
  734MOL0     H99087  10.534   3.103   2.409 -0.4914 -0.3284  0.0049
  734MOL0     H99088  10.594   3.231   2.795  0.8325  0.9813 -0.0785
  734MOL0     H99089   9.880   3.209   2.179  2.6154 -2.2052 -0.1755
  734MOL0     H99090   9.646   3.189   2.228 -1.9871 -0.7777  0.8427
  735MOL0     O99091   4.118   8.825   8.958  0.1836  0.2333  0.0918
  735MOL0     C99092   4.111   8.807   9.083 -0.4080  1.2283  0.3218
  735MOL0     O99093   4.040   8.721   9.147  0.2856 -0.1989 -0.1710
  735MOL0     C99094   3.949   8.641   9.072 -0.6255 -0.1948 -0.0060
  735MOL0     C99095   3.977   8.501   9.074  0.0334 -0.2324 -0.5731
  735MOL0     C99096   3.906   8.412   8.999  0.6787  0.1476  0.5300
  735MOL0     C99097   3.810   8.451   8.912  0.0562 -0.0397  1.3798
  735MOL0     O99098   3.757   8.365   8.819  0.3490 -0.4303 -0.2206
  735MOL0     C99099   3.779   8.397   8.678 -0.1332 -0.1475  0.6608
  735MOL0     C99100   3.785   8.258   8.596 -0.8114 -0.9539 -0.9914
  735MOL0     C99101   3.646   8.210   8.552  0.3317 -0.0651  0.0707
  735MOL0     C99102   3.665   8.085   8.455  0.3041 -0.7838 -0.2787
  735MOL0     C99103   3.539   8.019   8.415  0.7673 -0.3937 -0.3716
  735MOL0     C99104   3.541   7.924   8.296  0.6815 -0.3284 -0.2020
  735MOL0     C99105   3.410   7.846   8.271  0.6832 -0.4467  0.1374
  735MOL0     C99106   3.303   7.925   8.187 -0.0426 -0.6383  0.7409
  735MOL0     N99107   3.174   7.860   8.202 -0.0401 -0.1189  0.0491
  735MOL0     C99108   3.100   7.827   8.321  0.2372 -0.0301  1.0905
  735MOL0     C99109   3.002   7.751   8.281  0.0096 -0.3913 -1.3241
  735MOL0     C99110   2.885   7.724   8.378  0.2544 -0.5732  0.1374
  735MOL0     C99111   2.878   7.804   8.499 -0.2089 -0.2226 -0.7533
  735MOL0     C99112   2.768   7.754   8.599 -0.1199 -0.6359 -0.3814
  735MOL0     C99113   2.628   7.745   8.534 -0.0362  0.6077 -0.6014
  735MOL0     O99114   2.592   7.874   8.482  0.4595 -0.6837  1.0662
  735MOL0     C99115   2.461   7.904   8.437 -0.3493 -0.6230 -0.0375
  735MOL0     C99116   2.375   7.815   8.377  0.4954  0.6461  0.1990
  735MOL0     C99117   2.251   7.861   8.326 -0.5150 -0.1371  1.0607
  735MOL0     C99118   2.164   7.751   8.262 -0.0474 -0.2650  0.2539
  735MOL0     C99119   2.204   7.991   8.347 -0.0856  0.3692  0.1000
  735MOL0     C99120   2.063   8.040   8.313 -0.0306 -0.5118 -0.8190
  735MOL0     O99121   2.035   8.168   8.353 -0.1074  0.6457 -0.3938
  735MOL0     C99122   1.909   8.224   8.326  0.6058  0.2833 -0.0136
  735MOL0     C99123   1.898   8.308   8.221  0.0277 -0.0835 -0.1211
  735MOL0     C99124   1.772   8.361   8.192 -0.8334 -0.0518 -0.9545
  735MOL0     C99125   1.658   8.333   8.270 -0.1999 -1.5626 -0.8486
  735MOL0     O99126   1.532   8.375   8.238  0.4599 -0.1690  1.0649
  735MOL0     C99127   1.486   8.346   8.099 -0.0444  0.7634 -0.3292
  735MOL0     C99128   1.336   8.380   8.084 -0.2262 -0.2296  0.6808
  735MOL0     C99129   1.245   8.324   8.196 -0.4421  0.3697 -0.4559
  735MOL0     C99130   1.099   8.328   8.147 -1.1475 -0.5025 -0.7480
  735MOL0     C99131   1.011   8.313   8.271  0.8375 -0.1128 -0.1626
  735MOL0     C99132   0.886   8.228   8.240 -0.0527  0.4139  1.0716
  735MOL0     C99133   0.777   8.298   8.151  0.1391  0.1917  0.4299
  735MOL0     C99134   0.670   8.191   8.100  0.9307 -1.5777  0.1923
  735MOL0    Cl99135   0.715   8.072   7.970 -0.3707 -0.0587 -0.5211
  735MOL0     C99136   1.674   8.255   8.375  0.2770 -0.8854 -0.9074
  735MOL0     C99137   1.799   8.207   8.413  0.2872 -0.0458  0.0304
  735MOL0     O99138   1.978   7.964   8.265  0.0231  0.3815  0.2480
  735MOL0     C99139   2.286   8.070   8.420  0.0278 -0.6082 -0.2376
  735MOL0     C99140   2.413   8.037   8.450 -0.0910  0.4628 -0.7647
  735MOL0     N99141   3.005   7.735   8.144 -0.5511 -0.5254  0.1558
  735MOL0     N99142   3.108   7.798   8.100  0.1610  0.2709  0.2820
  735MOL0     C99143   3.775   8.590   8.912  0.3963 -0.0588 -0.6269
  735MOL0     C99144   3.849   8.688   8.991  0.8324  1.0934  0.7903
  735MOL0     C99145   4.196   8.889   9.163  0.7321 -0.2443 -0.8614
  735MOL0     C99146   4.319   8.935   9.114 -0.1668 -0.4188  0.0821
  735MOL0     C99147   4.407   9.007   9.187 -0.4560 -0.7927  0.7257
  735MOL0     C99148   4.376   9.041   9.314  0.0399 -0.2025  0.0423
  735MOL0     O99149   4.470   9.098   9.394 -0.1454  0.0142  0.6113
  735MOL0     C99150   4.464   9.098   9.533  0.5586 -0.3032  0.3139
  735MOL0     C99151   4.491   8.960   9.593  0.2324  0.5433 -0.4530
  735MOL0     C99152   4.641   8.919   9.569  0.6752 -0.3250  0.7446
  735MOL0     C99153   4.732   8.914   9.694 -0.5774  0.1974  0.0654
  735MOL0     C99154   4.725   9.049   9.761 -0.7256  0.4630 -0.2116
  735MOL0     C99155   4.725   9.157   9.813  0.6494 -0.3158  0.1631
  735MOL0     C99156   4.248   9.014   9.358  0.3083 -0.9943 -0.0522
  735MOL0     C99157   4.159   8.937   9.287  0.1652  0.6487 -0.2547
  735MOL0     H99158   4.049   8.472   9.151  0.2169  0.0136 -0.6514
  735MOL0     H99159   3.930   8.306   9.003  2.3621  0.0647 -4.5164
  735MOL0     H99160   3.707   8.466   8.633 -0.5874 -0.8793  0.2517
  735MOL0     H99161   3.879   8.438   8.659 -0.0427 -0.6030  0.1229
  735MOL0     H99162   3.848   8.274   8.507  0.9440 -0.0809  0.3500
  735MOL0     H99163   3.837   8.181   8.653 -0.3147 -0.9676 -1.4540
  735MOL0     H99164   3.579   8.184   8.634 -1.3416  0.0146 -1.2161
  735MOL0     H99165   3.594   8.281   8.487  1.4915 -0.0016 -0.8070
  735MOL0     H99166   3.721   8.120   8.367 -0.9848  1.2837 -0.3619
  735MOL0     H99167   3.715   8.002   8.506 -0.3383  0.7750  3.1511
  735MOL0     H99168   3.494   7.971   8.503 -2.2971  2.4973 -0.1479
  735MOL0     H99169   3.460   8.090   8.387  0.4731 -1.6329 -2.9799
  735MOL0     H99170   3.582   7.969   8.205  0.1343  0.1678 -0.2104
  735MOL0     H99171   3.613   7.847   8.324  1.4665  0.2539 -0.5691
  735MOL0     H99172   3.437   7.756   8.214 -1.3027  0.7022 -2.8930
  735MOL0     H99173   3.361   7.830   8.367 -0.7138  0.1772 -0.4430
  735MOL0     H99174   3.333   7.931   8.081 -0.1405  0.6643  0.7687
  735MOL0     H99175   3.289   8.025   8.229 -0.1756  0.1324 -1.0171
  735MOL0     H99176   3.115   7.858   8.424  1.5569  1.2217  0.5646
  735MOL0     H99177   2.790   7.744   8.327 -0.7252 -1.6354  1.4831
  735MOL0     H99178   2.880   7.619   8.409 -2.4267 -0.5662 -0.0128
  735MOL0     H99179   2.850   7.908   8.481 -1.5475 -0.1892  1.1784
  735MOL0     H99180   2.974   7.798   8.552 -0.8597  0.5129  0.5797
  735MOL0     H99181   2.754   7.816   8.688 -1.3071 -1.8538  0.3193
  735MOL0     H99182   2.786   7.649   8.627  0.7716 -0.9140 -1.9004
  735MOL0     H99183   2.550   7.712   8.603  1.4757 -0.7750  0.5227
  735MOL0     H99184   2.632   7.664   8.461 -1.0705 -1.8250  1.8648
  735MOL0     H99185   2.413   7.716   8.353 -0.9170 -0.1742  1.1871
  735MOL0     H99186   2.126   7.781   8.164 -2.1726 -5.1628 -0.7131
  735MOL0     H99187   2.221   7.659   8.249  1.4740  0.2735  2.4519
  735MOL0     H99188   2.074   7.733   8.322 -0.3521  0.3657  0.0001
  735MOL0     H99189   1.976   8.341   8.153  1.7698  0.9974  2.2695
  735MOL0     H99190   1.755   8.405   8.094  0.0698 -2.4900 -2.3057
  735MOL0     H99191   1.541   8.394   8.017 -0.6129 -2.7693 -3.0081
  735MOL0     H99192   1.493   8.238   8.081 -0.5281  0.7748 -0.5745
  735MOL0     H99193   1.334   8.489   8.093 -0.5892 -0.1167 -0.5404
  735MOL0     H99194   1.309   8.332   7.990  1.7166 -0.4883  0.2147
  735MOL0     H99195   1.269   8.389   8.281  0.8737 -0.5921 -0.0554
  735MOL0     H99196   1.267   8.218   8.213 -4.5391 -0.5398  0.0422
  735MOL0     H99197   1.093   8.428   8.104  0.8287  0.4380  0.9459
  735MOL0     H99198   1.073   8.257   8.068 -0.5756 -1.0027 -0.4990
  735MOL0     H99199   0.980   8.409   8.313 -1.5177  0.0099 -1.9603
  735MOL0     H99200   1.059   8.242   8.339  1.5473  0.1329 -0.4067
  735MOL0     H99201   0.926   8.143   8.183 -0.1743  1.6568 -0.9600
  735MOL0     H99202   0.848   8.181   8.331 -0.2341  1.0243  1.3154
  735MOL0     H99203   0.819   8.347   8.063  0.2774  1.2147  1.0462
  735MOL0     H99204   0.731   8.369   8.221  0.1497 -1.4698  2.2150
  735MOL0     H99205   0.590   8.256   8.064  1.9998 -0.4377 -0.2095
  735MOL0     H99206   0.638   8.131   8.186  4.3524 -1.7302  1.5501
  735MOL0     H99207   1.588   8.232   8.438 -0.0118  1.1658 -0.4659
  735MOL0     H99208   1.809   8.135   8.494 -1.9101  0.2678  0.6286
  735MOL0     H99209   2.255   8.172   8.439 -0.9712 -0.4104 -2.5853
  735MOL0     H99210   2.480   8.114   8.488 -1.0707  1.2086 -0.4998
  735MOL0     H99211   3.704   8.629   8.840  1.1909 -1.5976 -2.2975
  735MOL0     H99212   3.840   8.794   8.967 -0.0655  1.0372  0.8308
  735MOL0     H99213   4.356   8.909   9.016  0.9538  0.6048  0.2129
  735MOL0     H99214   4.502   9.034   9.141 -2.0449 -1.6725 -3.4657
  735MOL0     H99215   4.551   9.157   9.562  3.7440 -3.9368 -0.9892
  735MOL0     H99216   4.383   9.164   9.567  2.7544  3.5842 -1.2559
  735MOL0     H99217   4.421   8.890   9.547 -0.6312  0.4884  0.8993
  735MOL0     H99218   4.476   8.950   9.701 -2.3716  0.1762 -0.7836
  735MOL0     H99219   4.686   8.980   9.490  0.8915 -2.4198 -0.8299
  735MOL0     H99220   4.626   8.817   9.533 -1.0917  0.5689 -1.1850
  735MOL0     H99221   4.838   8.910   9.667 -0.0728  1.3874  1.6949
  735MOL0     H99222   4.707   8.829   9.758  1.1854 -0.3686  0.0681
  735MOL0     H99223   4.726   9.250   9.866 -2.2393 -1.0060  1.6653
  735MOL0     H99224   4.212   9.046   9.455  1.1077  0.2204 -0.1350
  735MOL0     H99225   4.069   8.914   9.342 -0.4255  3.0528 -0.1163
  736MOL0     O99226   9.472   5.948   9.180 -0.2735  0.8326  0.2949
  736MOL0     C99227   9.484   5.835   9.124  0.4878 -0.7960 -0.1643
  736MOL0     O99228   9.590   5.791   9.048  0.7477  0.7332 -0.0404
  736MOL0     C99229   9.701   5.874   9.023 -0.2521  0.0379 -0.1677
  736MOL0     C99230   9.827   5.812   9.034  0.2153 -0.0204  0.7526
  736MOL0     C99231   9.940   5.888   9.023  0.0270  0.1675  0.0758
  736MOL0     C99232   9.940   6.026   9.002 -0.4528  0.0624 -1.1231
  736MOL0     O99233  10.056   6.097   8.967  0.0100  0.0750  0.0244
  736MOL0     C99234  10.185   6.037   8.972 -0.2112 -0.0558  0.6986
  736MOL0     C99235  10.292   6.149   8.908 -1.0412  0.3021 -0.3207
  736MOL0     C99236  10.430   6.092   8.925  0.0029  0.5066 -0.1415
  736MOL0     C99237  10.538   6.177   8.860 -0.7338  0.1383 -0.0816
  736MOL0     C99238  10.686   6.122   8.847  0.2308 -0.7867  0.1515
  736MOL0     C99239  10.782   6.234   8.787  0.7417 -0.9290 -0.2171
  736MOL0     C99240  10.908   6.162   8.737  0.3757  0.6780 -0.1096
  736MOL0     C99241  11.007   6.259   8.673  0.6790  0.2453  0.2055
  736MOL0     N99242  10.934   6.342   8.574  0.1469 -0.0386  0.3514
  736MOL0     C99243  10.915   6.299   8.443 -0.1991  0.0650 -0.1298
  736MOL0     C99244  10.851   6.402   8.382  0.3451  0.3039 -0.1444
  736MOL0     C99245  10.825   6.387   8.239  1.0324 -0.1235  0.1050
  736MOL0     C99246  10.701   6.313   8.207 -0.2725  0.2663 -0.4092
  736MOL0     C99247  10.673   6.300   8.057  0.9113  0.9800  0.1743
  736MOL0     C99248  10.537   6.253   8.013  0.2827 -0.1666 -0.6589
  736MOL0     O99249  10.504   6.125   8.081 -0.0511  0.2739  0.0015
  736MOL0     C99250  10.372   6.093   8.103 -0.5843  0.9865 -0.1512
  736MOL0     C99251  10.290   6.054   7.995  0.6866 -0.3154  0.4003
  736MOL0     C99252  10.160   6.002   8.018  0.2016 -0.7787  0.0936
  736MOL0     C99253  10.093   5.958   7.886 -0.5004  0.0866 -0.1551
  736MOL0     C99254  10.100   6.013   8.147 -0.0951  0.5874  0.0360
  736MOL0     C99255   9.964   5.966   8.176 -0.0648  0.5440 -0.0706
  736MOL0     O99256   9.924   5.940   8.306 -0.2346 -0.0454 -0.1984
  736MOL0     C99257   9.799   5.884   8.318 -0.3697  0.0358 -0.0286
  736MOL0     C99258   9.684   5.960   8.336 -0.2126 -0.1719 -0.1063
  736MOL0     C99259   9.568   5.895   8.356  0.7188  0.0151  0.1591
  736MOL0     C99260   9.554   5.763   8.345 -0.3002  0.0527 -0.3351
  736MOL0     O99261   9.432   5.705   8.375  0.4140 -0.3559  0.0766
  736MOL0     C99262   9.391   5.603   8.279 -0.3213  0.2277  0.4428
  736MOL0     C99263   9.244   5.581   8.274  0.4130 -0.2083  0.8023
  736MOL0     C99264   9.155   5.697   8.243  0.1822  0.0340  0.7226
  736MOL0     C99265   9.000   5.653   8.237 -0.1089 -0.5733  0.1287
  736MOL0     C99266   8.926   5.766   8.173 -0.8590 -0.8628  0.3639
  736MOL0     C99267   8.788   5.704   8.147  0.5474  0.2925  1.0807
  736MOL0     C99268   8.700   5.650   8.252 -0.4840  0.6568  0.5519
  736MOL0     C99269   8.567   5.594   8.196 -0.3441 -0.2528  0.1907
  736MOL0    Cl99270   8.590   5.450   8.089 -0.1771  0.4865 -0.4757
  736MOL0     C99271   9.662   5.682   8.320  0.1710  0.0779  0.6685
  736MOL0     C99272   9.787   5.748   8.305  0.3892  0.3649  0.3363
  736MOL0     O99273   9.899   5.942   8.078  0.1736 -0.2691 -0.0404
  736MOL0     C99274  10.179   6.058   8.255 -0.9447  0.2722  0.4517
  736MOL0     C99275  10.308   6.105   8.227  0.7533  0.3128 -0.9632
  736MOL0     N99276  10.844   6.507   8.474  0.5681  0.1343 -0.3863
  736MOL0     N99277  10.884   6.467   8.588 -0.0346  0.4026  0.3926
  736MOL0     C99278   9.815   6.080   9.005 -0.1008  0.7279  0.6161
  736MOL0     C99279   9.697   6.009   9.001 -0.1736  0.6273  0.2134
  736MOL0     C99280   9.362   5.764   9.110 -0.8157  0.5613 -0.3632
  736MOL0     C99281   9.248   5.797   9.194  0.3276  0.9225 -0.0064
  736MOL0     C99282   9.117   5.741   9.160  0.3766  0.2528 -0.1424
  736MOL0     C99283   9.109   5.659   9.049 -0.0853  0.2527  0.1741
  736MOL0     O99284   8.987   5.601   9.019 -0.6272 -0.1496  0.1261
  736MOL0     C99285   8.974   5.473   9.076 -0.6923 -0.0765  0.2434
  736MOL0     C99286   8.822   5.427   9.048  0.0243  1.1346 -0.2596
  736MOL0     C99287   8.809   5.286   9.103  0.1337 -0.3925  0.3632
  736MOL0     C99288   8.668   5.236   9.110 -0.1568 -0.1936  0.8713
  736MOL0     C99289   8.599   5.299   9.216 -0.0336  1.2790 -0.2734
  736MOL0     C99290   8.531   5.344   9.308 -0.5467 -0.0555  0.3307
  736MOL0     C99291   9.225   5.621   8.968 -0.0023  0.1414 -0.6201
  736MOL0     C99292   9.344   5.681   9.001  0.4686  0.9260 -0.2800
  736MOL0     H99293   9.826   5.704   9.022  0.0649  0.2747 -3.7166
  736MOL0     H99294  10.030   5.828   9.036 -1.7072 -2.1231  2.4008
  736MOL0     H99295  10.211   6.011   9.075  0.6812 -1.0954  0.2399
  736MOL0     H99296  10.178   5.942   8.919  2.4250 -1.2194  2.2337
  736MOL0     H99297  10.269   6.172   8.804 -2.1698 -1.5846 -0.5469
  736MOL0     H99298  10.286   6.233   8.978 -1.7010 -0.4673  0.5853
  736MOL0     H99299  10.440   6.083   9.033  1.8298  1.1912 -0.2279
  736MOL0     H99300  10.434   5.991   8.882  0.7755  0.3947  0.1893
  736MOL0     H99301  10.506   6.196   8.757 -0.6526  1.2112  0.0776
  736MOL0     H99302  10.533   6.275   8.908  2.9051  0.5734 -0.3416
  736MOL0     H99303  10.727   6.093   8.945 -0.3692  0.8923  0.9345
  736MOL0     H99304  10.684   6.029   8.790 -3.3448 -1.4394  1.1092
  736MOL0     H99305  10.733   6.269   8.695 -0.1998 -0.5055  0.4256
  736MOL0     H99306  10.796   6.308   8.866 -1.6148  0.9218 -1.4023
  736MOL0     H99307  10.963   6.118   8.821  3.6406 -1.6947 -3.1642
  736MOL0     H99308  10.882   6.087   8.662  2.9023 -1.9624  1.3790
  736MOL0     H99309  11.084   6.203   8.618  0.3325  0.4968 -0.5445
  736MOL0     H99310  11.046   6.327   8.749 -1.8881 -0.4384  2.2795
  736MOL0     H99311  10.956   6.208   8.399  1.3151  0.8760 -0.4856
  736MOL0     H99312  10.815   6.490   8.203 -1.1521 -0.1955  0.4018
  736MOL0     H99313  10.911   6.336   8.194  2.7804 -2.2292  5.0625
  736MOL0     H99314  10.628   6.375   8.260  1.7649  1.9600  0.5581
  736MOL0     H99315  10.705   6.210   8.243 -2.3753 -0.0577 -0.9410
  736MOL0     H99316  10.735   6.232   7.998 -1.4312  0.8939 -2.4355
  736MOL0     H99317  10.687   6.397   8.009 -2.4489  0.6469 -1.8066
  736MOL0     H99318  10.541   6.234   7.905 -0.2441  0.3165 -0.7686
  736MOL0     H99319  10.462   6.331   8.029  1.0441  0.6360 -0.9102
  736MOL0     H99320  10.338   6.064   7.898  2.5121 -2.3111  1.0199
  736MOL0     H99321  10.167   5.943   7.807  0.0158 -0.9430  0.5079
  736MOL0     H99322  10.038   5.864   7.889 -0.2471 -0.0387  2.3655
  736MOL0     H99323  10.031   6.038   7.845 -0.0412  0.0014 -1.0363
  736MOL0     H99324   9.690   6.069   8.337  0.0278 -0.1861  0.0351
  736MOL0     H99325   9.478   5.950   8.381  0.7128  0.0083  0.1496
  736MOL0     H99326   9.441   5.632   8.186 -0.7824 -0.4411 -0.0210
  736MOL0     H99327   9.436   5.508   8.307  0.1201  0.2263 -0.2478
  736MOL0     H99328   9.227   5.495   8.208 -0.7711  1.0885 -0.6569
  736MOL0     H99329   9.209   5.553   8.374 -2.0134  0.1886  0.1425
  736MOL0     H99330   9.186   5.739   8.146 -1.7155  0.5667  0.3082
  736MOL0     H99331   9.166   5.777   8.316 -0.7137  0.3806  0.4971
  736MOL0     H99332   8.993   5.558   8.184  0.1438 -0.0079 -0.9480
  736MOL0     H99333   8.955   5.631   8.334 -1.1596 -0.9818 -0.4429
  736MOL0     H99334   8.980   5.793   8.082  3.8434 -2.0154  2.5057
  736MOL0     H99335   8.934   5.849   8.244  5.7585  1.3516 -2.2418
  736MOL0     H99336   8.735   5.779   8.089  0.5267 -0.9874 -0.6682
  736MOL0     H99337   8.813   5.629   8.071 -0.1445 -0.1391  1.2726
  736MOL0     H99338   8.674   5.733   8.318 -0.3763  1.0292  0.1300
  736MOL0     H99339   8.750   5.575   8.315 -0.3984  0.6697  0.4980
  736MOL0     H99340   8.512   5.679   8.155  0.0982 -0.3423 -0.6123
  736MOL0     H99341   8.509   5.555   8.281  0.4394  1.7119  1.7067
  736MOL0     H99342   9.648   5.574   8.322  1.8063 -0.1664  0.1047
  736MOL0     H99343   9.876   5.691   8.279 -1.9189 -2.4214 -2.2695
  736MOL0     H99344  10.134   6.051   8.354 -0.1247  0.7046  0.8605
  736MOL0     H99345  10.376   6.143   8.303 -1.5981  2.3255  0.2766
  736MOL0     H99346   9.808   6.189   9.008  1.1640  0.8202  0.7060
  736MOL0     H99347   9.605   6.064   9.018 -0.0416  1.3064 -1.1445
  736MOL0     H99348   9.256   5.871   9.273  2.9891  1.2469 -0.4896
  736MOL0     H99349   9.036   5.771   9.224  2.1194  2.5471  1.1369
  736MOL0     H99350   9.050   5.403   9.043 -1.2378 -1.2072  1.2901
  736MOL0     H99351   8.996   5.479   9.183  2.5332  0.9813 -0.3832
  736MOL0     H99352   8.804   5.425   8.940 -0.0388 -0.2971 -0.2507
  736MOL0     H99353   8.754   5.496   9.098 -0.6889  0.2886 -0.0374
  736MOL0     H99354   8.857   5.273   9.201  2.0198  0.3304 -0.4218
  736MOL0     H99355   8.869   5.221   9.038  4.1740  0.7825  2.5421
  736MOL0     H99356   8.668   5.129   9.133  1.1412 -0.4946 -0.4772
  736MOL0     H99357   8.623   5.253   9.012  5.8330  2.3403 -1.9175
  736MOL0     H99358   8.466   5.354   9.392  0.8491 -0.4361  1.4880
  736MOL0     H99359   9.233   5.535   8.903  0.3801 -1.1837  1.1128
  736MOL0     H99360   9.436   5.663   8.945  0.9641  1.2565  0.4245
  737MOL0     O99361  10.902   7.974  10.170 -0.1148 -0.0672 -0.1403
  737MOL0     C99362  10.965   7.958  10.276  0.1885 -0.1293 -0.1292
  737MOL0     O99363  10.917   7.881  10.377  0.1190 -0.5230 -0.0203
  737MOL0     C99364  10.791   7.827  10.361  0.6755  0.2745  0.8598
  737MOL0     C99365  10.733   7.765  10.251  0.1258  0.7426  0.5433
  737MOL0     C99366  10.602   7.724  10.254  0.0479  0.2657 -0.2801
  737MOL0     C99367  10.522   7.745  10.370  0.5239 -1.0528 -0.1021
  737MOL0     O99368  10.391   7.714  10.380 -0.4157 -0.2052 -0.2508
  737MOL0     C99369  10.334   7.605  10.305 -0.0514  0.2566  0.6391
  737MOL0     C99370  10.213   7.546  10.366  1.1269 -0.3448  0.6593
  737MOL0     C99371  10.089   7.637  10.351  0.2662 -0.2458  0.0089
  737MOL0     C99372  10.020   7.655  10.209 -0.8278  0.5279 -0.3946
  737MOL0     C99373   9.897   7.747  10.200  0.1582 -0.7052 -0.6033
  737MOL0     C99374   9.784   7.688  10.278 -0.0888 -0.2706 -0.2980
  737MOL0     C99375   9.656   7.774  10.252 -0.3663 -0.8650 -0.0735
  737MOL0     C99376   9.527   7.698  10.277 -0.1620  0.5255 -0.0626
  737MOL0     N99377   9.402   7.772  10.227  0.0406 -0.0788 -0.4212
  737MOL0     C99378   9.318   7.857  10.296 -0.6541  0.2040 -0.4926
  737MOL0     C99379   9.229   7.894  10.201 -0.6483 -0.7563  0.7242
  737MOL0     C99380   9.108   7.983  10.226  0.6812 -0.4123  0.2998
  737MOL0     C99381   9.062   8.075  10.113 -0.0106  0.1717  0.3165
  737MOL0     C99382   8.943   8.158  10.162 -0.3275  0.8187 -0.1313
  737MOL0     C99383   8.876   8.238  10.046 -0.2417 -0.6399  0.3576
  737MOL0     O99384   8.780   8.336  10.092 -0.1367  0.0757 -0.2700
  737MOL0     C99385   8.673   8.382  10.023 -0.0366 -0.7623  0.3988
  737MOL0     C99386   8.595   8.479  10.084  0.1190 -0.1870  0.7464
  737MOL0     C99387   8.473   8.526  10.032 -0.5159  0.2764  0.5254
  737MOL0     C99388   8.385   8.619  10.111 -0.5767  0.0148 -0.0152
  737MOL0     C99389   8.449   8.483   9.897  0.8049  0.0517 -0.3515
  737MOL0     C99390   8.336   8.550   9.816  0.2459 -0.7079  0.7219
  737MOL0     O99391   8.358   8.549   9.676 -0.1059  0.0954  0.1421
  737MOL0     C99392   8.253   8.574   9.599 -0.3403 -0.4279 -0.0999
  737MOL0     C99393   8.163   8.683   9.618  0.1809 -0.2290  0.0824
  737MOL0     C99394   8.044   8.700   9.545 -0.5298  0.2022 -0.0152
  737MOL0     C99395   8.010   8.602   9.452 -0.7748  0.8471 -0.5236
  737MOL0     O99396   7.899   8.603   9.373  0.2246 -0.6764 -0.4068
  737MOL0     C99397   7.803   8.715   9.388 -0.2745  0.3155 -0.0125
  737MOL0     C99398   7.667   8.676   9.330  0.1097 -0.9745  1.5181
  737MOL0     C99399   7.683   8.705   9.177 -0.4622  0.2422 -0.1355
  737MOL0     C99400   7.552   8.673   9.107  0.2592  0.5020  0.4917
  737MOL0     C99401   7.436   8.770   9.147  0.0765 -0.4397 -0.4083
  737MOL0     C99402   7.349   8.804   9.026 -0.6619 -0.2280  0.2463
  737MOL0     C99403   7.257   8.694   8.981  1.0186 -0.0845 -0.0724
  737MOL0     C99404   7.165   8.751   8.875 -0.3704  0.1910  0.3288
  737MOL0    Cl99405   7.038   8.641   8.825  0.1321  0.3199  0.0131
  737MOL0     C99406   8.092   8.487   9.433 -0.7385  0.1995  0.3889
  737MOL0     C99407   8.214   8.478   9.505  0.0487 -0.1621 -0.5903
  737MOL0     O99408   8.229   8.570   9.866  0.4796  0.4055  0.0678
  737MOL0     C99409   8.544   8.399   9.821  0.3829  0.3970  0.9862
  737MOL0     C99410   8.660   8.358   9.884  0.0706  0.0061 -0.0756
  737MOL0     N99411   9.253   7.843  10.081  0.1396 -0.3628  1.2582
  737MOL0     N99412   9.356   7.762  10.096  0.1551 -0.0113 -0.3966
  737MOL0     C99413  10.573   7.820  10.473 -0.3428  1.0743 -0.6364
  737MOL0     C99414  10.711   7.858  10.473 -0.3115 -0.1816  0.2481
  737MOL0     C99415  11.087   8.035  10.299  0.1024 -1.1748  0.2399
  737MOL0     C99416  11.160   8.026  10.421 -0.2157  0.6649 -0.0247
  737MOL0     C99417  11.276   8.111  10.436 -0.2750 -0.3678  0.1441
  737MOL0     C99418  11.325   8.195  10.335 -1.1413  0.1861  0.4246
  737MOL0     O99419  11.449   8.257  10.362 -0.1772  0.5658  0.0547
  737MOL0     C99420  11.481   8.368  10.279  0.2997  0.2402  0.5518
  737MOL0     C99421  11.622   8.367  10.218  0.4323  0.4526 -0.8278
  737MOL0     C99422  11.721   8.413  10.314 -0.2098 -0.1975 -0.0802
  737MOL0     C99423  11.854   8.454  10.255  0.2632  0.3047 -0.8680
  737MOL0     C99424  11.935   8.352  10.179  0.6538 -0.4886 -0.6927
  737MOL0     C99425  12.003   8.267  10.123  0.4448  0.0820 -0.5379
  737MOL0     C99426  11.251   8.191  10.208 -0.1761 -0.1488  0.2872
  737MOL0     C99427  11.141   8.116  10.194 -0.6028 -0.3522 -0.7085
  737MOL0     H99428  10.781   7.751  10.155 -2.0478  0.2520 -0.5380
  737MOL0     H99429  10.554   7.675  10.169 -2.2251 -1.6142  1.9287
  737MOL0     H99430  10.318   7.630  10.200  1.6302 -1.4670 -0.0958
  737MOL0     H99431  10.405   7.522  10.292 -0.5564 -0.3223  1.5110
  737MOL0     H99432  10.198   7.448  10.322  0.2758 -0.5438  1.3731
  737MOL0     H99433  10.234   7.523  10.471  2.5447 -1.3254  0.1974
  737MOL0     H99434  10.008   7.593  10.411 -0.9752  0.2503 -1.2424
  737MOL0     H99435  10.114   7.732  10.400 -3.4088  0.5498  0.6858
  737MOL0     H99436  10.092   7.690  10.134 -0.9879  0.6865 -0.4728
  737MOL0     H99437   9.998   7.553  10.177  0.6179 -0.2285  0.8584
  737MOL0     H99438   9.918   7.850  10.231 -2.7359 -0.8605  2.4445
  737MOL0     H99439   9.864   7.751  10.096 -0.5715  1.0954 -0.3315
  737MOL0     H99440   9.774   7.583  10.250 -0.5951 -0.0681 -0.8946
  737MOL0     H99441   9.802   7.680  10.385 -2.8230  1.4087  0.3881
  737MOL0     H99442   9.656   7.870  10.304  1.4897 -0.1651 -1.2634
  737MOL0     H99443   9.649   7.800  10.146 -1.9658  0.2054  0.2611
  737MOL0     H99444   9.516   7.654  10.376 -0.9984 -1.0566 -0.8174
  737MOL0     H99445   9.537   7.620  10.200  0.5471  2.1279 -1.6740
  737MOL0     H99446   9.328   7.886  10.400  0.4335 -0.3303 -0.4328
  737MOL0     H99447   9.034   7.906  10.251  0.5903  0.1126  1.7678
  737MOL0     H99448   9.118   8.040  10.319  2.2288  1.0318 -0.6925
  737MOL0     H99449   9.035   8.011  10.028 -0.2156  0.5815  0.0665
  737MOL0     H99450   9.146   8.133  10.075  0.7548 -0.4323  1.0651
  737MOL0     H99451   8.989   8.226  10.235 -3.6864  1.4400  1.6079
  737MOL0     H99452   8.870   8.102  10.222 -2.3875  3.6478  0.1986
  737MOL0     H99453   8.819   8.170   9.981 -2.1213  1.5983 -0.4704
  737MOL0     H99454   8.956   8.276   9.982  0.3722 -2.2465  0.1238
  737MOL0     H99455   8.645   8.525  10.168  4.2247 -1.1211 -0.9516
  737MOL0     H99456   8.429   8.616  10.211 -1.6407 -1.5156  0.4346
  737MOL0     H99457   8.385   8.718  10.063  0.5319 -0.5402 -1.2122
  737MOL0     H99458   8.284   8.578  10.112 -0.2756 -0.7478  0.7027
  737MOL0     H99459   8.191   8.757   9.692  3.2631 -0.4955 -0.6711
  737MOL0     H99460   7.990   8.794   9.551  1.9850  1.8113 -0.5145
  737MOL0     H99461   7.802   8.761   9.487  1.5459 -0.8075  0.5678
  737MOL0     H99462   7.849   8.796   9.331 -0.4201  0.8834  0.6741
  737MOL0     H99463   7.630   8.574   9.338 -1.4130 -0.6900 -0.9515
  737MOL0     H99464   7.598   8.755   9.361  2.1681  2.3317 -1.5572
  737MOL0     H99465   7.765   8.640   9.146  0.6716  0.0527  2.9701
  737MOL0     H99466   7.697   8.811   9.153 -0.5859  0.4143  0.5237
  737MOL0     H99467   7.573   8.689   9.000  0.8659  1.7702  0.7778
  737MOL0     H99468   7.524   8.570   9.128 -0.9022  0.2167 -2.0284
  737MOL0     H99469   7.476   8.864   9.186  1.8235 -0.8789 -1.0684
  737MOL0     H99470   7.379   8.727   9.230 -0.2498  0.1036 -0.3480
  737MOL0     H99471   7.295   8.888   9.069  1.6696 -0.3525  3.8620
  737MOL0     H99472   7.415   8.838   8.946 -3.6072  0.3171 -2.1241
  737MOL0     H99473   7.189   8.664   9.061 -2.9209  3.3205 -1.7917
  737MOL0     H99474   7.319   8.607   8.954 -1.5621 -2.0640  0.0231
  737MOL0     H99475   7.218   8.784   8.786 -0.4518  1.3369  0.6904
  737MOL0     H99476   7.107   8.834   8.916 -2.3803 -1.7311  1.6285
  737MOL0     H99477   8.067   8.407   9.364  2.2590 -0.6869  0.1599
  737MOL0     H99478   8.266   8.383   9.494 -2.5543 -2.0312  1.7993
  737MOL0     H99479   8.528   8.358   9.722  1.5968 -0.6963  1.2127
  737MOL0     H99480   8.716   8.277   9.839 -2.6963 -3.1514  1.6990
  737MOL0     H99481  10.514   7.833  10.564  1.1278  2.8226  0.1451
  737MOL0     H99482  10.769   7.895  10.556 -1.2363  1.2275  0.2974
  737MOL0     H99483  11.132   7.957  10.500 -0.4772  0.6182 -0.1574
  737MOL0     H99484  11.325   8.111  10.533  0.8015  0.7187 -0.3718
  737MOL0     H99485  11.408   8.381  10.199  0.1381  1.1174  0.8270
  737MOL0     H99486  11.466   8.460  10.337 -0.0333  0.0712  0.7368
  737MOL0     H99487  11.626   8.433  10.131 -1.3595  2.0584  0.2324
  737MOL0     H99488  11.635   8.265  10.182 -0.3325  0.1404 -0.2619
  737MOL0     H99489  11.745   8.335  10.386  0.6165  0.1720  0.0566
  737MOL0     H99490  11.680   8.498  10.370  0.1933  0.0341 -0.1332
  737MOL0     H99491  11.916   8.493  10.336  2.2710 -0.0007 -2.1964
  737MOL0     H99492  11.848   8.544  10.193 -1.6599  1.8630  1.4103
  737MOL0     H99493  12.052   8.196  10.059 -1.3595 -1.5570 -0.1741
  737MOL0     H99494  11.287   8.236  10.116 -0.2346 -1.5563 -0.4529
  737MOL0     H99495  11.090   8.110  10.098 -3.4390 -1.8642  0.7798
  738MOL0     O99496   6.524   9.578   4.729 -0.0522 -0.4025  0.1284
  738MOL0     C99497   6.563   9.562   4.612  0.8071 -0.5790 -0.1382
  738MOL0     O99498   6.481   9.562   4.502 -0.8531  0.2266 -0.2012
  738MOL0     C99499   6.348   9.539   4.507 -0.2206 -0.5073  0.3168
  738MOL0     C99500   6.277   9.589   4.394  0.3220  0.2726 -0.7928
  738MOL0     C99501   6.135   9.555   4.379  0.3124 -0.6970  0.5328
  738MOL0     C99502   6.067   9.470   4.467  0.1208 -0.0924 -0.4579
  738MOL0     O99503   5.937   9.427   4.457 -0.1043 -1.0336  0.1681
  738MOL0     C99504   5.852   9.502   4.371  0.4741 -0.6598 -0.2438
  738MOL0     C99505   5.710   9.448   4.379  0.9605  0.5642 -0.6936
  738MOL0     C99506   5.607   9.530   4.304  0.4266 -0.8276 -0.3951
  738MOL0     C99507   5.470   9.460   4.327  0.4534  0.3928  0.1003
  738MOL0     C99508   5.355   9.530   4.259  0.7539  0.9218 -0.1947
  738MOL0     C99509   5.228   9.438   4.250  0.0882 -0.7525  0.2763
  738MOL0     C99510   5.112   9.527   4.209  0.1540 -0.0882  0.7869
  738MOL0     C99511   4.986   9.452   4.174 -0.2590 -0.6482 -0.7601
  738MOL0     N99512   4.884   9.529   4.118  0.2994 -0.4363 -1.0755
  738MOL0     C99513   4.864   9.568   3.990  0.7103 -0.1770  0.0530
  738MOL0     C99514   4.751   9.650   3.983 -0.0769 -0.9844  0.0747
  738MOL0     C99515   4.682   9.685   3.857 -0.5946 -0.0549 -0.4072
  738MOL0     C99516   4.742   9.811   3.793  0.3798 -0.3644  0.4143
  738MOL0     C99517   4.646   9.858   3.685 -0.2430 -0.1866 -0.2163
  738MOL0     C99518   4.693   9.999   3.637  0.9780  0.8825  0.4781
  738MOL0     O99519   4.632  10.107   3.710 -0.0095  0.1836 -0.3351
  738MOL0     C99520   4.508  10.152   3.678 -1.0460 -0.5688  0.1083
  738MOL0     C99521   4.433  10.096   3.581  0.5346 -0.7468  0.2405
  738MOL0     C99522   4.313  10.163   3.541 -0.6498  0.4343  0.0590
  738MOL0     C99523   4.240  10.079   3.436 -0.8912  0.3173  0.3759
  738MOL0     C99524   4.267  10.276   3.591 -0.4781  0.5361 -0.1389
  738MOL0     C99525   4.141  10.348   3.557  0.3477  0.2459  0.1994
  738MOL0     O99526   4.125  10.468   3.617 -0.8835 -0.5081  0.0596
  738MOL0     C99527   4.054  10.573   3.558 -0.4036 -0.0824  0.7780
  738MOL0     C99528   4.116  10.704   3.562  0.2543  0.6991  1.2162
  738MOL0     C99529   4.038  10.812   3.518 -0.2439 -0.0945 -0.4969
  738MOL0     C99530   3.911  10.803   3.466 -0.3880  0.1555  0.0233
  738MOL0     O99531   3.834  10.904   3.415  0.2558  0.2686 -0.3773
  738MOL0     C99532   3.892  11.038   3.400  0.5880  0.1921 -0.9074
  738MOL0     C99533   3.792  11.118   3.311 -0.8704 -0.6701 -0.4127
  738MOL0     C99534   3.651  11.116   3.366  0.4173  0.3224  0.2653
  738MOL0     C99535   3.551  11.192   3.271 -0.1047  0.4812 -0.3178
  738MOL0     C99536   3.413  11.199   3.335  0.3119  0.3973 -0.5960
  738MOL0     C99537   3.297  11.277   3.271 -0.7959 -0.1040  0.3624
  738MOL0     C99538   3.331  11.417   3.211 -0.4587 -1.1048 -0.5387
  738MOL0     C99539   3.201  11.506   3.200  0.6517 -0.4665 -0.0476
  738MOL0    Cl99540   3.133  11.537   3.355  0.0097 -0.1472 -0.2772
  738MOL0     C99541   3.853  10.676   3.464  0.2378 -0.0369  0.0663
  738MOL0     C99542   3.918  10.566   3.508 -1.0884  0.1499  0.1444
  738MOL0     O99543   4.058  10.287   3.487  0.1422  0.2521  0.6517
  738MOL0     C99544   4.351  10.323   3.697  0.8943 -0.2460  0.1005
  738MOL0     C99545   4.472  10.269   3.745  0.8081 -0.1271  0.7446
  738MOL0     N99546   4.701   9.666   4.106  0.3521 -0.2945 -1.1214
  738MOL0     N99547   4.778   9.596   4.183 -0.2312  0.3899 -0.2243
  738MOL0     C99548   6.139   9.429   4.583 -0.7105 -0.3122 -1.7185
  738MOL0     C99549   6.276   9.458   4.604  1.0301  0.1485  0.4077
  738MOL0     C99550   6.704   9.570   4.590 -0.5191 -0.1146  0.1479
  738MOL0     C99551   6.754   9.569   4.459 -0.1972 -0.1740 -0.0585
  738MOL0     C99552   6.892   9.581   4.429 -0.9544  0.3894  0.1675
  738MOL0     C99553   6.991   9.604   4.530  0.1278  0.2672 -0.4211
  738MOL0     O99554   7.125   9.615   4.505 -0.4236 -0.0839  0.5267
  738MOL0     C99555   7.220   9.608   4.613 -0.7918  0.0621  0.4352
  738MOL0     C99556   7.364   9.635   4.567  0.9773  0.8253  0.1602
  738MOL0     C99557   7.390   9.784   4.553 -0.4039  0.2478 -0.4400
  738MOL0     C99558   7.534   9.806   4.507  0.3480 -0.1858 -0.7031
  738MOL0     C99559   7.564   9.950   4.503 -0.0523  0.4320 -0.3880
  738MOL0     C99560   7.575  10.072   4.511 -0.0063 -0.5777 -0.0747
  738MOL0     C99561   6.935   9.607   4.659 -0.0331  0.3122  0.1621
  738MOL0     C99562   6.798   9.583   4.694 -0.7652  0.0169 -0.0405
  738MOL0     H99563   6.315   9.647   4.310  0.1562 -1.4198 -2.0993
  738MOL0     H99564   6.087   9.585   4.287 -0.7351 -2.2589  0.5389
  738MOL0     H99565   5.848   9.607   4.404  0.1229 -0.6053 -0.4563
  738MOL0     H99566   5.890   9.501   4.269  0.5256  0.3973 -0.2469
  738MOL0     H99567   5.714   9.350   4.330  0.6773  0.8547 -1.3127
  738MOL0     H99568   5.687   9.424   4.483  2.3810 -1.0644 -0.7137
  738MOL0     H99569   5.594   9.628   4.350  0.7427 -1.1660  0.4358
  738MOL0     H99570   5.639   9.548   4.201  0.1204  3.5832  0.0947
  738MOL0     H99571   5.474   9.355   4.298  0.4938  0.3931  0.1040
  738MOL0     H99572   5.447   9.450   4.433  0.5449  0.0054  0.0850
  738MOL0     H99573   5.339   9.626   4.309  0.5837  0.8624 -0.1340
  738MOL0     H99574   5.378   9.545   4.153 -2.4629  0.4148 -1.0457
  738MOL0     H99575   5.252   9.358   4.180 -1.6645 -2.1386  1.1870
  738MOL0     H99576   5.199   9.400   4.348 -1.8233 -2.0202 -0.7129
  738MOL0     H99577   5.079   9.610   4.273 -3.0603  0.5944 -1.4983
  738MOL0     H99578   5.138   9.578   4.116 -3.1878 -1.1171 -0.8890
  738MOL0     H99579   4.942   9.396   4.257  1.0132 -1.7228 -0.7710
  738MOL0     H99580   5.021   9.373   4.107 -1.2069 -0.9276 -0.9476
  738MOL0     H99581   4.925   9.541   3.904 -0.7141 -1.0313 -0.7310
  738MOL0     H99582   4.695   9.593   3.798  0.1759 -0.1240 -0.1321
  738MOL0     H99583   4.582   9.715   3.891  1.5916  5.3090  2.4350
  738MOL0     H99584   4.830   9.766   3.745 -0.8450 -1.9767 -0.4122
  738MOL0     H99585   4.765   9.893   3.862  0.1856  0.2589 -0.2549
  738MOL0     H99586   4.544   9.861   3.724 -1.1201 -4.1080 -1.7654
  738MOL0     H99587   4.648   9.787   3.602  0.2131 -0.6605  0.1932
  738MOL0     H99588   4.672  10.002   3.530 -1.4155 -4.0333  0.4964
  738MOL0     H99589   4.801  10.013   3.648  1.1430  0.1688 -0.1368
  738MOL0     H99590   4.466  10.000   3.542  1.4780  0.6157 -2.6001
  738MOL0     H99591   4.171  10.020   3.496 -1.5955  0.6568 -0.0857
  738MOL0     H99592   4.196  10.151   3.365 -0.4729 -0.3460 -0.5802
  738MOL0     H99593   4.303  10.005   3.386 -1.4312 -1.5263  2.3300
  738MOL0     H99594   4.221  10.714   3.588  1.0025  0.9639 -1.6343
  738MOL0     H99595   4.081  10.912   3.516 -0.5654  0.0439 -2.1308
  738MOL0     H99596   3.898  11.089   3.497  1.9223  2.4550 -2.1110
  738MOL0     H99597   3.997  11.044   3.370  0.8630  0.3752  0.0573
  738MOL0     H99598   3.832  11.219   3.310 -0.6820 -0.6835  1.9828
  738MOL0     H99599   3.794  11.074   3.210  1.0721  0.2839 -0.8421
  738MOL0     H99600   3.665  11.163   3.464  0.8363  0.1547  0.2909
  738MOL0     H99601   3.621  11.011   3.381  1.7807  0.0667  1.5327
  738MOL0     H99602   3.588  11.294   3.257  1.0641  0.4982  2.2229
  738MOL0     H99603   3.542  11.142   3.174 -0.7395  1.0406 -0.5531
  738MOL0     H99604   3.426  11.233   3.438  0.9447 -1.0505 -0.1648
  738MOL0     H99605   3.372  11.098   3.336  0.7689  0.2075 -0.6867
  738MOL0     H99606   3.247  11.223   3.190 -3.2855  2.1487  0.2590
  738MOL0     H99607   3.223  11.283   3.351 -1.3293  0.3344 -0.1560
  738MOL0     H99608   3.382  11.418   3.114  1.2706  1.7410  0.2662
  738MOL0     H99609   3.393  11.459   3.292 -0.6096  1.5097 -1.6819
  738MOL0     H99610   3.132  11.462   3.128  2.5773  1.0950 -3.0702
  738MOL0     H99611   3.231  11.598   3.149 -1.7577 -0.7533 -2.2107
  738MOL0     H99612   3.749  10.661   3.434  0.4441  0.0153 -0.6937
  738MOL0     H99613   3.865  10.472   3.515 -0.5909 -0.1699 -0.3959
  738MOL0     H99614   4.330  10.422   3.737  2.8038 -0.4354  1.7428
  738MOL0     H99615   4.536  10.316   3.819  1.3621 -0.8089  0.7023
  738MOL0     H99616   6.102   9.366   4.662  0.6766  1.3486  0.3534
  738MOL0     H99617   6.333   9.421   4.688  1.7607  0.2621 -0.0235
  738MOL0     H99618   6.683   9.566   4.377 -0.8649  1.2518  0.4391
  738MOL0     H99619   6.922   9.555   4.328 -2.6030 -2.3119  0.2510
  738MOL0     H99620   7.201   9.672   4.700  2.1572  0.7701  0.6620
  738MOL0     H99621   7.215   9.502   4.637 -1.1505  0.1698  0.8425
  738MOL0     H99622   7.381   9.591   4.469  0.1334  1.3807 -0.2480
  738MOL0     H99623   7.427   9.586   4.643  2.3241  1.0558 -0.7683
  738MOL0     H99624   7.380   9.833   4.651 -0.4884  0.1348 -0.3912
  738MOL0     H99625   7.313   9.832   4.491 -0.1571  1.5742  0.2309
  738MOL0     H99626   7.553   9.756   4.411 -0.8870 -1.1934 -0.4666
  738MOL0     H99627   7.598   9.764   4.585 -4.0291 -4.0008  1.3749
  738MOL0     H99628   7.589  10.177   4.494 -2.3037 -0.1922  0.0423
  738MOL0     H99629   6.999   9.635   4.742 -0.9100  1.0204  0.6141
  738MOL0     H99630   6.764   9.580   4.797 -1.1469 -3.6274 -0.1404
  739MOL0     O99631  10.291   8.439   7.617  0.2945  0.4077 -0.2782
  739MOL0     C99632  10.263   8.400   7.500  0.1260  0.4426 -0.8380
  739MOL0     O99633  10.147   8.428   7.432 -0.5098 -0.3056 -0.2975
  739MOL0     C99634  10.055   8.504   7.498 -0.3320 -0.7554 -0.6397
  739MOL0     C99635   9.919   8.462   7.487  0.3064 -0.4087  0.3558
  739MOL0     C99636   9.815   8.534   7.559 -0.1004  0.0741 -0.4449
  739MOL0     C99637   9.846   8.655   7.618  0.0888  0.3974 -0.5304
  739MOL0     O99638   9.738   8.719   7.673 -0.8063  0.3808 -0.0173
  739MOL0     C99639   9.761   8.842   7.735  0.8701 -0.4178 -0.5365
  739MOL0     C99640   9.628   8.905   7.770 -0.7478 -0.0374  0.0345
  739MOL0     C99641   9.540   8.837   7.876 -0.3803 -0.0439 -0.8070
  739MOL0     C99642   9.597   8.876   8.012  0.4961 -0.4752 -0.4249
  739MOL0     C99643   9.518   8.845   8.144 -1.0489  0.5435  0.6454
  739MOL0     C99644   9.370   8.873   8.142  0.0424  0.5618  0.4956
  739MOL0     C99645   9.332   9.008   8.078  0.1021 -0.9735  0.1449
  739MOL0     C99646   9.185   9.042   8.093  0.3261  0.3435 -0.1863
  739MOL0     N99647   9.098   8.982   7.989  0.2881  0.4943  0.1530
  739MOL0     C99648   9.079   8.846   7.955 -0.8939  0.1198 -0.2358
  739MOL0     C99649   8.968   8.841   7.872 -1.3393 -0.3161  0.1814
  739MOL0     C99650   8.903   8.727   7.811 -0.4740 -0.5687 -0.0224
  739MOL0     C99651   8.796   8.661   7.897  0.0968 -0.3085 -0.9224
  739MOL0     C99652   8.655   8.713   7.865  0.1375  0.9274 -0.3642
  739MOL0     C99653   8.613   8.846   7.924 -0.3319  0.9122  0.2806
  739MOL0     O99654   8.520   8.911   7.835  0.0590  0.3036  0.1973
  739MOL0     C99655   8.390   8.900   7.854  0.1185  0.7442  0.3045
  739MOL0     C99656   8.338   8.906   7.985  0.0131  1.0959  0.8582
  739MOL0     C99657   8.194   8.894   7.998 -0.5353  0.1601 -0.3302
  739MOL0     C99658   8.140   8.907   8.139 -0.3481 -0.0856  0.0695
  739MOL0     C99659   8.112   8.862   7.886 -0.1682  0.3534 -0.3783
  739MOL0     C99660   7.976   8.813   7.906 -0.6130  0.2016 -0.5211
  739MOL0     O99661   7.940   8.737   8.013 -0.3913  0.0749  0.0417
  739MOL0     C99662   7.814   8.738   8.053 -0.2089 -0.7314  0.8931
  739MOL0     C99663   7.717   8.683   7.973 -0.0039  0.0301 -0.6479
  739MOL0     C99664   7.581   8.682   8.001  0.0621  0.3693 -0.1291
  739MOL0     C99665   7.540   8.746   8.121 -0.4622  0.1590  0.0355
  739MOL0     O99666   7.413   8.752   8.174  0.2197 -0.2854  0.8387
  739MOL0     C99667   7.306   8.696   8.095  0.4175 -0.2488 -0.5880
  739MOL0     C99668   7.192   8.685   8.193 -0.2105  0.8420 -0.2452
  739MOL0     C99669   7.090   8.582   8.143 -0.0526  0.2799  0.4284
  739MOL0     C99670   6.972   8.586   8.241  1.1981 -0.5233 -0.1952
  739MOL0     C99671   6.862   8.483   8.201 -0.0947  0.6704  0.2492
  739MOL0     C99672   6.760   8.491   8.307 -0.2866 -0.7399 -0.8395
  739MOL0     C99673   6.644   8.394   8.282  0.8192  0.6638 -0.0240
  739MOL0     C99674   6.538   8.453   8.192 -0.2058 -0.8018 -0.2134
  739MOL0    Cl99675   6.394   8.361   8.195 -0.0366 -0.6973 -0.4885
  739MOL0     C99676   7.640   8.805   8.201  0.1857 -0.0113  0.3794
  739MOL0     C99677   7.776   8.795   8.176 -0.2935 -0.1114 -0.8030
  739MOL0     O99678   7.900   8.868   7.827  0.3144 -0.6525  0.0580
  739MOL0     C99679   8.161   8.851   7.758 -0.5941  0.0873  0.1206
  739MOL0     C99680   8.300   8.878   7.741 -0.6673  0.1240  0.1899
  739MOL0     N99681   8.947   8.970   7.837 -0.5512  0.1055 -0.1882
  739MOL0     N99682   9.008   9.054   7.915  0.0511  0.4589  0.0474
  739MOL0     C99683   9.976   8.706   7.612  0.4786  0.0247  0.7701
  739MOL0     C99684  10.083   8.632   7.561 -1.0898  0.0337  0.7273
  739MOL0     C99685  10.365   8.320   7.430  0.3228  0.4530 -0.5349
  739MOL0     C99686  10.351   8.297   7.293  0.1006 -0.0813  0.1274
  739MOL0     C99687  10.421   8.191   7.236  0.3642  0.5183 -0.2658
  739MOL0     C99688  10.508   8.113   7.318  0.4153 -0.1147  0.1950
  739MOL0     O99689  10.599   8.024   7.265  0.2248  0.0290 -0.2179
  739MOL0     C99690  10.733   8.078   7.250 -1.2761  0.5424  0.0410
  739MOL0     C99691  10.790   8.026   7.116 -0.1753  0.3028  0.7948
  739MOL0     C99692  10.930   8.073   7.077  0.4572 -0.2020 -0.0100
  739MOL0     C99693  10.992   7.985   6.961 -0.3427  0.3491  0.0927
  739MOL0     C99694  11.136   7.957   7.000 -0.0734  0.7953  0.3437
  739MOL0     C99695  11.252   7.925   7.038  0.8774  0.2204 -0.7151
  739MOL0     C99696  10.519   8.133   7.452  0.4499  0.3012 -0.0098
  739MOL0     C99697  10.451   8.235   7.513 -0.3408  0.3120 -0.0155
  739MOL0     H99698   9.901   8.368   7.435 -0.4849  1.4865 -3.1054
  739MOL0     H99699   9.714   8.494   7.555 -0.8625  1.8670  0.0772
  739MOL0     H99700   9.825   8.819   7.821 -0.2604 -2.6799 -0.2211
  739MOL0     H99701   9.814   8.916   7.675 -0.1322  1.0012  0.2696
  739MOL0     H99702   9.652   9.009   7.792  3.2575 -0.4945 -1.3505
  739MOL0     H99703   9.579   8.899   7.672  1.1026 -1.2164 -0.8821
  739MOL0     H99704   9.437   8.871   7.864 -0.2367  0.5725 -0.3363
  739MOL0     H99705   9.528   8.729   7.858  0.6124 -0.0263 -1.6618
  739MOL0     H99706   9.703   8.850   8.020  0.7805  1.1430  2.2547
  739MOL0     H99707   9.620   8.983   8.022  1.3649 -0.8043  1.4691
  739MOL0     H99708   9.523   8.739   8.170 -2.3418  0.4395  0.5624
  739MOL0     H99709   9.575   8.896   8.222 -0.7901  1.0275  0.1492
  739MOL0     H99710   9.335   8.802   8.067  0.9355 -0.7945  1.3292
  739MOL0     H99711   9.331   8.856   8.243  2.8120 -0.7653  1.4298
  739MOL0     H99712   9.393   9.084   8.128 -0.0205 -0.3984 -0.5689
  739MOL0     H99713   9.362   9.013   7.973  2.2100 -1.5560  0.6638
  739MOL0     H99714   9.172   9.150   8.082 -3.5044  0.0751  0.1455
  739MOL0     H99715   9.139   9.018   8.189 -0.1155  1.5998 -0.0689
  739MOL0     H99716   9.130   8.759   7.994 -0.1080 -1.8527 -4.9873
  739MOL0     H99717   8.869   8.749   7.710  0.0623  1.8519  0.2643
  739MOL0     H99718   8.980   8.652   7.790  1.0404  0.9288 -0.0980
  739MOL0     H99719   8.821   8.663   8.004  0.9534  1.4543 -1.1231
  739MOL0     H99720   8.797   8.554   7.871  2.1609  0.0963 -2.8070
  739MOL0     H99721   8.581   8.636   7.890 -1.2185  0.5441 -4.7471
  739MOL0     H99722   8.637   8.710   7.757 -5.0428  2.0840  0.2041
  739MOL0     H99723   8.693   8.921   7.934 -0.0331  0.9336 -1.8811
  739MOL0     H99724   8.576   8.826   8.025  1.4879  1.2041  1.0553
  739MOL0     H99725   8.400   8.927   8.072  2.4219  3.4810 -1.2444
  739MOL0     H99726   8.127   8.806   8.178  0.1944 -0.5719 -0.9940
  739MOL0     H99727   8.207   8.965   8.204 -1.5889  1.2307  0.2436
  739MOL0     H99728   8.045   8.962   8.139  0.5806  1.6042  0.3912
  739MOL0     H99729   7.738   8.625   7.884 -0.4248 -2.0121  0.4967
  739MOL0     H99730   7.510   8.638   7.931 -2.8166  3.9632  0.2393
  739MOL0     H99731   7.281   8.764   8.013 -0.5859 -1.7211 -1.5398
  739MOL0     H99732   7.337   8.597   8.059  0.4428 -1.1383  1.7179
  739MOL0     H99733   7.226   8.667   8.296  3.2635  0.4721 -1.3213
  739MOL0     H99734   7.143   8.782   8.191  1.3374  1.6722  0.4664
  739MOL0     H99735   7.122   8.478   8.155  0.4915  0.6233  2.4158
  739MOL0     H99736   7.049   8.615   8.047  0.9392  0.3694  0.0202
  739MOL0     H99737   7.013   8.570   8.341  1.1067  0.5334  0.0325
  739MOL0     H99738   6.929   8.687   8.234  4.0208  0.7535 -0.8410
  739MOL0     H99739   6.904   8.382   8.202  1.1518  1.1714  0.2651
  739MOL0     H99740   6.816   8.508   8.105 -3.3500 -3.4358  0.4422
  739MOL0     H99741   6.798   8.458   8.404 -0.1368  1.2028 -0.2007
  739MOL0     H99742   6.721   8.593   8.317  0.3771 -0.7356  2.9037
  739MOL0     H99743   6.607   8.359   8.379 -0.9376  0.7670 -0.6200
  739MOL0     H99744   6.678   8.310   8.221 -4.0542 -0.6651 -1.4141
  739MOL0     H99745   6.577   8.461   8.091 -1.6539 -1.5144 -0.8600
  739MOL0     H99746   6.515   8.552   8.234  1.0332 -1.3852  2.0183
  739MOL0     H99747   7.598   8.850   8.291  2.0042  2.7220 -0.0120
  739MOL0     H99748   7.846   8.833   8.249 -1.4063  1.9497 -0.7498
  739MOL0     H99749   8.088   8.836   7.679 -0.9784 -1.1458  0.6828
  739MOL0     H99750   8.347   8.880   7.643  0.0181 -1.8668  0.4177
  739MOL0     H99751  10.002   8.808   7.642  2.5993 -0.3610  0.4205
  739MOL0     H99752  10.185   8.669   7.549 -0.8778 -1.2754 -2.3875
  739MOL0     H99753  10.293   8.368   7.235  3.3330  1.5092 -1.4317
  739MOL0     H99754  10.428   8.170   7.130  1.2109  0.0099 -0.1110
  739MOL0     H99755  10.740   8.187   7.248  1.8009  0.4384 -1.8254
  739MOL0     H99756  10.795   8.048   7.335 -2.6463 -0.9492  0.5599
  739MOL0     H99757  10.710   8.051   7.046 -1.7709 -2.0434  1.6503
  739MOL0     H99758  10.796   7.916   7.122 -0.6724  0.3038  1.4689
  739MOL0     H99759  10.992   8.067   7.166 -1.5261 -4.2171  1.3369
  739MOL0     H99760  10.922   8.174   7.035  3.0066 -1.7371 -4.9411
  739MOL0     H99761  10.978   8.042   6.869  0.3202 -1.4413 -1.1760
  739MOL0     H99762  10.936   7.891   6.953  2.8728 -1.7549  0.6019
  739MOL0     H99763  11.351   7.891   7.060  0.8016  0.4872  0.0813
  739MOL0     H99764  10.586   8.074   7.514 -0.0059  0.2665  0.4663
  739MOL0     H99765  10.454   8.240   7.621 -1.0476 -1.9956  0.1575
  740MOL0     O99766   1.174   3.151   1.536  0.1183 -0.2047  0.9197
  740MOL0     C99767   1.202   3.073   1.446  0.5329 -0.6225 -0.0983
  740MOL0     O99768   1.112   2.990   1.384  0.3116 -0.6172 -0.3610
  740MOL0     C99769   0.984   2.984   1.433  0.3841 -0.5880 -0.3032
  740MOL0     C99770   0.952   2.944   1.564  0.4952 -0.1386 -0.2115
  740MOL0     C99771   0.814   2.929   1.616 -0.9033 -0.1431 -0.3743
  740MOL0     C99772   0.717   2.961   1.524  0.8084 -0.2294 -0.1109
  740MOL0     O99773   0.583   2.938   1.539 -0.5331  0.2204  0.1099
  740MOL0     C99774   0.545   2.822   1.609 -0.1949  0.9650 -0.1349
  740MOL0     C99775   0.403   2.777   1.576  0.1621 -0.1873  1.1546
  740MOL0     C99776   0.310   2.867   1.665  0.3534 -0.1417  0.7494
  740MOL0     C99777   0.162   2.857   1.618  0.6338 -0.8472  0.2471
  740MOL0     C99778   0.079   2.958   1.705  0.6531 -0.8500  0.6113
  740MOL0     C99779   0.071   3.092   1.635 -0.2096 -0.7124  0.2749
  740MOL0     C99780   0.020   3.194   1.723  1.0459 -0.0443 -0.7776
  740MOL0     C99781   0.013   3.334   1.657  0.3197 -0.5176  0.4943
  740MOL0     N99782  -0.103   3.329   1.558 -0.6865 -0.5982 -0.1034
  740MOL0     C99783  -0.108   3.347   1.421  0.4970  0.1982  0.0201
  740MOL0     C99784  -0.237   3.355   1.388  0.8704  0.0261  0.7483
  740MOL0     C99785  -0.278   3.361   1.242 -0.2540  0.0808 -0.0070
  740MOL0     C99786  -0.431   3.336   1.222  0.0382 -0.3168 -0.2401
  740MOL0     C99787  -0.475   3.333   1.078 -0.1818  0.1169  0.6296
  740MOL0     C99788  -0.580   3.227   1.040 -0.8545  0.0347 -0.5750
  740MOL0     O99789  -0.711   3.231   1.104 -0.3868 -0.7802 -0.3071
  740MOL0     C99790  -0.816   3.160   1.044  0.5519 -0.9949  0.4511
  740MOL0     C99791  -0.950   3.192   1.086 -0.1270  0.2981 -0.0485
  740MOL0     C99792  -1.061   3.115   1.053  1.0975  0.3838 -0.9630
  740MOL0     C99793  -1.198   3.159   1.114  0.1901  0.1231  0.0671
  740MOL0     C99794  -1.043   3.003   0.969 -0.0284  0.4065  0.3377
  740MOL0     C99795  -1.161   2.922   0.925  0.0003 -0.3578  0.5023
  740MOL0     O99796  -1.138   2.795   0.897 -0.1136  0.0636  0.1290
  740MOL0     C99797  -1.237   2.711   0.851 -0.0794  0.0487  0.1135
  740MOL0     C99798  -1.284   2.730   0.720  0.0136  0.2952 -0.1241
  740MOL0     C99799  -1.394   2.648   0.676 -0.3436 -0.5163 -0.7529
  740MOL0     C99800  -1.446   2.547   0.759  0.5245  0.0690  0.2764
  740MOL0     O99801  -1.549   2.468   0.728 -0.7434  0.0175  0.7749
  740MOL0     C99802  -1.681   2.520   0.742 -0.0175 -0.9902  0.3430
  740MOL0     C99803  -1.787   2.413   0.753 -1.1981  0.0182  0.1876
  740MOL0     C99804  -1.923   2.475   0.794 -0.2422 -0.3826 -0.1866
  740MOL0     C99805  -1.997   2.517   0.672 -0.8184  0.5652 -0.5399
  740MOL0     C99806  -2.137   2.584   0.706 -0.4398 -0.3320 -0.1413
  740MOL0     C99807  -2.208   2.625   0.578  0.2261  0.7695  0.1778
  740MOL0     C99808  -2.277   2.517   0.494 -0.8145 -0.4516 -0.0218
  740MOL0     C99809  -2.391   2.569   0.398  0.0059 -0.3146  0.0516
  740MOL0    Cl99810  -2.533   2.632   0.486  0.2032 -0.1108 -0.1043
  740MOL0     C99811  -1.387   2.525   0.887 -0.2625  0.4909 -0.8235
  740MOL0     C99812  -1.282   2.603   0.939  0.3382 -0.6797  0.6089
  740MOL0     O99813  -1.269   2.974   0.901  0.1261 -0.4162  0.0712
  740MOL0     C99814  -0.910   2.975   0.912  1.1676  0.2790  0.8032
  740MOL0     C99815  -0.802   3.049   0.955 -0.4388  1.0410  0.2810
  740MOL0     N99816  -0.305   3.335   1.501  0.1804 -0.2973  0.6686
  740MOL0     N99817  -0.227   3.319   1.602 -0.4110  0.4803  0.7160
  740MOL0     C99818   0.746   3.023   1.407 -0.0990 -0.0297  0.0215
  740MOL0     C99819   0.883   3.036   1.362 -0.6912  0.5626 -0.8110
  740MOL0     C99820   1.349   3.074   1.412 -0.0721  0.5396  0.2322
  740MOL0     C99821   1.444   3.144   1.487 -0.3937  0.6605 -0.6193
  740MOL0     C99822   1.577   3.145   1.446 -0.2326  0.0689  0.1695
  740MOL0     C99823   1.615   3.065   1.333 -0.7695 -0.7731 -0.4957
  740MOL0     O99824   1.740   3.060   1.290 -1.1641  0.6978 -0.1345
  740MOL0     C99825   1.847   3.122   1.356  0.5816 -0.1220 -0.3899
  740MOL0     C99826   1.970   3.125   1.273 -0.2596  0.1214  0.3527
  740MOL0     C99827   2.019   2.986   1.238 -0.4032  0.6168 -1.0412
  740MOL0     C99828   2.165   2.980   1.186  0.8727  0.1743  0.2462
  740MOL0     C99829   2.167   2.996   1.036 -0.5607 -0.7601  0.2958
  740MOL0     C99830   2.146   2.997   0.917  0.5385 -0.3826 -0.3288
  740MOL0     C99831   1.526   2.996   1.264  0.2161  0.1533 -0.1868
  740MOL0     C99832   1.390   3.000   1.297 -0.8607 -0.9280  0.1329
  740MOL0     H99833   1.045   2.910   1.608  0.8340 -0.4164 -1.1124
  740MOL0     H99834   0.794   2.900   1.719  3.9627 -2.1423  0.3200
  740MOL0     H99835   0.598   2.730   1.579 -2.4833 -1.5958  2.9389
  740MOL0     H99836   0.558   2.822   1.717 -2.0024  1.0880  0.1179
  740MOL0     H99837   0.384   2.797   1.470 -0.6359 -2.4916  0.8071
  740MOL0     H99838   0.384   2.676   1.612 -0.7912  0.3042  2.1175
  740MOL0     H99839   0.322   2.845   1.772  2.0850 -0.5487  0.4893
  740MOL0     H99840   0.344   2.970   1.655  1.9429 -0.5109  2.0267
  740MOL0     H99841   0.147   2.873   1.511 -0.5004  0.7052  0.6068
  740MOL0     H99842   0.118   2.761   1.648 -0.5417 -0.5686 -0.4975
  740MOL0     H99843  -0.017   2.922   1.741  0.3832  0.5274  1.2952
  740MOL0     H99844   0.143   2.981   1.791  1.8313 -1.3437 -0.1024
  740MOL0     H99845   0.163   3.122   1.584 -1.3322  0.4678 -1.1689
  740MOL0     H99846  -0.009   3.080   1.561 -1.8424 -0.2811  1.8851
  740MOL0     H99847  -0.081   3.161   1.747  0.2531  2.0155 -1.0496
  740MOL0     H99848   0.074   3.201   1.818  0.9709 -0.0481 -0.7346
  740MOL0     H99849   0.105   3.359   1.604 -0.9361 -0.3665 -1.7577
  740MOL0     H99850  -0.008   3.407   1.736 -2.3401  0.4648 -1.0021
  740MOL0     H99851  -0.019   3.348   1.358 -0.8392  1.1618 -1.9491
  740MOL0     H99852  -0.242   3.455   1.199  0.7775 -0.6499 -0.8107
  740MOL0     H99853  -0.225   3.283   1.188  2.3875  1.7090  0.0694
  740MOL0     H99854  -0.493   3.415   1.266 -1.5557 -1.4104 -0.4216
  740MOL0     H99855  -0.444   3.239   1.270  2.0493  0.1395  1.3483
  740MOL0     H99856  -0.389   3.324   1.012  2.0770  1.4525  3.1755
  740MOL0     H99857  -0.524   3.426   1.048 -1.4311 -0.9990 -0.9474
  740MOL0     H99858  -0.543   3.129   1.071 -0.0752  0.1671 -1.0683
  740MOL0     H99859  -0.591   3.231   0.932 -1.6223  4.4778 -0.5333
  740MOL0     H99860  -0.962   3.272   1.159 -3.6864 -2.2659  2.5222
  740MOL0     H99861  -1.272   3.079   1.122  1.1907 -1.1188 -2.1942
  740MOL0     H99862  -1.186   3.203   1.214 -1.7283 -0.2431  0.5011
  740MOL0     H99863  -1.233   3.242   1.051 -0.3545  1.4747  2.0521
  740MOL0     H99864  -1.249   2.816   0.664 -1.0089 -1.3383 -3.5942
  740MOL0     H99865  -1.438   2.676   0.581  1.5788  4.0479 -0.5562
  740MOL0     H99866  -1.674   2.579   0.835 -0.0580 -2.6522  1.4376
  740MOL0     H99867  -1.710   2.590   0.663  1.2179  0.4166  1.0767
  740MOL0     H99868  -1.784   2.361   0.656 -0.9250  2.8338 -1.4295
  740MOL0     H99869  -1.750   2.346   0.831  0.8182 -2.1250 -2.3909
  740MOL0     H99870  -1.893   2.556   0.861  1.8445 -0.5473 -0.8302
  740MOL0     H99871  -1.971   2.400   0.858  0.3002  0.4730  1.2826
  740MOL0     H99872  -1.938   2.584   0.610  0.7866  2.3607  2.6968
  740MOL0     H99873  -1.999   2.422   0.617 -0.4701  0.3454 -0.1842
  740MOL0     H99874  -2.118   2.675   0.764 -1.8905  0.4420 -0.8399
  740MOL0     H99875  -2.201   2.526   0.772 -0.4642 -1.5488 -1.1751
  740MOL0     H99876  -2.286   2.690   0.619 -2.0540 -1.6455 -0.0313
  740MOL0     H99877  -2.140   2.682   0.514 -0.0160 -1.6266 -2.4239
  740MOL0     H99878  -2.320   2.441   0.560  0.7329 -1.8530 -0.5589
  740MOL0     H99879  -2.200   2.455   0.446  1.0591 -0.1687  2.4220
  740MOL0     H99880  -2.442   2.487   0.347 -2.1067 -0.1126  1.6425
  740MOL0     H99881  -2.364   2.631   0.312 -3.0834  2.2491  0.6894
  740MOL0     H99882  -1.401   2.430   0.938  1.0508  0.7003 -0.0187
  740MOL0     H99883  -1.241   2.570   1.034 -4.1894 -1.5826  2.5588
  740MOL0     H99884  -0.895   2.892   0.844  0.8011 -1.2937  2.5456
  740MOL0     H99885  -0.704   3.020   0.918 -0.3274  1.0473  0.5635
  740MOL0     H99886   0.668   3.045   1.335 -1.8290 -1.2136  1.4442
  740MOL0     H99887   0.915   3.075   1.266  0.5360  3.2436  0.6005
  740MOL0     H99888   1.432   3.192   1.583  0.8441 -1.8239  0.8901
  740MOL0     H99889   1.647   3.211   1.498 -0.4116  1.7068 -1.5166
  740MOL0     H99890   1.833   3.226   1.386 -2.4931 -0.3021 -0.8186
  740MOL0     H99891   1.866   3.060   1.445 -1.0018 -0.6842 -0.4088
  740MOL0     H99892   2.048   3.186   1.320 -0.4029  0.6836 -0.1219
  740MOL0     H99893   1.942   3.171   1.177  0.1165  3.7065  1.7963
  740MOL0     H99894   1.948   2.942   1.168 -1.8920 -1.9608  1.8573
  740MOL0     H99895   2.005   2.922   1.325 -1.4614  0.5236 -1.2665
  740MOL0     H99896   2.203   2.883   1.218  1.8670  0.7162  0.7638
  740MOL0     H99897   2.225   3.050   1.245  0.5692 -0.8032  1.7671
  740MOL0     H99898   2.122   3.008   0.813  0.3482 -2.1499 -0.5017
  740MOL0     H99899   1.543   2.952   1.166 -1.8229 -0.8377 -0.1293
  740MOL0     H99900   1.315   2.945   1.242 -1.1863  0.4072 -0.7945
  741MOL0     O99901   9.799   9.970   3.543 -0.2509 -0.0539  0.4654
  741MOL0     C99902   9.786  10.000   3.423  0.4427  0.6368  0.7311
  741MOL0     O99903   9.667  10.049   3.373 -0.0377 -0.4152  0.0958
  741MOL0     C99904   9.558  10.072   3.455  0.2617  0.1864  0.7140
  741MOL0     C99905   9.528  10.207   3.488  0.1333 -0.3917 -0.9791
  741MOL0     C99906   9.418  10.247   3.563 -0.3478 -0.5372  0.4671
  741MOL0     C99907   9.329  10.152   3.613 -0.0289  0.7949 -0.6869
  741MOL0     O99908   9.225  10.164   3.702 -0.1200  0.4073  0.1644
  741MOL0     C99909   9.244  10.278   3.791  0.0010  0.0817  0.4034
  741MOL0     C99910   9.125  10.292   3.888  0.1576 -0.8382 -0.0768
  741MOL0     C99911   8.996  10.325   3.810  0.8206  0.1293 -0.8830
  741MOL0     C99912   8.884  10.377   3.907 -0.7467  0.6526 -0.4596
  741MOL0     C99913   8.771  10.465   3.835 -0.5354 -0.2323 -0.9863
  741MOL0     C99914   8.637  10.436   3.912 -0.0721 -0.6003  0.4096
  741MOL0     C99915   8.530  10.524   3.857  0.5336  0.1993  0.2678
  741MOL0     C99916   8.420  10.521   3.966 -0.0432  0.1618  0.2230
  741MOL0     N99917   8.310  10.624   3.937 -0.2901  0.2364 -0.6554
  741MOL0     C99918   8.237  10.637   3.825 -0.1841 -0.3144  0.7607
  741MOL0     C99919   8.142  10.723   3.850  0.5549 -0.9161 -0.0921
  741MOL0     C99920   8.040  10.770   3.749  0.9139 -0.0320 -0.0535
  741MOL0     C99921   7.969  10.652   3.675  1.0923 -0.2473  0.1978
  741MOL0     C99922   7.894  10.717   3.557 -0.7206  0.2250 -0.0682
  741MOL0     C99923   7.814  10.613   3.475  0.3955  0.0245  0.1940
  741MOL0     O99924   7.722  10.531   3.552  1.4370 -0.0242  0.0909
  741MOL0     C99925   7.597  10.512   3.492 -0.1211 -0.1375 -0.3972
  741MOL0     C99926   7.515  10.625   3.468 -0.1363  0.2063 -0.6321
  741MOL0     C99927   7.375  10.608   3.439 -0.0864  0.0899 -0.6194
  741MOL0     C99928   7.298  10.733   3.430 -0.4171 -0.2860 -0.0542
  741MOL0     C99929   7.319  10.479   3.418 -0.1043  0.4393  0.3927
  741MOL0     C99930   7.177  10.452   3.382 -0.2883 -0.7475 -0.2165
  741MOL0     O99931   7.083  10.548   3.406 -0.0254  0.0643  0.1335
  741MOL0     C99932   6.952  10.523   3.431 -0.2004 -0.5035 -0.5170
  741MOL0     C99933   6.867  10.451   3.341 -0.3151 -0.4903  0.4907
  741MOL0     C99934   6.730  10.441   3.356 -0.1329  0.0052 -0.2478
  741MOL0     C99935   6.665  10.504   3.464 -0.2498  0.2560  0.5424
  741MOL0     O99936   6.527  10.496   3.470 -0.2952 -0.7912 -0.7628
  741MOL0     C99937   6.458  10.594   3.395  0.3150 -0.1674  0.6655
  741MOL0     C99938   6.307  10.585   3.420  0.3985  0.2214 -0.6255
  741MOL0     C99939   6.268  10.625   3.562  0.1112  0.3860 -0.8326
  741MOL0     C99940   6.120  10.655   3.557 -0.0461 -0.8450 -0.2333
  741MOL0     C99941   6.056  10.648   3.699  0.2522 -0.4921 -1.0160
  741MOL0     C99942   5.907  10.665   3.682 -0.3432  0.2449  0.4638
  741MOL0     C99943   5.832  10.640   3.811 -0.1420  0.0295  0.3556
  741MOL0     C99944   5.678  10.661   3.790 -0.2272 -0.0206 -0.5242
  741MOL0    Cl99945   5.630  10.547   3.670  0.5821 -0.1904  0.1897
  741MOL0     C99946   6.748  10.570   3.554  0.5573  0.2111 -0.7521
  741MOL0     C99947   6.890  10.579   3.546  0.0530  0.2047  0.1783
  741MOL0     O99948   7.150  10.344   3.321  0.6282 -0.5423 -0.1417
  741MOL0     C99949   7.411  10.373   3.436 -0.2768  0.3140 -0.3281
  741MOL0     C99950   7.543  10.391   3.472  0.0061 -0.1600  0.5718
  741MOL0     N99951   8.164  10.773   3.984 -0.5856  0.2122  0.1416
  741MOL0     N99952   8.258  10.704   4.031  0.1503  0.3472  0.3485
  741MOL0     C99953   9.364  10.016   3.578  0.0902 -0.6735 -0.2285
  741MOL0     C99954   9.475   9.973   3.498  0.1258  0.2434 -0.1828
  741MOL0     C99955   9.895   9.989   3.327 -1.5194  0.1464 -0.2523
  741MOL0     C99956   9.993   9.893   3.340 -0.0392 -0.1563 -0.0335
  741MOL0     C99957  10.084   9.871   3.240 -0.1363 -0.4067 -0.1448
  741MOL0     C99958  10.100   9.968   3.144  0.2184  0.2273 -0.4035
  741MOL0     O99959  10.198   9.955   3.047  0.4387 -0.5721 -0.1499
  741MOL0     C99960  10.336   9.951   3.098 -0.3106  0.0959  0.2449
  741MOL0     C99961  10.379  10.084   3.164  0.5196 -0.0189 -0.3418
  741MOL0     C99962  10.520  10.133   3.132  0.0533 -0.4401 -0.3644
  741MOL0     C99963  10.625  10.023   3.146  0.2296  0.4379 -0.2787
  741MOL0     C99964  10.760  10.070   3.118 -0.0376 -1.9424 -0.2203
  741MOL0     C99965  10.874  10.110   3.109 -0.3183  0.9296  0.3125
  741MOL0     C99966  10.009  10.073   3.132 -0.0017 -0.6019 -0.2276
  741MOL0     C99967   9.899  10.086   3.221  0.7603 -0.5061 -0.0275
  741MOL0     H99968   9.599  10.284   3.460 -2.0609  2.0059 -0.3853
  741MOL0     H99969   9.396  10.353   3.571 -0.5909 -0.4374 -1.1127
  741MOL0     H99970   9.334  10.264   3.851  2.1022 -3.9596 -3.2193
  741MOL0     H99971   9.256  10.371   3.735 -2.4027  0.0125 -0.3403
  741MOL0     H99972   9.116  10.204   3.953  3.1319 -0.1528  1.4258
  741MOL0     H99973   9.146  10.373   3.958 -2.4203  0.4229 -0.6367
  741MOL0     H99974   9.005  10.411   3.743 -0.0789  1.8178  1.0328
  741MOL0     H99975   8.955  10.239   3.757 -0.9278  0.2026  0.2521
  741MOL0     H99976   8.840  10.303   3.975 -2.1871  2.9610  1.2463
  741MOL0     H99977   8.941  10.441   3.976  0.0490  1.6184 -1.9720
  741MOL0     H99978   8.802  10.570   3.827 -1.8947  0.1598 -1.3783
  741MOL0     H99979   8.757  10.422   3.735 -2.5628 -1.2034 -0.3357
  741MOL0     H99980   8.606  10.331   3.903  1.1072 -0.8577 -1.0424
  741MOL0     H99981   8.649  10.458   4.018  1.9847  2.2846 -0.3038
  741MOL0     H99982   8.573  10.624   3.849  1.6204 -0.3234 -0.6775
  741MOL0     H99983   8.488  10.486   3.764  2.0048 -1.6201  0.2945
  741MOL0     H99984   8.458  10.530   4.068  0.5917 -0.7566  0.0817
  741MOL0     H99985   8.360  10.430   3.954 -0.5704  0.6649 -1.1628
  741MOL0     H99986   8.263  10.607   3.723  2.7950  2.7157  0.4447
  741MOL0     H99987   7.957  10.813   3.807  1.0288 -0.2167  0.2497
  741MOL0     H99988   8.075  10.841   3.673 -0.1095 -0.1723 -0.6856
  741MOL0     H99989   7.890  10.605   3.734  0.2858  2.1151  1.1215
  741MOL0     H99990   8.028  10.563   3.649 -1.4172 -2.2037  0.8667
  741MOL0     H99991   7.960  10.763   3.482 -0.0265 -2.4273 -1.1844
  741MOL0     H99992   7.827  10.794   3.598  1.6188  2.2541  0.2237
  741MOL0     H99993   7.880  10.534   3.437 -0.9182 -0.6265 -0.8364
  741MOL0     H99994   7.767  10.667   3.392 -0.3165 -0.2292  0.4263
  741MOL0     H99995   7.556  10.724   3.484  3.7054 -1.1136 -1.2174
  741MOL0     H99996   7.243  10.737   3.336  2.7321 -0.2735 -2.0723
  741MOL0     H99997   7.222  10.748   3.507 -1.5165  2.0743 -1.5079
  741MOL0     H99998   7.370  10.813   3.450 -1.5118  1.1167 -1.5346
  741MOL0     H99999   6.906  10.406   3.251 -0.7544  1.5083 -0.7761
  741MOL0     H    0   6.670  10.389   3.282  0.4048  3.6302 -3.5887
  741MOL0     H    1   6.493  10.695   3.417  2.0651 -1.0021  1.9087
  741MOL0     H    2   6.475  10.573   3.289  1.3838 -0.2378  0.8390
  741MOL0     H    3   6.257  10.651   3.348 -2.2426  1.1228  1.8802
  741MOL0     H    4   6.269  10.483   3.407 -3.1719  1.6771 -3.2410
  741MOL0     H    5   6.327  10.711   3.596  2.4567 -2.1416  2.1612
  741MOL0     H    6   6.297  10.546   3.632 -0.5710  1.2543  0.4684
  741MOL0     H    7   6.101  10.753   3.512  3.3206 -0.1165 -0.3261
  741MOL0     H    8   6.068  10.586   3.489 -0.7036 -0.4628 -0.1294
  741MOL0     H    9   6.105  10.720   3.765 -0.2529 -1.0784  0.0227
  741MOL0     H   10   6.077  10.561   3.763 -1.5136 -1.1901 -1.3161
  741MOL0     H   11   5.894  10.769   3.650  2.2224  0.9957  1.5629
  741MOL0     H   12   5.870  10.600   3.602 -0.6646  1.8254 -0.7341
  741MOL0     H   13   5.861  10.705   3.894  0.9285 -0.7875  0.6502
  741MOL0     H   14   5.844  10.541   3.855 -1.4723  0.6161  2.1230
  741MOL0     H   15   5.660  10.765   3.759 -0.0079  0.7661  1.7657
  741MOL0     H   16   5.616  10.639   3.877  1.5436 -2.8081  0.1395
  741MOL0     H   17   6.695  10.615   3.638 -1.5674  0.3430 -2.0908
  741MOL0     H   18   6.954  10.633   3.614  0.9818  0.5935 -0.9842
  741MOL0     H   19   7.391  10.268   3.417  0.7983 -0.2285  1.2541
  741MOL0     H   20   7.609  10.305   3.473  0.6209  0.1217 -2.8364
  741MOL0     H   21   9.287   9.945   3.606 -0.0814 -0.7430 -0.8675
  741MOL0     H   22   9.486   9.866   3.480 -0.2729  0.5739 -2.7587
  741MOL0     H   23   9.990   9.825   3.425  2.4361 -0.3936 -0.0836
  741MOL0     H   24  10.149   9.785   3.249 -1.9799 -1.9345 -0.6166
  741MOL0     H   25  10.342   9.881   3.182  0.9554  0.4016  0.4296
  741MOL0     H   26  10.400   9.917   3.017  0.3604 -3.3114  1.9957
  741MOL0     H   27  10.372  10.070   3.272 -0.8503  1.0749 -0.2694
  741MOL0     H   28  10.315  10.165   3.130  0.3557 -0.3658 -0.8662
  741MOL0     H   29  10.544  10.213   3.202  1.2555  1.0474 -2.3403
  741MOL0     H   30  10.531  10.163   3.027  2.2113 -1.6110 -0.5398
  741MOL0     H   31  10.610   9.949   3.066  1.2914 -1.0740  0.8685
  741MOL0     H   32  10.625   9.967   3.240  1.0868 -4.3655 -2.7613
  741MOL0     H   33  10.972  10.151   3.113 -0.4967  1.2664  2.4764
  741MOL0     H   34  10.012  10.148   3.054 -3.6380  1.6716  1.5637
  741MOL0     H   35   9.835  10.173   3.206  2.1781  1.2176  2.9083
  742MOL0     O   36   3.036   9.777   1.506  0.7495  0.4953  0.2086
  742MOL0     C   37   2.963   9.745   1.411  0.4645 -0.0234  0.5374
  742MOL0     O   38   2.996   9.757   1.281  0.9121 -0.3661  0.3341
  742MOL0     C   39   3.130   9.755   1.249 -0.3482 -0.0072 -0.4641
  742MOL0     C   40   3.200   9.640   1.213  0.7213 -0.0078  0.6333
  742MOL0     C   41   3.335   9.650   1.178  0.2562  0.0322 -0.1399
  742MOL0     C   42   3.416   9.768   1.185  0.3282  0.1123  0.4906
  742MOL0     O   43   3.535   9.767   1.122 -0.7247  0.4734 -0.2144
  742MOL0     C   44   3.640   9.823   1.200  0.0032 -0.1220 -0.1508
  742MOL0     C   45   3.773   9.793   1.140 -0.2532  0.8545 -0.8809
  742MOL0     C   46   3.794   9.642   1.143 -0.1199 -0.1076  0.0639
  742MOL0     C   47   3.811   9.589   1.290 -0.1336  0.8578 -0.0149
  742MOL0     C   48   3.834   9.437   1.290  0.6222  0.0353 -0.3271
  742MOL0     C   49   3.979   9.396   1.264  0.0509  0.1048  0.4946
  742MOL0     C   50   4.005   9.250   1.301  0.0081 -0.0679  0.1788
  742MOL0     C   51   3.951   9.152   1.201 -0.4632  0.6119  0.0782
  742MOL0     N   52   4.010   9.021   1.221 -0.4043  0.1231 -0.4001
  742MOL0     C   53   3.940   8.919   1.279  0.2779 -0.1581 -0.2680
  742MOL0     C   54   4.012   8.809   1.240 -0.6522 -0.1788  0.4117
  742MOL0     C   55   3.979   8.661   1.257  0.6886  0.7691 -0.0887
  742MOL0     C   56   3.858   8.620   1.183 -0.1365 -0.2340  0.5387
  742MOL0     C   57   3.725   8.602   1.258 -0.4981 -0.2631  0.9993
  742MOL0     C   58   3.732   8.467   1.340 -1.0826 -0.5862  0.0578
  742MOL0     O   59   3.643   8.484   1.446 -0.1428 -0.1961  0.1716
  742MOL0     C   60   3.505   8.451   1.430  0.1179  0.7845 -0.5071
  742MOL0     C   61   3.442   8.396   1.316 -0.0417  0.5186  0.5452
  742MOL0     C   62   3.303   8.392   1.313 -0.6290 -0.2592 -0.1208
  742MOL0     C   63   3.245   8.337   1.188  0.0568  0.6160  0.3120
  742MOL0     C   64   3.223   8.438   1.416 -0.1176 -0.4490 -0.0955
  742MOL0     C   65   3.070   8.465   1.404  0.2777 -0.3084  0.1119
  742MOL0     O   66   3.012   8.540   1.507 -0.0250 -0.5200  0.3448
  742MOL0     C   67   2.878   8.535   1.516 -0.2051  0.6445 -0.4736
  742MOL0     C   68   2.806   8.425   1.565  0.2201 -0.1346 -0.4996
  742MOL0     C   69   2.664   8.440   1.578  0.5585  0.8248  0.4330
  742MOL0     C   70   2.603   8.561   1.538  0.3557  0.0680  0.2995
  742MOL0     O   71   2.465   8.566   1.547  0.4414 -0.3312 -0.2966
  742MOL0     C   72   2.382   8.682   1.562  0.2806 -0.3248  0.1159
  742MOL0     C   73   2.250   8.645   1.634 -0.9533  0.4238  0.1645
  742MOL0     C   74   2.178   8.525   1.577  0.9100  0.3348  0.8686
  742MOL0     C   75   2.027   8.531   1.576 -0.2782  0.3923  0.1397
  742MOL0     C   76   1.969   8.577   1.711  0.1940  0.1152 -0.1678
  742MOL0     C   77   1.819   8.535   1.718  0.0177 -0.3755  0.4744
  742MOL0     C   78   1.755   8.551   1.860  0.3293  0.2223  0.4288
  742MOL0     C   79   1.604   8.518   1.863 -0.0695  0.2393 -0.0492
  742MOL0    Cl   80   1.521   8.641   1.784 -0.2432  0.1658  0.4533
  742MOL0     C   81   2.673   8.667   1.482  1.0932 -0.4867  0.1560
  742MOL0     C   82   2.812   8.654   1.476 -0.1440 -0.4151 -0.2104
  742MOL0     O   83   3.008   8.431   1.304 -0.2062 -1.2093  1.2355
  742MOL0     C   84   3.291   8.467   1.537  0.7255 -0.0362  0.2140
  742MOL0     C   85   3.431   8.474   1.540  0.4836 -1.1888  0.2472
  742MOL0     N   86   4.132   8.854   1.187  0.5187 -0.6317  0.4117
  742MOL0     N   87   4.125   8.980   1.173 -0.1717  0.2888  0.0010
  742MOL0     C   88   3.340   9.880   1.223 -0.7027 -0.3381  0.3622
  742MOL0     C   89   3.206   9.878   1.255  0.2412 -0.1434 -1.1273
  742MOL0     C   90   2.827   9.695   1.435 -0.1886  0.3302 -1.2599
  742MOL0     C   91   2.724   9.707   1.337  0.2121  0.4536  0.6743
  742MOL0     C   92   2.596   9.686   1.380 -0.6966  0.4169 -0.7979
  742MOL0     C   93   2.570   9.627   1.505  0.4767  0.6272  0.1493
  742MOL0     O   94   2.438   9.607   1.540  0.4821  0.2831 -0.1137
  742MOL0     C   95   2.341   9.591   1.428  0.1318 -0.6853  0.0963
  742MOL0     C   96   2.216   9.516   1.486  0.3900  1.0602  0.2279
  742MOL0     C   97   2.091   9.530   1.398  0.0413  1.0034  0.2412
  742MOL0     C   98   1.970   9.444   1.446 -0.1828 -0.0126  0.1934
  742MOL0     C   99   1.836   9.486   1.399  0.2534  0.1670 -0.0311
  742MOL0     C  100   1.734   9.527   1.351 -0.1747  0.2390  0.0099
  742MOL0     C  101   2.666   9.627   1.603  0.3338 -0.3425  0.3801
  742MOL0     C  102   2.790   9.664   1.564  0.5157  0.2491 -0.4645
  742MOL0     H  103   3.147   9.546   1.200  0.9083 -0.6920  3.8198
  742MOL0     H  104   3.382   9.561   1.139 -2.6520 -0.4717 -2.8870
  742MOL0     H  105   3.635   9.932   1.190  2.2273  0.3744  2.7556
  742MOL0     H  106   3.634   9.803   1.308  1.2870  2.5390  0.4967
  742MOL0     H  107   3.781   9.827   1.036  1.9533 -0.7424 -1.3129
  742MOL0     H  108   3.849   9.853   1.190  0.3329 -1.2827  0.9501
  742MOL0     H  109   3.717   9.588   1.088  1.9001 -0.9533 -2.1057
  742MOL0     H  110   3.890   9.621   1.095  1.8133 -0.9320  3.9120
  742MOL0     H  111   3.885   9.643   1.349 -0.7886 -0.2284  1.8758
  742MOL0     H  112   3.720   9.610   1.347 -1.3453  0.1782 -1.6013
  742MOL0     H  113   3.793   9.397   1.383 -0.1042 -0.6081 -0.8983
  742MOL0     H  114   3.775   9.399   1.206 -0.4479 -1.0161  0.8568
  742MOL0     H  115   3.997   9.417   1.158  2.4953  1.1213  1.0555
  742MOL0     H  116   4.053   9.447   1.326 -0.3382  0.4299  0.6937
  742MOL0     H  117   4.114   9.242   1.301  0.0960 -0.3771 -3.0086
  742MOL0     H  118   3.970   9.224   1.401 -1.6982 -4.2471 -1.2556
  742MOL0     H  119   3.969   9.190   1.100 -2.1902  1.4021  0.0380
  742MOL0     H  120   3.845   9.129   1.216 -0.6866 -0.9856 -2.9528
  742MOL0     H  121   3.842   8.908   1.325 -0.0910 -0.2290 -1.0650
  742MOL0     H  122   4.067   8.612   1.215  0.2333 -0.2169  0.0842
  742MOL0     H  123   3.986   8.628   1.361  1.7499 -0.6994 -0.6008
  742MOL0     H  124   3.883   8.533   1.122 -1.0199  1.7536 -2.9161
  742MOL0     H  125   3.838   8.702   1.114 -0.9613 -1.2521 -0.4765
  742MOL0     H  126   3.644   8.595   1.184  1.7973  0.5931 -1.7872
  742MOL0     H  127   3.711   8.694   1.315  1.7093 -0.3695  1.8115
  742MOL0     H  128   3.837   8.453   1.370 -1.0921 -1.5616 -0.3266
  742MOL0     H  129   3.709   8.386   1.270  1.0410 -1.1538 -0.0641
  742MOL0     H  130   3.510   8.360   1.240 -3.8001  0.0409 -2.9495
  742MOL0     H  131   3.169   8.262   1.213  3.2864 -2.3570  2.1433
  742MOL0     H  132   3.198   8.421   1.135 -0.5692  0.5817  0.7959
  742MOL0     H  133   3.320   8.295   1.120 -0.2271  0.0246  0.3543
  742MOL0     H  134   2.852   8.329   1.588  2.4872  1.6588  3.7808
  742MOL0     H  135   2.603   8.352   1.595 -0.3302  1.1323 -1.0028
  742MOL0     H  136   2.424   8.762   1.623 -1.7357 -1.8918  3.9136
  742MOL0     H  137   2.363   8.732   1.467 -2.0169 -0.9382  0.1985
  742MOL0     H  138   2.265   8.624   1.741 -0.7986  2.0514  0.4887
  742MOL0     H  139   2.180   8.728   1.625 -2.3869 -0.7565  0.0901
  742MOL0     H  140   2.226   8.442   1.631  3.3087  0.2811 -1.1700
  742MOL0     H  141   2.214   8.504   1.476  1.0022 -1.0464  1.1679
  742MOL0     H  142   2.001   8.606   1.502 -0.9694 -0.4209 -0.4606
  742MOL0     H  143   1.989   8.433   1.545  2.2859 -1.7199  2.9328
  742MOL0     H  144   1.982   8.686   1.711  2.0462 -0.0789  0.3611
  742MOL0     H  145   2.027   8.541   1.796  1.3123 -1.7169 -1.6395
  742MOL0     H  146   1.768   8.591   1.639  0.3560 -1.6174 -0.6369
  742MOL0     H  147   1.822   8.431   1.685 -1.5182 -0.3803  0.2770
  742MOL0     H  148   1.768   8.656   1.887  2.7299  0.0605  0.0741
  742MOL0     H  149   1.804   8.484   1.931 -1.2326  0.3948  1.7335
  742MOL0     H  150   1.567   8.497   1.964 -2.7461  0.9456 -0.8029
  742MOL0     H  151   1.597   8.421   1.813  1.1937  0.9447 -1.6973
  742MOL0     H  152   2.614   8.757   1.471 -0.5506 -0.8566  4.1539
  742MOL0     H  153   2.873   8.736   1.439 -0.4830 -0.3843 -0.7101
  742MOL0     H  154   3.228   8.504   1.618 -2.4364  0.3885 -2.2255
  742MOL0     H  155   3.482   8.519   1.625 -0.7543  2.8555 -0.9438
  742MOL0     H  156   3.404   9.967   1.230 -0.7826 -0.0741 -1.6862
  742MOL0     H  157   3.147   9.963   1.288 -0.8583 -0.5665 -1.9361
  742MOL0     H  158   2.739   9.739   1.234 -0.4683  2.6372  1.1993
  742MOL0     H  159   2.525   9.699   1.298 -2.0131 -0.1256  0.2333
  742MOL0     H  160   2.321   9.692   1.393 -0.0917 -0.2955  1.3138
  742MOL0     H  161   2.385   9.544   1.339 -1.5109 -0.3964 -0.9023
  742MOL0     H  162   2.203   9.550   1.589  2.4988  0.3966  0.7820
  742MOL0     H  163   2.235   9.410   1.501  0.3589  1.0192 -0.0160
  742MOL0     H  164   2.116   9.515   1.293  1.3422  0.3492  0.6220
  742MOL0     H  165   2.060   9.633   1.417  1.0618  1.8009 -2.1122
  742MOL0     H  166   1.960   9.443   1.555 -1.8778 -3.1279  0.1101
  742MOL0     H  167   1.980   9.340   1.414  0.8727  0.4694 -1.1330
  742MOL0     H  168   1.635   9.557   1.325 -0.3351  0.0492  0.3932
  742MOL0     H  169   2.640   9.602   1.705 -2.5939  2.4967  0.4879
  742MOL0     H  170   2.863   9.666   1.643  0.1950  1.1622 -0.1842
  743MOL0     O  171   5.978   6.522   5.122  0.5017  0.1755 -0.2426
  743MOL0     C  172   5.992   6.538   5.244  0.5107 -0.2979  0.8360
  743MOL0     O  173   5.913   6.472   5.331  0.1836  0.9613  0.6306
  743MOL0     C  174   5.790   6.422   5.295  0.2838 -0.1295 -0.5614
  743MOL0     C  175   5.709   6.456   5.187 -0.1853 -0.1923  0.2000
  743MOL0     C  176   5.585   6.405   5.164  0.1271 -0.3159 -0.2175
  743MOL0     C  177   5.546   6.290   5.239  0.2602  0.2510 -0.5736
  743MOL0     O  178   5.420   6.248   5.202 -0.1916 -0.1869 -0.7034
  743MOL0     C  179   5.383   6.122   5.269 -0.5899 -0.1388  0.6056
  743MOL0     C  180   5.254   6.064   5.209 -0.9845 -0.0850  0.1902
  743MOL0     C  181   5.142   6.161   5.188  0.8389  0.2780  0.1386
  743MOL0     C  182   5.007   6.092   5.168  0.2259  0.2561 -0.3324
  743MOL0     C  183   4.890   6.189   5.163  0.7624  0.2365 -0.8151
  743MOL0     C  184   4.761   6.113   5.200  0.2883 -0.0883 -0.4340
  743MOL0     C  185   4.626   6.192   5.174  0.5644 -0.1942 -0.5944
  743MOL0     C  186   4.512   6.089   5.196 -0.2502  0.2784  0.7985
  743MOL0     N  187   4.370   6.138   5.212 -0.2377 -0.0764  0.5758
  743MOL0     C  188   4.316   6.166   5.337  0.2418 -1.2909  0.1164
  743MOL0     C  189   4.186   6.163   5.318  0.1579 -0.7984 -0.0833
  743MOL0     C  190   4.082   6.161   5.424  0.6473 -0.1282  0.0852
  743MOL0     C  191   4.076   6.303   5.491  0.0881  0.0538  0.5145
  743MOL0     C  192   4.011   6.306   5.640  0.1786 -0.0992 -0.0447
  743MOL0     C  193   4.094   6.250   5.754  0.1733  1.8051 -0.3751
  743MOL0     O  194   4.206   6.329   5.767  0.1297  0.5164 -0.0343
  743MOL0     C  195   4.304   6.292   5.852 -0.5644 -0.5089 -0.1455
  743MOL0     C  196   4.332   6.160   5.889 -0.6335  0.6072 -0.0438
  743MOL0     C  197   4.443   6.121   5.975 -0.2432 -0.6253 -0.7308
  743MOL0     C  198   4.467   5.969   6.001 -0.4674 -0.1451  0.7742
  743MOL0     C  199   4.515   6.229   6.043  0.6620 -0.6825  0.2426
  743MOL0     C  200   4.628   6.208   6.138  0.3122 -0.3998 -0.2934
  743MOL0     O  201   4.703   6.314   6.157 -0.5627 -0.0573 -0.8649
  743MOL0     C  202   4.832   6.310   6.207 -0.4290  1.1065 -0.1584
  743MOL0     C  203   4.914   6.189   6.221  0.5050 -0.1266  0.4802
  743MOL0     C  204   5.044   6.192   6.285  0.1267 -0.7484 -0.1735
  743MOL0     C  205   5.094   6.319   6.325 -0.4472 -0.5186  0.0214
  743MOL0     O  206   5.218   6.332   6.388 -0.0526 -0.2976 -0.2505
  743MOL0     C  207   5.301   6.225   6.421 -0.0465 -0.5338 -0.3222
  743MOL0     C  208   5.398   6.278   6.520 -0.1052 -0.7758  0.1993
  743MOL0     C  209   5.322   6.348   6.640 -0.1049  0.6701  0.3376
  743MOL0     C  210   5.427   6.378   6.751 -0.2519  0.0481 -0.7123
  743MOL0     C  211   5.390   6.511   6.822 -0.1385  0.1507  0.5881
  743MOL0     C  212   5.494   6.555   6.925  0.2436 -0.2739 -0.1875
  743MOL0     C  213   5.443   6.666   7.009 -0.2535  0.0285 -0.4934
  743MOL0     C  214   5.550   6.705   7.112 -0.1622 -0.6375  0.0547
  743MOL0    Cl  215   5.508   6.827   7.224  0.1633 -0.2015 -0.6381
  743MOL0     C  216   5.023   6.432   6.294  0.6764 -0.7684  0.2416
  743MOL0     C  217   4.893   6.429   6.238  0.1287  0.4994 -0.1304
  743MOL0     O  218   4.634   6.115   6.214 -0.2986  1.0291 -0.6972
  743MOL0     C  219   4.484   6.358   6.004  0.4564 -0.6886  0.0018
  743MOL0     C  220   4.385   6.392   5.911  0.9162 -0.0693  0.9755
  743MOL0     N  221   4.158   6.128   5.182 -0.3328 -0.2505 -0.1276
  743MOL0     N  222   4.270   6.114   5.117 -0.3505  0.2056 -0.4270
  743MOL0     C  223   5.623   6.253   5.350 -0.2573 -0.9206  0.0631
  743MOL0     C  224   5.737   6.327   5.385  0.6660  1.0778 -0.8679
  743MOL0     C  225   6.091   6.637   5.280 -0.0106  0.7525 -0.5294
  743MOL0     C  226   6.106   6.677   5.413  0.9185 -0.1696 -0.5469
  743MOL0     C  227   6.216   6.748   5.452 -0.0622 -0.7637 -0.0193
  743MOL0     C  228   6.304   6.791   5.364 -0.2148 -0.0532 -0.5936
  743MOL0     O  229   6.403   6.870   5.422  0.8289  0.1128  0.5245
  743MOL0     C  230   6.507   6.920   5.335  0.6420 -0.0755 -0.4284
  743MOL0     C  231   6.589   7.014   5.419  0.7267 -0.3461  1.1416
  743MOL0     C  232   6.678   6.930   5.505 -0.1224 -0.1966  0.0175
  743MOL0     C  233   6.703   6.999   5.641 -0.0015 -0.7702 -1.0406
  743MOL0     C  234   6.768   7.129   5.640  0.4335 -0.8580 -0.8916
  743MOL0     C  235   6.829   7.238   5.651 -0.1767  0.4411 -0.2570
  743MOL0     C  236   6.290   6.766   5.228 -0.3260 -0.6792  0.4057
  743MOL0     C  237   6.186   6.688   5.186  0.4626 -0.4698 -0.0157
  743MOL0     H  238   5.744   6.535   5.120 -1.2375 -1.0050 -1.3821
  743MOL0     H  239   5.519   6.442   5.086  1.5293 -1.5158 -2.0776
  743MOL0     H  240   5.462   6.047   5.270 -1.2580 -0.8425  1.0551
  743MOL0     H  241   5.367   6.145   5.374  1.3781 -1.7849  1.3301
  743MOL0     H  242   5.257   6.010   5.113 -0.0855  0.3091 -0.0145
  743MOL0     H  243   5.223   5.985   5.278  1.4575 -1.4342 -0.1496
  743MOL0     H  244   5.148   6.219   5.281  1.6208  0.4884 -0.0349
  743MOL0     H  245   5.165   6.230   5.106  0.4228  0.4834  0.1906
  743MOL0     H  246   5.005   6.031   5.078 -2.1064 -1.1628  0.5685
  743MOL0     H  247   5.003   6.019   5.250  4.0970 -0.6243 -0.7451
  743MOL0     H  248   4.898   6.279   5.224 -2.8085 -0.3690  0.8106
  743MOL0     H  249   4.872   6.225   5.061 -1.6233 -0.3113 -0.6480
  743MOL0     H  250   4.768   6.013   5.155  1.5073 -1.3450  2.3490
  743MOL0     H  251   4.775   6.091   5.306  2.4983  0.8805 -0.4863
  743MOL0     H  252   4.632   6.282   5.237 -0.3353 -0.8475  0.4666
  743MOL0     H  253   4.625   6.221   5.069 -1.3356  0.3681 -0.4499
  743MOL0     H  254   4.525   6.026   5.285 -0.8735 -2.2290 -0.7727
  743MOL0     H  255   4.526   6.023   5.110  2.6207 -1.2954  2.2958
  743MOL0     H  256   4.360   6.192   5.432  1.3897  1.2864 -1.0151
  743MOL0     H  257   3.988   6.135   5.376  0.5910 -0.5961  0.4436
  743MOL0     H  258   4.110   6.082   5.494  0.2270  0.8788  1.4431
  743MOL0     H  259   4.015   6.364   5.424  0.7250 -0.0324 -0.1482
  743MOL0     H  260   4.170   6.359   5.496 -0.2585  0.7538 -0.4859
  743MOL0     H  261   3.912   6.261   5.647 -0.0681  0.2636 -1.1284
  743MOL0     H  262   3.993   6.411   5.666 -0.2529 -0.3274  0.6110
  743MOL0     H  263   4.130   6.148   5.735  4.6742  2.7975  1.3960
  743MOL0     H  264   4.032   6.252   5.843 -0.4874  1.9330 -0.8317
  743MOL0     H  265   4.279   6.075   5.846  0.4121  1.4694 -3.3552
  743MOL0     H  266   4.557   5.947   5.942 -0.8355 -0.2633  0.2482
  743MOL0     H  267   4.491   5.942   6.104  0.6977 -6.2579 -0.6780
  743MOL0     H  268   4.385   5.902   5.973 -1.4817  0.9767  1.0104
  743MOL0     H  269   4.868   6.095   6.192  0.8124  0.2616 -1.3953
  743MOL0     H  270   5.097   6.102   6.316 -0.1428 -0.2786  1.7661
  743MOL0     H  271   5.245   6.145   6.469 -0.6259  1.8830  3.4739
  743MOL0     H  272   5.347   6.191   6.328 -0.2761 -2.9975  0.3905
  743MOL0     H  273   5.471   6.198   6.537  1.2346 -0.7455 -4.1486
  743MOL0     H  274   5.463   6.352   6.473 -0.6938 -2.3813 -3.4700
  743MOL0     H  275   5.252   6.271   6.676  1.8990 -2.0686 -1.2139
  743MOL0     H  276   5.271   6.438   6.605 -0.4647  0.6446  0.7913
  743MOL0     H  277   5.426   6.290   6.816  0.4982  1.3324  1.1556
  743MOL0     H  278   5.522   6.399   6.701 -0.3232 -1.0389 -1.3255
  743MOL0     H  279   5.295   6.500   6.877  0.2941  0.2109  1.3624
  743MOL0     H  280   5.367   6.589   6.749 -2.8416  0.7722  1.9341
  743MOL0     H  281   5.522   6.467   6.985 -0.6467 -0.4966 -0.0868
  743MOL0     H  282   5.580   6.597   6.872  2.2220 -0.4471  2.6224
  743MOL0     H  283   5.352   6.629   7.058 -0.6465 -2.1959 -2.6948
  743MOL0     H  284   5.413   6.754   6.953 -1.6726 -1.7454 -2.6763
  743MOL0     H  285   5.645   6.720   7.060  0.5141 -1.0708  1.1285
  743MOL0     H  286   5.568   6.616   7.174  0.4522 -0.0837  0.6977
  743MOL0     H  287   5.072   6.523   6.326  0.1733  0.0030 -1.1097
  743MOL0     H  288   4.845   6.525   6.219 -1.3085 -0.7291 -3.4575
  743MOL0     H  289   4.540   6.445   6.037 -2.0109  0.9047  0.2432
  743MOL0     H  290   4.350   6.488   5.875  0.8680 -0.6663 -0.6256
  743MOL0     H  291   5.599   6.168   5.413  0.6467  0.3878  2.2629
  743MOL0     H  292   5.789   6.294   5.474 -0.7035  0.2961 -0.3303
  743MOL0     H  293   6.033   6.643   5.485 -0.1690 -2.7351 -2.6718
  743MOL0     H  294   6.234   6.775   5.555  0.4511 -0.6073 -0.1479
  743MOL0     H  295   6.581   6.847   5.299  1.2350  0.5201 -0.4319
  743MOL0     H  296   6.464   6.983   5.258 -2.7571  2.5774  3.2360
  743MOL0     H  297   6.530   7.074   5.490  2.6575  1.2380  1.5169
  743MOL0     H  298   6.648   7.083   5.358 -2.1262  1.8445  0.6479
  743MOL0     H  299   6.776   6.919   5.459 -1.2947 -1.9576 -2.2577
  743MOL0     H  300   6.638   6.832   5.533  0.8521 -0.2067  1.5098
  743MOL0     H  301   6.760   6.936   5.710 -0.8272 -0.9281 -0.4879
  743MOL0     H  302   6.602   6.988   5.683  0.1207 -1.0016 -0.8090
  743MOL0     H  303   6.881   7.332   5.650  0.2986  0.1914 -1.2454
  743MOL0     H  304   6.358   6.810   5.155 -1.0961  4.0806  2.1736
  743MOL0     H  305   6.191   6.661   5.081  0.1538 -1.4892  0.2189
  744MOL0     O  306   5.131  10.204   9.988 -0.6082  0.4775 -0.5479
  744MOL0     C  307   5.138  10.237   9.874  0.4145  0.1765  0.6840
  744MOL0     O  308   5.046  10.322   9.821  0.0852 -0.2290  0.6136
  744MOL0     C  309   4.955  10.394   9.894  0.3296 -0.3066  0.4565
  744MOL0     C  310   4.989  10.451  10.017  0.1750 -1.2277  0.5246
  744MOL0     C  311   4.885  10.516  10.096 -0.0794  0.3838  0.4436
  744MOL0     C  312   4.759  10.537  10.038  0.7354  0.4367  0.8176
  744MOL0     O  313   4.659  10.608  10.108 -0.6690 -0.1084 -0.3910
  744MOL0     C  314   4.553  10.668  10.026 -0.2351 -0.3079  0.6471
  744MOL0     C  315   4.471  10.760  10.108  0.2616  0.3708 -0.2657
  744MOL0     C  316   4.344  10.802  10.041 -0.3695 -0.8390  0.6178
  744MOL0     C  317   4.288  10.914  10.123  0.2102  0.0773 -0.0363
  744MOL0     C  318   4.164  10.981  10.053  0.7297  0.0336 -0.7912
  744MOL0     C  319   4.195  11.048   9.913  0.3164 -0.1141  0.1986
  744MOL0     C  320   4.115  11.173   9.891 -0.1161 -1.3377  1.2863
  744MOL0     C  321   4.173  11.242   9.760 -0.2244 -0.0389 -0.5774
  744MOL0     N  322   4.186  11.143   9.646 -0.0748  0.4906  0.1690
  744MOL0     C  323   4.085  11.094   9.567 -0.5017 -0.3563 -0.3155
  744MOL0     C  324   4.147  10.982   9.499  0.5394 -0.5864 -0.5548
  744MOL0     C  325   4.086  10.888   9.388 -0.8404  0.2470  0.0396
  744MOL0     C  326   3.937  10.919   9.373 -0.9423 -0.0720 -0.1685
  744MOL0     C  327   3.878  10.836   9.266 -0.2763  0.3266 -0.3808
  744MOL0     C  328   3.730  10.860   9.238 -0.2785 -0.3781  0.9800
  744MOL0     O  329   3.651  10.799   9.341  0.6463 -0.7606 -0.0668
  744MOL0     C  330   3.520  10.846   9.350 -0.3175 -0.3525  0.9455
  744MOL0     C  331   3.424  10.753   9.334  0.7082  0.5067 -0.7674
  744MOL0     C  332   3.291  10.783   9.358  1.5545  0.1376 -0.5966
  744MOL0     C  333   3.188  10.674   9.327  0.0368  0.1449 -0.1273
  744MOL0     C  334   3.259  10.913   9.403  0.3576 -0.5327 -0.4985
  744MOL0     C  335   3.121  10.939   9.441 -0.4592  0.2355  0.2423
  744MOL0     O  336   3.075  10.863   9.545  0.0002  0.3293 -0.4486
  744MOL0     C  337   2.949  10.876   9.597  0.7312 -0.0634  0.2434
  744MOL0     C  338   2.832  10.880   9.521  0.6070  0.2804 -0.8207
  744MOL0     C  339   2.711  10.899   9.588 -0.2788  0.8125 -0.2855
  744MOL0     C  340   2.708  10.901   9.731 -0.4072  0.1027 -0.5310
  744MOL0     O  341   2.586  10.931   9.790  0.0257  0.6547 -0.5658
  744MOL0     C  342   2.567  10.897   9.932  0.2659  0.9438 -0.0209
  744MOL0     C  343   2.415  10.909   9.970  0.8947  0.3412 -0.0301
  744MOL0     C  344   2.362  10.808  10.068  0.1677  0.4201  0.7118
  744MOL0     C  345   2.237  10.869  10.143  0.2630  0.1755 -0.4623
  744MOL0     C  346   2.163  10.768  10.238  0.1898  0.0539  0.0352
  744MOL0     C  347   2.043  10.834  10.309 -0.7181  0.0562 -0.1358
  744MOL0     C  348   2.000  10.745  10.423 -0.1092  0.4765  0.0605
  744MOL0     C  349   1.855  10.748  10.452 -1.4709  0.5447  0.5425
  744MOL0    Cl  350   1.769  10.648  10.323 -0.5423  0.1562  0.2333
  744MOL0     C  351   2.824  10.871   9.798 -0.3862 -0.0428 -0.2990
  744MOL0     C  352   2.944  10.865   9.735  0.4054 -0.8148  0.6658
  744MOL0     O  353   3.053  11.025   9.380  1.0757  0.4965 -0.0253
  744MOL0     C  354   3.358  11.004   9.429  0.2616 -0.4016 -0.1302
  744MOL0     C  355   3.493  10.974   9.405  0.3589  0.2220 -1.2201
  744MOL0     N  356   4.283  10.969   9.536 -0.7921 -0.2308  0.3871
  744MOL0     N  357   4.301  11.071   9.618 -0.5525 -0.5352  0.0229
  744MOL0     C  358   4.726  10.483   9.909 -0.1554 -0.1346 -0.0170
  744MOL0     C  359   4.829  10.417   9.839 -0.3254 -0.0400  1.6122
  744MOL0     C  360   5.237  10.170   9.794 -0.2663  0.3164  0.7223
  744MOL0     C  361   5.328  10.079   9.845 -0.1998 -0.1845  0.1354
  744MOL0     C  362   5.424  10.020   9.758  0.0761  0.5894  0.2671
  744MOL0     C  363   5.427  10.054   9.620 -0.1876  0.4815 -0.2068
  744MOL0     O  364   5.528   9.993   9.539  0.7191 -0.8235 -0.2982
  744MOL0     C  365   5.538  10.023   9.400  0.3711  0.4170 -0.0763
  744MOL0     C  366   5.413   9.968   9.325 -0.3627  0.1803  0.5242
  744MOL0     C  367   5.399   9.810   9.346 -0.4771 -0.0742  0.7992
  744MOL0     C  368   5.530   9.729   9.319 -0.6663  0.3820 -0.2931
  744MOL0     C  369   5.605   9.775   9.201 -0.0713  0.2750  0.3046
  744MOL0     C  370   5.677   9.824   9.125  0.4700 -0.3616 -0.1084
  744MOL0     C  371   5.338  10.150   9.575 -0.2018 -0.1039  0.8799
  744MOL0     C  372   5.245  10.204   9.659 -0.6483 -0.0932  0.1744
  744MOL0     H  373   5.084  10.438  10.068  1.5931 -1.5753 -2.0113
  744MOL0     H  374   4.910  10.552  10.195  1.5368  4.2774 -1.1656
  744MOL0     H  375   4.600  10.727   9.947 -1.5618 -0.4117 -0.2416
  744MOL0     H  376   4.489  10.591   9.982 -0.4023 -0.4704  1.1623
  744MOL0     H  377   4.448  10.714  10.204 -2.2048 -0.3844 -1.1434
  744MOL0     H  378   4.533  10.849  10.124  1.1373 -0.1071 -0.9028
  744MOL0     H  379   4.364  10.824   9.936  0.2268 -0.6340  0.7735
  744MOL0     H  380   4.272  10.719  10.036 -1.0868 -0.1732 -0.5579
  744MOL0     H  381   4.250  10.873  10.217  0.8656 -1.0040 -0.2214
  744MOL0     H  382   4.357  10.998  10.139  0.5315 -0.0550 -0.7021
  744MOL0     H  383   4.082  10.913  10.027  2.7589 -2.5188 -1.0202
  744MOL0     H  384   4.131  11.060  10.120  0.4889 -0.4009 -0.3960
  744MOL0     H  385   4.303  11.069   9.906 -0.0970  2.8360  1.1206
  744MOL0     H  386   4.180  10.966   9.842  2.5623  0.2707 -0.8299
  744MOL0     H  387   4.008  11.148   9.893 -0.3441 -0.3992  3.2169
  744MOL0     H  388   4.127  11.236   9.979 -0.8531 -1.1562  1.2671
  744MOL0     H  389   4.272  11.282   9.785  1.3847 -2.3258 -2.7113
  744MOL0     H  390   4.105  11.322   9.730 -0.5095  1.1577  2.8934
  744MOL0     H  391   3.988  11.142   9.562 -0.4312 -0.2937 -1.0877
  744MOL0     H  392   4.147  10.903   9.299  1.2002 -0.7741  1.1764
  744MOL0     H  393   4.095  10.783   9.418  0.6788  0.6451  1.0981
  744MOL0     H  394   3.922  11.018   9.329 -3.9402 -0.7655 -0.9522
  744MOL0     H  395   3.883  10.914   9.468 -0.9540  0.5871 -0.1307
  744MOL0     H  396   3.893  10.735   9.305  1.2918  0.9628  0.7343
  744MOL0     H  397   3.945  10.850   9.180  3.1627 -0.8689  1.8963
  744MOL0     H  398   3.699  10.819   9.141  2.1427  0.4791 -0.2218
  744MOL0     H  399   3.710  10.967   9.235 -0.1815 -0.3580  1.0841
  744MOL0     H  400   3.441  10.653   9.294 -0.5902  0.4260 -1.1587
  744MOL0     H  401   3.205  10.641   9.225  2.0418 -2.5683  0.9601
  744MOL0     H  402   3.199  10.580   9.381 -1.6240  0.4717  0.8747
  744MOL0     H  403   3.083  10.701   9.342  0.0041 -0.0204 -0.0632
  744MOL0     H  404   2.835  10.891   9.413  0.7644 -3.6869 -1.3715
  744MOL0     H  405   2.619  10.905   9.531 -0.1147 -0.9966 -0.7907
  744MOL0     H  406   2.608  10.799   9.956 -1.0917  0.3238 -0.1421
  744MOL0     H  407   2.612  10.973   9.997 -2.4578  0.7142  2.3007
  744MOL0     H  408   2.400  11.011  10.007 -0.3988 -0.2211  1.1058
  744MOL0     H  409   2.343  10.901   9.889 -2.5506 -0.6669  2.8561
  744MOL0     H  410   2.440  10.797  10.144 -1.3181 -0.3092  2.2033
  744MOL0     H  411   2.345  10.707  10.028 -1.9294  0.5131  1.2088
  744MOL0     H  412   2.274  10.943  10.215  0.5734  0.4772 -0.9257
  744MOL0     H  413   2.165  10.903  10.069 -1.7375 -1.2861  0.7215
  744MOL0     H  414   2.238  10.728  10.307 -0.2582 -1.3800 -0.2691
  744MOL0     H  415   2.118  10.691  10.174 -3.7713  1.3894  0.9619
  744MOL0     H  416   2.083  10.927  10.349  0.8238 -0.8392  0.5170
  744MOL0     H  417   1.962  10.867  10.244 -0.7209  0.5050  0.0974
  744MOL0     H  418   2.052  10.776  10.515  1.4201  1.9468 -1.2386
  744MOL0     H  419   2.028  10.641  10.408  1.2841  1.0977 -2.0347
  744MOL0     H  420   1.825  10.853  10.460 -0.5731  1.2098 -3.2742
  744MOL0     H  421   1.839  10.703  10.551  0.3309 -0.2806  0.5006
  744MOL0     H  422   2.808  10.871   9.905 -1.2801  0.4277 -0.4254
  744MOL0     H  423   3.036  10.860   9.791  0.8506  1.3543  0.1949
  744MOL0     H  424   3.327  11.101   9.467 -3.7741 -2.6011  3.0378
  744MOL0     H  425   3.572  11.047   9.417  0.0748  0.9575 -3.4058
  744MOL0     H  426   4.629  10.496   9.862  0.0082 -1.4612 -0.7787
  744MOL0     H  427   4.795  10.363   9.752 -2.3663 -2.5576  3.7862
  744MOL0     H  428   5.344  10.060   9.950  0.7286 -0.3090 -0.0232
  744MOL0     H  429   5.497   9.951   9.801 -0.0769 -0.9836 -1.8514
  744MOL0     H  430   5.534  10.133   9.401  2.3427  0.5297  0.6720
  744MOL0     H  431   5.639   9.994   9.369  1.3854 -0.2337  3.3626
  744MOL0     H  432   5.412   9.994   9.218  1.1624  0.3030  0.5273
  744MOL0     H  433   5.319  10.015   9.357 -2.5057 -3.8244  0.7947
  744MOL0     H  434   5.321   9.763   9.286  1.2217  0.9070 -2.4025
  744MOL0     H  435   5.368   9.811   9.451 -0.3459  2.1973  0.8682
  744MOL0     H  436   5.511   9.622   9.311  3.0561 -1.1366  5.1236
  744MOL0     H  437   5.600   9.747   9.402 -0.2628 -0.0143 -0.5409
  744MOL0     H  438   5.742   9.887   9.067 -0.9891  1.3432  0.0008
  744MOL0     H  439   5.344  10.202   9.480  0.5727  1.1247  1.5789
  744MOL0     H  440   5.178  10.276   9.613 -0.0971 -0.2195 -0.8414
  745MOL0     O  441   0.067   5.868   7.908  0.4255  0.2662 -0.2283
  745MOL0     C  442   0.006   5.779   7.972 -0.0573 -0.2400 -0.1272
  745MOL0     O  443  -0.117   5.735   7.954  1.1340  0.0383 -0.4564
  745MOL0     C  444  -0.203   5.811   7.881  0.0662 -0.7224 -0.6333
  745MOL0     C  445  -0.280   5.748   7.778  1.0345  0.4032 -0.4408
  745MOL0     C  446  -0.385   5.805   7.707  0.1822  0.4058 -0.1449
  745MOL0     C  447  -0.415   5.937   7.738 -0.3805  0.5240  0.5348
  745MOL0     O  448  -0.517   6.007   7.685 -0.3520  0.1872 -0.0097
  745MOL0     C  449  -0.645   5.942   7.676 -0.5938  0.1901  0.2568
  745MOL0     C  450  -0.700   5.880   7.803 -0.6789  0.3118 -1.1996
  745MOL0     C  451  -0.841   5.836   7.785 -0.2043  0.1513 -0.3619
  745MOL0     C  452  -0.865   5.729   7.682 -0.4730  0.0157  0.2432
  745MOL0     C  453  -1.011   5.685   7.672  0.5292  0.4789  0.6213
  745MOL0     C  454  -1.043   5.591   7.552  0.1077  0.1965 -0.8420
  745MOL0     C  455  -0.998   5.652   7.414 -0.5963 -0.5509 -0.9580
  745MOL0     C  456  -1.033   5.558   7.305  0.6488  0.1350 -0.0633
  745MOL0     N  457  -1.176   5.529   7.292  0.0957  0.0615  0.9351
  745MOL0     C  458  -1.277   5.619   7.277 -0.2797 -0.6551 -0.2068
  745MOL0     C  459  -1.399   5.553   7.280  0.4444 -0.0384 -0.7484
  745MOL0     C  460  -1.536   5.610   7.286  0.3936 -0.5935  0.2235
  745MOL0     C  461  -1.642   5.519   7.205 -0.0434 -0.6859  0.1763
  745MOL0     C  462  -1.620   5.523   7.057 -0.3377  0.1745  0.4439
  745MOL0     C  463  -1.745   5.463   6.983 -0.1839 -0.6813  0.0636
  745MOL0     O  464  -1.863   5.544   7.021 -0.5756  0.0594 -0.3237
  745MOL0     C  465  -1.988   5.495   6.995 -0.9015 -0.3643  0.2649
  745MOL0     C  466  -2.095   5.566   7.042 -0.6332  0.4566 -1.1103
  745MOL0     C  467  -2.223   5.528   7.020  0.5715 -0.2405 -0.0526
  745MOL0     C  468  -2.349   5.601   7.087 -0.6673  0.2683 -0.5491
  745MOL0     C  469  -2.253   5.405   6.945 -0.5380 -0.4618  0.4797
  745MOL0     C  470  -2.393   5.357   6.916 -0.8691  0.4603 -0.4383
  745MOL0     O  471  -2.423   5.322   6.782 -0.0119  0.2293 -0.1362
  745MOL0     C  472  -2.550   5.296   6.755  0.1378  0.1379 -0.6360
  745MOL0     C  473  -2.638   5.405   6.738  0.4817  0.7939  0.5507
  745MOL0     C  474  -2.755   5.376   6.668  0.4329  0.5248  0.5795
  745MOL0     C  475  -2.797   5.246   6.636 -0.3623 -0.7515  0.5581
  745MOL0     O  476  -2.910   5.225   6.564 -0.7321 -0.7976 -0.2470
  745MOL0     C  477  -3.001   5.134   6.603 -0.4553  0.6817 -0.6447
  745MOL0     C  478  -3.136   5.171   6.536 -0.0884 -0.1908  0.6538
  745MOL0     C  479  -3.219   5.040   6.538 -0.1733 -0.7468 -0.1153
  745MOL0     C  480  -3.362   5.065   6.503 -0.5984  0.3580  0.4242
  745MOL0     C  481  -3.434   4.950   6.448 -0.2655  1.1823 -0.0281
  745MOL0     C  482  -3.577   4.974   6.448  0.4782 -0.7297 -0.2705
  745MOL0     C  483  -3.653   4.879   6.364  0.1321  0.8822  0.1089
  745MOL0     C  484  -3.808   4.910   6.355  0.3730  0.8671 -0.7604
  745MOL0    Cl  485  -3.896   4.885   6.517 -0.0052 -0.2883  0.2555
  745MOL0     C  486  -2.711   5.141   6.677  0.7830 -1.1226 -0.4209
  745MOL0     C  487  -2.591   5.167   6.744 -0.9192 -0.2029 -0.3027
  745MOL0     O  488  -2.464   5.325   7.010  0.1416 -0.4561  0.5355
  745MOL0     C  489  -2.147   5.340   6.888 -0.3858  0.0921 -0.2923
  745MOL0     C  490  -2.018   5.379   6.918  0.3787 -0.6957 -0.9915
  745MOL0     N  491  -1.363   5.421   7.304  0.3296  0.0729  0.4738
  745MOL0     N  492  -1.240   5.413   7.315 -0.1306 -0.2942  1.0358
  745MOL0     C  493  -0.331   6.003   7.832  0.3466 -0.1352  0.1618
  745MOL0     C  494  -0.231   5.933   7.911 -0.0709 -0.3756  0.8146
  745MOL0     C  495   0.089   5.702   8.067  0.3957  1.0168 -0.5709
  745MOL0     C  496   0.219   5.745   8.113  0.2596  0.6123  0.2398
  745MOL0     C  497   0.284   5.662   8.215  0.0355  0.0758  0.5028
  745MOL0     C  498   0.213   5.556   8.275 -0.8697  0.6367 -0.1377
  745MOL0     O  499   0.266   5.474   8.373  0.1915 -0.3309  0.4269
  745MOL0     C  500   0.405   5.481   8.395 -0.3094 -0.5794  0.7228
  745MOL0     C  501   0.458   5.350   8.463 -0.4790 -0.6293  0.2347
  745MOL0     C  502   0.611   5.354   8.445  0.0349  0.6074 -0.5930
  745MOL0     C  503   0.691   5.250   8.521 -0.6056 -0.2284  0.2460
  745MOL0     C  504   0.689   5.260   8.668  0.7381  0.2309 -0.4358
  745MOL0     C  505   0.696   5.270   8.792  0.3153  0.0846 -0.2978
  745MOL0     C  506   0.095   5.516   8.232 -0.6436  0.1739  0.9006
  745MOL0     C  507   0.029   5.586   8.131  0.3217  0.9406  0.0464
  745MOL0     H  508  -0.258   5.648   7.742 -0.4788  0.3352 -1.2437
  745MOL0     H  509  -0.436   5.742   7.636 -0.0749 -0.3238  0.6688
  745MOL0     H  510  -0.712   6.026   7.654 -3.7271 -2.0888  0.2377
  745MOL0     H  511  -0.648   5.881   7.585 -0.9987 -0.9975  1.0481
  745MOL0     H  512  -0.641   5.790   7.824 -1.5621 -0.1833 -0.8085
  745MOL0     H  513  -0.692   5.950   7.887  1.0451 -0.2631 -0.8486
  745MOL0     H  514  -0.884   5.804   7.880 -2.3976 -0.3006 -1.4565
  745MOL0     H  515  -0.887   5.932   7.761  1.6653  1.3481  0.5427
  745MOL0     H  516  -0.826   5.760   7.585  0.0555 -0.6603  0.2310
  745MOL0     H  517  -0.808   5.639   7.705  1.2861  1.0223 -0.0276
  745MOL0     H  518  -1.054   5.639   7.761 -3.4145  2.8283  0.1485
  745MOL0     H  519  -1.057   5.784   7.662  1.1944  0.6893 -0.6661
  745MOL0     H  520  -0.978   5.504   7.563  2.4644  1.9162 -0.0748
  745MOL0     H  521  -1.150   5.571   7.553  0.0576  0.4408 -1.0358
  745MOL0     H  522  -1.038   5.753   7.401 -0.4541 -0.4479 -0.6065
  745MOL0     H  523  -0.889   5.649   7.405 -0.2759 -3.2719  2.0986
  745MOL0     H  524  -0.985   5.462   7.326 -0.9613 -0.4028  1.4009
  745MOL0     H  525  -1.010   5.592   7.203  2.2519 -0.3048  0.1201
  745MOL0     H  526  -1.261   5.725   7.259 -2.4889  0.0962  1.6510
  745MOL0     H  527  -1.574   5.635   7.386 -0.0343 -2.2769  0.5109
  745MOL0     H  528  -1.537   5.702   7.227 -0.1821 -1.5978 -1.3813
  745MOL0     H  529  -1.740   5.562   7.227  0.9376  0.8403  1.8519
  745MOL0     H  530  -1.657   5.416   7.239  2.8065 -0.9627  0.8903
  745MOL0     H  531  -1.537   5.453   7.047  1.2667  2.1256 -0.5998
  745MOL0     H  532  -1.593   5.621   7.016  2.4304  0.8380  3.4166
  745MOL0     H  533  -1.761   5.356   6.993  0.1702 -0.6522  1.0267
  745MOL0     H  534  -1.724   5.484   6.878  0.3135 -0.3456  0.2268
  745MOL0     H  535  -2.077   5.660   7.093  2.8992  0.6507 -2.4608
  745MOL0     H  536  -2.381   5.535   7.168  1.1268 -0.4119 -0.3439
  745MOL0     H  537  -2.317   5.700   7.122  0.7517  0.4092 -2.0683
  745MOL0     H  538  -2.437   5.605   7.022 -0.1736  0.0342 -1.2489
  745MOL0     H  539  -2.605   5.508   6.738  1.0618  0.8003 -3.6168
  745MOL0     H  540  -2.813   5.459   6.629  1.6091  1.8231  1.4803
  745MOL0     H  541  -2.965   5.039   6.562  1.8019  1.7511 -1.3186
  745MOL0     H  542  -3.014   5.128   6.711  2.4383 -0.6040 -0.2540
  745MOL0     H  543  -3.171   5.260   6.588 -0.4145  0.2903 -0.3611
  745MOL0     H  544  -3.106   5.195   6.433  0.6173  0.9622  1.1003
  745MOL0     H  545  -3.216   4.993   6.636 -2.1787 -0.3492  0.1695
  745MOL0     H  546  -3.167   4.965   6.477  0.2202 -1.4993  1.1108
  745MOL0     H  547  -3.415   5.086   6.597 -1.0456  1.7960 -0.1212
  745MOL0     H  548  -3.366   5.149   6.433 -0.1037  0.1598  0.1540
  745MOL0     H  549  -3.416   4.860   6.508  2.0873  1.5510 -0.0642
  745MOL0     H  550  -3.397   4.925   6.348  0.8040  2.1058  0.1153
  745MOL0     H  551  -3.613   4.977   6.551  2.6958  1.3397  0.5392
  745MOL0     H  552  -3.596   5.077   6.415 -1.6830 -1.1456 -0.4750
  745MOL0     H  553  -3.630   4.780   6.406 -1.0000  0.7534  0.4674
  745MOL0     H  554  -3.604   4.888   6.267  2.3018 -1.1359  0.9259
  745MOL0     H  555  -3.849   4.846   6.277 -1.4276 -0.9445  1.5027
  745MOL0     H  556  -3.825   5.015   6.329 -0.0587  0.8783 -0.4408
  745MOL0     H  557  -2.731   5.035   6.673 -0.1129 -0.9516 -0.7502
  745MOL0     H  558  -2.520   5.088   6.766  1.0286  1.7394  0.8406
  745MOL0     H  559  -2.168   5.247   6.837  0.0025  0.9586 -2.1289
  745MOL0     H  560  -1.939   5.306   6.902 -0.3715 -1.8065  0.1370
  745MOL0     H  561  -0.352   6.108   7.851  2.8535  0.2908  0.9904
  745MOL0     H  562  -0.195   6.002   7.987 -2.8469  2.0841  0.1183
  745MOL0     H  563   0.277   5.827   8.073  4.2628 -0.7932  2.6243
  745MOL0     H  564   0.384   5.697   8.240  0.3092 -0.9945  0.9452
  745MOL0     H  565   0.449   5.496   8.296 -1.5208  0.6461  0.3327
  745MOL0     H  566   0.422   5.575   8.449 -0.8484  1.6347 -2.6177
  745MOL0     H  567   0.423   5.263   8.405 -1.8941 -0.4235  0.7510
  745MOL0     H  568   0.424   5.338   8.566 -0.7396 -1.1545  0.0942
  745MOL0     H  569   0.655   5.453   8.458  1.4089 -0.0763  0.2425
  745MOL0     H  570   0.632   5.324   8.342  0.0629 -1.3090 -0.0708
  745MOL0     H  571   0.796   5.263   8.491 -0.7035 -0.2945 -0.1250
  745MOL0     H  572   0.652   5.152   8.493  1.1072 -1.5266  2.0517
  745MOL0     H  573   0.713   5.270   8.897  1.0148 -1.7745 -0.3593
  745MOL0     H  574   0.042   5.426   8.264 -1.5387  1.0903  2.0951
  745MOL0     H  575  -0.071   5.550   8.109  0.5957  1.1206 -1.6271
  746MOL0     O  576   8.033   7.040   0.295  0.3972  0.1439 -0.4494
  746MOL0     C  577   8.084   7.152   0.298  0.1478  0.5290  0.3327
  746MOL0     O  578   8.033   7.268   0.351 -1.0215 -0.7565  0.6599
  746MOL0     C  579   7.918   7.271   0.422  0.1345  0.5590 -0.0600
  746MOL0     C  580   7.896   7.391   0.470 -0.0097 -0.9316  0.2136
  746MOL0     C  581   7.776   7.414   0.543 -0.1103  0.2152  0.5061
  746MOL0     C  582   7.678   7.317   0.558 -0.6873  0.4101 -1.1814
  746MOL0     O  583   7.575   7.350   0.635  0.1679 -0.1480 -0.1375
  746MOL0     C  584   7.493   7.252   0.697 -0.0264 -0.0500 -0.3442
  746MOL0     C  585   7.397   7.315   0.795  0.2788  0.1420  0.0043
  746MOL0     C  586   7.297   7.417   0.734  0.0694  0.2605  0.4580
  746MOL0     C  587   7.186   7.461   0.836  0.0881  0.0486 -0.4357
  746MOL0     C  588   7.079   7.548   0.762 -0.1320 -0.3041  0.1926
  746MOL0     C  589   6.978   7.628   0.849 -0.4010  0.4309 -0.2423
  746MOL0     C  590   6.942   7.768   0.785 -0.0015  0.1534  0.6173
  746MOL0     C  591   6.814   7.825   0.850 -0.1036  0.4105  0.0583
  746MOL0     N  592   6.780   7.958   0.798  0.5048  0.4235 -1.1848
  746MOL0     C  593   6.869   8.056   0.756 -0.5802  0.5057 -0.2396
  746MOL0     C  594   6.805   8.176   0.768 -0.0323 -0.4837  0.4259
  746MOL0     C  595   6.852   8.318   0.759 -0.9806 -0.1200  0.4717
  746MOL0     C  596   6.763   8.397   0.670  0.2452  0.1101  0.3581
  746MOL0     C  597   6.810   8.397   0.525  0.1387 -0.5542  0.3364
  746MOL0     C  598   6.747   8.496   0.423 -0.4706 -0.5575  0.1809
  746MOL0     O  599   6.730   8.622   0.481  0.0410 -0.3477 -0.0802
  746MOL0     C  600   6.648   8.696   0.417  0.0853 -0.1971  1.6595
  746MOL0     C  601   6.688   8.782   0.309  0.2202  0.4476 -0.8276
  746MOL0     C  602   6.595   8.852   0.230  0.1929  0.6037  0.5889
  746MOL0     C  603   6.643   8.948   0.138 -0.6459  0.4666 -0.0734
  746MOL0     C  604   6.461   8.825   0.252 -0.4770  1.3431  0.4933
  746MOL0     C  605   6.354   8.901   0.183  0.0299  0.3770  1.0435
  746MOL0     O  606   6.358   8.905   0.047 -0.1479  0.0311  0.9336
  746MOL0     C  607   6.260   8.970  -0.023 -0.7370  0.0266  0.1577
  746MOL0     C  608   6.281   9.092  -0.075  0.3327  1.3531  0.0774
  746MOL0     C  609   6.164   9.164  -0.119 -0.0719  0.0699  0.1172
  746MOL0     C  610   6.039   9.102  -0.127  0.4800  0.5242 -0.2160
  746MOL0     O  611   5.922   9.169  -0.168  0.7385  0.7449 -0.1600
  746MOL0     C  612   5.900   9.302  -0.136 -0.1343  0.5143 -0.3049
  746MOL0     C  613   5.749   9.313  -0.130  0.2937 -0.8923 -0.7935
  746MOL0     C  614   5.709   9.459  -0.083  0.4983  0.3669 -0.2853
  746MOL0     C  615   5.566   9.458  -0.032 -0.0072  0.6556 -0.3020
  746MOL0     C  616   5.522   9.599  -0.001 -0.3830 -0.1954  0.1476
  746MOL0     C  617   5.376   9.610   0.050  0.0877 -0.0919 -0.4829
  746MOL0     C  618   5.271   9.548  -0.046  0.0853 -0.4168  0.7116
  746MOL0     C  619   5.128   9.595  -0.003 -0.3929  0.7509  0.0056
  746MOL0    Cl  620   5.079   9.521   0.154  0.4039  0.2079  0.0705
  746MOL0     C  621   6.027   8.975  -0.071  0.2543 -0.0719  1.3758
  746MOL0     C  622   6.138   8.909  -0.024  0.4568 -0.1302  0.6939
  746MOL0     O  623   6.254   8.947   0.247 -0.0626 -0.8755 -0.0543
  746MOL0     C  624   6.427   8.735   0.348 -0.1107 -0.1771 -1.4004
  746MOL0     C  625   6.515   8.673   0.435  0.1374 -0.0719 -0.1947
  746MOL0     N  626   6.676   8.145   0.814 -0.2494  0.2702 -0.0457
  746MOL0     N  627   6.664   8.019   0.837  0.4538  0.3124 -0.2543
  746MOL0     C  628   7.700   7.188   0.510  0.2348  0.4214 -0.4598
  746MOL0     C  629   7.818   7.164   0.441  0.0043  0.2373  0.0003
  746MOL0     C  630   8.226   7.166   0.247 -0.0608 -0.1180 -0.2473
  746MOL0     C  631   8.267   7.080   0.141 -0.2487 -0.4008  0.6276
  746MOL0     C  632   8.398   7.102   0.085  0.0489  0.4953 -0.8177
  746MOL0     C  633   8.478   7.198   0.138 -0.4109 -0.6655 -0.3209
  746MOL0     O  634   8.601   7.227   0.074 -0.7639  0.7372 -0.7551
  746MOL0     C  635   8.600   7.272  -0.059  0.2530 -0.4809 -0.5209
  746MOL0     C  636   8.546   7.410  -0.071  0.8362 -0.6274  0.1386
  746MOL0     C  637   8.656   7.506  -0.031  0.4377  0.6745  0.3013
  746MOL0     C  638   8.754   7.529  -0.148  0.0970  1.3409 -0.0119
  746MOL0     C  639   8.690   7.587  -0.273 -1.4140 -0.1561 -0.5041
  746MOL0     C  640   8.643   7.636  -0.376  0.2172  0.2208 -0.3274
  746MOL0     C  641   8.437   7.275   0.251  0.6968 -0.2281 -0.1789
  746MOL0     C  642   8.306   7.269   0.298  0.0066 -0.2275 -0.3836
  746MOL0     H  643   7.969   7.471   0.462 -2.7314  1.8866  1.2877
  746MOL0     H  644   7.750   7.512   0.584 -4.0621 -0.9472  1.1731
  746MOL0     H  645   7.435   7.200   0.620 -1.1000  0.1403  0.3257
  746MOL0     H  646   7.556   7.181   0.752  0.1673  1.6132  1.6711
  746MOL0     H  647   7.332   7.238   0.838  0.7964  0.3997  1.2995
  746MOL0     H  648   7.445   7.355   0.885 -1.5327  0.2835  0.9530
  746MOL0     H  649   7.346   7.506   0.693  0.3575 -1.0268 -2.2011
  746MOL0     H  650   7.237   7.362   0.661  0.5374  0.0541  0.2320
  746MOL0     H  651   7.125   7.382   0.880 -0.6362  0.8322 -0.0088
  746MOL0     H  652   7.242   7.517   0.912  0.1239 -0.8209  0.1833
  746MOL0     H  653   7.121   7.623   0.694 -2.7958 -0.9032 -2.3097
  746MOL0     H  654   7.028   7.477   0.696 -1.8364  1.9003 -0.9916
  746MOL0     H  655   6.887   7.571   0.872  0.8236 -0.5125  2.9262
  746MOL0     H  656   7.022   7.641   0.949 -1.5347 -2.9595  0.8367
  746MOL0     H  657   7.027   7.838   0.782  0.3767 -0.2881 -2.6398
  746MOL0     H  658   6.912   7.748   0.682  0.8396 -2.1864  0.7653
  746MOL0     H  659   6.834   7.850   0.955 -0.8468 -1.2102  0.6250
  746MOL0     H  660   6.739   7.745   0.852 -0.5404  0.8249  0.6968
  746MOL0     H  661   6.974   8.041   0.735 -0.4989 -0.5470  0.8507
  746MOL0     H  662   6.846   8.366   0.857  3.0885  0.1863  0.7271
  746MOL0     H  663   6.959   8.324   0.741 -0.2185 -1.2138  3.9429
  746MOL0     H  664   6.775   8.501   0.700 -1.0883  0.7048 -1.0583
  746MOL0     H  665   6.659   8.370   0.691 -0.6820  3.0604  0.0643
  746MOL0     H  666   6.785   8.298   0.486 -2.9747 -0.0688  0.8432
  746MOL0     H  667   6.919   8.401   0.519  0.0261  1.1524 -1.3058
  746MOL0     H  668   6.647   8.463   0.395 -1.3611  0.6561  1.7746
  746MOL0     H  669   6.823   8.498   0.344 -0.3242 -1.8217  0.2603
  746MOL0     H  670   6.793   8.788   0.284 -0.0932  1.6814 -2.0393
  746MOL0     H  671   6.722   8.998   0.195 -1.0895 -0.1974  1.1541
  746MOL0     H  672   6.699   8.894   0.062 -1.5935  1.1926 -1.3281
  746MOL0     H  673   6.578   9.028   0.102  0.0468  0.9333 -0.3196
  746MOL0     H  674   6.380   9.135  -0.063  0.3534  2.0587 -2.1095
  746MOL0     H  675   6.178   9.257  -0.173  1.1858 -0.9409 -1.3501
  746MOL0     H  676   5.948   9.325  -0.040  0.7907 -1.1316 -0.3355
  746MOL0     H  677   5.935   9.360  -0.222  0.1026  1.1476  0.2130
  746MOL0     H  678   5.703   9.296  -0.228  0.1971 -4.0357 -0.3039
  746MOL0     H  679   5.717   9.243  -0.053  0.6822  0.2286  0.4293
  746MOL0     H  680   5.717   9.521  -0.172  0.5487 -0.8594 -1.1548
  746MOL0     H  681   5.788   9.495  -0.017 -0.4237  2.7816 -0.3711
  746MOL0     H  682   5.495   9.416  -0.104 -1.2225  0.8576  0.7381
  746MOL0     H  683   5.551   9.404   0.061 -0.5949 -1.4550 -1.5520
  746MOL0     H  684   5.536   9.665  -0.087  0.8428  0.7657  1.0350
  746MOL0     H  685   5.598   9.635   0.069  2.4072 -1.3207 -2.1021
  746MOL0     H  686   5.374   9.560   0.147  0.6691  0.7961 -0.0081
  746MOL0     H  687   5.349   9.713   0.076 -2.3455 -1.4477  3.1155
  746MOL0     H  688   5.273   9.439  -0.053  2.0275 -0.3435 -4.1578
  746MOL0     H  689   5.290   9.592  -0.144 -0.1154 -0.1600  0.7894
  746MOL0     H  690   5.065   9.565  -0.088  0.5950 -0.9713 -0.1595
  746MOL0     H  691   5.123   9.703   0.012 -0.9589  0.4665  2.2463
  746MOL0     H  692   5.929   8.931  -0.057  1.2681 -2.1120  2.4664
  746MOL0     H  693   6.133   8.814   0.027 -0.4576 -2.3095 -3.0609
  746MOL0     H  694   6.319   8.724   0.354 -0.1842  0.0236 -2.2361
  746MOL0     H  695   6.472   8.611   0.513  0.3485  0.2025  0.1406
  746MOL0     H  696   7.628   7.108   0.523  0.0439  0.7957  0.9207
  746MOL0     H  697   7.823   7.066   0.396  1.4065  0.5775 -0.6389
  746MOL0     H  698   8.208   6.998   0.102 -1.1464  0.0006  1.1327
  746MOL0     H  699   8.430   7.043  -0.000  1.6911  1.6642 -1.0709
  746MOL0     H  700   8.706   7.263  -0.083  0.9494 -0.0153  2.0708
  746MOL0     H  701   8.541   7.204  -0.120 -0.3931 -1.6753  1.3595
  746MOL0     H  702   8.455   7.426  -0.012  1.6114  0.0548  1.1992
  746MOL0     H  703   8.508   7.412  -0.173 -1.8930  1.7704  1.0666
  746MOL0     H  704   8.712   7.454   0.047 -1.0979 -1.9323 -0.2032
  746MOL0     H  705   8.618   7.601   0.008  1.0413  0.9467  0.2407
  746MOL0     H  706   8.802   7.435  -0.178 -5.2347 -0.8889 -3.0342
  746MOL0     H  707   8.830   7.599  -0.113 -0.0123  0.9466  1.0497
  746MOL0     H  708   8.583   7.667  -0.459 -1.3463 -3.7470 -0.8688
  746MOL0     H  709   8.503   7.356   0.279  0.5046  0.4153 -1.4984
  746MOL0     H  710   8.272   7.329   0.382  0.1495 -2.5434  1.4499
  747MOL0     O  711  10.233   9.810  10.337 -0.1103 -0.0955  1.4707
  747MOL0     C  712  10.289   9.814  10.449  0.3193 -0.5076  0.2826
  747MOL0     O  713  10.277   9.716  10.546 -0.6804 -0.0924 -0.8323
  747MOL0     C  714  10.169   9.632  10.561 -0.0533 -0.0524  0.2116
  747MOL0     C  715  10.036   9.676  10.557 -0.1203  0.3125 -0.2274
  747MOL0     C  716   9.923   9.587  10.585  0.0448  0.6866 -0.3529
  747MOL0     C  717   9.950   9.455  10.605  0.3147  0.5321  0.1020
  747MOL0     O  718   9.839   9.379  10.623  0.3673  0.1757 -0.1143
  747MOL0     C  719   9.859   9.252  10.678 -0.2352 -0.7012 -0.1457
  747MOL0     C  720   9.879   9.269  10.828 -0.0310 -0.2889 -0.6700
  747MOL0     C  721   9.747   9.323  10.898 -0.7290  0.5775 -1.3525
  747MOL0     C  722   9.763   9.474  10.937  0.3086  0.8120 -1.1909
  747MOL0     C  723   9.650   9.509  11.038 -0.8572  0.0047 -0.4826
  747MOL0     C  724   9.623   9.657  11.084 -0.1896 -0.6927 -0.4951
  747MOL0     C  725   9.504   9.665  11.184  0.6387  0.7850  0.3996
  747MOL0     C  726   9.522   9.604  11.319 -0.0302  0.5426  0.7566
  747MOL0     N  727   9.628   9.669  11.390 -0.9139 -0.5612 -0.2544
  747MOL0     C  728   9.622   9.765  11.485  0.4407  0.5111  0.2707
  747MOL0     C  729   9.744   9.787  11.531  0.6659 -0.2777 -0.8198
  747MOL0     C  730   9.779   9.886  11.632 -0.2176  0.9494  1.4458
  747MOL0     C  731   9.924   9.922  11.622 -0.1667 -0.1184  0.3966
  747MOL0     C  732   9.948  10.004  11.490 -0.4093 -0.2570  0.0682
  747MOL0     C  733  10.089  10.058  11.493 -0.0272  0.1585 -0.1593
  747MOL0     O  734  10.105  10.136  11.371  0.6789 -0.2403  0.2083
  747MOL0     C  735  10.226  10.184  11.335 -0.1364 -0.7105 -0.8562
  747MOL0     C  736  10.247  10.237  11.201 -0.4129  0.3487 -0.6022
  747MOL0     C  737  10.368  10.301  11.160  0.2206  0.4311 -0.2157
  747MOL0     C  738  10.384  10.336  11.020 -0.6361 -0.9486  0.8549
  747MOL0     C  739  10.475  10.301  11.255  0.1469  0.2111  0.9819
  747MOL0     C  740  10.614  10.351  11.244  1.0776 -0.3172  0.4180
  747MOL0     O  741  10.709  10.277  11.304 -0.2163  0.4875 -0.1085
  747MOL0     C  742  10.834  10.327  11.297  0.7007 -0.2487  0.1796
  747MOL0     C  743  10.875  10.438  11.364 -0.4395  0.0382 -0.4830
  747MOL0     C  744  11.003  10.489  11.346  0.4665  0.4740 -0.1058
  747MOL0     C  745  11.095  10.434  11.256  0.3371  0.3367  0.8666
  747MOL0     O  746  11.227  10.468  11.247  0.3249  0.1955 -0.4190
  747MOL0     C  747  11.290  10.518  11.359 -0.3539 -0.4090 -0.3685
  747MOL0     C  748  11.443  10.532  11.337  0.3285 -0.8679 -0.8141
  747MOL0     C  749  11.526  10.511  11.470  0.4706  0.2251  1.1598
  747MOL0     C  750  11.673  10.575  11.470  0.2070 -0.4016  0.5201
  747MOL0     C  751  11.751  10.528  11.588 -0.0710  0.0619  0.2639
  747MOL0     C  752  11.902  10.540  11.554  0.0809  0.3700  0.5080
  747MOL0     C  753  11.993  10.538  11.674 -0.2513 -0.2624  1.4266
  747MOL0     C  754  12.133  10.595  11.652  0.2939  0.1879  0.4437
  747MOL0    Cl  755  12.139  10.737  11.554 -0.3746  0.3153  0.5583
  747MOL0     C  756  11.055  10.321  11.178  0.0164 -0.0468  0.2042
  747MOL0     C  757  10.926  10.269  11.211  0.2839 -0.4240 -0.4002
  747MOL0     O  758  10.619  10.466  11.191  0.5145 -0.6199  0.6116
  747MOL0     C  759  10.458  10.235  11.384 -0.5592 -0.0371 -0.1322
  747MOL0     C  760  10.336  10.180  11.415 -0.3297  0.3546 -1.5929
  747MOL0     N  761   9.830   9.709  11.458  0.2737  0.4202 -0.5042
  747MOL0     N  762   9.759   9.635  11.373 -0.3628  0.1856 -0.5057
  747MOL0     C  763  10.085   9.412  10.607  0.2636  0.2386 -0.2012
  747MOL0     C  764  10.190   9.503  10.601 -0.3957 -0.8561 -0.0288
  747MOL0     C  765  10.357   9.930  10.485  0.1776 -0.5513  0.1167
  747MOL0     C  766  10.439   9.936  10.601  0.1343  0.2034 -0.3837
  747MOL0     C  767  10.526  10.038  10.629 -1.2100 -0.5793  0.5541
  747MOL0     C  768  10.528  10.152  10.545 -0.1544  1.1152 -0.2360
  747MOL0     O  769  10.618  10.252  10.572  0.6038 -0.2253 -0.0677
  747MOL0     C  770  10.699  10.262  10.693 -0.3031  0.0781  0.1315
  747MOL0     C  771  10.751  10.400  10.716 -0.1721 -0.1921  0.2440
  747MOL0     C  772  10.815  10.415  10.860  0.3577 -0.0457 -0.7090
  747MOL0     C  773  10.897  10.537  10.865  0.3587 -0.3615  0.2923
  747MOL0     C  774  11.026  10.509  10.813 -0.1167 -0.5151  0.1489
  747MOL0     C  775  11.143  10.503  10.784  0.3813 -0.1919 -0.0408
  747MOL0     C  776  10.449  10.147  10.429  0.2961  0.6976 -0.2631
  747MOL0     C  777  10.360  10.042  10.401  0.1154  0.1753  0.7521
  747MOL0     H  778  10.014   9.782  10.560 -1.3270  0.0577  1.9198
  747MOL0     H  779   9.821   9.625  10.583 -1.5686 -2.9298  2.0828
  747MOL0     H  780   9.773   9.186  10.673 -2.1244  0.6346  5.8606
  747MOL0     H  781   9.947   9.198  10.643  1.3871  1.6798 -0.0017
  747MOL0     H  782   9.907   9.170  10.864  0.8521 -0.2553 -1.2411
  747MOL0     H  783   9.957   9.341  10.855 -2.5725  1.0718  4.3829
  747MOL0     H  784   9.662   9.313  10.829 -1.6101  0.1175 -0.2376
  747MOL0     H  785   9.724   9.255  10.980 -4.6908  2.7498 -0.3771
  747MOL0     H  786   9.860   9.475  10.988  0.2493 -0.7403 -1.0125
  747MOL0     H  787   9.766   9.545  10.854  1.0221  1.4229 -0.6575
  747MOL0     H  788   9.556   9.467  11.000 -2.5860 -0.1429  3.4474
  747MOL0     H  789   9.677   9.445  11.123 -1.0532  0.3026 -0.1908
  747MOL0     H  790   9.714   9.694  11.134 -0.2344  0.8295 -1.4622
  747MOL0     H  791   9.613   9.728  11.001 -2.4886  0.6246  0.7952
  747MOL0     H  792   9.486   9.772  11.195 -0.8583  0.6783 -0.6800
  747MOL0     H  793   9.414   9.622  11.140  0.1383 -1.3904  3.2547
  747MOL0     H  794   9.546   9.498  11.306 -1.6539  0.4805 -2.9047
  747MOL0     H  795   9.429   9.610  11.377 -0.3364 -0.2451  0.3704
  747MOL0     H  796   9.528   9.812  11.513  0.6508  0.4876  1.0467
  747MOL0     H  797   9.717   9.974  11.612  1.3209  2.3206  2.4210
  747MOL0     H  798   9.765   9.847  11.733 -1.6539 -3.7564 -0.3118
  747MOL0     H  799   9.976   9.825  11.620 -0.7919 -0.4799  1.0564
  747MOL0     H  800   9.954   9.968  11.717 -2.6680 -0.0336  1.2224
  747MOL0     H  801   9.883  10.087  11.462  1.7322  1.0566 -1.3047
  747MOL0     H  802   9.932   9.926  11.415 -0.7560 -1.7187  1.5823
  747MOL0     H  803  10.146   9.965  11.493 -1.0411 -0.4794 -0.1306
  747MOL0     H  804  10.109  10.122  11.580  0.5295 -1.6316  1.0809
  747MOL0     H  805  10.176  10.218  11.121 -0.5134 -2.8093  0.0737
  747MOL0     H  806  10.477  10.292  10.985  3.2587  3.6957  4.0094
  747MOL0     H  807  10.296  10.305  10.964 -1.9859  1.3632  1.5609
  747MOL0     H  808  10.389  10.445  11.014 -1.9373 -0.8916  0.4679
  747MOL0     H  809  10.805  10.496  11.423  1.4776  0.9951  0.9890
  747MOL0     H  810  11.023  10.583  11.397 -3.1932  1.4610 -0.2342
  747MOL0     H  811  11.248  10.618  11.376 -1.2192 -1.0206  1.3266
  747MOL0     H  812  11.264  10.445  11.437 -0.4249 -0.5727 -0.5462
  747MOL0     H  813  11.463  10.450  11.268  1.9712 -2.2683  1.1963
  747MOL0     H  814  11.462  10.628  11.289  2.8152 -1.0546 -0.3449
  747MOL0     H  815  11.530  10.402  11.479 -0.3821  0.1161  0.4155
  747MOL0     H  816  11.467  10.548  11.554 -1.6957 -1.0580  0.3050
  747MOL0     H  817  11.721  10.557  11.374 -2.8108  3.0172 -1.9250
  747MOL0     H  818  11.667  10.684  11.480  0.1863 -0.5109  1.9447
  747MOL0     H  819  11.726  10.423  11.610 -0.7968  0.5023  1.6087
  747MOL0     H  820  11.726  10.583  11.678 -1.7001  0.8089 -0.6073
  747MOL0     H  821  11.930  10.464  11.481 -0.5075  1.4311 -0.8742
  747MOL0     H  822  11.924  10.627  11.493 -1.8875 -0.3266 -1.3425
  747MOL0     H  823  12.000  10.434  11.708 -0.8003 -0.6501  0.3971
  747MOL0     H  824  11.942  10.593  11.754 -1.3874  0.3644  0.2968
  747MOL0     H  825  12.198  10.523  11.602  1.3797  0.0828  1.9262
  747MOL0     H  826  12.175  10.607  11.753 -1.1564  0.4470  1.0336
  747MOL0     H  827  11.124  10.268  11.113  0.6061 -0.3167  1.0476
  747MOL0     H  828  10.899  10.178  11.158 -1.3465  0.8974 -1.9714
  747MOL0     H  829  10.527  10.234  11.468  0.3597 -0.7691 -0.8640
  747MOL0     H  830  10.343  10.123  11.507  2.4032  1.0921 -1.2381
  747MOL0     H  831  10.123   9.311  10.617  3.8617  1.5178  0.4962
  747MOL0     H  832  10.294   9.474  10.613  0.3691  2.0060  1.0935
  747MOL0     H  833  10.437   9.848  10.664  1.4517 -0.6454 -1.4732
  747MOL0     H  834  10.574  10.034  10.726  1.3761 -2.6949 -0.6917
  747MOL0     H  835  10.649  10.226  10.784 -0.6244 -0.5200 -0.2758
  747MOL0     H  836  10.787  10.196  10.693 -0.7740 -0.8424  4.0204
  747MOL0     H  837  10.663  10.465  10.709  0.2037  0.3740  0.6968
  747MOL0     H  838  10.830  10.417  10.643  0.4632 -0.3309  0.8883
  747MOL0     H  839  10.884  10.338  10.896  2.1265  1.8892  0.3138
  747MOL0     H  840  10.750  10.422  10.947  2.2580 -1.4983  0.9294
  747MOL0     H  841  10.911  10.575  10.967  2.9347  1.0666 -0.4873
  747MOL0     H  842  10.851  10.616  10.804  1.9318 -1.2168 -2.1462
  747MOL0     H  843  11.249  10.493  10.769  0.9994  2.4046  1.9440
  747MOL0     H  844  10.474  10.228  10.361  1.6179 -0.7592 -1.5909
  747MOL0     H  845  10.296  10.049  10.313 -0.1951 -1.9783  0.7463
  748MOL0     O  846   4.976   4.315   6.551 -0.1638 -0.0191 -0.2793
  748MOL0     C  847   5.015   4.375   6.646  0.3256  0.1859  0.4158
  748MOL0     O  848   4.951   4.374   6.768 -0.0477 -0.0232 -0.7635
  748MOL0     C  849   4.838   4.299   6.795 -0.4744 -0.2056  0.6042
  748MOL0     C  850   4.718   4.366   6.832 -0.5041  0.0977 -1.0931
  748MOL0     C  851   4.610   4.287   6.877 -0.5862  1.2386  0.0339
  748MOL0     C  852   4.621   4.150   6.895 -0.1908  0.5456 -0.2705
  748MOL0     O  853   4.524   4.070   6.945  0.4064 -0.6670  0.1361
  748MOL0     C  854   4.392   4.116   6.950  0.4951  0.2414 -0.8534
  748MOL0     C  855   4.314   3.990   6.996  0.3003 -0.2808 -0.3266
  748MOL0     C  856   4.186   4.040   7.066  0.5354  1.0085 -0.0823
  748MOL0     C  857   4.101   3.924   7.136  0.4872  0.2859  0.5519
  748MOL0     C  858   3.978   3.976   7.208  0.3381  0.0619  0.8931
  748MOL0     C  859   3.895   3.855   7.252 -0.0741  0.4226 -0.1172
  748MOL0     C  860   3.767   3.905   7.317  0.2384  0.1787  0.3515
  748MOL0     C  861   3.670   3.972   7.211  0.3021 -0.9073  0.1588
  748MOL0     N  862   3.529   3.955   7.244  0.3326 -0.4567 -0.2691
  748MOL0     C  863   3.467   3.878   7.334 -0.6348  0.2755 -0.2330
  748MOL0     C  864   3.337   3.890   7.316 -0.0146 -0.3948 -0.5517
  748MOL0     C  865   3.228   3.828   7.401  0.2218  0.5997  0.1336
  748MOL0     C  866   3.249   3.862   7.545  0.0661  0.1416 -0.7833
  748MOL0     C  867   3.126   3.834   7.638  0.4158 -0.5528 -0.0234
  748MOL0     C  868   3.123   3.692   7.704 -0.2609  0.2881 -0.0899
  748MOL0     O  869   3.077   3.594   7.613 -0.7604 -0.7438  0.5885
  748MOL0     C  870   2.952   3.546   7.641 -0.4152  0.7136  0.1626
  748MOL0     C  871   2.839   3.591   7.582  0.0704 -0.8272  0.1456
  748MOL0     C  872   2.713   3.539   7.609  0.8080 -0.3328  0.7867
  748MOL0     C  873   2.591   3.596   7.539 -0.0852  0.2715  0.3934
  748MOL0     C  874   2.692   3.429   7.694 -0.4603 -0.2874  0.2308
  748MOL0     C  875   2.555   3.391   7.743 -0.8571  0.5656 -0.1643
  748MOL0     O  876   2.498   3.282   7.696  0.1918  0.3657  0.5651
  748MOL0     C  877   2.362   3.257   7.712 -0.4970 -0.7143 -0.0366
  748MOL0     C  878   2.292   3.201   7.604 -0.1611 -0.4077 -0.7479
  748MOL0     C  879   2.153   3.186   7.611 -1.1509 -0.1017  0.3734
  748MOL0     C  880   2.086   3.229   7.716 -0.4722 -0.5359 -1.3319
  748MOL0     O  881   1.955   3.234   7.734  0.2086 -0.5960  0.2535
  748MOL0     C  882   1.872   3.235   7.618 -0.1474  0.1071 -1.6925
  748MOL0     C  883   1.873   3.362   7.538 -0.1022 -0.4348  0.3976
  748MOL0     C  884   1.783   3.365   7.409  0.5076  0.0249 -0.2349
  748MOL0     C  885   1.788   3.508   7.351  0.1671 -0.1820 -0.2233
  748MOL0     C  886   1.721   3.502   7.212 -0.1574  0.0953 -0.7468
  748MOL0     C  887   1.567   3.496   7.224 -0.6927 -0.3416  0.0267
  748MOL0     C  888   1.498   3.541   7.095 -0.4712 -0.4737 -1.0082
  748MOL0     C  889   1.350   3.544   7.114 -0.1177 -0.3498 -0.3301
  748MOL0    Cl  890   1.255   3.626   6.983  0.3648  0.3483  0.2497
  748MOL0     C  891   2.150   3.273   7.830 -0.4343 -0.4535 -0.5680
  748MOL0     C  892   2.290   3.283   7.827  0.1839  0.3525 -0.5505
  748MOL0     O  893   2.524   3.456   7.842  0.6620  0.7900  0.2704
  748MOL0     C  894   2.805   3.377   7.742  0.4022  1.3218 -0.0931
  748MOL0     C  895   2.935   3.429   7.716  0.9989  0.0437  0.1081
  748MOL0     N  896   3.313   3.987   7.224  0.1355 -0.1448 -0.1857
  748MOL0     N  897   3.429   4.030   7.183 -0.3783 -0.0589 -0.2718
  748MOL0     C  898   4.743   4.087   6.863  0.1888 -0.4881 -0.0414
  748MOL0     C  899   4.849   4.158   6.800 -0.3211  0.7877  0.1376
  748MOL0     C  900   5.123   4.464   6.631 -0.9232  0.5746  0.0920
  748MOL0     C  901   5.165   4.549   6.731 -0.0248  0.2641 -0.0509
  748MOL0     C  902   5.266   4.651   6.712 -0.3543 -0.0591  0.4661
  748MOL0     C  903   5.341   4.646   6.590  0.3748 -0.0396 -0.9722
  748MOL0     O  904   5.453   4.726   6.559 -0.4790 -0.4171  0.1088
  748MOL0     C  905   5.494   4.830   6.650  0.2287  0.1867  0.6663
  748MOL0     C  906   5.396   4.959   6.642 -0.3558 -0.7551  0.3453
  748MOL0     C  907   5.421   5.060   6.755 -0.4538  0.1976  0.2269
  748MOL0     C  908   5.377   5.028   6.897 -0.4977  0.8665 -0.0465
  748MOL0     C  909   5.234   5.019   6.904  0.4621  0.4908 -0.6138
  748MOL0     C  910   5.111   5.006   6.913  0.2279 -0.0229  0.5070
  748MOL0     C  911   5.298   4.553   6.492 -0.4405 -0.4314 -0.0215
  748MOL0     C  912   5.185   4.474   6.504  1.0253 -0.7970 -1.0528
  748MOL0     H  913   4.719   4.475   6.828 -1.8182  0.2441  1.2515
  748MOL0     H  914   4.525   4.340   6.919 -2.4428  0.3312 -2.3786
  748MOL0     H  915   4.386   4.190   7.030  3.1130 -1.0698  0.6551
  748MOL0     H  916   4.357   4.152   6.852  0.0537 -1.6240 -1.4131
  748MOL0     H  917   4.283   3.928   6.911  3.7318 -0.5991 -1.4729
  748MOL0     H  918   4.371   3.926   7.063 -1.1094 -1.6334 -0.3772
  748MOL0     H  919   4.197   4.119   7.141 -0.2216  3.6296 -2.5548
  748MOL0     H  920   4.125   4.087   6.989  0.2498  0.5169 -0.1617
  748MOL0     H  921   4.065   3.854   7.060  0.1055  0.5726  0.4682
  748MOL0     H  922   4.161   3.869   7.210 -0.6529 -1.5866  0.1538
  748MOL0     H  923   4.001   4.040   7.294 -1.8618  0.0875  1.5273
  748MOL0     H  924   3.919   4.040   7.143 -0.0085 -0.2553  0.8872
  748MOL0     H  925   3.876   3.792   7.165 -1.7266 -1.0489  1.2328
  748MOL0     H  926   3.944   3.788   7.324 -1.4856 -0.1801  0.3242
  748MOL0     H  927   3.719   3.815   7.356 -1.7858  0.4023 -1.4019
  748MOL0     H  928   3.787   3.977   7.397  1.7875 -2.2270  2.2458
  748MOL0     H  929   3.672   3.936   7.108 -1.3767 -1.0310  0.1354
  748MOL0     H  930   3.695   4.078   7.208  1.4791 -1.1893 -1.4834
  748MOL0     H  931   3.506   3.807   7.407 -2.6932 -1.8480 -1.0854
  748MOL0     H  932   3.128   3.857   7.369  1.1592  1.6744 -2.0642
  748MOL0     H  933   3.226   3.720   7.385 -2.9847  0.8999 -2.4686
  748MOL0     H  934   3.292   3.962   7.558 -0.3154  0.2258 -0.0872
  748MOL0     H  935   3.328   3.800   7.589  1.0744  1.8482 -0.0627
  748MOL0     H  936   3.041   3.849   7.572 -0.7749 -2.3472  1.0065
  748MOL0     H  937   3.118   3.917   7.709  0.1175  2.2986 -3.1375
  748MOL0     H  938   3.056   3.694   7.791  0.2642  0.3634  0.3159
  748MOL0     H  939   3.223   3.672   7.743 -0.7431 -0.3759  0.8670
  748MOL0     H  940   2.846   3.684   7.526 -0.5482 -0.3937  0.7816
  748MOL0     H  941   2.508   3.626   7.605 -0.2353  4.4828 -1.3777
  748MOL0     H  942   2.625   3.688   7.491  2.3800 -0.3600  0.8047
  748MOL0     H  943   2.568   3.519   7.466 -1.5061 -0.5161  1.6031
  748MOL0     H  944   2.353   3.171   7.519  1.9438  1.1124  0.1477
  748MOL0     H  945   2.105   3.138   7.526 -0.0147  0.8495 -0.8425
  748MOL0     H  946   1.912   3.158   7.551  0.2976 -0.6199 -0.6201
  748MOL0     H  947   1.779   3.200   7.663  1.0124  0.1500  0.8845
  748MOL0     H  948   1.860   3.450   7.600  0.9441  1.6180 -2.0927
  748MOL0     H  949   1.978   3.382   7.513  0.0970  1.3600  2.3822
  748MOL0     H  950   1.678   3.356   7.437  0.6863  1.1205  0.8620
  748MOL0     H  951   1.794   3.280   7.340  0.8276  0.2422 -0.4525
  748MOL0     H  952   1.731   3.575   7.415  0.5177  1.6524 -1.7804
  748MOL0     H  953   1.890   3.547   7.344  0.2678  0.9463  4.3568
  748MOL0     H  954   1.741   3.409   7.159  0.3830  0.1771 -0.6901
  748MOL0     H  955   1.760   3.583   7.150  0.5806 -1.6578 -2.6640
  748MOL0     H  956   1.519   3.414   7.276 -2.0824  0.8908  0.7701
  748MOL0     H  957   1.538   3.570   7.300 -0.7335 -0.4442  0.1109
  748MOL0     H  958   1.506   3.462   7.019 -0.3635 -1.7027  0.2426
  748MOL0     H  959   1.530   3.640   7.064  1.7811 -1.1336 -0.9246
  748MOL0     H  960   1.332   3.599   7.206  1.8113  2.0532 -1.2924
  748MOL0     H  961   1.329   3.436   7.113  0.1294 -0.4080 -1.8913
  748MOL0     H  962   2.088   3.305   7.913 -0.8426  2.7268 -1.9383
  748MOL0     H  963   2.343   3.295   7.921 -2.6323  1.8303  0.9705
  748MOL0     H  964   2.798   3.286   7.801  1.2806  1.2140 -0.1438
  748MOL0     H  965   3.027   3.384   7.753 -0.0785  0.5586  3.8041
  748MOL0     H  966   4.756   3.982   6.885  3.9556 -0.4965 -1.6292
  748MOL0     H  967   4.945   4.116   6.772 -0.7091  0.6489 -1.0312
  748MOL0     H  968   5.115   4.547   6.828  0.9527 -3.8033  0.5494
  748MOL0     H  969   5.283   4.720   6.794  3.4212 -1.8443  1.3852
  748MOL0     H  970   5.508   4.791   6.751 -0.2820 -0.2562  0.5681
  748MOL0     H  971   5.588   4.871   6.612 -1.4964  2.1748 -1.8133
  748MOL0     H  972   5.289   4.937   6.636 -0.8174  1.4104  0.0484
  748MOL0     H  973   5.417   4.998   6.542  0.9429 -1.4917  0.3131
  748MOL0     H  974   5.366   5.149   6.724 -0.1916  0.7276  1.2472
  748MOL0     H  975   5.528   5.083   6.762 -0.8042  1.4668  2.4196
  748MOL0     H  976   5.421   5.096   6.971 -0.0692 -2.5577  3.1873
  748MOL0     H  977   5.419   4.937   6.940 -2.0491  0.1025 -0.0568
  748MOL0     H  978   5.004   4.998   6.925  0.1973 -0.0608  0.2111
  748MOL0     H  979   5.345   4.547   6.394  0.3247  1.2954  0.2101
  748MOL0     H  980   5.133   4.412   6.431 -1.0071 -3.1344  2.0943
  749MOL0     O  981   1.407   8.889  11.147 -0.7002  0.0536 -0.1876
  749MOL0     C  982   1.456   8.774  11.168  0.3983  0.3799 -0.8006
  749MOL0     O  983   1.382   8.671  11.206 -0.4025  0.5666 -0.1155
  749MOL0     C  984   1.247   8.678  11.206 -0.4300 -0.5130  1.0720
  749MOL0     C  985   1.169   8.739  11.101  0.1445  0.4225 -0.0103
  749MOL0     C  986   1.029   8.740  11.105  0.1518 -0.5620 -0.2365
  749MOL0     C  987   0.958   8.687  11.216 -0.0291 -0.3784  0.2421
  749MOL0     O  988   0.822   8.691  11.236 -0.4391  0.2850  0.1012
  749MOL0     C  989   0.773   8.824  11.250 -0.4352  0.2644  0.1794
  749MOL0     C  990   0.663   8.849  11.154 -0.4325 -0.1901  0.1003
  749MOL0     C  991   0.549   8.747  11.179 -0.6713 -0.3362  1.0527
  749MOL0     C  992   0.429   8.762  11.080 -1.5762  0.3994 -0.0589
  749MOL0     C  993   0.324   8.652  11.108  0.3466  0.1515  0.4169
  749MOL0     C  994   0.245   8.690  11.237 -0.6839 -0.1275 -0.6322
  749MOL0     C  995   0.108   8.626  11.240 -0.0429  0.7318 -0.4757
  749MOL0     C  996   0.072   8.545  11.362 -0.1725  0.1311 -0.0636
  749MOL0     N  997  -0.054   8.482  11.346  0.7753  0.5575 -0.4752
  749MOL0     C  998  -0.147   8.457  11.449 -0.1030  0.0085 -0.1756
  749MOL0     C  999  -0.248   8.409  11.379  1.2645  0.1724  0.3243
  749MOL0     C 1000  -0.384   8.379  11.434  1.1182  0.1419 -0.2342
  749MOL0     C 1001  -0.504   8.466  11.375 -0.0493 -0.0034  0.5031
  749MOL0     C 1002  -0.565   8.405  11.252 -0.4294  0.3169 -0.5542
  749MOL0     C 1003  -0.697   8.479  11.221  0.3555 -0.1479  0.1279
  749MOL0     O 1004  -0.770   8.411  11.116 -0.1170 -0.8502  0.0059
  749MOL0     C 1005  -0.900   8.453  11.102  0.6247 -0.1174 -0.0961
  749MOL0     C 1006  -0.963   8.386  10.997 -0.8157  0.0776 -0.0341
  749MOL0     C 1007  -1.096   8.406  10.962 -0.7939 -0.3864  0.1520
  749MOL0     C 1008  -1.158   8.303  10.869 -0.0711  0.1866  0.5084
  749MOL0     C 1009  -1.170   8.513  11.030 -0.9314 -1.0644 -0.4814
  749MOL0     C 1010  -1.310   8.555  11.004 -0.7316 -0.6744  0.4508
  749MOL0     O 1011  -1.358   8.661  11.066 -0.4185 -0.4411  0.2285
  749MOL0     C 1012  -1.495   8.669  11.074  0.3914 -0.6142 -0.3785
  749MOL0     C 1013  -1.580   8.590  11.148  0.9559  0.2111 -0.7522
  749MOL0     C 1014  -1.715   8.619  11.152  1.0776 -0.2083  0.5634
  749MOL0     C 1015  -1.766   8.736  11.098  0.4112  0.0585  0.0890
  749MOL0     O 1016  -1.901   8.777  11.115  0.0811  0.2777 -0.5360
  749MOL0     C 1017  -1.975   8.720  11.226  0.2194  0.7988 -0.6295
  749MOL0     C 1018  -2.085   8.821  11.259 -0.6748  0.0059  0.5073
  749MOL0     C 1019  -2.208   8.764  11.322 -1.0141 -0.7092  0.3641
  749MOL0     C 1020  -2.193   8.680  11.451  0.8719  0.5267  0.2579
  749MOL0     C 1021  -2.322   8.658  11.531  0.7766  0.0804  0.2431
  749MOL0     C 1022  -2.464   8.632  11.470 -0.1611 -0.0285  0.3050
  749MOL0     C 1023  -2.558   8.595  11.579 -0.8079 -0.5044 -0.1053
  749MOL0     C 1024  -2.692   8.558  11.526  0.7934  0.6647  0.1878
  749MOL0    Cl 1025  -2.681   8.392  11.455  0.2613  0.2198  0.1196
  749MOL0     C 1026  -1.675   8.825  11.038 -0.0292  0.4430 -0.4149
  749MOL0     C 1027  -1.542   8.783  11.015 -0.5057  0.0805  0.7522
  749MOL0     O 1028  -1.368   8.477  10.933 -0.1618  0.5458 -0.3705
  749MOL0     C 1029  -1.103   8.587  11.135  0.1247  0.6222  0.0252
  749MOL0     C 1030  -0.974   8.557  11.173  0.5316  0.7333  0.6603
  749MOL0     N 1031  -0.215   8.384  11.253 -0.1964  0.3117 -0.1624
  749MOL0     N 1032  -0.100   8.429  11.230 -0.0073  0.0366  0.4687
  749MOL0     C 1033   1.034   8.629  11.321 -0.9993  0.1647  1.5421
  749MOL0     C 1034   1.180   8.627  11.316  0.2487 -0.6051 -0.2099
  749MOL0     C 1035   1.600   8.758  11.137  0.7725 -0.3016 -0.5071
  749MOL0     C 1036   1.677   8.854  11.065  0.2040 -0.2918 -1.1970
  749MOL0     C 1037   1.811   8.828  11.040  0.3800 -0.1548  0.5081
  749MOL0     C 1038   1.877   8.710  11.074  0.1376  0.3559 -0.8759
  749MOL0     O 1039   2.004   8.677  11.043  0.4407  0.0116 -0.5687
  749MOL0     C 1040   2.088   8.776  10.989 -0.0360 -0.5282 -0.5616
  749MOL0     C 1041   2.139   8.874  11.090 -0.1647 -0.0272  0.7542
  749MOL0     C 1042   2.192   8.997  11.026 -0.1262 -0.9152  0.1795
  749MOL0     C 1043   2.306   8.987  10.922  0.9450  0.2839  0.6499
  749MOL0     C 1044   2.413   8.911  10.975  0.2611 -0.7517  0.4823
  749MOL0     C 1045   2.504   8.847  11.023  0.4959 -0.4674  0.0457
  749MOL0     C 1046   1.799   8.618  11.145  0.0941  0.2700  0.2892
  749MOL0     C 1047   1.659   8.635  11.169  0.2509  0.2316 -0.2839
  749MOL0     H 1048   1.230   8.775  11.019 -0.5053 -0.4059 -0.8880
  749MOL0     H 1049   0.967   8.778  11.025 -1.1604 -0.2100  0.9022
  749MOL0     H 1050   0.732   8.837  11.350 -2.9105 -0.5423 -0.6487
  749MOL0     H 1051   0.848   8.900  11.228 -1.0404  1.1597  1.1217
  749MOL0     H 1052   0.607   8.943  11.156 -2.6348 -1.4253  0.1372
  749MOL0     H 1053   0.697   8.842  11.050 -3.1370 -0.0445 -0.8923
  749MOL0     H 1054   0.585   8.646  11.155 -3.4752 -1.1005 -0.2962
  749MOL0     H 1055   0.521   8.752  11.284  0.5438  0.0086  1.3749
  749MOL0     H 1056   0.397   8.865  11.102 -0.0665  1.1493 -1.2563
  749MOL0     H 1057   0.463   8.763  10.977 -1.8374 -1.0142 -0.1743
  749MOL0     H 1058   0.260   8.662  11.020 -1.7485  0.1482  1.8567
  749MOL0     H 1059   0.363   8.551  11.105  0.9718  0.3596  1.1570
  749MOL0     H 1060   0.310   8.653  11.316  1.3550  4.3481  0.1006
  749MOL0     H 1061   0.229   8.796  11.261 -2.6933 -0.6199  0.4164
  749MOL0     H 1062   0.032   8.703  11.223 -1.7853 -1.1079 -1.4259
  749MOL0     H 1063   0.109   8.556  11.156  3.4309  1.5175 -1.2530
  749MOL0     H 1064   0.067   8.613  11.447  0.2355 -1.9218  1.7054
  749MOL0     H 1065   0.138   8.460  11.382 -0.7672 -0.5232 -0.7946
  749MOL0     H 1066  -0.135   8.489  11.552 -1.0378  3.0762 -0.9134
  749MOL0     H 1067  -0.395   8.271  11.430  0.4321  0.2378 -1.6704
  749MOL0     H 1068  -0.376   8.406  11.540 -2.2017  1.4313 -0.1948
  749MOL0     H 1069  -0.471   8.567  11.349 -1.6789  1.7873  4.5500
  749MOL0     H 1070  -0.576   8.472  11.457 -0.7724  3.3384 -0.2193
  749MOL0     H 1071  -0.573   8.297  11.267  1.7272 -0.1923 -2.5528
  749MOL0     H 1072  -0.487   8.422  11.178 -0.8191 -3.1851 -1.9683
  749MOL0     H 1073  -0.681   8.586  11.202 -2.9222  0.1817 -1.7438
  749MOL0     H 1074  -0.760   8.479  11.310  3.4923 -0.1946  2.5189
  749MOL0     H 1075  -0.909   8.303  10.952 -1.3591 -0.6386  0.6223
  749MOL0     H 1076  -1.173   8.350  10.772  2.1013  2.7695  1.3120
  749MOL0     H 1077  -1.097   8.214  10.854  0.8464  0.5012  2.1188
  749MOL0     H 1078  -1.250   8.272  10.920  0.8106 -0.0448  2.0292
  749MOL0     H 1079  -1.550   8.501  11.201  0.0350  1.3269  1.8079
  749MOL0     H 1080  -1.777   8.536  11.186  3.1045 -1.7882  0.5939
  749MOL0     H 1081  -2.014   8.624  11.192 -0.3188  0.5427  0.6351
  749MOL0     H 1082  -1.914   8.692  11.312  1.1077 -1.0843 -1.8070
  749MOL0     H 1083  -2.046   8.886  11.338  0.3083 -1.2835  1.1168
  749MOL0     H 1084  -2.107   8.885  11.173  0.5363  0.7799  0.7401
  749MOL0     H 1085  -2.271   8.719  11.245  1.5078 -0.0614 -2.2491
  749MOL0     H 1086  -2.259   8.855  11.355  5.1283  2.5490  2.3943
  749MOL0     H 1087  -2.161   8.583  11.411 -0.0279  0.2887  0.1023
  749MOL0     H 1088  -2.117   8.724  11.517  0.2946  1.4907  0.3073
  749MOL0     H 1089  -2.314   8.743  11.599 -0.0782 -1.4537  2.3946
  749MOL0     H 1090  -2.295   8.567  11.585 -0.1224  0.4003  1.2522
  749MOL0     H 1091  -2.505   8.711  11.406  0.0285 -2.3905 -3.0182
  749MOL0     H 1092  -2.449   8.544  11.407  0.1907 -0.5049  1.0390
  749MOL0     H 1093  -2.550   8.673  11.656  3.8569  0.3556 -1.1666
  749MOL0     H 1094  -2.508   8.510  11.625  2.4661  0.5596 -1.3955
  749MOL0     H 1095  -2.736   8.639  11.466  0.1885 -2.0548 -3.4037
  749MOL0     H 1096  -2.759   8.553  11.613 -0.3118  6.7615  0.1230
  749MOL0     H 1097  -1.723   8.914  10.998 -3.5686  0.1875  2.6976
  749MOL0     H 1098  -1.477   8.847  10.957  0.5197 -1.9983 -0.4897
  749MOL0     H 1099  -1.148   8.672  11.187 -2.1110  0.7265 -1.9328
  749MOL0     H 1100  -0.922   8.615  11.249  1.8137 -1.9944  2.0223
  749MOL0     H 1101   0.982   8.593  11.409 -0.5943 -0.6068  1.4811
  749MOL0     H 1102   1.235   8.602  11.406  1.2320  4.6510  0.9817
  749MOL0     H 1103   1.640   8.951  11.035  0.2174  0.1297  0.0926
  749MOL0     H 1104   1.855   8.901  10.972 -0.1335  1.4191  1.7819
  749MOL0     H 1105   2.172   8.712  10.962 -0.7043 -2.3031  1.3250
  749MOL0     H 1106   2.056   8.809  10.890 -2.7272 -2.1421 -0.3418
  749MOL0     H 1107   2.212   8.820  11.152 -0.4955 -3.4504 -1.5703
  749MOL0     H 1108   2.054   8.905  11.151 -1.5264  0.9452 -1.5452
  749MOL0     H 1109   2.221   9.063  11.107 -0.4946 -1.4706  0.7738
  749MOL0     H 1110   2.111   9.042  10.968  1.5316  1.7497 -0.2344
  749MOL0     H 1111   2.343   9.085  10.891 -1.8936  1.3585  0.3574
  749MOL0     H 1112   2.270   8.939  10.830 -0.6439  0.9546  0.8888
  749MOL0     H 1113   2.589   8.794  11.060  0.7339  0.2087  0.4847
  749MOL0     H 1114   1.829   8.522  11.186 -2.5566 -0.4026  0.8625
  749MOL0     H 1115   1.608   8.556  11.222  0.4102  0.3084 -0.0132
  750MOL0     O 1116   0.119   2.027   8.576 -0.1758 -0.1858  0.4784
  750MOL0     C 1117   0.133   1.972   8.469 -0.2309  0.8729  0.8450
  750MOL0     O 1118   0.036   1.917   8.391  0.4403 -0.6672  0.4210
  750MOL0     C 1119  -0.092   1.957   8.419 -0.3618  0.7284 -0.1893
  750MOL0     C 1120  -0.161   1.893   8.523  0.2862 -0.5435 -0.4461
  750MOL0     C 1121  -0.293   1.923   8.562  0.0309 -1.1154 -0.1309
  750MOL0     C 1122  -0.362   2.023   8.485  0.2588  0.3787 -0.9029
  750MOL0     O 1123  -0.493   2.058   8.495  1.2547 -0.0691  0.4754
  750MOL0     C 1124  -0.552   1.991   8.607  0.1703  0.7710  0.5196
  750MOL0     C 1125  -0.701   2.017   8.633 -0.5101  0.3910 -0.5795
  750MOL0     C 1126  -0.742   1.923   8.749  0.0604  0.9463  0.5649
  750MOL0     C 1127  -0.893   1.941   8.782  0.1390 -0.0410 -0.4089
  750MOL0     C 1128  -0.941   1.844   8.895 -0.5990 -0.4810 -0.0820
  750MOL0     C 1129  -0.959   1.698   8.849  0.2541  0.0140  0.2040
  750MOL0     C 1130  -1.026   1.621   8.961 -0.2583  0.6096 -0.1137
  750MOL0     C 1131  -1.055   1.477   8.901 -0.1407  0.2193  0.4774
  750MOL0     N 1132  -1.084   1.386   9.013  0.2658 -0.0921 -0.5652
  750MOL0     C 1133  -0.991   1.304   9.078  0.4963  0.9344 -0.7852
  750MOL0     C 1134  -1.051   1.194   9.135 -0.7062 -0.2472  0.4690
  750MOL0     C 1135  -0.988   1.076   9.204  0.0671  0.2332 -0.5661
  750MOL0     C 1136  -1.063   1.058   9.334 -0.0493  0.3913  0.1476
  750MOL0     C 1137  -1.039   0.926   9.403  0.0679  0.3449 -0.4686
  750MOL0     C 1138  -1.138   0.929   9.524 -0.0103 -0.3756 -0.5372
  750MOL0     O 1139  -1.120   0.813   9.614  1.1087  0.5696  0.5117
  750MOL0     C 1140  -1.204   0.794   9.718 -0.0254 -0.1793 -0.2593
  750MOL0     C 1141  -1.324   0.867   9.749 -0.4422 -0.4180 -0.6486
  750MOL0     C 1142  -1.407   0.834   9.860  0.1428  0.0699  0.4075
  750MOL0     C 1143  -1.521   0.927   9.883 -0.1673 -0.0287 -0.3091
  750MOL0     C 1144  -1.363   0.729   9.949 -0.0431 -0.2990 -0.6000
  750MOL0     C 1145  -1.421   0.693  10.082  0.0575 -0.2598  0.3955
  750MOL0     O 1146  -1.552   0.735  10.105  0.2006  0.0312  0.2777
  750MOL0     C 1147  -1.615   0.706  10.223 -0.4495 -0.5265 -0.2236
  750MOL0     C 1148  -1.549   0.758  10.341 -0.6287  0.9750 -0.9079
  750MOL0     C 1149  -1.620   0.753  10.466  0.3336 -0.8147  1.0141
  750MOL0     C 1150  -1.749   0.692  10.472  0.5222 -0.4808  0.6490
  750MOL0     O 1151  -1.826   0.675  10.583 -0.3612  0.0310  0.0610
  750MOL0     C 1152  -1.774   0.736  10.708  0.1712  0.1336  0.5811
  750MOL0     C 1153  -1.873   0.696  10.815  0.2394 -0.4537 -0.5218
  750MOL0     C 1154  -1.996   0.792  10.821 -0.9334  0.2079 -0.1170
  750MOL0     C 1155  -2.114   0.719  10.765  0.4380 -0.2851 -0.4064
  750MOL0     C 1156  -2.234   0.816  10.777  0.9533 -0.1394 -0.1998
  750MOL0     C 1157  -2.348   0.765  10.686  0.2715  0.4740 -0.3250
  750MOL0     C 1158  -2.429   0.648  10.740  0.1733 -0.6661 -0.3374
  750MOL0     C 1159  -2.526   0.710  10.855 -0.0860 -0.1795  0.8394
  750MOL0    Cl 1160  -2.653   0.827  10.799  0.1085  0.2023 -0.4278
  750MOL0     C 1161  -1.806   0.639  10.354  0.0007  0.4914 -0.0822
  750MOL0     C 1162  -1.747   0.661  10.232 -0.4567  0.7661  0.8341
  750MOL0     O 1163  -1.356   0.626  10.165  0.6825  0.1305  0.2198
  750MOL0     C 1164  -1.245   0.665   9.921  0.2030  0.0423 -0.7164
  750MOL0     C 1165  -1.168   0.694   9.800  0.6078  0.1190 -1.0124
  750MOL0     N 1166  -1.188   1.211   9.106 -0.3938 -0.5368  0.0985
  750MOL0     N 1167  -1.198   1.318   9.030 -0.2885 -0.0144 -0.9962
  750MOL0     C 1168  -0.300   2.075   8.365  0.0414 -0.5291  0.1155
  750MOL0     C 1169  -0.171   2.033   8.337  0.2695 -0.0281  0.4262
  750MOL0     C 1170   0.276   1.970   8.420  1.2623  0.2386 -0.9148
  750MOL0     C 1171   0.382   2.032   8.485  0.5672 -0.0712  0.4861
  750MOL0     C 1172   0.515   2.015   8.437 -0.0028 -0.6471  0.6678
  750MOL0     C 1173   0.546   1.936   8.323  0.1647  0.2052 -0.6009
  750MOL0     O 1174   0.672   1.891   8.278  0.0666 -0.7032  1.0557
  750MOL0     C 1175   0.789   1.952   8.330  0.4295  0.2596  0.1438
  750MOL0     C 1176   0.920   1.908   8.264 -0.2213 -0.5470  0.0975
  750MOL0     C 1177   1.032   2.022   8.259  0.3327 -0.9072  0.0086
  750MOL0     C 1178   1.180   1.971   8.233 -0.1201 -0.2191 -0.5132
  750MOL0     C 1179   1.250   2.091   8.182  0.4803 -0.0689 -0.2271
  750MOL0     C 1180   1.316   2.190   8.150 -0.1071  0.9101  0.2078
  750MOL0     C 1181   0.439   1.870   8.268  0.3550 -0.6530 -0.3750
  750MOL0     C 1182   0.307   1.892   8.312  0.7836  0.2343  0.1132
  750MOL0     H 1183  -0.112   1.805   8.562 -1.8818 -0.8132  1.9989
  750MOL0     H 1184  -0.332   1.867   8.646 -0.0466 -1.1079 -0.1626
  750MOL0     H 1185  -0.535   1.883   8.598 -2.6135  0.1420  1.7428
  750MOL0     H 1186  -0.494   2.032   8.690 -0.1594  1.7303  0.2862
  750MOL0     H 1187  -0.716   2.122   8.657 -0.1424  0.2819  0.1406
  750MOL0     H 1188  -0.756   1.995   8.541  0.5269 -0.8379 -0.9432
  750MOL0     H 1189  -0.717   1.825   8.707  1.3954  2.8031 -3.4589
  750MOL0     H 1190  -0.688   1.941   8.842 -2.5455  2.3644  1.8918
  750MOL0     H 1191  -0.914   2.046   8.806  0.5897  0.3772 -1.7572
  750MOL0     H 1192  -0.960   1.923   8.698  0.0145  0.6695 -0.4697
  750MOL0     H 1193  -0.884   1.855   8.988  0.4305  1.4367 -0.8899
  750MOL0     H 1194  -1.043   1.879   8.918  0.6398  2.0963  2.0406
  750MOL0     H 1195  -1.020   1.683   8.759 -2.2025 -0.0709  1.7716
  750MOL0     H 1196  -0.859   1.658   8.829  1.0726 -0.1048  3.8032
  750MOL0     H 1197  -0.955   1.629   9.044 -1.1199  3.1618  0.4349
  750MOL0     H 1198  -1.120   1.668   8.989 -0.8261 -1.9108  2.7590
  750MOL0     H 1199  -0.972   1.434   8.845  1.0043  0.8906  1.6190
  750MOL0     H 1200  -1.138   1.487   8.831 -1.0102 -0.6902  1.3438
  750MOL0     H 1201  -0.884   1.322   9.087  0.8295 -1.7903  3.6967
  750MOL0     H 1202  -0.991   0.990   9.136  2.3095  0.5644 -1.1641
  750MOL0     H 1203  -0.884   1.100   9.229 -0.1435  2.0752 -1.2689
  750MOL0     H 1204  -1.168   1.053   9.304  0.3676 -3.5031 -1.1831
  750MOL0     H 1205  -1.058   1.145   9.401  1.3775  0.6933 -0.3094
  750MOL0     H 1206  -0.935   0.933   9.438 -0.1725  2.8792 -0.0840
  750MOL0     H 1207  -1.056   0.836   9.343  1.5348 -0.3049  0.0238
  750MOL0     H 1208  -1.244   0.936   9.497  0.0752 -0.7374 -0.9657
  750MOL0     H 1209  -1.120   1.016   9.587 -0.4284 -0.5658 -0.1458
  750MOL0     H 1210  -1.358   0.946   9.682  0.6805  0.4851 -0.1907
  750MOL0     H 1211  -1.614   0.869   9.875  0.8196 -2.0403  1.6220
  750MOL0     H 1212  -1.517   0.973   9.982 -0.7451 -0.4778 -0.0689
  750MOL0     H 1213  -1.527   1.009   9.811 -1.2781  0.2500  0.0787
  750MOL0     H 1214  -1.444   0.786  10.340 -0.6491  1.0625 -0.5999
  750MOL0     H 1215  -1.569   0.794  10.552 -0.2479 -0.9921  1.4506
  750MOL0     H 1216  -1.680   0.694  10.746 -1.0974 -0.7715  2.9610
  750MOL0     H 1217  -1.772   0.844  10.694 -0.8878 -0.0988 -1.8741
  750MOL0     H 1218  -1.904   0.592  10.805 -0.7296 -0.0279 -2.3202
  750MOL0     H 1219  -1.815   0.713  10.906 -1.5656 -0.2545  0.6518
  750MOL0     H 1220  -1.990   0.890  10.773 -3.3518 -0.4694 -2.0056
  750MOL0     H 1221  -2.011   0.808  10.929  0.5304 -1.0984  0.3063
  750MOL0     H 1222  -2.095   0.706  10.658  2.4293  2.2660 -0.4724
  750MOL0     H 1223  -2.130   0.622  10.812  0.7241 -0.0276  0.2324
  750MOL0     H 1224  -2.203   0.919  10.756 -1.5632  0.5012 -1.1499
  750MOL0     H 1225  -2.268   0.816  10.880  3.0741  1.0032  0.5667
  750MOL0     H 1226  -2.414   0.851  10.673 -1.1992 -0.3658  1.1910
  750MOL0     H 1227  -2.314   0.728  10.588  1.0586 -2.4610  0.9341
  750MOL0     H 1228  -2.367   0.567  10.779 -0.0073 -0.6706 -0.0581
  750MOL0     H 1229  -2.496   0.609  10.663  1.3719 -2.3197 -0.5869
  750MOL0     H 1230  -2.472   0.742  10.944 -0.5687 -0.6424  1.3050
  750MOL0     H 1231  -2.585   0.626  10.892  0.3159 -2.2026 -2.6318
  750MOL0     H 1232  -1.889   0.573  10.379  1.3695 -1.2464  0.0727
  750MOL0     H 1233  -1.796   0.645  10.137  2.4408 -1.8796 -0.3978
  750MOL0     H 1234  -1.193   0.593   9.984  2.1722  0.7235 -1.4998
  750MOL0     H 1235  -1.073   0.646   9.777  0.3707 -1.6799  1.3486
  750MOL0     H 1236  -0.351   2.139   8.294  0.7571 -1.2832 -1.1262
  750MOL0     H 1237  -0.120   2.083   8.255  0.0721 -0.3226  0.1246
  750MOL0     H 1238   0.372   2.099   8.570 -0.9896 -0.3696  0.5685
  750MOL0     H 1239   0.593   2.066   8.493 -2.2536  0.8047  2.7106
  750MOL0     H 1240   0.783   2.059   8.307  0.3698  0.1151 -0.5205
  750MOL0     H 1241   0.792   1.945   8.439  0.3123  0.7337  0.1832
  750MOL0     H 1242   0.915   1.875   8.160  1.4003 -1.8545  0.3975
  750MOL0     H 1243   0.946   1.818   8.321 -0.6823  0.6938  2.3502
  750MOL0     H 1244   1.031   2.075   8.354 -1.5751 -0.7534 -0.0537
  750MOL0     H 1245   1.001   2.098   8.186  1.5975  2.8125  3.0267
  750MOL0     H 1246   1.186   1.888   8.162  0.3416  0.0322 -0.7643
  750MOL0     H 1247   1.231   1.944   8.326  1.2595 -0.7583 -1.4030
  750MOL0     H 1248   1.378   2.270   8.116 -2.0963  1.7063 -1.7821
  750MOL0     H 1249   0.467   1.805   8.185  2.6565 -2.5254  1.7345
  750MOL0     H 1250   0.222   1.855   8.257 -1.1447  0.9801  2.3820
  751MOL0     O 1251   9.941   4.133   6.192 -0.7438  0.2350  0.7558
  751MOL0     C 1252  10.021   4.073   6.263 -0.7434  0.7713 -0.0614
  751MOL0     O 1253   9.983   3.964   6.341  0.0006  0.4768 -0.2932
  751MOL0     C 1254   9.853   3.919   6.347 -0.6147  0.3755 -0.1313
  751MOL0     C 1255   9.808   3.882   6.478 -0.3018  0.3203 -0.6773
  751MOL0     C 1256   9.682   3.831   6.505 -1.4466 -0.3575  0.1810
  751MOL0     C 1257   9.601   3.790   6.398 -0.1285  0.7376  0.1985
  751MOL0     O 1258   9.492   3.713   6.402 -0.5952 -0.0693 -0.2776
  751MOL0     C 1259   9.492   3.627   6.521 -0.1126 -0.0099 -0.4182
  751MOL0     C 1260   9.382   3.518   6.517 -0.3840 -0.5738 -0.0799
  751MOL0     C 1261   9.423   3.401   6.430  0.4899 -0.3488  0.0630
  751MOL0     C 1262   9.296   3.307   6.412 -0.6852  0.8595 -0.2693
  751MOL0     C 1263   9.317   3.189   6.310 -0.4929 -0.3512  0.4566
  751MOL0     C 1264   9.454   3.127   6.322 -0.4373  0.2442 -0.8624
  751MOL0     C 1265   9.477   3.017   6.223  0.0133 -0.7004  0.2470
  751MOL0     C 1266   9.614   2.950   6.260 -0.0647 -0.0648  0.2793
  751MOL0     N 1267   9.622   2.830   6.180 -0.2436 -0.1036  0.7387
  751MOL0     C 1268   9.571   2.704   6.210  1.2490  0.3258  0.4894
  751MOL0     C 1269   9.598   2.632   6.098 -0.3812 -0.3758 -0.0243
  751MOL0     C 1270   9.555   2.489   6.063 -0.4546  0.1839  0.4159
  751MOL0     C 1271   9.402   2.499   6.027 -0.5589 -0.3117  1.1313
  751MOL0     C 1272   9.359   2.370   5.967  0.5153  0.0396  0.5781
  751MOL0     C 1273   9.208   2.381   5.941 -0.0805 -0.0898 -0.7418
  751MOL0     O 1274   9.166   2.283   5.851 -0.0772  0.2690  0.0217
  751MOL0     C 1275   9.027   2.267   5.851 -0.6764 -0.3920  0.4729
  751MOL0     C 1276   8.972   2.144   5.887 -0.3519  0.5920  0.6870
  751MOL0     C 1277   8.835   2.118   5.886 -0.3342 -0.7143 -0.1931
  751MOL0     C 1278   8.776   1.988   5.942  0.5218 -0.3354  0.5567
  751MOL0     C 1279   8.752   2.229   5.858 -0.0461  0.0083  0.0103
  751MOL0     C 1280   8.601   2.222   5.851 -0.2429  0.2313  0.2117
  751MOL0     O 1281   8.525   2.344   5.865 -0.2815 -0.1524  0.5255
  751MOL0     C 1282   8.392   2.355   5.828  0.1456  0.2546 -0.4304
  751MOL0     C 1283   8.287   2.320   5.914 -0.7856 -0.1756  0.4514
  751MOL0     C 1284   8.151   2.336   5.871 -0.2894 -0.1530 -0.5087
  751MOL0     C 1285   8.129   2.391   5.743 -0.9745 -0.0018 -1.0547
  751MOL0     O 1286   7.999   2.440   5.725 -0.2702  0.1613  0.1132
  751MOL0     C 1287   7.973   2.550   5.632  0.3896 -0.6600 -0.2657
  751MOL0     C 1288   7.903   2.653   5.728 -0.4807  0.2761  0.5349
  751MOL0     C 1289   7.997   2.705   5.833  0.0112 -0.3020  0.3862
  751MOL0     C 1290   7.984   2.859   5.848  0.4280  0.1697 -0.5206
  751MOL0     C 1291   7.874   2.880   5.957  0.4632 -0.7101 -0.3190
  751MOL0     C 1292   7.857   3.030   5.979 -0.7418  0.3021  0.4170
  751MOL0     C 1293   7.748   3.057   6.080 -0.5134  0.3841  0.5927
  751MOL0     C 1294   7.807   3.069   6.215  0.5948  0.1754  0.7836
  751MOL0    Cl 1295   7.697   3.152   6.318  0.3775 -0.2265  0.0844
  751MOL0     C 1296   8.240   2.413   5.648 -0.1002  0.2001  0.2875
  751MOL0     C 1297   8.371   2.381   5.689 -0.7554  0.1858 -0.2587
  751MOL0     O 1298   8.550   2.116   5.809 -0.0688  0.0961 -0.5544
  751MOL0     C 1299   8.807   2.351   5.831  0.1841 -0.6712  0.0737
  751MOL0     C 1300   8.941   2.368   5.811 -0.3116 -0.1563  0.8645
  751MOL0     N 1301   9.663   2.718   6.005 -0.6187  0.1068 -0.5794
  751MOL0     N 1302   9.684   2.835   6.063 -0.0399  0.2297 -0.1721
  751MOL0     C 1303   9.635   3.835   6.273  0.0463 -0.0316  0.6434
  751MOL0     C 1304   9.759   3.899   6.249  0.4274  0.1147  0.0320
  751MOL0     C 1305  10.166   4.107   6.259 -1.1145  0.4811 -1.0556
  751MOL0     C 1306  10.210   4.214   6.182  0.4729  0.1137  0.5017
  751MOL0     C 1307  10.348   4.248   6.184  0.8091 -0.4719 -0.2291
  751MOL0     C 1308  10.442   4.172   6.257  0.7371 -0.2710 -0.5133
  751MOL0     O 1309  10.571   4.225   6.258 -0.2484 -0.5313 -0.1512
  751MOL0     C 1310  10.677   4.146   6.314  0.1804  0.0380 -0.7139
  751MOL0     C 1311  10.737   4.050   6.214  0.9724  0.2748  0.2429
  751MOL0     C 1312  10.895   4.034   6.226 -0.4637 -0.1787 -0.2196
  751MOL0     C 1313  10.949   3.945   6.118 -0.8553 -0.4975  0.3947
  751MOL0     C 1314  11.083   3.927   6.167 -0.0838  0.7615 -0.7025
  751MOL0     C 1315  11.196   3.911   6.223  0.9689  0.4053  0.4550
  751MOL0     C 1316  10.393   4.060   6.329  0.5105  0.5286 -0.0787
  751MOL0     C 1317  10.258   4.020   6.326 -0.0337  0.3843  0.7154
  751MOL0     H 1318   9.886   3.897   6.552  0.0250 -2.8669 -0.2244
  751MOL0     H 1319   9.652   3.810   6.607 -3.2860 -2.1275 -0.6382
  751MOL0     H 1320   9.590   3.579   6.519 -0.4575 -0.7434 -2.4804
  751MOL0     H 1321   9.475   3.686   6.611 -1.6985 -0.9229 -0.0846
  751MOL0     H 1322   9.374   3.481   6.619  2.9538 -0.3464  0.3724
  751MOL0     H 1323   9.285   3.558   6.486 -0.2276 -0.4124 -0.3605
  751MOL0     H 1324   9.454   3.447   6.336  0.6738  0.6963  0.6169
  751MOL0     H 1325   9.504   3.355   6.486 -0.5125  0.3634  2.2207
  751MOL0     H 1326   9.277   3.261   6.510  2.0788  0.5294  0.1846
  751MOL0     H 1327   9.203   3.355   6.382 -1.0104  1.1374  1.0982
  751MOL0     H 1328   9.246   3.115   6.347 -1.7993  1.3428  1.5196
  751MOL0     H 1329   9.292   3.220   6.207 -1.3517 -3.5106 -0.3923
  751MOL0     H 1330   9.527   3.207   6.312 -0.9362  0.6493 -1.2874
  751MOL0     H 1331   9.458   3.092   6.426  0.9381  3.1860  0.1900
  751MOL0     H 1332   9.395   2.945   6.227  0.5819 -1.3517  0.3791
  751MOL0     H 1333   9.474   3.051   6.119  2.3335  0.5338  0.5109
  751MOL0     H 1334   9.601   2.904   6.359 -2.0504 -0.3758 -0.0925
  751MOL0     H 1335   9.700   3.018   6.251 -0.5685  0.3519 -1.6704
  751MOL0     H 1336   9.518   2.686   6.303  0.8511  2.5086  0.7458
  751MOL0     H 1337   9.616   2.442   5.985 -0.9580  0.1138  0.0614
  751MOL0     H 1338   9.561   2.433   6.156 -2.8542  1.1135  1.2065
  751MOL0     H 1339   9.388   2.585   5.960  0.9565 -0.5525  0.4569
  751MOL0     H 1340   9.339   2.516   6.115 -0.3254 -1.2272  1.4921
  751MOL0     H 1341   9.398   2.282   6.019 -0.7993 -0.1451  1.3295
  751MOL0     H 1342   9.400   2.362   5.866 -3.5153  0.1991 -1.2809
  751MOL0     H 1343   9.188   2.486   5.917  1.3755  0.1430 -1.0334
  751MOL0     H 1344   9.153   2.373   6.035 -0.3152 -0.7363 -0.9292
  751MOL0     H 1345   9.040   2.063   5.911 -0.5280 -0.5195 -2.1532
  751MOL0     H 1346   8.731   1.929   5.862  1.0579  2.1654 -1.7340
  751MOL0     H 1347   8.868   1.943   5.981  2.8050  2.5157 -1.1342
  751MOL0     H 1348   8.701   2.001   6.021  1.3075  3.2203  0.8997
  751MOL0     H 1349   8.317   2.289   6.014  0.8356  4.3308  1.5713
  751MOL0     H 1350   8.073   2.328   5.946 -1.4091  0.0102 -1.6116
  751MOL0     H 1351   8.066   2.593   5.595  0.3265  2.5425  2.7318
  751MOL0     H 1352   7.905   2.517   5.554 -4.8270  2.4994  2.3751
  751MOL0     H 1353   7.872   2.729   5.655  0.6177 -1.9312 -2.4809
  751MOL0     H 1354   7.812   2.612   5.773 -1.7162  0.6888 -1.4285
  751MOL0     H 1355   8.098   2.688   5.795  1.1169  3.6560  1.1408
  751MOL0     H 1356   7.978   2.655   5.928  0.9912  1.5454  1.6150
  751MOL0     H 1357   8.080   2.901   5.881  0.8942 -1.7459  0.7401
  751MOL0     H 1358   7.959   2.909   5.754 -1.3283 -0.2940 -0.3348
  751MOL0     H 1359   7.912   2.831   6.047 -0.4487  0.2815  0.6260
  751MOL0     H 1360   7.777   2.839   5.926 -1.7330  3.1478  0.8091
  751MOL0     H 1361   7.949   3.073   6.021  0.1785 -3.7322  3.1636
  751MOL0     H 1362   7.845   3.077   5.881 -0.6749  1.4660  0.9574
  751MOL0     H 1363   7.668   2.984   6.066  0.5219 -0.3073 -2.5912
  751MOL0     H 1364   7.719   3.158   6.049  1.8950  0.2940 -2.4547
  751MOL0     H 1365   7.902   3.122   6.208  0.9393 -0.4324  0.7660
  751MOL0     H 1366   7.818   2.968   6.255 -1.5693  0.1899  1.5431
  751MOL0     H 1367   8.226   2.448   5.546 -1.4473 -2.7624 -0.6524
  751MOL0     H 1368   8.458   2.386   5.625  2.8222 -0.5460  4.0077
  751MOL0     H 1369   8.754   2.445   5.815  1.6074  0.0283 -0.6382
  751MOL0     H 1370   8.977   2.454   5.756  0.6827 -0.2793  1.3030
  751MOL0     H 1371   9.561   3.812   6.197  0.9572 -1.0479  0.0341
  751MOL0     H 1372   9.795   3.913   6.148 -2.6663  3.0287 -0.8100
  751MOL0     H 1373  10.136   4.275   6.132  2.3723  0.1597 -2.4962
  751MOL0     H 1374  10.371   4.340   6.132  1.0819  1.4943  3.0359
  751MOL0     H 1375  10.755   4.213   6.351 -1.1931  1.0463  0.4739
  751MOL0     H 1376  10.643   4.110   6.411 -3.0632  2.2410 -0.8796
  751MOL0     H 1377  10.709   4.090   6.116 -2.6845 -1.1982  0.5455
  751MOL0     H 1378  10.684   3.955   6.228  0.3572  0.2640 -1.9035
  751MOL0     H 1379  10.917   4.003   6.328  1.3428 -0.7005 -0.7287
  751MOL0     H 1380  10.936   4.135   6.218  1.4163 -0.8205  0.9373
  751MOL0     H 1381  10.947   3.996   6.022  1.6921 -0.0234  0.5076
  751MOL0     H 1382  10.892   3.851   6.113 -3.2050  0.8957 -0.4706
  751MOL0     H 1383  11.294   3.902   6.266  0.8383 -2.6850  0.3000
  751MOL0     H 1384  10.455   4.000   6.395 -1.8393  1.7269  3.4806
  751MOL0     H 1385  10.227   3.930   6.377 -1.5644 -0.5143 -1.6135
  752MOL0     O 1386   2.836   0.504   0.708  0.4836 -0.8294  0.2283
  752MOL0     C 1387   2.905   0.457   0.798 -0.1344  0.7807 -0.4680
  752MOL0     O 1388   2.864   0.383   0.905 -0.1341  0.4412 -0.6193
  752MOL0     C 1389   2.737   0.328   0.909  0.0463  0.4404  0.1302
  752MOL0     C 1390   2.694   0.237   0.818 -0.3006  0.5274 -0.6536
  752MOL0     C 1391   2.560   0.199   0.825  0.1935 -0.7329  1.0917
  752MOL0     C 1392   2.474   0.244   0.926  0.3232  0.1639 -0.3255
  752MOL0     O 1393   2.341   0.198   0.946  0.1675  0.6798 -0.5612
  752MOL0     C 1394   2.273   0.120   0.840 -0.3586  0.3553  0.5334
  752MOL0     C 1395   2.295  -0.030   0.830 -0.3736 -0.6124 -0.7050
  752MOL0     C 1396   2.223  -0.069   0.704 -0.6872  0.7357 -0.1385
  752MOL0     C 1397   2.237  -0.217   0.665 -0.5399  0.1810 -0.4578
  752MOL0     C 1398   2.164  -0.243   0.528 -0.3448  0.7098  0.6140
  752MOL0     C 1399   2.181  -0.394   0.485  0.6962 -0.3443  0.5102
  752MOL0     C 1400   2.096  -0.437   0.365 -0.6843  0.0891 -0.1447
  752MOL0     C 1401   2.149  -0.562   0.298  0.4675 -0.1248  0.2426
  752MOL0     N 1402   2.168  -0.673   0.394  0.4128  0.4379  0.4441
  752MOL0     C 1403   2.075  -0.725   0.485 -0.5473  0.9790 -0.5335
  752MOL0     C 1404   2.145  -0.813   0.567  0.4020  0.6334 -0.9135
  752MOL0     C 1405   2.101  -0.885   0.688  0.0365  0.7607 -0.4624
  752MOL0     C 1406   2.039  -1.017   0.662 -0.0746 -0.2541 -0.3093
  752MOL0     C 1407   1.888  -1.000   0.623 -0.9064 -0.8104  0.1559
  752MOL0     C 1408   1.840  -1.134   0.586 -0.2343 -0.8401 -0.9873
  752MOL0     O 1409   1.700  -1.126   0.563 -0.4250  0.0491 -0.2894
  752MOL0     C 1410   1.605  -1.199   0.641  0.2294 -0.0795  0.7083
  752MOL0     C 1411   1.474  -1.201   0.591 -0.0299 -1.0549 -0.1468
  752MOL0     C 1412   1.369  -1.265   0.654 -0.6143 -0.4290  0.2128
  752MOL0     C 1413   1.240  -1.257   0.584  0.3845 -0.1730  0.0245
  752MOL0     C 1414   1.393  -1.328   0.773 -0.3585  0.2513  0.4133
  752MOL0     C 1415   1.282  -1.391   0.850  0.2391  0.0955 -0.1491
  752MOL0     O 1416   1.225  -1.499   0.795  0.1416  0.6563  0.2665
  752MOL0     C 1417   1.093  -1.538   0.815  0.7720 -0.1424  0.1365
  752MOL0     C 1418   1.045  -1.671   0.797 -0.5703 -0.5276 -0.6400
  752MOL0     C 1419   0.912  -1.718   0.824 -1.6673 -0.1967  0.0071
  752MOL0     C 1420   0.820  -1.625   0.878  0.4955  0.0352 -0.4988
  752MOL0     O 1421   0.688  -1.655   0.901  1.0866  0.4464  0.7000
  752MOL0     C 1422   0.648  -1.791   0.915  0.1108  0.5752  0.3736
  752MOL0     C 1423   0.499  -1.801   0.953  0.1603 -0.3452  1.2037
  752MOL0     C 1424   0.399  -1.744   0.858 -0.3082 -0.3781  0.5599
  752MOL0     C 1425   0.260  -1.733   0.918 -0.6671  0.2003 -0.3181
  752MOL0     C 1426   0.152  -1.675   0.823  0.9255  0.6280  0.2801
  752MOL0     C 1427   0.175  -1.527   0.803  0.5010  0.4218 -0.0150
  752MOL0     C 1428   0.038  -1.443   0.826  0.0732  1.2210 -0.1132
  752MOL0     C 1429   0.065  -1.306   0.885 -0.2410  0.3407  0.4506
  752MOL0    Cl 1430  -0.095  -1.222   0.918 -0.5416  0.1069 -0.2584
  752MOL0     C 1431   0.858  -1.494   0.903  0.8754 -0.1337 -0.3309
  752MOL0     C 1432   0.988  -1.452   0.864  0.9929 -0.2915  0.5980
  752MOL0     O 1433   1.258  -1.351   0.963 -0.0013  0.1113  0.1822
  752MOL0     C 1434   1.529  -1.323   0.824  0.1742  0.1546  0.1478
  752MOL0     C 1435   1.634  -1.259   0.761  1.0452 -0.1162 -0.4032
  752MOL0     N 1436   2.282  -0.808   0.526  0.1386  0.0969 -0.1148
  752MOL0     N 1437   2.290  -0.714   0.433 -0.5451 -0.0809 -0.5571
  752MOL0     C 1438   2.522   0.337   1.023 -0.1293  0.0746  0.7510
  752MOL0     C 1439   2.654   0.375   1.012  0.6151  0.3106 -0.1161
  752MOL0     C 1440   3.044   0.468   0.778  0.0403  0.0887 -0.0980
  752MOL0     C 1441   3.126   0.391   0.861  0.4779  0.4160 -0.4906
  752MOL0     C 1442   3.263   0.407   0.871 -0.3326 -0.3570 -1.2955
  752MOL0     C 1443   3.323   0.486   0.771  1.0353  0.0312 -0.0887
  752MOL0     O 1444   3.465   0.466   0.764  0.5578  0.5954  0.0664
  752MOL0     C 1445   3.538   0.565   0.681  0.0767  0.2643  0.2485
  752MOL0     C 1446   3.596   0.504   0.550  0.3811 -0.5528  0.1582
  752MOL0     C 1447   3.694   0.387   0.588  0.1154 -0.2313 -0.0555
  752MOL0     C 1448   3.812   0.420   0.680 -0.0925  0.2922 -0.2802
  752MOL0     C 1449   3.896   0.532   0.636 -0.1602 -0.7629 -0.0082
  752MOL0     C 1450   3.984   0.606   0.599 -0.1659 -0.5417 -0.5370
  752MOL0     C 1451   3.248   0.561   0.685 -0.0952 -0.8470 -0.6260
  752MOL0     C 1452   3.107   0.560   0.686 -0.6282 -0.3474 -0.0435
  752MOL0     H 1453   2.760   0.214   0.735  1.7779 -0.5805  1.2021
  752MOL0     H 1454   2.520   0.144   0.741  0.2748  1.5152 -0.4917
  752MOL0     H 1455   2.167   0.141   0.856 -0.1592  1.9150  0.0197
  752MOL0     H 1456   2.309   0.148   0.740 -1.6629 -1.8387 -0.6276
  752MOL0     H 1457   2.398  -0.061   0.809 -0.3279 -0.8230 -0.1901
  752MOL0     H 1458   2.262  -0.082   0.921  2.2034 -1.0305  0.0632
  752MOL0     H 1459   2.116  -0.045   0.705 -0.6257  1.0214 -0.6984
  752MOL0     H 1460   2.264  -0.004   0.627  1.2845  3.3010  2.8352
  752MOL0     H 1461   2.342  -0.242   0.649 -0.4989 -0.2722  0.4643
  752MOL0     H 1462   2.189  -0.284   0.737  0.1233 -2.8273 -2.6490
  752MOL0     H 1463   2.059  -0.214   0.537 -0.5291  1.6132 -2.8481
  752MOL0     H 1464   2.206  -0.164   0.464  0.1165  1.0584  1.3366
  752MOL0     H 1465   2.286  -0.409   0.457  1.4928  0.4426  2.8679
  752MOL0     H 1466   2.160  -0.462   0.568  0.9061  0.6237  1.3753
  752MOL0     H 1467   1.994  -0.442   0.405 -0.0733  0.7272  1.5524
  752MOL0     H 1468   2.102  -0.360   0.288  3.7601  1.1802  1.0650
  752MOL0     H 1469   2.242  -0.537   0.246 -1.1376 -0.9587 -3.4176
  752MOL0     H 1470   2.082  -0.601   0.220 -1.0970  1.5443  0.6796
  752MOL0     H 1471   1.977  -0.682   0.501 -0.3931  0.3695  2.7140
  752MOL0     H 1472   2.186  -0.894   0.756 -1.1516 -1.4122  0.8764
  752MOL0     H 1473   2.031  -0.821   0.743 -1.0006  1.1983 -2.2341
  752MOL0     H 1474   2.041  -1.081   0.751  0.0236 -0.9033 -0.7696
  752MOL0     H 1475   2.088  -1.078   0.586 -2.0611 -2.0717 -0.2377
  752MOL0     H 1476   1.864  -0.916   0.558 -3.9979 -1.1264  0.7429
  752MOL0     H 1477   1.836  -0.974   0.716 -0.8544  0.2424 -0.1036
  752MOL0     H 1478   1.871  -1.216   0.653  2.5942 -1.1679 -2.5333
  752MOL0     H 1479   1.893  -1.175   0.499  0.4420 -1.3782 -0.3426
  752MOL0     H 1480   1.458  -1.128   0.512 -0.5911  2.1441  2.6811
  752MOL0     H 1481   1.193  -1.356   0.587 -0.8781  0.1333 -3.8422
  752MOL0     H 1482   1.174  -1.181   0.628  0.1643  0.7650 -1.8201
  752MOL0     H 1483   1.247  -1.233   0.477 -2.4808 -2.1497 -0.7277
  752MOL0     H 1484   1.124  -1.734   0.756 -0.9502 -0.1759 -1.9699
  752MOL0     H 1485   0.885  -1.820   0.800  1.6171 -1.2659  0.4303
  752MOL0     H 1486   0.663  -1.864   0.834 -0.8612 -1.1331  1.6750
  752MOL0     H 1487   0.705  -1.828   1.000  0.0315 -0.2696  0.0656
  752MOL0     H 1488   0.466  -1.905   0.951 -0.6028 -0.1120 -0.1361
  752MOL0     H 1489   0.489  -1.751   1.049 -0.1224  1.6831  0.1693
  752MOL0     H 1490   0.402  -1.798   0.763  0.7683  2.5084 -1.1984
  752MOL0     H 1491   0.436  -1.645   0.828 -0.2884 -0.6474 -0.3427
  752MOL0     H 1492   0.227  -1.832   0.952  1.5621 -1.3949 -2.4486
  752MOL0     H 1493   0.277  -1.674   1.009  1.5905  0.7668 -1.0479
  752MOL0     H 1494   0.049  -1.697   0.852  0.1338  0.0982 -2.6481
  752MOL0     H 1495   0.160  -1.721   0.724 -1.6175 -1.8901  1.1324
  752MOL0     H 1496   0.260  -1.486   0.858  0.3244  1.2912 -0.3777
  752MOL0     H 1497   0.202  -1.518   0.698 -0.8425 -2.7308 -0.7467
  752MOL0     H 1498  -0.034  -1.499   0.886 -0.0605  1.1534 -0.3394
  752MOL0     H 1499  -0.022  -1.435   0.735 -0.2523  1.1025  0.0899
  752MOL0     H 1500   0.123  -1.240   0.820 -0.9422  2.7218  2.1232
  752MOL0     H 1501   0.130  -1.314   0.972  1.8812  0.5477 -1.0340
  752MOL0     H 1502   0.788  -1.423   0.948 -1.1431 -1.6609 -0.9241
  752MOL0     H 1503   1.004  -1.347   0.888 -1.4897  0.0911  0.9430
  752MOL0     H 1504   1.548  -1.372   0.919  0.8250  0.2622  0.0717
  752MOL0     H 1505   1.731  -1.240   0.805  1.1527 -0.2365 -0.5852
  752MOL0     H 1506   2.466   0.367   1.111 -2.3019  1.0997 -0.8976
  752MOL0     H 1507   2.684   0.440   1.094 -0.0181 -0.6633  0.9195
  752MOL0     H 1508   3.076   0.312   0.915  1.2388 -0.5180 -1.1303
  752MOL0     H 1509   3.320   0.356   0.948 -0.2047  1.0664 -0.4115
  752MOL0     H 1510   3.478   0.653   0.656 -0.5592 -0.8655 -2.5634
  752MOL0     H 1511   3.617   0.601   0.747  1.6939  0.9441 -1.9498
  752MOL0     H 1512   3.630   0.590   0.492 -1.9192  0.9870  0.9167
  752MOL0     H 1513   3.509   0.468   0.493  0.5419 -1.5537  0.5114
  752MOL0     H 1514   3.737   0.352   0.494  0.8939  1.5895 -0.4286
  752MOL0     H 1515   3.640   0.302   0.629  0.3523 -0.7796 -0.8549
  752MOL0     H 1516   3.875   0.331   0.683 -0.3625  0.1192  0.5663
  752MOL0     H 1517   3.778   0.435   0.783  0.5194  3.9541 -0.4832
  752MOL0     H 1518   4.053   0.681   0.569 -1.2123 -0.1557 -2.1289
  752MOL0     H 1519   3.291   0.637   0.622 -3.2042  0.6730 -1.1191
  752MOL0     H 1520   3.044   0.633   0.636  0.1695  0.6161  0.3351
  753MOL0     O 1521   7.711   7.219   3.918  0.4420  0.0149  0.5214
  753MOL0     C 1522   7.746   7.333   3.951  0.2527 -0.5030  0.4051
  753MOL0     O 1523   7.714   7.445   3.885  0.0239 -0.2922  0.4966
  753MOL0     C 1524   7.607   7.430   3.804 -0.7558 -0.1914  0.1745
  753MOL0     C 1525   7.629   7.440   3.662  0.9033  0.4506  0.1112
  753MOL0     C 1526   7.522   7.431   3.575  0.6144  0.2792 -0.1332
  753MOL0     C 1527   7.395   7.399   3.623 -1.1713 -0.5008  1.0837
  753MOL0     O 1528   7.302   7.350   3.539  0.6412 -0.2685 -0.7407
  753MOL0     C 1529   7.280   7.418   3.413 -0.0477 -1.2960  0.7827
  753MOL0     C 1530   7.142   7.452   3.387  0.3570 -0.4531 -0.2588
  753MOL0     C 1531   7.036   7.349   3.426  0.6806  1.5170  0.5773
  753MOL0     C 1532   6.910   7.367   3.337 -0.3946  0.6719 -0.2291
  753MOL0     C 1533   6.800   7.264   3.375  0.9268  1.3537 -0.0507
  753MOL0     C 1534   6.657   7.323   3.382  0.4918 -0.6289 -0.1238
  753MOL0     C 1535   6.620   7.376   3.246 -1.2351 -0.4549 -0.2144
  753MOL0     C 1536   6.498   7.467   3.252  0.1318 -0.1153  0.1238
  753MOL0     N 1537   6.385   7.411   3.318 -0.4623  0.7100 -0.8221
  753MOL0     C 1538   6.324   7.293   3.283  0.2800 -0.3506  0.3571
  753MOL0     C 1539   6.232   7.274   3.377 -0.1354 -0.3319  0.1730
  753MOL0     C 1540   6.118   7.168   3.370 -0.1149 -0.2548  0.1599
  753MOL0     C 1541   6.152   7.040   3.445  0.4547  0.3303 -0.3463
  753MOL0     C 1542   6.216   7.063   3.590  0.3961  0.5014 -0.0414
  753MOL0     C 1543   6.192   6.944   3.674 -0.2502 -0.1265  0.6726
  753MOL0     O 1544   6.069   6.953   3.738  0.2205 -0.2774 -0.0405
  753MOL0     C 1545   5.986   6.851   3.703 -0.4894  0.4616 -0.1277
  753MOL0     C 1546   6.034   6.726   3.732 -1.0058  0.2784 -0.4765
  753MOL0     C 1547   5.958   6.615   3.702 -0.2326  0.0925  0.5503
  753MOL0     C 1548   6.022   6.487   3.737 -0.0304 -0.4481  1.0718
  753MOL0     C 1549   5.823   6.629   3.649 -0.8774 -0.2465 -0.3866
  753MOL0     C 1550   5.738   6.522   3.606 -0.1940 -0.9049  0.1202
  753MOL0     O 1551   5.631   6.552   3.516  0.3088 -0.3228 -0.6714
  753MOL0     C 1552   5.576   6.435   3.465 -0.8606 -0.2621  0.2235
  753MOL0     C 1553   5.623   6.389   3.343  0.8330  0.0391 -0.1763
  753MOL0     C 1554   5.555   6.279   3.287  0.0626  0.6981 -1.4840
  753MOL0     C 1555   5.460   6.203   3.351 -0.8367  0.0774  0.4984
  753MOL0     O 1556   5.406   6.093   3.297 -0.6413  0.2147 -0.4056
  753MOL0     C 1557   5.309   6.124   3.198  0.9545 -1.5646  0.5761
  753MOL0     C 1558   5.165   6.065   3.241 -0.4391  0.4706  1.1061
  753MOL0     C 1559   5.094   5.992   3.130  1.0756 -0.6589  0.0963
  753MOL0     C 1560   5.054   6.072   3.006 -0.3326 -0.1433  0.5119
  753MOL0     C 1561   4.954   5.990   2.927  0.1599  0.2856 -0.4528
  753MOL0     C 1562   4.877   6.072   2.819 -0.1220 -0.0580  0.1775
  753MOL0     C 1563   4.791   5.990   2.727 -0.2381  0.2375 -0.0586
  753MOL0     C 1564   4.719   6.091   2.629 -0.5974  0.2923 -0.1323
  753MOL0    Cl 1565   4.671   5.997   2.487  0.5433  0.1859 -0.1964
  753MOL0     C 1566   5.426   6.248   3.481  0.5592  0.0064 -0.4591
  753MOL0     C 1567   5.474   6.372   3.533 -1.1917  0.6205 -0.2812
  753MOL0     O 1568   5.764   6.411   3.642 -0.3284  0.3907  0.2478
  753MOL0     C 1569   5.772   6.756   3.636  0.0710  0.4005 -0.3782
  753MOL0     C 1570   5.858   6.866   3.655  0.3436  0.8442  0.2493
  753MOL0     N 1571   6.240   7.375   3.472 -0.3548  0.2714 -0.0816
  753MOL0     N 1572   6.342   7.448   3.437  0.0784  0.3590 -0.2129
  753MOL0     C 1573   7.373   7.381   3.759  0.4037 -0.2284 -0.6028
  753MOL0     C 1574   7.474   7.408   3.852  0.3270  0.2494  0.0911
  753MOL0     C 1575   7.836   7.342   4.064  1.4475  0.3976  0.1558
  753MOL0     C 1576   7.880   7.465   4.104  0.8788 -1.2910 -1.3672
  753MOL0     C 1577   7.983   7.483   4.195  0.8339  0.2504 -0.8125
  753MOL0     C 1578   8.046   7.366   4.251  0.4302 -0.0728  0.0067
  753MOL0     O 1579   8.152   7.373   4.336 -0.4105  0.4016 -0.5093
  753MOL0     C 1580   8.223   7.487   4.397  0.7212 -0.9769  0.4385
  753MOL0     C 1581   8.145   7.560   4.511  0.0011 -0.3134  0.5084
  753MOL0     C 1582   8.160   7.497   4.656  0.0294  0.0620 -0.2816
  753MOL0     C 1583   8.143   7.349   4.664 -0.2983  1.2942  0.2527
  753MOL0     C 1584   8.163   7.318   4.809 -0.2386 -1.0075  0.9227
  753MOL0     C 1585   8.185   7.305   4.932  1.0158  0.2432 -0.1452
  753MOL0     C 1586   8.000   7.246   4.208 -0.6841  0.4151 -0.7692
  753MOL0     C 1587   7.897   7.227   4.123 -0.3217 -0.4840  0.6409
  753MOL0     H 1588   7.729   7.454   3.620  0.7914  2.7688  0.5148
  753MOL0     H 1589   7.547   7.440   3.469  0.8166 -1.4539 -0.2652
  753MOL0     H 1590   7.338   7.510   3.405 -1.4644 -0.1458  2.8557
  753MOL0     H 1591   7.311   7.354   3.330 -1.7379 -1.9144  0.5801
  753MOL0     H 1592   7.121   7.540   3.448  2.0694 -0.9818  1.2071
  753MOL0     H 1593   7.125   7.466   3.280  0.1406 -0.8399 -0.2743
  753MOL0     H 1594   7.069   7.248   3.399 -1.1360  1.3170 -1.0701
  753MOL0     H 1595   7.005   7.356   3.531 -2.6219 -0.8612 -0.0911
  753MOL0     H 1596   6.870   7.467   3.356  1.7255  1.0561  3.1808
  753MOL0     H 1597   6.935   7.355   3.231 -0.3873  1.2301 -0.2911
  753MOL0     H 1598   6.805   7.180   3.305 -0.9389  0.3597  0.9340
  753MOL0     H 1599   6.822   7.230   3.476 -1.9251  1.6579  0.7670
  753MOL0     H 1600   6.584   7.250   3.418  0.4831  0.3036  1.8474
  753MOL0     H 1601   6.654   7.405   3.454  0.3592 -0.7089 -0.0379
  753MOL0     H 1602   6.701   7.434   3.203 -0.8667 -1.9557 -1.6629
  753MOL0     H 1603   6.606   7.283   3.190 -1.1906 -0.5263 -0.1070
  753MOL0     H 1604   6.465   7.499   3.152  0.8734 -0.1520 -0.1340
  753MOL0     H 1605   6.529   7.556   3.308  0.1682 -2.0501  3.4613
  753MOL0     H 1606   6.356   7.222   3.207  0.0702 -0.0231 -0.0424
  753MOL0     H 1607   6.025   7.208   3.410 -0.7161  1.3673 -2.5564
  753MOL0     H 1608   6.105   7.151   3.262 -0.8037  0.4914  0.1181
  753MOL0     H 1609   6.236   6.996   3.390 -1.2919 -1.1924 -1.9705
  753MOL0     H 1610   6.065   6.975   3.443  0.7891 -0.1468 -2.7527
  753MOL0     H 1611   6.181   7.151   3.645 -2.3455 -0.2955 -0.3467
  753MOL0     H 1612   6.323   7.076   3.572  0.5855 -2.6246 -2.0358
  753MOL0     H 1613   6.264   6.941   3.756  1.6715  0.6432 -0.9131
  753MOL0     H 1614   6.196   6.855   3.610  0.3091  0.5805 -0.3080
  753MOL0     H 1615   6.121   6.712   3.796 -1.8381 -0.4991  0.5196
  753MOL0     H 1616   5.957   6.429   3.803  1.0647 -2.9808  0.0916
  753MOL0     H 1617   6.031   6.420   3.650 -0.6594  1.0419 -0.1801
  753MOL0     H 1618   6.121   6.498   3.782  0.6057 -2.2159  0.2234
  753MOL0     H 1619   5.691   6.448   3.282 -0.2184 -0.4218 -1.8702
  753MOL0     H 1620   5.587   6.235   3.193  0.5861 -0.3610 -0.8245
  753MOL0     H 1621   5.286   6.229   3.181 -0.3275 -2.0504 -1.0598
  753MOL0     H 1622   5.345   6.079   3.104  0.9407 -0.2583 -0.0695
  753MOL0     H 1623   5.182   6.005   3.331 -1.8846 -0.2697  0.9067
  753MOL0     H 1624   5.096   6.146   3.267 -0.4497  0.0742  2.3670
  753MOL0     H 1625   5.015   5.933   3.178  1.5913 -0.1821  1.5845
  753MOL0     H 1626   5.166   5.918   3.094  3.5311  0.9999  1.3517
  753MOL0     H 1627   5.019   6.171   3.039 -0.5761 -0.5541  1.5417
  753MOL0     H 1628   5.142   6.080   2.942 -1.8453 -1.3425 -1.8479
  753MOL0     H 1629   4.874   5.947   2.990  1.2799  0.0904  0.8881
  753MOL0     H 1630   5.010   5.907   2.883  0.4009 -1.0543  2.1938
  753MOL0     H 1631   4.820   6.155   2.861  0.2200  0.8782 -1.1492
  753MOL0     H 1632   4.956   6.127   2.767  0.3962  1.0238  2.0127
  753MOL0     H 1633   4.718   5.950   2.798  1.7520  0.5365  2.2814
  753MOL0     H 1634   4.847   5.912   2.675 -0.9566  0.3735 -1.0639
  753MOL0     H 1635   4.792   6.165   2.596  0.0853 -0.6094 -0.7108
  753MOL0     H 1636   4.626   6.143   2.654 -0.4378  1.6552 -2.1556
  753MOL0     H 1637   5.366   6.181   3.541 -0.9192 -0.2979 -2.2018
  753MOL0     H 1638   5.443   6.412   3.629  1.5173  1.3406  0.3775
  753MOL0     H 1639   5.670   6.781   3.609 -1.3020 -2.4471  1.6956
  753MOL0     H 1640   5.822   6.966   3.631 -4.5880 -0.4101  1.3484
  753MOL0     H 1641   7.280   7.356   3.808 -0.8427  2.0136 -1.6736
  753MOL0     H 1642   7.458   7.407   3.959  0.2856 -1.2541  0.0878
  753MOL0     H 1643   7.843   7.550   4.047  0.7958 -2.2868 -2.8557
  753MOL0     H 1644   8.006   7.585   4.223  1.6370 -0.5898  1.8680
  753MOL0     H 1645   8.309   7.440   4.446  0.2674 -1.4507  0.7856
  753MOL0     H 1646   8.256   7.563   4.325 -2.3670 -0.3752 -0.4802
  753MOL0     H 1647   8.040   7.569   4.481  0.6441  2.1570 -1.3784
  753MOL0     H 1648   8.183   7.663   4.506 -0.3966 -0.1740  0.2611
  753MOL0     H 1649   8.086   7.552   4.714 -0.8605 -0.6773 -0.6883
  753MOL0     H 1650   8.259   7.528   4.689  0.9127 -2.7355 -0.0134
  753MOL0     H 1651   8.217   7.295   4.606  0.4037  1.0858  1.3099
  753MOL0     H 1652   8.045   7.323   4.624  1.0342 -0.6949 -1.9587
  753MOL0     H 1653   8.210   7.296   5.036 -0.2968  1.9467  0.3620
  753MOL0     H 1654   8.056   7.162   4.247 -3.2044 -0.8549  0.2817
  753MOL0     H 1655   7.867   7.127   4.093  0.6076 -0.8813  1.0069
  754MOL0     O 1656  10.783   6.280   1.448 -0.5719 -0.1993 -0.2831
  754MOL0     C 1657  10.798   6.351   1.550  0.2369 -0.5934  0.6202
  754MOL0     O 1658  10.696   6.424   1.611 -0.4699 -0.4434  0.7752
  754MOL0     C 1659  10.577   6.372   1.577  0.3594  0.2457  0.1297
  754MOL0     C 1660  10.490   6.423   1.481  0.2041 -0.3831  0.7234
  754MOL0     C 1661  10.351   6.390   1.483  0.4724 -1.2596  0.3429
  754MOL0     C 1662  10.303   6.316   1.585 -0.7113 -0.7188  0.0504
  754MOL0     O 1663  10.169   6.285   1.572 -0.3478 -0.0960  0.2993
  754MOL0     C 1664  10.107   6.216   1.676  0.2918 -0.6275  0.2130
  754MOL0     C 1665   9.957   6.207   1.647  0.6200 -0.2483 -0.3236
  754MOL0     C 1666   9.890   6.338   1.670 -0.2970 -0.6788 -0.0678
  754MOL0     C 1667   9.734   6.320   1.678 -0.2773  0.6632  0.0305
  754MOL0     C 1668   9.646   6.441   1.731 -0.5789  0.3857 -0.0804
  754MOL0     C 1669   9.667   6.569   1.650 -0.0267 -0.1655 -0.3636
  754MOL0     C 1670   9.623   6.543   1.508  1.0919 -0.4901  0.1096
  754MOL0     C 1671   9.549   6.663   1.446 -0.1153  0.3286 -0.1722
  754MOL0     N 1672   9.413   6.660   1.492  0.0850  0.0398  0.2770
  754MOL0     C 1673   9.312   6.586   1.434  0.7465  0.3531  0.1322
  754MOL0     C 1674   9.200   6.645   1.468  1.0350 -0.0211  0.0102
  754MOL0     C 1675   9.067   6.608   1.403  0.0413  0.2706  0.7424
  754MOL0     C 1676   8.955   6.618   1.504  0.3471  0.2997  0.1551
  754MOL0     C 1677   8.824   6.581   1.442 -0.0518 -0.1328 -0.0641
  754MOL0     C 1678   8.704   6.627   1.527 -0.1135 -0.2845  0.6263
  754MOL0     O 1679   8.707   6.763   1.570 -0.4799 -0.1171 -0.3058
  754MOL0     C 1680   8.586   6.823   1.590  0.8928 -0.6158  0.5598
  754MOL0     C 1681   8.569   6.963   1.598  0.4678 -0.2213 -0.2819
  754MOL0     C 1682   8.451   7.036   1.615 -0.9198 -0.2453 -0.1342
  754MOL0     C 1683   8.474   7.185   1.656 -1.1426 -0.5481 -0.4294
  754MOL0     C 1684   8.326   6.962   1.612 -0.1757 -0.5897  1.3131
  754MOL0     C 1685   8.189   7.018   1.619 -0.1468 -0.1918 -0.0435
  754MOL0     O 1686   8.096   6.939   1.674  0.0230  0.3737 -0.3115
  754MOL0     C 1687   7.973   6.979   1.695 -0.3718  0.0984 -1.1439
  754MOL0     C 1688   7.946   7.063   1.804 -0.2878 -0.2826  0.5118
  754MOL0     C 1689   7.818   7.096   1.832  0.2881 -0.9470  0.0250
  754MOL0     C 1690   7.712   7.059   1.755 -0.1878  0.0432  0.2101
  754MOL0     O 1691   7.582   7.093   1.771  0.4650 -1.2926 -0.6898
  754MOL0     C 1692   7.546   7.143   1.903 -0.0413 -0.5325 -0.0819
  754MOL0     C 1693   7.398   7.163   1.914  0.2488 -0.6927 -0.0636
  754MOL0     C 1694   7.335   7.018   1.926 -0.0623 -0.1066  0.3262
  754MOL0     C 1695   7.190   7.030   1.992 -0.1982 -0.0391 -0.2001
  754MOL0     C 1696   7.096   6.905   1.966  0.2327  0.3631  0.6011
  754MOL0     C 1697   7.005   6.886   2.082 -0.4232 -0.0582  0.4159
  754MOL0     C 1698   6.913   6.766   2.063 -0.6833 -0.3802 -0.6254
  754MOL0     C 1699   6.797   6.781   2.160 -0.5271  0.0498 -0.1575
  754MOL0    Cl 1700   6.672   6.894   2.087  0.1967  0.0799  0.2465
  754MOL0     C 1701   7.740   6.981   1.640 -0.4101 -0.4925  0.3799
  754MOL0     C 1702   7.862   6.931   1.619  0.4325 -0.4007 -0.0559
  754MOL0     O 1703   8.167   7.134   1.579 -0.1503 -0.1454 -0.3134
  754MOL0     C 1704   8.336   6.823   1.598 -0.2546 -0.0065  0.6240
  754MOL0     C 1705   8.462   6.749   1.601 -0.4830 -0.0282 -0.3470
  754MOL0     N 1706   9.216   6.740   1.561 -1.4133  0.3816  0.2799
  754MOL0     N 1707   9.348   6.758   1.576 -0.0789  0.2643  0.0873
  754MOL0     C 1708  10.383   6.264   1.686 -0.3110  0.2224  0.1834
  754MOL0     C 1709  10.516   6.292   1.673 -0.8927 -0.1397 -0.3089
  754MOL0     C 1710  10.936   6.355   1.599 -0.0090  0.1422  0.1359
  754MOL0     C 1711  10.981   6.444   1.695  0.5580 -0.1819  0.1906
  754MOL0     C 1712  11.117   6.452   1.725  0.1553  0.3592  0.2397
  754MOL0     C 1713  11.210   6.351   1.689 -0.6754 -0.2702 -0.5764
  754MOL0     O 1714  11.329   6.344   1.743 -0.6364 -0.1919 -0.5042
  754MOL0     C 1715  11.413   6.462   1.713 -0.2483 -0.0439  0.2889
  754MOL0     C 1716  11.560   6.437   1.748  0.1161 -0.9362  0.6479
  754MOL0     C 1717  11.640   6.535   1.657  0.2919  0.2691 -0.5573
  754MOL0     C 1718  11.576   6.683   1.643 -0.6259 -0.1436 -0.4540
  754MOL0     C 1719  11.563   6.751   1.772  0.1476 -0.2697  0.3459
  754MOL0     C 1720  11.558   6.787   1.887  0.2598 -0.2909 -0.1669
  754MOL0     C 1721  11.164   6.257   1.605  0.6138 -0.1448 -0.3297
  754MOL0     C 1722  11.036   6.255   1.565  0.5305  0.1086  0.4478
  754MOL0     H 1723  10.528   6.498   1.412 -2.4161  2.1062  1.8295
  754MOL0     H 1724  10.286   6.418   1.401  1.8749 -0.6503 -0.5921
  754MOL0     H 1725  10.154   6.121   1.704  0.6987  0.4916  3.8869
  754MOL0     H 1726  10.113   6.276   1.767  0.4214 -0.6341  0.2086
  754MOL0     H 1727   9.933   6.168   1.547 -0.6439 -1.9657  0.5886
  754MOL0     H 1728   9.925   6.133   1.721  3.7353 -2.0758 -0.6181
  754MOL0     H 1729   9.935   6.384   1.758  0.8431 -0.5624 -0.6800
  754MOL0     H 1730   9.926   6.406   1.592  0.2017  0.1352  0.8403
  754MOL0     H 1731   9.694   6.296   1.579 -1.2881 -0.9559  0.7671
  754MOL0     H 1732   9.709   6.233   1.739  1.7384 -1.1468 -1.5733
  754MOL0     H 1733   9.540   6.416   1.727 -0.5649  0.4896 -1.8982
  754MOL0     H 1734   9.682   6.450   1.834 -2.5287 -1.7348  0.8517
  754MOL0     H 1735   9.609   6.647   1.701 -0.0551 -0.9078  0.7900
  754MOL0     H 1736   9.774   6.594   1.649  0.1486 -0.9223 -1.0249
  754MOL0     H 1737   9.700   6.517   1.435 -0.8865  0.5128 -2.4583
  754MOL0     H 1738   9.555   6.458   1.512  1.1319 -0.5604 -0.6035
  754MOL0     H 1739   9.538   6.655   1.337 -1.6663 -3.1674  0.1012
  754MOL0     H 1740   9.602   6.756   1.471  0.4742  0.3112 -1.2791
  754MOL0     H 1741   9.309   6.501   1.366 -0.6967 -1.0622  1.8628
  754MOL0     H 1742   9.054   6.686   1.328  1.7217 -0.0147  0.1112
  754MOL0     H 1743   9.064   6.511   1.353 -4.0359  0.2491  0.6979
  754MOL0     H 1744   8.952   6.721   1.544 -0.8464 -0.4938  2.3040
  754MOL0     H 1745   8.980   6.554   1.589 -0.9308 -1.2640 -0.6113
  754MOL0     H 1746   8.816   6.477   1.411  0.7687 -0.5026  0.9315
  754MOL0     H 1747   8.821   6.637   1.348  2.8384  0.8424  0.3454
  754MOL0     H 1748   8.707   6.561   1.614  4.1193 -1.6602 -0.3374
  754MOL0     H 1749   8.619   6.603   1.461 -1.5195  1.6443  1.6222
  754MOL0     H 1750   8.660   7.020   1.617 -1.6740  3.5052 -0.2600
  754MOL0     H 1751   8.380   7.230   1.688 -2.2992 -1.9217 -1.7318
  754MOL0     H 1752   8.553   7.193   1.731 -0.7961  1.2951 -0.9286
  754MOL0     H 1753   8.508   7.236   1.564 -2.0194  1.9226  0.5273
  754MOL0     H 1754   8.037   7.105   1.848  1.3586 -2.8954 -0.1740
  754MOL0     H 1755   7.814   7.165   1.916  0.7293 -0.0974 -0.6391
  754MOL0     H 1756   7.577   7.086   1.991 -2.1672 -0.6812  0.6353
  754MOL0     H 1757   7.589   7.243   1.913  0.6523 -0.8261 -0.0262
  754MOL0     H 1758   7.375   7.212   2.009 -1.7512 -1.2865 -0.1935
  754MOL0     H 1759   7.352   7.218   1.831  1.4773  1.7650  0.7920
  754MOL0     H 1760   7.399   6.958   1.991 -0.1580  2.2246  2.7595
  754MOL0     H 1761   7.326   6.973   1.827  2.9608 -1.2990  0.4943
  754MOL0     H 1762   7.209   7.042   2.099 -0.6829  1.1999 -0.2355
  754MOL0     H 1763   7.137   7.122   1.963  1.2289  1.7742  2.5079
  754MOL0     H 1764   7.155   6.814   1.954 -0.4776 -0.7230  4.0949
  754MOL0     H 1765   7.031   6.913   1.879  1.5977  1.7787 -0.3525
  754MOL0     H 1766   7.057   6.873   2.177 -0.2021  1.0371  0.4545
  754MOL0     H 1767   6.946   6.979   2.079 -1.7344 -0.8718  0.0560
  754MOL0     H 1768   6.973   6.684   2.102  2.0796  1.7774  0.0231
  754MOL0     H 1769   6.890   6.747   1.958  0.9551 -1.0684 -0.8791
  754MOL0     H 1770   6.832   6.810   2.259  1.5702 -1.8061 -0.2753
  754MOL0     H 1771   6.738   6.689   2.166 -0.8688  0.3424  1.5827
  754MOL0     H 1772   7.653   6.958   1.580  0.7728 -3.2507 -0.4142
  754MOL0     H 1773   7.864   6.867   1.532 -2.0961  0.2042 -0.6330
  754MOL0     H 1774   8.244   6.766   1.594  0.5778 -1.4120  0.6928
  754MOL0     H 1775   8.458   6.641   1.590 -0.7285  0.0736 -1.3685
  754MOL0     H 1776  10.346   6.217   1.776  1.0624  1.7035  1.5950
  754MOL0     H 1777  10.578   6.261   1.757  2.8105  3.2468 -1.5068
  754MOL0     H 1778  10.904   6.506   1.739 -1.5983 -3.6293  1.7479
  754MOL0     H 1779  11.140   6.535   1.791 -0.7775  0.3324  0.6104
  754MOL0     H 1780  11.401   6.481   1.606  1.7163  1.5124  0.2959
  754MOL0     H 1781  11.372   6.546   1.769  0.2917  0.8558 -0.6380
  754MOL0     H 1782  11.590   6.334   1.726 -1.7302 -1.1824 -0.9351
  754MOL0     H 1783  11.580   6.465   1.852  1.6489  1.9498 -0.3122
  754MOL0     H 1784  11.635   6.491   1.557 -0.8385 -1.6942  0.3184
  754MOL0     H 1785  11.746   6.541   1.683 -0.0647 -0.0325  1.0252
  754MOL0     H 1786  11.488   6.682   1.578 -1.7379 -1.7861  0.9758
  754MOL0     H 1787  11.653   6.740   1.590 -2.1416  2.1288 -0.3622
  754MOL0     H 1788  11.553   6.831   1.985  2.2545 -1.3765  0.4712
  754MOL0     H 1789  11.231   6.181   1.566 -0.8287 -2.1946  1.0038
  754MOL0     H 1790  11.001   6.181   1.493  1.6956  1.0329 -1.1475
  755MOL0     O 1791   5.778   7.358   2.981 -0.1049 -0.2025  0.5835
  755MOL0     C 1792   5.889   7.302   2.989 -0.5865 -0.0178 -0.2083
  755MOL0     O 1793   5.908   7.175   3.023 -0.4307  0.5299  0.0689
  755MOL0     C 1794   5.802   7.097   3.065  0.3879 -0.1010  0.4793
  755MOL0     C 1795   5.725   7.026   2.976  0.1783 -0.4878 -0.3199
  755MOL0     C 1796   5.625   6.944   3.029  0.2584  0.5681 -0.3508
  755MOL0     C 1797   5.611   6.929   3.168 -0.5462  0.1837  0.1672
  755MOL0     O 1798   5.522   6.847   3.223  0.0623 -0.0076 -0.5754
  755MOL0     C 1799   5.385   6.865   3.186  0.3416  0.6409 -0.3276
  755MOL0     C 1800   5.309   6.839   3.324 -0.8940 -0.0115  0.0436
  755MOL0     C 1801   5.320   6.692   3.382  0.5458 -0.0685  1.1468
  755MOL0     C 1802   5.251   6.593   3.270 -0.3569  0.4460  0.0273
  755MOL0     C 1803   5.151   6.506   3.338  0.5679  0.6433  0.3641
  755MOL0     C 1804   5.021   6.581   3.378 -0.1022  0.5575 -0.2928
  755MOL0     C 1805   4.896   6.509   3.443 -0.0998 -0.3478  0.4628
  755MOL0     C 1806   4.906   6.500   3.599  0.1990 -0.3430  1.2071
  755MOL0     N 1807   4.963   6.373   3.637 -0.2499  0.0836  0.4115
  755MOL0     C 1808   4.897   6.252   3.643  0.0014 -0.1740  0.4176
  755MOL0     C 1809   4.964   6.170   3.718 -0.7028  0.2701 -0.4467
  755MOL0     C 1810   4.941   6.025   3.761 -0.3620 -0.2886  0.5253
  755MOL0     C 1811   4.824   6.015   3.859 -1.2421  0.1341  0.1522
  755MOL0     C 1812   4.691   6.055   3.811  0.5951 -0.3295 -0.2235
  755MOL0     C 1813   4.637   5.985   3.676  0.3898  0.5993 -0.8676
  755MOL0     O 1814   4.700   6.030   3.560  0.4818 -0.4859 -0.4346
  755MOL0     C 1815   4.675   5.944   3.461 -0.3394  1.1288 -0.2551
  755MOL0     C 1816   4.551   5.957   3.397  0.0219  0.4645 -0.1645
  755MOL0     C 1817   4.515   5.888   3.280 -0.4184 -0.1859 -0.3741
  755MOL0     C 1818   4.374   5.910   3.242  0.1643  1.0056 -0.5390
  755MOL0     C 1819   4.621   5.801   3.220  0.1619 -0.5416  0.2125
  755MOL0     C 1820   4.610   5.730   3.089 -0.1033 -0.2818 -0.4835
  755MOL0     O 1821   4.727   5.729   3.019  0.0251  0.4408  0.1124
  755MOL0     C 1822   4.713   5.640   2.916  0.0315  0.8400 -0.4201
  755MOL0     C 1823   4.662   5.684   2.791  0.5568  1.4431  0.3473
  755MOL0     C 1824   4.672   5.591   2.679 -0.2754 -0.3898 -0.4134
  755MOL0     C 1825   4.714   5.458   2.689 -0.5592  0.4052 -0.1384
  755MOL0     O 1826   4.722   5.391   2.576 -0.2557  1.2202  0.5074
  755MOL0     C 1827   4.695   5.244   2.570  0.3989 -0.1299  0.5069
  755MOL0     C 1828   4.547   5.219   2.524  0.1244 -0.2359  0.3647
  755MOL0     C 1829   4.441   5.287   2.617 -0.1305  0.2160  0.2697
  755MOL0     C 1830   4.455   5.221   2.762  0.7314  1.0803 -0.2673
  755MOL0     C 1831   4.345   5.269   2.855 -0.0780 -0.3053  0.1937
  755MOL0     C 1832   4.372   5.252   2.999 -0.3593  0.2051 -0.3599
  755MOL0     C 1833   4.486   5.332   3.062 -0.0248  0.0546  0.8997
  755MOL0     C 1834   4.540   5.295   3.200  0.5923 -0.1860 -0.0886
  755MOL0    Cl 1835   4.416   5.312   3.325  0.3050 -0.1712  0.4250
  755MOL0     C 1836   4.746   5.411   2.817  0.7959 -0.9026 -0.0630
  755MOL0     C 1837   4.750   5.508   2.929 -0.1254 -0.1754 -0.0002
  755MOL0     O 1838   4.505   5.715   3.041  0.4596  0.2584  0.2895
  755MOL0     C 1839   4.747   5.803   3.285  1.3379  0.2977 -0.7469
  755MOL0     C 1840   4.776   5.865   3.403 -0.2403 -0.4228  0.6279
  755MOL0     N 1841   5.065   6.245   3.774  0.6511  0.1205  0.4188
  755MOL0     N 1842   5.067   6.365   3.728  0.8037  0.1130  0.1937
  755MOL0     C 1843   5.702   6.987   3.256  0.4771  0.5013 -1.1796
  755MOL0     C 1844   5.796   7.071   3.200 -1.4705 -0.9529 -0.0385
  755MOL0     C 1845   6.013   7.381   2.945 -0.3054 -1.0489  0.3915
  755MOL0     C 1846   6.003   7.514   2.886  0.3847  0.4892  0.7629
  755MOL0     C 1847   6.111   7.599   2.858  0.6285 -0.0478 -0.3504
  755MOL0     C 1848   6.244   7.544   2.881  0.4934  0.4592  0.4128
  755MOL0     O 1849   6.353   7.616   2.864 -0.1925  0.9644 -0.1372
  755MOL0     C 1850   6.352   7.708   2.758 -0.7678  0.0779  0.3134
  755MOL0     C 1851   6.488   7.785   2.733  0.7484  1.0028 -0.5250
  755MOL0     C 1852   6.598   7.689   2.696  0.3141  0.3942  0.6426
  755MOL0     C 1853   6.706   7.768   2.621 -0.0256 -0.1722  0.1241
  755MOL0     C 1854   6.783   7.685   2.533 -0.5403 -0.0001  0.6575
  755MOL0     C 1855   6.855   7.614   2.466  0.2977 -0.5467 -0.2902
  755MOL0     C 1856   6.258   7.420   2.945  0.0622  0.4043  0.7601
  755MOL0     C 1857   6.143   7.333   2.978 -0.1732 -0.7007  0.5926
  755MOL0     H 1858   5.735   7.028   2.868 -1.5835  3.1938 -0.5641
  755MOL0     H 1859   5.563   6.893   2.955  1.4146  0.0933 -1.0170
  755MOL0     H 1860   5.371   6.969   3.155  0.7867  0.7952 -0.0079
  755MOL0     H 1861   5.354   6.799   3.104 -0.4127  1.0489 -0.3773
  755MOL0     H 1862   5.347   6.893   3.412  0.8860 -1.3989  0.1921
  755MOL0     H 1863   5.206   6.876   3.320 -0.7906  0.9074  3.2039
  755MOL0     H 1864   5.424   6.660   3.388 -0.0093 -1.9864  1.2550
  755MOL0     H 1865   5.273   6.677   3.480  0.3830  2.2115  1.4739
  755MOL0     H 1866   5.209   6.639   3.180 -0.2541 -0.5201 -0.5328
  755MOL0     H 1867   5.324   6.521   3.231 -2.4587 -1.2834 -0.9384
  755MOL0     H 1868   5.112   6.436   3.263 -0.7615  2.9356 -1.2187
  755MOL0     H 1869   5.188   6.448   3.422  1.7592  1.2640  0.2858
  755MOL0     H 1870   5.041   6.668   3.441  0.0779  2.5113 -2.8867
  755MOL0     H 1871   4.980   6.636   3.293 -1.7110  2.4951  1.5954
  755MOL0     H 1872   4.804   6.563   3.420 -0.6646  0.3308  3.8331
  755MOL0     H 1873   4.899   6.407   3.403 -0.8918  0.4451 -1.7672
  755MOL0     H 1874   4.808   6.514   3.645 -0.0475 -3.3701  1.8196
  755MOL0     H 1875   4.958   6.582   3.650 -1.9543  1.7760  0.1611
  755MOL0     H 1876   4.816   6.218   3.579  2.5398 -1.3012 -2.4932
  755MOL0     H 1877   4.925   5.958   3.676 -1.5674 -0.2487  0.7112
  755MOL0     H 1878   5.037   5.987   3.799 -1.1532 -1.4513  1.4532
  755MOL0     H 1879   4.846   6.082   3.942 -1.7254  1.1858 -0.5574
  755MOL0     H 1880   4.819   5.912   3.896  0.1066  0.4689  1.3485
  755MOL0     H 1881   4.684   6.163   3.793 -2.6334 -0.7966 -2.8180
  755MOL0     H 1882   4.618   6.025   3.886 -2.5588  3.4880 -1.3837
  755MOL0     H 1883   4.528   5.989   3.668 -0.0794 -3.6856  0.7205
  755MOL0     H 1884   4.651   5.877   3.689 -3.6727  0.2399  3.0698
  755MOL0     H 1885   4.490   6.036   3.439 -0.5493 -0.0449 -0.0238
  755MOL0     H 1886   4.343   5.868   3.146 -0.8718 -0.3987  0.3631
  755MOL0     H 1887   4.304   5.856   3.306 -0.8937  0.3104 -2.2142
  755MOL0     H 1888   4.358   6.018   3.237 -0.0626  1.1796  2.3405
  755MOL0     H 1889   4.601   5.773   2.787 -0.2962  0.8373 -1.4122
  755MOL0     H 1890   4.653   5.625   2.578  2.0483  0.7460 -0.5432
  755MOL0     H 1891   4.767   5.206   2.497 -1.6511 -2.8651 -0.2400
  755MOL0     H 1892   4.721   5.199   2.667 -0.9674 -0.7273  0.6192
  755MOL0     H 1893   4.520   5.241   2.421 -2.7287  1.6244  1.3831
  755MOL0     H 1894   4.542   5.111   2.539  1.1968 -0.3714 -0.1370
  755MOL0     H 1895   4.339   5.268   2.583 -0.7660  2.6959  0.6194
  755MOL0     H 1896   4.458   5.394   2.628  1.5461  0.0457 -0.3558
  755MOL0     H 1897   4.437   5.114   2.751  0.3826  1.1355 -0.2373
  755MOL0     H 1898   4.552   5.232   2.811  1.0451  0.8901 -0.8416
  755MOL0     H 1899   4.248   5.221   2.838 -0.0061 -1.0504  1.7213
  755MOL0     H 1900   4.342   5.377   2.839  0.6137  0.1823  2.8593
  755MOL0     H 1901   4.286   5.288   3.057 -0.7658 -0.8785 -0.2758
  755MOL0     H 1902   4.389   5.149   3.032  5.1104  0.3773 -1.6599
  755MOL0     H 1903   4.456   5.438   3.058 -1.6965 -0.4127 -2.7342
  755MOL0     H 1904   4.577   5.319   3.002  0.4851 -1.1472  1.9055
  755MOL0     H 1905   4.624   5.360   3.227  0.5517 -0.0521 -0.2855
  755MOL0     H 1906   4.573   5.191   3.203  0.1616 -0.3142  1.6120
  755MOL0     H 1907   4.764   5.306   2.840  2.1244 -1.0931 -1.7547
  755MOL0     H 1908   4.787   5.477   3.026  0.2246  1.0713  0.2766
  755MOL0     H 1909   4.827   5.745   3.240  0.5848 -0.9571 -0.4948
  755MOL0     H 1910   4.875   5.866   3.448  1.0888  1.2636 -2.0754
  755MOL0     H 1911   5.691   6.984   3.364 -1.7658  2.3042 -1.2689
  755MOL0     H 1912   5.865   7.119   3.269  1.5660 -0.7900 -2.9328
  755MOL0     H 1913   5.909   7.562   2.862  1.4234  2.6715  0.8021
  755MOL0     H 1914   6.098   7.701   2.822  3.6183  0.3360 -0.5525
  755MOL0     H 1915   6.314   7.659   2.668  2.0969 -2.0410  0.0932
  755MOL0     H 1916   6.278   7.784   2.783 -1.0050  0.7853 -2.1994
  755MOL0     H 1917   6.510   7.834   2.828 -0.5019 -1.1982  0.9963
  755MOL0     H 1918   6.475   7.864   2.658 -0.0211  0.5972 -0.8394
  755MOL0     H 1919   6.545   7.613   2.637  1.4605  0.2053 -0.1832
  755MOL0     H 1920   6.638   7.631   2.779 -0.1579  0.0000  0.6023
  755MOL0     H 1921   6.778   7.811   2.691 -2.1382  2.6943  0.7120
  755MOL0     H 1922   6.656   7.846   2.564 -0.8651  0.6013  1.8568
  755MOL0     H 1923   6.912   7.551   2.400  1.4566  0.5438 -0.3799
  755MOL0     H 1924   6.358   7.395   2.979 -0.0243 -1.7516 -0.4061
  755MOL0     H 1925   6.141   7.234   3.023 -2.8465 -1.3629 -0.7824
  756MOL0     O 1926   8.672   2.052   6.263 -0.2044  0.0846 -0.7603
  756MOL0     C 1927   8.572   2.118   6.289 -0.3312 -0.0214 -0.1372
  756MOL0     O 1928   8.570   2.250   6.285  0.4072  0.0563  0.3286
  756MOL0     C 1929   8.671   2.325   6.240 -0.2011 -0.1664 -0.3913
  756MOL0     C 1930   8.641   2.427   6.152 -0.9372 -0.4557 -0.3721
  756MOL0     C 1931   8.739   2.506   6.098 -0.3155 -0.3010  0.2743
  756MOL0     C 1932   8.871   2.479   6.124 -1.2450 -0.4628 -0.6718
  756MOL0     O 1933   8.973   2.547   6.063  0.3683  0.0656  0.0981
  756MOL0     C 1934   8.948   2.690   6.038  0.7061  0.1158  0.5334
  756MOL0     C 1935   9.073   2.775   6.065  0.7244 -0.3905 -0.0309
  756MOL0     C 1936   9.116   2.786   6.216 -0.1073 -0.3627  0.4008
  756MOL0     C 1937   9.036   2.882   6.302  0.0115  0.1047 -0.3958
  756MOL0     C 1938   9.080   2.854   6.447  0.4303 -0.1292 -0.2431
  756MOL0     C 1939   8.993   2.947   6.532  0.6635  0.2402 -0.5648
  756MOL0     C 1940   9.042   3.084   6.547  0.4959  0.2147 -0.0712
  756MOL0     C 1941   8.955   3.162   6.647  0.5138 -0.1827 -0.3683
  756MOL0     N 1942   8.993   3.308   6.649  0.9153  0.4153 -0.2607
  756MOL0     C 1943   8.935   3.404   6.577 -0.3728 -0.2388  0.4050
  756MOL0     C 1944   9.004   3.521   6.601  0.3936 -0.0502 -0.0255
  756MOL0     C 1945   8.980   3.658   6.538  0.2119  0.4520  0.1892
  756MOL0     C 1946   8.839   3.711   6.575  0.2908 -1.1229 -0.2220
  756MOL0     C 1947   8.830   3.748   6.723  0.3400 -0.5875  0.1847
  756MOL0     C 1948   8.706   3.821   6.766  0.2892 -0.2823  0.0294
  756MOL0     O 1949   8.685   3.836   6.905  0.3031 -0.1084 -0.3889
  756MOL0     C 1950   8.572   3.914   6.943 -0.1243  0.5946  0.6899
  756MOL0     C 1951   8.489   3.969   6.850 -0.0857 -0.2586  1.0554
  756MOL0     C 1952   8.397   4.062   6.891  1.0785 -1.0544  0.5792
  756MOL0     C 1953   8.316   4.127   6.779 -0.2057 -0.2427 -0.9952
  756MOL0     C 1954   8.375   4.081   7.032 -0.0467 -0.3065  0.7397
  756MOL0     C 1955   8.273   4.175   7.084 -0.5733 -0.0872 -0.3785
  756MOL0     O 1956   8.241   4.163   7.211  0.1366 -0.4233 -0.6916
  756MOL0     C 1957   8.170   4.271   7.263 -0.5677 -0.9796  0.1046
  756MOL0     C 1958   8.248   4.362   7.329 -0.1923  0.0736 -0.2765
  756MOL0     C 1959   8.203   4.476   7.390  0.0647 -0.0387 -0.3458
  756MOL0     C 1960   8.061   4.492   7.391 -0.0475 -0.5710  0.0846
  756MOL0     O 1961   8.010   4.601   7.455 -0.3587 -0.0709 -0.1921
  756MOL0     C 1962   8.037   4.725   7.386 -0.9381  0.0309  0.0038
  756MOL0     C 1963   7.930   4.746   7.272  0.0170 -0.3854 -0.2246
  756MOL0     C 1964   7.803   4.784   7.335 -0.7194  0.5770 -0.6767
  756MOL0     C 1965   7.695   4.706   7.264  0.0313 -0.0512  0.0357
  756MOL0     C 1966   7.559   4.731   7.327 -0.5207  0.0658  0.2804
  756MOL0     C 1967   7.446   4.642   7.266 -0.0865  1.0484 -0.3725
  756MOL0     C 1968   7.411   4.657   7.114 -0.3538  0.3733  0.0801
  756MOL0     C 1969   7.329   4.533   7.058 -0.1588  0.4120  0.4333
  756MOL0    Cl 1970   7.205   4.489   7.169 -0.0440 -0.0275 -0.1504
  756MOL0     C 1971   7.975   4.401   7.336  0.2625  0.1979 -1.0314
  756MOL0     C 1972   8.028   4.289   7.264  0.3098  0.2229 -0.8887
  756MOL0     O 1973   8.227   4.255   7.007 -0.5715 -0.5273 -0.6026
  756MOL0     C 1974   8.444   4.005   7.126  0.5347  0.1554 -0.6309
  756MOL0     C 1975   8.541   3.925   7.079 -0.0333  0.2828 -0.6587
  756MOL0     N 1976   9.093   3.490   6.697  0.2725 -0.6522  0.8431
  756MOL0     N 1977   9.084   3.370   6.728 -0.1094 -0.0564 -0.3229
  756MOL0     C 1978   8.907   2.380   6.212 -0.0044  0.8365 -0.3366
  756MOL0     C 1979   8.812   2.301   6.267  0.3898  0.6539  0.0179
  756MOL0     C 1980   8.442   2.053   6.331  0.6799 -0.1150  0.4494
  756MOL0     C 1981   8.327   2.135   6.348  0.2042  0.7216 -0.0086
  756MOL0     C 1982   8.214   2.071   6.396  0.2331 -0.5508  0.8339
  756MOL0     C 1983   8.198   1.937   6.425 -0.4174 -0.3546  0.2018
  756MOL0     O 1984   8.069   1.904   6.465  0.8644  1.0718  0.9486
  756MOL0     C 1985   8.057   1.781   6.534 -0.8150  0.5565 -0.6557
  756MOL0     C 1986   7.910   1.766   6.559  0.8142 -0.8801 -0.1507
  756MOL0     C 1987   7.872   1.643   6.644  0.2590  0.1667  0.3011
  756MOL0     C 1988   7.877   1.521   6.559  0.0589  0.6822 -0.3146
  756MOL0     C 1989   7.792   1.413   6.608 -0.2687 -0.0079  0.0671
  756MOL0     C 1990   7.712   1.319   6.631 -1.0999  0.6970  0.3752
  756MOL0     C 1991   8.302   1.859   6.377  1.0825 -0.7318 -0.1523
  756MOL0     C 1992   8.419   1.916   6.336 -0.4876 -0.0033  0.0692
  756MOL0     H 1993   8.539   2.441   6.118 -1.0754  1.4649  0.7287
  756MOL0     H 1994   8.719   2.585   6.026 -0.7777 -1.2024 -0.6025
  756MOL0     H 1995   8.915   2.697   5.934  0.0004 -0.3667  0.7197
  756MOL0     H 1996   8.864   2.729   6.095  0.3878 -0.5217  0.5062
  756MOL0     H 1997   9.157   2.726   6.016  3.1955  1.9478  1.6004
  756MOL0     H 1998   9.060   2.868   6.009  0.8276  0.1079  0.7623
  756MOL0     H 1999   9.108   2.685   6.259 -1.7972 -0.0946  0.7600
  756MOL0     H 2000   9.221   2.816   6.220  0.0066 -0.8199  1.2051
  756MOL0     H 2001   9.046   2.988   6.277  1.9969  0.7269  2.5673
  756MOL0     H 2002   8.930   2.860   6.283  0.1826  0.5662 -2.0418
  756MOL0     H 2003   9.060   2.750   6.473 -2.4498  1.3215  4.7377
  756MOL0     H 2004   9.187   2.875   6.455  0.9073 -2.5460  0.4468
  756MOL0     H 2005   8.893   2.963   6.491  0.8817 -0.8792 -1.6021
  756MOL0     H 2006   8.978   2.904   6.632 -1.7554  1.7559 -0.1720
  756MOL0     H 2007   9.143   3.075   6.589 -0.2992 -3.5616  1.4931
  756MOL0     H 2008   9.045   3.151   6.461 -1.5056  1.9023  1.0698
  756MOL0     H 2009   8.963   3.112   6.744 -1.2231  1.1931  0.5465
  756MOL0     H 2010   8.852   3.154   6.611  1.4475 -0.9882 -3.1975
  756MOL0     H 2011   8.859   3.386   6.502 -0.0174 -0.2002  0.0358
  756MOL0     H 2012   9.057   3.726   6.577  0.9210 -1.9107  3.3548
  756MOL0     H 2013   8.979   3.651   6.429  5.8039 -0.3955 -0.1306
  756MOL0     H 2014   8.759   3.642   6.546  1.7316 -1.9632 -2.5184
  756MOL0     H 2015   8.812   3.800   6.518  1.4704 -1.2840 -1.0690
  756MOL0     H 2016   8.916   3.807   6.755 -0.5750 -0.4391  2.5557
  756MOL0     H 2017   8.841   3.654   6.778 -1.0496 -0.2479  1.1108
  756MOL0     H 2018   8.613   3.778   6.729 -0.9756  2.5897 -0.3460
  756MOL0     H 2019   8.715   3.924   6.731  0.9013 -0.6950 -1.0727
  756MOL0     H 2020   8.492   3.949   6.743 -1.0943  1.0648  0.7577
  756MOL0     H 2021   8.305   4.234   6.799  1.2032 -0.5880  2.0861
  756MOL0     H 2022   8.349   4.100   6.678  3.7052 -2.1040  0.5596
  756MOL0     H 2023   8.222   4.075   6.795 -0.1511 -0.4532 -1.3434
  756MOL0     H 2024   8.353   4.344   7.350  0.1388  1.3637 -0.7275
  756MOL0     H 2025   8.263   4.553   7.438  0.1178 -1.1992  1.5428
  756MOL0     H 2026   8.034   4.813   7.451 -0.3107  0.2523 -0.2643
  756MOL0     H 2027   8.136   4.719   7.341 -0.9661 -1.7679  0.1114
  756MOL0     H 2028   7.976   4.821   7.207 -0.4916 -0.3331 -0.5312
  756MOL0     H 2029   7.926   4.653   7.215 -1.4952  0.1932 -1.1134
  756MOL0     H 2030   7.779   4.889   7.315 -2.5706  0.8501  2.2103
  756MOL0     H 2031   7.803   4.773   7.444  0.0837  1.0226 -0.6258
  756MOL0     H 2032   7.699   4.712   7.155  2.9592  0.5975  0.0924
  756MOL0     H 2033   7.727   4.603   7.283  4.8067  1.5510  2.1260
  756MOL0     H 2034   7.530   4.833   7.298 -0.2147 -0.0628 -0.4950
  756MOL0     H 2035   7.561   4.724   7.436  1.7454  2.4543  0.4755
  756MOL0     H 2036   7.475   4.537   7.276  1.5916  1.3588 -1.4821
  756MOL0     H 2037   7.358   4.664   7.327 -0.1683  1.2053 -0.5480
  756MOL0     H 2038   7.494   4.682   7.047 -1.1554  2.9024 -0.0607
  756MOL0     H 2039   7.349   4.746   7.105  1.4547  1.4683 -3.0853
  756MOL0     H 2040   7.408   4.459   7.043  0.4007  1.2985 -1.2098
  756MOL0     H 2041   7.288   4.544   6.957  0.1054 -0.5598  0.2058
  756MOL0     H 2042   7.867   4.403   7.352  0.5465 -3.0989  2.6067
  756MOL0     H 2043   7.959   4.221   7.215 -0.2554  0.3337 -0.2566
  756MOL0     H 2044   8.424   4.010   7.233 -1.0251 -0.1022 -0.8978
  756MOL0     H 2045   8.604   3.878   7.155 -2.3423 -1.1002  0.5058
  756MOL0     H 2046   9.011   2.355   6.233  0.2434  2.4384  0.4679
  756MOL0     H 2047   8.832   2.213   6.327  0.7403  1.5128  1.1921
  756MOL0     H 2048   8.311   2.241   6.332  2.1396  1.1602  0.6631
  756MOL0     H 2049   8.132   2.130   6.435 -1.5521 -1.0861 -1.8145
  756MOL0     H 2050   8.086   1.688   6.484  0.1814 -0.1969  1.2034
  756MOL0     H 2051   8.110   1.773   6.629 -1.0886 -0.4109 -0.5691
  756MOL0     H 2052   7.864   1.772   6.460  3.2332 -0.0696 -1.3157
  756MOL0     H 2053   7.879   1.848   6.623 -0.7014 -2.2648  0.9733
  756MOL0     H 2054   7.786   1.653   6.711  3.1204  0.2661  4.3700
  756MOL0     H 2055   7.955   1.623   6.713  0.6198  0.4715 -0.0404
  756MOL0     H 2056   7.974   1.475   6.541  1.3788  3.3010 -0.3209
  756MOL0     H 2057   7.835   1.531   6.459  0.0707 -0.3594 -0.4333
  756MOL0     H 2058   7.639   1.241   6.640  0.5049 -0.6634  2.7652
  756MOL0     H 2059   8.273   1.755   6.381  0.2680 -0.4747  0.8819
  756MOL0     H 2060   8.501   1.854   6.301  1.4761  0.9489  2.6577
  757MOL0     O 2061   6.681   4.474   9.650 -0.0667 -0.3424  0.5815
  757MOL0     C 2062   6.736   4.549   9.573  0.0892 -0.6207  0.1638
  757MOL0     O 2063   6.675   4.654   9.506 -0.1241  0.2337 -0.8413
  757MOL0     C 2064   6.543   4.673   9.534 -0.4992  0.1530  0.2451
  757MOL0     C 2065   6.506   4.794   9.568 -0.3041 -0.7492 -0.0707
  757MOL0     C 2066   6.373   4.827   9.588 -0.5739 -0.0450 -0.3843
  757MOL0     C 2067   6.269   4.739   9.578  0.8465  0.5264  0.0690
  757MOL0     O 2068   6.133   4.768   9.602 -0.9417  0.5988  0.4463
  757MOL0     C 2069   6.091   4.881   9.683 -0.1672 -0.0314  0.4464
  757MOL0     C 2070   5.938   4.859   9.715 -0.1639  0.0116 -0.4022
  757MOL0     C 2071   5.844   4.893   9.602  0.2099 -0.3751 -0.3099
  757MOL0     C 2072   5.703   4.911   9.652 -0.4868 -0.0898  0.5920
  757MOL0     C 2073   5.608   4.964   9.549 -0.2612  0.4884 -0.6099
  757MOL0     C 2074   5.582   4.870   9.426 -0.2083 -0.3048  0.2797
  757MOL0     C 2075   5.513   4.738   9.470  0.1892  0.8389  0.0227
  757MOL0     C 2076   5.453   4.652   9.356  0.6948 -0.6883 -0.3320
  757MOL0     N 2077   5.394   4.526   9.380 -0.7670 -0.7676  0.2825
  757MOL0     C 2078   5.316   4.491   9.485  0.6281 -0.6769  0.1122
  757MOL0     C 2079   5.283   4.366   9.470  0.2945 -0.7956 -0.9233
  757MOL0     C 2080   5.191   4.303   9.563 -0.3939 -0.2557  0.4925
  757MOL0     C 2081   5.042   4.300   9.523 -0.2636 -1.0185  0.6461
  757MOL0     C 2082   4.983   4.436   9.547  0.1091 -1.6185  0.3089
  757MOL0     C 2083   4.834   4.453   9.514 -0.4360  0.3599 -0.5077
  757MOL0     O 2084   4.755   4.327   9.530  0.0044 -0.6005  0.1902
  757MOL0     C 2085   4.617   4.342   9.545 -0.4857  0.5622 -0.8886
  757MOL0     C 2086   4.546   4.226   9.576 -0.4555  0.1813  0.2877
  757MOL0     C 2087   4.414   4.226   9.611  0.9026 -1.0321 -0.8719
  757MOL0     C 2088   4.356   4.101   9.676  0.7665 -1.1029  0.5632
  757MOL0     C 2089   4.342   4.346   9.609 -0.6996  0.4081 -0.5716
  757MOL0     C 2090   4.201   4.340   9.633  0.4992 -0.5526 -0.0433
  757MOL0     O 2091   4.143   4.448   9.695 -0.4588  0.7974  0.4244
  757MOL0     C 2092   4.007   4.438   9.724 -0.0475 -0.1210 -0.0369
  757MOL0     C 2093   3.903   4.428   9.632 -0.4543  0.4122 -0.0335
  757MOL0     C 2094   3.765   4.440   9.672  0.7549  0.1628 -0.4430
  757MOL0     C 2095   3.736   4.467   9.811  0.6467 -0.8771  0.2708
  757MOL0     O 2096   3.611   4.484   9.870  0.2637  0.2863 -0.7189
  757MOL0     C 2097   3.509   4.409   9.797 -0.2695  0.1918 -0.8266
  757MOL0     C 2098   3.405   4.348   9.884 -0.0256  0.9769 -0.3769
  757MOL0     C 2099   3.472   4.243   9.982  0.7609  0.1018  0.8209
  757MOL0     C 2100   3.372   4.191  10.091  0.0442  0.0579  0.4997
  757MOL0     C 2101   3.433   4.088  10.192 -0.2020  0.6714 -0.2614
  757MOL0     C 2102   3.508   4.144  10.311  0.0376  0.1828 -0.2037
  757MOL0     C 2103   3.553   4.034  10.411 -0.5386 -0.2680  0.5027
  757MOL0     C 2104   3.642   4.073  10.522  0.3520 -0.0773  0.4386
  757MOL0    Cl 2105   3.786   4.165  10.469 -0.4249 -0.3558 -0.3125
  757MOL0     C 2106   3.849   4.481   9.892 -0.1903 -0.5076 -0.3562
  757MOL0     C 2107   3.984   4.467   9.851  0.0225 -0.5980  0.2672
  757MOL0     O 2108   4.139   4.254   9.576  0.3990  0.2026 -0.0625
  757MOL0     C 2109   4.408   4.468   9.589 -0.3359 -0.0486  0.0412
  757MOL0     C 2110   4.551   4.467   9.564  0.2923  0.3903  0.4741
  757MOL0     N 2111   5.356   4.312   9.362 -0.0819 -0.7581 -0.1471
  757MOL0     N 2112   5.436   4.409   9.320 -0.0190  0.1101  0.3083
  757MOL0     C 2113   6.311   4.609   9.538  0.7187 -0.2822 -0.5713
  757MOL0     C 2114   6.449   4.580   9.511  0.2325  0.8496  0.4712
  757MOL0     C 2115   6.870   4.517   9.534 -0.5565 -0.4291  0.0778
  757MOL0     C 2116   6.955   4.491   9.638 -1.0370  0.4251  0.8199
  757MOL0     C 2117   7.095   4.461   9.615 -0.0179 -0.0738 -0.3055
  757MOL0     C 2118   7.144   4.472   9.485  0.0496  0.1116  0.0333
  757MOL0     O 2119   7.285   4.443   9.480 -0.2861 -0.5894 -0.1230
  757MOL0     C 2120   7.357   4.496   9.369  0.5013  0.2105 -0.3017
  757MOL0     C 2121   7.504   4.489   9.398 -0.1635  0.2027 -0.0873
  757MOL0     C 2122   7.536   4.570   9.527  0.7008  1.0655 -0.4932
  757MOL0     C 2123   7.656   4.505   9.598  0.5129  0.4213 -0.8557
  757MOL0     C 2124   7.779   4.491   9.526 -1.3527  0.2001 -0.9551
  757MOL0     C 2125   7.876   4.468   9.457  0.3634 -0.5075  0.6912
  757MOL0     C 2126   7.062   4.512   9.378 -0.0867 -0.1112 -0.1308
  757MOL0     C 2127   6.922   4.537   9.405  0.3004  0.7014  0.2755
  757MOL0     H 2128   6.582   4.872   9.577 -2.5914  1.4140  2.4762
  757MOL0     H 2129   6.355   4.930   9.616 -0.4824  0.1846 -1.1237
  757MOL0     H 2130   6.163   4.880   9.765  1.9768  2.7478 -1.2319
  757MOL0     H 2131   6.111   4.974   9.628  1.6686  0.0043  1.1222
  757MOL0     H 2132   5.920   4.755   9.747 -0.9697  0.1466 -0.3957
  757MOL0     H 2133   5.917   4.927   9.798 -0.5608  2.4317 -2.3726
  757MOL0     H 2134   5.880   4.991   9.567  2.6142 -0.8341  0.6887
  757MOL0     H 2135   5.856   4.811   9.531 -1.5025 -1.5981  0.7368
  757MOL0     H 2136   5.657   4.817   9.684 -1.1783  0.2532  0.6185
  757MOL0     H 2137   5.714   4.988   9.728  2.0082 -0.3317  0.5650
  757MOL0     H 2138   5.514   4.982   9.601  0.6416 -1.3684  1.8437
  757MOL0     H 2139   5.651   5.057   9.510  0.7344 -0.7738 -2.6928
  757MOL0     H 2140   5.506   4.926   9.370  0.2547 -0.5335 -0.5804
  757MOL0     H 2141   5.666   4.851   9.359 -0.2090 -0.9999  0.4718
  757MOL0     H 2142   5.577   4.675   9.532 -1.3520 -0.2090  0.6035
  757MOL0     H 2143   5.426   4.758   9.534  0.5999 -1.1917  1.3232
  757MOL0     H 2144   5.537   4.644   9.287  0.5367 -0.7812 -0.5160
  757MOL0     H 2145   5.370   4.710   9.313  0.4968  0.4356  1.4584
  757MOL0     H 2146   5.277   4.562   9.557 -2.7087 -1.0980 -1.1017
  757MOL0     H 2147   5.220   4.198   9.554 -1.8335 -0.6446  0.0482
  757MOL0     H 2148   5.205   4.331   9.667  2.0950  0.5931 -0.0125
  757MOL0     H 2149   4.984   4.227   9.580 -0.3307 -2.2362 -0.9193
  757MOL0     H 2150   5.035   4.283   9.415 -1.8455  2.7011  0.0294
  757MOL0     H 2151   5.045   4.500   9.484  0.1160 -0.7065  1.2127
  757MOL0     H 2152   5.001   4.475   9.648 -0.8368 -0.6972  0.1469
  757MOL0     H 2153   4.837   4.486   9.409 -1.1623  0.9490 -0.3485
  757MOL0     H 2154   4.786   4.530   9.575 -2.5349 -3.4340  3.1302
  757MOL0     H 2155   4.604   4.135   9.581  0.9069  0.9785 -0.5577
  757MOL0     H 2156   4.285   4.045   9.614 -0.1075 -0.5225  1.0185
  757MOL0     H 2157   4.434   4.028   9.697  2.3807 -0.0656 -1.4236
  757MOL0     H 2158   4.301   4.123   9.768 -1.2152  0.7026 -0.9581
  757MOL0     H 2159   3.935   4.407   9.531  1.2985 -0.5159  0.6699
  757MOL0     H 2160   3.692   4.439   9.592 -0.8449 -0.0696  0.9586
  757MOL0     H 2161   3.460   4.481   9.731 -0.8837 -0.0344 -0.6255
  757MOL0     H 2162   3.549   4.329   9.733  0.1905 -0.3305  0.0879
  757MOL0     H 2163   3.347   4.420   9.943 -0.6620 -1.4377  2.1487
  757MOL0     H 2164   3.335   4.290   9.823  1.6072 -0.9184 -0.5361
  757MOL0     H 2165   3.555   4.295  10.033  0.3728  1.1996  0.3703
  757MOL0     H 2166   3.505   4.169   9.909  0.5039  0.1720  0.6324
  757MOL0     H 2167   3.324   4.268  10.153 -1.0985  1.8428 -2.3979
  757MOL0     H 2168   3.301   4.127  10.038  1.2160 -1.1518  0.3505
  757MOL0     H 2169   3.500   4.014  10.147  0.7770  0.5250  1.3328
  757MOL0     H 2170   3.342   4.041  10.231  0.5404 -0.7681 -0.2206
  757MOL0     H 2171   3.595   4.197  10.269  0.4291 -1.2388 -1.2552
  757MOL0     H 2172   3.445   4.214  10.366 -1.1181  0.8534 -2.2760
  757MOL0     H 2173   3.613   3.960  10.358 -1.6969 -0.6989 -0.2519
  757MOL0     H 2174   3.465   3.980  10.449  0.8860 -3.0679  0.0596
  757MOL0     H 2175   3.663   3.979  10.573 -0.5189  0.2877  1.5068
  757MOL0     H 2176   3.589   4.138  10.593  2.2645  1.0478  0.9188
  757MOL0     H 2177   3.842   4.514   9.995  3.4707 -0.7773  0.1050
  757MOL0     H 2178   4.064   4.475   9.924 -0.1384 -0.6481  0.4504
  757MOL0     H 2179   4.356   4.563   9.597 -0.8128 -0.2250 -0.8854
  757MOL0     H 2180   4.594   4.566   9.548 -1.1466  1.0008  0.1807
  757MOL0     H 2181   6.236   4.531   9.532  1.7297 -1.3010 -0.3144
  757MOL0     H 2182   6.474   4.480   9.477 -6.1206 -1.5719  1.6382
  757MOL0     H 2183   6.922   4.474   9.740  2.2170  0.2103  1.9524
  757MOL0     H 2184   7.160   4.449   9.701  1.7392  2.0542 -1.2224
  757MOL0     H 2185   7.321   4.444   9.280 -1.5390  2.4922 -0.9364
  757MOL0     H 2186   7.334   4.603   9.361 -1.2586 -0.2061 -1.4192
  757MOL0     H 2187   7.564   4.530   9.316 -1.7939  0.3603 -1.2525
  757MOL0     H 2188   7.524   4.383   9.414 -3.1321 -0.2698  1.2905
  757MOL0     H 2189   7.451   4.567   9.596  0.3003 -0.0527 -1.0133
  757MOL0     H 2190   7.553   4.678   9.517 -0.1528  1.5951  2.5940
  757MOL0     H 2191   7.628   4.412   9.649  2.7549  1.1449  1.9407
  757MOL0     H 2192   7.672   4.564   9.688  0.9356  2.6111 -2.2845
  757MOL0     H 2193   7.962   4.444   9.398 -1.4916 -4.1783 -0.8216
  757MOL0     H 2194   7.099   4.509   9.276 -1.5943  1.5894 -0.7770
  757MOL0     H 2195   6.853   4.568   9.327  0.8498  0.4728 -0.3156
  758MOL0     O 2196   5.442   0.541   5.590 -0.0746 -0.1147 -0.0783
  758MOL0     C 2197   5.504   0.447   5.547  0.5548  0.1488 -0.1040
  758MOL0     O 2198   5.449   0.341   5.488  0.7294 -0.5561 -0.1181
  758MOL0     C 2199   5.322   0.354   5.434  0.7341 -0.4994 -0.2514
  758MOL0     C 2200   5.301   0.347   5.294 -0.5304  0.3562 -0.5387
  758MOL0     C 2201   5.170   0.335   5.230 -0.5641 -0.4145 -0.6428
  758MOL0     C 2202   5.064   0.317   5.315  0.1197 -0.0352 -0.7183
  758MOL0     O 2203   4.939   0.307   5.253  0.1803 -0.1206  0.6162
  758MOL0     C 2204   4.846   0.230   5.327  0.7645 -0.4862  0.4863
  758MOL0     C 2205   4.741   0.321   5.395  0.3293  0.8682  0.2715
  758MOL0     C 2206   4.656   0.394   5.289  0.8435 -0.1218  0.1346
  758MOL0     C 2207   4.574   0.511   5.340 -0.1282 -0.3287  0.1867
  758MOL0     C 2208   4.491   0.588   5.228 -0.4812  0.4407  1.0814
  758MOL0     C 2209   4.392   0.684   5.294 -0.5085  0.6335 -0.6195
  758MOL0     C 2210   4.378   0.829   5.252  0.1276 -0.2196  0.2510
  758MOL0     C 2211   4.337   0.832   5.107  0.0059  0.7845  1.0572
  758MOL0     N 2212   4.192   0.851   5.093 -0.0604 -0.2373 -0.5291
  758MOL0     C 2213   4.103   0.744   5.079  0.1190  0.2969  0.5068
  758MOL0     C 2214   3.979   0.797   5.078  0.4968  0.1477 -0.4632
  758MOL0     C 2215   3.844   0.725   5.075 -0.7502 -0.3027 -0.0760
  758MOL0     C 2216   3.745   0.815   5.146  0.6946 -0.1795  0.3497
  758MOL0     C 2217   3.604   0.756   5.154 -0.1205  0.3506  0.4855
  758MOL0     C 2218   3.495   0.815   5.058 -1.3774 -0.4114  0.4618
  758MOL0     O 2219   3.362   0.772   5.084  0.1426  0.6211 -0.9772
  758MOL0     C 2220   3.252   0.801   5.007  0.3902 -0.4703 -0.5945
  758MOL0     C 2221   3.135   0.729   5.032  0.0979 -0.3915 -0.6808
  758MOL0     C 2222   3.012   0.762   4.967  0.3718 -0.0352 -1.0475
  758MOL0     C 2223   2.897   0.685   5.018 -0.0774  0.7856  0.6520
  758MOL0     C 2224   3.006   0.867   4.877  0.0145 -0.2405  0.4026
  758MOL0     C 2225   2.873   0.923   4.808  0.1886  0.7794 -0.0927
  758MOL0     O 2226   2.879   1.041   4.736 -0.7773 -0.3479  0.1515
  758MOL0     C 2227   2.768   1.100   4.703 -0.1341 -0.1256  0.4368
  758MOL0     C 2228   2.746   1.117   4.561  0.0847  0.1508 -0.6761
  758MOL0     C 2229   2.625   1.175   4.519 -0.2801 -0.4459 -0.0780
  758MOL0     C 2230   2.520   1.201   4.599  0.6795 -1.2720  0.5364
  758MOL0     O 2231   2.402   1.259   4.557  0.9780 -0.3709 -0.1646
  758MOL0     C 2232   2.379   1.303   4.422  0.3789 -0.4815 -0.2252
  758MOL0     C 2233   2.459   1.438   4.399 -0.2124  0.1224  0.2347
  758MOL0     C 2234   2.461   1.480   4.256  0.4983  1.0004 -0.2446
  758MOL0     C 2235   2.524   1.613   4.243  0.7325  0.4392  0.5982
  758MOL0     C 2236   2.514   1.664   4.104  0.4323  0.0494  0.5670
  758MOL0     C 2237   2.595   1.800   4.078 -0.2038 -0.3913  0.3982
  758MOL0     C 2238   2.581   1.844   3.929 -0.2326  0.5630  0.3817
  758MOL0     C 2239   2.626   1.988   3.899  0.3752 -0.1208 -0.4271
  758MOL0    Cl 2240   2.619   2.024   3.726  0.7544  0.1976  0.2239
  758MOL0     C 2241   2.529   1.178   4.734  0.2145 -0.8792  0.4230
  758MOL0     C 2242   2.652   1.129   4.785 -0.2420  0.2385 -0.4392
  758MOL0     O 2243   2.768   0.864   4.834 -1.0829  0.2778  0.1176
  758MOL0     C 2244   3.124   0.942   4.855  0.4819  0.4140 -0.7140
  758MOL0     C 2245   3.245   0.902   4.911 -0.1120  0.4065 -0.0544
  758MOL0     N 2246   3.995   0.933   5.088  0.4512 -0.5874  0.0011
  758MOL0     N 2247   4.128   0.972   5.092  0.6780  0.4560  0.4641
  758MOL0     C 2248   5.080   0.336   5.450  0.4821  0.3958 -0.2465
  758MOL0     C 2249   5.204   0.342   5.512  0.2200 -0.6136 -0.6231
  758MOL0     C 2250   5.650   0.450   5.558  0.1192 -0.0972 -0.7759
  758MOL0     C 2251   5.730   0.334   5.556  0.1000  0.1929 -0.2762
  758MOL0     C 2252   5.867   0.344   5.575  0.4070 -0.2775 -0.1788
  758MOL0     C 2253   5.930   0.472   5.582  0.0049 -0.1376  0.6988
  758MOL0     O 2254   6.067   0.472   5.600  0.2928 -0.8157  0.1937
  758MOL0     C 2255   6.138   0.595   5.603 -0.3726  0.3503  0.3925
  758MOL0     C 2256   6.287   0.578   5.590 -0.1156  0.5780  0.0355
  758MOL0     C 2257   6.350   0.541   5.725 -0.5851  0.0020 -1.5206
  758MOL0     C 2258   6.506   0.533   5.736  0.4118 -0.8168  0.1202
  758MOL0     C 2259   6.562   0.416   5.658 -0.3742  0.0311 -0.1444
  758MOL0     C 2260   6.609   0.330   5.594  0.1481 -0.0898  0.7907
  758MOL0     C 2261   5.853   0.582   5.582 -0.3331 -0.9336 -0.9416
  758MOL0     C 2262   5.718   0.579   5.566 -0.2952  0.1511  0.8555
  758MOL0     H 2263   5.388   0.334   5.230 -0.2736 -2.1073  0.1979
  758MOL0     H 2264   5.142   0.327   5.125  1.0052  4.1513 -1.6615
  758MOL0     H 2265   4.791   0.177   5.248 -0.5170  1.9050 -0.3164
  758MOL0     H 2266   4.880   0.151   5.395 -1.5554 -1.4332  0.6607
  758MOL0     H 2267   4.667   0.261   5.448  0.8786 -3.1082 -3.0005
  758MOL0     H 2268   4.785   0.389   5.469 -1.3541  1.9791  0.2992
  758MOL0     H 2269   4.726   0.431   5.214  1.3190  0.2811  0.7604
  758MOL0     H 2270   4.599   0.327   5.224  2.1710  0.5805 -1.8487
  758MOL0     H 2271   4.504   0.459   5.405  0.4077 -1.5685 -0.1972
  758MOL0     H 2272   4.629   0.586   5.398  0.7747 -1.3020  0.6326
  758MOL0     H 2273   4.570   0.647   5.181 -1.5289  2.0204  1.2269
  758MOL0     H 2274   4.429   0.525   5.164 -2.8874  1.4518  2.2478
  758MOL0     H 2275   4.294   0.635   5.294  0.7578 -2.5318  3.4932
  758MOL0     H 2276   4.431   0.685   5.397  3.9993  0.4570 -2.1008
  758MOL0     H 2277   4.317   0.893   5.317  2.1830  1.0342  1.0460
  758MOL0     H 2278   4.475   0.879   5.258  1.0390 -2.1222  2.6369
  758MOL0     H 2279   4.370   0.737   5.063  0.7586  0.4791  2.2227
  758MOL0     H 2280   4.387   0.912   5.053  2.8182 -0.6197  1.3761
  758MOL0     H 2281   4.112   0.637   5.065  0.7098  0.6025 -1.9978
  758MOL0     H 2282   3.810   0.727   4.972  2.5687  3.5484 -1.3837
  758MOL0     H 2283   3.875   0.631   5.121  2.0798  1.8919  3.1091
  758MOL0     H 2284   3.738   0.913   5.098 -0.4821  0.4460  1.7410
  758MOL0     H 2285   3.774   0.843   5.247 -0.6820  0.2808  0.6316
  758MOL0     H 2286   3.586   0.748   5.261  1.6995 -1.7632  0.7167
  758MOL0     H 2287   3.614   0.654   5.115 -1.3220 -0.3346  1.8895
  758MOL0     H 2288   3.508   0.789   4.953 -0.3388 -0.5641  0.6177
  758MOL0     H 2289   3.504   0.924   5.063  1.4935 -0.4670 -1.0914
  758MOL0     H 2290   3.138   0.652   5.108  0.0411  0.9722  0.7414
  758MOL0     H 2291   2.849   0.643   4.929 -1.2161 -3.2483  2.9101
  758MOL0     H 2292   2.925   0.599   5.080  3.1780  1.2554 -0.0163
  758MOL0     H 2293   2.826   0.748   5.072 -1.6703 -1.2579  1.0933
  758MOL0     H 2294   2.822   1.092   4.488 -2.7621 -2.0148 -3.1628
  758MOL0     H 2295   2.628   1.204   4.414  2.1415  0.6724  0.2355
  758MOL0     H 2296   2.406   1.234   4.341 -0.9076  2.7588 -3.7100
  758MOL0     H 2297   2.271   1.319   4.413  0.6709  2.3904  0.5549
  758MOL0     H 2298   2.415   1.519   4.458  0.1338  1.0475 -0.7506
  758MOL0     H 2299   2.562   1.425   4.433  0.2726 -0.5348 -1.3659
  758MOL0     H 2300   2.362   1.484   4.209  1.2317  0.3613 -1.9430
  758MOL0     H 2301   2.520   1.410   4.196 -1.9266 -0.6817 -0.8316
  758MOL0     H 2302   2.468   1.680   4.310  0.3669 -0.2550  0.9969
  758MOL0     H 2303   2.630   1.605   4.271  1.4826  5.1700 -0.0266
  758MOL0     H 2304   2.411   1.664   4.067  0.9392 -1.3536 -0.9791
  758MOL0     H 2305   2.566   1.595   4.037  1.4327  1.9515 -0.7326
  758MOL0     H 2306   2.550   1.879   4.139  1.7535  2.0797 -1.1560
  758MOL0     H 2307   2.698   1.791   4.113 -1.1937 -2.0762  3.1908
  758MOL0     H 2308   2.477   1.833   3.895  0.7225 -1.8055 -2.0977
  758MOL0     H 2309   2.650   1.784   3.870  2.7918  1.7137  2.4970
  758MOL0     H 2310   2.728   2.004   3.935  1.8085 -3.8877 -2.2134
  758MOL0     H 2311   2.559   2.058   3.949 -1.4483 -0.0458 -2.7770
  758MOL0     H 2312   2.448   1.208   4.800  0.2538 -0.3410  0.2356
  758MOL0     H 2313   2.657   1.108   4.891  0.4422  3.3427  0.2509
  758MOL0     H 2314   3.122   1.022   4.782  0.8802 -1.1394 -2.5161
  758MOL0     H 2315   3.333   0.953   4.875  0.3571  1.9630  2.9094
  758MOL0     H 2316   4.997   0.340   5.520  0.2514  2.7944 -0.5957
  758MOL0     H 2317   5.204   0.361   5.619 -0.0460  1.0176 -0.8777
  758MOL0     H 2318   5.681   0.237   5.566  0.3894 -0.1399 -1.8726
  758MOL0     H 2319   5.922   0.254   5.599  0.8244  0.3716  1.4518
  758MOL0     H 2320   6.102   0.662   5.525 -0.2865 -1.4705 -1.2738
  758MOL0     H 2321   6.120   0.646   5.699  3.3199 -2.5612  2.9026
  758MOL0     H 2322   6.317   0.671   5.541 -2.9413  2.6195  1.8329
  758MOL0     H 2323   6.298   0.483   5.537  1.1390 -0.8809  2.7051
  758MOL0     H 2324   6.306   0.447   5.758 -3.1940  0.7769 -2.5387
  758MOL0     H 2325   6.324   0.619   5.797  0.0963 -0.8826 -0.2777
  758MOL0     H 2326   6.537   0.509   5.838 -0.2328 -1.1352  0.2439
  758MOL0     H 2327   6.560   0.619   5.695 -2.9397  2.0519  1.2184
  758MOL0     H 2328   6.626   0.259   5.516 -2.5056 -2.5236  2.2207
  758MOL0     H 2329   5.889   0.683   5.595  0.0484 -1.2058  0.2540
  758MOL0     H 2330   5.649   0.662   5.558 -2.2918 -1.4509  0.4035
  759MOL0     O 2331   2.252   4.949   9.893  0.1993 -0.4973  0.2919
  759MOL0     C 2332   2.293   5.066   9.886  1.2131 -0.0089 -0.2696
  759MOL0     O 2333   2.210   5.177   9.877 -0.6469 -0.0460  0.2824
  759MOL0     C 2334   2.074   5.153   9.890  0.7497 -0.1880 -0.1319
  759MOL0     C 2335   1.988   5.192   9.787 -0.0135  0.7184 -0.0449
  759MOL0     C 2336   1.852   5.182   9.794 -0.3312 -1.1607 -0.2470
  759MOL0     C 2337   1.793   5.161   9.915 -0.1838  0.6597  0.5958
  759MOL0     O 2338   1.659   5.158   9.906  0.2391 -0.2802 -0.2951
  759MOL0     C 2339   1.595   5.214  10.016  1.1415 -0.2055 -0.4338
  759MOL0     C 2340   1.460   5.263   9.970  0.0337  0.1975 -0.1853
  759MOL0     C 2341   1.379   5.308  10.092 -0.3856 -0.2291 -0.7636
  759MOL0     C 2342   1.238   5.347  10.054 -0.5334  0.0238  0.6070
  759MOL0     C 2343   1.161   5.367  10.183 -0.3765  1.4887 -0.6772
  759MOL0     C 2344   1.018   5.390  10.145  0.3533 -1.0420  0.0075
  759MOL0     C 2345   0.931   5.416  10.273 -0.8175 -0.8588  0.9092
  759MOL0     C 2346   0.893   5.281  10.335 -0.8791  0.8342  0.0270
  759MOL0     N 2347   0.773   5.234  10.279  0.2581  0.3073 -1.0801
  759MOL0     C 2348   0.692   5.140  10.345 -0.3004  0.0162  0.2737
  759MOL0     C 2349   0.607   5.101  10.247  0.0360 -0.0341  0.6639
  759MOL0     C 2350   0.495   5.009  10.269  0.6085 -0.3185 -0.4133
  759MOL0     C 2351   0.546   4.873  10.213  0.6315  0.5853  0.3484
  759MOL0     C 2352   0.543   4.870  10.053 -0.3993 -0.2142 -0.0885
  759MOL0     C 2353   0.624   4.744  10.004  0.7545  0.3198  0.3856
  759MOL0     O 2354   0.536   4.636   9.980  0.3839  0.2899  0.4923
  759MOL0     C 2355   0.457   4.632   9.866 -0.0174  0.5355 -0.9764
  759MOL0     C 2356   0.375   4.519   9.851 -0.5754  0.4005  0.1153
  759MOL0     C 2357   0.287   4.504   9.748  1.2683  0.1142  0.2032
  759MOL0     C 2358   0.198   4.387   9.759  0.3020 -0.4937 -0.5589
  759MOL0     C 2359   0.263   4.607   9.654 -0.4811 -0.3085  0.2268
  759MOL0     C 2360   0.160   4.603   9.548 -0.2865  0.6056  0.4780
  759MOL0     O 2361   0.036   4.548   9.577  0.0601  0.0437  0.6558
  759MOL0     C 2362  -0.061   4.549   9.480 -0.4401  0.6679  0.2883
  759MOL0     C 2363  -0.187   4.563   9.530 -0.2520  0.2925  0.4507
  759MOL0     C 2364  -0.292   4.566   9.444  0.7703  0.0949 -0.3286
  759MOL0     C 2365  -0.283   4.550   9.308  0.5815  0.1047 -0.5870
  759MOL0     O 2366  -0.404   4.543   9.247 -0.7464  0.2690 -0.7333
  759MOL0     C 2367  -0.402   4.545   9.102  0.0207 -0.8900 -0.3406
  759MOL0     C 2368  -0.534   4.496   9.049 -0.2261 -0.3683 -0.0635
  759MOL0     C 2369  -0.527   4.526   8.894 -0.2133  0.5631  0.1903
  759MOL0     C 2370  -0.624   4.448   8.813 -0.2467 -0.1239 -0.2937
  759MOL0     C 2371  -0.590   4.436   8.664  0.3467  0.4624  0.2621
  759MOL0     C 2372  -0.682   4.336   8.596  0.1767 -1.0552 -0.0082
  759MOL0     C 2373  -0.657   4.314   8.440 -0.7119 -0.3541 -0.5035
  759MOL0     C 2374  -0.750   4.205   8.392  0.3069 -0.6951 -0.1254
  759MOL0    Cl 2375  -0.669   4.044   8.397 -0.2907 -0.0259 -0.0933
  759MOL0     C 2376  -0.151   4.534   9.252  0.0226 -0.6628 -0.1057
  759MOL0     C 2377  -0.039   4.528   9.336  0.3825  1.1231 -0.1278
  759MOL0     O 2378   0.199   4.636   9.432 -0.6237 -0.6274  0.0193
  759MOL0     C 2379   0.345   4.723   9.675 -0.8087  0.8841  0.9191
  759MOL0     C 2380   0.440   4.729   9.772 -0.9446  0.0156  0.0173
  759MOL0     N 2381   0.641   5.168  10.139 -0.5595 -0.2793 -0.1665
  759MOL0     N 2382   0.743   5.237  10.150  0.3383 -0.0486  0.1060
  759MOL0     C 2383   1.873   5.127  10.027 -1.0542 -0.6004  0.1613
  759MOL0     C 2384   2.012   5.125  10.016 -0.4601 -0.0525 -0.2723
  759MOL0     C 2385   2.441   5.087   9.900  1.0418 -0.1375 -0.6526
  759MOL0     C 2386   2.507   5.000   9.999  0.7423  0.0554  0.5191
  759MOL0     C 2387   2.644   5.024  10.020  0.2726  0.7386 -0.0631
  759MOL0     C 2388   2.709   5.115   9.938 -0.6104  0.2211  0.2194
  759MOL0     O 2389   2.848   5.109   9.936 -0.1016 -0.3163 -0.5257
  759MOL0     C 2390   2.923   5.042  10.040 -0.9286 -0.4990  0.4149
  759MOL0     C 2391   2.941   5.136  10.159  0.0514 -0.4776 -0.3854
  759MOL0     C 2392   3.001   5.270  10.125  0.1171  0.0794 -0.5205
  759MOL0     C 2393   2.898   5.382  10.085  0.0729  0.3943  0.7586
  759MOL0     C 2394   2.811   5.418  10.193  0.3056  0.9757 -0.4612
  759MOL0     C 2395   2.723   5.453  10.268 -0.7533  0.1936  0.4374
  759MOL0     C 2396   2.641   5.200   9.847 -0.5370  0.5431  1.2605
  759MOL0     C 2397   2.510   5.194   9.831  0.4777  0.0849 -0.5720
  759MOL0     H 2398   2.036   5.217   9.693 -0.9256 -0.9254 -0.9872
  759MOL0     H 2399   1.796   5.227   9.712 -1.5597  1.9357  2.1157
  759MOL0     H 2400   1.579   5.149  10.102 -0.4897  2.3594  1.3408
  759MOL0     H 2401   1.641   5.302  10.062  1.5232 -0.3771 -0.4860
  759MOL0     H 2402   1.471   5.343   9.896  0.5731  2.1609  1.8806
  759MOL0     H 2403   1.406   5.176   9.932 -0.5618 -0.5453  2.2155
  759MOL0     H 2404   1.379   5.232  10.170  1.0192  0.6288  0.1288
  759MOL0     H 2405   1.423   5.398  10.137  0.0452 -1.7101  1.9716
  759MOL0     H 2406   1.234   5.437   9.993  0.5343  0.1359  0.6740
  759MOL0     H 2407   1.190   5.267   9.996 -0.0038 -0.3152  0.6230
  759MOL0     H 2408   1.161   5.277  10.244 -2.3756  2.7722  1.4015
  759MOL0     H 2409   1.197   5.452  10.241  1.1362  0.6627 -0.3726
  759MOL0     H 2410   1.012   5.480  10.083  2.4387  0.9650  2.5195
  759MOL0     H 2411   0.977   5.305  10.089  0.2713  0.0023 -1.5832
  759MOL0     H 2412   0.988   5.466  10.353 -0.2125  0.2982 -0.2044
  759MOL0     H 2413   0.841   5.471  10.245 -0.9981 -2.3037 -1.5693
  759MOL0     H 2414   0.881   5.281  10.444  2.7323 -4.9492  0.8465
  759MOL0     H 2415   0.974   5.209  10.324 -0.3116  0.7756  3.3934
  759MOL0     H 2416   0.696   5.103  10.446  2.3615 -1.2714 -0.2142
  759MOL0     H 2417   0.475   5.010  10.376  0.5990  2.4791 -0.3781
  759MOL0     H 2418   0.404   5.038  10.216  0.4895 -1.0705 -0.6430
  759MOL0     H 2419   0.479   4.792  10.240  1.0407  0.6936  1.7445
  759MOL0     H 2420   0.647   4.852  10.251  0.2054  1.1724  1.8511
  759MOL0     H 2421   0.588   4.954  10.000 -3.4325  0.8429 -1.1829
  759MOL0     H 2422   0.444   4.848  10.012  0.2015 -1.5948 -0.8822
  759MOL0     H 2423   0.701   4.713  10.075 -1.6151 -0.3536  2.8100
  759MOL0     H 2424   0.678   4.780   9.916 -0.4767 -0.5949 -0.7984
  759MOL0     H 2425   0.382   4.444   9.929 -4.3656  0.2360  0.4683
  759MOL0     H 2426   0.159   4.357   9.661  2.0561 -0.7678 -1.2131
  759MOL0     H 2427   0.242   4.299   9.806 -0.6576 -0.3893  0.5892
  759MOL0     H 2428   0.120   4.406   9.833  1.1328 -1.0466  0.4990
  759MOL0     H 2429  -0.184   4.574   9.638 -0.3548 -1.2427  0.6214
  759MOL0     H 2430  -0.386   4.588   9.495  2.1320  1.5344  1.7298
  759MOL0     H 2431  -0.400   4.651   9.075 -3.3331 -1.2723 -2.7274
  759MOL0     H 2432  -0.314   4.494   9.060  1.2197 -0.0416  1.0404
  759MOL0     H 2433  -0.530   4.386   9.055  0.2574 -0.4486 -1.4468
  759MOL0     H 2434  -0.621   4.545   9.095 -0.0116  0.1892 -0.2550
  759MOL0     H 2435  -0.426   4.501   8.858 -0.4902  0.3616 -0.4638
  759MOL0     H 2436  -0.552   4.631   8.881 -1.2495  0.2317 -0.6858
  759MOL0     H 2437  -0.622   4.346   8.854  0.8400 -0.7602 -1.8305
  759MOL0     H 2438  -0.724   4.487   8.835  0.7154  1.5933  1.2469
  759MOL0     H 2439  -0.493   4.385   8.661  1.5589  2.4713  2.3047
  759MOL0     H 2440  -0.574   4.538   8.629  0.9972  1.0425  2.1086
  759MOL0     H 2441  -0.675   4.235   8.639  2.7863 -1.7570 -1.8649
  759MOL0     H 2442  -0.781   4.382   8.603  0.5695 -0.1599 -0.2134
  759MOL0     H 2443  -0.552   4.285   8.429 -0.6280  0.0201 -0.7005
  759MOL0     H 2444  -0.670   4.402   8.376 -0.7576 -0.8351 -1.1570
  759MOL0     H 2445  -0.789   4.215   8.291 -2.9243 -1.8893  0.8702
  759MOL0     H 2446  -0.840   4.215   8.454 -0.2058 -1.4651 -0.7185
  759MOL0     H 2447  -0.133   4.500   9.150  1.3398 -0.4889  0.0575
  759MOL0     H 2448   0.056   4.503   9.289  1.4089  2.2403  1.2829
  759MOL0     H 2449   0.321   4.802   9.606 -0.2547 -2.2119 -3.2152
  759MOL0     H 2450   0.489   4.826   9.767  1.5986 -1.2062 -0.1394
  759MOL0     H 2451   1.827   5.103  10.123  3.1480 -2.1283  2.0395
  759MOL0     H 2452   2.075   5.115  10.104  1.2883  0.2215 -1.4493
  759MOL0     H 2453   2.458   4.914  10.044  0.3570  0.4086  0.7789
  759MOL0     H 2454   2.695   4.969  10.098  1.6705  2.5902  0.4190
  759MOL0     H 2455   2.888   4.942  10.069  1.3578 -1.2780  0.7354
  759MOL0     H 2456   3.024   5.027  10.001 -1.5915 -1.3030 -1.0602
  759MOL0     H 2457   3.011   5.086  10.227 -1.6685  1.3476  3.0144
  759MOL0     H 2458   2.849   5.159  10.214  0.8645  0.3754  0.6745
  759MOL0     H 2459   3.080   5.269  10.049 -1.1483  2.3742 -1.9801
  759MOL0     H 2460   3.069   5.303  10.205  1.4202 -2.5032 -0.4481
  759MOL0     H 2461   2.849   5.334  10.000  2.7074  0.0657 -0.6883
  759MOL0     H 2462   2.948   5.476  10.058  0.7902 -0.6522 -1.8876
  759MOL0     H 2463   2.641   5.497  10.322 -0.8515  2.8685 -1.7097
  759MOL0     H 2464   2.697   5.278   9.794 -0.0902  0.3517  1.4439
  759MOL0     H 2465   2.459   5.272   9.774 -0.0151  2.7480  3.1191
  760MOL0     O 2466   2.603   6.954  10.779  0.3287 -0.3893  0.5928
  760MOL0     C 2467   2.620   6.868  10.871  0.7617 -0.8742 -0.2553
  760MOL0     O 2468   2.527   6.778  10.914 -0.3809  0.8648 -0.0585
  760MOL0     C 2469   2.393   6.797  10.900  0.4280 -0.0033  0.0932
  760MOL0     C 2470   2.310   6.793  11.010  1.0450  0.8212 -0.3459
  760MOL0     C 2471   2.172   6.812  10.989  0.2511 -0.5126  0.4529
  760MOL0     C 2472   2.123   6.840  10.861  0.1597  0.9068  0.2124
  760MOL0     O 2473   1.992   6.882  10.863  0.7764 -0.2721  0.1092
  760MOL0     C 2474   1.921   6.882  10.746 -0.1194  1.0803 -0.3095
  760MOL0     C 2475   1.778   6.896  10.763  0.9300  0.3175  0.4132
  760MOL0     C 2476   1.714   6.864  10.618  0.9439 -0.3781 -0.7486
  760MOL0     C 2477   1.563   6.846  10.625  0.5133 -0.2996 -0.3719
  760MOL0     C 2478   1.513   6.781  10.491  0.1633 -0.4951 -0.3990
  760MOL0     C 2479   1.353   6.807  10.481  0.1059  0.8490  0.2234
  760MOL0     C 2480   1.270   6.762  10.600  0.1312 -0.7868 -0.5362
  760MOL0     C 2481   1.121   6.771  10.553  0.1664 -0.1900  0.3242
  760MOL0     N 2482   1.078   6.643  10.486 -0.7756 -0.0780 -0.4240
  760MOL0     C 2483   1.109   6.600  10.353 -0.7737 -0.5608  0.1152
  760MOL0     C 2484   1.066   6.468  10.354 -0.1613 -0.6359 -0.3785
  760MOL0     C 2485   1.089   6.358  10.251 -0.5933 -0.1076  0.1176
  760MOL0     C 2486   1.046   6.404  10.114  0.4541 -0.4214  0.0460
  760MOL0     C 2487   0.902   6.452  10.108 -0.0205 -0.3933 -0.3444
  760MOL0     C 2488   0.849   6.461   9.963 -0.4480  0.2893 -0.1699
  760MOL0     O 2489   0.865   6.598   9.916  0.1621  0.0070 -0.2251
  760MOL0     C 2490   0.795   6.653   9.813  1.3814  0.0050  0.5180
  760MOL0     C 2491   0.723   6.577   9.721 -0.4941 -0.1852 -0.0095
  760MOL0     C 2492   0.652   6.632   9.617 -0.1388  0.7980  0.1524
  760MOL0     C 2493   0.589   6.532   9.517 -0.6825  0.4210 -0.3635
  760MOL0     C 2494   0.627   6.769   9.606 -0.4643  0.0664  1.0447
  760MOL0     C 2495   0.571   6.842   9.489  0.1679  0.7681 -0.1716
  760MOL0     O 2496   0.582   6.775   9.369 -0.2092 -0.0706 -0.2880
  760MOL0     C 2497   0.507   6.813   9.261  0.1176 -0.6220 -0.3938
  760MOL0     C 2498   0.376   6.758   9.252  0.4768 -0.8931 -0.3870
  760MOL0     C 2499   0.304   6.785   9.139 -0.8924  0.2615  0.1700
  760MOL0     C 2500   0.348   6.863   9.035 -0.5397  0.6987 -0.8979
  760MOL0     O 2501   0.273   6.896   8.926 -0.3580  0.0437  0.8460
  760MOL0     C 2502   0.129   6.894   8.939 -0.1417  0.0145 -0.7543
  760MOL0     C 2503   0.067   6.987   8.833  0.6098 -0.1884 -0.1127
  760MOL0     C 2504  -0.082   6.974   8.851  0.0195  0.6476  0.6687
  760MOL0     C 2505  -0.156   7.075   8.764  0.8601 -0.1529 -0.0578
  760MOL0     C 2506  -0.307   7.083   8.792  0.0964  0.2763  0.4094
  760MOL0     C 2507  -0.379   6.965   8.736 -0.2689 -0.3087  0.0631
  760MOL0     C 2508  -0.533   6.997   8.737 -0.2595  0.1440  0.7806
  760MOL0     C 2509  -0.615   6.885   8.675  0.2076  0.5204 -0.6597
  760MOL0    Cl 2510  -0.790   6.950   8.656 -0.1300  0.0323  0.4389
  760MOL0     C 2511   0.482   6.905   9.046 -0.6698 -0.0571  0.5718
  760MOL0     C 2512   0.567   6.876   9.152  0.0392  0.1943 -0.2586
  760MOL0     O 2513   0.520   6.947   9.504  0.2680  0.1592 -0.1034
  760MOL0     C 2514   0.693   6.845   9.705 -0.8201  0.0894 -0.9714
  760MOL0     C 2515   0.774   6.795   9.808  0.5088  0.0209  0.2026
  760MOL0     N 2516   1.014   6.443  10.482  0.1649  0.2714  0.1135
  760MOL0     N 2517   1.018   6.543  10.554  0.3099  0.7481 -0.1636
  760MOL0     C 2518   2.210   6.832  10.751  0.4912 -0.3528 -0.2747
  760MOL0     C 2519   2.340   6.816  10.775 -0.3785  0.2352  0.1697
  760MOL0     C 2520   2.761   6.860  10.925 -0.3955  0.3923 -0.3523
  760MOL0     C 2521   2.801   6.768  11.028  0.6014 -0.0759  1.0144
  760MOL0     C 2522   2.924   6.778  11.082  0.3578 -0.1708 -0.7347
  760MOL0     C 2523   3.025   6.867  11.042 -0.0303 -0.1778  0.6700
  760MOL0     O 2524   3.142   6.854  11.108  0.3603 -0.4900  0.5179
  760MOL0     C 2525   3.253   6.904  11.036  0.0903  0.7492  0.8797
  760MOL0     C 2526   3.389   6.881  11.103  0.3738  0.6546 -0.0159
  760MOL0     C 2527   3.403   6.723  11.108  0.1392 -0.3177  0.8398
  760MOL0     C 2528   3.475   6.666  11.230  0.5958 -0.3433 -0.0759
  760MOL0     C 2529   3.493   6.522  11.230  0.5684  0.4445  0.1938
  760MOL0     C 2530   3.499   6.403  11.205 -0.3372  0.0326 -0.4244
  760MOL0     C 2531   2.995   6.960  10.942 -0.1317  0.4638 -0.9733
  760MOL0     C 2532   2.859   6.960  10.887  0.4610  0.8425  0.1231
  760MOL0     H 2533   2.348   6.779  11.111  0.3609 -1.4737 -0.3575
  760MOL0     H 2534   2.114   6.830  11.079 -0.3252  2.2938 -0.3616
  760MOL0     H 2535   1.960   6.958  10.678  0.8714  1.4035  0.6005
  760MOL0     H 2536   1.934   6.783  10.700 -0.8357 -0.0310  1.7085
  760MOL0     H 2537   1.738   6.823  10.834 -2.8604  0.8167 -0.9337
  760MOL0     H 2538   1.754   6.996  10.801  0.2999  1.5602 -2.8773
  760MOL0     H 2539   1.738   6.954  10.562  2.7086  1.6774  2.8957
  760MOL0     H 2540   1.756   6.774  10.571  1.4034 -0.1538 -0.7720
  760MOL0     H 2541   1.526   6.776  10.700 -2.0925  0.6150 -0.6882
  760MOL0     H 2542   1.524   6.947  10.636 -1.6555 -1.0024 -0.9738
  760MOL0     H 2543   1.548   6.834  10.402 -0.7634  2.2579  0.7606
  760MOL0     H 2544   1.530   6.673  10.489 -0.5687 -0.6186 -0.0251
  760MOL0     H 2545   1.331   6.911  10.453  1.2438  0.9139 -0.4688
  760MOL0     H 2546   1.301   6.750  10.404 -2.9925 -0.9235  3.3115
  760MOL0     H 2547   1.310   6.668  10.640  4.0687  0.9153  0.0360
  760MOL0     H 2548   1.272   6.830  10.685  1.8555 -2.0252  0.4878
  760MOL0     H 2549   1.101   6.852  10.483 -0.2238 -0.9069 -0.3996
  760MOL0     H 2550   1.065   6.785  10.646 -0.0045 -2.1836  0.5667
  760MOL0     H 2551   1.152   6.661  10.274 -0.1691 -1.3046 -0.1543
  760MOL0     H 2552   1.196   6.335  10.255 -0.4685  0.4245 -0.1224
  760MOL0     H 2553   1.038   6.266  10.281 -0.0178 -1.0094 -1.5367
  760MOL0     H 2554   1.065   6.321  10.046 -1.7934 -1.0285  0.0705
  760MOL0     H 2555   1.108   6.488  10.081 -0.2995 -0.1250 -0.6271
  760MOL0     H 2556   0.896   6.547  10.162 -1.4030 -1.1416  0.8989
  760MOL0     H 2557   0.838   6.382  10.162 -0.8146 -1.6261 -2.7356
  760MOL0     H 2558   0.742   6.437   9.960 -0.2868 -1.7681  3.6997
  760MOL0     H 2559   0.909   6.401   9.894  0.7501 -2.7221  3.1747
  760MOL0     H 2560   0.726   6.468   9.715  0.9829 -0.1941  0.5610
  760MOL0     H 2561   0.483   6.557   9.516 -0.7500  0.3034  1.0623
  760MOL0     H 2562   0.629   6.538   9.416 -0.4358  1.9309 -0.1973
  760MOL0     H 2563   0.592   6.425   9.543 -1.3611  0.3490 -0.5617
  760MOL0     H 2564   0.325   6.714   9.337 -0.9673 -1.0358 -1.2782
  760MOL0     H 2565   0.199   6.760   9.152 -1.4796  2.4538 -0.0683
  760MOL0     H 2566   0.088   6.793   8.931 -0.8313  0.2759 -0.6196
  760MOL0     H 2567   0.106   6.925   9.041  1.4016 -3.7933  0.9219
  760MOL0     H 2568   0.105   7.089   8.846  0.9472 -0.3114 -0.1189
  760MOL0     H 2569   0.094   6.957   8.731  2.6532 -1.4970  0.7308
  760MOL0     H 2570  -0.110   6.980   8.957 -0.1598 -1.7664  0.8177
  760MOL0     H 2571  -0.103   6.874   8.812  3.5738  0.7284 -1.8182
  760MOL0     H 2572  -0.114   7.168   8.804 -0.9447 -0.0955  1.8062
  760MOL0     H 2573  -0.134   7.065   8.657  2.2592 -1.7286  0.3381
  760MOL0     H 2574  -0.344   7.174   8.744  0.9178 -0.4827 -1.8055
  760MOL0     H 2575  -0.323   7.099   8.899  1.8052  0.5521  0.6549
  760MOL0     H 2576  -0.343   6.939   8.637 -2.5399 -3.3844 -0.1112
  760MOL0     H 2577  -0.363   6.885   8.808  0.6768 -0.3085 -0.1428
  760MOL0     H 2578  -0.542   7.084   8.672  0.9136  0.7474  1.3894
  760MOL0     H 2579  -0.579   7.021   8.834  0.4308 -2.3519  1.8078
  760MOL0     H 2580  -0.605   6.798   8.741 -1.3294  1.0997  0.3788
  760MOL0     H 2581  -0.575   6.873   8.574  2.0469  0.8770 -0.0178
  760MOL0     H 2582   0.533   6.968   8.974 -0.4309 -1.3935 -0.4560
  760MOL0     H 2583   0.671   6.903   9.135 -0.2644  0.3764 -2.0146
  760MOL0     H 2584   0.684   6.952   9.697 -1.4443  0.1745  0.4233
  760MOL0     H 2585   0.809   6.858   9.889  1.5796 -0.5852  0.2193
  760MOL0     H 2586   2.182   6.863  10.651  0.1047 -0.0315 -0.0739
  760MOL0     H 2587   2.407   6.826  10.690 -0.0488 -4.2433 -0.3496
  760MOL0     H 2588   2.738   6.689  11.067 -2.5121  1.9308  0.3559
  760MOL0     H 2589   2.959   6.712  11.161 -3.9395 -0.6628  1.0932
  760MOL0     H 2590   3.264   6.846  10.944  2.4269  2.8849 -0.2968
  760MOL0     H 2591   3.236   7.009  11.012 -2.6742  0.2545  0.3080
  760MOL0     H 2592   3.395   6.929  11.201  0.3059 -0.6757  0.6599
  760MOL0     H 2593   3.468   6.928  11.043  1.4188 -2.5541 -1.3614
  760MOL0     H 2594   3.460   6.694  11.019 -1.4888  2.3417 -1.2596
  760MOL0     H 2595   3.305   6.673  11.106  0.3826 -0.8440  1.8867
  760MOL0     H 2596   3.412   6.682  11.318 -1.4246 -0.2319 -1.4658
  760MOL0     H 2597   3.572   6.714  11.244  0.5062 -0.3025  0.4182
  760MOL0     H 2598   3.512   6.298  11.189  1.8797 -0.0334  1.2762
  760MOL0     H 2599   3.058   7.043  10.913 -0.4765  2.4890  3.2743
  760MOL0     H 2600   2.829   7.031  10.811  0.2958  1.3172  0.6272
  761MOL0     O 2601   0.104   6.273   7.129 -0.3369  0.6531 -0.2228
  761MOL0     C 2602   0.152   6.303   7.022 -0.4310 -0.3464  0.7945
  761MOL0     O 2603   0.084   6.331   6.908 -0.3418 -0.0534  0.6785
  761MOL0     C 2604  -0.034   6.266   6.890  0.3050  0.2205  0.0018
  761MOL0     C 2605  -0.155   6.327   6.934 -0.2928  0.2147  0.8886
  761MOL0     C 2606  -0.279   6.265   6.909 -0.3853  0.8634 -0.5607
  761MOL0     C 2607  -0.287   6.143   6.843 -0.1514 -0.0994 -0.1027
  761MOL0     O 2608  -0.403   6.075   6.816  0.4789 -0.0845 -0.1902
  761MOL0     C 2609  -0.526   6.153   6.822 -0.9878  0.2777  0.6289
  761MOL0     C 2610  -0.638   6.084   6.753  0.6125  0.6228 -0.5146
  761MOL0     C 2611  -0.763   6.174   6.765  1.2477 -0.5675  0.2678
  761MOL0     C 2612  -0.885   6.104   6.716  0.3182  0.2082  0.5018
  761MOL0     C 2613  -1.019   6.193   6.736  0.6656  0.8488 -0.1844
  761MOL0     C 2614  -1.061   6.217   6.890 -0.5939  0.4792  0.2504
  761MOL0     C 2615  -1.181   6.316   6.888 -0.5582 -0.2969 -0.1118
  761MOL0     C 2616  -1.247   6.327   7.025  0.3778  0.2045 -0.4811
  761MOL0     N 2617  -1.320   6.200   7.062  1.0402 -0.3635 -0.2876
  761MOL0     C 2618  -1.428   6.158   6.993  0.5572  0.7310 -0.1744
  761MOL0     C 2619  -1.423   6.020   7.005 -0.2877  0.3979  1.0615
  761MOL0     C 2620  -1.503   5.904   6.946 -0.1936  0.1520  0.3466
  761MOL0     C 2621  -1.651   5.944   6.936  0.1242 -0.4983 -0.1345
  761MOL0     C 2622  -1.737   5.863   6.842 -0.4755  0.9640 -0.4473
  761MOL0     C 2623  -1.888   5.911   6.849  0.6119  0.4144 -0.0691
  761MOL0     O 2624  -1.947   5.838   6.735  0.5043 -0.3735  0.7500
  761MOL0     C 2625  -2.083   5.830   6.724 -0.1602 -0.2007 -0.1799
  761MOL0     C 2626  -2.123   5.760   6.611  0.7048 -0.2278  0.5843
  761MOL0     C 2627  -2.258   5.742   6.581  1.1610  0.3552  0.8572
  761MOL0     C 2628  -2.290   5.677   6.456 -0.2481 -0.8395  0.4581
  761MOL0     C 2629  -2.358   5.774   6.678  0.0838 -0.2814 -0.8254
  761MOL0     C 2630  -2.505   5.751   6.667 -0.3373  0.0237 -0.1545
  761MOL0     O 2631  -2.586   5.823   6.759  0.6877  0.4434  0.4228
  761MOL0     C 2632  -2.708   5.761   6.773 -0.4707 -0.3882 -0.1614
  761MOL0     C 2633  -2.733   5.688   6.885  0.1076  0.1676  0.0013
  761MOL0     C 2634  -2.862   5.630   6.903  0.2795  0.1539  0.4841
  761MOL0     C 2635  -2.964   5.658   6.809  0.1290  0.0908  0.1647
  761MOL0     O 2636  -3.098   5.617   6.824 -0.5929  0.3747 -0.5433
  761MOL0     C 2637  -3.119   5.479   6.850  0.3570  0.2670 -0.4744
  761MOL0     C 2638  -3.270   5.449   6.842 -0.1342 -0.6092  0.2762
  761MOL0     C 2639  -3.304   5.315   6.909  0.8584  0.2539  0.0500
  761MOL0     C 2640  -3.449   5.263   6.888  0.4077  0.7247  0.3815
  761MOL0     C 2641  -3.457   5.116   6.925  0.5776  0.6245  0.4260
  761MOL0     C 2642  -3.592   5.057   6.881 -0.4330  0.5585  0.4584
  761MOL0     C 2643  -3.708   5.124   6.952 -0.1573 -0.5711  0.5302
  761MOL0     C 2644  -3.828   5.027   6.920  0.2611  0.6484 -0.1227
  761MOL0    Cl 2645  -3.963   5.132   6.967  0.2679 -0.2363  0.0179
  761MOL0     C 2646  -2.925   5.722   6.695  0.0291 -0.2306  0.7225
  761MOL0     C 2647  -2.801   5.780   6.672 -0.6514 -0.2767 -0.3733
  761MOL0     O 2648  -2.554   5.670   6.588 -0.0823 -0.0227 -0.2113
  761MOL0     C 2649  -2.313   5.844   6.792 -0.5396 -0.0520  0.3472
  761MOL0     C 2650  -2.178   5.875   6.816 -0.3077  0.3003 -0.0771
  761MOL0     N 2651  -1.321   5.985   7.093 -0.0709  0.0074 -0.1913
  761MOL0     N 2652  -1.263   6.100   7.131 -0.3915  0.0716 -0.4307
  761MOL0     C 2653  -0.167   6.083   6.804 -0.7462  0.8712  0.7751
  761MOL0     C 2654  -0.044   6.146   6.823 -0.0122 -0.3126 -1.3147
  761MOL0     C 2655   0.293   6.342   7.030  0.3954 -0.2063 -0.2404
  761MOL0     C 2656   0.380   6.365   6.925 -0.2072 -0.6534  0.1012
  761MOL0     C 2657   0.519   6.395   6.945  0.0906 -0.3312  1.4097
  761MOL0     C 2658   0.569   6.405   7.068 -0.4582  0.7210 -0.0858
  761MOL0     O 2659   0.687   6.471   7.097  0.1771  0.3084 -0.1366
  761MOL0     C 2660   0.800   6.421   7.038  0.0329 -0.0371 -0.3455
  761MOL0     C 2661   0.911   6.530   7.040 -0.6704  0.4336  0.0634
  761MOL0     C 2662   0.884   6.643   6.935  0.4185 -0.1307 -0.1158
  761MOL0     C 2663   1.008   6.741   6.939  0.4725 -0.0323  0.3199
  761MOL0     C 2664   1.132   6.676   6.906 -0.1878  0.9221  0.8178
  761MOL0     C 2665   1.234   6.625   6.872 -0.0714  0.2885  0.2186
  761MOL0     C 2666   0.487   6.378   7.176  0.2823  0.6495  1.1654
  761MOL0     C 2667   0.352   6.349   7.156  0.0072  0.0912 -0.1937
  761MOL0     H 2668  -0.148   6.425   6.979 -1.7543  0.4398  0.6872
  761MOL0     H 2669  -0.367   6.321   6.936  1.3380  4.0592 -1.1020
  761MOL0     H 2670  -0.556   6.182   6.923 -1.2320  1.3454  0.2593
  761MOL0     H 2671  -0.502   6.244   6.767  2.1819 -0.4783  0.5739
  761MOL0     H 2672  -0.615   6.086   6.646  2.0381  1.8514 -0.2241
  761MOL0     H 2673  -0.664   5.981   6.779 -1.4901  1.0651 -0.7451
  761MOL0     H 2674  -0.767   6.215   6.866 -0.4532  0.4263 -0.1726
  761MOL0     H 2675  -0.754   6.264   6.704 -1.9954  0.1322  0.6286
  761MOL0     H 2676  -0.874   6.077   6.610 -2.8792  1.0892 -0.1833
  761MOL0     H 2677  -0.903   6.008   6.765  0.0653 -0.8271 -1.4917
  761MOL0     H 2678  -0.999   6.291   6.692 -0.4168  2.0283  1.7763
  761MOL0     H 2679  -1.109   6.151   6.690  0.1548  1.1024  0.5608
  761MOL0     H 2680  -1.090   6.120   6.931  2.4136 -1.4041 -1.7124
  761MOL0     H 2681  -0.981   6.258   6.952 -2.0422  1.7787  1.3460
  761MOL0     H 2682  -1.160   6.418   6.855 -2.5864  1.3353  3.2277
  761MOL0     H 2683  -1.254   6.280   6.815 -1.0834  2.0666 -0.8327
  761MOL0     H 2684  -1.306   6.419   7.031  1.4890  1.0580 -2.1877
  761MOL0     H 2685  -1.168   6.334   7.100  0.4467 -1.7073 -0.3331
  761MOL0     H 2686  -1.495   6.203   6.921  2.0744  0.7224 -1.6663
  761MOL0     H 2687  -1.480   5.881   6.842 -0.2416 -0.7267  0.5167
  761MOL0     H 2688  -1.501   5.810   7.002  1.4899 -2.3775 -3.5507
  761MOL0     H 2689  -1.654   6.049   6.906  2.7578 -1.2352 -3.5894
  761MOL0     H 2690  -1.704   5.933   7.031  2.9907 -1.3059  1.4765
  761MOL0     H 2691  -1.731   5.755   6.852  0.2275  0.5802 -3.7830
  761MOL0     H 2692  -1.710   5.895   6.741  1.0791  2.0279  0.2751
  761MOL0     H 2693  -1.910   6.018   6.845 -1.2528  0.0268 -1.1481
  761MOL0     H 2694  -1.924   5.872   6.944  0.5050 -0.6780 -0.5488
  761MOL0     H 2695  -2.055   5.710   6.543 -0.3516 -1.9562  0.7339
  761MOL0     H 2696  -2.204   5.666   6.389 -0.9515 -0.3227 -0.5601
  761MOL0     H 2697  -2.343   5.583   6.473 -0.1802 -0.4932  3.0222
  761MOL0     H 2698  -2.358   5.748   6.409  0.6451 -0.6876 -0.6383
  761MOL0     H 2699  -2.653   5.658   6.951  0.0712 -2.7850 -1.1383
  761MOL0     H 2700  -2.892   5.565   6.985 -1.2872 -0.4467 -0.5074
  761MOL0     H 2701  -3.068   5.413   6.779 -0.7178  0.0382 -1.0492
  761MOL0     H 2702  -3.090   5.462   6.955 -1.9943 -2.3306 -0.1312
  761MOL0     H 2703  -3.322   5.533   6.890  1.7857  0.3175  0.8227
  761MOL0     H 2704  -3.287   5.451   6.734  1.0647  2.1272  0.0522
  761MOL0     H 2705  -3.274   5.312   7.014  0.8018  1.2712  0.1023
  761MOL0     H 2706  -3.239   5.240   6.863 -0.6916 -1.6857  0.8727
  761MOL0     H 2707  -3.524   5.328   6.935  0.1057  1.4934 -1.0838
  761MOL0     H 2708  -3.476   5.266   6.781 -2.3211 -0.2131  0.9459
  761MOL0     H 2709  -3.450   5.106   7.033  0.8859  0.1412  0.3638
  761MOL0     H 2710  -3.377   5.055   6.882  1.1231  0.9764  0.9223
  761MOL0     H 2711  -3.604   5.075   6.774 -1.1920  1.6534  0.7082
  761MOL0     H 2712  -3.577   4.952   6.905  1.3795  0.9373  1.1966
  761MOL0     H 2713  -3.719   5.226   6.915  3.2943 -1.0489 -2.3760
  761MOL0     H 2714  -3.686   5.122   7.059 -0.5798 -2.3032  0.6211
  761MOL0     H 2715  -3.817   4.934   6.978  2.4387 -0.2362 -1.7993
  761MOL0     H 2716  -3.838   4.999   6.815  3.2677 -0.7732 -0.1314
  761MOL0     H 2717  -3.002   5.725   6.618  1.8420 -0.9467 -1.2022
  761MOL0     H 2718  -2.793   5.829   6.575 -1.9080 -2.7213 -1.8306
  761MOL0     H 2719  -2.384   5.871   6.869 -1.0311  0.4904 -0.2865
  761MOL0     H 2720  -2.154   5.921   6.912 -3.4326  3.2540 -0.4757
  761MOL0     H 2721  -0.172   5.984   6.760 -2.2908  0.5264  1.6538
  761MOL0     H 2722   0.034   6.081   6.783 -2.2834 -3.8162 -0.4958
  761MOL0     H 2723   0.347   6.370   6.822  3.1241 -0.6109 -1.0963
  761MOL0     H 2724   0.578   6.413   6.855  0.0988 -2.0239  1.0455
  761MOL0     H 2725   0.841   6.336   7.093  1.5352  1.9988  1.9422
  761MOL0     H 2726   0.782   6.390   6.935 -2.9272  1.8204 -0.5295
  761MOL0     H 2727   0.995   6.468   7.007  1.0623  2.3587  0.6250
  761MOL0     H 2728   0.938   6.572   7.137 -1.5470  0.7847  0.1634
  761MOL0     H 2729   0.791   6.690   6.967 -0.9732 -3.8331  1.9735
  761MOL0     H 2730   0.870   6.601   6.835 -2.6304  0.5432 -0.0604
  761MOL0     H 2731   1.017   6.796   7.033 -1.0273  0.9021 -0.0581
  761MOL0     H 2732   0.996   6.821   6.865 -0.2284 -0.9134 -0.5322
  761MOL0     H 2733   1.331   6.581   6.861  0.3646  1.1329  0.5353
  761MOL0     H 2734   0.510   6.376   7.282  1.1141  0.4438  0.9843
  761MOL0     H 2735   0.295   6.333   7.247 -2.8701  0.5954 -1.7828
  762MOL0     O 2736   9.069   0.192   4.885  0.5236  0.8365 -0.1577
  762MOL0     C 2737   9.142   0.265   4.817 -0.8364  0.2481 -0.5370
  762MOL0     O 2738   9.098   0.368   4.732  0.2335  0.4128 -0.2278
  762MOL0     C 2739   8.974   0.425   4.763  0.1832 -0.0474  0.2823
  762MOL0     C 2740   8.913   0.494   4.661  0.3819  0.3160  0.1259
  762MOL0     C 2741   8.792   0.564   4.679 -0.1452  0.4131 -0.5726
  762MOL0     C 2742   8.723   0.547   4.798 -0.0663  0.4833  0.2879
  762MOL0     O 2743   8.598   0.603   4.808  0.3420 -0.0964 -0.1678
  762MOL0     C 2744   8.500   0.595   4.704  0.9520 -0.5156 -0.8681
  762MOL0     C 2745   8.499   0.727   4.618  0.1882 -0.1734 -0.1366
  762MOL0     C 2746   8.381   0.820   4.637 -0.1191  0.4928 -0.3847
  762MOL0     C 2747   8.405   0.931   4.746  0.2157  0.5418 -0.1348
  762MOL0     C 2748   8.278   1.016   4.738 -0.2757 -0.0456  0.8615
  762MOL0     C 2749   8.285   1.158   4.807  0.3912 -0.2696  0.0901
  762MOL0     C 2750   8.262   1.159   4.962  0.1259 -0.5728  0.1346
  762MOL0     C 2751   8.282   1.299   5.016 -0.6882 -0.5158  1.1186
  762MOL0     N 2752   8.258   1.321   5.154  0.0714 -1.0191 -0.5359
  762MOL0     C 2753   8.356   1.319   5.252  0.4945 -0.3590  0.2274
  762MOL0     C 2754   8.300   1.331   5.376 -0.0197  0.2871 -0.8221
  762MOL0     C 2755   8.364   1.363   5.519  0.0984 -0.5608  0.7004
  762MOL0     C 2756   8.500   1.288   5.536  0.2031 -0.5486  1.0599
  762MOL0     C 2757   8.582   1.328   5.659  0.1724 -0.6216  0.0837
  762MOL0     C 2758   8.519   1.308   5.796 -0.2618  0.5498  0.5813
  762MOL0     O 2759   8.481   1.171   5.811  0.0412 -0.4314  0.0604
  762MOL0     C 2760   8.422   1.137   5.933  0.6334  0.8307  1.3954
  762MOL0     C 2761   8.358   1.013   5.947  0.5773 -0.8866  0.7613
  762MOL0     C 2762   8.284   0.979   6.059  0.0610 -0.1985 -0.7574
  762MOL0     C 2763   8.223   0.841   6.062 -0.9914 -0.5879 -0.1893
  762MOL0     C 2764   8.271   1.065   6.162 -0.5984  0.6503  0.6299
  762MOL0     C 2765   8.199   1.025   6.285  0.2912  0.3614  0.2588
  762MOL0     O 2766   8.249   1.065   6.405  0.5964  0.6337  0.5658
  762MOL0     C 2767   8.180   1.042   6.520  0.2261 -0.5996  0.4774
  762MOL0     C 2768   8.254   0.999   6.630  0.0110 -0.5622 -0.7051
  762MOL0     C 2769   8.187   0.959   6.747  0.4831 -0.2394 -0.2022
  762MOL0     C 2770   8.052   0.964   6.759  0.5131  0.4615 -0.1839
  762MOL0     O 2771   8.003   0.909   6.875  0.8886 -0.3868 -0.5003
  762MOL0     C 2772   7.879   0.838   6.879  0.2010  0.2233  0.2284
  762MOL0     C 2773   7.843   0.763   7.003 -0.4215  0.2993 -0.4014
  762MOL0     C 2774   7.695   0.711   7.004  0.2695 -0.1566  0.2200
  762MOL0     C 2775   7.663   0.603   6.898  0.3359  1.0452 -0.0983
  762MOL0     C 2776   7.525   0.538   6.909 -0.6784  0.7195  0.3672
  762MOL0     C 2777   7.416   0.640   6.875 -0.2486 -0.1561 -0.0282
  762MOL0     C 2778   7.278   0.569   6.867 -0.7010 -0.5632 -0.7047
  762MOL0     C 2779   7.173   0.670   6.810 -0.1447  0.1490  0.3012
  762MOL0    Cl 2780   7.227   0.732   6.647  0.4700 -0.6205  0.0685
  762MOL0     C 2781   7.980   1.024   6.653 -0.2829  0.3669 -0.1717
  762MOL0     C 2782   8.038   1.071   6.536 -0.6936  0.1329 -0.4487
  762MOL0     O 2783   8.094   0.962   6.271  0.4232 -0.3923 -0.6637
  762MOL0     C 2784   8.339   1.187   6.153 -0.0408  0.3533  0.0326
  762MOL0     C 2785   8.416   1.225   6.042 -0.0557 -0.6047  0.0563
  762MOL0     N 2786   8.162   1.354   5.349  0.0174  0.3778  0.7135
  762MOL0     N 2787   8.138   1.336   5.220  0.3853 -0.2365  0.1889
  762MOL0     C 2788   8.785   0.486   4.902 -0.8059  0.2658  0.1386
  762MOL0     C 2789   8.908   0.424   4.887  0.1827  0.3466 -0.3072
  762MOL0     C 2790   9.297   0.240   4.843 -0.1222  0.2070 -0.1746
  762MOL0     C 2791   9.397   0.304   4.764 -0.5200 -0.3514 -0.0995
  762MOL0     C 2792   9.537   0.289   4.789  0.5658 -0.2667  0.8658
  762MOL0     C 2793   9.584   0.212   4.897  0.5260  0.2334  0.1856
  762MOL0     O 2794   9.713   0.211   4.942  0.1955 -0.7596 -0.3652
  762MOL0     C 2795   9.810   0.278   4.858 -0.0106  0.4138  0.3469
  762MOL0     C 2796   9.953   0.263   4.919 -0.7502  0.4073 -0.8071
  762MOL0     C 2797   9.985   0.342   5.051 -0.2011 -0.7718  0.4586
  762MOL0     C 2798  10.120   0.295   5.101  0.4678 -0.6259 -0.4917
  762MOL0     C 2799  10.169   0.352   5.232 -0.2894 -0.1984 -0.6059
  762MOL0     C 2800  10.188   0.399   5.343  0.0736 -0.3476 -1.1220
  762MOL0     C 2801   9.489   0.153   4.979  0.9941  0.2897  0.7598
  762MOL0     C 2802   9.346   0.162   4.951 -0.1719  0.3810 -0.2525
  762MOL0     H 2803   8.965   0.501   4.566 -0.1872 -1.3552 -0.3425
  762MOL0     H 2804   8.749   0.625   4.600  2.8332 -0.5263 -3.1115
  762MOL0     H 2805   8.516   0.513   4.635  0.7285  0.4501 -2.1027
  762MOL0     H 2806   8.398   0.576   4.738  0.6919  0.8227 -0.8312
  762MOL0     H 2807   8.594   0.777   4.640  0.2788  0.5949 -2.0783
  762MOL0     H 2808   8.489   0.692   4.515  1.8286 -0.2604 -0.2906
  762MOL0     H 2809   8.365   0.859   4.536 -0.7101  2.2800  0.3623
  762MOL0     H 2810   8.289   0.762   4.648  0.8870 -1.4126 -1.5196
  762MOL0     H 2811   8.411   0.882   4.844 -1.6505 -2.0209 -1.1682
  762MOL0     H 2812   8.500   0.982   4.725  0.2329  0.3212 -0.6032
  762MOL0     H 2813   8.264   1.035   4.631  4.1825 -1.6619 -0.2302
  762MOL0     H 2814   8.191   0.958   4.771 -1.0234  1.0741  0.8995
  762MOL0     H 2815   8.385   1.193   4.777  0.0241 -0.9182 -2.0041
  762MOL0     H 2816   8.214   1.223   4.756 -1.1348 -1.5400  0.5328
  762MOL0     H 2817   8.163   1.123   4.993  1.0068 -2.9366  0.3564
  762MOL0     H 2818   8.327   1.083   5.005  1.4774  1.5160  1.9572
  762MOL0     H 2819   8.215   1.366   4.961 -1.2034 -0.5054  1.7403
  762MOL0     H 2820   8.385   1.331   4.999 -1.5192  1.6743 -0.3042
  762MOL0     H 2821   8.462   1.315   5.232  0.1874  1.0596 -2.0101
  762MOL0     H 2822   8.371   1.473   5.523  1.1208 -0.6000  0.1388
  762MOL0     H 2823   8.311   1.324   5.607  2.0836  1.1912  2.8390
  762MOL0     H 2824   8.562   1.311   5.449  1.2199  1.9671  2.3428
  762MOL0     H 2825   8.484   1.180   5.534  0.3722 -0.5694  0.1608
  762MOL0     H 2826   8.599   1.434   5.641  1.1079 -0.8328 -0.3241
  762MOL0     H 2827   8.673   1.273   5.683 -0.9499 -0.9928  4.1319
  762MOL0     H 2828   8.430   1.372   5.797 -1.9156 -1.4550 -1.9625
  762MOL0     H 2829   8.585   1.337   5.878  0.8593  4.1206 -1.3725
  762MOL0     H 2830   8.369   0.931   5.877  0.8610  0.0351 -0.2851
  762MOL0     H 2831   8.224   0.783   5.969 -1.4598 -1.0134  0.0654
  762MOL0     H 2832   8.254   0.783   6.149 -0.6995 -1.1796 -0.6820
  762MOL0     H 2833   8.114   0.852   6.073 -0.9039 -1.7276  2.2386
  762MOL0     H 2834   8.361   0.982   6.619  0.3214 -1.0556  2.2494
  762MOL0     H 2835   8.242   0.911   6.827  2.3780 -0.5375 -1.6160
  762MOL0     H 2836   7.803   0.914   6.862  0.1968  0.7348  2.2956
  762MOL0     H 2837   7.887   0.758   6.804  0.5264  0.6651 -0.2096
  762MOL0     H 2838   7.912   0.680   7.019  1.5518  2.3088  2.3144
  762MOL0     H 2839   7.848   0.824   7.094  0.6773  0.6765 -0.7045
  762MOL0     H 2840   7.624   0.793   6.994  2.7964  1.8940 -3.0991
  762MOL0     H 2841   7.670   0.664   7.099 -1.2826  0.2400  0.0378
  762MOL0     H 2842   7.680   0.641   6.797 -0.1763 -1.7825 -1.3502
  762MOL0     H 2843   7.740   0.526   6.908 -1.6890 -1.0237  0.4297
  762MOL0     H 2844   7.504   0.494   7.007 -1.9362 -1.4423 -0.7918
  762MOL0     H 2845   7.524   0.455   6.838  0.1306  0.2711  0.8620
  762MOL0     H 2846   7.410   0.723   6.946  2.7326  0.7523 -0.7088
  762MOL0     H 2847   7.447   0.687   6.781  2.7591 -2.6444 -0.4514
  762MOL0     H 2848   7.248   0.527   6.963 -0.0555 -2.3148 -1.2259
  762MOL0     H 2849   7.291   0.481   6.804 -1.4354  0.8862 -3.0236
  762MOL0     H 2850   7.140   0.753   6.874  1.4692  1.8943 -1.0084
  762MOL0     H 2851   7.084   0.610   6.791  0.1346 -0.2145  0.1389
  762MOL0     H 2852   7.871   1.024   6.650 -0.3311 -1.8084 -0.7631
  762MOL0     H 2853   7.976   1.098   6.452 -0.5338 -1.1803 -1.0183
  762MOL0     H 2854   8.330   1.256   6.237 -2.3888  0.5214 -0.2920
  762MOL0     H 2855   8.475   1.316   6.043 -2.2398  0.9214  2.3594
  762MOL0     H 2856   8.741   0.486   5.001 -0.3085  0.2926  0.3623
  762MOL0     H 2857   8.946   0.389   4.983  0.3256  3.2297  0.7938
  762MOL0     H 2858   9.368   0.380   4.692  2.6331  1.4685  0.3717
  762MOL0     H 2859   9.595   0.345   4.716 -2.0990  0.7719 -0.6004
  762MOL0     H 2860   9.803   0.233   4.758  0.6660 -0.4178  0.6613
  762MOL0     H 2861   9.790   0.383   4.834  5.8762  1.5895 -0.9411
  762MOL0     H 2862  10.014   0.298   4.836 -2.2343  1.2741 -1.5708
  762MOL0     H 2863   9.984   0.158   4.919 -0.6085  0.4073  1.3905
  762MOL0     H 2864   9.902   0.323   5.120  0.2425 -1.3777  0.8274
  762MOL0     H 2865   9.989   0.447   5.020 -0.7132 -1.3113 -1.5825
  762MOL0     H 2866  10.199   0.323   5.030  1.4812  1.6990  1.3908
  762MOL0     H 2867  10.114   0.187   5.110  1.4074 -0.5547  1.7710
  762MOL0     H 2868  10.187   0.424   5.447 -2.0349  0.1376 -1.2213
  762MOL0     H 2869   9.527   0.100   5.065  2.4927 -0.5217 -0.3423
  762MOL0     H 2870   9.273   0.113   5.014 -0.4655  1.8155  0.5844
  763MOL0     O 2871   9.638   8.265   8.932 -0.0465  0.0913  0.5890
  763MOL0     C 2872   9.738   8.223   8.881  0.4646  0.6318  0.6060
  763MOL0     O 2873   9.742   8.120   8.795  0.5488  0.7463 -0.1688
  763MOL0     C 2874   9.627   8.068   8.742 -0.0115 -0.0090 -0.5279
  763MOL0     C 2875   9.576   7.935   8.768  0.5247  0.5913 -0.8295
  763MOL0     C 2876   9.454   7.889   8.704 -0.6952  0.1182  0.4006
  763MOL0     C 2877   9.383   7.978   8.625  0.1127  0.2726 -0.2775
  763MOL0     O 2878   9.268   7.946   8.572 -0.0898 -0.1600  0.3868
  763MOL0     C 2879   9.170   7.939   8.669  0.0976 -1.3053  0.2530
  763MOL0     C 2880   9.039   7.903   8.611  0.3221  0.9693  0.3672
  763MOL0     C 2881   9.016   7.977   8.473 -0.4688 -0.2278  0.5836
  763MOL0     C 2882   8.903   7.908   8.392 -0.7905  0.2844 -0.0995
  763MOL0     C 2883   8.847   7.991   8.274 -0.2035 -0.3566  0.0319
  763MOL0     C 2884   8.972   8.036   8.192 -0.7533  0.1907 -0.1517
  763MOL0     C 2885   8.947   8.113   8.065 -0.6190  0.8418  1.0350
  763MOL0     C 2886   8.855   8.042   7.969  0.0247 -0.3771 -0.3912
  763MOL0     N 2887   8.916   7.938   7.885  0.1748  0.7516  0.2863
  763MOL0     C 2888   9.030   7.863   7.910  0.0655  0.1663  0.5419
  763MOL0     C 2889   9.018   7.756   7.834  0.2726 -0.2308 -0.6573
  763MOL0     C 2890   9.106   7.648   7.819 -0.7527  0.6625 -0.0371
  763MOL0     C 2891   9.034   7.511   7.831  1.0256 -0.1784 -0.1838
  763MOL0     C 2892   9.134   7.397   7.797 -0.7595 -0.4142 -0.0995
  763MOL0     C 2893   9.070   7.261   7.802 -0.3663 -0.1084  0.5080
  763MOL0     O 2894   9.159   7.158   7.845  0.7017 -0.2753  0.0799
  763MOL0     C 2895   9.193   7.147   7.977 -0.1277 -0.5790 -0.2882
  763MOL0     C 2896   9.280   7.044   7.995 -0.3374  0.1932 -0.6734
  763MOL0     C 2897   9.340   7.023   8.123 -0.1701  0.2982 -0.3727
  763MOL0     C 2898   9.440   6.914   8.132  0.3203  0.0393 -0.5137
  763MOL0     C 2899   9.302   7.111   8.233  0.8328  0.7185  0.6548
  763MOL0     C 2900   9.350   7.091   8.376  0.1853  0.3784 -0.2228
  763MOL0     O 2901   9.339   7.195   8.462 -0.1065  0.3865 -0.5594
  763MOL0     C 2902   9.404   7.174   8.584  0.5197  0.3581 -0.3842
  763MOL0     C 2903   9.542   7.126   8.590  0.2940 -0.2576 -0.4389
  763MOL0     C 2904   9.601   7.109   8.712  0.0622 -0.2434  0.4222
  763MOL0     C 2905   9.519   7.117   8.821 -0.0634  0.7576 -0.4128
  763MOL0     O 2906   9.576   7.067   8.941  0.5738 -0.4071 -0.2407
  763MOL0     C 2907   9.504   7.068   9.070  0.1778 -1.0653  0.3726
  763MOL0     C 2908   9.588   7.039   9.193 -0.2785 -0.2259  0.5263
  763MOL0     C 2909   9.720   7.116   9.185 -0.1314  0.2628  0.5114
  763MOL0     C 2910   9.791   7.119   9.313  0.2191  0.2221 -0.9246
  763MOL0     C 2911   9.914   7.198   9.316 -0.0668 -0.0048 -0.0839
  763MOL0     C 2912   9.904   7.345   9.355  0.6277  0.2578 -0.2463
  763MOL0     C 2913  10.050   7.409   9.357 -0.4548 -0.1548  0.1051
  763MOL0     C 2914  10.041   7.558   9.401 -0.6548  0.1809  0.2278
  763MOL0    Cl 2915  10.210   7.623   9.359  0.0724  0.3040 -0.0534
  763MOL0     C 2916   9.388   7.157   8.818  0.3990  0.7132  0.1663
  763MOL0     C 2917   9.326   7.194   8.700 -0.1873 -0.1842  0.9139
  763MOL0     O 2918   9.377   6.976   8.412 -0.5529 -0.5540  0.1850
  763MOL0     C 2919   9.216   7.218   8.204  0.3844  0.0904 -0.5850
  763MOL0     C 2920   9.157   7.237   8.083 -0.8836  0.1787  0.3843
  763MOL0     N 2921   8.907   7.773   7.756  0.3743 -0.5041 -0.9808
  763MOL0     N 2922   8.841   7.875   7.793  0.1968 -0.4198 -0.0588
  763MOL0     C 2923   9.438   8.105   8.596 -0.7256 -0.6132 -0.8774
  763MOL0     C 2924   9.553   8.150   8.660  0.0053  0.4381  0.5489
  763MOL0     C 2925   9.858   8.274   8.930 -0.5010  0.2809  0.1493
  763MOL0     C 2926   9.981   8.203   8.904  0.4434 -0.7379  0.7194
  763MOL0     C 2927  10.107   8.258   8.957  0.4230 -0.1755 -0.1719
  763MOL0     C 2928  10.105   8.365   9.047 -0.8412  0.2107 -0.7673
  763MOL0     O 2929  10.227   8.407   9.102  0.4226  0.1888  0.4476
  763MOL0     C 2930  10.327   8.455   9.010 -0.2925  0.5230  0.2886
  763MOL0     C 2931  10.440   8.533   9.078  0.6552 -0.6578  0.6104
  763MOL0     C 2932  10.562   8.529   8.991  1.0065  0.0834 -0.6333
  763MOL0     C 2933  10.693   8.569   9.065 -1.5084 -0.4012  0.6687
  763MOL0     C 2934  10.692   8.704   9.109 -0.3498 -0.3505 -0.9938
  763MOL0     C 2935  10.690   8.815   9.156  1.5125 -1.2264  0.5942
  763MOL0     C 2936   9.990   8.437   9.069 -0.1889  0.4476 -0.7025
  763MOL0     C 2937   9.873   8.398   9.003  0.4261  0.2222 -0.9082
  763MOL0     H 2938   9.620   7.871   8.844 -0.2089 -2.9932 -3.1876
  763MOL0     H 2939   9.414   7.792   8.732  2.3308 -0.8645  1.6658
  763MOL0     H 2940   9.187   7.872   8.753  0.3116  1.2749  2.3749
  763MOL0     H 2941   9.160   8.042   8.704 -2.8913 -1.9374  1.5597
  763MOL0     H 2942   9.031   7.795   8.596  1.1731  0.7430  1.4066
  763MOL0     H 2943   8.964   7.928   8.687  0.7660 -0.5949  1.3800
  763MOL0     H 2944   8.972   8.077   8.483 -2.5646 -0.9980 -0.3685
  763MOL0     H 2945   9.107   7.980   8.412 -0.5201 -1.7457  0.3921
  763MOL0     H 2946   8.934   7.814   8.347  2.2514  1.2858 -0.3170
  763MOL0     H 2947   8.818   7.903   8.461  0.2343  4.6045  1.8446
  763MOL0     H 2948   8.779   7.932   8.213 -1.3369  0.5331  0.3893
  763MOL0     H 2949   8.790   8.082   8.296  0.1487  0.1101 -0.9323
  763MOL0     H 2950   9.033   8.102   8.255  0.2802 -0.6995 -0.1907
  763MOL0     H 2951   9.034   7.950   8.169  2.1279  2.1004 -0.0498
  763MOL0     H 2952   8.906   8.212   8.086  2.0496  2.3959 -0.4276
  763MOL0     H 2953   9.040   8.125   8.007 -2.0774 -2.2981 -2.3616
  763MOL0     H 2954   8.823   8.113   7.892 -0.2445  0.9318  0.8872
  763MOL0     H 2955   8.764   8.003   8.015 -0.5909 -0.5613 -1.7216
  763MOL0     H 2956   9.104   7.884   7.987  1.4810  0.2818 -0.8130
  763MOL0     H 2957   9.155   7.656   7.722 -3.1812 -1.2844 -1.5451
  763MOL0     H 2958   9.188   7.651   7.891  0.5810  1.7557 -1.5507
  763MOL0     H 2959   8.946   7.513   7.766  0.2350  1.2816  0.8913
  763MOL0     H 2960   8.991   7.489   7.929 -1.0545 -1.7808 -1.3490
  763MOL0     H 2961   9.218   7.404   7.867 -0.1670  3.4455 -0.9594
  763MOL0     H 2962   9.182   7.415   7.700  1.9051 -0.9622  1.0351
  763MOL0     H 2963   9.030   7.232   7.704  0.9403  0.9354 -0.3828
  763MOL0     H 2964   8.982   7.266   7.866  0.7206  0.4801  2.0003
  763MOL0     H 2965   9.302   6.987   7.905  0.3368 -0.1158 -0.3215
  763MOL0     H 2966   9.475   6.874   8.036 -0.8864 -0.3541 -0.8117
  763MOL0     H 2967   9.526   6.959   8.182 -0.0095 -0.0224  0.1220
  763MOL0     H 2968   9.397   6.829   8.187  0.7206 -0.0715 -0.3676
  763MOL0     H 2969   9.599   7.102   8.501  0.4976 -0.1197 -0.3457
  763MOL0     H 2970   9.709   7.099   8.718  0.2085  0.1180 -1.0835
  763MOL0     H 2971   9.459   7.168   9.079 -2.8870 -2.4661  1.9754
  763MOL0     H 2972   9.410   7.013   9.059 -0.6490  0.6881 -2.8803
  763MOL0     H 2973   9.530   7.077   9.277 -4.5224  2.5681 -3.1837
  763MOL0     H 2974   9.600   6.930   9.198  0.1251 -0.2053  0.1417
  763MOL0     H 2975   9.708   7.219   9.150 -1.4573 -0.2740 -0.7177
  763MOL0     H 2976   9.781   7.060   9.113 -1.8600  1.3896 -1.9901
  763MOL0     H 2977   9.725   7.148   9.396 -5.8806  0.6974 -5.3019
  763MOL0     H 2978   9.816   7.016   9.343 -2.2066 -0.5051 -1.1313
  763MOL0     H 2979   9.974   7.194   9.225  2.1357 -1.4745  1.3109
  763MOL0     H 2980   9.973   7.145   9.392 -1.6637  0.6680  1.7057
  763MOL0     H 2981   9.842   7.397   9.281 -0.3248  1.7127  1.4983
  763MOL0     H 2982   9.865   7.349   9.457  1.7310 -0.4677  0.2192
  763MOL0     H 2983  10.106   7.392   9.265 -0.0419 -2.4399  0.7159
  763MOL0     H 2984  10.107   7.359   9.435  0.0842 -0.7673 -0.6706
  763MOL0     H 2985  10.014   7.580   9.504  1.8195  3.4018  0.3572
  763MOL0     H 2986   9.962   7.606   9.343 -1.0898  0.7375  1.2559
  763MOL0     H 2987   9.321   7.156   8.904  0.6042 -4.4982  0.6125
  763MOL0     H 2988   9.229   7.240   8.687 -0.8269 -1.6440  0.3009
  763MOL0     H 2989   9.197   7.283   8.289 -0.3544  0.3442 -0.9303
  763MOL0     H 2990   9.079   7.308   8.061  0.2905  0.6456 -2.8584
  763MOL0     H 2991   9.380   8.175   8.537 -1.0678 -0.5932 -0.5247
  763MOL0     H 2992   9.586   8.249   8.629 -2.2252  1.4972  1.3726
  763MOL0     H 2993   9.989   8.115   8.841  1.0987 -0.4415  0.3734
  763MOL0     H 2994  10.199   8.206   8.932  0.8488  0.2750  0.4198
  763MOL0     H 2995  10.378   8.373   8.960 -0.6542  0.6745 -0.3354
  763MOL0     H 2996  10.278   8.519   8.936  1.9998  2.0232 -0.0332
  763MOL0     H 2997  10.440   8.502   9.183 -2.9454 -0.5574  0.7663
  763MOL0     H 2998  10.400   8.635   9.086  2.6800  0.0631  2.6980
  763MOL0     H 2999  10.551   8.587   8.899 -0.1181 -0.7919 -1.0721
  763MOL0     H 3000  10.579   8.426   8.958 -2.5634 -1.1956  1.0045
  763MOL0     H 3001  10.777   8.554   8.996 -0.9375  4.2128  0.0421
  763MOL0     H 3002  10.713   8.498   9.146 -1.1646 -2.7251 -1.3239
  763MOL0     H 3003  10.685   8.913   9.199 -0.6351 -1.0359  0.0427
  763MOL0     H 3004   9.989   8.519   9.141 -1.9508  2.3178 -2.6904
  763MOL0     H 3005   9.776   8.438   9.029 -0.5943 -3.3724  1.6063
  764MOL0     O 3006   2.352   9.251   1.644 -0.1362 -0.2463 -0.1474
  764MOL0     C 3007   2.399   9.169   1.563  0.1833  0.2336 -0.5654
  764MOL0     O 3008   2.337   9.061   1.502 -0.9527  0.2940  0.5557
  764MOL0     C 3009   2.196   9.052   1.486 -0.0898 -0.0755 -0.4860
  764MOL0     C 3010   2.092   9.119   1.555  0.3691  0.0643  0.7133
  764MOL0     C 3011   1.963   9.079   1.544 -0.7375  0.0924 -0.6948
  764MOL0     C 3012   1.928   8.979   1.453 -0.2911  0.4155  0.1211
  764MOL0     O 3013   1.799   8.951   1.441 -0.2467  0.2355  0.2301
  764MOL0     C 3014   1.772   8.817   1.465  0.2535 -0.5390  1.1156
  764MOL0     C 3015   1.618   8.797   1.437  0.0635  0.1443 -0.1029
  764MOL0     C 3016   1.521   8.871   1.528  0.4605 -0.0873 -0.5323
  764MOL0     C 3017   1.379   8.857   1.491 -0.3135 -0.1866  0.1867
  764MOL0     C 3018   1.287   8.909   1.598 -0.1465  0.2226 -0.4394
  764MOL0     C 3019   1.148   8.854   1.581 -0.0538  0.1789 -0.1216
  764MOL0     C 3020   1.055   8.897   1.695 -0.2852  1.0746 -0.2693
  764MOL0     C 3021   1.070   8.788   1.804  0.4908  0.1154 -0.4958
  764MOL0     N 3022   0.939   8.779   1.880 -0.7132  0.5919  0.4111
  764MOL0     C 3023   0.883   8.873   1.957  0.0332  0.0509 -0.6337
  764MOL0     C 3024   0.776   8.811   1.991 -0.0322 -0.7847 -0.4901
  764MOL0     C 3025   0.684   8.871   2.093 -0.4054 -0.2000 -0.2903
  764MOL0     C 3026   0.578   8.953   2.021 -0.6078  0.2331  0.4571
  764MOL0     C 3027   0.503   9.037   2.130  0.2443 -0.7027  0.4365
  764MOL0     C 3028   0.365   9.081   2.088  0.5763 -0.5340 -0.0134
  764MOL0     O 3029   0.376   9.136   1.961 -0.2376 -0.0632  0.2905
  764MOL0     C 3030   0.266   9.211   1.932  0.4897  0.3685 -1.1363
  764MOL0     C 3031   0.293   9.335   1.885 -0.0399  0.0365  0.4594
  764MOL0     C 3032   0.194   9.420   1.844  0.5206  0.0127  0.4116
  764MOL0     C 3033   0.245   9.543   1.777 -0.2170  1.0383 -0.5219
  764MOL0     C 3034   0.051   9.386   1.856 -0.3320  0.4395  0.4737
  764MOL0     C 3035  -0.061   9.483   1.822 -1.2852  0.4356 -0.4206
  764MOL0     O 3036  -0.185   9.425   1.800  0.0924  0.2867 -0.1585
  764MOL0     C 3037  -0.296   9.497   1.769  0.9282 -0.2847 -0.6636
  764MOL0     C 3038  -0.301   9.607   1.682 -0.0858  0.4230 -1.7062
  764MOL0     C 3039  -0.427   9.677   1.666  0.9064  0.1821  0.0863
  764MOL0     C 3040  -0.539   9.631   1.742  0.0916  0.5146  1.0346
  764MOL0     O 3041  -0.664   9.690   1.748  0.4005 -0.7422  0.8394
  764MOL0     C 3042  -0.686   9.798   1.658  0.3532  0.0552  0.4671
  764MOL0     C 3043  -0.834   9.851   1.656 -0.5897  0.6794  0.2501
  764MOL0     C 3044  -0.936   9.736   1.618  1.0323  0.0409  0.1810
  764MOL0     C 3045  -1.082   9.787   1.607  0.6849  0.0868  0.5274
  764MOL0     C 3046  -1.159   9.774   1.745 -0.6787 -0.5212 -0.4373
  764MOL0     C 3047  -1.301   9.841   1.727  0.9244 -0.5296  0.3421
  764MOL0     C 3048  -1.322   9.942   1.839 -0.1427  0.5367 -0.2986
  764MOL0     C 3049  -1.431  10.047   1.798  0.3504  1.1649 -0.5914
  764MOL0    Cl 3050  -1.526  10.133   1.931 -0.3082 -0.0706  0.0691
  764MOL0     C 3051  -0.530   9.525   1.825  0.3095  0.5869  0.4905
  764MOL0     C 3052  -0.411   9.466   1.845 -0.0937 -0.1916  0.7502
  764MOL0     O 3053  -0.026   9.598   1.817 -0.0747  0.6002 -0.2258
  764MOL0     C 3054   0.021   9.257   1.897 -0.1572 -0.2368  0.4561
  764MOL0     C 3055   0.127   9.166   1.936  0.5395 -0.5624 -0.8554
  764MOL0     N 3056   0.749   8.695   1.921  0.5446  0.8799 -0.0027
  764MOL0     N 3057   0.860   8.674   1.861  0.2591 -0.3683 -0.8881
  764MOL0     C 3058   2.025   8.917   1.373  0.1969  1.5228  0.5296
  764MOL0     C 3059   2.163   8.949   1.393 -0.4016 -0.2655  0.3202
  764MOL0     C 3060   2.544   9.176   1.542  0.4476  0.6410 -0.6161
  764MOL0     C 3061   2.615   9.273   1.609 -0.7602  0.0770  1.0859
  764MOL0     C 3062   2.749   9.297   1.579  0.2530  0.3261 -0.2480
  764MOL0     C 3063   2.821   9.212   1.501  0.2710 -0.1405 -0.2016
  764MOL0     O 3064   2.953   9.226   1.479 -0.0386  0.2400  0.4407
  764MOL0     C 3065   3.001   9.357   1.499  0.2551 -0.6302  0.1743
  764MOL0     C 3066   3.141   9.370   1.443 -0.1294 -0.5788  1.3772
  764MOL0     C 3067   3.236   9.271   1.512  0.1508 -0.4566  1.2645
  764MOL0     C 3068   3.386   9.309   1.501  0.3896 -0.2373 -0.5730
  764MOL0     C 3069   3.442   9.286   1.366  0.0475 -1.0333  0.4725
  764MOL0     C 3070   3.496   9.272   1.261 -0.2156 -0.0229 -0.1652
  764MOL0     C 3071   2.754   9.106   1.439  0.5784  0.2391  0.6730
  764MOL0     C 3072   2.615   9.084   1.466 -0.2046  0.4623  0.8423
  764MOL0     H 3073   2.126   9.197   1.622  2.3064 -0.7422  0.7452
  764MOL0     H 3074   1.886   9.134   1.598  0.9551  2.3204 -0.4128
  764MOL0     H 3075   1.823   8.748   1.397  0.3479  1.7276 -1.2818
  764MOL0     H 3076   1.813   8.803   1.566 -0.8593  2.6518  2.1271
  764MOL0     H 3077   1.593   8.825   1.334  0.5955  2.1013  0.2627
  764MOL0     H 3078   1.601   8.689   1.438  0.7438  0.0123 -1.2133
  764MOL0     H 3079   1.538   8.834   1.629  1.9116  2.5104  0.2717
  764MOL0     H 3080   1.548   8.977   1.527  2.1627 -0.4346  1.3613
  764MOL0     H 3081   1.357   8.904   1.395  1.0675  0.4219  0.1512
  764MOL0     H 3082   1.353   8.751   1.484  0.4859 -0.5355  1.9351
  764MOL0     H 3083   1.319   8.883   1.700  1.8892  0.5084 -0.9496
  764MOL0     H 3084   1.296   9.018   1.597 -1.0311  0.3073  0.1366
  764MOL0     H 3085   1.114   8.892   1.484 -1.4173 -0.4912  0.0636
  764MOL0     H 3086   1.163   8.745   1.577  0.2270  0.1146  1.6628
  764MOL0     H 3087   1.076   8.996   1.738  0.2284  0.6094  0.5883
  764MOL0     H 3088   0.950   8.897   1.665 -0.5182  0.6966  0.4996
  764MOL0     H 3089   1.154   8.813   1.870 -1.5625  0.8313  2.0296
  764MOL0     H 3090   1.096   8.692   1.759  0.9443  0.6221 -1.3366
  764MOL0     H 3091   0.933   8.964   1.989  1.1947  0.2237 -2.7417
  764MOL0     H 3092   0.632   8.788   2.140 -1.1265 -0.3654 -1.3387
  764MOL0     H 3093   0.743   8.928   2.165 -0.3328 -1.1217  0.3940
  764MOL0     H 3094   0.513   8.891   1.959 -0.7684  2.4542 -1.7734
  764MOL0     H 3095   0.621   9.028   1.954  0.5627  0.0973  1.0400
  764MOL0     H 3096   0.556   9.130   2.149  1.0334 -1.2904  1.2495
  764MOL0     H 3097   0.486   8.986   2.226 -2.5066 -0.2937  0.2311
  764MOL0     H 3098   0.331   9.158   2.158 -1.1337 -1.6292  0.4202
  764MOL0     H 3099   0.297   8.995   2.088 -1.0198  0.6476 -1.9997
  764MOL0     H 3100   0.398   9.356   1.873 -0.5578  3.3882  0.8752
  764MOL0     H 3101   0.352   9.543   1.756  0.3771  0.5915  2.1425
  764MOL0     H 3102   0.187   9.565   1.687 -1.8206  0.2857  0.2850
  764MOL0     H 3103   0.244   9.618   1.856  2.6042  1.3165 -0.6526
  764MOL0     H 3104  -0.215   9.648   1.630  1.4761 -2.3484 -1.5084
  764MOL0     H 3105  -0.422   9.774   1.617  3.4502  0.8470  1.4246
  764MOL0     H 3106  -0.628   9.885   1.690 -1.6995  0.5773  3.1950
  764MOL0     H 3107  -0.662   9.765   1.557 -0.2234  2.0836 -0.3876
  764MOL0     H 3108  -0.850   9.897   1.754  1.6650 -0.0584  1.0388
  764MOL0     H 3109  -0.855   9.931   1.584 -4.4851 -0.2837  0.0710
  764MOL0     H 3110  -0.936   9.664   1.701  0.0516 -0.0515  0.1047
  764MOL0     H 3111  -0.908   9.683   1.527 -0.0689  1.4578 -1.0178
  764MOL0     H 3112  -1.080   9.893   1.579 -0.6143 -0.2580 -1.0835
  764MOL0     H 3113  -1.139   9.733   1.530  3.2177 -1.4639 -0.3750
  764MOL0     H 3114  -1.109   9.820   1.830 -4.1261 -0.0576  1.5326
  764MOL0     H 3115  -1.174   9.668   1.768  1.5969 -0.5941  0.9258
  764MOL0     H 3116  -1.300   9.879   1.624  0.6890 -5.0946 -1.5777
  764MOL0     H 3117  -1.381   9.767   1.732  1.1417 -0.8346 -0.4439
  764MOL0     H 3118  -1.226   9.985   1.871  0.5596 -0.0677 -1.5134
  764MOL0     H 3119  -1.352   9.875   1.920  0.8939 -0.7170 -0.9023
  764MOL0     H 3120  -1.500   9.987   1.738  1.8516  1.0120 -2.2516
  764MOL0     H 3121  -1.390  10.114   1.722  1.1312  0.6192 -0.6721
  764MOL0     H 3122  -0.622   9.483   1.864 -0.0510 -1.7637 -2.4695
  764MOL0     H 3123  -0.402   9.386   1.918  2.6368 -0.3187  0.3980
  764MOL0     H 3124  -0.081   9.220   1.894 -0.0587 -0.4635 -1.3633
  764MOL0     H 3125   0.109   9.069   1.981 -0.8989  1.4871  3.4325
  764MOL0     H 3126   1.990   8.845   1.300 -0.3247 -0.3820  2.5502
  764MOL0     H 3127   2.247   8.906   1.340  0.2929  1.9438 -0.4662
  764MOL0     H 3128   2.560   9.354   1.657  0.2904  1.5503 -0.1263
  764MOL0     H 3129   2.789   9.382   1.634  0.9578 -1.7136  2.6188
  764MOL0     H 3130   2.934   9.432   1.456  0.3135 -1.0096 -0.5881
  764MOL0     H 3131   3.009   9.363   1.608  2.5822 -0.0124  0.0250
  764MOL0     H 3132   3.170   9.471   1.470 -0.2043 -0.6573  1.7657
  764MOL0     H 3133   3.147   9.349   1.336  1.4208 -1.7572  1.6618
  764MOL0     H 3134   3.230   9.180   1.452  0.0345 -0.0936  0.7284
  764MOL0     H 3135   3.206   9.242   1.614  0.3006 -0.5138  1.2935
  764MOL0     H 3136   3.437   9.235   1.563 -3.0896 -1.8911  0.5849
  764MOL0     H 3137   3.409   9.410   1.535 -1.3360  0.9419 -2.6617
  764MOL0     H 3138   3.548   9.277   1.168 -2.1539  0.3923 -1.2697
  764MOL0     H 3139   2.809   9.047   1.366 -0.3807 -0.1308  0.2137
  764MOL0     H 3140   2.567   9.002   1.413  0.6935  2.2343 -3.1240
  765MOL0     O 3141   0.120   4.462   2.146  0.5106  0.0454  0.3281
  765MOL0     C 3142   0.131   4.579   2.108 -0.5868  0.5481  0.0199
  765MOL0     O 3143   0.026   4.658   2.070 -0.1042 -1.0782  0.0155
  765MOL0     C 3144  -0.109   4.633   2.068  0.3502 -0.2722 -0.6472
  765MOL0     C 3145  -0.179   4.521   2.107  0.4401 -0.8636 -0.1480
  765MOL0     C 3146  -0.317   4.513   2.102  0.4017 -1.2089 -0.0400
  765MOL0     C 3147  -0.394   4.627   2.068 -0.4670 -0.3849  0.1426
  765MOL0     O 3148  -0.534   4.613   2.074 -0.0849 -0.5934 -0.2953
  765MOL0     C 3149  -0.599   4.669   1.958 -0.0872 -0.5334  0.1432
  765MOL0     C 3150  -0.742   4.609   1.948  0.5205  0.4523  0.2367
  765MOL0     C 3151  -0.820   4.644   2.074  0.3113 -0.1278 -0.3012
  765MOL0     C 3152  -0.964   4.610   2.062 -0.3583  0.7380 -0.6008
  765MOL0     C 3153  -1.032   4.630   2.204 -1.8113  0.9098 -0.0950
  765MOL0     C 3154  -1.173   4.551   2.191 -0.3241 -0.2690 -0.4852
  765MOL0     C 3155  -1.256   4.562   2.324  1.1871  0.1718  0.0672
  765MOL0     C 3156  -1.346   4.439   2.338 -0.7509 -0.2855  0.3385
  765MOL0     N 3157  -1.441   4.468   2.441  0.0105  0.2775  0.4477
  765MOL0     C 3158  -1.412   4.436   2.569  0.4754 -0.1971 -0.3729
  765MOL0     C 3159  -1.515   4.487   2.644  0.4480  0.8595 -0.8057
  765MOL0     C 3160  -1.533   4.502   2.797 -0.7126  0.2431  0.6311
  765MOL0     C 3161  -1.680   4.523   2.836 -0.6386  0.0990 -0.2741
  765MOL0     C 3162  -1.761   4.390   2.807 -0.0113 -0.6210  0.3372
  765MOL0     C 3163  -1.911   4.403   2.846 -0.1461 -0.3274 -0.5468
  765MOL0     O 3164  -1.985   4.276   2.853  0.0606  0.2837 -0.1749
  765MOL0     C 3165  -2.101   4.262   2.788  0.5303  0.0264  0.5057
  765MOL0     C 3166  -2.121   4.142   2.721  0.9531 -0.2766 -0.8121
  765MOL0     C 3167  -2.235   4.117   2.640  0.6642  0.3593 -0.1685
  765MOL0     C 3168  -2.247   3.979   2.577  0.3994 -0.5038  0.1358
  765MOL0     C 3169  -2.337   4.218   2.639 -0.0019 -0.6233 -0.2325
  765MOL0     C 3170  -2.447   4.207   2.549  0.3645  0.6195 -0.3778
  765MOL0     O 3171  -2.556   4.245   2.618 -0.0292  0.0933  0.0979
  765MOL0     C 3172  -2.682   4.205   2.564 -0.4639  0.8291 -0.9158
  765MOL0     C 3173  -2.722   4.256   2.444 -0.0357 -0.9086  0.2120
  765MOL0     C 3174  -2.850   4.239   2.389  0.1529 -0.4346  0.3874
  765MOL0     C 3175  -2.940   4.153   2.455  0.4855  0.0830 -0.8368
  765MOL0     O 3176  -3.051   4.122   2.384  0.7377 -0.5133 -0.2134
  765MOL0     C 3177  -3.162   4.079   2.454  0.3552 -0.0126 -1.2951
  765MOL0     C 3178  -3.291   4.145   2.401  0.3918  0.1650  1.3441
  765MOL0     C 3179  -3.291   4.289   2.430 -0.5080 -0.3239 -0.3547
  765MOL0     C 3180  -3.432   4.346   2.400 -0.1065  0.5924 -1.6802
  765MOL0     C 3181  -3.427   4.488   2.438  1.1099 -1.1096 -0.1833
  765MOL0     C 3182  -3.547   4.565   2.371  0.3579 -0.0145  0.2960
  765MOL0     C 3183  -3.531   4.592   2.222 -0.1686  0.3694 -0.6132
  765MOL0     C 3184  -3.673   4.599   2.162  0.8493  0.1545 -0.3655
  765MOL0    Cl 3185  -3.790   4.717   2.235 -0.0092  0.0474  0.3692
  765MOL0     C 3186  -2.902   4.102   2.585 -0.0442  0.9740 -0.4024
  765MOL0     C 3187  -2.773   4.125   2.640 -0.2635 -0.7967 -0.6410
  765MOL0     O 3188  -2.445   4.150   2.444  0.1638  0.6116  0.1738
  765MOL0     C 3189  -2.319   4.335   2.713  0.7486 -0.1998  0.5537
  765MOL0     C 3190  -2.202   4.354   2.789  0.4726 -0.3267 -1.4641
  765MOL0     N 3191  -1.606   4.538   2.556  0.6043 -0.5535  0.1275
  765MOL0     N 3192  -1.564   4.527   2.436  0.2507 -0.2139 -0.3898
  765MOL0     C 3193  -0.328   4.741   2.028  0.5665 -0.4186 -0.1540
  765MOL0     C 3194  -0.186   4.743   2.030 -1.2034 -0.1088 -0.7031
  765MOL0     C 3195   0.266   4.630   2.092 -0.6167 -0.1117  0.2588
  765MOL0     C 3196   0.386   4.555   2.119  0.3886  0.1231 -1.6217
  765MOL0     C 3197   0.512   4.621   2.110  0.5223  0.3089  0.6575
  765MOL0     C 3198   0.519   4.752   2.056  0.1005 -0.2625  0.1989
  765MOL0     O 3199   0.650   4.796   2.039 -0.3619  0.6115  0.0294
  765MOL0     C 3200   0.678   4.927   1.980  0.0789  0.0194  0.6885
  765MOL0     C 3201   0.825   4.948   1.996 -0.4991 -0.6058  0.0367
  765MOL0     C 3202   0.906   4.847   1.923  0.3782 -0.3789 -1.2254
  765MOL0     C 3203   1.058   4.885   1.908 -0.4175 -0.4853 -0.2960
  765MOL0     C 3204   1.112   4.908   2.041  0.7166 -0.0992  0.0290
  765MOL0     C 3205   1.159   4.926   2.153 -0.1084  0.0921 -0.4843
  765MOL0     C 3206   0.404   4.817   2.018  0.3043  0.5461  0.5622
  765MOL0     C 3207   0.284   4.759   2.040 -0.1636  0.0437 -0.1751
  765MOL0     H 3208  -0.134   4.428   2.139 -0.0825 -0.7252  1.0502
  765MOL0     H 3209  -0.368   4.421   2.128 -1.6501 -0.7199 -1.9871
  765MOL0     H 3210  -0.597   4.777   1.974  1.2661 -0.5077 -0.1042
  765MOL0     H 3211  -0.547   4.649   1.864  1.4380  0.9727  0.6156
  765MOL0     H 3212  -0.802   4.659   1.872 -2.3230 -0.2617  1.8608
  765MOL0     H 3213  -0.747   4.502   1.926 -1.2305  0.2359  1.5036
  765MOL0     H 3214  -0.771   4.596   2.159  3.4623 -0.4128 -2.1088
  765MOL0     H 3215  -0.816   4.751   2.098 -1.1192 -0.2759  0.7143
  765MOL0     H 3216  -1.002   4.682   1.989 -1.3999  1.2460  0.4159
  765MOL0     H 3217  -0.972   4.506   2.031  1.3575  0.6315 -0.7923
  765MOL0     H 3218  -0.977   4.578   2.283 -1.6326 -1.4381 -1.6630
  765MOL0     H 3219  -1.040   4.736   2.227  1.8641  0.9495  1.6911
  765MOL0     H 3220  -1.227   4.584   2.101 -0.1519  0.1217 -0.4477
  765MOL0     H 3221  -1.149   4.446   2.173  2.2455  0.4220 -1.6438
  765MOL0     H 3222  -1.188   4.560   2.410 -0.2442  0.7194  1.2564
  765MOL0     H 3223  -1.309   4.656   2.341  0.0470 -0.7731  2.1579
  765MOL0     H 3224  -1.277   4.356   2.355 -0.7854 -0.6238 -1.0851
  765MOL0     H 3225  -1.398   4.424   2.243 -1.9768  2.3954  0.4825
  765MOL0     H 3226  -1.324   4.381   2.602 -0.1307 -0.1791  1.3739
  765MOL0     H 3227  -1.501   4.410   2.846 -1.3268 -0.0518  0.4957
  765MOL0     H 3228  -1.470   4.588   2.821 -1.0915  0.9937 -0.9039
  765MOL0     H 3229  -1.726   4.605   2.780 -2.8724 -0.2734  0.8808
  765MOL0     H 3230  -1.691   4.560   2.938 -2.1980  0.1853 -0.4360
  765MOL0     H 3231  -1.722   4.303   2.860 -2.7997 -1.8260  0.5520
  765MOL0     H 3232  -1.764   4.359   2.702  0.6871 -1.1088  0.4571
  765MOL0     H 3233  -1.966   4.461   2.771 -0.6148  0.7938  0.6170
  765MOL0     H 3234  -1.926   4.463   2.937 -3.2623  1.0228 -1.7951
  765MOL0     H 3235  -2.033   4.079   2.719 -0.0755 -1.7656 -0.9066
  765MOL0     H 3236  -2.354   3.956   2.571  0.5747 -1.3442  0.1249
  765MOL0     H 3237  -2.214   3.990   2.474 -0.7956  0.5354 -0.1573
  765MOL0     H 3238  -2.184   3.906   2.629  2.0749 -0.7239 -2.0809
  765MOL0     H 3239  -2.650   4.306   2.381 -1.4042 -0.1663 -0.8258
  765MOL0     H 3240  -2.876   4.293   2.298 -1.3947 -0.5590  0.7181
  765MOL0     H 3241  -3.186   3.973   2.440 -2.9360  0.5838 -0.9283
  765MOL0     H 3242  -3.166   4.094   2.562  1.0785  0.7743 -1.3653
  765MOL0     H 3243  -3.303   4.142   2.292 -2.0613  1.4192  1.5093
  765MOL0     H 3244  -3.379   4.098   2.445  1.8606 -1.8750  2.2400
  765MOL0     H 3245  -3.214   4.338   2.370 -1.3084  0.1114 -1.0407
  765MOL0     H 3246  -3.260   4.301   2.535  1.5860 -2.5588 -0.6200
  765MOL0     H 3247  -3.444   4.331   2.293 -0.0514  0.0693 -1.6143
  765MOL0     H 3248  -3.513   4.290   2.446 -0.1525  0.5229 -1.8459
  765MOL0     H 3249  -3.333   4.534   2.406  0.2803  1.6275  1.0342
  765MOL0     H 3250  -3.444   4.489   2.547 -0.1462 -3.1335 -0.2951
  765MOL0     H 3251  -3.636   4.503   2.385  1.1490 -1.5067 -0.9525
  765MOL0     H 3252  -3.559   4.660   2.424  1.9433 -1.1871  2.9870
  765MOL0     H 3253  -3.486   4.503   2.176 -3.4519 -2.6518  1.4656
  765MOL0     H 3254  -3.477   4.685   2.204 -1.9245  1.3521 -1.0439
  765MOL0     H 3255  -3.712   4.497   2.168  1.9343 -0.2258  0.6617
  765MOL0     H 3256  -3.662   4.627   2.057  0.7420  0.7497 -0.2195
  765MOL0     H 3257  -2.973   4.044   2.643 -1.0843 -0.0754 -2.6015
  765MOL0     H 3258  -2.751   4.076   2.734  0.7104 -0.6554 -0.7784
  765MOL0     H 3259  -2.396   4.411   2.707  1.7410  0.7459 -0.9365
  765MOL0     H 3260  -2.196   4.446   2.846 -1.2702 -1.5256  0.7942
  765MOL0     H 3261  -0.376   4.822   1.976  3.1205  1.2787 -0.0707
  765MOL0     H 3262  -0.134   4.832   1.997 -2.0032  0.1901 -1.2062
  765MOL0     H 3263   0.374   4.455   2.160  1.3786  0.2693 -0.9398
  765MOL0     H 3264   0.605   4.573   2.140  0.0752 -1.6896 -0.9436
  765MOL0     H 3265   0.665   4.933   1.872  3.8814  0.4056  0.1083
  765MOL0     H 3266   0.624   5.010   2.026  0.6979  0.4834  0.5894
  765MOL0     H 3267   0.851   4.968   2.100  0.0676 -0.1182 -0.1948
  765MOL0     H 3268   0.847   5.043   1.946 -2.5457  0.3557  0.8819
  765MOL0     H 3269   0.863   4.829   1.825  0.4342  4.6287 -2.4116
  765MOL0     H 3270   0.902   4.759   1.988 -0.6735 -0.1583 -0.9820
  765MOL0     H 3271   1.055   4.984   1.863  1.7278 -0.0208  0.4335
  765MOL0     H 3272   1.121   4.817   1.851  1.0373 -1.0749  1.8846
  765MOL0     H 3273   1.211   4.941   2.245 -0.7870 -1.3203  0.1489
  765MOL0     H 3274   0.411   4.920   1.984 -0.1479  0.3191 -0.2559
  765MOL0     H 3275   0.204   4.832   2.037 -0.2167 -0.0392 -0.7361
  766MOL0     O 3276   6.687   0.035   9.628 -0.6480 -0.3786 -0.6938
  766MOL0     C 3277   6.736  -0.000   9.735  0.4563  0.1745 -0.0896
  766MOL0     O 3278   6.664  -0.023   9.848 -0.3446 -0.2814 -0.1187
  766MOL0     C 3279   6.534   0.014   9.856  0.4303 -0.4171 -0.8727
  766MOL0     C 3280   6.463  -0.080   9.941 -0.4637 -0.0120  0.8291
  766MOL0     C 3281   6.329  -0.065   9.954 -0.0331 -0.1027 -0.4980
  766MOL0     C 3282   6.258   0.033   9.891  0.4440  0.3741 -0.6361
  766MOL0     O 3283   6.128   0.051   9.896  0.2626 -0.4655  0.2198
  766MOL0     C 3284   6.040  -0.066   9.887  0.2929 -0.1143  0.4032
  766MOL0     C 3285   5.898  -0.039   9.949 -0.7092 -0.8441  0.2562
  766MOL0     C 3286   5.821   0.082   9.880  0.3020  0.3071  0.7880
  766MOL0     C 3287   5.740   0.020   9.772 -0.7105  0.7048  0.4052
  766MOL0     C 3288   5.656   0.108   9.686  0.5567 -0.5163  0.2417
  766MOL0     C 3289   5.616   0.035   9.562 -0.9527  0.5103 -0.7412
  766MOL0     C 3290   5.510   0.085   9.461 -0.8793  0.1983 -0.6015
  766MOL0     C 3291   5.383   0.117   9.525  0.1228  0.0398 -0.4720
  766MOL0     N 3292   5.291   0.178   9.424 -0.4681 -0.7070 -0.0416
  766MOL0     C 3293   5.244   0.108   9.313 -0.8478  0.0837 -0.9363
  766MOL0     C 3294   5.118   0.161   9.289 -0.3244  0.2767 -0.3944
  766MOL0     C 3295   5.024   0.112   9.183 -0.3612 -0.2573 -0.2270
  766MOL0     C 3296   4.921   0.217   9.146  0.4640 -0.1696  0.1060
  766MOL0     C 3297   4.839   0.177   9.014 -0.2176  0.0626 -0.0541
  766MOL0     C 3298   4.751   0.295   8.966 -0.2007 -0.2671 -0.1319
  766MOL0     O 3299   4.700   0.278   8.829 -0.6676  0.2228  0.2959
  766MOL0     C 3300   4.593   0.211   8.783 -0.5621  0.2151  0.3284
  766MOL0     C 3301   4.542   0.243   8.651 -0.0635  0.3897 -0.1506
  766MOL0     C 3302   4.428   0.193   8.595  0.0167  0.5129 -0.1763
  766MOL0     C 3303   4.385   0.243   8.459 -0.0661  0.1825  0.5813
  766MOL0     C 3304   4.350   0.101   8.678  0.1970  0.6442  1.1805
  766MOL0     C 3305   4.207   0.056   8.661 -0.0757  0.2848  0.4236
  766MOL0     O 3306   4.148  -0.018   8.761 -0.6635  0.2608  0.0508
  766MOL0     C 3307   4.014  -0.058   8.776  0.7362 -0.8599  0.7193
  766MOL0     C 3308   3.916  -0.064   8.678  1.1317  0.4983 -0.1661
  766MOL0     C 3309   3.780  -0.107   8.709 -0.4802  0.2399 -0.3242
  766MOL0     C 3310   3.739  -0.122   8.843  0.1136  1.3698 -0.5210
  766MOL0     O 3311   3.617  -0.181   8.879 -0.1258  0.1496 -0.8204
  766MOL0     C 3312   3.527  -0.215   8.781 -0.0370 -0.3614  0.2127
  766MOL0     C 3313   3.399  -0.271   8.822  0.7586 -0.1088 -0.3744
  766MOL0     C 3314   3.307  -0.158   8.881  0.0840  0.7841  0.0575
  766MOL0     C 3315   3.179  -0.211   8.954  0.9352  0.0522  0.0118
  766MOL0     C 3316   3.097  -0.088   8.997 -0.9969  0.2578  1.1213
  766MOL0     C 3317   2.975  -0.119   9.076 -0.0760  0.5022 -0.4314
  766MOL0     C 3318   2.868  -0.022   9.049  0.6036 -1.0495 -0.8342
  766MOL0     C 3319   2.747  -0.053   9.141  0.0690  0.2724  0.1325
  766MOL0    Cl 3320   2.647  -0.173   9.041  0.0679  0.2417  0.2927
  766MOL0     C 3321   3.840  -0.114   8.937  0.7043 -0.1332  0.0874
  766MOL0     C 3322   3.974  -0.092   8.909 -0.4304  0.3259  0.7923
  766MOL0     O 3323   4.160   0.057   8.549  0.1574  0.5082  0.2875
  766MOL0     C 3324   4.404   0.065   8.802 -0.2970 -0.6228  0.0514
  766MOL0     C 3325   4.520   0.114   8.851  0.3516  0.1705 -0.3466
  766MOL0     N 3326   5.111   0.269   9.369  0.1668 -0.5384 -0.5709
  766MOL0     N 3327   5.212   0.279   9.453 -0.0738 -1.1667 -0.0494
  766MOL0     C 3328   6.322   0.120   9.813  0.2002 -0.1203 -0.1574
  766MOL0     C 3329   6.460   0.112   9.780  0.2318 -0.9166  0.0547
  766MOL0     C 3330   6.888  -0.025   9.749  0.4259 -0.2371  0.5150
  766MOL0     C 3331   6.963  -0.011   9.632  0.4928  0.0982 -0.0288
  766MOL0     C 3332   7.100  -0.032   9.633 -0.2856  0.6476 -0.0004
  766MOL0     C 3333   7.157  -0.081   9.745 -0.3371  0.1704  0.0740
  766MOL0     O 3334   7.287  -0.117   9.720  0.2875 -0.0670 -0.4895
  766MOL0     C 3335   7.371  -0.163   9.824 -0.5839 -0.4077  0.1511
  766MOL0     C 3336   7.503  -0.230   9.773 -0.0690 -0.4964  0.1346
  766MOL0     C 3337   7.581  -0.141   9.666  0.4083  0.3162 -0.6923
  766MOL0     C 3338   7.627  -0.009   9.723 -0.2906 -1.2968 -0.2170
  766MOL0     C 3339   7.723   0.050   9.632 -0.2759  0.6836  0.7667
  766MOL0     C 3340   7.801   0.079   9.543 -0.2794  0.0437 -0.8030
  766MOL0     C 3341   7.091  -0.105   9.867 -0.0052 -0.1700  0.3198
  766MOL0     C 3342   6.954  -0.063   9.868  0.1737 -0.1590  0.5933
  766MOL0     H 3343   6.519  -0.162   9.985  1.5844  0.5732 -0.5197
  766MOL0     H 3344   6.285  -0.143  10.015 -0.2562 -1.5653 -2.4323
  766MOL0     H 3345   6.031  -0.078   9.778  4.9233  2.4914 -0.5320
  766MOL0     H 3346   6.074  -0.154   9.942 -2.0746  0.0528  2.2966
  766MOL0     H 3347   5.851  -0.136   9.934 -1.6712 -0.1763 -1.4363
  766MOL0     H 3348   5.915  -0.020  10.055 -1.8628 -0.9454  0.4679
  766MOL0     H 3349   5.740   0.116   9.944 -1.7771 -2.2595 -0.3089
  766MOL0     H 3350   5.887   0.159   9.837  1.3667 -1.5699 -1.1383
  766MOL0     H 3351   5.811  -0.036   9.710  0.8582  3.3640 -0.3324
  766MOL0     H 3352   5.677  -0.055   9.821 -3.0093  1.8799 -0.6173
  766MOL0     H 3353   5.573   0.140   9.751  1.2115 -0.6792  1.1819
  766MOL0     H 3354   5.712   0.200   9.668 -2.0993  1.3402  0.8139
  766MOL0     H 3355   5.710   0.020   9.507 -1.2049 -1.9063 -0.6115
  766MOL0     H 3356   5.595  -0.067   9.592 -1.4181  1.2113  1.4988
  766MOL0     H 3357   5.556   0.169   9.408  0.9575 -0.6442 -0.4106
  766MOL0     H 3358   5.492   0.005   9.389  1.0638  0.8770 -1.9371
  766MOL0     H 3359   5.406   0.195   9.598 -0.8556 -0.4528  0.3938
  766MOL0     H 3360   5.336   0.030   9.573 -0.4370  1.5834  1.9362
  766MOL0     H 3361   5.285   0.013   9.280  0.2715  0.3542 -0.3774
  766MOL0     H 3362   5.085   0.093   9.095 -0.6194  1.3193 -0.7715
  766MOL0     H 3363   4.980   0.014   9.205 -1.2997 -0.5050 -2.8693
  766MOL0     H 3364   4.974   0.309   9.121 -0.1948  0.6040  1.4370
  766MOL0     H 3365   4.850   0.240   9.227  0.3026  1.1208 -0.3736
  766MOL0     H 3366   4.768   0.099   9.042 -3.6301  2.4733 -1.3616
  766MOL0     H 3367   4.910   0.154   8.933  0.4279  2.5465 -0.2626
  766MOL0     H 3368   4.806   0.389   8.964 -1.7695  0.7171  0.6959
  766MOL0     H 3369   4.672   0.312   9.040  0.0524 -1.3357  0.3999
  766MOL0     H 3370   4.598   0.322   8.603  2.3934  1.8392  4.4711
  766MOL0     H 3371   4.304   0.313   8.483  0.1170  2.0900 -3.4603
  766MOL0     H 3372   4.464   0.299   8.409 -1.8649  0.9689 -1.5766
  766MOL0     H 3373   4.345   0.160   8.400  2.2388 -0.3600 -0.3140
  766MOL0     H 3374   3.934  -0.074   8.572 -3.8653  0.7342 -1.2762
  766MOL0     H 3375   3.715  -0.127   8.624  0.5767 -2.5515 -0.5953
  766MOL0     H 3376   3.512  -0.119   8.731 -0.4118 -0.3148  0.4126
  766MOL0     H 3377   3.584  -0.290   8.725  1.3682 -0.6783  1.9568
  766MOL0     H 3378   3.351  -0.326   8.741 -0.8957 -0.6235  0.8869
  766MOL0     H 3379   3.427  -0.341   8.901  1.2556  0.6083  0.0987
  766MOL0     H 3380   3.282  -0.085   8.803  0.5786  0.4186 -0.4497
  766MOL0     H 3381   3.365  -0.109   8.960  0.1652 -0.6834  0.9372
  766MOL0     H 3382   3.116  -0.278   8.894 -0.2219  0.1675  1.0557
  766MOL0     H 3383   3.204  -0.265   9.046  0.5174  2.1258  1.3912
  766MOL0     H 3384   3.069  -0.034   8.906 -0.1542 -0.7628  0.2286
  766MOL0     H 3385   3.155  -0.014   9.052 -2.4397  0.9888  1.7201
  766MOL0     H 3386   2.929  -0.217   9.056 -0.7569  0.4168  1.2919
  766MOL0     H 3387   3.004  -0.114   9.182 -2.6941  2.1705  0.2932
  766MOL0     H 3388   2.838  -0.029   8.944 -2.4380 -3.0042  0.0305
  766MOL0     H 3389   2.898   0.078   9.079  0.9915 -1.9117  1.9546
  766MOL0     H 3390   2.693   0.040   9.161  2.3313  1.8901 -0.8623
  766MOL0     H 3391   2.787  -0.092   9.235  2.3194  0.1858 -0.7879
  766MOL0     H 3392   3.826  -0.141   9.042  1.3859 -2.4882 -0.3563
  766MOL0     H 3393   4.042  -0.078   8.992  0.4513  1.5200 -0.1052
  766MOL0     H 3394   4.355   0.007   8.880  0.6626  2.2768  3.0834
  766MOL0     H 3395   4.552   0.097   8.953  0.4767  0.5095 -0.3286
  766MOL0     H 3396   6.253   0.189   9.766  1.4855  0.7446 -0.8280
  766MOL0     H 3397   6.496   0.190   9.714 -1.4332  4.2341  4.4573
  766MOL0     H 3398   6.917   0.012   9.537 -1.1513  2.2783  1.1965
  766MOL0     H 3399   7.154  -0.025   9.540 -0.2025 -1.2006 -0.1382
  766MOL0     H 3400   7.391  -0.087   9.900 -0.6259 -0.8842  0.6498
  766MOL0     H 3401   7.329  -0.251   9.874  0.7610 -0.1915  1.7646
  766MOL0     H 3402   7.485  -0.329   9.732  0.5969 -0.6893  0.3014
  766MOL0     H 3403   7.570  -0.238   9.860 -0.5844 -0.4896  0.5352
  766MOL0     H 3404   7.512  -0.125   9.582 -1.5637  3.0893  1.2694
  766MOL0     H 3405   7.669  -0.200   9.639 -1.4478 -1.0460 -4.5232
  766MOL0     H 3406   7.675  -0.027   9.820 -0.2937  0.7965  0.2218
  766MOL0     H 3407   7.539   0.052   9.745  1.4006  1.0716  0.4187
  766MOL0     H 3408   7.880   0.115   9.482 -0.0750 -1.1781 -1.2945
  766MOL0     H 3409   7.142  -0.142   9.955  2.0014  1.9712  0.1340
  766MOL0     H 3410   6.900  -0.069   9.963  1.0200  0.9209  1.1715
  767MOL0     O 3411   8.586   2.434   2.101  0.3307 -1.0503 -0.3080
  767MOL0     C 3412   8.555   2.394   2.214 -0.3462  0.1315 -0.4907
  767MOL0     O 3413   8.423   2.375   2.269 -0.1468  0.3422  0.3965
  767MOL0     C 3414   8.318   2.397   2.179  0.2634  0.2354  0.1559
  767MOL0     C 3415   8.294   2.333   2.057  0.0866 -1.3266 -0.6582
  767MOL0     C 3416   8.178   2.359   1.982 -0.1291 -0.7163  0.5374
  767MOL0     C 3417   8.094   2.466   2.019  0.2895 -0.8968  0.4439
  767MOL0     O 3418   7.985   2.498   1.937  0.6592 -0.1585  0.1392
  767MOL0     C 3419   7.936   2.631   1.924  0.8840  0.3918  0.1139
  767MOL0     C 3420   7.835   2.639   1.810 -0.2515  0.4061 -0.0685
  767MOL0     C 3421   7.725   2.544   1.828  0.3212  0.4567 -0.8343
  767MOL0     C 3422   7.609   2.554   1.737 -0.2724  0.1277 -0.4772
  767MOL0     C 3423   7.499   2.452   1.770 -0.0723  0.6551 -0.6910
  767MOL0     C 3424   7.368   2.479   1.689 -0.8962 -0.0803  1.1962
  767MOL0     C 3425   7.328   2.622   1.667 -0.2330 -0.2239 -0.3732
  767MOL0     C 3426   7.196   2.643   1.582 -0.1587  0.0040 -0.2050
  767MOL0     N 3427   7.085   2.579   1.655 -0.2778 -0.2267 -0.3977
  767MOL0     C 3428   7.006   2.647   1.735  0.5821 -0.2473 -0.5464
  767MOL0     C 3429   6.895   2.572   1.757 -0.7974 -0.1577 -0.5359
  767MOL0     C 3430   6.766   2.605   1.819 -0.5002  0.5969 -1.2242
  767MOL0     C 3431   6.648   2.603   1.715 -0.1426  0.1255 -0.0118
  767MOL0     C 3432   6.521   2.621   1.794 -0.6619  0.3853 -0.0986
  767MOL0     C 3433   6.400   2.680   1.716 -0.1784 -0.0649  1.0103
  767MOL0     O 3434   6.369   2.596   1.600  0.3838 -0.5811 -0.0956
  767MOL0     C 3435   6.242   2.619   1.551  0.6912  0.6434 -0.6895
  767MOL0     C 3436   6.192   2.527   1.467 -0.6438 -0.0331  0.1550
  767MOL0     C 3437   6.070   2.542   1.400  0.1771  0.3631 -0.2679
  767MOL0     C 3438   6.036   2.447   1.279  0.3840 -0.0461  0.1561
  767MOL0     C 3439   5.997   2.666   1.407 -0.2127  0.0926 -0.0921
  767MOL0     C 3440   5.862   2.705   1.340  0.4893  0.3572  0.0059
  767MOL0     O 3441   5.838   2.838   1.337 -0.5212  0.1206  0.1382
  767MOL0     C 3442   5.726   2.903   1.303  0.3351 -0.2906 -0.8100
  767MOL0     C 3443   5.710   3.036   1.361  0.5487 -0.4934  0.1056
  767MOL0     C 3444   5.598   3.124   1.331 -0.6148  0.3112  0.2236
  767MOL0     C 3445   5.506   3.078   1.228 -0.3497  0.3595 -0.2808
  767MOL0     O 3446   5.405   3.150   1.178 -0.4047  0.4656 -1.1237
  767MOL0     C 3447   5.404   3.297   1.178  0.0289  0.9563  0.1184
  767MOL0     C 3448   5.281   3.366   1.133 -0.6301  0.7049  0.8664
  767MOL0     C 3449   5.167   3.361   1.233  0.8055  0.6228  0.1595
  767MOL0     C 3450   5.048   3.273   1.180  0.1743  0.2090  0.0091
  767MOL0     C 3451   4.963   3.224   1.295 -0.3304  0.0787 -1.0377
  767MOL0     C 3452   4.917   3.325   1.395  0.3169 -0.1607  0.8893
  767MOL0     C 3453   4.829   3.274   1.513  0.0227  0.1883  0.1551
  767MOL0     C 3454   4.783   3.380   1.613  0.1599  0.2112  0.3612
  767MOL0    Cl 3455   4.601   3.417   1.601 -0.1060 -0.2928 -0.1182
  767MOL0     C 3456   5.531   2.951   1.164 -0.2921 -0.5582  1.0578
  767MOL0     C 3457   5.633   2.870   1.204  0.3092  0.0583 -0.5860
  767MOL0     O 3458   5.785   2.627   1.286  0.2915  0.0158  0.4231
  767MOL0     C 3459   6.055   2.766   1.479 -0.3633 -0.1888  0.4605
  767MOL0     C 3460   6.174   2.747   1.554 -0.4965  0.0653  0.1062
  767MOL0     N 3461   6.923   2.451   1.704 -1.5875 -0.7345  0.8817
  767MOL0     N 3462   7.040   2.460   1.637  0.4921 -0.2020  0.3857
  767MOL0     C 3463   8.122   2.538   2.134  0.2010  0.0923  0.3336
  767MOL0     C 3464   8.232   2.496   2.220 -0.6522 -0.7603 -0.4787
  767MOL0     C 3465   8.676   2.362   2.291 -0.3292  0.1052 -0.1653
  767MOL0     C 3466   8.807   2.387   2.237 -0.2477 -0.0086 -0.2143
  767MOL0     C 3467   8.921   2.337   2.307  0.5622 -0.6516 -0.3310
  767MOL0     C 3468   8.915   2.269   2.434 -0.2317  0.6333 -0.2521
  767MOL0     O 3469   9.039   2.224   2.484  0.7913 -0.8512  0.0557
  767MOL0     C 3470   9.021   2.129   2.585  0.5228 -0.1248 -1.3152
  767MOL0     C 3471   9.154   2.103   2.654  0.1403  0.4361 -0.9046
  767MOL0     C 3472   9.239   2.224   2.701 -0.1178 -0.8365  0.9554
  767MOL0     C 3473   9.314   2.192   2.835 -0.8453  0.5776 -0.2534
  767MOL0     C 3474   9.438   2.104   2.824 -0.1564 -0.0662  1.1022
  767MOL0     C 3475   9.534   2.029   2.810 -0.3454 -0.2049  0.2980
  767MOL0     C 3476   8.781   2.253   2.485 -0.5260 -0.0077  0.4262
  767MOL0     C 3477   8.666   2.304   2.416 -0.0630  0.1808 -0.1333
  767MOL0     H 3478   8.371   2.259   2.038  0.1301 -1.2183 -0.9048
  767MOL0     H 3479   8.147   2.307   1.892  2.2448  0.5653 -1.1377
  767MOL0     H 3480   7.897   2.669   2.019  1.6668  1.0455  0.1894
  767MOL0     H 3481   8.016   2.704   1.905 -0.2255  1.9458  1.1418
  767MOL0     H 3482   7.799   2.742   1.802 -1.5537 -0.1589 -2.1122
  767MOL0     H 3483   7.894   2.613   1.722 -0.8610 -0.7508 -0.1597
  767MOL0     H 3484   7.766   2.443   1.819 -0.7761  0.1381 -3.0341
  767MOL0     H 3485   7.679   2.549   1.927 -2.1839 -3.5148 -1.5479
  767MOL0     H 3486   7.564   2.654   1.747  0.3881  0.3162  0.9302
  767MOL0     H 3487   7.635   2.547   1.631 -1.4960  0.3015 -0.8052
  767MOL0     H 3488   7.527   2.350   1.743 -3.8265 -1.1059  1.2279
  767MOL0     H 3489   7.481   2.456   1.878 -2.0093 -2.4153 -0.7718
  767MOL0     H 3490   7.371   2.432   1.590 -2.3724  1.2111  0.5014
  767MOL0     H 3491   7.294   2.420   1.745  0.7737 -3.3061  0.2626
  767MOL0     H 3492   7.327   2.669   1.765  0.9214 -2.7457  0.9602
  767MOL0     H 3493   7.409   2.673   1.613 -1.5287  0.9653 -1.2715
  767MOL0     H 3494   7.212   2.590   1.487  2.2300 -1.4381  0.9119
  767MOL0     H 3495   7.168   2.748   1.566 -0.3249  0.0378  0.3140
  767MOL0     H 3496   7.019   2.752   1.758 -1.5863 -0.5311  2.5844
  767MOL0     H 3497   6.743   2.534   1.899  1.0173 -0.1594 -1.4148
  767MOL0     H 3498   6.774   2.699   1.875  1.0878 -2.1057  3.6553
  767MOL0     H 3499   6.640   2.504   1.669  4.2890 -0.7625  0.7620
  767MOL0     H 3500   6.664   2.679   1.637 -1.6172 -1.3382 -1.8437
  767MOL0     H 3501   6.539   2.699   1.868  2.3167 -1.4712  1.3642
  767MOL0     H 3502   6.493   2.526   1.840  2.2433 -0.0636  0.9401
  767MOL0     H 3503   6.424   2.783   1.687  0.9336 -0.9255 -1.3598
  767MOL0     H 3504   6.315   2.690   1.784 -1.4289  3.9809 -0.8300
  767MOL0     H 3505   6.257   2.450   1.426  1.7260  2.0964 -0.3413
  767MOL0     H 3506   5.948   2.470   1.219  0.5495  2.0788  0.6508
  767MOL0     H 3507   6.124   2.425   1.218  0.7413 -1.0752  1.0138
  767MOL0     H 3508   6.008   2.349   1.318 -0.3530 -0.8095 -2.1160
  767MOL0     H 3509   5.786   3.050   1.436  1.5974  1.1796 -1.1864
  767MOL0     H 3510   5.573   3.210   1.392 -3.0943 -0.6017  0.5688
  767MOL0     H 3511   5.426   3.334   1.279  1.1685  0.8228 -0.0654
  767MOL0     H 3512   5.485   3.318   1.108  2.2919 -0.3552  2.2003
  767MOL0     H 3513   5.299   3.472   1.113 -0.0366  0.1191 -2.0762
  767MOL0     H 3514   5.258   3.316   1.039  0.9304  1.0533  0.2683
  767MOL0     H 3515   5.137   3.464   1.254 -1.4557 -0.0559  0.4923
  767MOL0     H 3516   5.195   3.318   1.329 -1.1132 -0.6658  0.1911
  767MOL0     H 3517   4.990   3.330   1.106 -2.3099  0.2729  1.8727
  767MOL0     H 3518   5.097   3.187   1.134  1.4065  1.2907 -0.8026
  767MOL0     H 3519   5.019   3.145   1.345 -1.2870 -0.3048 -0.5441
  767MOL0     H 3520   4.876   3.175   1.250 -0.5039 -1.7033  1.0502
  767MOL0     H 3521   5.008   3.370   1.435 -0.7381  1.0752  2.0084
  767MOL0     H 3522   4.847   3.398   1.351 -1.4470 -0.2963  3.2491
  767MOL0     H 3523   4.894   3.201   1.563  2.8363  2.0447 -0.5491
  767MOL0     H 3524   4.742   3.222   1.473  1.4780 -0.4170 -2.4356
  767MOL0     H 3525   4.847   3.469   1.610  0.1546  0.1923 -1.1179
  767MOL0     H 3526   4.784   3.342   1.716 -2.7213  2.9724  1.5796
  767MOL0     H 3527   5.465   2.914   1.086 -0.1371 -0.0922  0.7023
  767MOL0     H 3528   5.646   2.775   1.152  0.1899  0.0714 -0.6387
  767MOL0     H 3529   6.017   2.867   1.493  3.5406  1.2964  1.6830
  767MOL0     H 3530   6.212   2.830   1.613  1.4244 -0.1981 -0.6755
  767MOL0     H 3531   8.053   2.617   2.161  0.5911 -0.5655  3.7290
  767MOL0     H 3532   8.254   2.552   2.311  1.0366  2.4862 -2.6614
  767MOL0     H 3533   8.831   2.429   2.140 -0.6462 -2.0298 -1.2591
  767MOL0     H 3534   9.013   2.360   2.254 -0.2039 -0.5814 -1.6830
  767MOL0     H 3535   8.957   2.166   2.666 -0.8938  1.0607 -2.9191
  767MOL0     H 3536   8.976   2.038   2.546  0.9204  0.2886 -2.8159
  767MOL0     H 3537   9.224   2.040   2.599 -1.5521 -0.1095 -2.5330
  767MOL0     H 3538   9.133   2.047   2.745  1.0373 -1.2100 -1.6698
  767MOL0     H 3539   9.170   2.306   2.719  1.0247  0.3718  0.0171
  767MOL0     H 3540   9.308   2.259   2.624 -0.3132  1.1866  1.6448
  767MOL0     H 3541   9.248   2.140   2.904  3.0370 -2.2165  1.7736
  767MOL0     H 3542   9.350   2.284   2.882 -0.2007 -2.0689  5.2480
  767MOL0     H 3543   9.618   1.962   2.810 -1.2994 -1.5189  2.6836
  767MOL0     H 3544   8.762   2.202   2.579  0.6095  0.1962  0.7825
  767MOL0     H 3545   8.568   2.273   2.452 -0.6790  2.1349 -0.0102
  768MOL0     O 3546   4.133   7.896   0.563 -0.2743  0.0956  0.6024
  768MOL0     C 3547   4.169   7.864   0.446  0.5859 -0.3695 -0.2317
  768MOL0     O 3548   4.087   7.827   0.349  0.3451 -0.1361  0.3198
  768MOL0     C 3549   3.951   7.838   0.374  0.4504 -1.2072  0.0631
  768MOL0     C 3550   3.874   7.928   0.305 -0.9489 -0.8613 -0.0295
  768MOL0     C 3551   3.743   7.939   0.329  0.4998 -0.2002  0.1230
  768MOL0     C 3552   3.680   7.851   0.418  0.4228  0.6439 -0.5464
  768MOL0     O 3553   3.545   7.867   0.435 -0.3214 -0.1908 -0.7484
  768MOL0     C 3554   3.454   7.755   0.446 -0.1923 -0.0548  0.0420
  768MOL0     C 3555   3.320   7.794   0.507  0.1547 -0.7136 -0.4820
  768MOL0     C 3556   3.246   7.899   0.423  0.3919 -0.7842 -0.2558
  768MOL0     C 3557   3.103   7.911   0.474 -0.1665 -0.8998 -0.6779
  768MOL0     C 3558   3.029   8.024   0.405 -0.2149  0.1871  0.0805
  768MOL0     C 3559   2.880   8.013   0.422  0.6083  0.0182  0.0176
  768MOL0     C 3560   2.801   7.932   0.317  1.0749  0.5752  0.2917
  768MOL0     C 3561   2.652   7.969   0.307  0.4562 -0.4338  0.6354
  768MOL0     N 3562   2.618   8.103   0.268 -0.2037 -0.3535 -0.1400
  768MOL0     C 3563   2.609   8.199   0.362 -0.8734 -1.0146  0.6004
  768MOL0     C 3564   2.584   8.313   0.289  1.0785 -0.2625 -0.2779
  768MOL0     C 3565   2.581   8.454   0.342  0.6520 -0.6854  0.0701
  768MOL0     C 3566   2.709   8.532   0.327 -0.4209 -0.1995  0.2517
  768MOL0     C 3567   2.822   8.491   0.415  0.4408 -0.5104  0.0754
  768MOL0     C 3568   2.958   8.537   0.365  0.0145 -0.1800  0.8060
  768MOL0     O 3569   3.054   8.516   0.470 -0.6525  0.3977  1.3288
  768MOL0     C 3570   3.187   8.518   0.430  0.7152  0.6303 -1.3379
  768MOL0     C 3571   3.278   8.441   0.520 -0.2860  0.0363  1.1036
  768MOL0     C 3572   3.412   8.431   0.475 -0.0223 -0.0840 -0.1593
  768MOL0     C 3573   3.504   8.352   0.570  0.1153 -0.1891 -0.0587
  768MOL0     C 3574   3.460   8.500   0.360  0.2225 -0.6340  0.0022
  768MOL0     C 3575   3.608   8.489   0.309  0.5360  0.0345 -0.5751
  768MOL0     O 3576   3.698   8.442   0.393  0.2078  0.0358 -0.2421
  768MOL0     C 3577   3.832   8.430   0.358  0.4803 -1.3026 -0.1969
  768MOL0     C 3578   3.887   8.300   0.364 -0.3003 -0.5939  0.0641
  768MOL0     C 3579   4.027   8.281   0.348  0.5950 -0.7187  0.3804
  768MOL0     C 3580   4.108   8.390   0.320 -0.5524  1.2197 -0.0887
  768MOL0     O 3581   4.247   8.391   0.280  0.5373 -0.5103 -0.7014
  768MOL0     C 3582   4.316   8.307   0.372  0.2587 -1.0530 -0.1102
  768MOL0     C 3583   4.456   8.316   0.344 -1.1317 -0.3209  0.3612
  768MOL0     C 3584   4.526   8.177   0.382  0.0975  0.1729 -0.1991
  768MOL0     C 3585   4.677   8.188   0.416  0.6517  0.0677  0.2937
  768MOL0     C 3586   4.706   8.286   0.536  0.1531 -0.3304  0.1574
  768MOL0     C 3587   4.862   8.305   0.558 -0.5664  0.5241  0.8999
  768MOL0     C 3588   4.946   8.182   0.601  0.3226  0.0262  0.2986
  768MOL0     C 3589   5.083   8.217   0.668  0.4298  0.2617 -0.6240
  768MOL0    Cl 3590   5.184   8.312   0.558 -0.1527  0.3910  0.0766
  768MOL0     C 3591   4.053   8.519   0.311 -0.5357 -0.2632 -0.0513
  768MOL0     C 3592   3.919   8.540   0.330  0.1840 -0.5953 -0.0737
  768MOL0     O 3593   3.635   8.537   0.201 -0.4896  0.1873 -0.1503
  768MOL0     C 3594   3.365   8.552   0.271 -0.5601 -0.1240  0.2142
  768MOL0     C 3595   3.242   8.574   0.312  1.3957  0.8973  0.0362
  768MOL0     N 3596   2.599   8.283   0.155  0.2885  0.4976  0.4331
  768MOL0     N 3597   2.614   8.151   0.145  0.1917  0.7633 -0.1782
  768MOL0     C 3598   3.751   7.762   0.503  0.4339 -0.2300  0.1845
  768MOL0     C 3599   3.893   7.755   0.474  0.3939  0.5091  0.6932
  768MOL0     C 3600   4.311   7.836   0.424 -0.0618 -0.1812  0.0009
  768MOL0     C 3601   4.359   7.822   0.291 -0.2733  0.5523 -0.1950
  768MOL0     C 3602   4.502   7.811   0.270  0.4116 -0.4757 -0.2644
  768MOL0     C 3603   4.591   7.791   0.384  0.0983 -0.4581  0.9182
  768MOL0     O 3604   4.726   7.774   0.376  0.5238 -0.7578 -0.6144
  768MOL0     C 3605   4.787   7.784   0.245 -0.5416 -0.1455 -0.7029
  768MOL0     C 3606   4.938   7.822   0.264 -0.3722  0.3872  0.5756
  768MOL0     C 3607   5.002   7.735   0.377 -0.1550 -0.0856  0.8175
  768MOL0     C 3608   5.164   7.728   0.375  0.8929  0.4542 -0.4726
  768MOL0     C 3609   5.237   7.833   0.442  0.1646  0.4893  0.4653
  768MOL0     C 3610   5.296   7.926   0.487 -0.3551  0.0091 -0.0897
  768MOL0     C 3611   4.538   7.798   0.519  0.1139  0.1342 -0.6053
  768MOL0     C 3612   4.403   7.826   0.534 -0.6543 -0.0823  0.2791
  768MOL0     H 3613   3.921   8.001   0.240  0.2380 -0.3721  1.3190
  768MOL0     H 3614   3.679   8.016   0.285  1.1013 -0.7644 -1.8670
  768MOL0     H 3615   3.429   7.714   0.347  0.1338  0.0771 -0.0959
  768MOL0     H 3616   3.485   7.664   0.499 -2.5692 -1.4229 -0.7393
  768MOL0     H 3617   3.253   7.708   0.519  1.3417 -1.6596 -0.4646
  768MOL0     H 3618   3.334   7.831   0.609  0.9923  0.6960 -1.0773
  768MOL0     H 3619   3.306   7.990   0.434  3.3148 -2.3254 -2.0710
  768MOL0     H 3620   3.246   7.864   0.319 -1.1805 -0.6354 -0.3281
  768MOL0     H 3621   3.044   7.820   0.458 -2.4169  0.5934 -1.3952
  768MOL0     H 3622   3.094   7.917   0.583 -0.4202  0.4807 -0.7505
  768MOL0     H 3623   3.062   8.115   0.456 -3.1611  2.5812 -1.9506
  768MOL0     H 3624   3.048   8.042   0.299  1.4596  0.5624  0.4106
  768MOL0     H 3625   2.862   7.983   0.526  0.5464 -0.5213 -0.1460
  768MOL0     H 3626   2.852   8.118   0.407  1.5487  0.2476 -0.1963
  768MOL0     H 3627   2.825   7.955   0.213 -2.0819  0.7819 -0.5177
  768MOL0     H 3628   2.793   7.824   0.336 -3.1835  0.6678  0.0166
  768MOL0     H 3629   2.607   7.949   0.405 -0.8253 -0.1749  0.1230
  768MOL0     H 3630   2.606   7.902   0.233 -0.5802 -0.8490  1.6247
  768MOL0     H 3631   2.622   8.199   0.469 -2.0051  0.2257  0.7698
  768MOL0     H 3632   2.496   8.505   0.295  0.4570 -0.8981  0.1894
  768MOL0     H 3633   2.560   8.450   0.449 -0.5789 -0.6786 -0.1486
  768MOL0     H 3634   2.694   8.637   0.352 -2.2804  0.0035 -1.4304
  768MOL0     H 3635   2.738   8.529   0.222 -0.1193 -0.6921  0.3437
  768MOL0     H 3636   2.813   8.382   0.425 -0.8624 -0.2532  2.3921
  768MOL0     H 3637   2.806   8.538   0.512 -1.3788  2.0943 -1.3588
  768MOL0     H 3638   2.941   8.644   0.349  0.9293 -0.2018 -0.4612
  768MOL0     H 3639   2.992   8.484   0.276  5.2792  0.0379  2.3205
  768MOL0     H 3640   3.249   8.397   0.615  1.5538  0.5062  1.9151
  768MOL0     H 3641   3.566   8.274   0.526  0.9296  0.7915 -0.7093
  768MOL0     H 3642   3.582   8.415   0.613  1.5548 -0.2608 -2.3852
  768MOL0     H 3643   3.442   8.322   0.655  0.9346  2.4051  1.5839
  768MOL0     H 3644   3.829   8.215   0.397  2.3099 -2.6286 -0.2677
  768MOL0     H 3645   4.066   8.180   0.350  0.4750 -0.7581  1.4119
  768MOL0     H 3646   4.296   8.341   0.474 -0.8999 -0.8001 -0.4085
  768MOL0     H 3647   4.296   8.199   0.372  1.9176 -1.4084 -1.3792
  768MOL0     H 3648   4.470   8.332   0.237  0.3003 -0.4030  0.5180
  768MOL0     H 3649   4.502   8.397   0.403 -0.6101  0.6087 -1.2521
  768MOL0     H 3650   4.511   8.114   0.294  1.9096  1.2820 -1.3360
  768MOL0     H 3651   4.479   8.132   0.471  3.0685  0.6477  1.7416
  768MOL0     H 3652   4.710   8.086   0.440 -1.7051 -0.4874  1.4825
  768MOL0     H 3653   4.726   8.230   0.327  0.0796  2.0613  0.8717
  768MOL0     H 3654   4.650   8.258   0.626 -1.4940  2.9598  0.3425
  768MOL0     H 3655   4.665   8.386   0.518  0.2027 -0.2955  0.2331
  768MOL0     H 3656   4.905   8.350   0.468 -0.2983  0.9149  1.2211
  768MOL0     H 3657   4.879   8.380   0.635 -0.4453  1.5542 -0.1061
  768MOL0     H 3658   4.962   8.120   0.512 -1.1400  0.9510 -0.6407
  768MOL0     H 3659   4.881   8.131   0.672 -1.1487  0.8366 -0.4336
  768MOL0     H 3660   5.143   8.129   0.691  2.1397  0.6835 -3.0940
  768MOL0     H 3661   5.048   8.267   0.759 -0.5652 -0.4007 -0.6239
  768MOL0     H 3662   4.114   8.606   0.287  1.8726 -1.3232  1.7852
  768MOL0     H 3663   3.879   8.641   0.320 -1.1454 -1.2202 -1.4261
  768MOL0     H 3664   3.389   8.597   0.175 -2.2262  2.7327  1.0009
  768MOL0     H 3665   3.174   8.639   0.257  0.8076  0.0351 -0.2757
  768MOL0     H 3666   3.699   7.699   0.574 -0.5070 -0.8083 -0.9822
  768MOL0     H 3667   3.958   7.686   0.527 -0.5820  0.7147  2.2367
  768MOL0     H 3668   4.304   7.806   0.199  0.0080 -1.5709 -0.0517
  768MOL0     H 3669   4.547   7.778   0.178  0.8401  0.0066 -0.2349
  768MOL0     H 3670   4.774   7.690   0.192  0.1562 -0.2265 -0.7436
  768MOL0     H 3671   4.740   7.850   0.172 -3.4670 -0.3849  0.8042
  768MOL0     H 3672   4.942   7.930   0.278  1.5281  0.1618  2.1031
  768MOL0     H 3673   4.989   7.806   0.168  0.5315  0.7915  0.9852
  768MOL0     H 3674   4.971   7.631   0.360  1.3854 -0.1606 -2.1943
  768MOL0     H 3675   4.969   7.773   0.475  0.2072  3.1733 -0.2014
  768MOL0     H 3676   5.201   7.727   0.272 -0.4202  0.7528 -0.9583
  768MOL0     H 3677   5.185   7.627   0.414 -2.0830 -0.6518 -1.4852
  768MOL0     H 3678   5.368   7.988   0.537  1.5645 -2.5227  0.4761
  768MOL0     H 3679   4.606   7.778   0.601  1.6972 -0.6086 -2.0493
  768MOL0     H 3680   4.366   7.855   0.632  0.7115  1.2514  0.4433
  769MOL0     O 3681   3.967   6.604   3.868  0.3913 -0.3049  0.7307
  769MOL0     C 3682   3.999   6.492   3.901  0.2065  0.5302 -0.1061
  769MOL0     O 3683   3.916   6.397   3.954 -0.0232  0.8599  0.0216
  769MOL0     C 3684   3.783   6.428   3.981  0.3437 -0.3625  0.0125
  769MOL0     C 3685   3.736   6.550   4.037  0.0968 -0.4100  0.3382
  769MOL0     C 3686   3.603   6.565   4.089 -0.8430 -0.3548  0.3919
  769MOL0     C 3687   3.511   6.456   4.086  1.0269 -0.0457 -0.0194
  769MOL0     O 3688   3.383   6.468   4.129  0.0103  0.2250 -0.2286
  769MOL0     C 3689   3.300   6.549   4.049 -0.0732  0.1386  0.0557
  769MOL0     C 3690   3.157   6.524   4.072  0.7965 -0.0150 -0.3558
  769MOL0     C 3691   3.082   6.582   3.950 -0.7098 -0.5702  0.6441
  769MOL0     C 3692   2.934   6.569   3.966  0.3533 -0.4453  0.0856
  769MOL0     C 3693   2.867   6.641   3.842 -0.0983  0.2410 -0.3223
  769MOL0     C 3694   2.887   6.553   3.714 -0.8028  0.6429 -0.4006
  769MOL0     C 3695   2.800   6.617   3.609 -0.1178 -0.4254 -0.1444
  769MOL0     C 3696   2.790   6.537   3.481 -0.4145 -0.9588 -0.4337
  769MOL0     N 3697   2.716   6.417   3.509 -0.9688 -0.2680 -0.5459
  769MOL0     C 3698   2.575   6.400   3.496 -0.2364 -0.8467 -0.3111
  769MOL0     C 3699   2.564   6.263   3.488 -0.1241 -0.6044  0.0042
  769MOL0     C 3700   2.433   6.209   3.475  0.0839 -0.1648 -1.1825
  769MOL0     C 3701   2.337   6.208   3.599 -0.7357  0.6246 -0.5690
  769MOL0     C 3702   2.398   6.123   3.713 -0.4512  0.3619  0.4508
  769MOL0     C 3703   2.301   6.100   3.830 -0.6403 -0.3293  0.0695
  769MOL0     O 3704   2.368   6.035   3.943  0.1563 -0.0178  0.0791
  769MOL0     C 3705   2.323   6.040   4.071  0.1204 -0.4300 -0.2232
  769MOL0     C 3706   2.417   5.991   4.165 -0.0509  0.2054  0.4239
  769MOL0     C 3707   2.389   5.988   4.303  0.5967 -0.2806  0.3892
  769MOL0     C 3708   2.488   5.922   4.403  0.1544  0.1792  0.9073
  769MOL0     C 3709   2.267   6.050   4.342 -0.0918  0.2604 -0.8550
  769MOL0     C 3710   2.230   6.058   4.481  0.7315 -0.3511  0.5522
  769MOL0     O 3711   2.105   5.998   4.518 -0.3348  0.3103 -0.1665
  769MOL0     C 3712   2.064   6.018   4.647 -0.4176 -0.5440 -0.0591
  769MOL0     C 3713   2.005   6.140   4.694 -0.4578  1.5767 -0.4201
  769MOL0     C 3714   1.948   6.138   4.822  0.3318 -0.5883 -1.3092
  769MOL0     C 3715   1.931   6.020   4.894 -1.4840  0.3468  0.6698
  769MOL0     O 3716   1.865   6.027   5.004 -0.6339 -0.3977  0.9151
  769MOL0     C 3717   1.767   5.931   5.035  0.7742  0.2043 -0.1216
  769MOL0     C 3718   1.665   5.985   5.134  0.8330 -0.7510  1.2228
  769MOL0     C 3719   1.576   6.104   5.095 -0.5222  0.0077  0.3906
  769MOL0     C 3720   1.472   6.129   5.213 -0.0760 -0.1676 -0.4003
  769MOL0     C 3721   1.374   6.243   5.187  0.7541 -0.1232 -0.2324
  769MOL0     C 3722   1.250   6.232   5.278 -0.4055 -0.0390 -0.1595
  769MOL0     C 3723   1.152   6.116   5.250  0.3244  0.9231  0.4378
  769MOL0     C 3724   1.074   6.140   5.116  0.6372  0.3354  0.6590
  769MOL0    Cl 3725   0.936   6.024   5.086 -0.4873  0.0394  0.1149
  769MOL0     C 3726   1.969   5.895   4.835  0.4971 -0.0521 -1.2779
  769MOL0     C 3727   2.038   5.900   4.719 -0.7899 -0.6392 -0.9602
  769MOL0     O 3728   2.303   6.134   4.549  0.5426  0.7738 -0.1007
  769MOL0     C 3729   2.171   6.093   4.252 -0.1584 -0.2408  0.2179
  769MOL0     C 3730   2.205   6.097   4.112  0.3088 -0.3066 -0.4543
  769MOL0     N 3731   2.685   6.207   3.501  0.0793 -0.3306  1.0597
  769MOL0     N 3732   2.775   6.300   3.510  0.2537 -0.5767 -0.7828
  769MOL0     C 3733   3.549   6.340   4.019 -0.1978 -0.0551  0.2297
  769MOL0     C 3734   3.682   6.329   3.985  0.2630 -0.0851  0.4926
  769MOL0     C 3735   4.146   6.463   3.896 -0.3280  0.6841  0.5444
  769MOL0     C 3736   4.195   6.335   3.925 -0.3800 -0.1722 -0.3045
  769MOL0     C 3737   4.334   6.316   3.920 -0.3824  0.2581  0.1642
  769MOL0     C 3738   4.424   6.414   3.889  0.2487  0.0411 -0.5819
  769MOL0     O 3739   4.557   6.397   3.908  1.0065 -0.3362  0.0124
  769MOL0     C 3740   4.646   6.507   3.911 -0.6277  1.3711 -0.1059
  769MOL0     C 3741   4.769   6.453   3.991  0.7591  0.0168 -0.1293
  769MOL0     C 3742   4.762   6.472   4.135  0.8454  0.4338 -0.0222
  769MOL0     C 3743   4.898   6.427   4.193 -0.2866 -0.4798  0.0747
  769MOL0     C 3744   4.935   6.289   4.208 -0.5957  0.8657 -0.7379
  769MOL0     C 3745   4.953   6.168   4.223  0.1993 -0.9143  0.3424
  769MOL0     C 3746   4.374   6.539   3.860  0.0089 -0.6638 -0.3495
  769MOL0     C 3747   4.234   6.570   3.864 -0.6655 -0.6124  0.2583
  769MOL0     H 3748   3.811   6.629   4.038  0.1702 -0.2118 -3.8888
  769MOL0     H 3749   3.561   6.653   4.136  1.7034  0.5867  1.0438
  769MOL0     H 3750   3.320   6.655   4.066  0.0595  0.3401 -1.2373
  769MOL0     H 3751   3.326   6.520   3.946 -0.3007 -0.7256  0.2306
  769MOL0     H 3752   3.130   6.418   4.081 -1.3968  0.6371  2.4709
  769MOL0     H 3753   3.124   6.561   4.170 -0.3791 -3.3500  0.6456
  769MOL0     H 3754   3.097   6.689   3.929  2.5806 -1.1398 -0.4030
  769MOL0     H 3755   3.103   6.530   3.856 -0.3945  1.8389 -0.7039
  769MOL0     H 3756   2.900   6.466   3.960  0.7808 -0.5054 -1.8400
  769MOL0     H 3757   2.911   6.618   4.061 -0.8275  0.0029 -0.4038
  769MOL0     H 3758   2.764   6.669   3.869  0.1283  0.5492  0.2331
  769MOL0     H 3759   2.900   6.740   3.811 -3.4131  1.6896  0.2984
  769MOL0     H 3760   2.992   6.550   3.683  0.1336  0.9048  2.4987
  769MOL0     H 3761   2.859   6.447   3.722  1.4928 -0.1475 -1.9749
  769MOL0     H 3762   2.702   6.646   3.649 -0.8397 -1.7164 -0.8875
  769MOL0     H 3763   2.848   6.713   3.589  1.1137 -0.8296  0.7415
  769MOL0     H 3764   2.891   6.521   3.442 -0.5056  1.6067 -1.9225
  769MOL0     H 3765   2.739   6.593   3.402 -0.4532  2.9002  2.0435
  769MOL0     H 3766   2.503   6.481   3.491  0.0470 -0.5298  0.5124
  769MOL0     H 3767   2.378   6.257   3.394 -0.7877  0.0434 -0.4787
  769MOL0     H 3768   2.457   6.106   3.446  1.7856  0.1601 -1.0419
  769MOL0     H 3769   2.244   6.158   3.569 -1.0040  0.7105  0.1029
  769MOL0     H 3770   2.323   6.309   3.636 -2.7339 -0.2997  1.4576
  769MOL0     H 3771   2.481   6.178   3.758 -0.3648 -0.3820  1.2223
  769MOL0     H 3772   2.435   6.025   3.679  2.4993  1.7789 -0.7738
  769MOL0     H 3773   2.230   6.031   3.784 -1.1766  0.4449 -0.2850
  769MOL0     H 3774   2.260   6.197   3.861 -1.7050 -1.0240  0.8975
  769MOL0     H 3775   2.518   5.962   4.138  1.5379  2.3910  3.3932
  769MOL0     H 3776   2.585   5.896   4.358 -0.6442  1.7871 -1.9828
  769MOL0     H 3777   2.506   6.001   4.476 -1.6500  1.7615 -0.2880
  769MOL0     H 3778   2.441   5.844   4.463  0.7947 -2.0980 -1.3585
  769MOL0     H 3779   2.009   6.223   4.624 -0.5061  0.7208 -1.4616
  769MOL0     H 3780   1.910   6.231   4.862 -1.2273 -1.9199  0.4526
  769MOL0     H 3781   1.720   5.896   4.942 -1.2147 -2.5578  1.7523
  769MOL0     H 3782   1.805   5.839   5.080  1.6735 -0.1555 -1.5706
  769MOL0     H 3783   1.598   5.902   5.156 -1.6879  0.5879 -0.8442
  769MOL0     H 3784   1.710   6.023   5.226  2.6725  3.9578 -1.3072
  769MOL0     H 3785   1.519   6.090   5.003 -0.0597  1.8608 -0.2263
  769MOL0     H 3786   1.646   6.184   5.070  0.7316 -1.6309 -1.7171
  769MOL0     H 3787   1.409   6.040   5.220  2.1265 -1.7929  0.0143
  769MOL0     H 3788   1.515   6.143   5.313  0.4544  1.8214 -0.8639
  769MOL0     H 3789   1.339   6.243   5.083  1.6345  0.4018 -0.5406
  769MOL0     H 3790   1.424   6.340   5.197 -0.8365  0.6121  1.1126
  769MOL0     H 3791   1.284   6.214   5.381  0.4392 -0.1229 -0.4494
  769MOL0     H 3792   1.193   6.325   5.279  0.9813  0.9109 -2.4389
  769MOL0     H 3793   1.073   6.114   5.327  0.5738 -4.5930  0.9283
  769MOL0     H 3794   1.197   6.016   5.250  0.9357  1.1575 -1.6337
  769MOL0     H 3795   1.137   6.147   5.027  1.4862  0.0558  1.2187
  769MOL0     H 3796   1.023   6.236   5.127 -0.5253 -0.0868 -0.8519
  769MOL0     H 3797   1.937   5.801   4.879 -2.3800  1.3779 -0.0773
  769MOL0     H 3798   2.057   5.804   4.672 -0.3337 -1.9099  1.6408
  769MOL0     H 3799   2.077   6.135   4.287 -0.1148 -1.0534  1.3719
  769MOL0     H 3800   2.131   6.127   4.037  1.5205  2.3059 -0.7210
  769MOL0     H 3801   3.468   6.269   4.007 -0.5468  0.2903  0.5169
  769MOL0     H 3802   3.706   6.227   3.955 -0.7003  0.2242 -1.4685
  769MOL0     H 3803   4.126   6.254   3.943  0.9277 -1.3290 -0.2824
  769MOL0     H 3804   4.366   6.219   3.958 -4.3718 -1.7924 -1.2071
  769MOL0     H 3805   4.691   6.530   3.814  0.3991  0.7928  0.2139
  769MOL0     H 3806   4.607   6.596   3.961  1.3321  3.1488 -1.5639
  769MOL0     H 3807   4.857   6.510   3.962  1.4190 -1.2393 -0.6745
  769MOL0     H 3808   4.790   6.351   3.957  1.8318  0.9514 -2.4202
  769MOL0     H 3809   4.678   6.426   4.188  1.0556  3.1943  3.0442
  769MOL0     H 3810   4.747   6.579   4.147 -3.0762  0.3332 -2.4061
  769MOL0     H 3811   4.900   6.477   4.290 -0.3261 -1.7996  0.7737
  769MOL0     H 3812   4.979   6.477   4.139 -1.8853  0.0265 -1.9647
  769MOL0     H 3813   4.973   6.062   4.222  0.2783 -0.9753  2.8657
  769MOL0     H 3814   4.440   6.621   3.834  1.3707 -1.0205  1.7288
  769MOL0     H 3815   4.216   6.676   3.851 -0.3639 -0.6320 -0.3350
  770MOL0     O 3816   5.742   2.896   6.980  0.1265  0.1119 -0.0669
  770MOL0     C 3817   5.808   2.829   6.895 -1.1342  0.5327 -0.4641
  770MOL0     O 3818   5.762   2.796   6.772 -0.2113 -0.3233  0.1525
  770MOL0     C 3819   5.633   2.815   6.736  0.4891 -0.2408  0.0646
  770MOL0     C 3820   5.578   2.722   6.652  0.6829  0.1125  0.5134
  770MOL0     C 3821   5.451   2.733   6.597 -0.3272  0.0440 -0.1459
  770MOL0     C 3822   5.374   2.846   6.623 -0.0005  0.0256 -0.0176
  770MOL0     O 3823   5.259   2.851   6.550  0.1218 -0.2450  0.0053
  770MOL0     C 3824   5.154   2.948   6.574  0.0875  0.0233 -0.3820
  770MOL0     C 3825   5.040   2.898   6.493  0.3238  0.1160  0.8394
  770MOL0     C 3826   4.914   2.990   6.492  0.9675  0.5807 -0.4850
  770MOL0     C 3827   4.818   2.959   6.386  0.3850 -0.1620  0.6817
  770MOL0     C 3828   4.707   3.066   6.382  0.3501 -0.4967  0.1692
  770MOL0     C 3829   4.643   3.098   6.239 -0.2110  0.5470 -0.2685
  770MOL0     C 3830   4.546   2.980   6.210  0.5998 -0.4614  0.5454
  770MOL0     C 3831   4.449   3.025   6.101 -0.5918 -0.3192 -0.3317
  770MOL0     N 3832   4.331   2.943   6.092 -0.3243  0.3140  0.6351
  770MOL0     C 3833   4.207   2.976   6.115  0.8222 -0.3782  0.4675
  770MOL0     C 3834   4.134   2.857   6.121  0.2329  1.0587  0.1243
  770MOL0     C 3835   3.985   2.842   6.131 -0.4060  0.8099 -0.2677
  770MOL0     C 3836   3.941   2.718   6.209  0.3703 -0.4074 -0.7124
  770MOL0     C 3837   3.787   2.712   6.191  0.6127 -0.2877  0.1935
  770MOL0     C 3838   3.733   2.596   6.267  0.0179  0.5400 -0.0443
  770MOL0     O 3839   3.591   2.586   6.234 -1.2773  0.4678  0.2668
  770MOL0     C 3840   3.526   2.489   6.297 -0.5178  0.8977  0.1855
  770MOL0     C 3841   3.552   2.354   6.265  0.6568  0.4671 -0.2444
  770MOL0     C 3842   3.483   2.252   6.326 -0.1941  0.2386 -0.8795
  770MOL0     C 3843   3.508   2.111   6.304 -0.0612  1.2423 -0.0349
  770MOL0     C 3844   3.381   2.286   6.423 -0.2498  1.2901 -0.3200
  770MOL0     C 3845   3.309   2.191   6.515 -0.2385  0.2004 -0.3335
  770MOL0     O 3846   3.175   2.206   6.531 -0.0886 -0.4926  0.1422
  770MOL0     C 3847   3.087   2.113   6.582 -0.4889 -0.2985 -0.1430
  770MOL0     C 3848   3.102   1.978   6.551  0.4370  0.1351  0.2970
  770MOL0     C 3849   2.999   1.892   6.589 -0.4341  0.1901 -0.3964
  770MOL0     C 3850   2.885   1.933   6.661  0.4625  0.0854 -0.3409
  770MOL0     O 3851   2.784   1.841   6.679 -0.5249  0.9245 -0.1528
  770MOL0     C 3852   2.675   1.881   6.756 -0.9561 -0.1774 -0.5376
  770MOL0     C 3853   2.580   1.758   6.772  0.3667  0.1526 -0.2290
  770MOL0     C 3854   2.441   1.803   6.821 -0.1306 -0.2341  0.2280
  770MOL0     C 3855   2.345   1.688   6.839  0.1061  0.2659 -0.2031
  770MOL0     C 3856   2.204   1.743   6.854 -0.4359 -0.2698 -0.4365
  770MOL0     C 3857   2.096   1.666   6.772 -0.2316  0.0990 -0.9420
  770MOL0     C 3858   1.964   1.684   6.840 -0.3024 -0.6724 -0.0317
  770MOL0     C 3859   1.872   1.567   6.818  0.0562  0.8220  0.4742
  770MOL0    Cl 3860   1.702   1.605   6.842 -0.1494 -0.3100  0.0745
  770MOL0     C 3861   2.880   2.068   6.702  0.7988 -0.2276 -0.1033
  770MOL0     C 3862   2.989   2.148   6.666  0.9707 -0.3173  0.7496
  770MOL0     O 3863   3.371   2.099   6.566 -0.0171  0.3388  0.1770
  770MOL0     C 3864   3.344   2.420   6.448  0.0663  0.0565  0.0350
  770MOL0     C 3865   3.415   2.524   6.375 -0.4350  0.0933 -1.1146
  770MOL0     N 3866   4.225   2.755   6.090 -0.2496 -0.7020  0.1271
  770MOL0     N 3867   4.349   2.809   6.078 -0.1087  0.2593 -0.3360
  770MOL0     C 3868   5.425   2.941   6.708 -0.1681  0.2220 -1.1528
  770MOL0     C 3869   5.560   2.928   6.765  0.4022 -0.6953 -0.0674
  770MOL0     C 3870   5.944   2.780   6.922 -0.6977 -0.3945 -0.4281
  770MOL0     C 3871   5.999   2.792   7.048 -1.1897  0.5121 -0.5670
  770MOL0     C 3872   6.126   2.751   7.080  0.8234  0.4018  0.5396
  770MOL0     C 3873   6.218   2.706   6.978  0.4603 -0.4499  0.2654
  770MOL0     O 3874   6.342   2.663   7.017  0.3477 -0.4391 -0.1776
  770MOL0     C 3875   6.381   2.536   6.974  0.3519 -0.5764 -0.0348
  770MOL0     C 3876   6.532   2.534   6.982 -0.2126  0.4705 -0.0586
  770MOL0     C 3877   6.596   2.559   7.112  0.0393  0.1418  0.4540
  770MOL0     C 3878   6.584   2.441   7.212  0.0226  0.4165  0.0957
  770MOL0     C 3879   6.709   2.363   7.222  0.3651 -0.1455  0.6050
  770MOL0     C 3880   6.822   2.310   7.228  0.1546  0.4448 -0.1466
  770MOL0     C 3881   6.165   2.691   6.850 -0.0470 -0.5727  0.5516
  770MOL0     C 3882   6.028   2.720   6.818  0.1684 -0.1958 -0.0746
  770MOL0     H 3883   5.633   2.631   6.630  2.4575  1.5770 -1.5388
  770MOL0     H 3884   5.413   2.662   6.524  2.6555 -1.1485 -0.6469
  770MOL0     H 3885   5.113   2.961   6.675  0.9535 -1.5060  0.2010
  770MOL0     H 3886   5.175   3.049   6.538  2.2241 -0.3467 -0.2557
  770MOL0     H 3887   5.066   2.897   6.386 -3.3577  0.9253 -0.2127
  770MOL0     H 3888   5.015   2.797   6.526 -3.5212  0.8783  0.7256
  770MOL0     H 3889   4.854   2.980   6.583 -1.3514  1.0300 -1.8928
  770MOL0     H 3890   4.945   3.095   6.490  4.8281 -0.3905 -1.3435
  770MOL0     H 3891   4.865   2.944   6.288  0.4870 -0.4397  0.7703
  770MOL0     H 3892   4.765   2.864   6.402 -0.4603  0.2327  0.2639
  770MOL0     H 3893   4.624   3.048   6.451 -0.7989 -0.3573 -1.1265
  770MOL0     H 3894   4.753   3.160   6.414 -0.6184 -0.6532  2.1219
  770MOL0     H 3895   4.600   3.198   6.236 -3.2269 -0.6585 -1.2519
  770MOL0     H 3896   4.722   3.092   6.164 -1.6501 -3.4639 -1.7586
  770MOL0     H 3897   4.603   2.889   6.189 -1.2891 -1.5825  0.0541
  770MOL0     H 3898   4.488   2.949   6.297 -0.1923 -1.2087 -0.2331
  770MOL0     H 3899   4.498   3.011   6.004  1.0332  0.7760  0.2762
  770MOL0     H 3900   4.418   3.130   6.104 -3.3729 -1.0162 -1.8696
  770MOL0     H 3901   4.167   3.076   6.107 -0.0279 -0.8383 -2.4210
  770MOL0     H 3902   3.945   2.922   6.193 -0.1826 -0.8317  2.1185
  770MOL0     H 3903   3.943   2.853   6.031  1.8232  1.4274 -1.2082
  770MOL0     H 3904   3.967   2.724   6.315  2.4206 -1.2996 -1.1364
  770MOL0     H 3905   3.990   2.626   6.177  0.7944  0.1081 -1.5666
  770MOL0     H 3906   3.766   2.713   6.084 -1.0974  2.7344  0.4611
  770MOL0     H 3907   3.735   2.797   6.236  0.7966 -1.5031  2.9437
  770MOL0     H 3908   3.744   2.603   6.375  0.2599 -2.3020  0.1894
  770MOL0     H 3909   3.791   2.508   6.238 -0.8980 -1.4020  3.5138
  770MOL0     H 3910   3.634   2.318   6.205 -0.4211 -3.6922  0.4127
  770MOL0     H 3911   3.570   2.081   6.219  0.2956 -0.4783  0.7811
  770MOL0     H 3912   3.559   2.072   6.393 -1.0591  2.6900  1.2295
  770MOL0     H 3913   3.415   2.054   6.291  1.8739 -1.7114 -2.3208
  770MOL0     H 3914   3.185   1.941   6.493 -0.9821  0.1638 -1.8670
  770MOL0     H 3915   3.018   1.785   6.585  1.6113  0.4773  0.7808
  770MOL0     H 3916   2.714   1.910   6.854  1.7928  0.0489 -1.5935
  770MOL0     H 3917   2.615   1.965   6.720 -0.1778  0.3829 -0.5731
  770MOL0     H 3918   2.559   1.710   6.676 -0.6465  0.5118 -0.1994
  770MOL0     H 3919   2.630   1.691   6.842  0.7738 -0.1632 -0.8128
  770MOL0     H 3920   2.407   1.876   6.747  0.7743  0.1353  0.1599
  770MOL0     H 3921   2.461   1.859   6.914  0.1983 -0.6546  0.4136
  770MOL0     H 3922   2.366   1.614   6.760 -0.7238  0.3325 -0.4942
  770MOL0     H 3923   2.369   1.633   6.930 -0.2988  3.0284  1.6760
  770MOL0     H 3924   2.190   1.847   6.825 -0.2849  0.0813  0.7019
  770MOL0     H 3925   2.185   1.750   6.961 -1.9268  0.6247 -0.7433
  770MOL0     H 3926   2.091   1.707   6.671  0.0640 -1.6421 -1.7145
  770MOL0     H 3927   2.130   1.562   6.761  0.4068  0.3230 -1.1474
  770MOL0     H 3928   1.916   1.777   6.809  0.3239  0.7528  2.9601
  770MOL0     H 3929   1.984   1.693   6.947  1.9561 -0.1402 -0.4480
  770MOL0     H 3930   1.909   1.482   6.877  2.1330  1.5287  0.2413
  770MOL0     H 3931   1.888   1.535   6.715 -2.5675  0.8728 -0.0232
  770MOL0     H 3932   2.795   2.101   6.761  1.0241 -1.3481  0.8921
  770MOL0     H 3933   2.990   2.249   6.707  3.1975 -1.1534  3.0410
  770MOL0     H 3934   3.268   2.448   6.520 -1.5060 -0.8963 -1.1788
  770MOL0     H 3935   3.388   2.626   6.397 -1.4195 -0.7986  2.4429
  770MOL0     H 3936   5.366   3.031   6.727 -0.8832  0.1066 -2.6871
  770MOL0     H 3937   5.605   3.009   6.821 -1.0665 -1.1818  1.9468
  770MOL0     H 3938   5.934   2.825   7.129 -1.6800  2.5783 -1.7177
  770MOL0     H 3939   6.163   2.763   7.181  1.5958 -1.4578  0.4976
  770MOL0     H 3940   6.339   2.457   7.035  1.6991  0.9482  3.0782
  770MOL0     H 3941   6.357   2.523   6.868  1.5619  5.3585 -1.4429
  770MOL0     H 3942   6.559   2.611   6.910 -5.6511  0.4369 -2.6618
  770MOL0     H 3943   6.563   2.433   6.950 -0.0276 -0.1709  2.0102
  770MOL0     H 3944   6.545   2.644   7.158 -2.6748  0.1649 -2.2706
  770MOL0     H 3945   6.701   2.582   7.090  0.0794  0.2358  0.7375
  770MOL0     H 3946   6.505   2.369   7.187  1.5321 -0.3853 -2.9967
  770MOL0     H 3947   6.587   2.484   7.312 -0.1379 -0.8365  0.6564
  770MOL0     H 3948   6.919   2.265   7.225 -1.2630 -2.9784 -0.2508
  770MOL0     H 3949   6.234   2.653   6.775 -1.1228  0.1471 -0.8558
  770MOL0     H 3950   5.984   2.707   6.720  0.4243  1.3283 -0.4247
  771MOL0     O 3951  11.194   4.876   1.351 -0.1259  0.2683  0.2506
  771MOL0     C 3952  11.241   4.810   1.258  0.1883 -0.9404  0.1080
  771MOL0     O 3953  11.174   4.766   1.138  0.6872  0.0878 -0.4933
  771MOL0     C 3954  11.038   4.775   1.120 -0.4293 -1.2565  0.3446
  771MOL0     C 3955  10.967   4.896   1.143  0.0552  0.4752 -0.4330
  771MOL0     C 3956  10.835   4.911   1.103 -0.7940  0.7167  0.7984
  771MOL0     C 3957  10.772   4.810   1.036  0.0426 -0.5069 -0.6654
  771MOL0     O 3958  10.639   4.828   1.002  1.1584 -0.6092  0.6934
  771MOL0     C 3959  10.577   4.735   0.918 -0.3873 -0.2031  0.4204
  771MOL0     C 3960  10.431   4.785   0.896 -0.1401  0.5769  0.2492
  771MOL0     C 3961  10.354   4.679   0.817 -1.0234 -0.1001 -0.2209
  771MOL0     C 3962  10.216   4.723   0.751  0.1912 -0.4115  0.4307
  771MOL0     C 3963  10.139   4.605   0.690  0.1659 -0.5942  0.5466
  771MOL0     C 3964  10.001   4.646   0.662  0.2040  0.6963  1.2600
  771MOL0     C 3965   9.925   4.636   0.802 -0.8023  0.1785 -0.4172
  771MOL0     C 3966   9.799   4.719   0.799  0.4369  0.4706  0.1788
  771MOL0     N 3967   9.712   4.683   0.692  0.8437 -0.1115  0.0430
  771MOL0     C 3968   9.633   4.563   0.684 -0.0555 -0.2511  0.3975
  771MOL0     C 3969   9.599   4.568   0.553  0.0446 -0.6445  0.6634
  771MOL0     C 3970   9.506   4.462   0.501  0.1724  0.0753 -0.0044
  771MOL0     C 3971   9.579   4.326   0.511 -0.0527 -0.0833  0.0221
  771MOL0     C 3972   9.478   4.219   0.462  0.0598 -0.0989  0.0628
  771MOL0     C 3973   9.334   4.228   0.526  0.5768 -0.1039 -0.6577
  771MOL0     O 3974   9.326   4.227   0.665 -0.4289 -0.1201 -0.1912
  771MOL0     C 3975   9.221   4.266   0.736  0.5293 -0.1253  0.1063
  771MOL0     C 3976   9.209   4.237   0.873 -0.4970  0.1206  0.4451
  771MOL0     C 3977   9.088   4.255   0.942 -0.6367 -0.5618  0.2470
  771MOL0     C 3978   9.085   4.219   1.083  0.3391  0.4144 -0.4974
  771MOL0     C 3979   8.987   4.332   0.886 -0.4664 -1.2428 -1.0564
  771MOL0     C 3980   8.869   4.377   0.961  1.5782  0.3808  0.3587
  771MOL0     O 3981   8.758   4.399   0.875 -1.4665 -0.4536 -0.6434
  771MOL0     C 3982   8.641   4.443   0.928  0.9067  0.0039 -0.9712
  771MOL0     C 3983   8.557   4.373   1.009 -0.2015 -0.1182 -0.8943
  771MOL0     C 3984   8.443   4.434   1.069  0.2734 -0.3055  0.0266
  771MOL0     C 3985   8.428   4.574   1.048  0.0026 -0.0716 -0.2567
  771MOL0     O 3986   8.321   4.633   1.110 -0.3379  0.0683  0.1491
  771MOL0     C 3987   8.326   4.770   1.140  0.1635  0.0135 -0.6641
  771MOL0     C 3988   8.188   4.792   1.222  0.2759 -0.3050  0.6319
  771MOL0     C 3989   8.065   4.824   1.129  0.8229 -0.6424  0.2952
  771MOL0     C 3990   8.047   4.756   0.994  0.0317  0.5296  0.1562
  771MOL0     C 3991   7.904   4.789   0.929  0.5670 -0.5307 -0.2527
  771MOL0     C 3992   7.785   4.710   0.995 -0.4570 -1.0583 -0.1365
  771MOL0     C 3993   7.662   4.702   0.909 -0.4616 -0.6518 -0.3573
  771MOL0     C 3994   7.584   4.832   0.898  0.4405  0.1031 -0.1351
  771MOL0    Cl 3995   7.535   4.903   1.051 -0.1703 -0.5000  0.4320
  771MOL0     C 3996   8.519   4.651   0.962 -0.0472 -0.6141 -0.0730
  771MOL0     C 3997   8.619   4.583   0.898  0.2060 -0.7209 -0.8442
  771MOL0     O 3998   8.864   4.380   1.086 -0.0379  0.1231 -0.3486
  771MOL0     C 3999   9.001   4.369   0.755 -0.4881  0.2722 -0.7242
  771MOL0     C 4000   9.112   4.335   0.682 -0.3244 -0.0376  0.2503
  771MOL0     N 4001   9.639   4.687   0.490 -0.1338 -0.6672  0.2724
  771MOL0     N 4002   9.701   4.759   0.579  0.3663 -0.2547 -0.0629
  771MOL0     C 4003  10.846   4.696   1.001 -0.6741  0.9289 -0.3611
  771MOL0     C 4004  10.976   4.674   1.048 -0.8391  0.0274  0.1111
  771MOL0     C 4005  11.383   4.776   1.253  0.0595  0.9599 -0.0841
  771MOL0     C 4006  11.436   4.687   1.153 -0.5972  0.0487  0.1206
  771MOL0     C 4007  11.575   4.672   1.149  0.8907  0.3910  0.5249
  771MOL0     C 4008  11.663   4.719   1.241  0.1416  0.2022 -0.3229
  771MOL0     O 4009  11.799   4.680   1.230 -0.3195 -0.1521  0.1376
  771MOL0     C 4010  11.898   4.767   1.296  0.5723  0.5002  0.8374
  771MOL0     C 4011  12.041   4.725   1.268 -0.7828  0.5065 -0.1970
  771MOL0     C 4012  12.142   4.802   1.357  0.5060 -0.4270  0.1700
  771MOL0     C 4013  12.283   4.750   1.333 -0.4355  0.5990 -0.8190
  771MOL0     C 4014  12.383   4.813   1.419  0.2219  0.6726 -1.3488
  771MOL0     C 4015  12.472   4.870   1.489  0.5024 -0.1840  0.0724
  771MOL0     C 4016  11.610   4.800   1.339 -0.0834 -0.5702  0.0460
  771MOL0     C 4017  11.474   4.823   1.345 -0.4845 -0.3240  0.2478
  771MOL0     H 4018  11.009   4.972   1.208 -0.3127  0.9197 -0.7086
  771MOL0     H 4019  10.768   4.989   1.138 -1.7905  0.0153  0.4885
  771MOL0     H 4020  10.630   4.722   0.823 -2.5536  0.4040 -0.9282
  771MOL0     H 4021  10.578   4.641   0.973 -0.2515  2.0928  4.7963
  771MOL0     H 4022  10.379   4.815   0.987 -1.4536  1.0043 -0.6136
  771MOL0     H 4023  10.432   4.877   0.835  1.0039  0.6253  0.3114
  771MOL0     H 4024  10.416   4.642   0.734 -0.6513  0.4016 -0.1703
  771MOL0     H 4025  10.331   4.592   0.880  0.4155 -0.9533 -0.8000
  771MOL0     H 4026  10.155   4.782   0.819 -3.6530 -1.4335 -1.8127
  771MOL0     H 4027  10.235   4.798   0.674  2.0686 -2.7273 -1.5181
  771MOL0     H 4028  10.189   4.565   0.601 -0.3125  2.4305 -1.2047
  771MOL0     H 4029  10.130   4.535   0.774 -2.0488  2.5382  3.1804
  771MOL0     H 4030   9.999   4.752   0.634 -1.9393  0.7752  1.4844
  771MOL0     H 4031   9.956   4.576   0.590  0.8575  2.4031 -0.9317
  771MOL0     H 4032   9.895   4.532   0.821  1.3531 -0.3888  0.1121
  771MOL0     H 4033   9.987   4.671   0.884  2.3367 -0.1587 -2.4989
  771MOL0     H 4034   9.807   4.828   0.794 -1.1257  0.5621 -1.0926
  771MOL0     H 4035   9.746   4.697   0.892  0.4637  0.2543  0.1439
  771MOL0     H 4036   9.609   4.494   0.764  1.2660 -1.0423  0.1543
  771MOL0     H 4037   9.422   4.470   0.570 -1.5250  0.1561 -1.9822
  771MOL0     H 4038   9.464   4.477   0.401  0.8540  0.5509 -0.2247
  771MOL0     H 4039   9.603   4.305   0.615  1.9431  2.9891  0.3062
  771MOL0     H 4040   9.677   4.326   0.464  0.9601  1.0093  2.0382
  771MOL0     H 4041   9.523   4.120   0.473  0.4615  0.2671  1.9807
  771MOL0     H 4042   9.446   4.231   0.358 -0.2454  1.9285  0.3527
  771MOL0     H 4043   9.270   4.146   0.491  0.4679 -0.4320  0.2876
  771MOL0     H 4044   9.290   4.321   0.488  3.9623  2.3315  0.8298
  771MOL0     H 4045   9.299   4.189   0.910  2.3859  2.3164 -3.0762
  771MOL0     H 4046   9.165   4.149   1.108 -0.5053  0.5165  3.0776
  771MOL0     H 4047   9.100   4.309   1.143  0.8720 -1.2366  2.0181
  771MOL0     H 4048   8.991   4.174   1.118 -0.5612  2.3072 -0.3546
  771MOL0     H 4049   8.586   4.273   1.041 -3.1174 -0.4143  1.2222
  771MOL0     H 4050   8.372   4.379   1.130  0.3973 -1.5102 -0.8919
  771MOL0     H 4051   8.418   4.775   1.198 -0.1712 -2.1887  0.1570
  771MOL0     H 4052   8.342   4.836   1.055 -0.3811  1.4678  0.3272
  771MOL0     H 4053   8.166   4.698   1.273 -0.6001 -0.3419  0.1999
  771MOL0     H 4054   8.206   4.871   1.296 -0.0551 -0.7043  1.1426
  771MOL0     H 4055   8.059   4.932   1.120  2.7619 -0.6103 -1.2298
  771MOL0     H 4056   7.980   4.811   1.196 -0.8911  2.9383 -0.9502
  771MOL0     H 4057   8.131   4.781   0.930  1.4785 -2.0412  0.8951
  771MOL0     H 4058   8.050   4.646   1.001 -0.7439  0.5147  0.4625
  771MOL0     H 4059   7.906   4.768   0.821  2.9490 -2.8058  0.1351
  771MOL0     H 4060   7.890   4.897   0.939  1.8825 -0.4322  0.7075
  771MOL0     H 4061   7.817   4.607   1.014  0.2682 -0.8031  0.0791
  771MOL0     H 4062   7.766   4.757   1.091  1.7048  0.4347 -0.3702
  771MOL0     H 4063   7.596   4.625   0.952  0.4373 -1.1831  0.0975
  771MOL0     H 4064   7.700   4.660   0.815  1.3829 -0.3151  0.2031
  771MOL0     H 4065   7.494   4.810   0.840  0.9622 -2.5493 -0.0730
  771MOL0     H 4066   7.647   4.911   0.855 -1.4960  1.7999 -0.0296
  771MOL0     H 4067   8.512   4.756   0.935  3.3712 -0.8587 -2.5645
  771MOL0     H 4068   8.682   4.629   0.823 -0.1025 -0.4758 -0.9544
  771MOL0     H 4069   8.927   4.438   0.716 -1.8034 -0.3663  0.5217
  771MOL0     H 4070   9.099   4.374   0.582 -0.2265 -0.7771 -0.0595
  771MOL0     H 4071  10.797   4.613   0.951 -0.2361 -0.2024  1.0149
  771MOL0     H 4072  11.033   4.587   1.018 -0.8549 -0.3995  1.2683
  771MOL0     H 4073  11.380   4.653   1.067 -0.9514 -1.0004  0.7486
  771MOL0     H 4074  11.612   4.606   1.071 -1.7913 -1.4742  0.7150
  771MOL0     H 4075  11.888   4.871   1.264 -1.2139  0.9257  2.6133
  771MOL0     H 4076  11.879   4.760   1.403  1.7140 -1.4449  0.9603
  771MOL0     H 4077  12.071   4.747   1.165  1.2510  2.6484  0.7459
  771MOL0     H 4078  12.056   4.617   1.274 -0.1758  0.5433 -0.8881
  771MOL0     H 4079  12.108   4.782   1.459  0.2987 -0.6854  0.0522
  771MOL0     H 4080  12.144   4.908   1.328  2.4549 -0.9474 -1.9588
  771MOL0     H 4081  12.308   4.757   1.227  1.7574 -1.4293 -0.5046
  771MOL0     H 4082  12.280   4.642   1.348 -1.2876  0.3983 -2.2766
  771MOL0     H 4083  12.542   4.926   1.546 -0.7764  1.9474 -0.3368
  771MOL0     H 4084  11.665   4.846   1.420 -1.9703 -0.8641  1.5825
  771MOL0     H 4085  11.447   4.898   1.419  0.9539 -1.4400  1.9854
  772MOL0     O 4086   8.759   1.711   9.013  0.2471  0.5564  0.4306
  772MOL0     C 4087   8.792   1.802   8.939  0.4950  0.1060  0.6223
  772MOL0     O 4088   8.710   1.851   8.836 -0.0826  0.2518  0.1107
  772MOL0     C 4089   8.576   1.812   8.811  0.2234 -0.1441 -0.3844
  772MOL0     C 4090   8.486   1.834   8.910  0.3835  0.5114 -0.4021
  772MOL0     C 4091   8.347   1.811   8.896 -0.2113 -0.3650 -0.3050
  772MOL0     C 4092   8.306   1.755   8.771 -0.0795  0.1453 -0.6904
  772MOL0     O 4093   8.176   1.733   8.739  0.1434 -0.9790 -0.3431
  772MOL0     C 4094   8.078   1.828   8.796  0.5571 -0.7939  0.8887
  772MOL0     C 4095   7.977   1.870   8.687  0.4530 -0.4287  0.0986
  772MOL0     C 4096   7.867   1.948   8.756  0.0266  0.2676 -0.0758
  772MOL0     C 4097   7.773   2.019   8.653  0.4447  0.2663  0.2674
  772MOL0     C 4098   7.652   2.100   8.720 -1.0638 -0.2590  0.0255
  772MOL0     C 4099   7.536   2.025   8.787  0.5425 -0.0599  0.5094
  772MOL0     C 4100   7.467   1.930   8.682  0.1299  0.9523  0.3884
  772MOL0     C 4101   7.324   1.878   8.715  0.3230  0.0224 -0.4005
  772MOL0     N 4102   7.226   1.991   8.757 -0.2246 -0.0789  0.6393
  772MOL0     C 4103   7.140   2.043   8.662 -0.1949 -0.1781 -0.4771
  772MOL0     C 4104   7.093   2.151   8.733  0.3562 -0.3945  0.4382
  772MOL0     C 4105   6.998   2.248   8.676  0.3709  0.3533  0.2937
  772MOL0     C 4106   6.856   2.199   8.635 -0.5793 -0.2648  0.4418
  772MOL0     C 4107   6.762   2.188   8.751  0.3223  0.3515  0.0658
  772MOL0     C 4108   6.705   2.309   8.834 -0.1834 -0.7258  0.1623
  772MOL0     O 4109   6.612   2.373   8.748 -0.4739 -0.0864  0.5514
  772MOL0     C 4110   6.484   2.333   8.731  0.0884  0.2521  0.0128
  772MOL0     C 4111   6.421   2.376   8.620  0.2389  0.2426 -0.2590
  772MOL0     C 4112   6.289   2.349   8.593 -0.1673 -0.1597  0.4961
  772MOL0     C 4113   6.240   2.384   8.455 -0.4556  0.1473 -0.5354
  772MOL0     C 4114   6.213   2.267   8.685  0.1431 -0.2416  0.6686
  772MOL0     C 4115   6.078   2.206   8.670  1.3024  0.3109  0.0864
  772MOL0     O 4116   6.041   2.115   8.759  0.7907  0.3272  0.3948
  772MOL0     C 4117   5.914   2.051   8.727 -0.0851 -0.5624  0.0956
  772MOL0     C 4118   5.789   2.114   8.721 -1.0996 -0.2711  0.3596
  772MOL0     C 4119   5.673   2.048   8.699  0.1802 -0.2439  0.0304
  772MOL0     C 4120   5.677   1.919   8.662 -0.5067 -0.1412 -0.2828
  772MOL0     O 4121   5.552   1.854   8.654 -0.4585 -0.0887  0.3953
  772MOL0     C 4122   5.553   1.711   8.678 -0.7291 -0.6086  0.0614
  772MOL0     C 4123   5.418   1.651   8.703 -0.8904  0.3242  0.8506
  772MOL0     C 4124   5.300   1.701   8.614  0.9481  0.4270 -0.0295
  772MOL0     C 4125   5.160   1.654   8.677 -0.7104 -0.4088 -0.0183
  772MOL0     C 4126   5.034   1.706   8.596 -0.9089  0.3275  0.2251
  772MOL0     C 4127   4.914   1.620   8.631 -0.2496  0.0299  0.0871
  772MOL0     C 4128   4.790   1.690   8.571 -0.7409  0.1187 -0.0260
  772MOL0     C 4129   4.657   1.616   8.612 -0.0185 -0.6854 -0.7420
  772MOL0    Cl 4130   4.670   1.456   8.538  0.1500  0.3096 -0.4291
  772MOL0     C 4131   5.809   1.851   8.658  0.4481 -0.8599  0.9611
  772MOL0     C 4132   5.922   1.919   8.688  0.4148 -0.4617 -0.8070
  772MOL0     O 4133   6.017   2.229   8.566 -0.6995  0.2339 -0.2498
  772MOL0     C 4134   6.281   2.226   8.800  0.4334 -0.6785  0.0095
  772MOL0     C 4135   6.414   2.259   8.826 -0.2104  0.1743 -0.4547
  772MOL0     N 4136   7.139   2.157   8.864 -0.1036  0.4043  0.8179
  772MOL0     N 4137   7.215   2.049   8.882  0.0980 -0.0332  0.0618
  772MOL0     C 4138   8.402   1.728   8.675  0.6864  0.2141  0.7491
  772MOL0     C 4139   8.537   1.744   8.700  0.9089 -0.1557 -0.5957
  772MOL0     C 4140   8.910   1.879   8.970  0.8025  0.4462  0.1061
  772MOL0     C 4141   8.954   1.992   8.898 -0.6380 -0.1178 -0.3372
  772MOL0     C 4142   9.067   2.067   8.945 -0.1330  0.3281  0.3693
  772MOL0     C 4143   9.149   2.032   9.057  0.1172 -0.5830  0.4021
  772MOL0     O 4144   9.260   2.103   9.101 -0.6050  0.2061  0.3303
  772MOL0     C 4145   9.279   2.247   9.090 -0.5486  0.0458  0.4055
  772MOL0     C 4146   9.431   2.277   9.055  0.0877 -0.7461 -0.7031
  772MOL0     C 4147   9.524   2.305   9.177 -0.1073 -0.0432  0.5143
  772MOL0     C 4148   9.610   2.423   9.156  1.1338  0.2148  1.0681
  772MOL0     C 4149   9.696   2.459   9.268 -0.1670 -0.0312 -0.3456
  772MOL0     C 4150   9.765   2.477   9.357 -0.2845 -0.2305 -0.2364
  772MOL0     C 4151   9.106   1.921   9.132  1.3014 -0.5353 -0.1133
  772MOL0     C 4152   8.984   1.852   9.088  0.3727 -0.2880  0.1992
  772MOL0     H 4153   8.519   1.885   9.000 -0.2437 -0.9036  0.6618
  772MOL0     H 4154   8.267   1.844   8.962 -0.4063  0.3453 -0.8865
  772MOL0     H 4155   8.022   1.780   8.877 -0.4648 -0.1432  0.5926
  772MOL0     H 4156   8.131   1.922   8.810  0.8270 -0.7157 -0.5693
  772MOL0     H 4157   8.016   1.938   8.609 -0.4860 -1.7153 -1.5564
  772MOL0     H 4158   7.939   1.780   8.639  3.9792 -2.7982  1.3827
  772MOL0     H 4159   7.812   1.875   8.816  1.4474 -2.0927 -1.4878
  772MOL0     H 4160   7.914   2.029   8.813  2.0044 -1.3046  0.6388
  772MOL0     H 4161   7.831   2.094   8.598  1.2666 -0.9161 -0.5298
  772MOL0     H 4162   7.740   1.945   8.580 -0.4881  1.7280 -0.8529
  772MOL0     H 4163   7.694   2.165   8.797 -3.4394  1.6543 -0.1719
  772MOL0     H 4164   7.608   2.165   8.643 -1.0527 -0.6126 -0.2821
  772MOL0     H 4165   7.568   1.974   8.878  0.6148  1.4460  1.3595
  772MOL0     H 4166   7.469   2.103   8.823  1.4307  1.1179 -0.3071
  772MOL0     H 4167   7.464   1.986   8.588 -0.5460  1.4847  0.7105
  772MOL0     H 4168   7.533   1.843   8.677 -1.5709 -0.5913  2.5219
  772MOL0     H 4169   7.335   1.821   8.808  0.0539  3.5573  2.0474
  772MOL0     H 4170   7.289   1.818   8.631  2.0879 -1.2540 -0.2760
  772MOL0     H 4171   7.127   2.002   8.563  0.6730  1.9223 -1.5265
  772MOL0     H 4172   6.984   2.337   8.739 -0.1348  0.1432  0.4758
  772MOL0     H 4173   7.056   2.272   8.586  2.5462  0.1066  1.5502
  772MOL0     H 4174   6.866   2.102   8.586  4.0183 -1.2842  2.8487
  772MOL0     H 4175   6.817   2.279   8.570  2.4711  1.2422  0.2782
  772MOL0     H 4176   6.815   2.133   8.830  3.2279  1.4554 -1.0020
  772MOL0     H 4177   6.684   2.116   8.725  0.1357  0.9896 -1.2191
  772MOL0     H 4178   6.790   2.372   8.860 -1.2716  0.5306  0.7813
  772MOL0     H 4179   6.667   2.285   8.933 -0.4041  0.0339  0.2653
  772MOL0     H 4180   6.485   2.432   8.553  0.5023 -1.5899 -1.6165
  772MOL0     H 4181   6.318   2.393   8.379 -0.9380 -1.3913 -1.2629
  772MOL0     H 4182   6.198   2.293   8.412  0.3534 -0.6210  0.2750
  772MOL0     H 4183   6.178   2.474   8.460 -0.2887  0.2139  3.4832
  772MOL0     H 4184   5.783   2.217   8.756  0.3766  0.5239 -1.5509
  772MOL0     H 4185   5.574   2.092   8.706  0.6994  0.8523  0.8366
  772MOL0     H 4186   5.598   1.664   8.590  0.2508  0.4477 -0.0185
  772MOL0     H 4187   5.614   1.687   8.765 -0.2476  0.4016  0.0144
  772MOL0     H 4188   5.429   1.542   8.698  1.1018  0.5382 -0.9787
  772MOL0     H 4189   5.392   1.678   8.805 -0.0739 -0.8326  1.3862
  772MOL0     H 4190   5.319   1.649   8.520  1.4727  1.0567 -0.2810
  772MOL0     H 4191   5.293   1.810   8.602 -1.5090  0.5526  1.8631
  772MOL0     H 4192   5.165   1.545   8.686 -0.4116 -0.5791 -1.7634
  772MOL0     H 4193   5.165   1.693   8.778  0.3597 -0.2474 -0.1222
  772MOL0     H 4194   5.049   1.702   8.488  1.0197  0.6780  0.4504
  772MOL0     H 4195   5.015   1.807   8.633 -1.0859  0.1496  0.6295
  772MOL0     H 4196   4.933   1.523   8.584  0.6603  0.6785 -0.9273
  772MOL0     H 4197   4.906   1.600   8.738 -1.2961 -1.2711 -0.2011
  772MOL0     H 4198   4.799   1.688   8.462  1.1246 -1.6752  0.1182
  772MOL0     H 4199   4.790   1.794   8.607 -0.9922  0.4967 -1.0823
  772MOL0     H 4200   4.573   1.666   8.564  0.3565 -0.0084 -0.6991
  772MOL0     H 4201   4.633   1.608   8.719 -1.9108  0.6313 -1.0180
  772MOL0     H 4202   5.817   1.744   8.636 -2.7332 -0.5277 -3.0469
  772MOL0     H 4203   6.017   1.868   8.678  0.4179 -0.6566  0.1259
  772MOL0     H 4204   6.223   2.174   8.875 -1.5474  0.2235 -0.8317
  772MOL0     H 4205   6.465   2.223   8.915 -3.7380  0.1537  1.7422
  772MOL0     H 4206   8.359   1.700   8.579 -4.1219 -0.1468  2.6980
  772MOL0     H 4207   8.611   1.735   8.621  0.9862  1.1195 -0.6869
  772MOL0     H 4208   8.892   2.023   8.814 -2.4453  2.3284  1.7248
  772MOL0     H 4209   9.081   2.156   8.885  0.9396 -0.0181  0.0790
  772MOL0     H 4210   9.220   2.282   9.005  1.3131 -0.4198 -1.1328
  772MOL0     H 4211   9.248   2.302   9.180 -0.0227  1.7305 -0.4186
  772MOL0     H 4212   9.419   2.364   8.990  2.2534  0.3295  0.2660
  772MOL0     H 4213   9.471   2.193   8.998  1.9126 -0.8209  0.6014
  772MOL0     H 4214   9.597   2.223   9.182  1.2685  1.2006  1.8485
  772MOL0     H 4215   9.481   2.311   9.277 -1.3785 -0.2545  0.0001
  772MOL0     H 4216   9.547   2.512   9.155 -0.5939 -0.9322  2.3783
  772MOL0     H 4217   9.669   2.418   9.064 -0.6638  1.6614 -0.2230
  772MOL0     H 4218   9.834   2.513   9.430 -0.6462 -0.6140  0.2972
  772MOL0     H 4219   9.154   1.896   9.226  4.1317  0.6444 -1.1565
  772MOL0     H 4220   8.935   1.778   9.150 -1.7655  0.1737 -0.8620
  773MOL0     O 4221   9.109   0.858   8.627  0.2499 -0.0598 -0.3864
  773MOL0     C 4222   9.117   0.749   8.576 -0.2932 -0.0545 -1.1105
  773MOL0     O 4223   9.014   0.676   8.536 -0.4049  0.5197 -0.0383
  773MOL0     C 4224   8.886   0.694   8.586  0.3384  0.1563 -0.2126
  773MOL0     C 4225   8.787   0.623   8.514 -0.4086  0.6593  0.5290
  773MOL0     C 4226   8.658   0.618   8.561 -0.1135  0.1635  0.3526
  773MOL0     C 4227   8.617   0.691   8.675  0.0395  0.0735  0.3914
  773MOL0     O 4228   8.484   0.678   8.709  0.3595  0.5576  0.2574
  773MOL0     C 4229   8.441   0.738   8.835  0.1078  0.5630  0.6743
  773MOL0     C 4230   8.286   0.747   8.824 -0.8682  0.1406  0.0881
  773MOL0     C 4231   8.229   0.614   8.763  0.0148  0.0423  0.1097
  773MOL0     C 4232   8.088   0.599   8.811  0.2380 -0.0882  0.2772
  773MOL0     C 4233   8.021   0.466   8.775  0.5223  0.1000 -0.0140
  773MOL0     C 4234   7.957   0.475   8.630  0.5127 -0.2183 -0.3418
  773MOL0     C 4235   7.876   0.343   8.599 -0.4647 -0.5010 -0.1272
  773MOL0     C 4236   7.821   0.340   8.457  0.5751 -0.7724 -0.0239
  773MOL0     N 4237   7.732   0.452   8.426  0.0680  0.3928  0.9491
  773MOL0     C 4238   7.721   0.495   8.290  0.0765 -0.3776  0.0490
  773MOL0     C 4239   7.604   0.577   8.292 -0.2618 -0.8220 -0.1489
  773MOL0     C 4240   7.554   0.655   8.169  0.2607 -0.0430 -0.3391
  773MOL0     C 4241   7.469   0.578   8.064 -0.5021 -0.0155 -0.5869
  773MOL0     C 4242   7.319   0.619   8.085  0.5062  0.0722  0.2577
  773MOL0     C 4243   7.243   0.571   7.964  0.0841  0.4067 -0.4348
  773MOL0     O 4244   7.120   0.639   7.964 -0.2840 -0.1436 -0.5806
  773MOL0     C 4245   7.030   0.616   7.868 -0.3509  0.7500  0.7187
  773MOL0     C 4246   6.904   0.692   7.880 -0.5303 -0.4696  0.1009
  773MOL0     C 4247   6.801   0.671   7.793  0.2611  0.1823 -0.1261
  773MOL0     C 4248   6.681   0.762   7.822 -0.6371  0.0265 -0.5123
  773MOL0     C 4249   6.803   0.585   7.685 -0.1039 -0.3411  1.0828
  773MOL0     C 4250   6.693   0.570   7.587 -0.2215 -0.1000  1.0163
  773MOL0     O 4251   6.657   0.440   7.562  1.1635  0.6428  0.6623
  773MOL0     C 4252   6.574   0.424   7.451 -0.3368 -0.0659 -0.2785
  773MOL0     C 4253   6.634   0.375   7.333 -0.4143  0.1053  0.2425
  773MOL0     C 4254   6.557   0.364   7.222  0.2885 -0.3182 -0.7998
  773MOL0     C 4255   6.422   0.404   7.218 -0.3670  0.3473 -0.6806
  773MOL0     O 4256   6.353   0.387   7.097 -0.3525 -0.5081  0.4882
  773MOL0     C 4257   6.218   0.425   7.102  0.1730  0.1595  0.3482
  773MOL0     C 4258   6.146   0.418   6.966  0.3022  0.0486 -0.3512
  773MOL0     C 4259   5.999   0.432   6.995  0.2691 -0.2969 -0.3779
  773MOL0     C 4260   5.934   0.409   6.852  0.3208  0.1998 -0.4869
  773MOL0     C 4261   5.792   0.457   6.845  0.2983 -0.1227  0.0105
  773MOL0     C 4262   5.720   0.413   6.723 -0.2282  0.8686 -1.2134
  773MOL0     C 4263   5.584   0.472   6.704  0.1216  0.2307  0.1005
  773MOL0     C 4264   5.525   0.404   6.580  0.0488  0.4946 -0.2695
  773MOL0    Cl 4265   5.382   0.484   6.510 -0.1933  0.1304 -0.3126
  773MOL0     C 4266   6.371   0.453   7.341  0.7518  0.6548 -0.0095
  773MOL0     C 4267   6.444   0.458   7.453  0.1723  0.4281  0.6146
  773MOL0     O 4268   6.639   0.669   7.537  0.6177  1.1805 -0.4129
  773MOL0     C 4269   6.926   0.510   7.675 -0.2081 -0.1163 -0.2374
  773MOL0     C 4270   7.035   0.520   7.758 -0.2241 -0.4405  0.0365
  773MOL0     N 4271   7.546   0.550   8.411  0.7974 -0.8762  0.1347
  773MOL0     N 4272   7.619   0.480   8.491  0.0189  0.8195 -0.7054
  773MOL0     C 4273   8.713   0.767   8.745 -0.0737 -0.1561  0.0440
  773MOL0     C 4274   8.848   0.766   8.703  1.1757  0.0803  0.3210
  773MOL0     C 4275   9.251   0.686   8.549  0.4078  1.0692 -0.6053
  773MOL0     C 4276   9.366   0.767   8.567 -0.1310 -0.4325  0.1723
  773MOL0     C 4277   9.495   0.719   8.541  0.2452 -0.5725 -0.1795
  773MOL0     C 4278   9.510   0.592   8.485  0.0938 -0.5837 -0.1314
  773MOL0     O 4279   9.636   0.546   8.428  0.3731  0.4534 -0.1576
  773MOL0     C 4280   9.735   0.652   8.403  0.6942  0.5095  0.9284
  773MOL0     C 4281   9.802   0.631   8.278 -0.0269  0.4076  0.0844
  773MOL0     C 4282   9.889   0.497   8.257  0.0465 -0.3323 -0.3228
  773MOL0     C 4283   9.930   0.479   8.113  0.0838  0.5166  0.2280
  773MOL0     C 4284  10.020   0.583   8.066 -0.4282  0.2293 -0.4503
  773MOL0     C 4285  10.112   0.658   8.036  0.7867 -0.8012 -0.1203
  773MOL0     C 4286   9.397   0.511   8.479 -1.4024  0.4899  0.0842
  773MOL0     C 4287   9.265   0.553   8.499  0.1011 -0.2359 -0.5058
  773MOL0     H 4288   8.806   0.560   8.427 -0.5150  1.4239 -0.0515
  773MOL0     H 4289   8.581   0.568   8.503  0.4891 -1.5633  0.9673
  773MOL0     H 4290   8.478   0.681   8.921  1.8021 -0.3398 -0.6037
  773MOL0     H 4291   8.486   0.838   8.844 -1.3371  1.2011  1.1788
  773MOL0     H 4292   8.254   0.760   8.928  2.0831 -1.6457  1.3451
  773MOL0     H 4293   8.250   0.828   8.760  0.4095 -0.0963 -0.9933
  773MOL0     H 4294   8.238   0.603   8.655 -0.3258 -1.1104  0.1858
  773MOL0     H 4295   8.281   0.523   8.795 -3.2449 -1.8568  0.5124
  773MOL0     H 4296   8.091   0.608   8.920  1.3490 -0.6561  0.3105
  773MOL0     H 4297   8.028   0.682   8.773 -1.2621 -1.2687 -0.0266
  773MOL0     H 4298   8.083   0.377   8.789 -0.8093 -0.6638  1.3441
  773MOL0     H 4299   7.939   0.456   8.847  2.5743 -0.1103  2.4573
  773MOL0     H 4300   7.878   0.551   8.622  0.3559 -0.5920 -4.6369
  773MOL0     H 4301   8.030   0.500   8.552 -0.2981 -2.0016 -1.7475
  773MOL0     H 4302   7.936   0.255   8.621  0.2450 -0.4556 -1.7564
  773MOL0     H 4303   7.788   0.350   8.663 -0.2747  0.6418  0.0328
  773MOL0     H 4304   7.773   0.243   8.445  0.8933 -0.7443 -1.7741
  773MOL0     H 4305   7.912   0.327   8.398  1.7920 -0.5897  1.7274
  773MOL0     H 4306   7.789   0.482   8.207  0.4236  2.4050 -0.1943
  773MOL0     H 4307   7.505   0.746   8.205 -3.6885 -2.0466 -0.1105
  773MOL0     H 4308   7.649   0.684   8.123 -0.3165 -0.6813 -1.9912
  773MOL0     H 4309   7.493   0.474   8.089  1.8204  0.7420  0.6207
  773MOL0     H 4310   7.509   0.603   7.966 -0.0713  1.7375  0.0156
  773MOL0     H 4311   7.315   0.728   8.087 -0.0187  0.1171 -1.6424
  773MOL0     H 4312   7.270   0.574   8.172 -0.9025  0.7346 -0.1775
  773MOL0     H 4313   7.216   0.465   7.970 -0.3153  0.5613  0.9360
  773MOL0     H 4314   7.300   0.590   7.873  2.2903  0.6756  0.9223
  773MOL0     H 4315   6.908   0.763   7.962 -0.7956 -2.1229  1.6024
  773MOL0     H 4316   6.657   0.770   7.928  0.4224  0.3806 -0.2954
  773MOL0     H 4317   6.694   0.865   7.786  2.1903 -0.0651  0.0372
  773MOL0     H 4318   6.588   0.733   7.773 -0.8717  2.1197 -1.4296
  773MOL0     H 4319   6.733   0.329   7.329 -0.2309  0.2724  1.9148
  773MOL0     H 4320   6.600   0.322   7.132 -0.0774  0.1943 -1.2199
  773MOL0     H 4321   6.161   0.362   7.171 -1.1796 -2.3081 -2.7723
  773MOL0     H 4322   6.205   0.527   7.138 -0.6316  0.1469  0.1256
  773MOL0     H 4323   6.175   0.499   6.898 -2.0923  1.2348 -0.0790
  773MOL0     H 4324   6.162   0.321   6.918  0.6985 -1.2635  2.2983
  773MOL0     H 4325   5.986   0.536   7.025  4.6146  0.7765 -1.5124
  773MOL0     H 4326   5.961   0.369   7.076  0.2598  1.3675  0.9608
  773MOL0     H 4327   5.988   0.471   6.779 -1.7946  1.4709 -1.0531
  773MOL0     H 4328   5.944   0.305   6.818 -2.2888 -0.6619  1.1031
  773MOL0     H 4329   5.792   0.566   6.856 -2.8642 -0.0890  0.6859
  773MOL0     H 4330   5.738   0.419   6.932  0.6629 -3.5367 -1.1110
  773MOL0     H 4331   5.792   0.444   6.646  1.4422  1.8746  0.6484
  773MOL0     H 4332   5.709   0.304   6.718 -1.0167  0.9609 -1.4961
  773MOL0     H 4333   5.593   0.579   6.682  0.8840  0.0410 -0.5495
  773MOL0     H 4334   5.522   0.452   6.792 -0.4050 -1.3735 -0.5928
  773MOL0     H 4335   5.506   0.298   6.603  2.9601  0.4884  3.0348
  773MOL0     H 4336   5.607   0.403   6.509 -0.8149 -1.0206 -1.3187
  773MOL0     H 4337   6.263   0.462   7.350  0.8238  2.1831 -0.4148
  773MOL0     H 4338   6.409   0.493   7.550  3.2548  4.0930  0.6209
  773MOL0     H 4339   6.932   0.439   7.594 -1.3192 -1.6936  1.0080
  773MOL0     H 4340   7.121   0.460   7.730  0.1051 -0.3031  0.7309
  773MOL0     H 4341   8.674   0.831   8.823 -0.6960  0.2802 -0.6114
  773MOL0     H 4342   8.915   0.832   8.758  3.1244 -1.1196 -0.5080
  773MOL0     H 4343   9.358   0.873   8.588 -1.1163  0.1759 -2.7460
  773MOL0     H 4344   9.575   0.791   8.557  2.3467 -2.1296 -2.8733
  773MOL0     H 4345   9.682   0.748   8.395 -1.0633 -0.5846 -3.0177
  773MOL0     H 4346   9.819   0.659   8.473  2.0260  0.2377 -0.6029
  773MOL0     H 4347   9.869   0.716   8.266  0.4556 -0.0141 -0.2847
  773MOL0     H 4348   9.719   0.631   8.206  1.0510 -2.9574 -1.3549
  773MOL0     H 4349   9.845   0.402   8.287 -2.3828  0.7068 -0.4037
  773MOL0     H 4350   9.981   0.515   8.314  0.9380  1.1698 -2.1476
  773MOL0     H 4351   9.841   0.465   8.050  0.6799  0.9369 -0.7317
  773MOL0     H 4352   9.995   0.392   8.108  2.3542  2.1814 -2.5861
  773MOL0     H 4353  10.197   0.719   8.012  0.3873 -0.1886 -0.0064
  773MOL0     H 4354   9.411   0.408   8.446 -0.2832 -0.3495  2.9371
  773MOL0     H 4355   9.182   0.485   8.486  0.9053 -1.1500 -1.0056
  774MOL0     O 4356   9.791   5.598   1.716  0.6431 -0.0302 -0.1142
  774MOL0     C 4357   9.821   5.693   1.646 -0.5880 -0.0381 -0.1454
  774MOL0     O 4358   9.739   5.770   1.585 -0.7546 -0.1049 -0.5369
  774MOL0     C 4359   9.611   5.788   1.622  0.6190 -0.8890  0.2246
  774MOL0     C 4360   9.553   5.901   1.575 -0.8002  0.6982  0.0077
  774MOL0     C 4361   9.418   5.929   1.591 -0.0732 -0.3044 -0.8327
  774MOL0     C 4362   9.331   5.837   1.655 -0.2079  0.3782  0.0609
  774MOL0     O 4363   9.199   5.868   1.656  0.5942 -1.0829  0.1339
  774MOL0     C 4364   9.100   5.780   1.719 -0.7050  0.3995 -0.0274
  774MOL0     C 4365   8.955   5.803   1.671  0.9155  0.1963  0.5211
  774MOL0     C 4366   8.900   5.929   1.726  0.3517  0.2029 -0.5779
  774MOL0     C 4367   8.786   5.975   1.636 -0.5657  0.3755 -1.3131
  774MOL0     C 4368   8.718   6.100   1.709  0.2429  0.2147 -0.5495
  774MOL0     C 4369   8.587   6.150   1.638  0.4805  0.6399 -0.1736
  774MOL0     C 4370   8.530   6.277   1.708 -0.2311 -0.0606 -0.1577
  774MOL0     C 4371   8.384   6.276   1.735  0.2225  0.5296 -0.5031
  774MOL0     N 4372   8.304   6.272   1.615  0.2035  0.1928 -0.6152
  774MOL0     C 4373   8.211   6.172   1.602  0.5673 -0.5494  0.4263
  774MOL0     C 4374   8.164   6.203   1.473  0.0423 -0.0787 -0.2228
  774MOL0     C 4375   8.082   6.116   1.377 -0.9971  1.0247  0.8492
  774MOL0     C 4376   7.972   6.035   1.446  0.2049  0.5310  0.5771
  774MOL0     C 4377   7.877   6.121   1.533  0.3863  0.1525  0.2029
  774MOL0     C 4378   7.828   6.241   1.450 -0.3228 -0.5331 -0.3894
  774MOL0     O 4379   7.755   6.213   1.332  0.0630  0.1270 -0.1273
  774MOL0     C 4380   7.613   6.211   1.329  0.4683 -0.3617  0.6813
  774MOL0     C 4381   7.538   6.214   1.443 -0.5593 -0.0462  0.0659
  774MOL0     C 4382   7.404   6.236   1.452 -0.0259  0.7517  0.1372
  774MOL0     C 4383   7.349   6.281   1.578 -0.4856  0.5055 -0.4785
  774MOL0     C 4384   7.328   6.238   1.332  0.4236 -0.4557  0.4298
  774MOL0     C 4385   7.178   6.233   1.322 -0.3752  0.4156  0.4241
  774MOL0     O 4386   7.111   6.200   1.433 -0.2957 -0.9376 -0.4217
  774MOL0     C 4387   6.972   6.170   1.442  0.1751 -0.5907 -1.1422
  774MOL0     C 4388   6.871   6.223   1.359  0.5270  0.4217 -0.0965
  774MOL0     C 4389   6.736   6.188   1.381  0.2843 -0.9176 -0.3664
  774MOL0     C 4390   6.694   6.106   1.489  0.0818  0.7363  0.5677
  774MOL0     O 4391   6.567   6.072   1.512 -0.1703  0.1970  0.4762
  774MOL0     C 4392   6.528   6.110   1.650  0.0916 -0.9210  0.0655
  774MOL0     C 4393   6.395   6.190   1.648 -0.5119 -0.3359 -0.3832
  774MOL0     C 4394   6.355   6.263   1.785 -0.9571  0.2160 -0.1473
  774MOL0     C 4395   6.366   6.160   1.904 -0.3045  0.6759  0.6125
  774MOL0     C 4396   6.296   6.218   2.030  0.1776  0.0011  0.3224
  774MOL0     C 4397   6.399   6.306   2.116  0.3539 -0.4193 -0.5623
  774MOL0     C 4398   6.325   6.369   2.238 -0.3890  0.4317 -0.0260
  774MOL0     C 4399   6.425   6.482   2.289  0.0456  0.0883  0.0377
  774MOL0    Cl 4400   6.573   6.405   2.361 -0.0807  0.5696  0.2627
  774MOL0     C 4401   6.802   6.050   1.565  0.3905  0.4771  0.4285
  774MOL0     C 4402   6.933   6.078   1.544 -0.1970 -1.4215  0.8341
  774MOL0     O 4403   7.127   6.260   1.212 -0.3415 -0.2803  0.0799
  774MOL0     C 4404   7.399   6.215   1.211 -0.4014  0.7604  0.0933
  774MOL0     C 4405   7.547   6.208   1.207  0.3410  0.2813 -0.2470
  774MOL0     N 4406   8.214   6.324   1.426  0.0006 -0.2044 -0.3734
  774MOL0     N 4407   8.301   6.366   1.513  0.1256  0.1501  0.0380
  774MOL0     C 4408   9.391   5.726   1.713  0.9011 -0.0927 -1.0870
  774MOL0     C 4409   9.529   5.697   1.695 -0.2074 -0.0258  0.2125
  774MOL0     C 4410   9.965   5.714   1.631  0.4124 -0.5892  0.5531
  774MOL0     C 4411  10.063   5.623   1.680  0.0052 -0.1112  0.2383
  774MOL0     C 4412  10.200   5.646   1.661 -0.0850 -1.0840  0.1692
  774MOL0     C 4413  10.250   5.760   1.599  0.6133 -0.0259  0.8592
  774MOL0     O 4414  10.381   5.786   1.592  0.8316 -0.8219 -0.3789
  774MOL0     C 4415  10.430   5.905   1.518  0.4696  0.2373  0.3308
  774MOL0     C 4416  10.578   5.894   1.494 -0.2191 -0.3792 -0.7833
  774MOL0     C 4417  10.655   5.859   1.620 -0.1490  0.0223  0.2341
  774MOL0     C 4418  10.788   5.942   1.616 -0.5307  1.1043  0.6354
  774MOL0     C 4419  10.861   5.903   1.740  0.3639 -0.6958 -0.7143
  774MOL0     C 4420  10.931   5.890   1.841  0.1177  0.8568 -0.2091
  774MOL0     C 4421  10.153   5.857   1.560  0.6556  0.4204  0.2670
  774MOL0     C 4422  10.008   5.831   1.567  0.5053  0.0489 -0.7402
  774MOL0     H 4423   9.616   5.972   1.522  1.9041 -0.7951  1.0459
  774MOL0     H 4424   9.373   6.018   1.549  2.1244  1.0441 -0.4441
  774MOL0     H 4425   9.121   5.677   1.689  2.5271  0.5383  1.4178
  774MOL0     H 4426   9.105   5.791   1.828 -0.1263 -2.7092  0.3447
  774MOL0     H 4427   8.953   5.807   1.562 -0.8095  2.0429  0.5618
  774MOL0     H 4428   8.897   5.715   1.703  1.2078  0.5634  2.1510
  774MOL0     H 4429   8.882   5.925   1.834  2.0438 -4.1871 -0.2665
  774MOL0     H 4430   8.982   6.000   1.712  0.7757 -0.6017 -2.3839
  774MOL0     H 4431   8.823   5.991   1.535  1.0949 -0.1365 -0.8297
  774MOL0     H 4432   8.717   5.890   1.631  1.8382 -2.1095  2.5599
  774MOL0     H 4433   8.692   6.069   1.810 -1.6585  2.0633 -0.3932
  774MOL0     H 4434   8.794   6.179   1.712  0.5498 -0.0869 -0.3343
  774MOL0     H 4435   8.618   6.187   1.540  0.1857  0.5618 -0.2962
  774MOL0     H 4436   8.503   6.080   1.628 -0.7393  2.2086 -1.3963
  774MOL0     H 4437   8.579   6.266   1.805 -2.4861 -0.1197  1.0298
  774MOL0     H 4438   8.558   6.370   1.657 -1.4217  0.8968  0.8549
  774MOL0     H 4439   8.362   6.358   1.804  0.9226  1.0202 -0.8517
  774MOL0     H 4440   8.366   6.178   1.780  0.9177 -0.0629 -1.4735
  774MOL0     H 4441   8.190   6.082   1.660  3.3561 -0.4422  1.7381
  774MOL0     H 4442   8.041   6.174   1.293 -1.7488  0.2020  0.6267
  774MOL0     H 4443   8.152   6.038   1.343 -0.1991  0.4805  3.5261
  774MOL0     H 4444   8.017   5.961   1.512  2.3984 -0.9803 -2.3739
  774MOL0     H 4445   7.922   5.981   1.364  3.7498 -0.6616 -0.9964
  774MOL0     H 4446   7.920   6.163   1.624 -0.4371  1.6358 -0.0657
  774MOL0     H 4447   7.790   6.063   1.564 -0.0326 -0.6545 -2.2544
  774MOL0     H 4448   7.918   6.293   1.418  1.9341 -3.2487  1.1059
  774MOL0     H 4449   7.770   6.303   1.518  0.2472 -1.7107  1.2371
  774MOL0     H 4450   7.592   6.206   1.536  1.3581 -0.6071 -1.0359
  774MOL0     H 4451   7.302   6.200   1.635 -0.5456  0.1745 -0.9830
  774MOL0     H 4452   7.426   6.321   1.643 -2.0422 -0.1734  1.8959
  774MOL0     H 4453   7.272   6.357   1.564 -0.5195  1.2379  2.8787
  774MOL0     H 4454   6.898   6.296   1.283  1.9364 -0.0230 -0.0592
  774MOL0     H 4455   6.659   6.234   1.321  0.7183  1.8479  1.0132
  774MOL0     H 4456   6.501   6.033   1.723 -0.0810  1.3957  2.5816
  774MOL0     H 4457   6.607   6.166   1.700 -0.6000 -0.7660  1.0213
  774MOL0     H 4458   6.402   6.265   1.569  1.3426 -0.5506 -0.4588
  774MOL0     H 4459   6.314   6.121   1.624 -1.4574  0.8923 -0.8771
  774MOL0     H 4460   6.257   6.311   1.776 -0.7323  0.8065  0.4572
  774MOL0     H 4461   6.426   6.343   1.810  1.2793 -2.0475  1.1831
  774MOL0     H 4462   6.324   6.062   1.880 -0.6051  1.3001 -1.6447
  774MOL0     H 4463   6.473   6.145   1.924 -0.0087 -0.4765 -1.5110
  774MOL0     H 4464   6.248   6.134   2.083 -0.7192  0.2034 -0.1404
  774MOL0     H 4465   6.210   6.277   1.997 -0.2800 -0.6620  0.3084
  774MOL0     H 4466   6.489   6.256   2.153 -0.3980  0.4015  2.7684
  774MOL0     H 4467   6.429   6.392   2.054 -3.4056 -0.0386 -2.0970
  774MOL0     H 4468   6.310   6.293   2.316  1.1893 -1.2693 -1.2876
  774MOL0     H 4469   6.229   6.412   2.207 -0.2724  0.1086 -0.8718
  774MOL0     H 4470   6.373   6.541   2.365  3.1871  1.4949  1.2440
  774MOL0     H 4471   6.453   6.552   2.210  0.0006 -0.0140 -0.0700
  774MOL0     H 4472   6.784   5.975   1.642  1.1906 -0.0130  0.1508
  774MOL0     H 4473   7.010   6.025   1.599  2.4539  0.8460 -0.4548
  774MOL0     H 4474   7.349   6.221   1.115  0.2958 -3.2746 -0.6972
  774MOL0     H 4475   7.602   6.215   1.114 -0.5636  0.2572 -0.7948
  774MOL0     H 4476   9.335   5.650   1.768  0.5654  0.0871 -1.1801
  774MOL0     H 4477   9.550   5.593   1.715 -2.5743 -1.3357 -3.1027
  774MOL0     H 4478  10.032   5.525   1.715 -2.3443 -0.7724 -3.1309
  774MOL0     H 4479  10.282   5.590   1.705  2.3217  0.0999 -2.4759
  774MOL0     H 4480  10.371   5.906   1.426 -1.6797 -3.3346  1.4380
  774MOL0     H 4481  10.407   5.992   1.580  2.3419 -0.1328  1.6154
  774MOL0     H 4482  10.615   5.987   1.449  0.3580 -0.1568  0.1227
  774MOL0     H 4483  10.601   5.809   1.429  0.3079 -0.4236 -0.5449
  774MOL0     H 4484  10.682   5.753   1.616 -2.5218 -0.5854 -1.6940
  774MOL0     H 4485  10.593   5.865   1.710 -1.5723 -2.6077 -0.4749
  774MOL0     H 4486  10.766   6.049   1.621 -0.3024  1.1338  0.9860
  774MOL0     H 4487  10.857   5.908   1.539  1.5076 -2.3201  3.6747
  774MOL0     H 4488  11.003   5.892   1.920  0.1438  0.9086 -0.2343
  774MOL0     H 4489  10.192   5.948   1.514  1.0417 -1.1404 -2.7099
  774MOL0     H 4490   9.931   5.898   1.530  0.4459  0.7518  0.6020
  775MOL0     O 4491   9.642   6.821   9.519 -0.4109  0.4696 -0.1668
  775MOL0     C 4492   9.667   6.700   9.558 -0.3461 -0.5637 -0.3797
  775MOL0     O 4493   9.581   6.600   9.563 -0.0831  0.4489  0.3978
  775MOL0     C 4494   9.455   6.622   9.503 -0.8586 -0.0162  0.4553
  775MOL0     C 4495   9.354   6.670   9.590  0.0730  0.4686 -0.4032
  775MOL0     C 4496   9.222   6.682   9.548 -1.5259 -0.0648  0.3687
  775MOL0     C 4497   9.192   6.664   9.407 -0.2167  0.1169  0.0884
  775MOL0     O 4498   9.074   6.697   9.349  0.1681  0.6060 -0.7535
  775MOL0     C 4499   8.955   6.699   9.434  0.2271  0.5271 -0.3181
  775MOL0     C 4500   8.827   6.710   9.362  0.4768  0.5197 -0.0169
  775MOL0     C 4501   8.796   6.866   9.323  0.2907  0.0887 -0.0470
  775MOL0     C 4502   8.700   6.889   9.207  0.3871  0.4315 -0.0999
  775MOL0     C 4503   8.570   6.934   9.256 -0.0247  0.3531  0.1427
  775MOL0     C 4504   8.473   6.948   9.133 -0.8425 -0.5448  0.0725
  775MOL0     C 4505   8.362   7.043   9.164  0.1565 -0.3875  0.2754
  775MOL0     C 4506   8.232   6.959   9.191  0.4504  0.5506  0.1778
  775MOL0     N 4507   8.103   7.029   9.162 -0.0140  0.5575 -0.3041
  775MOL0     C 4508   8.077   7.162   9.169  0.0524 -0.6068  0.5625
  775MOL0     C 4509   7.964   7.186   9.114  0.6740 -0.2288 -0.4666
  775MOL0     C 4510   7.902   7.325   9.127 -0.1865  0.4616  0.6201
  775MOL0     C 4511   7.817   7.345   9.004 -0.5910 -0.1098 -0.4818
  775MOL0     C 4512   7.692   7.435   9.027 -0.1060 -0.0475  0.4079
  775MOL0     C 4513   7.573   7.387   8.940  0.2886 -0.2592  0.0281
  775MOL0     O 4514   7.454   7.424   9.009 -0.3320  0.5005  0.1477
  775MOL0     C 4515   7.329   7.390   8.962  1.4672 -0.4111 -0.7791
  775MOL0     C 4516   7.221   7.399   9.046  0.1931 -0.5625  0.5224
  775MOL0     C 4517   7.095   7.358   9.013  1.0348  0.7424 -0.0060
  775MOL0     C 4518   6.994   7.360   9.120  0.8858  0.2375  0.0813
  775MOL0     C 4519   7.072   7.304   8.874 -1.0326  0.2874 -0.5863
  775MOL0     C 4520   6.943   7.241   8.842  0.1166 -0.3123  0.4505
  775MOL0     O 4521   6.832   7.292   8.897  0.2105  0.4140  0.1311
  775MOL0     C 4522   6.697   7.250   8.884 -0.7290  0.2026  0.1408
  775MOL0     C 4523   6.604   7.276   8.988 -0.4619 -0.1787 -0.0805
  775MOL0     C 4524   6.465   7.246   8.962  0.4737 -0.1610 -1.5967
  775MOL0     C 4525   6.415   7.196   8.838  1.5980  0.4347 -0.5126
  775MOL0     O 4526   6.277   7.207   8.834 -0.0789  0.4545 -0.6630
  775MOL0     C 4527   6.223   7.094   8.769  0.1444  0.0743 -0.5089
  775MOL0     C 4528   6.063   7.087   8.779 -0.5403  0.2740 -0.5653
  775MOL0     C 4529   6.028   7.063   8.933 -0.1902 -0.3624  0.3033
  775MOL0     C 4530   5.892   6.998   8.958 -0.9746 -0.0513 -0.0262
  775MOL0     C 4531   5.779   7.102   8.923  0.3066  0.3158 -0.1229
  775MOL0     C 4532   5.631   7.039   8.950 -0.1090 -0.7593  0.0713
  775MOL0     C 4533   5.614   6.909   8.870 -0.1286  1.3170 -0.7692
  775MOL0     C 4534   5.468   6.862   8.866 -0.2718  0.4855  0.3111
  775MOL0    Cl 4535   5.467   6.707   8.783 -0.2173  0.0162 -0.0923
  775MOL0     C 4536   6.508   7.170   8.745 -0.5551  0.4258  0.4515
  775MOL0     C 4537   6.641   7.203   8.763  0.0987 -0.1713 -0.8046
  775MOL0     O 4538   6.941   7.161   8.745  0.0727 -0.2197 -0.0170
  775MOL0     C 4539   7.181   7.298   8.797 -0.3282  0.2382  0.1018
  775MOL0     C 4540   7.302   7.345   8.832  0.5421  0.7996 -0.1810
  775MOL0     N 4541   7.908   7.067   9.080  0.1624  0.5115  0.3242
  775MOL0     N 4542   7.991   6.974   9.107 -0.2319  0.5587  0.7197
  775MOL0     C 4543   9.297   6.639   9.322 -0.0829 -0.0848  0.3222
  775MOL0     C 4544   9.424   6.599   9.368 -0.4961  0.0403 -0.8358
  775MOL0     C 4545   9.802   6.676   9.582 -0.2539  0.0410  0.4680
  775MOL0     C 4546   9.863   6.557   9.536 -0.0234 -0.6487  0.1953
  775MOL0     C 4547   9.990   6.531   9.576  0.1475 -0.8567  0.0082
  775MOL0     C 4548  10.073   6.628   9.641 -0.7302  0.2554  0.5505
  775MOL0     O 4549  10.208   6.617   9.648 -0.6653  0.0602 -0.3170
  775MOL0     C 4550  10.274   6.507   9.591 -0.1398 -0.0392  0.6292
  775MOL0     C 4551  10.421   6.541   9.559  0.0980  0.5614  0.5260
  775MOL0     C 4552  10.517   6.559   9.682 -0.5059 -0.1418  1.0161
  775MOL0     C 4553  10.647   6.598   9.616  0.0924  0.4230 -0.0065
  775MOL0     C 4554  10.748   6.625   9.730  0.2216  0.2692  1.1498
  775MOL0     C 4555  10.828   6.638   9.821 -0.2873 -0.5393  0.7883
  775MOL0     C 4556  10.009   6.742   9.678 -0.4395  0.2415 -0.5770
  775MOL0     C 4557   9.873   6.765   9.664  0.5968  0.2561 -0.8155
  775MOL0     H 4558   9.379   6.682   9.695  0.5011  0.5660 -0.5150
  775MOL0     H 4559   9.146   6.720   9.616  0.8050 -0.9279  3.7201
  775MOL0     H 4560   8.959   6.600   9.482 -1.5564 -0.1425 -1.4639
  775MOL0     H 4561   8.954   6.778   9.509 -1.8989  0.6825 -0.4491
  775MOL0     H 4562   8.825   6.641   9.277 -0.0725 -1.1246  1.2952
  775MOL0     H 4563   8.748   6.676   9.430 -1.1146 -2.0478 -2.8819
  775MOL0     H 4564   8.765   6.913   9.417  1.3573 -0.0263  0.3817
  775MOL0     H 4565   8.893   6.910   9.299  1.0358 -0.3475  1.9495
  775MOL0     H 4566   8.744   6.958   9.135  2.3656  2.4463  2.8403
  775MOL0     H 4567   8.694   6.789   9.161  0.4182 -0.0237  0.8715
  775MOL0     H 4568   8.523   6.875   9.334 -1.2344 -1.3631 -1.7811
  775MOL0     H 4569   8.589   7.026   9.312  0.9081 -1.0243  2.1771
  775MOL0     H 4570   8.532   6.980   9.047 -0.8684 -0.3996  0.1079
  775MOL0     H 4571   8.431   6.852   9.103  0.4789 -1.0695 -0.1514
  775MOL0     H 4572   8.382   7.111   9.248  2.1355  1.2449 -1.4138
  775MOL0     H 4573   8.346   7.111   9.080  1.6967  1.7913  1.6366
  775MOL0     H 4574   8.242   6.909   9.287 -0.1179 -2.1305 -1.0803
  775MOL0     H 4575   8.219   6.876   9.121 -0.2727 -1.1157  2.1883
  775MOL0     H 4576   8.128   7.237   9.228 -2.1866  0.9333  0.6468
  775MOL0     H 4577   7.839   7.339   9.216 -1.5718 -0.1013 -0.2445
  775MOL0     H 4578   7.979   7.403   9.129  1.8207 -1.3278 -1.3454
  775MOL0     H 4579   7.776   7.247   8.977  0.9344 -0.4471 -1.6809
  775MOL0     H 4580   7.875   7.370   8.914  0.1444 -0.3708 -0.0867
  775MOL0     H 4581   7.711   7.535   8.987 -1.8051 -0.2232 -0.9153
  775MOL0     H 4582   7.653   7.428   9.129 -0.7296 -1.4063  0.1026
  775MOL0     H 4583   7.571   7.279   8.919 -0.6001 -0.2261 -0.0764
  775MOL0     H 4584   7.576   7.426   8.838 -4.4515 -0.0591 -0.2529
  775MOL0     H 4585   7.241   7.427   9.148 -1.3767 -1.1637  1.0277
  775MOL0     H 4586   7.040   7.425   9.195 -0.2003 -0.5937  1.5219
  775MOL0     H 4587   6.911   7.423   9.085  2.6882  0.8194 -3.7310
  775MOL0     H 4588   6.970   7.266   9.171 -0.1637  0.9384  0.9117
  775MOL0     H 4589   6.638   7.321   9.081 -1.0853  1.6149 -0.6690
  775MOL0     H 4590   6.390   7.254   9.041  0.3945 -1.7328 -1.4698
  775MOL0     H 4591   6.245   7.092   8.662 -0.4264 -1.0054 -0.6156
  775MOL0     H 4592   6.262   7.007   8.822  1.1430  1.8841  1.9451
  775MOL0     H 4593   6.012   7.180   8.750 -1.0712  1.0467  2.4742
  775MOL0     H 4594   6.022   7.001   8.725  0.4878 -1.1682  0.8514
  775MOL0     H 4595   6.045   7.159   8.982 -0.6820  0.4199 -0.9817
  775MOL0     H 4596   6.102   6.989   8.966 -0.1147 -1.8162 -2.7164
  775MOL0     H 4597   5.885   6.908   8.896  2.5603 -0.6201  0.2079
  775MOL0     H 4598   5.890   6.964   9.062 -1.1263  0.1024  0.0198
  775MOL0     H 4599   5.781   7.140   8.821  3.4186  0.3805 -0.1362
  775MOL0     H 4600   5.803   7.189   8.984  1.0144  1.1837 -1.5960
  775MOL0     H 4601   5.621   7.024   9.058  2.1934  0.8562  0.5801
  775MOL0     H 4602   5.544   7.104   8.933 -0.7401 -1.4597  0.5498
  775MOL0     H 4603   5.673   6.829   8.917 -0.8690  0.3659 -1.3981
  775MOL0     H 4604   5.662   6.916   8.772  0.5374 -0.6061 -0.6339
  775MOL0     H 4605   5.405   6.936   8.816 -0.4533  0.3169  0.2902
  775MOL0     H 4606   5.414   6.852   8.960  0.5667  0.5355  0.8124
  775MOL0     H 4607   6.474   7.142   8.645 -3.2968 -0.9706  1.6643
  775MOL0     H 4608   6.707   7.205   8.677  0.3208 -1.3150 -0.6792
  775MOL0     H 4609   7.174   7.258   8.696 -5.1817  0.5375  0.0841
  775MOL0     H 4610   7.375   7.345   8.751  0.0408 -0.1938 -0.6617
  775MOL0     H 4611   9.276   6.639   9.215 -1.0456 -3.7229  0.3815
  775MOL0     H 4612   9.504   6.581   9.297  1.8232  1.0546  1.3331
  775MOL0     H 4613   9.810   6.484   9.476 -1.8541  0.0583  0.8611
  775MOL0     H 4614  10.027   6.434   9.543  1.7511 -0.8065  1.4911
  775MOL0     H 4615  10.259   6.419   9.655 -0.0816 -0.0854  0.5784
  775MOL0     H 4616  10.234   6.478   9.493 -0.7639 -0.6975  1.0653
  775MOL0     H 4617  10.412   6.634   9.502  1.2406  0.7385  0.6121
  775MOL0     H 4618  10.460   6.465   9.490  1.3248  1.0249  0.6913
  775MOL0     H 4619  10.514   6.470   9.745  1.3677 -1.7805 -1.0263
  775MOL0     H 4620  10.497   6.640   9.752  1.8060  0.5881  0.9059
  775MOL0     H 4621  10.638   6.686   9.552  1.2131  0.7967  0.3280
  775MOL0     H 4622  10.682   6.516   9.553  0.9383  0.3760  0.5100
  775MOL0     H 4623  10.896   6.650   9.903  1.8160 -3.9706 -0.2652
  775MOL0     H 4624  10.069   6.813   9.735  2.5257 -1.1603 -1.7246
  775MOL0     H 4625   9.824   6.850   9.710  0.6282 -1.1042  1.9396
  776MOL0     O 4626   0.223   4.560   8.324 -0.2307 -0.2772  0.3696
  776MOL0     C 4627   0.213   4.635   8.424  0.4232 -0.0400  0.8159
  776MOL0     O 4628   0.097   4.661   8.492 -0.3784  0.2656  0.3830
  776MOL0     C 4629  -0.013   4.600   8.432 -0.3609 -0.9398  0.0951
  776MOL0     C 4630  -0.047   4.626   8.302  0.1934  0.0418  0.8158
  776MOL0     C 4631  -0.170   4.593   8.249  0.0651 -0.3110 -0.5690
  776MOL0     C 4632  -0.257   4.513   8.326 -0.0655  0.4938  0.2657
  776MOL0     O 4633  -0.377   4.468   8.273  0.3718 -0.3172  0.5166
  776MOL0     C 4634  -0.369   4.348   8.189  0.6443  0.5207  0.5307
  776MOL0     C 4635  -0.507   4.334   8.125 -0.7292 -0.8217  0.1733
  776MOL0     C 4636  -0.528   4.401   7.989  0.7441  0.1122 -0.4434
  776MOL0     C 4637  -0.469   4.541   7.973  0.4202 -0.5096 -0.4416
  776MOL0     C 4638  -0.538   4.589   7.848  0.2896 -0.4248  0.6186
  776MOL0     C 4639  -0.459   4.713   7.786  0.3468 -0.2989  0.1520
  776MOL0     C 4640  -0.448   4.834   7.881  0.7955 -0.1614 -0.1930
  776MOL0     C 4641  -0.410   4.951   7.788 -0.0671 -0.6515  0.5444
  776MOL0     N 4642  -0.371   5.068   7.868 -0.9231 -0.9880 -0.3346
  776MOL0     C 4643  -0.458   5.131   7.951  0.0782  0.2652  0.1843
  776MOL0     C 4644  -0.388   5.230   8.005 -0.3897 -0.6632 -0.8709
  776MOL0     C 4645  -0.430   5.326   8.107 -0.8402  0.0879  0.2418
  776MOL0     C 4646  -0.418   5.484   8.073 -0.0236 -0.2166 -0.3183
  776MOL0     C 4647  -0.466   5.512   7.930  0.7220 -0.1411  0.4206
  776MOL0     C 4648  -0.607   5.484   7.899  0.8374 -0.0269  0.5412
  776MOL0     O 4649  -0.692   5.569   7.990 -0.0248  0.0465  0.1883
  776MOL0     C 4650  -0.827   5.549   7.998 -0.3970 -0.0784 -0.8202
  776MOL0     C 4651  -0.891   5.622   8.092  0.4305  0.0881 -0.1081
  776MOL0     C 4652  -1.030   5.601   8.114 -0.9956  0.2957 -0.6192
  776MOL0     C 4653  -1.078   5.682   8.228  0.2617 -0.2183 -0.0963
  776MOL0     C 4654  -1.112   5.522   8.026  0.5149  0.0805 -0.5052
  776MOL0     C 4655  -1.261   5.523   8.042  1.0752  0.3710 -0.3529
  776MOL0     O 4656  -1.331   5.518   7.917  0.4341  0.2474  0.0712
  776MOL0     C 4657  -1.471   5.510   7.927  0.0136  0.1493  1.3176
  776MOL0     C 4658  -1.541   5.623   7.881 -0.1303  0.1280  0.3093
  776MOL0     C 4659  -1.680   5.634   7.890  0.3244  0.2889  0.6456
  776MOL0     C 4660  -1.750   5.525   7.946  0.5616  0.0403  0.9961
  776MOL0     O 4661  -1.881   5.550   7.973 -0.8106 -0.1907 -0.2634
  776MOL0     C 4662  -1.963   5.437   7.964  0.1674 -0.0825  0.8606
  776MOL0     C 4663  -2.103   5.475   7.927 -0.7103 -1.2358  0.0301
  776MOL0     C 4664  -2.187   5.346   7.925  0.4575 -0.4599 -0.3717
  776MOL0     C 4665  -2.337   5.367   7.912  0.0539  0.2777 -0.2467
  776MOL0     C 4666  -2.406   5.240   7.847 -0.4044  0.9150 -0.2874
  776MOL0     C 4667  -2.554   5.265   7.839 -0.1767  0.4238 -1.4399
  776MOL0     C 4668  -2.609   5.164   7.745  0.7067  0.4553 -0.4802
  776MOL0     C 4669  -2.762   5.179   7.712  0.1324 -0.0949  0.0788
  776MOL0    Cl 4670  -2.864   5.175   7.860 -0.0494  0.5527 -0.4690
  776MOL0     C 4671  -1.685   5.409   7.986 -0.1863  0.4353 -0.5704
  776MOL0     C 4672  -1.543   5.399   7.976 -0.0681 -0.4481  0.0080
  776MOL0     O 4673  -1.309   5.526   8.153  0.0555 -0.0954  0.2189
  776MOL0     C 4674  -1.040   5.444   7.935  0.9794 -0.6411  0.0020
  776MOL0     C 4675  -0.898   5.458   7.926 -1.0560  0.7308 -0.2274
  776MOL0     N 4676  -0.261   5.229   7.947 -0.9390  0.0077 -0.2532
  776MOL0     N 4677  -0.256   5.129   7.864 -0.9032  0.1316  0.2971
  776MOL0     C 4678  -0.223   4.469   8.444 -0.4597 -0.9873 -0.7878
  776MOL0     C 4679  -0.098   4.518   8.505  0.6430 -0.3925  0.2437
  776MOL0     C 4680   0.337   4.698   8.461 -0.7796 -0.6900 -0.4934
  776MOL0     C 4681   0.352   4.736   8.595 -0.0992  0.6084 -0.4754
  776MOL0     C 4682   0.476   4.790   8.636  0.6079 -0.7232 -0.1498
  776MOL0     C 4683   0.588   4.807   8.538 -0.0479  1.1030 -0.6124
  776MOL0     O 4684   0.710   4.855   8.566  0.4386 -0.4657  0.8293
  776MOL0     C 4685   0.770   4.824   8.698  0.6645 -0.6734  0.3391
  776MOL0     C 4686   0.921   4.853   8.702 -0.9354 -0.0889  0.1248
  776MOL0     C 4687   0.946   5.003   8.675  0.8702  0.4320  0.0271
  776MOL0     C 4688   1.089   5.056   8.692 -0.4841 -0.3298  0.9135
  776MOL0     C 4689   1.077   5.205   8.698  0.5921  0.1102  0.2722
  776MOL0     C 4690   1.062   5.324   8.698  0.3889 -0.3204  0.5104
  776MOL0     C 4691   0.563   4.775   8.405 -0.0440 -0.0682 -0.4171
  776MOL0     C 4692   0.442   4.717   8.366  0.0432 -0.7127 -0.0497
  776MOL0     H 4693   0.030   4.680   8.247 -1.5881  0.3014 -1.5971
  776MOL0     H 4694  -0.190   4.623   8.147 -0.7709  0.7933 -0.0955
  776MOL0     H 4695  -0.287   4.350   8.117  1.3998 -3.3999  1.0661
  776MOL0     H 4696  -0.350   4.263   8.256 -1.5803 -1.5247 -1.2563
  776MOL0     H 4697  -0.533   4.233   8.092 -0.8056 -1.2020  1.3470
  776MOL0     H 4698  -0.593   4.356   8.189  0.3995  0.4322  1.3367
  776MOL0     H 4699  -0.506   4.330   7.909  0.1075  0.0038 -0.5262
  776MOL0     H 4700  -0.637   4.402   7.987  0.7043  2.5577 -3.5033
  776MOL0     H 4701  -0.492   4.609   8.055 -2.3902  0.4191 -1.8368
  776MOL0     H 4702  -0.362   4.530   7.954  0.1016 -3.1139 -1.1478
  776MOL0     H 4703  -0.544   4.506   7.777  0.5185  0.3595 -0.3382
  776MOL0     H 4704  -0.641   4.617   7.873  0.7336  0.4071  1.5991
  776MOL0     H 4705  -0.359   4.685   7.749 -0.2375 -1.8464 -0.3323
  776MOL0     H 4706  -0.517   4.735   7.696 -0.0252 -2.1112 -0.0919
  776MOL0     H 4707  -0.539   4.865   7.933 -0.1974  3.2196 -3.4615
  776MOL0     H 4708  -0.363   4.802   7.943  1.5123 -1.5454 -1.8191
  776MOL0     H 4709  -0.491   4.979   7.721 -0.3499 -3.0441 -0.1787
  776MOL0     H 4710  -0.333   4.917   7.718 -0.4374 -0.9656  0.2903
  776MOL0     H 4711  -0.562   5.110   7.977  0.4966 -2.5706 -0.0734
  776MOL0     H 4712  -0.534   5.307   8.136 -0.7099 -1.9462 -0.4874
  776MOL0     H 4713  -0.376   5.298   8.199 -0.5941  1.3539  0.5020
  776MOL0     H 4714  -0.315   5.520   8.084 -0.0430 -0.2676  0.0516
  776MOL0     H 4715  -0.489   5.542   8.131 -2.5462 -1.7751 -1.6775
  776MOL0     H 4716  -0.405   5.455   7.859  2.0147  0.9243  0.6435
  776MOL0     H 4717  -0.446   5.617   7.905 -2.5929 -0.1136 -3.0868
  776MOL0     H 4718  -0.632   5.378   7.910 -2.6185  0.5303 -0.6654
  776MOL0     H 4719  -0.634   5.511   7.797  3.8639 -1.8737 -0.8651
  776MOL0     H 4720  -0.827   5.686   8.153  0.0834  0.8036 -0.4864
  776MOL0     H 4721  -1.159   5.749   8.199  2.7210  2.8629 -0.2803
  776MOL0     H 4722  -1.111   5.616   8.309 -2.6884 -0.5639 -1.4536
  776MOL0     H 4723  -1.004   5.751   8.269  0.4975 -0.0859 -0.7389
  776MOL0     H 4724  -1.494   5.708   7.832 -0.0464 -0.1375 -0.0721
  776MOL0     H 4725  -1.726   5.728   7.863 -0.8029 -0.2809  0.5118
  776MOL0     H 4726  -1.944   5.364   7.884 -1.9474  0.4021 -0.1732
  776MOL0     H 4727  -1.959   5.391   8.063  3.4110  1.5114  1.5749
  776MOL0     H 4728  -2.148   5.546   7.998  0.8231  0.9032 -1.0402
  776MOL0     H 4729  -2.100   5.517   7.826  0.6348 -1.0936  0.1096
  776MOL0     H 4730  -2.164   5.272   8.002  0.8153  0.4543  0.4203
  776MOL0     H 4731  -2.156   5.305   7.828 -0.1564 -1.2677 -0.2413
  776MOL0     H 4732  -2.385   5.385   8.008  2.1732  2.7755  0.4543
  776MOL0     H 4733  -2.353   5.462   7.861  3.0451  1.9450  1.6489
  776MOL0     H 4734  -2.383   5.146   7.899 -0.1052  0.1974 -1.6765
  776MOL0     H 4735  -2.364   5.222   7.748  2.4913  3.5825  0.3225
  776MOL0     H 4736  -2.605   5.252   7.935 -0.4665 -0.4132 -1.6970
  776MOL0     H 4737  -2.577   5.367   7.807 -0.8265  0.5986 -0.4714
  776MOL0     H 4738  -2.589   5.064   7.785 -1.0176  0.6316  0.9604
  776MOL0     H 4739  -2.557   5.172   7.649  0.9926  1.7859 -0.2375
  776MOL0     H 4740  -2.771   5.099   7.639  2.3659 -0.6511  0.3428
  776MOL0     H 4741  -2.774   5.273   7.657  3.1295  0.3188 -0.0284
  776MOL0     H 4742  -1.744   5.327   8.026  0.4840  0.2939  0.1420
  776MOL0     H 4743  -1.493   5.313   8.019  0.8858 -0.9760 -2.0495
  776MOL0     H 4744  -1.090   5.375   7.868 -2.3639  1.9525 -0.4266
  776MOL0     H 4745  -0.847   5.408   7.844  1.4963 -0.6401  2.0168
  776MOL0     H 4746  -0.304   4.438   8.509 -1.9362  2.4068 -0.8071
  776MOL0     H 4747  -0.079   4.500   8.610 -3.1539  1.4455  1.4092
  776MOL0     H 4748   0.281   4.711   8.673  0.2305  1.9285  0.2862
  776MOL0     H 4749   0.489   4.816   8.740  0.1349 -0.9407 -0.0339
  776MOL0     H 4750   0.715   4.880   8.775  0.9080 -0.8954  0.6807
  776MOL0     H 4751   0.749   4.718   8.716 -0.1401 -0.8130 -1.2513
  776MOL0     H 4752   0.972   4.802   8.619 -1.6608  1.3475 -1.2684
  776MOL0     H 4753   0.972   4.826   8.795  1.6054  0.2601 -1.0803
  776MOL0     H 4754   0.885   5.059   8.747 -0.5778 -0.0792 -0.7778
  776MOL0     H 4755   0.906   5.027   8.577  1.1613 -0.6445 -0.3618
  776MOL0     H 4756   1.166   5.028   8.620 -1.2735  0.7702 -0.4043
  776MOL0     H 4757   1.113   5.023   8.793  0.1664  0.1702  0.9314
  776MOL0     H 4758   1.060   5.430   8.711  1.3109 -0.2737  0.3095
  776MOL0     H 4759   0.654   4.777   8.347 -1.2884 -0.9967 -2.5397
  776MOL0     H 4760   0.443   4.682   8.263  2.0489 -1.4696  0.1640
  777MOL0     O 4761  10.827   5.182   2.507  0.4274 -0.3653 -0.7455
  777MOL0     C 4762  10.848   5.208   2.628  0.1810  0.9096  0.6355
  777MOL0     O 4763  10.758   5.266   2.709 -0.0234 -0.4599  0.2904
  777MOL0     C 4764  10.630   5.284   2.667 -1.2061  0.2938 -0.0363
  777MOL0     C 4765  10.568   5.410   2.681 -0.0118 -0.3614 -0.2247
  777MOL0     C 4766  10.438   5.420   2.648  0.3551  0.2737  0.6293
  777MOL0     C 4767  10.366   5.324   2.577 -0.2995  0.6971  0.6930
  777MOL0     O 4768  10.243   5.353   2.531  0.4992  0.5727 -0.2391
  777MOL0     C 4769  10.193   5.300   2.409 -0.4327 -0.1725 -0.1246
  777MOL0     C 4770  10.068   5.389   2.388  0.1505 -0.0983  0.7700
  777MOL0     C 4771   9.992   5.352   2.269  0.6378 -0.2938 -0.9141
  777MOL0     C 4772   9.870   5.441   2.252 -0.1918 -0.2359 -0.0799
  777MOL0     C 4773   9.808   5.426   2.116 -0.3373  0.4790  0.1535
  777MOL0     C 4774   9.709   5.310   2.107 -0.5270 -0.3509  0.1933
  777MOL0     C 4775   9.616   5.345   1.991  0.1967 -0.5780  0.3094
  777MOL0     C 4776   9.502   5.256   1.969  0.8604 -0.8809  0.3677
  777MOL0     N 4777   9.395   5.321   1.878 -0.3027 -0.1656  0.0667
  777MOL0     C 4778   9.344   5.283   1.743 -0.0803  0.4418 -0.5230
  777MOL0     C 4779   9.225   5.347   1.725  0.0421 -0.0224  0.7737
  777MOL0     C 4780   9.118   5.321   1.620 -0.8219 -0.1955  0.5057
  777MOL0     C 4781   8.970   5.334   1.665 -0.5643  0.1105  0.6111
  777MOL0     C 4782   8.878   5.312   1.542  0.5628  0.2629  0.0678
  777MOL0     C 4783   8.734   5.338   1.567 -0.4360 -0.3735 -0.0300
  777MOL0     O 4784   8.704   5.478   1.554  0.2575 -0.7794 -1.3443
  777MOL0     C 4785   8.570   5.514   1.547  0.0978 -0.0631 -0.2146
  777MOL0     C 4786   8.533   5.646   1.524 -0.4145  0.5364 -0.2007
  777MOL0     C 4787   8.407   5.684   1.507  0.9739 -1.1063  0.7990
  777MOL0     C 4788   8.382   5.826   1.482 -0.6750  0.0253  0.3508
  777MOL0     C 4789   8.299   5.594   1.495  0.2464 -0.0810  0.0210
  777MOL0     C 4790   8.158   5.621   1.457 -0.5817  0.3951  0.5110
  777MOL0     O 4791   8.057   5.566   1.533  0.2245 -0.4888 -0.1538
  777MOL0     C 4792   7.928   5.602   1.501  0.2184 -0.0704  0.8002
  777MOL0     C 4793   7.868   5.541   1.391  0.4092 -1.0383 -0.6720
  777MOL0     C 4794   7.737   5.583   1.357  0.2326 -0.0531 -0.0317
  777MOL0     C 4795   7.665   5.675   1.431 -0.2711  0.1562  0.1479
  777MOL0     O 4796   7.544   5.717   1.377  0.3833 -0.4520  0.3489
  777MOL0     C 4797   7.462   5.808   1.455 -0.1701 -0.1821 -0.4833
  777MOL0     C 4798   7.336   5.841   1.379  0.6308  0.0390  0.1987
  777MOL0     C 4799   7.237   5.722   1.393  0.6736  0.9387 -0.2715
  777MOL0     C 4800   7.085   5.755   1.393 -0.3705  0.0592 -0.6069
  777MOL0     C 4801   7.000   5.633   1.358 -0.6731 -0.2581  0.1143
  777MOL0     C 4802   6.996   5.537   1.484 -0.1236 -0.3354 -0.4108
  777MOL0     C 4803   6.894   5.420   1.465 -0.2632 -0.2144  1.0279
  777MOL0     C 4804   6.896   5.299   1.555  0.2397  0.2631  0.4982
  777MOL0    Cl 4805   6.766   5.188   1.512  0.2224  0.3557 -0.1108
  777MOL0     C 4806   7.727   5.726   1.544  0.5748 -0.2125  0.1171
  777MOL0     C 4807   7.861   5.699   1.574 -1.5100 -0.3794  0.2626
  777MOL0     O 4808   8.144   5.666   1.345  0.1221  0.2528 -0.2147
  777MOL0     C 4809   8.330   5.459   1.526 -0.0237 -0.0283 -0.4657
  777MOL0     C 4810   8.465   5.418   1.549  0.6492 -0.2889 -1.2483
  777MOL0     N 4811   9.198   5.413   1.843  0.8638 -0.6498  0.0918
  777MOL0     N 4812   9.305   5.415   1.925  0.7836  0.4484 -0.0931
  777MOL0     C 4813  10.433   5.198   2.545 -0.4462 -0.3812  0.2586
  777MOL0     C 4814  10.564   5.181   2.593 -0.1129  0.2289  0.2435
  777MOL0     C 4815  10.980   5.187   2.678 -0.1349 -0.3512 -0.5541
  777MOL0     C 4816  11.009   5.188   2.821  0.3811  0.2590 -0.6995
  777MOL0     C 4817  11.139   5.160   2.860  0.7756 -0.0503  0.2678
  777MOL0     C 4818  11.246   5.159   2.769 -0.1494  0.9433 -0.0401
  777MOL0     O 4819  11.365   5.140   2.832 -0.1088 -0.2458  0.3690
  777MOL0     C 4820  11.485   5.113   2.761 -0.6950 -0.3303 -0.3713
  777MOL0     C 4821  11.563   5.239   2.732  0.0558  0.1043 -0.4629
  777MOL0     C 4822  11.699   5.207   2.659  0.1733  0.0311  0.4772
  777MOL0     C 4823  11.808   5.175   2.762  0.6208  0.0716  0.7483
  777MOL0     C 4824  11.948   5.183   2.711 -0.2880 -0.7858  0.2822
  777MOL0     C 4825  12.059   5.179   2.669  0.0396 -0.6444 -0.1802
  777MOL0     C 4826  11.220   5.173   2.632 -0.1562  0.4376  0.4772
  777MOL0     C 4827  11.091   5.188   2.588 -0.5873 -0.5570 -0.5163
  777MOL0     H 4828  10.623   5.491   2.728 -0.9503  1.9883 -2.8692
  777MOL0     H 4829  10.379   5.508   2.670  0.7777  0.5406  0.7209
  777MOL0     H 4830  10.263   5.319   2.327 -0.3955 -2.9372 -0.8355
  777MOL0     H 4831  10.155   5.199   2.428 -0.3598 -0.3410 -0.8453
  777MOL0     H 4832  10.001   5.372   2.472  0.5977 -0.6051  1.0299
  777MOL0     H 4833  10.084   5.498   2.395 -0.2998  0.1590 -1.4595
  777MOL0     H 4834  10.051   5.375   2.180  0.6503  4.6368  0.0778
  777MOL0     H 4835   9.960   5.247   2.274  3.0983 -1.1137  3.4353
  777MOL0     H 4836   9.793   5.426   2.329 -1.9566  0.0160 -1.7369
  777MOL0     H 4837   9.908   5.541   2.275 -1.9735  0.6659 -0.8869
  777MOL0     H 4838   9.750   5.518   2.102 -3.0278 -1.0529  0.4239
  777MOL0     H 4839   9.877   5.406   2.034  0.4628 -2.2170  1.3400
  777MOL0     H 4840   9.762   5.215   2.096  1.3677  0.7354 -0.4773
  777MOL0     H 4841   9.658   5.294   2.202 -0.2389 -0.6209  0.3043
  777MOL0     H 4842   9.573   5.444   2.008 -1.3168 -1.1808  0.1099
  777MOL0     H 4843   9.662   5.360   1.893 -2.5896 -0.4216 -1.0794
  777MOL0     H 4844   9.456   5.224   2.063  1.0606  2.1833  1.6359
  777MOL0     H 4845   9.544   5.171   1.915  0.3376 -0.0352 -1.4602
  777MOL0     H 4846   9.385   5.203   1.683 -0.6777 -0.0189 -0.3208
  777MOL0     H 4847   9.130   5.390   1.536 -1.2037 -1.4031 -0.5869
  777MOL0     H 4848   9.144   5.227   1.569  1.1242  1.3645 -1.5970
  777MOL0     H 4849   8.948   5.432   1.707 -1.9075 -0.1401  0.5149
  777MOL0     H 4850   8.941   5.268   1.747 -0.9596 -2.3781 -1.4093
  777MOL0     H 4851   8.891   5.206   1.520  0.2104 -0.4447  2.9668
  777MOL0     H 4852   8.914   5.384   1.467  2.3293  0.7399  1.3057
  777MOL0     H 4853   8.716   5.297   1.667  0.9127 -1.2567 -0.1178
  777MOL0     H 4854   8.673   5.291   1.489  0.7176 -0.9633 -0.6040
  777MOL0     H 4855   8.613   5.719   1.523  0.2930 -0.2230 -0.2951
  777MOL0     H 4856   8.341   5.844   1.383 -0.1057 -0.6249 -0.0148
  777MOL0     H 4857   8.308   5.863   1.554 -0.2391  1.1279  0.2554
  777MOL0     H 4858   8.474   5.884   1.496 -0.9134  0.2727  0.9253
  777MOL0     H 4859   7.919   5.464   1.334  3.2549  0.6383 -0.5367
  777MOL0     H 4860   7.687   5.543   1.270 -2.9461 -0.7023  1.9178
  777MOL0     H 4861   7.431   5.775   1.554  1.4338 -0.8906 -0.1862
  777MOL0     H 4862   7.510   5.904   1.477 -1.7892  0.4227  0.5769
  777MOL0     H 4863   7.301   5.938   1.414 -1.4361  0.1958 -2.0494
  777MOL0     H 4864   7.350   5.848   1.271  0.3762 -0.5878  0.1158
  777MOL0     H 4865   7.253   5.663   1.483  0.2809 -0.0663 -0.8489
  777MOL0     H 4866   7.268   5.658   1.310  0.1597  1.0416 -0.5522
  777MOL0     H 4867   7.043   5.789   1.489 -2.4990 -3.8662  0.0817
  777MOL0     H 4868   7.063   5.835   1.322  1.9108 -0.1335 -1.6148
  777MOL0     H 4869   7.044   5.586   1.269 -2.6638  2.9345 -2.8107
  777MOL0     H 4870   6.895   5.660   1.340 -0.3949  2.5568  2.1510
  777MOL0     H 4871   7.096   5.492   1.494  1.3146  2.5916 -0.6113
  777MOL0     H 4872   6.976   5.583   1.581  1.2458  0.7184 -0.5999
  777MOL0     H 4873   6.936   5.378   1.373 -0.5457  2.3305 -0.3704
  777MOL0     H 4874   6.792   5.454   1.444 -1.1246 -1.8607  2.3062
  777MOL0     H 4875   6.877   5.321   1.660 -1.4894 -0.2701  0.3311
  777MOL0     H 4876   6.990   5.245   1.541  0.0983  0.3134 -0.7859
  777MOL0     H 4877   7.675   5.799   1.604 -1.3482 -1.4448  0.0485
  777MOL0     H 4878   7.897   5.747   1.664 -1.4299  0.3013 -0.1245
  777MOL0     H 4879   8.254   5.383   1.517 -1.3525  1.1170  0.6600
  777MOL0     H 4880   8.474   5.312   1.569 -1.6356 -0.8360 -2.7019
  777MOL0     H 4881  10.389   5.127   2.476  2.0332 -0.1453 -1.6863
  777MOL0     H 4882  10.619   5.092   2.563 -0.3111  0.9841 -2.7120
  777MOL0     H 4883  10.931   5.193   2.896 -0.4411 -2.8037 -1.2337
  777MOL0     H 4884  11.154   5.154   2.968 -4.0018  0.6969  1.2144
  777MOL0     H 4885  11.543   5.038   2.816 -0.5013 -0.1700 -0.3549
  777MOL0     H 4886  11.459   5.067   2.666  0.5424 -2.2086  0.1424
  777MOL0     H 4887  11.587   5.290   2.826 -0.2102  2.0041 -1.3814
  777MOL0     H 4888  11.504   5.301   2.664 -0.1294 -0.0406 -0.4379
  777MOL0     H 4889  11.731   5.297   2.605  0.2599 -0.2808  0.0090
  777MOL0     H 4890  11.692   5.125   2.588  0.0594 -0.8910  1.5352
  777MOL0     H 4891  11.786   5.075   2.801 -2.3981 -0.8420 -2.7415
  777MOL0     H 4892  11.814   5.245   2.846  4.4278  1.3553 -0.3733
  777MOL0     H 4893  12.163   5.180   2.645 -0.0392  3.0504 -1.0472
  777MOL0     H 4894  11.302   5.180   2.562  0.1901  4.4107  1.0548
  777MOL0     H 4895  11.075   5.209   2.482 -0.5638  0.1588 -0.3841
  778MOL0     O 4896   7.062   6.337   5.466 -0.2431  0.4474  0.1811
  778MOL0     C 4897   7.180   6.297   5.457  0.3548 -0.1933 -0.7159
  778MOL0     O 4898   7.224   6.193   5.380 -0.4982 -0.1143  0.5993
  778MOL0     C 4899   7.132   6.095   5.329  0.5678 -0.6225  0.2070
  778MOL0     C 4900   7.138   6.059   5.197  0.8966  0.0553 -0.1003
  778MOL0     C 4901   7.040   5.966   5.149  0.1019  0.8004  0.2145
  778MOL0     C 4902   6.937   5.914   5.224  0.0458 -0.5415 -0.0214
  778MOL0     O 4903   6.849   5.834   5.168 -0.6792  0.2262  0.3530
  778MOL0     C 4904   6.719   5.821   5.230 -0.0958 -0.4441  0.0181
  778MOL0     C 4905   6.612   5.791   5.129 -0.1376  0.3935 -0.7524
  778MOL0     C 4906   6.474   5.814   5.192 -0.3829 -0.2219  1.4437
  778MOL0     C 4907   6.379   5.784   5.083 -0.1807  0.0339 -0.6879
  778MOL0     C 4908   6.244   5.759   5.149  0.3383 -0.9794  0.2981
  778MOL0     C 4909   6.132   5.740   5.055  0.3854  0.3798  0.3175
  778MOL0     C 4910   6.156   5.656   4.929  0.7305 -0.0763 -0.0151
  778MOL0     C 4911   6.019   5.623   4.863  0.6039 -0.2965 -0.6388
  778MOL0     N 4912   6.005   5.507   4.773  0.3725  1.2145  0.1629
  778MOL0     C 4913   6.056   5.377   4.793 -0.2215  0.5571 -0.2912
  778MOL0     C 4914   6.029   5.298   4.687 -0.3492  1.2775 -0.2684
  778MOL0     C 4915   6.048   5.144   4.666 -0.8608 -0.3510  0.0036
  778MOL0     C 4916   6.064   5.062   4.797  0.1808  0.3311 -0.0040
  778MOL0     C 4917   6.197   5.048   4.875 -0.8188 -0.3215  0.6069
  778MOL0     C 4918   6.321   5.041   4.789 -0.3544  0.2662  0.5380
  778MOL0     O 4919   6.421   5.018   4.895  0.0221  0.1518 -0.0393
  778MOL0     C 4920   6.548   5.052   4.858  0.5503  0.5734  0.0870
  778MOL0     C 4921   6.588   5.140   4.760 -0.0894  1.2285 -0.0646
  778MOL0     C 4922   6.713   5.151   4.711 -0.1107  0.2724 -0.2247
  778MOL0     C 4923   6.739   5.242   4.597  0.3484  0.0348 -0.4785
  778MOL0     C 4924   6.812   5.063   4.774  0.5425  0.2193  1.0867
  778MOL0     C 4925   6.958   5.050   4.732 -0.4207 -0.0399 -0.5952
  778MOL0     O 4926   7.048   5.093   4.839  0.1394  0.8263  0.2480
  778MOL0     C 4927   7.177   5.107   4.803  0.0487 -1.2514  0.5570
  778MOL0     C 4928   7.268   4.997   4.820 -0.8098  0.1250 -0.5448
  778MOL0     C 4929   7.400   5.010   4.784 -0.6239 -0.3643  0.1282
  778MOL0     C 4930   7.454   5.128   4.734  0.0389  0.6080 -0.3527
  778MOL0     O 4931   7.591   5.128   4.735 -0.0206  0.4285  0.3636
  778MOL0     C 4932   7.655   5.250   4.756 -0.4756 -0.3821 -0.4161
  778MOL0     C 4933   7.802   5.233   4.800 -0.4469  0.5737 -0.4927
  778MOL0     C 4934   7.882   5.173   4.697  0.1024  0.7823  0.4350
  778MOL0     C 4935   8.017   5.117   4.723  0.2376  0.0769 -0.5983
  778MOL0     C 4936   8.109   5.083   4.607 -0.8668  0.6947 -0.0804
  778MOL0     C 4937   8.049   4.984   4.507  0.5294 -0.1736 -0.9659
  778MOL0     C 4938   8.151   4.931   4.406  1.3319  0.1949  0.0246
  778MOL0     C 4939   8.084   4.845   4.306 -0.5108  0.0246 -0.4261
  778MOL0    Cl 4940   8.036   4.711   4.405 -0.0627  0.3156  0.3109
  778MOL0     C 4941   7.366   5.240   4.713  0.2960 -0.6833  0.2601
  778MOL0     C 4942   7.232   5.227   4.741 -0.4007 -0.2410 -0.0995
  778MOL0     O 4943   6.996   5.006   4.620  0.3622 -0.5259 -0.5166
  778MOL0     C 4944   6.776   4.986   4.879  0.2911 -0.0680 -0.3228
  778MOL0     C 4945   6.649   4.981   4.924 -0.5320  0.0086  0.3254
  778MOL0     N 4946   5.978   5.387   4.594 -0.2359 -0.7836  0.7982
  778MOL0     N 4947   5.957   5.508   4.650 -0.7139 -0.1292  0.6044
  778MOL0     C 4948   6.941   5.949   5.364  0.6874  0.4234  0.4429
  778MOL0     C 4949   7.037   6.034   5.417 -0.0390  0.3453 -0.0740
  778MOL0     C 4950   7.286   6.378   5.530  0.4595  0.0693 -0.2058
  778MOL0     C 4951   7.419   6.359   5.507  0.4764  0.7556 -0.0080
  778MOL0     C 4952   7.520   6.436   5.575 -0.3905 -0.2573 -0.5393
  778MOL0     C 4953   7.488   6.536   5.668 -0.2734 -0.5238 -0.4104
  778MOL0     O 4954   7.573   6.625   5.736  0.0887 -1.0492 -0.7559
  778MOL0     C 4955   7.709   6.590   5.742 -0.2133 -0.1913 -0.8588
  778MOL0     C 4956   7.792   6.647   5.863 -0.1299  0.5052  0.0980
  778MOL0     C 4957   7.817   6.796   5.859  0.5129 -0.0031  0.4303
  778MOL0     C 4958   7.719   6.868   5.964 -1.0148 -0.7309 -0.0267
  778MOL0     C 4959   7.578   6.833   5.937 -0.5624  0.3356 -0.4085
  778MOL0     C 4960   7.456   6.807   5.925  0.2506 -0.3394 -0.5382
  778MOL0     C 4961   7.348   6.552   5.687  0.1723 -0.2847  0.3471
  778MOL0     C 4962   7.254   6.481   5.615  0.0484 -0.3739  0.3176
  778MOL0     H 4963   7.213   6.104   5.131  0.8344  1.2109  0.5821
  778MOL0     H 4964   7.040   5.936   5.045  0.0265 -2.1168  0.9654
  778MOL0     H 4965   6.724   5.737   5.301  3.9246 -0.7903 -0.4586
  778MOL0     H 4966   6.701   5.905   5.298  3.3744 -2.1771  3.4756
  778MOL0     H 4967   6.636   5.850   5.040 -1.5831 -0.1442 -1.5185
  778MOL0     H 4968   6.615   5.685   5.103 -2.0886 -0.1612  0.9503
  778MOL0     H 4969   6.451   5.753   5.279 -1.4846 -1.1792  0.5221
  778MOL0     H 4970   6.468   5.922   5.212  0.8971 -0.1410  1.4750
  778MOL0     H 4971   6.371   5.874   5.021  0.0253  0.4036 -0.1902
  778MOL0     H 4972   6.409   5.692   5.033 -1.8450 -2.4458  2.4919
  778MOL0     H 4973   6.257   5.669   5.209 -1.6735 -1.7118 -0.3098
  778MOL0     H 4974   6.221   5.836   5.224  1.3376  0.4957 -0.8476
  778MOL0     H 4975   6.067   5.687   5.125  2.0064  0.5789  2.0539
  778MOL0     H 4976   6.084   5.836   5.036 -0.8433 -0.2430  0.1672
  778MOL0     H 4977   6.208   5.710   4.851  0.1191  1.0885  0.3634
  778MOL0     H 4978   6.203   5.560   4.954 -3.7204 -3.2414 -2.3490
  778MOL0     H 4979   5.992   5.715   4.810  0.8740  1.4811  2.0908
  778MOL0     H 4980   5.947   5.609   4.944 -1.6678  0.8216 -2.3423
  778MOL0     H 4981   6.093   5.333   4.885 -2.6666 -1.9126 -0.3570
  778MOL0     H 4982   5.961   5.098   4.619 -1.0108 -0.1893  0.1207
  778MOL0     H 4983   6.137   5.129   4.605  0.4722 -0.5412  1.8976
  778MOL0     H 4984   6.037   4.959   4.773 -0.4705  0.4173  0.3284
  778MOL0     H 4985   5.993   5.109   4.866 -1.7848 -1.1890 -0.8907
  778MOL0     H 4986   6.209   4.952   4.926 -1.9257 -1.2012 -0.7102
  778MOL0     H 4987   6.200   5.135   4.940 -3.8591  0.7661 -0.5345
  778MOL0     H 4988   6.325   5.135   4.733  1.9034 -0.1504 -0.1082
  778MOL0     H 4989   6.310   4.952   4.727 -1.4334 -0.6103  1.9270
  778MOL0     H 4990   6.508   5.193   4.708 -1.4467 -1.4548 -0.8669
  778MOL0     H 4991   6.672   5.328   4.604  0.1262 -0.2302  1.0776
  778MOL0     H 4992   6.842   5.274   4.615  1.0761 -0.1565 -3.7361
  778MOL0     H 4993   6.747   5.198   4.497  3.1721  1.2330 -0.8713
  778MOL0     H 4994   7.216   4.913   4.864  0.4548  0.0285  0.8222
  778MOL0     H 4995   7.468   4.929   4.808 -0.0459  0.0573 -0.0546
  778MOL0     H 4996   7.648   5.318   4.671  0.1784  1.2751  0.8097
  778MOL0     H 4997   7.607   5.298   4.842  0.4491 -3.7080  2.1830
  778MOL0     H 4998   7.850   5.325   4.833 -0.5344  0.8282 -1.0671
  778MOL0     H 4999   7.797   5.160   4.882  0.3300  3.3682  2.1940
  778MOL0     H 5000   7.887   5.244   4.614 -0.7280 -0.4728 -0.7345
  778MOL0     H 5001   7.822   5.089   4.660  0.7602  0.6643 -0.4007
  778MOL0     H 5002   8.066   5.198   4.778 -1.0723  0.8203 -0.5009
  778MOL0     H 5003   8.006   5.027   4.783 -1.3443 -0.1390 -1.1788
  778MOL0     H 5004   8.200   5.047   4.655 -1.5694 -1.1328 -0.0302
  778MOL0     H 5005   8.124   5.176   4.551  1.0962 -0.3284 -1.3575
  778MOL0     H 5006   8.000   4.905   4.565  1.6609 -0.3564 -0.2306
  778MOL0     H 5007   7.966   5.035   4.457 -2.0227 -3.9952 -1.1202
  778MOL0     H 5008   8.237   4.877   4.447  3.5236  3.5654  0.3407
  778MOL0     H 5009   8.198   5.022   4.365  0.4492  0.4753 -0.3884
  778MOL0     H 5010   8.155   4.816   4.228  0.1597 -0.2965  0.2912
  778MOL0     H 5011   8.001   4.895   4.255 -0.9409 -1.5709 -1.3608
  778MOL0     H 5012   7.394   5.336   4.671 -1.1311 -0.2665  0.2347
  778MOL0     H 5013   7.162   5.308   4.720  1.9194  1.8732 -0.2315
  778MOL0     H 5014   6.852   4.920   4.921  1.1914 -0.6569 -2.7095
  778MOL0     H 5015   6.614   4.930   5.013 -0.4755 -2.9307 -1.2099
  778MOL0     H 5016   6.870   5.903   5.432 -0.5177 -0.1252 -1.1262
  778MOL0     H 5017   7.043   6.054   5.524  0.4737 -3.7608  0.8179
  778MOL0     H 5018   7.446   6.279   5.439 -3.2210  0.0095 -0.8649
  778MOL0     H 5019   7.623   6.427   5.542 -0.9267 -0.1048 -2.3423
  778MOL0     H 5020   7.717   6.481   5.739 -0.7459 -0.2667  0.0616
  778MOL0     H 5021   7.759   6.613   5.648  1.3798 -1.0764 -0.2665
  778MOL0     H 5022   7.888   6.595   5.866 -2.1940 -3.7116  1.1612
  778MOL0     H 5023   7.754   6.608   5.958 -1.0238 -1.7061 -1.0922
  778MOL0     H 5024   7.798   6.834   5.758  0.7502  2.1317  1.1436
  778MOL0     H 5025   7.922   6.817   5.881  0.7460  0.0521 -0.6469
  778MOL0     H 5026   7.731   6.977   5.972  2.4668 -1.0578  0.7469
  778MOL0     H 5027   7.753   6.833   6.061  0.8704  0.0501 -0.3637
  778MOL0     H 5028   7.355   6.772   5.925  0.3399 -0.5946 -0.4272
  778MOL0     H 5029   7.305   6.628   5.752  2.3971 -1.3162  3.2705
  778MOL0     H 5030   7.149   6.495   5.637  0.7612  0.7106  3.5768
  779MOL0     O 5031   3.841   7.484  10.201  0.2177  0.2535  0.0643
  779MOL0     C 5032   3.864   7.534  10.308 -1.0111 -0.5839  0.5819
  779MOL0     O 5033   3.776   7.564  10.411  0.5048 -0.7679  0.5500
  779MOL0     C 5034   3.641   7.564  10.390  0.4084  0.0711 -0.1733
  779MOL0     C 5035   3.554   7.501  10.485 -0.3267 -0.4109  0.3673
  779MOL0     C 5036   3.420   7.485  10.457  1.0674  0.1498  1.4773
  779MOL0     C 5037   3.358   7.526  10.335 -0.4132 -0.4657  0.7929
  779MOL0     O 5038   3.225   7.509  10.304  0.2611  0.0516 -0.0336
  779MOL0     C 5039   3.158   7.607  10.228  0.1963 -0.3270  0.1563
  779MOL0     C 5040   3.007   7.583  10.247  0.1870  0.3650  0.2656
  779MOL0     C 5041   2.932   7.665  10.135 -0.2330 -0.0691  0.3216
  779MOL0     C 5042   2.793   7.605  10.117 -0.2608  0.2514 -0.0808
  779MOL0     C 5043   2.724   7.678  10.003  0.7434  0.5094  0.2584
  779MOL0     C 5044   2.704   7.829  10.028 -0.8110  1.0582 -0.3820
  779MOL0     C 5045   2.601   7.881   9.934 -0.3245 -0.1544 -0.7919
  779MOL0     C 5046   2.584   8.030   9.962  0.5588  0.1137  0.1483
  779MOL0     N 5047   2.521   8.101   9.848 -0.3102  0.2574 -0.6580
  779MOL0     C 5048   2.431   8.036   9.761  0.1778 -0.2135  0.3971
  779MOL0     C 5049   2.414   8.137   9.674  0.3105 -0.1275 -0.2726
  779MOL0     C 5050   2.304   8.143   9.566 -0.3540 -0.9135 -0.3690
  779MOL0     C 5051   2.258   8.283   9.544 -0.0465 -0.3699 -0.7719
  779MOL0     C 5052   2.131   8.290   9.452 -0.0094  0.2067 -0.3218
  779MOL0     C 5053   2.150   8.222   9.315  0.0336 -0.2348  0.0400
  779MOL0     O 5054   2.064   8.110   9.291  0.8620  0.7347 -1.4126
  779MOL0     C 5055   1.935   8.134   9.256  0.4232  0.6088  0.4833
  779MOL0     C 5056   1.878   8.255   9.263  0.5381 -0.5092 -0.6351
  779MOL0     C 5057   1.746   8.275   9.224  0.4863 -0.1949  0.7561
  779MOL0     C 5058   1.703   8.418   9.214  1.0090 -0.1977 -0.3225
  779MOL0     C 5059   1.664   8.163   9.180 -0.1449  0.6413 -0.5986
  779MOL0     C 5060   1.517   8.171   9.153  0.5408 -0.0760  1.3552
  779MOL0     O 5061   1.448   8.076   9.081 -0.1070  0.7203  0.0097
  779MOL0     C 5062   1.308   8.093   9.075 -1.1331 -0.3389  1.4617
  779MOL0     C 5063   1.259   8.105   8.940 -0.9132  0.3600  0.3542
  779MOL0     C 5064   1.125   8.137   8.918  0.7518  0.3915 -0.5567
  779MOL0     C 5065   1.036   8.147   9.024 -0.0660 -0.0682  0.1699
  779MOL0     O 5066   0.910   8.184   8.994 -0.0321 -0.1709  0.4631
  779MOL0     C 5067   0.817   8.202   9.103  0.3453  0.7655 -0.5473
  779MOL0     C 5068   0.695   8.262   9.043  0.6830  0.2703  0.2164
  779MOL0     C 5069   0.718   8.396   8.962 -0.6581 -0.7227  0.1128
  779MOL0     C 5070   0.598   8.452   8.883  0.1805  0.1442 -0.0800
  779MOL0     C 5071   0.611   8.426   8.733 -0.1725  0.4811 -0.3907
  779MOL0     C 5072   0.589   8.277   8.700  0.9126 -0.0196  0.7913
  779MOL0     C 5073   0.632   8.254   8.548  0.8076  0.5294 -0.7960
  779MOL0     C 5074   0.548   8.129   8.493 -0.4514 -0.2520  0.7570
  779MOL0    Cl 5075   0.396   8.189   8.432  0.1063 -0.3116 -0.4248
  779MOL0     C 5076   1.084   8.136   9.155 -0.0265 -1.0843  0.1066
  779MOL0     C 5077   1.218   8.111   9.182 -0.7390  0.8185 -0.0452
  779MOL0     O 5078   1.474   8.275   9.189  0.6387 -0.2712 -0.1739
  779MOL0     C 5079   1.730   8.040   9.171  0.2464 -0.6835  0.3152
  779MOL0     C 5080   1.858   8.018   9.217 -0.8816  0.5670  0.2819
  779MOL0     N 5081   2.488   8.254   9.709 -0.8284 -0.7013 -0.0271
  779MOL0     N 5082   2.550   8.225   9.823 -0.3747 -0.4630  0.1528
  779MOL0     C 5083   3.441   7.595  10.246 -0.1131  0.0788  0.2180
  779MOL0     C 5084   3.580   7.605  10.271  0.3072 -0.0969  0.4466
  779MOL0     C 5085   4.007   7.570  10.323 -0.7753  0.5618 -0.3414
  779MOL0     C 5086   4.105   7.495  10.248 -0.2306 -0.0729 -0.1433
  779MOL0     C 5087   4.234   7.542  10.257 -0.8531  0.4833  0.7179
  779MOL0     C 5088   4.275   7.658  10.324 -0.4128  0.1124  0.2419
  779MOL0     O 5089   4.407   7.700  10.329  0.6466  0.0412 -0.1378
  779MOL0     C 5090   4.524   7.617  10.327 -0.3195  0.2971 -0.1107
  779MOL0     C 5091   4.548   7.548  10.459  0.1520  0.1319  0.0372
  779MOL0     C 5092   4.687   7.483  10.430 -0.7173  0.2178  0.4326
  779MOL0     C 5093   4.736   7.399  10.548 -0.0738 -0.7030 -0.3638
  779MOL0     C 5094   4.849   7.317  10.513 -0.0168  0.7372 -0.2197
  779MOL0     C 5095   4.945   7.244  10.483  0.6102  0.8420  0.4404
  779MOL0     C 5096   4.176   7.733  10.393  0.1636 -0.7111  0.9536
  779MOL0     C 5097   4.046   7.690  10.398  0.3776  0.2319 -0.0720
  779MOL0     H 5098   3.604   7.467  10.575 -1.1755 -4.0283 -0.3280
  779MOL0     H 5099   3.365   7.419  10.525 -1.4552 -0.5432 -1.0556
  779MOL0     H 5100   3.181   7.710  10.257 -0.6895  0.1636 -0.8051
  779MOL0     H 5101   3.191   7.590  10.125  0.2233 -3.3514  0.5738
  779MOL0     H 5102   2.984   7.476  10.244  2.1453 -0.0788 -0.8763
  779MOL0     H 5103   2.976   7.625  10.343  0.4563 -2.6811  1.8193
  779MOL0     H 5104   2.933   7.773  10.153  4.1806  0.1282 -0.0237
  779MOL0     H 5105   2.983   7.647  10.040  0.8097  2.8468  0.2079
  779MOL0     H 5106   2.804   7.500  10.087  2.4925  1.1199 -2.5526
  779MOL0     H 5107   2.735   7.607  10.210  0.2223 -1.7621  0.3134
  779MOL0     H 5108   2.771   7.660   9.906 -1.1279  1.6694 -0.9290
  779MOL0     H 5109   2.627   7.629   9.995  1.6619 -1.3443 -0.0839
  779MOL0     H 5110   2.653   7.840  10.124  0.2749 -1.3901  0.5538
  779MOL0     H 5111   2.796   7.886  10.011 -0.7280  1.2526  0.6252
  779MOL0     H 5112   2.637   7.870   9.831  1.0748  0.3869 -0.3754
  779MOL0     H 5113   2.504   7.833   9.947  0.3998 -1.2927  0.6770
  779MOL0     H 5114   2.687   8.069   9.970  0.9241 -0.0960 -2.4781
  779MOL0     H 5115   2.537   8.043  10.060 -1.5703 -0.2879 -0.7629
  779MOL0     H 5116   2.387   7.938   9.776 -2.7097  1.3471  3.2527
  779MOL0     H 5117   2.353   8.105   9.476  1.1601 -0.2120  0.1276
  779MOL0     H 5118   2.216   8.085   9.596  1.6829 -4.4074 -0.5899
  779MOL0     H 5119   2.332   8.354   9.505  0.1212 -0.3780 -0.4783
  779MOL0     H 5120   2.227   8.327   9.639 -1.3657 -1.4754 -0.6717
  779MOL0     H 5121   2.096   8.393   9.452  0.0529  0.2619  1.3968
  779MOL0     H 5122   2.050   8.233   9.500 -0.0812  0.6498  0.0850
  779MOL0     H 5123   2.254   8.190   9.304 -0.2904 -1.0639 -0.6995
  779MOL0     H 5124   2.144   8.302   9.240  0.3860 -3.0907 -3.3324
  779MOL0     H 5125   1.936   8.338   9.302  1.0058 -1.7270  1.3569
  779MOL0     H 5126   1.789   8.483   9.196  0.2999  2.1674  3.6284
  779MOL0     H 5127   1.626   8.444   9.141 -1.1128 -0.4211  1.7210
  779MOL0     H 5128   1.678   8.447   9.316  2.7911 -0.6176  0.2710
  779MOL0     H 5129   1.324   8.095   8.854  2.1710 -0.8208  2.6097
  779MOL0     H 5130   1.093   8.154   8.816  1.3832 -2.5518 -1.3413
  779MOL0     H 5131   0.794   8.105   9.147 -0.7332  0.5582 -1.5239
  779MOL0     H 5132   0.861   8.272   9.175 -0.8883 -0.8147  1.8792
  779MOL0     H 5133   0.648   8.198   8.968  1.0469  2.4740 -2.0189
  779MOL0     H 5134   0.625   8.275   9.126 -3.6748  0.7752 -3.1992
  779MOL0     H 5135   0.803   8.375   8.896  0.7069  2.5250  0.6647
  779MOL0     H 5136   0.756   8.473   9.031  1.7214  1.0443 -2.9160
  779MOL0     H 5137   0.506   8.405   8.918 -1.2746  2.6722 -0.2586
  779MOL0     H 5138   0.584   8.558   8.903  0.5670 -0.4142  3.8628
  779MOL0     H 5139   0.709   8.465   8.704 -0.6762  0.4253 -2.2977
  779MOL0     H 5140   0.529   8.474   8.680  0.7586  3.0120  0.3177
  779MOL0     H 5141   0.659   8.218   8.760  1.3235  0.1501  0.4813
  779MOL0     H 5142   0.481   8.261   8.715 -0.2936  3.9357 -1.9733
  779MOL0     H 5143   0.740   8.238   8.538  0.6886 -1.5973  0.8059
  779MOL0     H 5144   0.620   8.342   8.484 -0.4707 -0.3926 -1.8684
  779MOL0     H 5145   0.525   8.051   8.567  1.0189  1.5482  3.2655
  779MOL0     H 5146   0.605   8.089   8.409  2.3085  0.7487  2.0204
  779MOL0     H 5147   1.021   8.158   9.241  0.0985  1.5428 -0.3816
  779MOL0     H 5148   1.261   8.107   9.282  0.5491 -1.2971 -0.6162
  779MOL0     H 5149   1.676   7.962   9.118 -1.8751 -1.6102  3.5505
  779MOL0     H 5150   1.891   7.916   9.201 -2.9792  0.1714 -2.0375
  779MOL0     H 5151   3.409   7.631  10.149 -1.8090  1.0386  1.0826
  779MOL0     H 5152   3.641   7.644  10.190  0.4952 -0.2975  0.4913
  779MOL0     H 5153   4.063   7.419  10.183 -3.5281  1.1309  0.4025
  779MOL0     H 5154   4.309   7.481  10.207 -1.2370  0.3241  0.3260
  779MOL0     H 5155   4.520   7.552  10.239  1.3215 -0.3197  0.2414
  779MOL0     H 5156   4.599   7.691  10.298  1.1285  0.1833  2.9954
  779MOL0     H 5157   4.484   7.463  10.482  0.3611  0.2156  1.0026
  779MOL0     H 5158   4.546   7.619  10.543  2.7511 -0.3158  0.5787
  779MOL0     H 5159   4.756   7.569  10.428 -0.7136  0.2074 -0.0551
  779MOL0     H 5160   4.694   7.425  10.337  0.8656  0.6864  0.2149
  779MOL0     H 5161   4.655   7.332  10.580  1.6974 -2.2338  1.1978
  779MOL0     H 5162   4.766   7.463  10.631  0.6060 -0.6913 -0.6057
  779MOL0     H 5163   5.027   7.180  10.459 -0.3219 -0.0443 -0.4866
  779MOL0     H 5164   4.211   7.823  10.443 -0.0964 -0.9170  1.5143
  779MOL0     H 5165   3.973   7.749  10.451  1.2134  1.1475  0.0931
  780MOL0     O 5166   6.301   4.341   1.874 -0.4316  1.0732  0.0022
  780MOL0     C 5167   6.276   4.447   1.816  0.2900 -0.4730  0.0598
  780MOL0     O 5168   6.373   4.539   1.787 -0.4038 -0.3839  0.4534
  780MOL0     C 5169   6.503   4.496   1.804  0.5164 -0.2116  0.0020
  780MOL0     C 5170   6.577   4.548   1.906 -1.1629  0.0031 -0.1418
  780MOL0     C 5171   6.714   4.520   1.918 -0.1549  0.7859  0.7872
  780MOL0     C 5172   6.771   4.429   1.827  0.0694 -0.6744 -0.1783
  780MOL0     O 5173   6.894   4.372   1.836 -0.3814 -0.4733 -0.6366
  780MOL0     C 5174   6.954   4.354   1.965 -0.3079  0.1676 -0.2495
  780MOL0     C 5175   7.075   4.273   1.925  0.0579 -1.0644  0.0183
  780MOL0     C 5176   7.043   4.121   1.938 -0.4731 -0.7004 -1.2220
  780MOL0     C 5177   6.921   4.066   1.854 -0.5901 -0.4170  0.1183
  780MOL0     C 5178   6.781   4.059   1.915 -0.1127  0.1039 -0.2685
  780MOL0     C 5179   6.691   3.999   1.804 -0.0739  0.4124  0.1414
  780MOL0     C 5180   6.545   3.957   1.861  0.0803 -0.4138  0.4688
  780MOL0     C 5181   6.474   3.878   1.747 -0.0921  0.1583  0.5503
  780MOL0     N 5182   6.445   3.960   1.631  0.2671  0.2685 -0.1231
  780MOL0     C 5183   6.355   4.061   1.634 -0.6892  0.5377 -0.1405
  780MOL0     C 5184   6.319   4.089   1.514  0.1793 -0.0365  0.2052
  780MOL0     C 5185   6.204   4.181   1.485  0.1585  0.4635 -0.4329
  780MOL0     C 5186   6.243   4.327   1.461  0.8682  0.0206  0.8141
  780MOL0     C 5187   6.107   4.412   1.435 -0.0298 -0.0829 -0.1651
  780MOL0     C 5188   6.022   4.369   1.313 -0.0741 -0.0880 -0.6890
  780MOL0     O 5189   5.915   4.465   1.284 -0.0309  0.7391 -0.6487
  780MOL0     C 5190   5.789   4.439   1.347 -0.0298 -0.8368  0.2625
  780MOL0     C 5191   5.770   4.344   1.441 -1.0761  0.3068  0.0430
  780MOL0     C 5192   5.640   4.324   1.500 -0.4666 -0.1711  0.4096
  780MOL0     C 5193   5.624   4.200   1.584 -0.2380 -0.0545 -0.2592
  780MOL0     C 5194   5.537   4.415   1.469  0.9605  0.3309  0.5078
  780MOL0     C 5195   5.401   4.398   1.531 -0.2683  0.0359 -0.0930
  780MOL0     O 5196   5.295   4.464   1.473  0.8489  0.1112 -0.5177
  780MOL0     C 5197   5.173   4.443   1.525  0.1485  0.1235  0.2235
  780MOL0     C 5198   5.111   4.552   1.587 -0.6963  1.1985 -0.1090
  780MOL0     C 5199   4.979   4.540   1.645 -0.0348 -0.7117  0.3524
  780MOL0     C 5200   4.907   4.419   1.632  0.4994  0.1905  0.7049
  780MOL0     O 5201   4.786   4.409   1.698 -0.4319 -0.1778 -0.2633
  780MOL0     C 5202   4.700   4.310   1.637  0.1962  0.5721  0.0825
  780MOL0     C 5203   4.566   4.319   1.702  0.4897  0.8774 -1.4629
  780MOL0     C 5204   4.505   4.458   1.691 -0.5984  0.0147 -1.3102
  780MOL0     C 5205   4.387   4.484   1.790 -0.8381  0.3162  0.8514
  780MOL0     C 5206   4.262   4.411   1.743 -0.1501  0.3818  0.1354
  780MOL0     C 5207   4.141   4.468   1.812 -0.4754 -0.2617 -0.0249
  780MOL0     C 5208   4.013   4.409   1.758 -0.5861  0.4185 -0.4339
  780MOL0     C 5209   3.902   4.510   1.789  0.1723  0.3559  0.0555
  780MOL0    Cl 5210   3.750   4.445   1.741 -0.0083 -0.1966  0.4469
  780MOL0     C 5211   4.976   4.309   1.591  0.1808 -0.7275  0.4765
  780MOL0     C 5212   5.106   4.318   1.529  0.7604 -0.2839  0.8688
  780MOL0     O 5213   5.397   4.341   1.642 -0.0802  0.1335 -0.5298
  780MOL0     C 5214   5.556   4.513   1.371 -0.5350  0.2448 -0.1940
  780MOL0     C 5215   5.681   4.523   1.314 -0.4341 -0.0059  0.0672
  780MOL0     N 5216   6.395   4.009   1.431 -0.7111 -0.0453  0.2405
  780MOL0     N 5217   6.465   3.927   1.505 -0.4462 -0.3062  0.4584
  780MOL0     C 5218   6.693   4.379   1.724  0.6051  0.5824 -0.2804
  780MOL0     C 5219   6.564   4.414   1.709 -0.6883  0.5545 -0.0735
  780MOL0     C 5220   6.135   4.495   1.792  0.3492  0.5839 -0.0404
  780MOL0     C 5221   6.102   4.606   1.716  0.0827  0.7443  0.1253
  780MOL0     C 5222   5.970   4.646   1.697  0.3349 -0.0330  0.4731
  780MOL0     C 5223   5.866   4.577   1.756  0.2271 -0.0272 -0.2276
  780MOL0     O 5224   5.736   4.632   1.744 -0.5249  0.4725  0.1364
  780MOL0     C 5225   5.631   4.559   1.812  0.7614  0.3429 -0.5793
  780MOL0     C 5226   5.500   4.635   1.821  0.1819 -0.3195 -0.5173
  780MOL0     C 5227   5.499   4.761   1.924  0.2534 -0.3366  0.1849
  780MOL0     C 5228   5.358   4.831   1.938  0.1178 -0.1241  0.5640
  780MOL0     C 5229   5.353   4.910   2.060  1.2006 -0.2066 -0.0685
  780MOL0     C 5230   5.364   4.963   2.166 -1.1162  1.2038 -0.1422
  780MOL0     C 5231   5.894   4.461   1.817 -0.1583 -0.6046 -0.3994
  780MOL0     C 5232   6.024   4.420   1.836  0.5999  0.5816 -0.2695
  780MOL0     H 5233   6.532   4.617   1.978 -2.3419 -0.9785  0.0948
  780MOL0     H 5234   6.769   4.556   2.004 -0.6207  2.5135  0.4000
  780MOL0     H 5235   6.994   4.445   2.011  0.4283 -1.8638  3.5628
  780MOL0     H 5236   6.896   4.312   2.048  1.3343  1.0383  1.4118
  780MOL0     H 5237   7.120   4.287   1.826  1.9464 -1.9318  0.7151
  780MOL0     H 5238   7.159   4.308   1.985 -0.1926  0.3011 -0.3907
  780MOL0     H 5239   7.140   4.085   1.905 -0.4508 -2.1795  0.2826
  780MOL0     H 5240   7.034   4.093   2.044 -2.4308  3.3132 -0.1141
  780MOL0     H 5241   6.926   4.128   1.764  2.4026 -2.1856 -1.0834
  780MOL0     H 5242   6.950   3.967   1.819  0.7566 -0.1642  0.4505
  780MOL0     H 5243   6.774   3.997   2.005 -2.7059  0.7007  0.0239
  780MOL0     H 5244   6.761   4.162   1.947  0.6081  0.1729 -0.0267
  780MOL0     H 5245   6.674   4.069   1.722 -2.2999  0.2271  0.3657
  780MOL0     H 5246   6.745   3.909   1.774  0.2888 -0.0399  2.0243
  780MOL0     H 5247   6.562   3.889   1.945 -2.5678 -0.6497  0.9230
  780MOL0     H 5248   6.475   4.039   1.882 -0.9352 -1.0235 -0.4050
  780MOL0     H 5249   6.379   3.845   1.792 -1.5486  1.3100 -1.5175
  780MOL0     H 5250   6.531   3.794   1.707  1.6552  0.6147  1.9428
  780MOL0     H 5251   6.317   4.103   1.726 -0.1857 -0.4243  0.5235
  780MOL0     H 5252   6.136   4.139   1.411 -0.3643  2.5160 -1.1702
  780MOL0     H 5253   6.139   4.180   1.573 -1.9254 -1.0746 -1.9152
  780MOL0     H 5254   6.301   4.332   1.368  0.3234  0.9961  0.5027
  780MOL0     H 5255   6.290   4.371   1.549 -2.9571 -1.7124  4.0202
  780MOL0     H 5256   6.129   4.518   1.426 -3.2165  1.0399  2.8556
  780MOL0     H 5257   6.038   4.417   1.519 -0.6480  2.1895 -0.7509
  780MOL0     H 5258   5.987   4.266   1.319 -1.3692  0.4209  2.5962
  780MOL0     H 5259   6.084   4.385   1.224  1.6864 -0.2821  0.4537
  780MOL0     H 5260   5.851   4.276   1.465 -0.0104  1.5038 -0.1246
  780MOL0     H 5261   5.636   4.229   1.689  0.7794  1.3975 -0.7300
  780MOL0     H 5262   5.528   4.149   1.592  0.7474 -1.7261  2.5377
  780MOL0     H 5263   5.699   4.126   1.555 -1.7572 -2.5040  1.6557
  780MOL0     H 5264   5.173   4.641   1.583  5.2489 -2.3356  0.6989
  780MOL0     H 5265   4.930   4.618   1.701  2.5800 -1.1284  3.5967
  780MOL0     H 5266   4.682   4.336   1.532 -0.5864  1.0141  0.3113
  780MOL0     H 5267   4.740   4.209   1.649  0.9226  0.5547 -2.1168
  780MOL0     H 5268   4.510   4.237   1.658  0.1351  0.5745 -0.4768
  780MOL0     H 5269   4.569   4.296   1.809 -0.6859  0.7339 -1.4567
  780MOL0     H 5270   4.463   4.479   1.592 -2.9378  3.4160  0.2307
  780MOL0     H 5271   4.584   4.531   1.714  0.2051 -1.6601  1.8052
  780MOL0     H 5272   4.420   4.456   1.890  4.1760  1.0468 -0.3505
  780MOL0     H 5273   4.370   4.592   1.791 -0.1339  0.5769 -2.6496
  780MOL0     H 5274   4.280   4.304   1.758  0.7432 -0.1389 -3.5906
  780MOL0     H 5275   4.247   4.418   1.635  2.8688  1.3071 -0.3256
  780MOL0     H 5276   4.147   4.454   1.921 -4.2304  2.2234  0.6892
  780MOL0     H 5277   4.142   4.576   1.796 -2.2328 -0.2390 -0.1884
  780MOL0     H 5278   3.997   4.319   1.819  1.0352  0.8152  0.6269
  780MOL0     H 5279   4.023   4.386   1.651  0.3364  1.9035 -0.6947
  780MOL0     H 5280   3.931   4.608   1.750  3.3823  0.0601  1.3519
  780MOL0     H 5281   3.887   4.518   1.897  0.3488 -1.1458  0.2195
  780MOL0     H 5282   4.929   4.212   1.594 -0.2206 -0.5214  0.9577
  780MOL0     H 5283   5.157   4.234   1.483 -1.1507 -0.6552 -0.7285
  780MOL0     H 5284   5.476   4.585   1.356 -0.5704  0.0904 -0.7972
  780MOL0     H 5285   5.682   4.584   1.225 -2.5211  0.8269  0.5542
  780MOL0     H 5286   6.739   4.306   1.658  1.2119 -0.0661  0.8318
  780MOL0     H 5287   6.508   4.371   1.626  0.1475  0.3470 -0.5360
  780MOL0     H 5288   6.181   4.672   1.682  0.0960  0.0453 -1.3051
  780MOL0     H 5289   5.951   4.733   1.635  1.0984 -0.5327 -0.4933
  780MOL0     H 5290   5.610   4.471   1.750  0.6380  0.0042 -0.0594
  780MOL0     H 5291   5.659   4.535   1.915  3.6245  2.5694 -0.7074
  780MOL0     H 5292   5.421   4.568   1.855  0.3683  0.5467  1.8014
  780MOL0     H 5293   5.466   4.678   1.726  0.1312  1.2171  0.1667
  780MOL0     H 5294   5.567   4.841   1.895 -0.0018  0.8390  2.5818
  780MOL0     H 5295   5.529   4.725   2.022  2.2004 -1.6645 -0.8294
  780MOL0     H 5296   5.288   4.747   1.934  3.2542 -2.9391  1.0450
  780MOL0     H 5297   5.337   4.893   1.851  0.2249  0.5007  0.9736
  780MOL0     H 5298   5.374   5.013   2.260 -1.0295  1.1007 -0.0965
  780MOL0     H 5299   5.818   4.392   1.853 -0.3919 -0.7149 -1.0805
  780MOL0     H 5300   6.047   4.331   1.894 -1.1117 -0.9551 -1.8191
  781MOL0     O 5301   9.742   9.374   8.142  0.1562  0.0103  1.0105
  781MOL0     C 5302   9.647   9.375   8.057 -0.7827  0.2993 -0.4019
  781MOL0     O 5303   9.659   9.340   7.933 -0.4843  0.2631  0.6359
  781MOL0     C 5304   9.765   9.259   7.893  0.0163  0.4165  0.1577
  781MOL0     C 5305   9.838   9.170   7.979 -0.3095  0.6047  0.8756
  781MOL0     C 5306   9.950   9.100   7.932  0.1715  0.5484  0.3303
  781MOL0     C 5307   9.994   9.105   7.797  0.2201  0.0428 -0.1844
  781MOL0     O 5308  10.099   9.038   7.739  0.1180 -0.3146 -0.7077
  781MOL0     C 5309  10.185   8.953   7.823  0.4061 -0.5638 -0.0427
  781MOL0     C 5310  10.277   9.029   7.915  0.3798 -0.1178 -0.3337
  781MOL0     C 5311  10.379   9.109   7.840  0.8233 -0.9103 -0.1947
  781MOL0     C 5312  10.512   9.041   7.828 -0.7283 -0.8859  0.1624
  781MOL0     C 5313  10.521   8.905   7.746  0.2616  0.2015  0.5398
  781MOL0     C 5314  10.475   8.916   7.605 -0.2441  0.0591 -0.0357
  781MOL0     C 5315  10.458   8.790   7.528 -0.2192  0.1061  0.7726
  781MOL0     C 5316  10.379   8.805   7.389 -0.6961  0.3331  0.2368
  781MOL0     N 5317  10.437   8.890   7.289 -0.3036 -0.9273  0.8826
  781MOL0     C 5318  10.530   8.860   7.194  0.6892 -0.5059 -0.8069
  781MOL0     C 5319  10.544   8.974   7.118 -0.2716 -0.0060 -0.5274
  781MOL0     C 5320  10.626   8.981   6.993  0.1968 -0.0251 -0.4955
  781MOL0     C 5321  10.584   8.857   6.917  0.6559  0.4397 -0.5275
  781MOL0     C 5322  10.440   8.869   6.876  0.7471  0.0142  0.6906
  781MOL0     C 5323  10.415   8.960   6.748  0.6229  0.0322  0.3458
  781MOL0     O 5324  10.271   8.974   6.719  0.4533 -0.2250 -0.5884
  781MOL0     C 5325  10.184   9.066   6.785 -0.1581 -0.4834 -0.3305
  781MOL0     C 5326  10.229   9.151   6.882 -0.1469  0.0533 -1.0312
  781MOL0     C 5327  10.150   9.244   6.955 -0.0014 -0.0112 -0.1320
  781MOL0     C 5328  10.225   9.321   7.065 -0.4092 -0.4658 -0.1410
  781MOL0     C 5329  10.018   9.268   6.920 -0.7247 -0.0291  0.0730
  781MOL0     C 5330   9.923   9.350   7.013  0.1838 -0.0042 -0.9501
  781MOL0     O 5331   9.801   9.376   6.953 -0.8551 -0.2486 -0.1280
  781MOL0     C 5332   9.708   9.407   7.048  0.9267  0.4295  0.1835
  781MOL0     C 5333   9.603   9.317   7.087  0.3539 -0.6851  0.1365
  781MOL0     C 5334   9.517   9.352   7.193 -0.1604  0.0507 -0.1435
  781MOL0     C 5335   9.539   9.462   7.270 -0.2063 -0.5762  0.8245
  781MOL0     O 5336   9.467   9.492   7.385  0.0255  0.0858 -0.2868
  781MOL0     C 5337   9.421   9.386   7.470  0.8197 -0.5763  0.1366
  781MOL0     C 5338   9.394   9.432   7.615 -0.0540 -0.3180 -0.6616
  781MOL0     C 5339   9.293   9.543   7.643  1.0990  0.5807 -0.4785
  781MOL0     C 5340   9.148   9.508   7.642 -0.6988 -0.2088 -0.0755
  781MOL0     C 5341   9.044   9.625   7.669  0.3665 -0.4332  0.8820
  781MOL0     C 5342   9.002   9.633   7.821 -0.1973 -0.6449  0.9194
  781MOL0     C 5343   8.909   9.752   7.846  0.2505  0.0333 -0.4998
  781MOL0     C 5344   8.887   9.802   7.990  0.5315 -0.4005  0.2669
  781MOL0    Cl 5345   8.787   9.673   8.073 -0.1044 -0.0149  0.8105
  781MOL0     C 5346   9.639   9.555   7.245 -0.0349  0.1659 -0.0509
  781MOL0     C 5347   9.719   9.530   7.124  0.7657  0.0596 -0.5176
  781MOL0     O 5348   9.950   9.359   7.136 -0.0044  0.2134 -0.6460
  781MOL0     C 5349   9.972   9.193   6.810 -0.3064  0.5537 -0.7201
  781MOL0     C 5350  10.058   9.099   6.743 -0.6098 -0.0612  0.5796
  781MOL0     N 5351  10.465   9.070   7.172 -0.4363  0.0726  0.5594
  781MOL0     N 5352  10.409   9.024   7.272  0.2183  0.4285 -0.0031
  781MOL0     C 5353   9.927   9.195   7.717 -0.4699 -0.1488 -0.2380
  781MOL0     C 5354   9.807   9.255   7.755 -0.0845 -0.2213 -0.1971
  781MOL0     C 5355   9.509   9.428   8.092  0.7357 -0.7304  0.4719
  781MOL0     C 5356   9.393   9.393   8.013 -1.0599  0.3148  0.1045
  781MOL0     C 5357   9.272   9.445   8.051 -0.0028 -0.4596 -0.0521
  781MOL0     C 5358   9.263   9.540   8.154  0.4539  0.8449  0.0083
  781MOL0     O 5359   9.138   9.588   8.198  0.4349  0.5446 -0.5285
  781MOL0     C 5360   9.115   9.673   8.310  0.1851 -0.0199 -0.1255
  781MOL0     C 5361   8.972   9.699   8.334 -0.1810  0.1961  0.4274
  781MOL0     C 5362   8.962   9.742   8.481 -0.7159 -0.4204  0.3245
  781MOL0     C 5363   8.829   9.800   8.513  0.7185  0.3250 -0.0063
  781MOL0     C 5364   8.715   9.732   8.438  0.1178  0.2713  0.8493
  781MOL0     C 5365   8.619   9.692   8.369 -0.3504  0.3389 -0.3886
  781MOL0     C 5366   9.378   9.582   8.225  0.2767 -0.1671  0.4358
  781MOL0     C 5367   9.497   9.528   8.185 -0.3683 -0.6384  0.1674
  781MOL0     H 5368   9.819   9.151   8.085 -0.0583 -0.5298  0.7308
  781MOL0     H 5369  10.010   9.035   7.995  1.5328 -2.6951 -3.8532
  781MOL0     H 5370  10.126   8.871   7.866  1.1554 -0.5831  0.9953
  781MOL0     H 5371  10.257   8.891   7.770 -1.2672 -2.0387 -0.6871
  781MOL0     H 5372  10.218   9.092   7.981 -1.4510  0.5334 -2.4915
  781MOL0     H 5373  10.324   8.961   7.987  0.3753  1.1104  0.8602
  781MOL0     H 5374  10.342   9.131   7.740  1.5604 -1.8323 -0.6857
  781MOL0     H 5375  10.395   9.207   7.885 -0.7263  0.1911 -1.9026
  781MOL0     H 5376  10.580   9.110   7.776 -0.6438 -1.4888 -0.5574
  781MOL0     H 5377  10.551   9.017   7.927 -0.1059 -3.2808 -0.5921
  781MOL0     H 5378  10.617   8.855   7.762 -0.1959  0.1133  3.7584
  781MOL0     H 5379  10.453   8.830   7.788  1.0773 -2.5399 -2.5998
  781MOL0     H 5380  10.379   8.965   7.592  0.0697  0.4590 -0.9039
  781MOL0     H 5381  10.545   8.984   7.557  2.6666 -1.1100  2.2105
  781MOL0     H 5382  10.555   8.742   7.509  0.5738  1.1596  2.0368
  781MOL0     H 5383  10.405   8.713   7.584 -1.4249 -1.1079 -1.8619
  781MOL0     H 5384  10.283   8.845   7.426 -1.7281 -2.5277  0.8779
  781MOL0     H 5385  10.352   8.709   7.345 -1.7148  0.9478 -0.5197
  781MOL0     H 5386  10.578   8.763   7.181 -0.8029 -1.1076 -2.3455
  781MOL0     H 5387  10.613   9.076   6.941 -1.1068 -0.0075 -0.1656
  781MOL0     H 5388  10.733   8.976   7.012  0.1614 -0.2263 -0.3504
  781MOL0     H 5389  10.600   8.769   6.979  2.8004 -0.7497 -2.6169
  781MOL0     H 5390  10.653   8.829   6.837  0.8877  0.2231 -0.2543
  781MOL0     H 5391  10.373   8.892   6.959  3.0412 -0.2632  2.7409
  781MOL0     H 5392  10.424   8.765   6.847  0.5048  0.8737 -2.7331
  781MOL0     H 5393  10.469   8.927   6.659  2.9339  0.0576  1.6520
  781MOL0     H 5394  10.446   9.064   6.761 -2.2421  0.7717  1.9986
  781MOL0     H 5395  10.332   9.137   6.915 -0.4643 -1.7776 -0.7171
  781MOL0     H 5396  10.220   9.428   7.042  0.3423 -0.4119 -0.0820
  781MOL0     H 5397  10.188   9.292   7.163  0.0894  0.5284  0.3610
  781MOL0     H 5398  10.329   9.287   7.071 -0.3345 -0.0188  1.5394
  781MOL0     H 5399   9.589   9.222   7.036 -0.9337 -0.5856  0.2842
  781MOL0     H 5400   9.429   9.291   7.216  1.4931 -2.7456 -0.7518
  781MOL0     H 5401   9.326   9.346   7.433  0.9470 -1.1241  0.4093
  781MOL0     H 5402   9.499   9.309   7.471  2.0518  0.6294  1.1592
  781MOL0     H 5403   9.340   9.353   7.668 -0.8047  0.6670  0.0878
  781MOL0     H 5404   9.487   9.453   7.669 -0.3232  1.1274 -0.7131
  781MOL0     H 5405   9.298   9.617   7.562 -0.6436  1.6917  0.3561
  781MOL0     H 5406   9.322   9.595   7.734 -2.0690  0.6320  0.6409
  781MOL0     H 5407   9.126   9.478   7.539  0.8991  1.5068 -0.9700
  781MOL0     H 5408   9.124   9.424   7.709 -1.7522  0.4627  0.4247
  781MOL0     H 5409   8.950   9.611   7.615  1.9603 -0.5157 -2.0099
  781MOL0     H 5410   9.090   9.714   7.626  0.9180 -0.1935  1.9205
  781MOL0     H 5411   8.958   9.537   7.850 -1.4495 -0.2532  0.3662
  781MOL0     H 5412   9.095   9.637   7.879  0.7449 -2.1255 -0.3746
  781MOL0     H 5413   8.811   9.735   7.799 -0.4334 -3.4439  1.8629
  781MOL0     H 5414   8.952   9.840   7.797 -0.1221  0.2299 -0.4813
  781MOL0     H 5415   8.840   9.899   8.003 -1.6193 -1.0564 -1.9219
  781MOL0     H 5416   8.983   9.803   8.042  0.8886 -0.8786 -0.3582
  781MOL0     H 5417   9.646   9.635   7.318 -1.7821 -0.9847  1.4705
  781MOL0     H 5418   9.795   9.598   7.087  1.2623 -0.0640  0.2701
  781MOL0     H 5419   9.873   9.207   6.768  0.6137  3.5701 -2.1861
  781MOL0     H 5420  10.029   9.040   6.656  0.0019  1.8818 -1.0045
  781MOL0     H 5421   9.963   9.223   7.619  1.6526  1.3631  0.8935
  781MOL0     H 5422   9.754   9.318   7.684 -0.0574 -1.4768 -1.3698
  781MOL0     H 5423   9.395   9.317   7.936 -1.0747 -1.1106  1.4386
  781MOL0     H 5424   9.183   9.421   7.994 -0.5067  1.8458 -0.3473
  781MOL0     H 5425   9.146   9.620   8.401 -0.0941  2.2639  1.3934
  781MOL0     H 5426   9.159   9.773   8.305 -0.6662  0.2997 -2.0911
  781MOL0     H 5427   8.916   9.606   8.316  0.8810  0.0230 -2.6192
  781MOL0     H 5428   8.937   9.782   8.272  2.0265  1.2993  0.5588
  781MOL0     H 5429   9.043   9.807   8.516  0.0599 -1.0791 -0.1999
  781MOL0     H 5430   8.981   9.656   8.546 -0.3055  0.1944  1.0327
  781MOL0     H 5431   8.832   9.905   8.482  0.6543  0.3053 -0.0778
  781MOL0     H 5432   8.805   9.796   8.619 -1.0659 -0.9904 -0.4066
  781MOL0     H 5433   8.531   9.669   8.312 -0.3582  0.8557 -0.5882
  781MOL0     H 5434   9.375   9.666   8.293 -1.1332  1.7604 -1.8332
  781MOL0     H 5435   9.580   9.580   8.231  0.7296 -0.2001 -2.1486
  782MOL0     O 5436   9.112   0.281   6.909  0.5359  0.4016 -0.5315
  782MOL0     C 5437   9.143   0.252   6.794 -1.1937 -0.3279  0.2770
  782MOL0     O 5438   9.078   0.279   6.683  0.7271  0.2298 -0.7652
  782MOL0     C 5439   8.957   0.337   6.703  0.0468  0.2382 -0.0915
  782MOL0     C 5440   8.848   0.279   6.777  0.0942  0.1641  1.0869
  782MOL0     C 5441   8.726   0.345   6.783 -0.2575  0.0996 -0.1272
  782MOL0     C 5442   8.719   0.464   6.719  0.0174  0.0539 -0.0619
  782MOL0     O 5443   8.595   0.511   6.724 -0.1183 -0.4933 -0.6902
  782MOL0     C 5444   8.558   0.608   6.623  0.3969 -0.6855 -0.2141
  782MOL0     C 5445   8.422   0.665   6.662  0.1838 -0.7569 -0.4812
  782MOL0     C 5446   8.311   0.560   6.623 -0.8716 -0.2031 -0.5214
  782MOL0     C 5447   8.164   0.622   6.629 -0.1920 -0.4051 -0.0316
  782MOL0     C 5448   8.071   0.566   6.522 -0.1455 -0.6819  0.3498
  782MOL0     C 5449   7.934   0.634   6.524 -0.6722  0.1174 -0.5389
  782MOL0     C 5450   7.843   0.558   6.423  0.4169  0.3688 -0.0044
  782MOL0     C 5451   7.700   0.608   6.451 -0.0690  0.4226  0.9390
  782MOL0     N 5452   7.682   0.760   6.430  0.3810  0.3348  0.5195
  782MOL0     C 5453   7.754   0.827   6.333  0.5763 -0.0298 -0.6434
  782MOL0     C 5454   7.697   0.944   6.329  0.5774  0.4636 -0.4540
  782MOL0     C 5455   7.749   1.048   6.227  0.1719 -0.5704 -0.7003
  782MOL0     C 5456   7.728   1.008   6.084 -0.4018  0.3009 -0.3914
  782MOL0     C 5457   7.571   0.997   6.066  0.9438 -0.5091  0.6602
  782MOL0     C 5458   7.524   1.002   5.918  0.8948 -0.4933 -0.3254
  782MOL0     O 5459   7.492   1.133   5.877  0.1065  0.2421  0.4466
  782MOL0     C 5460   7.357   1.170   5.896 -0.6465  0.3294  0.3913
  782MOL0     C 5461   7.319   1.286   5.833  0.2801  0.3177  0.3009
  782MOL0     C 5462   7.198   1.348   5.851 -0.3568 -0.2275  0.1852
  782MOL0     C 5463   7.154   1.456   5.760  0.2697 -0.3672 -0.8234
  782MOL0     C 5464   7.110   1.290   5.946  0.2223 -0.1734  0.3636
  782MOL0     C 5465   6.982   1.351   5.982  0.4082  0.4249 -0.1539
  782MOL0     O 5466   6.968   1.484   5.994 -0.0730 -0.1229  0.4695
  782MOL0     C 5467   6.847   1.529   6.045 -0.1497 -0.1999  0.3206
  782MOL0     C 5468   6.755   1.584   5.951  0.1151 -0.4822 -0.5735
  782MOL0     C 5469   6.630   1.611   5.995  0.8809 -0.0714 -0.0767
  782MOL0     C 5470   6.590   1.597   6.123  0.9439 -0.6636 -0.6642
  782MOL0     O 5471   6.471   1.646   6.160  0.1604 -0.5935  0.0475
  782MOL0     C 5472   6.403   1.575   6.259  0.2901 -0.4365 -0.2171
  782MOL0     C 5473   6.251   1.587   6.235 -0.4439 -0.5936 -0.2660
  782MOL0     C 5474   6.205   1.526   6.098 -1.0243  0.2944 -1.1290
  782MOL0     C 5475   6.064   1.557   6.059  0.2703 -0.3460 -0.6802
  782MOL0     C 5476   6.025   1.472   5.933 -0.4699  0.0473 -0.2325
  782MOL0     C 5477   5.880   1.485   5.892  0.0005 -0.2836 -0.2295
  782MOL0     C 5478   5.776   1.424   5.995  0.7321  0.7164  0.7514
  782MOL0     C 5479   5.655   1.521   6.014  0.3186 -0.1845  0.4105
  782MOL0    Cl 5480   5.533   1.439   6.117  0.2715  0.0892 -0.2294
  782MOL0     C 5481   6.681   1.546   6.219 -0.2120 -0.3902 -0.3300
  782MOL0     C 5482   6.809   1.507   6.183  0.0854  0.6794  0.3553
  782MOL0     O 5483   6.890   1.277   6.006  0.1338 -0.6141  0.0146
  782MOL0     C 5484   7.144   1.175   6.011  0.4077  0.3768 -1.3042
  782MOL0     C 5485   7.270   1.118   5.996  0.4395  0.0973  0.1809
  782MOL0     N 5486   7.588   0.948   6.415 -0.2072 -0.3636  0.0469
  782MOL0     N 5487   7.584   0.837   6.477 -0.0799  0.8237  0.0595
  782MOL0     C 5488   8.826   0.518   6.645  0.8234  0.0703  0.2980
  782MOL0     C 5489   8.943   0.446   6.633 -1.2402 -0.4060  0.1853
  782MOL0     C 5490   9.278   0.191   6.774  0.3522 -1.0022  0.4773
  782MOL0     C 5491   9.344   0.111   6.871 -0.2468 -0.4577 -0.8847
  782MOL0     C 5492   9.471   0.059   6.854  1.3223 -0.2303  0.4930
  782MOL0     C 5493   9.538   0.076   6.733 -0.5761  1.0766  0.1683
  782MOL0     O 5494   9.662   0.013   6.704  0.4371 -0.1662  0.4115
  782MOL0     C 5495   9.692  -0.109   6.765  0.0387  0.3423  0.8651
  782MOL0     C 5496   9.831  -0.158   6.698  0.7521  0.3119  0.3750
  782MOL0     C 5497   9.950  -0.061   6.712 -0.4316 -0.6224 -0.0469
  782MOL0     C 5498  10.070  -0.091   6.618  0.4129 -0.1062 -0.7107
  782MOL0     C 5499  10.197  -0.036   6.677  0.2194  1.5305  0.5136
  782MOL0     C 5500  10.304   0.012   6.711  0.7944  0.5862  0.1498
  782MOL0     C 5501   9.477   0.157   6.632  0.2879 -0.4300  0.5636
  782MOL0     C 5502   9.352   0.217   6.660  1.3688  1.0921  0.0699
  782MOL0     H 5503   8.865   0.188   6.833  0.3425 -0.9829 -0.7674
  782MOL0     H 5504   8.644   0.304   6.842  0.1814 -0.9741 -0.2410
  782MOL0     H 5505   8.629   0.690   6.608 -1.3416  0.8370 -0.4789
  782MOL0     H 5506   8.562   0.576   6.518 -1.8558 -0.9909 -0.2569
  782MOL0     H 5507   8.433   0.683   6.770 -0.0027  1.3738 -0.7872
  782MOL0     H 5508   8.409   0.764   6.620  1.6064  0.3110  1.4084
  782MOL0     H 5509   8.336   0.547   6.517  0.6530  0.1567 -0.2299
  782MOL0     H 5510   8.315   0.466   6.677  1.6738  0.4936  0.6449
  782MOL0     H 5511   8.106   0.596   6.718  1.1480 -2.2858  0.3571
  782MOL0     H 5512   8.170   0.731   6.618  0.1074 -0.5806 -1.9450
  782MOL0     H 5513   8.123   0.574   6.426 -2.1271 -1.2177 -0.8475
  782MOL0     H 5514   8.053   0.459   6.539 -1.8078 -0.8709 -2.0143
  782MOL0     H 5515   7.901   0.637   6.628 -0.3651 -2.4438 -0.2957
  782MOL0     H 5516   7.945   0.736   6.486 -2.0244  0.2445 -0.6285
  782MOL0     H 5517   7.863   0.591   6.320 -1.0205  0.3583 -0.3103
  782MOL0     H 5518   7.857   0.450   6.432  4.5812  0.6701 -0.7860
  782MOL0     H 5519   7.682   0.581   6.556 -0.1400 -0.2326  0.7630
  782MOL0     H 5520   7.641   0.551   6.379 -1.1364  1.2114  1.1484
  782MOL0     H 5521   7.835   0.793   6.270 -0.4473 -1.8493 -1.0504
  782MOL0     H 5522   7.687   1.135   6.248 -0.9352 -1.5840  0.3659
  782MOL0     H 5523   7.849   1.086   6.251  0.0524 -1.4100  1.3554
  782MOL0     H 5524   7.775   0.911   6.063  3.9458  1.7044  1.6699
  782MOL0     H 5525   7.766   1.080   6.012  1.2059 -1.5079 -1.4423
  782MOL0     H 5526   7.521   1.068   6.133  0.3477 -0.1298 -0.1602
  782MOL0     H 5527   7.546   0.894   6.092  2.1973 -1.6886 -2.3183
  782MOL0     H 5528   7.437   0.936   5.926  0.6386  0.0774  3.1048
  782MOL0     H 5529   7.596   0.951   5.853  0.4072 -2.3384  0.5193
  782MOL0     H 5530   7.405   1.309   5.772  3.2933 -0.8543  3.7779
  782MOL0     H 5531   7.063   1.427   5.706 -0.2032  0.2505 -0.3798
  782MOL0     H 5532   7.128   1.553   5.804  0.3219 -0.8374  0.2719
  782MOL0     H 5533   7.240   1.476   5.696  1.2140  0.2080  0.5788
  782MOL0     H 5534   6.792   1.597   5.850  1.7623  0.0642  0.0538
  782MOL0     H 5535   6.556   1.656   5.930 -0.8679  0.4265  2.1506
  782MOL0     H 5536   6.435   1.470   6.259  1.9227  0.0327 -0.1622
  782MOL0     H 5537   6.430   1.614   6.358 -0.3686 -0.2142 -0.1231
  782MOL0     H 5538   6.194   1.544   6.318 -0.9262 -1.4500 -1.0278
  782MOL0     H 5539   6.226   1.693   6.237 -0.4475 -0.5573 -1.5326
  782MOL0     H 5540   6.216   1.417   6.106  0.3289  0.3905 -1.4260
  782MOL0     H 5541   6.270   1.564   6.018 -1.1801 -0.5224 -1.6575
  782MOL0     H 5542   5.998   1.540   6.144 -0.2137 -1.0462 -1.1929
  782MOL0     H 5543   6.060   1.664   6.037  1.6354  0.1457  1.2648
  782MOL0     H 5544   6.047   1.366   5.949  1.0824  0.2793 -0.5978
  782MOL0     H 5545   6.089   1.513   5.853  2.5925  0.7732  2.3425
  782MOL0     H 5546   5.865   1.593   5.886  2.7389  0.2950  1.3562
  782MOL0     H 5547   5.873   1.439   5.793  1.6494  3.7608 -2.4555
  782MOL0     H 5548   5.837   1.407   6.085  1.3244 -0.8519  0.0952
  782MOL0     H 5549   5.741   1.326   5.964 -0.7429  1.3243  0.4349
  782MOL0     H 5550   5.614   1.531   5.913 -0.2383 -1.8802  0.4340
  782MOL0     H 5551   5.695   1.609   6.065  1.1438 -0.7387  0.7384
  782MOL0     H 5552   6.670   1.545   6.327 -1.2419 -1.2806 -0.4262
  782MOL0     H 5553   6.889   1.471   6.247  1.5627  1.4744 -0.9480
  782MOL0     H 5554   7.081   1.140   6.092  1.9375  0.4551 -0.0338
  782MOL0     H 5555   7.295   1.031   6.056  1.3419  0.3672  0.2103
  782MOL0     H 5556   8.809   0.611   6.592 -2.5391  1.3998  3.3165
  782MOL0     H 5557   9.019   0.475   6.561 -2.1726 -1.4453 -1.2648
  782MOL0     H 5558   9.280   0.077   6.952  0.4130  1.4699  0.5165
  782MOL0     H 5559   9.502  -0.007   6.934 -0.8844  0.5422  2.0696
  782MOL0     H 5560   9.713  -0.078   6.868  2.0572  1.5536  0.1266
  782MOL0     H 5561   9.612  -0.184   6.768 -1.0506  1.4895  2.7197
  782MOL0     H 5562   9.800  -0.184   6.596  0.9556 -2.4600  0.9328
  782MOL0     H 5563   9.861  -0.253   6.744 -1.9164 -2.4389 -2.9675
  782MOL0     H 5564   9.982  -0.060   6.817  2.2398  0.3015 -0.7984
  782MOL0     H 5565   9.910   0.039   6.692  0.6298 -0.1061  0.3307
  782MOL0     H 5566  10.046  -0.061   6.516  1.1443 -0.5102 -1.0149
  782MOL0     H 5567  10.066  -0.201   6.615 -1.8563 -0.0397 -1.4997
  782MOL0     H 5568  10.400   0.053   6.734  1.2439  1.6536 -3.0548
  782MOL0     H 5569   9.519   0.164   6.532 -0.4310 -0.6952  0.2334
  782MOL0     H 5570   9.310   0.280   6.582  5.3076  0.7162 -2.6247
  783MOL0     O 5571   2.000   1.069   0.637 -0.0421 -0.2578 -0.1449
  783MOL0     C 5572   2.040   1.177   0.683 -0.1827  0.8208 -0.1294
  783MOL0     O 5573   1.960   1.287   0.718  0.4123  0.1904  0.7532
  783MOL0     C 5574   1.819   1.288   0.720 -0.0474 -0.3454  0.3945
  783MOL0     C 5575   1.761   1.417   0.706 -0.1371 -0.2240 -0.0629
  783MOL0     C 5576   1.620   1.429   0.709 -1.0459  0.0861 -1.0032
  783MOL0     C 5577   1.539   1.324   0.732 -0.3610  0.7211 -1.5137
  783MOL0     O 5578   1.408   1.355   0.742  0.3930 -0.5975  0.8130
  783MOL0     C 5579   1.324   1.253   0.774  0.7406 -0.3232  0.0412
  783MOL0     C 5580   1.182   1.305   0.792 -0.2774  1.0931 -0.2443
  783MOL0     C 5581   1.132   1.373   0.655 -0.4374  0.0919 -0.2195
  783MOL0     C 5582   0.984   1.410   0.659 -0.3459  0.2728  0.3013
  783MOL0     C 5583   0.897   1.278   0.642  0.0292  0.4149 -0.1616
  783MOL0     C 5584   0.749   1.334   0.626  0.9422  0.2920  0.5613
  783MOL0     C 5585   0.639   1.221   0.603 -0.2497  0.3528 -0.4028
  783MOL0     C 5586   0.484   1.269   0.617  0.9911  0.0529 -0.1867
  783MOL0     N 5587   0.437   1.387   0.548 -0.5279 -0.1268 -0.3476
  783MOL0     C 5588   0.309   1.411   0.516  0.2424  1.0890  0.4986
  783MOL0     C 5589   0.314   1.539   0.460  0.2529 -0.6526  1.1245
  783MOL0     C 5590   0.195   1.619   0.415 -0.4614 -0.6348 -0.0099
  783MOL0     C 5591   0.220   1.670   0.278  0.5414  0.4788  0.1873
  783MOL0     C 5592   0.138   1.796   0.239 -0.0986 -0.2886  0.6395
  783MOL0     C 5593  -0.019   1.770   0.268  0.3052 -0.1288  0.1789
  783MOL0     O 5594  -0.097   1.864   0.201  0.2374 -0.7361  0.3796
  783MOL0     C 5595  -0.234   1.833   0.192  0.0166 -0.2655 -0.0493
  783MOL0     C 5596  -0.309   1.744   0.262 -0.2250 -0.6306 -0.1677
  783MOL0     C 5597  -0.447   1.724   0.236 -0.2220 -0.4048 -0.1158
  783MOL0     C 5598  -0.511   1.611   0.301 -0.0076  0.6884 -0.5370
  783MOL0     C 5599  -0.512   1.798   0.133  0.3058 -1.2105 -0.3136
  783MOL0     C 5600  -0.658   1.789   0.097  0.1214  0.1571 -0.5719
  783MOL0     O 5601  -0.700   1.900   0.023 -0.1189 -0.6366 -0.4402
  783MOL0     C 5602  -0.839   1.909   0.004 -0.4554  0.4832  0.0299
  783MOL0     C 5603  -0.926   1.954   0.098  0.2711  0.1531 -0.3797
  783MOL0     C 5604  -1.062   1.960   0.072  0.0597  0.1149 -0.8838
  783MOL0     C 5605  -1.113   1.916  -0.047 -0.4082 -0.2892  0.3454
  783MOL0     O 5606  -1.242   1.914  -0.081  0.2346 -0.0325  0.0197
  783MOL0     C 5607  -1.345   1.972   0.001  0.0877  0.8736  0.1576
  783MOL0     C 5608  -1.488   1.966  -0.037  0.9806 -0.9570  0.7278
  783MOL0     C 5609  -1.548   1.829  -0.014  0.0061 -0.2763  0.4867
  783MOL0     C 5610  -1.696   1.847  -0.042 -0.5386  0.4973 -0.0553
  783MOL0     C 5611  -1.773   1.710  -0.059  0.0492 -0.4124  0.5221
  783MOL0     C 5612  -1.748   1.619   0.057  0.6036  0.8315  0.6624
  783MOL0     C 5613  -1.829   1.487   0.056 -0.3363  0.1484 -0.0052
  783MOL0     C 5614  -1.979   1.489   0.055 -0.1934 -1.2697  0.1090
  783MOL0    Cl 5615  -2.038   1.563   0.212  0.0833 -0.1053 -0.0509
  783MOL0     C 5616  -1.025   1.881  -0.144  0.3888  0.3215 -0.3694
  783MOL0     C 5617  -0.882   1.872  -0.122 -0.0149 -0.0706  0.0989
  783MOL0     O 5618  -0.728   1.694   0.125 -0.5283 -0.1342 -0.0556
  783MOL0     C 5619  -0.429   1.884   0.059  0.3034 -0.2978  0.4266
  783MOL0     C 5620  -0.293   1.897   0.085  0.0405  0.8893 -0.2531
  783MOL0     N 5621   0.444   1.591   0.463 -0.0991  0.5059 -0.7228
  783MOL0     N 5622   0.515   1.490   0.511  0.0497  0.5141  0.4751
  783MOL0     C 5623   1.589   1.193   0.740 -0.0707 -0.7010  0.4028
  783MOL0     C 5624   1.735   1.176   0.728  0.2598 -0.1023  1.0358
  783MOL0     C 5625   2.186   1.204   0.692  0.1062  0.3712  0.7871
  783MOL0     C 5626   2.274   1.115   0.642 -0.3266  0.5909  0.2040
  783MOL0     C 5627   2.417   1.135   0.634 -0.6508  0.2599  0.1902
  783MOL0     C 5628   2.474   1.253   0.685 -0.1932  0.1836  0.1122
  783MOL0     O 5629   2.613   1.263   0.662  0.4811  0.5957 -0.0038
  783MOL0     C 5630   2.681   1.389   0.703 -0.2948  0.2301  0.3380
  783MOL0     C 5631   2.829   1.368   0.733  0.2998 -0.2829 -0.1875
  783MOL0     C 5632   2.893   1.291   0.617  0.4058 -0.7655  0.1204
  783MOL0     C 5633   3.048   1.270   0.639  0.5894  0.4314  0.0400
  783MOL0     C 5634   3.124   1.398   0.634  0.2284 -0.1622 -0.4497
  783MOL0     C 5635   3.168   1.515   0.647  0.3732 -0.0250 -1.0142
  783MOL0     C 5636   2.383   1.347   0.741 -0.5323 -0.7788  0.8111
  783MOL0     C 5637   2.244   1.321   0.742  0.7223  0.1197 -0.3996
  783MOL0     H 5638   1.830   1.499   0.724  0.4182 -0.6268 -0.3130
  783MOL0     H 5639   1.577   1.529   0.700  1.1415  0.9738 -2.6826
  783MOL0     H 5640   1.328   1.177   0.696  3.9647 -0.3739  0.1524
  783MOL0     H 5641   1.343   1.213   0.874 -3.0176  1.2767  1.6152
  783MOL0     H 5642   1.123   1.215   0.811 -0.1457  0.2347 -3.3749
  783MOL0     H 5643   1.172   1.375   0.876  4.1123  1.5455  0.1290
  783MOL0     H 5644   1.193   1.463   0.641 -2.7190  2.1032  1.8101
  783MOL0     H 5645   1.143   1.309   0.567  0.5082 -3.4413  2.3014
  783MOL0     H 5646   0.960   1.462   0.752  1.4334 -1.2571  1.6934
  783MOL0     H 5647   0.956   1.473   0.574  0.5854  0.9061  0.4518
  783MOL0     H 5648   0.931   1.232   0.549 -1.3404 -1.2972  0.1369
  783MOL0     H 5649   0.916   1.206   0.722 -0.5177 -0.1282 -0.5103
  783MOL0     H 5650   0.732   1.381   0.723  2.7803  0.9764  0.5907
  783MOL0     H 5651   0.742   1.412   0.550  0.0862  2.1732  2.4624
  783MOL0     H 5652   0.656   1.172   0.507  0.8511 -1.7673  0.7869
  783MOL0     H 5653   0.647   1.143   0.680 -3.3592  0.0961 -0.2150
  783MOL0     H 5654   0.463   1.290   0.723 -1.7800  3.2695 -1.1999
  783MOL0     H 5655   0.412   1.189   0.596  1.5029 -0.5173  0.1700
  783MOL0     H 5656   0.223   1.346   0.524  1.4944 -0.9615 -1.4892
  783MOL0     H 5657   0.104   1.560   0.421 -0.9302  0.1811  1.5441
  783MOL0     H 5658   0.194   1.705   0.484 -0.9295 -0.5325 -0.1368
  783MOL0     H 5659   0.199   1.595   0.201  0.2243  2.5529 -1.8961
  783MOL0     H 5660   0.325   1.703   0.270  1.8263 -2.8161  1.8984
  783MOL0     H 5661   0.157   1.815   0.133 -2.2056 -0.6551  0.1437
  783MOL0     H 5662   0.165   1.889   0.289  1.6936  0.4506 -1.5733
  783MOL0     H 5663  -0.033   1.778   0.376 -0.3177 -2.3900  0.2975
  783MOL0     H 5664  -0.039   1.673   0.222  0.3225  0.5942 -1.4074
  783MOL0     H 5665  -0.252   1.692   0.339  2.7097 -0.0981 -1.8444
  783MOL0     H 5666  -0.452   1.559   0.377 -2.8336 -1.6985  0.2153
  783MOL0     H 5667  -0.599   1.647   0.357  0.0774  0.0622  0.0075
  783MOL0     H 5668  -0.531   1.525   0.237  0.4676 -0.5370  0.9211
  783MOL0     H 5669  -0.877   1.979   0.191  0.7117 -0.4206 -0.4527
  783MOL0     H 5670  -1.132   2.000   0.145 -0.2545 -1.9416  0.0010
  783MOL0     H 5671  -1.338   1.931   0.102 -2.5872 -0.1471  0.0332
  783MOL0     H 5672  -1.328   2.080   0.001  0.1286  0.9322 -2.1693
  783MOL0     H 5673  -1.540   2.039   0.025  1.3065 -0.4028  0.3524
  783MOL0     H 5674  -1.495   2.001  -0.141 -1.4334 -1.4571  0.6517
  783MOL0     H 5675  -1.528   1.799   0.089  2.3334  1.5660  0.6717
  783MOL0     H 5676  -1.497   1.758  -0.080 -0.7738 -0.6438  0.2780
  783MOL0     H 5677  -1.744   1.884   0.049  1.6401 -0.3706  1.5591
  783MOL0     H 5678  -1.709   1.927  -0.115  1.5296  1.1458  0.2082
  783MOL0     H 5679  -1.736   1.664  -0.151  0.2876  0.5210  0.1425
  783MOL0     H 5680  -1.880   1.725  -0.075 -0.5883 -0.2420  4.0562
  783MOL0     H 5681  -1.646   1.581   0.051 -0.1472 -1.0193 -1.7699
  783MOL0     H 5682  -1.753   1.669   0.154  0.9455  3.1615 -0.4608
  783MOL0     H 5683  -1.802   1.434   0.147 -1.1918 -1.4805 -0.6640
  783MOL0     H 5684  -1.795   1.425  -0.027 -1.2991 -2.2171  1.2747
  783MOL0     H 5685  -2.018   1.386   0.056 -1.6362 -0.7524  1.4302
  783MOL0     H 5686  -2.020   1.542  -0.031 -1.3457 -2.3992 -0.0829
  783MOL0     H 5687  -1.058   1.866  -0.246 -0.6471  0.4230 -0.0639
  783MOL0     H 5688  -0.816   1.841  -0.203  1.1319  2.4932 -0.0234
  783MOL0     H 5689  -0.476   1.918  -0.033 -1.5354 -1.4686  0.8880
  783MOL0     H 5690  -0.231   1.956   0.018 -0.0743  2.5455  1.0424
  783MOL0     H 5691   1.522   1.108   0.752 -1.1139 -0.0097 -0.4052
  783MOL0     H 5692   1.777   1.076   0.735  0.0519 -0.3859 -0.9855
  783MOL0     H 5693   2.237   1.025   0.594  0.9753 -0.0502  0.3535
  783MOL0     H 5694   2.478   1.062   0.582 -0.2932  3.3768 -4.4146
  783MOL0     H 5695   2.670   1.456   0.618 -0.9443  1.0613  1.0637
  783MOL0     H 5696   2.632   1.425   0.793  0.5052 -0.0701  0.9096
  783MOL0     H 5697   2.838   1.306   0.823  1.3636 -0.3443 -0.3254
  783MOL0     H 5698   2.876   1.466   0.750  0.0925 -0.2151  0.0028
  783MOL0     H 5699   2.886   1.340   0.520 -2.7625  2.2147  1.6454
  783MOL0     H 5700   2.829   1.203   0.604 -0.0584 -0.2226 -1.5743
  783MOL0     H 5701   3.086   1.218   0.551  0.3997  1.2365 -0.5295
  783MOL0     H 5702   3.060   1.216   0.734 -0.1688  0.7145  0.3113
  783MOL0     H 5703   3.229   1.602   0.662  1.3767 -1.2389  2.9851
  783MOL0     H 5704   2.420   1.446   0.766  0.6670 -0.8112 -0.6871
  783MOL0     H 5705   2.179   1.404   0.765  1.1320 -0.0155  1.3399
  784MOL0     O 5706   6.957   6.996   3.528  0.4589  0.2332  0.0184
  784MOL0     C 5707   6.937   6.921   3.628  0.0447  0.0140  0.3672
  784MOL0     O 5708   6.822   6.853   3.645 -0.3300  0.0357 -0.0315
  784MOL0     C 5709   6.720   6.845   3.557 -0.4284  0.3954  0.8752
  784MOL0     C 5710   6.662   6.967   3.507 -1.1391  0.0852 -0.7088
  784MOL0     C 5711   6.549   6.959   3.424  0.5961 -0.8853  0.5541
  784MOL0     C 5712   6.490   6.836   3.389 -0.4121  0.2776  0.5328
  784MOL0     O 5713   6.391   6.844   3.292 -0.7020  0.1133 -0.3841
  784MOL0     C 5714   6.321   6.725   3.249  0.3962 -0.2005 -0.3801
  784MOL0     C 5715   6.255   6.767   3.116  0.0969 -0.5105  0.1989
  784MOL0     C 5716   6.112   6.714   3.090 -0.0422 -0.0549 -0.6970
  784MOL0     C 5717   6.069   6.767   2.953  0.1977  0.2119  0.1583
  784MOL0     C 5718   5.920   6.730   2.920  0.4112  0.3982  0.2728
  784MOL0     C 5719   5.885   6.776   2.783 -0.7719 -0.5137 -1.1191
  784MOL0     C 5720   5.753   6.721   2.735  0.4623 -0.5048 -0.6789
  784MOL0     C 5721   5.718   6.779   2.596  0.0856 -0.1824  0.4398
  784MOL0     N 5722   5.634   6.689   2.517  0.3519  0.3383  0.2893
  784MOL0     C 5723   5.504   6.692   2.512  0.3675  0.4853 -0.5681
  784MOL0     C 5724   5.464   6.591   2.434 -0.4649 -0.1313 -0.0368
  784MOL0     C 5725   5.326   6.567   2.364  0.9287 -0.0108  0.4704
  784MOL0     C 5726   5.286   6.676   2.264  0.5248  0.3117 -0.6431
  784MOL0     C 5727   5.140   6.662   2.209 -0.2513 -0.6670  0.8193
  784MOL0     C 5728   5.033   6.699   2.310 -0.2443  0.0874  0.1044
  784MOL0     O 5729   4.909   6.714   2.236  0.8630 -0.0990  0.0149
  784MOL0     C 5730   4.800   6.740   2.320  0.6585  0.0774  0.7952
  784MOL0     C 5731   4.676   6.752   2.260  0.3115  0.9166 -0.4648
  784MOL0     C 5732   4.553   6.770   2.332  1.0835  0.7082  0.1287
  784MOL0     C 5733   4.424   6.789   2.251  0.4027  0.4820 -0.1152
  784MOL0     C 5734   4.552   6.755   2.476  0.7565 -0.5810  0.4210
  784MOL0     C 5735   4.434   6.762   2.566  0.1702 -0.1112  0.0406
  784MOL0     O 5736   4.463   6.750   2.699  0.2425 -0.5125  0.4222
  784MOL0     C 5737   4.360   6.736   2.792 -0.2636 -0.4325  0.6051
  784MOL0     C 5738   4.392   6.768   2.921  0.7916  0.0867 -0.4383
  784MOL0     C 5739   4.301   6.750   3.034  0.5956 -0.0007  0.1307
  784MOL0     C 5740   4.170   6.700   3.006 -0.0872  0.6547  0.1539
  784MOL0     O 5741   4.066   6.687   3.099  0.3860  0.2889  0.2894
  784MOL0     C 5742   4.105   6.704   3.240 -0.4426 -0.4695 -0.4735
  784MOL0     C 5743   3.997   6.661   3.339  0.1320 -0.6141  0.2341
  784MOL0     C 5744   3.865   6.739   3.325 -0.2634 -0.2148 -0.0253
  784MOL0     C 5745   3.755   6.674   3.425 -0.1155 -0.8908 -0.2632
  784MOL0     C 5746   3.756   6.755   3.555 -0.5507 -0.1514 -0.2566
  784MOL0     C 5747   3.715   6.670   3.674  0.6049  0.3885  0.7685
  784MOL0     C 5748   3.572   6.608   3.677  0.1602 -0.6338  0.5568
  784MOL0     C 5749   3.466   6.712   3.632 -0.3824  0.5657  0.8340
  784MOL0    Cl 5750   3.303   6.658   3.686 -0.0427  0.8150 -0.3998
  784MOL0     C 5751   4.136   6.664   2.877 -0.5689 -0.3132 -0.4267
  784MOL0     C 5752   4.224   6.682   2.772 -0.1616 -0.1948 -0.3188
  784MOL0     O 5753   4.322   6.776   2.516 -0.0445 -0.3035  0.3643
  784MOL0     C 5754   4.673   6.739   2.538 -0.0436 -0.7576 -1.1005
  784MOL0     C 5755   4.798   6.741   2.465  0.0664 -0.1077  0.3328
  784MOL0     N 5756   5.574   6.523   2.384 -0.5935 -1.4999  0.0406
  784MOL0     N 5757   5.676   6.584   2.436  0.7034 -0.7548 -0.5213
  784MOL0     C 5758   6.554   6.718   3.435  0.0419 -0.2729 -0.3971
  784MOL0     C 5759   6.677   6.719   3.515  0.6033 -0.5142  0.7482
  784MOL0     C 5760   7.053   6.908   3.730  0.2215  0.8019 -0.4998
  784MOL0     C 5761   7.036   6.820   3.839 -0.5765  0.5391 -0.9299
  784MOL0     C 5762   7.141   6.795   3.928 -0.7916 -0.2004 -0.0410
  784MOL0     C 5763   7.264   6.853   3.919 -1.0335  0.3728  0.3659
  784MOL0     O 5764   7.360   6.814   4.009  0.1932 -0.1835 -0.0734
  784MOL0     C 5765   7.485   6.877   3.996 -0.0104 -0.0206  0.3476
  784MOL0     C 5766   7.585   6.819   4.095  0.9843  0.4235 -0.1630
  784MOL0     C 5767   7.721   6.886   4.067 -0.6068  0.2399 -0.2462
  784MOL0     C 5768   7.839   6.832   4.147 -0.3474  0.6152  0.7323
  784MOL0     C 5769   7.971   6.875   4.100  0.5346  0.5882 -0.4366
  784MOL0     C 5770   8.074   6.904   4.061  0.8469  0.3321  0.2541
  784MOL0     C 5771   7.278   6.941   3.809  0.0566 -0.4172 -0.5706
  784MOL0     C 5772   7.174   6.975   3.723  0.7424 -0.2726  0.2870
  784MOL0     H 5773   6.709   7.060   3.537  0.0041 -0.8872  0.6774
  784MOL0     H 5774   6.502   7.051   3.393 -0.8945 -1.4798  0.9720
  784MOL0     H 5775   6.369   6.629   3.225  1.8219  0.1972  0.6991
  784MOL0     H 5776   6.244   6.702   3.323 -0.9756 -3.1227 -2.5336
  784MOL0     H 5777   6.260   6.876   3.116 -2.0160 -0.2884  3.5819
  784MOL0     H 5778   6.316   6.737   3.030 -2.2563  0.1876 -1.8154
  784MOL0     H 5779   6.118   6.605   3.083  0.0850 -0.2240  1.4091
  784MOL0     H 5780   6.039   6.747   3.165 -1.5981  1.3705 -2.6992
  784MOL0     H 5781   6.084   6.875   2.965  2.8954  0.0410 -0.7835
  784MOL0     H 5782   6.145   6.729   2.883  0.3102  3.1489 -1.4817
  784MOL0     H 5783   5.905   6.621   2.923 -0.2715  0.4893  0.1499
  784MOL0     H 5784   5.853   6.761   3.001  0.3001 -2.1265  1.2718
  784MOL0     H 5785   5.878   6.885   2.770  0.6500 -0.5903 -2.6914
  784MOL0     H 5786   5.962   6.746   2.712 -2.9446 -2.6380 -2.7386
  784MOL0     H 5787   5.770   6.614   2.723  1.2294 -0.9071  3.0371
  784MOL0     H 5788   5.677   6.734   2.812  1.6609 -0.6992  0.5660
  784MOL0     H 5789   5.808   6.798   2.537 -0.8867  1.5243 -0.5923
  784MOL0     H 5790   5.657   6.870   2.604 -0.3746 -0.3977 -0.5281
  784MOL0     H 5791   5.441   6.760   2.568  0.6227 -0.0219  0.3563
  784MOL0     H 5792   5.311   6.466   2.324 -1.2095  0.8283 -1.0833
  784MOL0     H 5793   5.246   6.572   2.438 -1.4712  0.1788 -1.9690
  784MOL0     H 5794   5.353   6.681   2.177  0.5578  0.0228 -0.6338
  784MOL0     H 5795   5.298   6.772   2.316  1.1168  2.1244 -3.8649
  784MOL0     H 5796   5.130   6.563   2.164  0.8421  0.5342 -2.3384
  784MOL0     H 5797   5.131   6.741   2.134 -2.4462  0.4161  2.0968
  784MOL0     H 5798   5.053   6.800   2.346 -3.4572  0.6745  0.5124
  784MOL0     H 5799   5.036   6.620   2.385 -3.1588  1.2825  1.6112
  784MOL0     H 5800   4.676   6.748   2.151  0.3556 -1.8161 -0.4304
  784MOL0     H 5801   4.368   6.695   2.246 -0.8529  1.0926  1.5219
  784MOL0     H 5802   4.367   6.873   2.292  0.8658  0.2106  1.1182
  784MOL0     H 5803   4.447   6.808   2.146  1.3855 -2.9830 -0.6513
  784MOL0     H 5804   4.491   6.804   2.946  0.8043 -1.7047  2.6367
  784MOL0     H 5805   4.339   6.785   3.129  1.5051  3.4724 -1.3454
  784MOL0     H 5806   4.195   6.644   3.255 -0.9438 -2.1334 -3.4230
  784MOL0     H 5807   4.139   6.801   3.278 -1.8522 -0.0923 -0.1030
  784MOL0     H 5808   3.970   6.560   3.308 -6.1904  1.7086 -3.8727
  784MOL0     H 5809   4.043   6.661   3.438 -0.6153  1.8638  0.6516
  784MOL0     H 5810   3.841   6.721   3.219  0.7704 -1.6341 -0.0506
  784MOL0     H 5811   3.886   6.844   3.345 -2.1006  0.9281 -3.2625
  784MOL0     H 5812   3.658   6.687   3.376 -1.6951  1.1443  3.1069
  784MOL0     H 5813   3.773   6.568   3.448  0.5175 -0.2131  2.6952
  784MOL0     H 5814   3.699   6.848   3.550  0.0054  0.3722  1.8443
  784MOL0     H 5815   3.858   6.789   3.574  0.8232 -3.8632 -0.0646
  784MOL0     H 5816   3.781   6.582   3.678 -1.5601 -1.3482  0.2922
  784MOL0     H 5817   3.724   6.736   3.761 -1.0132 -2.4941  3.3341
  784MOL0     H 5818   3.546   6.582   3.780 -1.1113  1.7205  0.9011
  784MOL0     H 5819   3.577   6.524   3.608  3.2473 -2.3703  2.6261
  784MOL0     H 5820   3.457   6.726   3.524 -1.9686 -0.2948  0.8141
  784MOL0     H 5821   3.487   6.812   3.670  0.6213  1.5833 -2.1412
  784MOL0     H 5822   4.033   6.631   2.866 -0.1114 -1.5780 -1.0490
  784MOL0     H 5823   4.187   6.641   2.678 -0.6272  0.4416 -0.4184
  784MOL0     H 5824   4.685   6.733   2.645 -1.2129 -0.9985 -0.9660
  784MOL0     H 5825   4.898   6.750   2.506 -0.1836  0.6308  0.7977
  784MOL0     H 5826   6.529   6.616   3.406  2.0806 -1.1703  0.8088
  784MOL0     H 5827   6.719   6.623   3.545  0.4781 -2.9545 -5.4357
  784MOL0     H 5828   6.945   6.766   3.864  0.6481 -2.1242 -1.7824
  784MOL0     H 5829   7.127   6.720   4.004 -0.1917 -0.4944 -0.2160
  784MOL0     H 5830   7.515   6.835   3.900 -0.3867  1.4602 -0.4401
  784MOL0     H 5831   7.485   6.986   3.986  1.3100 -0.1117 -1.0111
  784MOL0     H 5832   7.597   6.711   4.087  0.1489  0.3527 -0.5759
  784MOL0     H 5833   7.545   6.833   4.196  1.7254 -0.5498  0.2881
  784MOL0     H 5834   7.718   6.990   4.102  0.1343 -0.8145  3.4070
  784MOL0     H 5835   7.727   6.876   3.958  0.6345 -0.6336 -0.1262
  784MOL0     H 5836   7.844   6.723   4.150 -1.3624  0.5028 -0.5426
  784MOL0     H 5837   7.824   6.875   4.247 -1.5241  3.4883 -0.5476
  784MOL0     H 5838   8.176   6.923   4.033  1.8437 -2.9694  1.1688
  784MOL0     H 5839   7.370   6.995   3.785 -0.1677 -0.3894 -1.3993
  784MOL0     H 5840   7.186   7.042   3.639 -0.1244 -3.5409 -2.7071
  785MOL0     O 5841   3.183   0.102   1.239 -1.1554  0.2225  0.4178
  785MOL0     C 5842   3.176   0.089   1.358 -0.0943 -0.8860 -0.1268
  785MOL0     O 5843   3.062   0.068   1.429 -0.0315 -0.1759  0.3024
  785MOL0     C 5844   2.943   0.050   1.357 -0.1063  0.1882  0.1263
  785MOL0     C 5845   2.896   0.107   1.237 -0.1801 -0.3429 -0.1380
  785MOL0     C 5846   2.770   0.069   1.188 -0.3348  0.1955 -0.1376
  785MOL0     C 5847   2.687  -0.028   1.242 -1.1239  0.1974 -0.4331
  785MOL0     O 5848   2.563  -0.044   1.188 -0.4611 -0.3028  0.3050
  785MOL0     C 5849   2.442   0.004   1.257  0.4834  0.9594  0.4591
  785MOL0     C 5850   2.383  -0.097   1.347  0.4681  0.5286  0.1542
  785MOL0     C 5851   2.277  -0.023   1.436 -0.5804 -0.1302  0.1801
  785MOL0     C 5852   2.230  -0.120   1.540  0.4272  0.2761 -0.3411
  785MOL0     C 5853   2.117  -0.066   1.631 -0.0446  1.0812 -0.7728
  785MOL0     C 5854   1.972  -0.086   1.577 -0.1682 -0.1677  0.0981
  785MOL0     C 5855   1.879  -0.057   1.691  0.6792  0.2435 -0.7256
  785MOL0     C 5856   1.738  -0.090   1.643 -0.2270 -0.5494 -0.8946
  785MOL0     N 5857   1.636  -0.036   1.738  0.2981  0.1325 -0.3871
  785MOL0     C 5858   1.504  -0.015   1.700 -0.0319 -0.3492 -0.5032
  785MOL0     C 5859   1.447   0.025   1.809  0.1008  0.2523 -0.3331
  785MOL0     C 5860   1.303   0.053   1.833 -0.5683  0.2982  0.9017
  785MOL0     C 5861   1.207  -0.064   1.862 -0.7026 -0.1885  0.5074
  785MOL0     C 5862   1.242  -0.140   1.989  0.2808 -0.1684  0.9464
  785MOL0     C 5863   1.131  -0.239   2.029 -1.3163 -1.0453 -0.1962
  785MOL0     O 5864   1.167  -0.286   2.158  0.2826 -0.1541  0.3701
  785MOL0     C 5865   1.064  -0.295   2.251 -0.9485 -0.0356 -0.4666
  785MOL0     C 5866   1.109  -0.300   2.381 -0.0399  0.1415 -0.6218
  785MOL0     C 5867   1.018  -0.311   2.489  0.0220  0.6591  0.3059
  785MOL0     C 5868   1.081  -0.329   2.633  0.0758 -1.1712  0.5129
  785MOL0     C 5869   0.879  -0.311   2.468 -0.7640 -0.5063  0.7301
  785MOL0     C 5870   0.774  -0.344   2.567 -1.1893 -0.0351  0.3770
  785MOL0     O 5871   0.802  -0.319   2.699 -0.1844  0.1890  0.4673
  785MOL0     C 5872   0.715  -0.380   2.794  1.3616 -0.4200  0.2142
  785MOL0     C 5873   0.582  -0.327   2.798 -0.9611 -0.9837  0.0106
  785MOL0     C 5874   0.486  -0.380   2.892  0.2576  0.0014 -0.0296
  785MOL0     C 5875   0.522  -0.480   2.988  0.6067 -0.0384 -0.8219
  785MOL0     O 5876   0.436  -0.537   3.079  0.1045 -1.0758 -0.0843
  785MOL0     C 5877   0.296  -0.539   3.051 -0.4664 -1.0736  0.2073
  785MOL0     C 5878   0.249  -0.634   3.158 -0.8161 -0.4578  0.8160
  785MOL0     C 5879   0.099  -0.640   3.147  0.3191  0.7801  0.3996
  785MOL0     C 5880   0.030  -0.659   3.282  0.1004 -0.1784 -0.2170
  785MOL0     C 5881  -0.121  -0.675   3.284  0.4546  0.1401 -0.5542
  785MOL0     C 5882  -0.205  -0.550   3.260  0.2253  0.1951  0.3579
  785MOL0     C 5883  -0.260  -0.538   3.113 -0.0448 -0.1651 -0.8495
  785MOL0     C 5884  -0.310  -0.396   3.077 -0.7355  0.8557  0.3684
  785MOL0    Cl 5885  -0.442  -0.335   3.186  0.1958 -0.0511 -0.1243
  785MOL0     C 5886   0.650  -0.530   2.972 -0.3340  1.0385  0.0486
  785MOL0     C 5887   0.747  -0.483   2.884 -0.1290 -0.5793  0.3031
  785MOL0     O 5888   0.675  -0.401   2.523 -0.2339 -0.2264 -0.0347
  785MOL0     C 5889   0.838  -0.289   2.338  0.5043  0.8923  0.4522
  785MOL0     C 5890   0.930  -0.290   2.226 -0.4246  0.8143 -0.3882
  785MOL0     N 5891   1.543   0.041   1.909 -0.4046 -0.2695  0.8177
  785MOL0     N 5892   1.656  -0.003   1.869 -0.6469  0.6471  0.2868
  785MOL0     C 5893   2.730  -0.079   1.372  0.5815 -0.6623  0.4167
  785MOL0     C 5894   2.861  -0.046   1.418 -0.2795  0.4940  0.0124
  785MOL0     C 5895   3.298   0.100   1.432 -0.2262 -0.3997 -0.4943
  785MOL0     C 5896   3.427   0.137   1.378  0.7643  0.2630 -0.2893
  785MOL0     C 5897   3.538   0.147   1.456 -0.5117 -1.2009  1.1606
  785MOL0     C 5898   3.531   0.137   1.597  0.1213  0.4531 -0.3334
  785MOL0     O 5899   3.646   0.152   1.672  0.0183  1.0040 -0.9153
  785MOL0     C 5900   3.639   0.117   1.810 -0.7791 -0.5110 -0.3924
  785MOL0     C 5901   3.768   0.142   1.885 -0.3543 -0.0800 -0.9228
  785MOL0     C 5902   3.901   0.074   1.824 -0.0295  0.4346 -0.1516
  785MOL0     C 5903   3.975  -0.019   1.921  1.0740 -0.2589  0.0507
  785MOL0     C 5904   4.099  -0.061   1.856 -0.9338  0.8872  0.5645
  785MOL0     C 5905   4.200  -0.092   1.802  0.1962 -0.3071 -0.6673
  785MOL0     C 5906   3.406   0.087   1.645 -0.1510 -0.7775 -0.1088
  785MOL0     C 5907   3.298   0.082   1.569  0.6968 -0.1255  0.7035
  785MOL0     H 5908   2.963   0.185   1.203 -1.8498  1.7709  1.1038
  785MOL0     H 5909   2.748   0.125   1.098 -0.4153 -2.5374 -1.9281
  785MOL0     H 5910   2.463   0.101   1.302  0.9006  1.6384 -1.1372
  785MOL0     H 5911   2.363   0.017   1.184 -0.0492 -0.6034  0.7121
  785MOL0     H 5912   2.346  -0.175   1.279  2.5604  0.0763 -0.5199
  785MOL0     H 5913   2.448  -0.153   1.414  1.0571  0.8673 -0.1275
  785MOL0     H 5914   2.331   0.051   1.495  1.0258 -0.5290 -0.7363
  785MOL0     H 5915   2.198   0.026   1.378 -1.5844 -1.1502  0.6376
  785MOL0     H 5916   2.185  -0.206   1.490  1.0548 -1.0172  1.2403
  785MOL0     H 5917   2.315  -0.164   1.593  1.3317  0.6210 -1.4553
  785MOL0     H 5918   2.122  -0.110   1.731  0.4459  2.9098  0.0535
  785MOL0     H 5919   2.126   0.043   1.638 -2.7521  1.2374  2.3442
  785MOL0     H 5920   1.950  -0.019   1.493  0.4024 -0.2680 -0.1336
  785MOL0     H 5921   1.959  -0.186   1.535  3.1347 -0.7386  0.1384
  785MOL0     H 5922   1.901  -0.115   1.780 -2.8853  0.7401  0.6591
  785MOL0     H 5923   1.878   0.049   1.719 -2.6589  0.2923 -0.5976
  785MOL0     H 5924   1.720  -0.197   1.628 -1.7127 -0.0574 -3.0682
  785MOL0     H 5925   1.732  -0.040   1.546 -3.9693  1.4053  0.1212
  785MOL0     H 5926   1.461  -0.039   1.604  1.8298 -0.0913 -1.4600
  785MOL0     H 5927   1.301   0.129   1.911  1.5485  2.4266 -0.9521
  785MOL0     H 5928   1.257   0.098   1.745  0.2731 -0.7398 -0.1043
  785MOL0     H 5929   1.200  -0.128   1.774  0.0292  0.4154  0.0002
  785MOL0     H 5930   1.112  -0.009   1.868 -0.1256  0.6961  3.8402
  785MOL0     H 5931   1.274  -0.065   2.062 -0.4919  0.2351  0.8791
  785MOL0     H 5932   1.341  -0.183   1.966  0.2489  0.9429 -1.5656
  785MOL0     H 5933   1.124  -0.324   1.961  0.8478 -1.6476  0.2637
  785MOL0     H 5934   1.045  -0.171   2.034 -0.6680 -0.2664  1.0984
  785MOL0     H 5935   1.213  -0.295   2.411 -0.4352  1.4757  0.6600
  785MOL0     H 5936   1.189  -0.316   2.624 -0.2938  2.4316 -0.0471
  785MOL0     H 5937   1.047  -0.252   2.702  0.6720  0.5375 -1.0325
  785MOL0     H 5938   1.065  -0.428   2.678 -1.6106 -0.5202  1.4256
  785MOL0     H 5939   0.565  -0.251   2.722  0.2378  0.0676  0.7403
  785MOL0     H 5940   0.391  -0.331   2.873  2.0934  2.6937 -3.1061
  785MOL0     H 5941   0.249  -0.440   3.048 -0.8361 -1.2184  1.0781
  785MOL0     H 5942   0.283  -0.594   2.957 -0.0799 -1.1150  0.1762
  785MOL0     H 5943   0.297  -0.733   3.151 -0.1031 -0.0336 -4.3122
  785MOL0     H 5944   0.278  -0.606   3.260  1.8141 -2.0337  0.6100
  785MOL0     H 5945   0.068  -0.718   3.077  0.9546  0.2434  0.6929
  785MOL0     H 5946   0.060  -0.546   3.109 -1.5001 -0.8666 -2.0622
  785MOL0     H 5947   0.073  -0.745   3.334  0.9169  1.1426  1.3559
  785MOL0     H 5948   0.036  -0.576   3.353 -0.9887 -0.6626  0.4719
  785MOL0     H 5949  -0.147  -0.715   3.382  1.7657  0.4359 -0.0721
  785MOL0     H 5950  -0.150  -0.739   3.200  2.1329 -0.7724 -0.4757
  785MOL0     H 5951  -0.289  -0.547   3.330 -0.5178 -2.5117 -0.3097
  785MOL0     H 5952  -0.143  -0.460   3.264 -1.3287  1.9017 -4.9408
  785MOL0     H 5953  -0.341  -0.612   3.106  1.0426 -1.2918 -2.1098
  785MOL0     H 5954  -0.172  -0.561   3.053  0.7250  3.3254 -1.2444
  785MOL0     H 5955  -0.341  -0.400   2.973  0.6626  1.9959 -0.1216
  785MOL0     H 5956  -0.224  -0.330   3.092  0.1716 -0.5456  1.7263
  785MOL0     H 5957   0.671  -0.621   3.027 -3.7890  2.2988  4.0137
  785MOL0     H 5958   0.846  -0.523   2.864  0.5331  1.4672 -0.8339
  785MOL0     H 5959   0.732  -0.269   2.331  0.2400 -0.7570 -0.9714
  785MOL0     H 5960   0.895  -0.295   2.124 -1.9816  2.7260 -0.0114
  785MOL0     H 5961   2.675  -0.157   1.424  1.2414 -1.6148 -0.2628
  785MOL0     H 5962   2.899  -0.099   1.505 -4.4166 -3.5288 -0.2947
  785MOL0     H 5963   3.452   0.157   1.274  2.2044 -0.4696 -0.1227
  785MOL0     H 5964   3.635   0.177   1.415 -1.1856 -1.2798 -0.5641
  785MOL0     H 5965   3.548   0.157   1.857 -1.3383 -1.1803 -0.8870
  785MOL0     H 5966   3.636   0.007   1.813  1.8377 -0.6457 -0.1543
  785MOL0     H 5967   3.759   0.113   1.990 -0.4628 -1.2661 -1.2540
  785MOL0     H 5968   3.783   0.251   1.883  1.6796 -0.3336 -1.5613
  785MOL0     H 5969   3.957   0.161   1.790 -0.8783  0.3806 -1.7815
  785MOL0     H 5970   3.885   0.013   1.735  2.8347  2.1674 -2.0331
  785MOL0     H 5971   3.908  -0.104   1.935 -0.3892  0.7055 -0.8212
  785MOL0     H 5972   3.986   0.034   2.016 -0.7625  1.1289 -0.4369
  785MOL0     H 5973   4.281  -0.123   1.739 -0.7299 -1.7844 -1.1699
  785MOL0     H 5974   3.401   0.057   1.749  1.1789 -0.7701 -0.0229
  785MOL0     H 5975   3.209   0.042   1.618  1.4619 -2.8607  0.0378
  786MOL0     O 5976   2.123   4.616   2.664 -0.0134 -0.5943 -0.4172
  786MOL0     C 5977   2.208   4.643   2.745 -0.2887 -0.5662 -1.0939
  786MOL0     O 5978   2.183   4.700   2.862 -0.5584 -0.2469 -0.3430
  786MOL0     C 5979   2.053   4.708   2.905  0.5796  0.1133  1.1087
  786MOL0     C 5980   2.002   4.634   3.018  0.3598 -0.0685  0.6501
  786MOL0     C 5981   1.873   4.666   3.076  0.0302  0.8273 -0.3871
  786MOL0     C 5982   1.786   4.766   3.015 -0.1151 -0.1704 -0.3539
  786MOL0     O 5983   1.664   4.801   3.071  0.2345 -1.1408  0.0845
  786MOL0     C 5984   1.642   4.939   3.081  0.0536  0.2734  0.0403
  786MOL0     C 5985   1.510   4.966   3.166  0.6301 -0.5235  0.1825
  786MOL0     C 5986   1.467   5.110   3.168 -0.5435  0.6168  0.2468
  786MOL0     C 5987   1.336   5.145   3.247 -0.0163 -0.4070 -0.1793
  786MOL0     C 5988   1.309   5.071   3.375 -0.0136  0.1543  0.3071
  786MOL0     C 5989   1.164   5.072   3.391  0.4887  0.2707 -0.0946
  786MOL0     C 5990   1.124   5.004   3.530  0.9886 -1.0097  0.2218
  786MOL0     C 5991   0.970   5.017   3.546 -0.1609 -0.5734  0.7472
  786MOL0     N 5992   0.921   5.155   3.544  0.6379  0.6375 -0.0564
  786MOL0     C 5993   0.961   5.255   3.624 -0.3593  0.7774  0.4827
  786MOL0     C 5994   0.877   5.355   3.593  0.7202 -0.0251 -1.4557
  786MOL0     C 5995   0.865   5.483   3.653 -0.0353 -0.6538 -0.6268
  786MOL0     C 5996   0.823   5.478   3.805  0.0350  0.2402  0.0824
  786MOL0     C 5997   0.675   5.449   3.819 -0.2187  0.2883 -0.4750
  786MOL0     C 5998   0.593   5.554   3.757 -0.3338  0.2794 -0.8790
  786MOL0     O 5999   0.450   5.545   3.790 -0.4926 -0.7883  0.2982
  786MOL0     C 6000   0.384   5.457   3.711  0.3297 -1.1190  0.5952
  786MOL0     C 6001   0.434   5.372   3.603  0.5819 -0.9413 -0.5452
  786MOL0     C 6002   0.341   5.307   3.521 -0.6642 -0.5576  0.0896
  786MOL0     C 6003   0.417   5.216   3.419  0.0392  0.6619  0.5639
  786MOL0     C 6004   0.202   5.324   3.528  0.4691  0.6397 -0.8918
  786MOL0     C 6005   0.111   5.257   3.444 -0.0695 -0.0333 -1.2869
  786MOL0     O 6006   0.005   5.330   3.417  0.3165  0.2251 -0.8036
  786MOL0     C 6007  -0.109   5.274   3.360 -0.2665  0.2184 -0.3766
  786MOL0     C 6008  -0.168   5.153   3.393 -1.1324 -0.0492 -0.5194
  786MOL0     C 6009  -0.281   5.093   3.322 -1.0554  0.6391  0.0289
  786MOL0     C 6010  -0.340   5.168   3.219 -0.5423  0.0155 -0.8096
  786MOL0     O 6011  -0.442   5.126   3.144  0.3153 -0.2120  0.4419
  786MOL0     C 6012  -0.454   4.985   3.123  0.4215 -0.3411 -0.7447
  786MOL0     C 6013  -0.559   4.966   3.022  0.7305  0.7965  0.1146
  786MOL0     C 6014  -0.647   4.831   3.032 -0.4872 -0.0726 -1.2267
  786MOL0     C 6015  -0.550   4.716   3.036 -0.7100  0.3059 -0.3499
  786MOL0     C 6016  -0.621   4.584   3.050  0.0492 -0.4514  0.5150
  786MOL0     C 6017  -0.701   4.544   2.926 -0.4824  0.3600 -0.7258
  786MOL0     C 6018  -0.814   4.451   2.962  0.1970  0.6524  0.4950
  786MOL0     C 6019  -0.919   4.457   2.846  0.3005  0.0018 -0.5805
  786MOL0    Cl 6020  -1.060   4.375   2.919 -0.0757  0.1745  0.2079
  786MOL0     C 6021  -0.284   5.299   3.189  1.1365  1.3044  0.1698
  786MOL0     C 6022  -0.169   5.344   3.254 -0.0777  0.5239  0.4182
  786MOL0     O 6023   0.127   5.141   3.418  0.3750  0.7760 -0.2346
  786MOL0     C 6024   0.154   5.405   3.638 -0.0786  0.5459  0.5150
  786MOL0     C 6025   0.245   5.474   3.712 -0.1010 -0.1072 -0.9149
  786MOL0     N 6026   0.786   5.309   3.500 -0.2003 -0.7004 -0.2850
  786MOL0     N 6027   0.813   5.186   3.469  0.0001  0.4260  0.1220
  786MOL0     C 6028   1.847   4.832   2.905 -0.1789 -0.1167  0.0688
  786MOL0     C 6029   1.971   4.803   2.850 -0.5438 -0.0675  0.0780
  786MOL0     C 6030   2.353   4.612   2.718 -0.0471 -0.6012  0.5674
  786MOL0     C 6031   2.452   4.665   2.802  0.9935 -0.9278 -0.0267
  786MOL0     C 6032   2.587   4.641   2.786  0.2202 -0.3466  0.1801
  786MOL0     C 6033   2.625   4.564   2.670  0.4891 -0.3570 -0.7960
  786MOL0     O 6034   2.762   4.547   2.665  0.8055  0.3606 -0.3088
  786MOL0     C 6035   2.828   4.495   2.545  0.4450 -0.9092  0.7736
  786MOL0     C 6036   2.974   4.477   2.579 -0.5108 -0.2340  0.0745
  786MOL0     C 6037   3.059   4.456   2.452  0.5157 -0.0640  0.4871
  786MOL0     C 6038   3.181   4.367   2.469  0.3974  0.3969 -0.7138
  786MOL0     C 6039   3.256   4.356   2.342  0.1990 -0.4261 -1.1788
  786MOL0     C 6040   3.338   4.364   2.253  0.2348  0.2454 -0.0544
  786MOL0     C 6041   2.535   4.520   2.572 -0.9791  0.1600 -1.3508
  786MOL0     C 6042   2.397   4.548   2.601  0.9106 -0.5393 -0.1517
  786MOL0     H 6043   2.072   4.562   3.060  0.0106  0.0446  1.4483
  786MOL0     H 6044   1.838   4.612   3.164  0.4390 -1.0631 -1.3308
  786MOL0     H 6045   1.716   4.995   3.140  1.0378 -0.3562 -0.5724
  786MOL0     H 6046   1.621   4.986   2.985  1.9325 -0.1847 -0.6374
  786MOL0     H 6047   1.427   4.913   3.119  0.0126  0.5001  0.0948
  786MOL0     H 6048   1.528   4.927   3.267 -0.2592 -1.2079  0.0850
  786MOL0     H 6049   1.539   5.173   3.222 -3.2788  4.4800 -0.1741
  786MOL0     H 6050   1.466   5.139   3.062 -0.9038 -5.3480 -1.7243
  786MOL0     H 6051   1.336   5.252   3.271  2.0483 -0.6111  0.9510
  786MOL0     H 6052   1.255   5.136   3.174 -0.4246 -1.2408  0.3553
  786MOL0     H 6053   1.336   4.966   3.362  3.2835  1.1567 -2.2094
  786MOL0     H 6054   1.372   5.105   3.457  2.2338 -1.1193 -0.7884
  786MOL0     H 6055   1.129   5.175   3.390  0.5261  0.2863 -1.3534
  786MOL0     H 6056   1.115   5.019   3.308 -0.0236 -3.8540  2.5558
  786MOL0     H 6057   1.144   4.897   3.515 -0.0956 -1.2624  0.4865
  786MOL0     H 6058   1.179   5.051   3.612 -3.7185  2.2896  1.9137
  786MOL0     H 6059   0.943   4.965   3.638  1.9914 -2.2691  0.5011
  786MOL0     H 6060   0.922   4.954   3.471  0.6800 -0.3763  0.0301
  786MOL0     H 6061   1.042   5.262   3.697  2.9206  0.5981 -2.8530
  786MOL0     H 6062   0.959   5.538   3.654 -1.7713  2.6845  1.6448
  786MOL0     H 6063   0.799   5.551   3.597  0.1014 -0.0407 -0.0648
  786MOL0     H 6064   0.839   5.569   3.864 -1.3282 -0.1600  1.1206
  786MOL0     H 6065   0.872   5.391   3.850 -0.9226 -0.0667  0.5338
  786MOL0     H 6066   0.667   5.447   3.928 -0.1920  0.0643 -0.4771
  786MOL0     H 6067   0.652   5.352   3.775 -0.7769  0.1809  0.0477
  786MOL0     H 6068   0.605   5.570   3.649 -1.7959 -1.5548 -1.3678
  786MOL0     H 6069   0.625   5.648   3.802 -0.3060  0.1077 -0.5385
  786MOL0     H 6070   0.541   5.363   3.589  0.8775 -1.4653  1.7268
  786MOL0     H 6071   0.526   5.218   3.423  0.1563 -2.5686  1.6869
  786MOL0     H 6072   0.396   5.112   3.446  1.8567 -1.0244 -3.5331
  786MOL0     H 6073   0.381   5.225   3.316  0.1403  1.5116  0.5933
  786MOL0     H 6074  -0.106   5.097   3.462  2.4632  1.7569 -2.0247
  786MOL0     H 6075  -0.323   4.995   3.341  0.5452  0.4201  3.0120
  786MOL0     H 6076  -0.358   4.952   3.081 -0.8416  0.0360 -4.2955
  786MOL0     H 6077  -0.487   4.930   3.211 -1.0137  1.0947 -0.3487
  786MOL0     H 6078  -0.632   5.046   3.037 -2.3662 -1.8382  0.1082
  786MOL0     H 6079  -0.516   4.964   2.921  0.6251  0.2351  0.0756
  786MOL0     H 6080  -0.708   4.830   2.941 -1.7189 -0.2704 -0.4161
  786MOL0     H 6081  -0.718   4.829   3.115  1.7689 -1.3915  0.7757
  786MOL0     H 6082  -0.493   4.728   2.943  0.1829  3.1402  0.4414
  786MOL0     H 6083  -0.471   4.721   3.112  1.1989 -2.4070 -1.9987
  786MOL0     H 6084  -0.680   4.578   3.141 -1.1186  0.0132 -0.1930
  786MOL0     H 6085  -0.549   4.502   3.061  0.8571  0.5105  2.9444
  786MOL0     H 6086  -0.734   4.631   2.868 -1.5266  0.9918  0.7733
  786MOL0     H 6087  -0.628   4.494   2.860  1.0729 -0.6130  1.6092
  786MOL0     H 6088  -0.856   4.478   3.059 -0.3410  1.5345  0.0324
  786MOL0     H 6089  -0.776   4.349   2.974  0.4448  0.5997 -0.6139
  786MOL0     H 6090  -0.873   4.408   2.760 -0.5793 -0.6755 -0.6766
  786MOL0     H 6091  -0.956   4.553   2.809 -0.6172 -0.3355 -0.5701
  786MOL0     H 6092  -0.328   5.367   3.117 -1.2514  0.2170  0.5206
  786MOL0     H 6093  -0.125   5.436   3.217  0.2984 -1.0401 -3.5164
  786MOL0     H 6094   0.048   5.408   3.660  0.0031 -0.9158  1.2231
  786MOL0     H 6095   0.200   5.534   3.791  2.8823  2.2916 -0.8698
  786MOL0     H 6096   1.787   4.907   2.853  0.8487  0.7907  0.1655
  786MOL0     H 6097   2.005   4.858   2.763  2.2946 -2.4368 -0.4494
  786MOL0     H 6098   2.426   4.733   2.882  1.0709 -3.1451  2.0054
  786MOL0     H 6099   2.660   4.679   2.857 -0.7719  1.5213  0.2624
  786MOL0     H 6100   2.788   4.400   2.508  0.8573 -2.1811  3.3926
  786MOL0     H 6101   2.820   4.573   2.469  1.2396 -0.7679  0.8263
  786MOL0     H 6102   2.997   4.402   2.656  0.5791 -1.0348 -0.9890
  786MOL0     H 6103   2.998   4.573   2.626 -0.9414 -0.6021  1.0960
  786MOL0     H 6104   3.087   4.553   2.408 -1.0779 -0.5152 -1.6995
  786MOL0     H 6105   2.999   4.403   2.378  2.4416 -1.2817 -0.2875
  786MOL0     H 6106   3.156   4.267   2.505 -0.0002  0.6861 -0.1621
  786MOL0     H 6107   3.230   4.419   2.552 -3.6576 -0.7837  2.7890
  786MOL0     H 6108   3.398   4.394   2.170  1.5973 -1.6234  0.1755
  786MOL0     H 6109   2.561   4.455   2.489 -3.1174  0.3116 -2.2166
  786MOL0     H 6110   2.325   4.512   2.528  0.4387 -1.3509  0.6870
  787MOL0     O 6111  10.568  10.328   9.008  0.7191  0.0067  0.9352
  787MOL0     C 6112  10.602  10.319   8.889 -0.4236 -0.4467 -0.1008
  787MOL0     O 6113  10.537  10.240   8.792  0.5089 -0.1793  0.0504
  787MOL0     C 6114  10.444  10.155   8.842  0.3214  0.3342  0.8749
  787MOL0     C 6115  10.483  10.048   8.937 -0.0341 -0.6183 -0.8386
  787MOL0     C 6116  10.378   9.962   8.981 -0.3758  0.1681  0.0035
  787MOL0     C 6117  10.252   9.968   8.921 -0.3576  0.4055 -0.3230
  787MOL0     O 6118  10.165   9.879   8.979 -0.4984  0.3093 -0.2102
  787MOL0     C 6119  10.031   9.891   8.937  0.0633 -0.0169 -0.1737
  787MOL0     C 6120   9.966   9.775   9.022  0.7131 -0.6891 -0.6391
  787MOL0     C 6121   9.814   9.766   9.029 -0.6050 -0.1514  0.1542
  787MOL0     C 6122   9.771   9.656   9.116 -0.9062  0.7355 -0.1192
  787MOL0     C 6123   9.614   9.672   9.137 -0.6083  0.0773 -0.0009
  787MOL0     C 6124   9.532   9.542   9.150 -1.4116  0.2093 -0.2935
  787MOL0     C 6125   9.386   9.554   9.127  0.2902 -0.0633 -0.0823
  787MOL0     C 6126   9.315   9.639   9.243 -0.0208  0.4431  0.7280
  787MOL0     N 6127   9.181   9.597   9.267 -0.2423 -0.0117 -0.2007
  787MOL0     C 6128   9.143   9.479   9.338 -0.1965 -0.4294 -0.2027
  787MOL0     C 6129   9.013   9.502   9.366  0.2781 -0.3501  0.0157
  787MOL0     C 6130   8.914   9.415   9.446 -0.1861  0.0691  0.2159
  787MOL0     C 6131   8.806   9.370   9.342 -0.5760  0.1653  0.9181
  787MOL0     C 6132   8.707   9.266   9.398  0.5432  0.2363 -0.1196
  787MOL0     C 6133   8.615   9.197   9.293 -0.2840 -0.7962  0.8055
  787MOL0     O 6134   8.528   9.105   9.354 -0.5231 -0.0942  0.0013
  787MOL0     C 6135   8.399   9.136   9.382 -0.2315 -0.2100 -0.7688
  787MOL0     C 6136   8.343   9.260   9.401  0.1278 -1.0416  1.2526
  787MOL0     C 6137   8.202   9.277   9.426 -0.7974  0.6251 -0.0053
  787MOL0     C 6138   8.160   9.422   9.448 -0.1476 -0.2835  0.1944
  787MOL0     C 6139   8.118   9.166   9.437 -0.0264  0.2401 -0.3592
  787MOL0     C 6140   7.975   9.169   9.484 -0.0324  0.2815  0.0946
  787MOL0     O 6141   7.927   9.050   9.535 -0.4544 -0.7183 -0.3942
  787MOL0     C 6142   7.796   9.044   9.564  0.0656 -0.0627  0.1168
  787MOL0     C 6143   7.763   8.992   9.682  0.3847  0.8995 -0.2142
  787MOL0     C 6144   7.632   8.968   9.719  0.0707  0.9271  0.2413
  787MOL0     C 6145   7.526   8.987   9.629  0.6378  0.7401  0.3675
  787MOL0     O 6146   7.401   8.949   9.677  0.4200 -0.2821  0.2611
  787MOL0     C 6147   7.344   8.833   9.620 -1.0899 -0.0435  0.0917
  787MOL0     C 6148   7.270   8.862   9.485  0.6002  0.5353 -1.0918
  787MOL0     C 6149   7.146   8.768   9.473  0.6337 -0.1125  0.4714
  787MOL0     C 6150   7.044   8.825   9.366 -0.3967 -0.0296 -0.4737
  787MOL0     C 6151   6.942   8.724   9.307  0.0590 -0.4528 -0.1146
  787MOL0     C 6152   6.862   8.779   9.190  0.9063 -0.1374  0.1550
  787MOL0     C 6153   6.801   8.667   9.107 -0.1030 -0.4495 -0.2182
  787MOL0     C 6154   6.713   8.725   8.999  1.1188 -0.2149  0.1503
  787MOL0    Cl 6155   6.614   8.582   8.943  0.1933 -0.0435 -0.1526
  787MOL0     C 6156   7.561   9.045   9.501  0.7219  0.3847  0.2522
  787MOL0     C 6157   7.693   9.077   9.473 -0.6253  0.3618  0.2503
  787MOL0     O 6158   7.913   9.270   9.447  0.5760  0.2433  0.5947
  787MOL0     C 6159   8.178   9.039   9.425 -0.1759 -0.8723 -0.0938
  787MOL0     C 6160   8.307   9.021   9.402  0.1038 -0.2924 -0.8501
  787MOL0     N 6161   8.975   9.614   9.300 -0.5022  0.1978  0.7933
  787MOL0     N 6162   9.074   9.671   9.241  0.0696 -0.3074  0.3145
  787MOL0     C 6163  10.221  10.057   8.819 -1.1631  0.7635 -0.0800
  787MOL0     C 6164  10.319  10.154   8.789 -0.2891  0.4720  0.0760
  787MOL0     C 6165  10.709  10.412   8.836 -0.2989 -0.3164  0.9913
  787MOL0     C 6166  10.736  10.429   8.696  0.6600 -0.0453  0.0821
  787MOL0     C 6167  10.840  10.502   8.646 -0.4168 -0.3860  0.0727
  787MOL0     C 6168  10.915  10.575   8.735 -0.3453 -0.5549 -0.3971
  787MOL0     O 6169  11.018  10.658   8.698 -0.2956 -0.5724  0.3448
  787MOL0     C 6170  11.058  10.669   8.560  0.3311 -1.0092  0.2647
  787MOL0     C 6171  11.156  10.561   8.515  0.4774 -0.3050 -0.1527
  787MOL0     C 6172  11.277  10.569   8.612 -0.5527 -0.7106 -0.2208
  787MOL0     C 6173  11.395  10.663   8.573  0.3982 -0.7658 -0.3391
  787MOL0     C 6174  11.463  10.623   8.453 -0.0244  0.5557  0.5682
  787MOL0     C 6175  11.514  10.617   8.342  0.2502  0.2589  0.0607
  787MOL0     C 6176  10.889  10.568   8.870 -0.7501 -0.4011 -0.4777
  787MOL0     C 6177  10.790  10.482   8.926  0.0968 -0.2062  0.3441
  787MOL0     H 6178  10.578  10.046   8.988 -0.1919  2.3417 -0.2467
  787MOL0     H 6179  10.391   9.890   9.061  3.4000 -0.6055 -1.0963
  787MOL0     H 6180   9.993   9.985   8.977 -0.1939 -1.4572  3.2997
  787MOL0     H 6181  10.008   9.890   8.830  2.0963  2.2944 -0.7159
  787MOL0     H 6182  10.002   9.686   8.970 -2.0463 -2.4412  0.2003
  787MOL0     H 6183   9.999   9.794   9.125  0.7900  2.2127 -1.1143
  787MOL0     H 6184   9.782   9.858   9.078  2.0558 -0.2381  2.3285
  787MOL0     H 6185   9.780   9.765   8.925 -0.6984  0.7432  0.1669
  787MOL0     H 6186   9.794   9.561   9.067 -0.2357 -0.1884  1.8853
  787MOL0     H 6187   9.821   9.654   9.213 -1.4755  1.1932  0.1928
  787MOL0     H 6188   9.600   9.740   9.222 -0.9593  1.4747 -1.1257
  787MOL0     H 6189   9.566   9.716   9.049  1.1535 -0.4623 -1.2920
  787MOL0     H 6190   9.569   9.475   9.071 -3.2459  0.5787 -1.5160
  787MOL0     H 6191   9.555   9.495   9.246 -0.0135 -0.9214 -1.1243
  787MOL0     H 6192   9.375   9.603   9.030  2.7128 -0.5980 -0.6980
  787MOL0     H 6193   9.348   9.453   9.112  0.7652 -0.0264 -1.7260
  787MOL0     H 6194   9.308   9.747   9.229 -0.6482  0.3321  0.1365
  787MOL0     H 6195   9.371   9.636   9.337  0.8460  1.2267  0.2430
  787MOL0     H 6196   9.209   9.405   9.383  2.8292  1.1220 -1.7747
  787MOL0     H 6197   8.956   9.326   9.493 -1.6329 -0.2408  1.0002
  787MOL0     H 6198   8.868   9.452   9.538 -4.1679 -2.9653 -0.2680
  787MOL0     H 6199   8.862   9.327   9.258  0.6370 -0.4995  2.0302
  787MOL0     H 6200   8.751   9.457   9.304 -0.6063  0.1748  0.9851
  787MOL0     H 6201   8.640   9.322   9.465 -1.0535 -1.0956 -0.5443
  787MOL0     H 6202   8.754   9.183   9.452  2.4732 -0.9616 -3.3618
  787MOL0     H 6203   8.679   9.155   9.215 -1.6847 -0.0752 -0.8272
  787MOL0     H 6204   8.572   9.285   9.243  0.2334 -1.1444 -0.2931
  787MOL0     H 6205   8.412   9.343   9.386  0.4413 -1.6429 -0.9650
  787MOL0     H 6206   8.243   9.490   9.425 -0.0037  0.0738  1.6852
  787MOL0     H 6207   8.084   9.454   9.376  0.4500  0.4567 -0.1247
  787MOL0     H 6208   8.135   9.439   9.553  1.1207  1.4681  0.2645
  787MOL0     H 6209   7.851   8.954   9.732  0.9990 -0.8623 -2.4857
  787MOL0     H 6210   7.606   8.914   9.810  2.9257 -0.9703  0.0200
  787MOL0     H 6211   7.416   8.751   9.610 -1.2590  0.0217 -2.0853
  787MOL0     H 6212   7.277   8.796   9.698  0.9871  2.7022  3.4733
  787MOL0     H 6213   7.226   8.962   9.489 -1.6881 -0.3332 -2.3141
  787MOL0     H 6214   7.333   8.845   9.397 -0.1170 -0.7449 -1.3919
  787MOL0     H 6215   7.089   8.768   9.567  1.3856  0.9013  0.9603
  787MOL0     H 6216   7.179   8.666   9.451  2.2322  0.6919 -1.0940
  787MOL0     H 6217   6.997   8.910   9.415  3.2477  2.4136 -0.7829
  787MOL0     H 6218   7.103   8.858   9.280 -2.2095 -0.0334 -1.7529
  787MOL0     H 6219   6.864   8.707   9.382 -0.8084  1.8996 -0.4026
  787MOL0     H 6220   6.995   8.631   9.282  2.8502  0.7504  0.8916
  787MOL0     H 6221   6.786   8.842   9.237 -0.2539 -3.2377  2.8225
  787MOL0     H 6222   6.922   8.836   9.119 -0.7803  1.4048 -0.0819
  787MOL0     H 6223   6.730   8.606   9.165 -1.1890 -0.6529 -1.6960
  787MOL0     H 6224   6.878   8.609   9.057 -1.3102  0.4693 -3.3957
  787MOL0     H 6225   6.774   8.773   8.922  0.5594 -0.1918 -0.2752
  787MOL0     H 6226   6.647   8.797   9.049 -1.2751 -0.4415 -2.4908
  787MOL0     H 6227   7.478   9.064   9.434 -1.4921 -2.1064  2.0732
  787MOL0     H 6228   7.721   9.127   9.380  0.0212  0.8613  0.7040
  787MOL0     H 6229   8.110   8.954   9.424 -1.7475  0.3455 -1.5517
  787MOL0     H 6230   8.336   8.921   9.373 -1.9036 -0.4680 -2.4870
  787MOL0     H 6231  10.133  10.047   8.755 -0.1676 -3.2552 -1.1288
  787MOL0     H 6232  10.293  10.213   8.701 -2.3407 -1.3465 -0.6432
  787MOL0     H 6233  10.679  10.380   8.618  0.1765  1.7605 -0.7432
  787MOL0     H 6234  10.850  10.491   8.538 -0.2012 -1.0826  0.1632
  787MOL0     H 6235  10.975  10.656   8.490  1.8388 -1.5287 -1.5042
  787MOL0     H 6236  11.098  10.767   8.534 -0.3529 -1.1562 -1.5335
  787MOL0     H 6237  11.199  10.575   8.415  1.2448  0.6200  0.2914
  787MOL0     H 6238  11.122  10.458   8.524  1.9868 -0.8935 -0.8423
  787MOL0     H 6239  11.308  10.465   8.626 -1.7566 -1.0436  0.1011
  787MOL0     H 6240  11.254  10.600   8.715  0.5203  2.3345 -0.7892
  787MOL0     H 6241  11.470  10.661   8.652  0.6755  0.6164 -0.5389
  787MOL0     H 6242  11.364  10.768   8.563  1.0738 -0.5359 -0.0734
  787MOL0     H 6243  11.557  10.610   8.244  4.9111  3.4033  1.5361
  787MOL0     H 6244  10.946  10.617   8.949  1.7489 -0.9973 -1.8085
  787MOL0     H 6245  10.796  10.471   9.034 -1.7189  0.9161  0.6066
  788MOL0     O 6246   5.316  11.165   9.887  0.2627 -0.5414 -0.3177
  788MOL0     C 6247   5.331  11.112   9.776 -0.0373  0.8571 -0.0703
  788MOL0     O 6248   5.228  11.096   9.687 -1.2986 -0.4158  0.1224
  788MOL0     C 6249   5.102  11.143   9.713  0.6288  0.8509  0.1123
  788MOL0     C 6250   5.087  11.279   9.732 -0.3463  0.0608  0.4848
  788MOL0     C 6251   4.956  11.335   9.738  1.4904  0.6892  0.4807
  788MOL0     C 6252   4.844  11.245   9.709  0.1993  0.0436  0.2649
  788MOL0     O 6253   4.718  11.291   9.698 -0.7525 -0.6194 -0.3220
  788MOL0     C 6254   4.673  11.313   9.564  0.1297  0.4450  0.0593
  788MOL0     C 6255   4.557  11.414   9.577  0.7173  0.0352  0.7688
  788MOL0     C 6256   4.489  11.441   9.436  0.5080 -0.1943 -0.3211
  788MOL0     C 6257   4.402  11.556   9.449 -0.0947 -0.1082  0.0289
  788MOL0     C 6258   4.260  11.501   9.482  0.1631 -0.6196 -0.4373
  788MOL0     C 6259   4.196  11.463   9.352 -0.0557 -0.2692 -0.1101
  788MOL0     C 6260   4.057  11.399   9.382 -0.6574  0.3448  0.4995
  788MOL0     C 6261   3.942  11.445   9.283 -0.3873 -1.0338 -0.0862
  788MOL0     N 6262   3.819  11.380   9.292  0.5628  0.2856 -0.9435
  788MOL0     C 6263   3.700  11.445   9.261  0.1940  0.1886 -0.3775
  788MOL0     C 6264   3.605  11.349   9.283  0.3691 -0.5883  0.1456
  788MOL0     C 6265   3.464  11.355   9.247 -0.8816 -0.9300 -0.3415
  788MOL0     C 6266   3.390  11.474   9.310  0.3151 -0.0797  0.2390
  788MOL0     C 6267   3.248  11.480   9.262  0.8762 -0.3372 -0.5240
  788MOL0     C 6268   3.183  11.588   9.347  0.3239 -0.2601 -0.7755
  788MOL0     O 6269   3.055  11.620   9.290 -0.4274 -0.7569 -0.1697
  788MOL0     C 6270   2.949  11.548   9.336  1.6101 -0.5975 -1.1133
  788MOL0     C 6271   2.934  11.438   9.422 -0.7683  0.0998 -0.1826
  788MOL0     C 6272   2.813  11.395   9.483 -0.8883 -0.2188  0.2517
  788MOL0     C 6273   2.815  11.266   9.563 -0.6691  0.0708 -1.6294
  788MOL0     C 6274   2.702  11.474   9.455  0.3622 -0.1392 -0.0457
  788MOL0     C 6275   2.565  11.451   9.519 -1.7848 -0.2557 -0.0959
  788MOL0     O 6276   2.559  11.406   9.645  0.1443 -0.2000 -0.3463
  788MOL0     C 6277   2.440  11.368   9.696 -0.1036  0.3109 -0.3585
  788MOL0     C 6278   2.415  11.232   9.712 -0.0518  0.4134  0.2543
  788MOL0     C 6279   2.295  11.198   9.755  1.0590  0.6438 -0.6114
  788MOL0     C 6280   2.194  11.295   9.789 -0.0464  0.6421 -0.3701
  788MOL0     O 6281   2.073  11.254   9.838 -0.3400 -0.2175 -0.5397
  788MOL0     C 6282   1.992  11.357   9.901  0.4910 -0.2060  0.3239
  788MOL0     C 6283   1.877  11.297   9.976  0.9268  0.1854 -0.1169
  788MOL0     C 6284   1.780  11.398  10.033 -0.6395 -0.7378 -0.3971
  788MOL0     C 6285   1.654  11.341  10.085  0.7118  0.1281 -0.3724
  788MOL0     C 6286   1.667  11.283  10.227 -0.4950  0.0171  0.4181
  788MOL0     C 6287   1.561  11.178  10.268 -0.3567  0.3421 -0.3508
  788MOL0     C 6288   1.419  11.217  10.229 -0.6608 -1.4279  0.0890
  788MOL0     C 6289   1.317  11.138  10.306  0.6487  0.0917  0.1748
  788MOL0    Cl 6290   1.300  10.967  10.248 -0.8327  0.0033  0.0026
  788MOL0     C 6291   2.219  11.430   9.764  0.0589  0.2265 -0.0850
  788MOL0     C 6292   2.344  11.470   9.721  0.0215 -0.1353 -0.2933
  788MOL0     O 6293   2.473  11.479   9.448  0.3957  0.5562  0.1073
  788MOL0     C 6294   2.710  11.587   9.370  0.8602 -0.3452  0.0340
  788MOL0     C 6295   2.828  11.619   9.312  0.0409 -0.4174 -0.6744
  788MOL0     N 6296   3.668  11.241   9.333 -0.1295  1.1237 -0.3882
  788MOL0     N 6297   3.791  11.245   9.327 -0.6268 -0.1717 -0.3214
  788MOL0     C 6298   4.868  11.107   9.697 -0.3908  0.0299 -0.7132
  788MOL0     C 6299   4.993  11.058   9.700  0.1989 -0.1293 -0.2391
  788MOL0     C 6300   5.446  11.034   9.752 -0.1568  0.1409 -0.4862
  788MOL0     C 6301   5.547  11.028   9.852  0.0851  0.1502  0.0208
  788MOL0     C 6302   5.665  10.958   9.830 -1.0612  0.1964 -0.8713
  788MOL0     C 6303   5.698  10.916   9.699 -0.1720  0.5383 -0.0489
  788MOL0     O 6304   5.824  10.859   9.683  0.5558 -0.7091  0.0812
  788MOL0     C 6305   5.874  10.850   9.551 -0.3721 -0.5614  0.7273
  788MOL0     C 6306   6.022  10.804   9.564 -0.3118 -0.5470 -0.3674
  788MOL0     C 6307   6.080  10.776   9.422 -0.0792  0.4632 -0.0004
  788MOL0     C 6308   6.224  10.747   9.429  0.6073  0.0414 -1.1810
  788MOL0     C 6309   6.243  10.616   9.503 -0.1529  0.0124  0.2293
  788MOL0     C 6310   6.264  10.516   9.569  0.0890 -0.4304  0.9556
  788MOL0     C 6311   5.597  10.919   9.595  0.5896  0.3626  0.1431
  788MOL0     C 6312   5.471  10.971   9.627 -0.9216 -0.1270  0.7911
  788MOL0     H 6313   5.178  11.338   9.744  1.3768 -2.6751  1.6962
  788MOL0     H 6314   4.929  11.439   9.757 -1.0559 -0.1450  1.9379
  788MOL0     H 6315   4.754  11.356   9.504  1.8704 -0.6799  1.4806
  788MOL0     H 6316   4.634  11.221   9.521 -2.1967  0.5239  1.8622
  788MOL0     H 6317   4.481  11.366   9.638  0.5620 -0.5034  0.1678
  788MOL0     H 6318   4.593  11.506   9.623  2.4371  0.8127 -1.8529
  788MOL0     H 6319   4.562  11.467   9.358  1.6464  0.3753  0.8870
  788MOL0     H 6320   4.438  11.347   9.413  2.5171 -1.6688  0.9124
  788MOL0     H 6321   4.441  11.625   9.525  3.1698  0.0273 -1.6017
  788MOL0     H 6322   4.400  11.615   9.357 -1.9651  0.6995  0.5279
  788MOL0     H 6323   4.262  11.430   9.565 -0.8927  1.4236  1.4633
  788MOL0     H 6324   4.204  11.580   9.533  1.1903 -2.4572  3.9540
  788MOL0     H 6325   4.184  11.551   9.288 -0.6144 -0.6959 -0.6026
  788MOL0     H 6326   4.254  11.392   9.292  0.5893 -0.6442  0.9431
  788MOL0     H 6327   4.077  11.292   9.380  0.6430  0.5458  1.2546
  788MOL0     H 6328   4.028  11.429   9.484  0.8132 -1.6541  1.5801
  788MOL0     H 6329   3.972  11.427   9.179  1.6498 -0.7509  0.4089
  788MOL0     H 6330   3.924  11.552   9.298 -0.2256 -1.3279  2.7131
  788MOL0     H 6331   3.688  11.550   9.236 -1.0797  0.2282  0.3064
  788MOL0     H 6332   3.467  11.363   9.138  0.9931 -1.6805 -0.3771
  788MOL0     H 6333   3.414  11.262   9.275  1.4712 -1.1640  3.9681
  788MOL0     H 6334   3.443  11.568   9.293  2.7028 -1.1580  1.2217
  788MOL0     H 6335   3.391  11.459   9.418  0.6453  0.1126  0.2616
  788MOL0     H 6336   3.192  11.387   9.275 -0.2666  0.1946 -1.4028
  788MOL0     H 6337   3.234  11.515   9.159 -2.3413  0.0225 -0.0803
  788MOL0     H 6338   3.246  11.677   9.353 -0.2754  0.0961  0.6242
  788MOL0     H 6339   3.159  11.555   9.448 -1.0767  4.6688  0.7794
  788MOL0     H 6340   3.021  11.374   9.426 -1.3381 -0.7944 -1.4656
  788MOL0     H 6341   2.905  11.206   9.547 -1.1490 -0.8308 -1.0585
  788MOL0     H 6342   2.813  11.278   9.672 -0.6237 -2.4318 -1.2906
  788MOL0     H 6343   2.728  11.200   9.550 -0.5102 -0.4170 -0.3875
  788MOL0     H 6344   2.495  11.160   9.699 -1.0282 -2.4017  6.2267
  788MOL0     H 6345   2.268  11.094   9.766 -1.0694  1.0008 -1.8256
  788MOL0     H 6346   2.058  11.407   9.972  2.8908 -1.6334 -0.7992
  788MOL0     H 6347   1.944  11.422   9.826 -1.0331 -1.4463  0.1814
  788MOL0     H 6348   1.824  11.236   9.901  1.3719  1.1565 -1.2506
  788MOL0     H 6349   1.912  11.237  10.060 -1.6921 -1.3980 -0.0138
  788MOL0     H 6350   1.756  11.460   9.946 -0.5722 -0.4605 -0.2204
  788MOL0     H 6351   1.820  11.469  10.105 -1.5794 -2.3583  1.8405
  788MOL0     H 6352   1.573  11.414  10.084  1.8933  1.5363  1.3735
  788MOL0     H 6353   1.633  11.253  10.024  1.2217 -1.9120  2.2018
  788MOL0     H 6354   1.682  11.364  10.299 -0.8454  3.2015 -2.8283
  788MOL0     H 6355   1.766  11.238  10.237 -0.4888  0.4132  2.5898
  788MOL0     H 6356   1.586  11.077  10.232 -0.6717  0.2289 -0.2582
  788MOL0     H 6357   1.554  11.162  10.376 -0.6662  0.1059 -0.4042
  788MOL0     H 6358   1.409  11.200  10.121  2.4303  0.7415 -0.6738
  788MOL0     H 6359   1.418  11.322  10.261  2.0605 -1.7741  1.5623
  788MOL0     H 6360   1.218  11.178  10.287  0.0589 -1.7354 -0.9082
  788MOL0     H 6361   1.338  11.161  10.411  1.1409  3.5515 -0.5720
  788MOL0     H 6362   2.156  11.514   9.789  0.9666  0.5832  1.1237
  788MOL0     H 6363   2.370  11.574   9.702 -1.1336  0.2322  0.0195
  788MOL0     H 6364   2.628  11.656   9.353  0.9564  0.1262  1.3467
  788MOL0     H 6365   2.830  11.710   9.253 -1.5255  0.2061  0.1666
  788MOL0     H 6366   4.781  11.048   9.670 -2.0847  1.6242  0.9073
  788MOL0     H 6367   5.021  10.955   9.679 -0.8770  0.0142 -2.6767
  788MOL0     H 6368   5.536  11.072   9.950 -0.6073 -1.9872  0.9445
  788MOL0     H 6369   5.736  10.938   9.910 -0.0700  1.2033 -1.4776
  788MOL0     H 6370   5.815  10.774   9.499  0.7079 -0.7114 -0.3180
  788MOL0     H 6371   5.863  10.944   9.498  0.3199 -0.3472  0.9578
  788MOL0     H 6372   6.032  10.709   9.617  2.9441 -1.1360 -1.7537
  788MOL0     H 6373   6.078  10.881   9.617  0.4545 -0.9865 -0.5139
  788MOL0     H 6374   6.069  10.852   9.343 -0.1323 -2.0327 -2.5496
  788MOL0     H 6375   6.027  10.691   9.379 -0.0464  1.2654 -1.7218
  788MOL0     H 6376   6.266  10.831   9.486 -0.5484 -0.3895  0.3723
  788MOL0     H 6377   6.269  10.736   9.330 -0.9391 -2.7157 -1.6906
  788MOL0     H 6378   6.281  10.422   9.618 -0.9181 -1.4986 -0.6579
  788MOL0     H 6379   5.615  10.879   9.496  1.6784  1.3354 -0.0760
  788MOL0     H 6380   5.397  10.970   9.548 -0.0825 -4.5455 -0.1925
  789MOL0     O 6381   1.482   3.951   6.512  0.5315 -0.2144  0.0426
  789MOL0     C 6382   1.552   4.039   6.466  0.1119 -0.0236  0.4115
  789MOL0     O 6383   1.514   4.161   6.430 -0.2667 -0.3491 -0.1674
  789MOL0     C 6384   1.379   4.189   6.450 -0.5330  0.2250 -0.1625
  789MOL0     C 6385   1.328   4.211   6.578  0.7584  0.1369  0.3869
  789MOL0     C 6386   1.189   4.251   6.586  0.7551  0.1318 -0.2123
  789MOL0     C 6387   1.106   4.269   6.471  0.0250 -0.3017 -0.0869
  789MOL0     O 6388   0.976   4.300   6.494  0.1747 -0.2534  0.4369
  789MOL0     C 6389   0.897   4.337   6.374  0.2035 -1.0929 -0.6637
  789MOL0     C 6390   0.756   4.370   6.420 -0.0831  0.2448  0.0672
  789MOL0     C 6391   0.753   4.506   6.489 -0.2971 -0.1716  0.5117
  789MOL0     C 6392   0.617   4.551   6.540  0.2543  0.4691 -0.0160
  789MOL0     C 6393   0.624   4.695   6.578  0.2950 -0.2908 -0.3208
  789MOL0     C 6394   0.505   4.750   6.657 -0.5221 -0.2648  0.0653
  789MOL0     C 6395   0.371   4.743   6.577  0.1484 -0.0408 -0.1981
  789MOL0     C 6396   0.252   4.809   6.649  0.1077  0.1466  0.6949
  789MOL0     N 6397   0.126   4.811   6.571 -0.5439  0.6522  0.3140
  789MOL0     C 6398   0.042   4.701   6.576  0.6075  0.2955  0.3015
  789MOL0     C 6399  -0.065   4.749   6.501  0.1134 -0.2252  0.0653
  789MOL0     C 6400  -0.193   4.661   6.473 -0.4972 -0.3504  0.2849
  789MOL0     C 6401  -0.247   4.610   6.604  0.9738 -1.0414  0.3226
  789MOL0     C 6402  -0.384   4.536   6.582 -0.6678 -0.2223  0.2128
  789MOL0     C 6403  -0.501   4.629   6.538  1.0805 -0.3128  0.9657
  789MOL0     O 6404  -0.606   4.538   6.506 -0.0600 -0.1243  0.2590
  789MOL0     C 6405  -0.729   4.588   6.454  0.2487  0.7941  0.8228
  789MOL0     C 6406  -0.760   4.720   6.416  0.3984 -1.3700 -0.1989
  789MOL0     C 6407  -0.885   4.764   6.375 -0.2497 -0.1127 -0.2258
  789MOL0     C 6408  -0.906   4.910   6.332  0.2858 -0.4650  0.4833
  789MOL0     C 6409  -0.989   4.662   6.358 -0.3622 -0.0630  0.8221
  789MOL0     C 6410  -1.118   4.683   6.309  0.3540  0.3095 -0.4853
  789MOL0     O 6411  -1.166   4.593   6.216  0.2138 -0.2780 -0.1726
  789MOL0     C 6412  -1.273   4.630   6.138 -0.6452 -0.5133 -0.9813
  789MOL0     C 6413  -1.249   4.719   6.033  0.6868 -0.3758 -0.4957
  789MOL0     C 6414  -1.356   4.745   5.948 -0.5350 -0.5811  0.9232
  789MOL0     C 6415  -1.485   4.686   5.971 -0.3801  0.2544 -0.4033
  789MOL0     O 6416  -1.594   4.713   5.890 -0.7892 -0.6863 -0.0510
  789MOL0     C 6417  -1.582   4.725   5.751 -0.0936  0.3497 -1.0792
  789MOL0     C 6418  -1.718   4.719   5.698  1.3531  0.1440 -0.6030
  789MOL0     C 6419  -1.731   4.741   5.541  0.1315  0.3966  0.4983
  789MOL0     C 6420  -1.680   4.630   5.458  0.0563  0.3140  0.9685
  789MOL0     C 6421  -1.677   4.662   5.307 -0.3020 -0.0110 -0.5137
  789MOL0     C 6422  -1.565   4.586   5.242  0.0146  0.5845 -0.5135
  789MOL0     C 6423  -1.435   4.664   5.256  0.3691  1.1065 -0.0056
  789MOL0     C 6424  -1.322   4.587   5.201 -1.1199 -0.0283  0.1366
  789MOL0    Cl 6425  -1.334   4.570   5.024  0.1143 -0.1686 -0.1383
  789MOL0     C 6426  -1.498   4.586   6.064  0.2615 -0.0321  0.0043
  789MOL0     C 6427  -1.396   4.565   6.160 -0.1808  0.3476 -0.3290
  789MOL0     O 6428  -1.181   4.786   6.345  0.6831 -0.2153  0.4206
  789MOL0     C 6429  -0.954   4.530   6.401  0.7417  0.1435 -0.1775
  789MOL0     C 6430  -0.833   4.493   6.462  0.0643  0.4402  0.4042
  789MOL0     N 6431  -0.050   4.877   6.461  0.2315  0.0451 -0.4720
  789MOL0     N 6432   0.067   4.919   6.510 -0.5577  0.6680  0.3809
  789MOL0     C 6433   1.171   4.257   6.348  0.2478  0.1627  0.8912
  789MOL0     C 6434   1.296   4.207   6.338 -0.1613 -0.8736 -0.5886
  789MOL0     C 6435   1.693   4.008   6.438  0.4722  0.2995 -0.0498
  789MOL0     C 6436   1.761   4.058   6.321 -0.6725  0.1818 -0.4017
  789MOL0     C 6437   1.899   4.030   6.294  0.0203  0.0658 -0.1476
  789MOL0     C 6438   1.964   3.946   6.390 -1.1721  0.5361  0.0888
  789MOL0     O 6439   2.103   3.923   6.395 -0.0850  0.4276 -0.1297
  789MOL0     C 6440   2.183   3.950   6.276 -0.5391 -0.0623 -0.2375
  789MOL0     C 6441   2.326   3.891   6.282 -0.2805 -0.0513  0.0604
  789MOL0     C 6442   2.413   3.947   6.160  0.7267  0.1335 -1.1119
  789MOL0     C 6443   2.547   3.870   6.158  0.4250 -0.3900  0.1889
  789MOL0     C 6444   2.642   3.939   6.070  1.1863 -0.0314  0.3306
  789MOL0     C 6445   2.734   4.002   6.007  0.1524 -0.2089 -0.6062
  789MOL0     C 6446   1.888   3.878   6.490 -0.6393 -0.0711  0.8277
  789MOL0     C 6447   1.754   3.904   6.510  0.1265 -0.8190 -0.2070
  789MOL0     H 6448   1.403   4.199   6.655  0.4830 -2.3059  0.3456
  789MOL0     H 6449   1.137   4.249   6.681 -2.0787 -0.2518 -1.6683
  789MOL0     H 6450   0.947   4.426   6.333  2.4041 -0.4479  2.9396
  789MOL0     H 6451   0.894   4.259   6.298  0.4751 -1.5436 -0.2220
  789MOL0     H 6452   0.684   4.370   6.337 -2.3931  1.4058  1.9299
  789MOL0     H 6453   0.720   4.294   6.490  0.8236  1.8207  2.3554
  789MOL0     H 6454   0.821   4.513   6.574 -1.1798 -1.6656  1.3805
  789MOL0     H 6455   0.777   4.577   6.409 -2.5250  0.0559 -0.0186
  789MOL0     H 6456   0.530   4.535   6.475  0.2953  0.5820 -0.0993
  789MOL0     H 6457   0.589   4.485   6.623  0.8256 -2.0428 -1.7095
  789MOL0     H 6458   0.715   4.717   6.635  0.3182  1.1253 -0.8716
  789MOL0     H 6459   0.627   4.758   6.489  2.1715  1.8511  1.1254
  789MOL0     H 6460   0.507   4.709   6.759  0.5687 -1.0670 -0.2591
  789MOL0     H 6461   0.520   4.858   6.664 -2.1424  0.2327 -2.7887
  789MOL0     H 6462   0.381   4.787   6.478 -0.6137 -1.9346 -1.1648
  789MOL0     H 6463   0.335   4.642   6.557  0.7644 -0.3956  0.4253
  789MOL0     H 6464   0.285   4.911   6.668 -0.8108  0.4089  0.8924
  789MOL0     H 6465   0.240   4.753   6.742 -1.7457 -0.5683  0.0847
  789MOL0     H 6466   0.064   4.604   6.619 -0.8849  1.5164  4.2965
  789MOL0     H 6467  -0.263   4.718   6.411 -1.9632 -0.7131  1.5412
  789MOL0     H 6468  -0.165   4.570   6.420 -1.9425 -0.2959 -0.6201
  789MOL0     H 6469  -0.266   4.695   6.669 -1.3526 -2.1240  1.1780
  789MOL0     H 6470  -0.181   4.545   6.662  0.0412 -2.0861  0.2684
  789MOL0     H 6471  -0.399   4.498   6.684  2.9865 -0.7844  0.6982
  789MOL0     H 6472  -0.380   4.443   6.525 -3.3013  0.7828 -1.8452
  789MOL0     H 6473  -0.469   4.681   6.448 -2.4921 -0.6581 -0.6536
  789MOL0     H 6474  -0.531   4.697   6.619 -0.3283 -1.7430  1.7247
  789MOL0     H 6475  -0.690   4.802   6.427 -1.5855  0.4714 -0.6666
  789MOL0     H 6476  -0.816   4.961   6.367 -0.0914  0.2068  0.4921
  789MOL0     H 6477  -0.936   4.921   6.228 -2.2411 -1.3668  1.0481
  789MOL0     H 6478  -0.993   4.939   6.391 -1.3771 -3.2287 -0.3941
  789MOL0     H 6479  -1.156   4.774   6.026  1.0402 -0.9060 -0.0486
  789MOL0     H 6480  -1.344   4.807   5.860 -1.3557 -4.1818 -1.9598
  789MOL0     H 6481  -1.529   4.814   5.717  2.3809 -1.0199 -1.0715
  789MOL0     H 6482  -1.527   4.635   5.722  0.3912  0.1906  0.2753
  789MOL0     H 6483  -1.772   4.634   5.738  0.8115 -0.0219 -1.6503
  789MOL0     H 6484  -1.764   4.810   5.738 -0.8040 -0.3629 -1.8105
  789MOL0     H 6485  -1.671   4.824   5.504 -0.1067  0.2656 -0.1886
  789MOL0     H 6486  -1.837   4.751   5.517  0.1597 -0.3675  0.0408
  789MOL0     H 6487  -1.580   4.618   5.501  0.3351  3.9361  1.6631
  789MOL0     H 6488  -1.735   4.536   5.469 -1.4379  1.3390  3.1067
  789MOL0     H 6489  -1.652   4.767   5.290  1.2805 -0.7662 -3.6525
  789MOL0     H 6490  -1.770   4.640   5.255  0.5068  1.3636 -2.6592
  789MOL0     H 6491  -1.568   4.495   5.303 -1.8169  1.9199  1.5553
  789MOL0     H 6492  -1.586   4.557   5.139 -3.1720  0.0730  0.1923
  789MOL0     H 6493  -1.414   4.679   5.362  0.3457  0.9768  0.0168
  789MOL0     H 6494  -1.438   4.762   5.205  0.0045  0.5231 -1.1479
  789MOL0     H 6495  -1.321   4.483   5.235  0.2799  0.2398  0.9586
  789MOL0     H 6496  -1.228   4.633   5.231 -0.7845 -2.4018  3.2520
  789MOL0     H 6497  -1.598   4.545   6.063 -1.5105  3.8410 -1.2081
  789MOL0     H 6498  -1.407   4.488   6.236  0.5281 -1.6387 -2.1797
  789MOL0     H 6499  -1.031   4.455   6.385  0.7739 -0.0276  0.4379
  789MOL0     H 6500  -0.821   4.394   6.503  0.5698  0.3979  0.1716
  789MOL0     H 6501   1.121   4.277   6.254  0.3891  1.6719  1.1192
  789MOL0     H 6502   1.322   4.179   6.236 -1.2947 -1.2207 -0.8012
  789MOL0     H 6503   1.717   4.126   6.249 -1.7737 -1.6365 -1.5498
  789MOL0     H 6504   1.950   4.075   6.209 -2.1215  3.1069  0.0507
  789MOL0     H 6505   2.129   3.919   6.186  0.1861  0.3527 -0.8231
  789MOL0     H 6506   2.204   4.056   6.267 -0.8679 -0.0209 -0.5199
  789MOL0     H 6507   2.326   3.782   6.272  1.1826 -0.0864  0.1285
  789MOL0     H 6508   2.382   3.928   6.369 -0.3747  1.7822 -0.6209
  789MOL0     H 6509   2.437   4.052   6.178  1.2678 -0.2377  0.4710
  789MOL0     H 6510   2.355   3.930   6.069 -1.9921 -2.3083  0.8937
  789MOL0     H 6511   2.520   3.772   6.118  1.8845  0.0197 -1.9755
  789MOL0     H 6512   2.601   3.876   6.253 -1.6173  2.7101  1.3280
  789MOL0     H 6513   2.815   4.051   5.958  0.8756  3.1757  3.3938
  789MOL0     H 6514   1.953   3.822   6.556  0.5205 -0.7303 -0.8057
  789MOL0     H 6515   1.692   3.854   6.584  0.2449  0.9076  1.1109
  790MOL0     O 6516  10.053   1.499   6.280  0.0418  0.7329 -0.3477
  790MOL0     C 6517  10.141   1.426   6.225  0.8958  1.1298  1.0134
  790MOL0     O 6518  10.121   1.323   6.129  0.2410  0.4474  0.2002
  790MOL0     C 6519   9.999   1.296   6.063  0.2841 -0.8683  0.0657
  790MOL0     C 6520   9.949   1.168   6.045 -0.0664  0.5306 -0.3226
  790MOL0     C 6521   9.826   1.133   6.002  0.4667 -0.3465  0.8475
  790MOL0     C 6522   9.749   1.237   5.942 -0.3343 -0.3284 -1.0530
  790MOL0     O 6523   9.626   1.211   5.888 -0.4641 -0.2868 -0.3602
  790MOL0     C 6524   9.518   1.303   5.940  0.3048  0.8926 -0.2201
  790MOL0     C 6525   9.383   1.220   5.923 -0.0652 -0.0495 -0.1375
  790MOL0     C 6526   9.256   1.276   5.987  0.8276 -0.0548  0.1018
  790MOL0     C 6527   9.187   1.414   5.936  0.3268  0.1738  0.0837
  790MOL0     C 6528   9.062   1.461   6.005  0.4177  0.2317 -0.7416
  790MOL0     C 6529   8.972   1.356   6.067 -0.2352  0.9665 -0.2625
  790MOL0     C 6530   8.826   1.397   6.051 -0.6300  0.5227  0.3730
  790MOL0     C 6531   8.784   1.510   6.149 -0.6079  0.2132 -0.6835
  790MOL0     N 6532   8.656   1.568   6.108 -0.8274 -0.5295 -0.3416
  790MOL0     C 6533   8.633   1.654   6.001  0.0017  1.0113 -0.3197
  790MOL0     C 6534   8.501   1.692   6.017 -0.2716  0.9913 -0.1834
  790MOL0     C 6535   8.429   1.798   5.935  0.4515 -0.7589 -0.3598
  790MOL0     C 6536   8.295   1.870   5.974 -0.0896 -0.2037 -0.4316
  790MOL0     C 6537   8.231   1.938   5.848 -0.4235  1.0443 -0.3732
  790MOL0     C 6538   8.088   1.980   5.866  0.4861 -0.0044 -0.0476
  790MOL0     O 6539   8.061   2.020   6.003  0.1340 -0.0619  0.3038
  790MOL0     C 6540   7.936   2.064   6.047  0.3554 -0.2948  0.3007
  790MOL0     C 6541   7.895   2.056   6.174 -0.1497  0.8263 -0.0043
  790MOL0     C 6542   7.770   2.094   6.224  0.0099 -0.4318  0.8102
  790MOL0     C 6543   7.742   2.045   6.356  0.1509  1.5668 -0.0843
  790MOL0     C 6544   7.677   2.149   6.130  0.1228 -0.5876 -0.1449
  790MOL0     C 6545   7.541   2.189   6.172 -0.9524 -0.1294  0.0170
  790MOL0     O 6546   7.458   2.210   6.068 -0.0059 -0.5226  1.2500
  790MOL0     C 6547   7.327   2.255   6.083  0.2728  0.3193  0.4230
  790MOL0     C 6548   7.269   2.312   5.971 -0.0085  0.3764 -0.2992
  790MOL0     C 6549   7.123   2.346   5.964 -0.4160  0.8977  0.3552
  790MOL0     C 6550   7.050   2.335   6.086  1.1273  0.4581  0.3273
  790MOL0     O 6551   6.913   2.371   6.092 -0.0273 -0.7066  0.0602
  790MOL0     C 6552   6.847   2.378   5.966 -0.5036 -0.1327 -0.4575
  790MOL0     C 6553   6.697   2.384   5.994 -0.9083 -0.1972 -0.1791
  790MOL0     C 6554   6.606   2.362   5.869  0.1686 -0.0560 -0.4446
  790MOL0     C 6555   6.461   2.396   5.910 -0.1446 -0.2151  0.3330
  790MOL0     C 6556   6.347   2.364   5.810 -0.2232  0.1776 -0.1517
  790MOL0     C 6557   6.204   2.399   5.858  0.2549 -0.0907  1.0089
  790MOL0     C 6558   6.102   2.379   5.743  0.3863 -0.5591 -0.1152
  790MOL0     C 6559   5.979   2.453   5.779 -0.1311 -0.0221  0.2914
  790MOL0    Cl 6560   5.834   2.413   5.680  0.2091 -0.2570 -0.0162
  790MOL0     C 6561   7.123   2.302   6.202 -0.5623  0.3424 -0.5952
  790MOL0     C 6562   7.252   2.259   6.201  0.5468 -0.3722  0.2574
  790MOL0     O 6563   7.521   2.231   6.283  0.7281 -0.4717 -0.1129
  790MOL0     C 6564   7.713   2.150   5.998 -0.3075 -0.2567  1.0442
  790MOL0     C 6565   7.833   2.102   5.958 -1.2207 -0.8076 -0.0889
  790MOL0     N 6566   8.451   1.612   6.116  1.0237 -0.4811  0.1495
  790MOL0     N 6567   8.540   1.543   6.178 -0.5761 -0.5370  0.3538
  790MOL0     C 6568   9.799   1.373   5.956  0.2042  0.8093 -0.4281
  790MOL0     C 6569   9.920   1.402   6.020 -1.0908 -0.0155 -1.0973
  790MOL0     C 6570  10.273   1.476   6.242 -0.7293  0.2687 -0.0238
  790MOL0     C 6571  10.391   1.410   6.192  0.0441 -0.2423 -0.5556
  790MOL0     C 6572  10.518   1.459   6.221  0.3307 -0.2786 -0.1511
  790MOL0     C 6573  10.538   1.563   6.307  1.0354  0.4027  0.2123
  790MOL0     O 6574  10.657   1.605   6.344 -0.1082  0.1848  0.1254
  790MOL0     C 6575  10.724   1.689   6.246  0.3273 -0.2971 -0.9991
  790MOL0     C 6576  10.850   1.737   6.303 -0.6773 -0.4626  1.0150
  790MOL0     C 6577  10.959   1.638   6.331 -0.0704  0.3429  1.1012
  790MOL0     C 6578  11.051   1.669   6.450  0.6775 -0.5380  0.8993
  790MOL0     C 6579  11.176   1.588   6.464  0.6957  0.4225  0.2219
  790MOL0     C 6580  11.283   1.525   6.472  1.0000 -0.0438  0.3378
  790MOL0     C 6581  10.430   1.630   6.361 -0.0400  0.1770 -0.5237
  790MOL0     C 6582  10.304   1.590   6.326  0.3347 -0.1441  0.1030
  790MOL0     H 6583  10.001   1.081   6.084  0.2731  0.1888 -1.5070
  790MOL0     H 6584   9.800   1.028   6.009  0.8428 -0.5978 -1.0329
  790MOL0     H 6585   9.533   1.326   6.046  0.8309  2.8296 -0.6755
  790MOL0     H 6586   9.512   1.402   5.895 -0.5678  0.9529  0.0081
  790MOL0     H 6587   9.357   1.209   5.817 -2.1291  2.8265 -0.0404
  790MOL0     H 6588   9.390   1.118   5.962  0.4324  0.6993  1.8686
  790MOL0     H 6589   9.193   1.187   5.978  1.1252 -0.3184  0.6146
  790MOL0     H 6590   9.279   1.308   6.089 -0.7953  4.2823 -0.6827
  790MOL0     H 6591   9.257   1.495   5.956  0.1658  0.4338 -0.4163
  790MOL0     H 6592   9.159   1.403   5.831  0.1907  0.9668  0.0347
  790MOL0     H 6593   9.078   1.533   6.085 -1.0252  1.0454 -1.1651
  790MOL0     H 6594   9.005   1.519   5.932  1.4356 -0.0043 -1.7580
  790MOL0     H 6595   8.981   1.259   6.018 -2.1755 -0.0331  1.2136
  790MOL0     H 6596   8.999   1.339   6.172  0.1955  0.6600 -0.4257
  790MOL0     H 6597   8.806   1.420   5.946  3.0795 -0.5184 -0.7338
  790MOL0     H 6598   8.772   1.306   6.076 -1.5667  0.9627  0.0192
  790MOL0     H 6599   8.855   1.592   6.160  0.0417 -0.5084  0.7499
  790MOL0     H 6600   8.777   1.474   6.252 -3.5056  0.9253 -0.5640
  790MOL0     H 6601   8.705   1.691   5.929  3.1482 -0.1632  1.9955
  790MOL0     H 6602   8.503   1.877   5.920 -0.7706  1.0304  2.4050
  790MOL0     H 6603   8.415   1.753   5.836  0.5380 -0.8944 -0.3122
  790MOL0     H 6604   8.322   1.943   6.051  1.6060 -2.0124  0.8165
  790MOL0     H 6605   8.226   1.808   6.032  0.0453  0.1062  0.0677
  790MOL0     H 6606   8.241   1.864   5.768 -0.1708 -1.1805  1.5968
  790MOL0     H 6607   8.284   2.030   5.822 -0.9267  0.7781 -2.5632
  790MOL0     H 6608   8.023   1.894   5.846  0.8570 -0.2716 -0.1248
  790MOL0     H 6609   8.066   2.063   5.799  0.7538 -0.5123 -0.7729
  790MOL0     H 6610   7.969   2.014   6.242  0.5069  0.6965 -0.7922
  790MOL0     H 6611   7.741   2.128   6.427 -2.3451  0.7951  0.8850
  790MOL0     H 6612   7.642   2.001   6.352  0.5753  0.6246 -0.6370
  790MOL0     H 6613   7.818   1.975   6.392 -1.9540 -0.7589  0.0660
  790MOL0     H 6614   7.331   2.323   5.883  2.3602  0.8032  1.3237
  790MOL0     H 6615   7.083   2.372   5.867  0.1990  1.6856  0.2982
  790MOL0     H 6616   6.881   2.462   5.905 -1.9890 -1.0093 -2.6330
  790MOL0     H 6617   6.852   2.290   5.901  1.7425  0.4262 -1.1607
  790MOL0     H 6618   6.665   2.322   6.078  0.6513 -2.5616 -1.2264
  790MOL0     H 6619   6.674   2.489   6.017 -1.1070  0.7335 -4.0036
  790MOL0     H 6620   6.612   2.256   5.842  1.2161  0.2802 -1.6429
  790MOL0     H 6621   6.636   2.424   5.784 -1.7475  0.5613 -0.7122
  790MOL0     H 6622   6.438   2.354   6.009 -0.9338 -1.1304 -0.2184
  790MOL0     H 6623   6.459   2.505   5.922 -1.9133  0.1564 -2.5033
  790MOL0     H 6624   6.350   2.256   5.788 -0.8157 -0.0137  0.6493
  790MOL0     H 6625   6.360   2.418   5.716  0.1252 -1.2363 -0.9525
  790MOL0     H 6626   6.172   2.333   5.938  1.4378 -0.5514  1.1208
  790MOL0     H 6627   6.206   2.498   5.904  2.8005 -0.6085  2.1865
  790MOL0     H 6628   6.072   2.274   5.734  0.0165 -0.7254  2.3310
  790MOL0     H 6629   6.137   2.425   5.650 -0.3892  3.7076  1.4756
  790MOL0     H 6630   6.018   2.555   5.774 -1.1796  0.5336  2.3044
  790MOL0     H 6631   5.953   2.435   5.883 -2.0608  0.2940 -0.0967
  790MOL0     H 6632   7.060   2.304   6.290 -0.3287 -2.4747 -0.2840
  790MOL0     H 6633   7.298   2.231   6.295 -0.2707 -0.5043  0.6276
  790MOL0     H 6634   7.641   2.192   5.930  0.5827  0.4969  0.5485
  790MOL0     H 6635   7.859   2.106   5.852 -0.1962 -2.8057  0.0271
  790MOL0     H 6636   9.731   1.442   5.907 -1.0967 -1.9179 -2.8004
  790MOL0     H 6637   9.953   1.505   6.029  0.8393 -0.4976 -1.9195
  790MOL0     H 6638  10.373   1.335   6.115 -0.1685 -1.9867  1.1065
  790MOL0     H 6639  10.606   1.420   6.169  1.6370  4.5499 -2.1305
  790MOL0     H 6640  10.744   1.633   6.155  1.0489 -1.9074  0.0927
  790MOL0     H 6641  10.671   1.783   6.226  0.7497  0.1940  0.0917
  790MOL0     H 6642  10.841   1.805   6.388  1.7191 -0.2249  1.1569
  790MOL0     H 6643  10.896   1.795   6.222 -1.0749 -2.7507 -0.9715
  790MOL0     H 6644  11.029   1.639   6.247  0.1871  1.2410  1.3184
  790MOL0     H 6645  10.918   1.537   6.344 -0.0114  0.0041 -1.0006
  790MOL0     H 6646  10.991   1.633   6.534  1.7302 -0.5538  1.6582
  790MOL0     H 6647  11.069   1.777   6.442 -2.4303  0.0380  0.0588
  790MOL0     H 6648  11.376   1.475   6.493 -0.5045 -1.4616  4.7527
  790MOL0     H 6649  10.441   1.713   6.429 -1.9397 -0.2721  0.4237
  790MOL0     H 6650  10.217   1.643   6.364 -0.0663 -0.1588 -0.7757
  791MOL0     O 6651   9.582   1.898  10.891 -0.0662  0.3637  0.5052
  791MOL0     C 6652   9.654   1.797  10.897  0.2318  0.0674  0.1519
  791MOL0     O 6653   9.615   1.664  10.916 -0.1042 -0.5788 -0.0271
  791MOL0     C 6654   9.486   1.625  10.932  1.0256  0.6238  0.8688
  791MOL0     C 6655   9.365   1.689  10.886  0.1326  0.0932  0.1896
  791MOL0     C 6656   9.236   1.648  10.916 -0.7082 -0.1702  0.7279
  791MOL0     C 6657   9.221   1.531  10.976 -1.5060  0.6838 -0.6172
  791MOL0     O 6658   9.102   1.461  10.996 -0.5922 -0.2240  0.4308
  791MOL0     C 6659   8.985   1.531  11.025 -0.2523  0.1471 -0.0880
  791MOL0     C 6660   8.984   1.603  11.158 -0.3764  0.2469  0.5437
  791MOL0     C 6661   8.981   1.506  11.267 -0.0368  0.4970  0.5674
  791MOL0     C 6662   8.948   1.576  11.395 -0.6446 -0.2783 -0.5973
  791MOL0     C 6663   8.951   1.489  11.529  0.0373  0.4400  0.0204
  791MOL0     C 6664   8.938   1.581  11.653 -0.4822  0.6087  0.1963
  791MOL0     C 6665   8.997   1.523  11.784 -0.3387 -0.0662  0.7053
  791MOL0     C 6666   8.969   1.622  11.899  0.3079 -0.0523 -0.4238
  791MOL0     N 6667   8.822   1.646  11.921 -0.0780  0.6197 -0.8138
  791MOL0     C 6668   8.724   1.550  11.930  0.7037  0.2615  0.1198
  791MOL0     C 6669   8.606   1.616  11.914 -0.5419 -0.0938  0.4806
  791MOL0     C 6670   8.469   1.555  11.920 -0.2016  0.3585  0.1375
  791MOL0     C 6671   8.369   1.642  11.849  1.0706  0.1313  0.3800
  791MOL0     C 6672   8.237   1.557  11.851 -0.0323 -0.9148 -0.2543
  791MOL0     C 6673   8.126   1.640  11.794 -0.5481  0.6331 -0.0281
  791MOL0     O 6674   7.998   1.569  11.791  0.6441 -0.4115  0.0388
  791MOL0     C 6675   7.898   1.599  11.701 -0.6781 -0.0270  0.4031
  791MOL0     C 6676   7.888   1.714  11.630  0.1705 -0.6994 -0.0745
  791MOL0     C 6677   7.773   1.738  11.548  0.7197  0.5370 -1.7043
  791MOL0     C 6678   7.757   1.871  11.485  0.5419  0.2178 -0.4700
  791MOL0     C 6679   7.684   1.631  11.526 -0.1167  0.4232 -0.8796
  791MOL0     C 6680   7.564   1.640  11.446  1.1348 -0.4022  0.4068
  791MOL0     O 6681   7.565   1.731  11.349  0.2823  0.0165  0.3148
  791MOL0     C 6682   7.456   1.785  11.294 -0.3474  0.2718  0.8972
  791MOL0     C 6683   7.488   1.869  11.185  0.1107  0.6286 -0.8729
  791MOL0     C 6684   7.396   1.949  11.117 -0.3421  0.1962  0.4448
  791MOL0     C 6685   7.262   1.947  11.157  0.6644  0.4104  0.5072
  791MOL0     O 6686   7.175   2.031  11.096 -0.2327  0.1983  0.2079
  791MOL0     C 6687   7.045   2.051  11.154 -0.5703  0.5238  0.6262
  791MOL0     C 6688   6.952   2.133  11.073 -0.0117 -0.1881 -1.3942
  791MOL0     C 6689   6.827   2.160  11.165  0.5615 -0.2009  0.5331
  791MOL0     C 6690   6.752   2.284  11.103  0.3634 -0.2460 -0.0633
  791MOL0     C 6691   6.603   2.275  11.142  0.6188  0.2729 -0.1868
  791MOL0     C 6692   6.559   2.273  11.294  0.4622  0.1094  0.5778
  791MOL0     C 6693   6.406   2.267  11.309 -0.3159 -0.2156  0.4530
  791MOL0     C 6694   6.341   2.399  11.271  0.3797 -0.0958 -0.1596
  791MOL0    Cl 6695   6.396   2.528  11.397  0.0861  0.1470  0.1827
  791MOL0     C 6696   7.227   1.862  11.267 -0.2514  0.6225 -0.3631
  791MOL0     C 6697   7.322   1.781  11.331 -0.6537  0.2035 -0.4176
  791MOL0     O 6698   7.477   1.553  11.469 -0.0537 -0.9196  0.1207
  791MOL0     C 6699   7.696   1.515  11.610  0.8494  0.6861 -0.1563
  791MOL0     C 6700   7.803   1.489  11.700 -0.3970 -1.6176 -0.3620
  791MOL0     N 6701   8.634   1.754  11.898  0.6062  0.1387  0.5069
  791MOL0     N 6702   8.765   1.764  11.898 -0.5395  0.4163 -0.0401
  791MOL0     C 6703   9.333   1.455  11.013 -1.0700  0.3531  0.2869
  791MOL0     C 6704   9.462   1.500  10.995  0.4267 -0.5083  0.1882
  791MOL0     C 6705   9.802   1.815  10.877  0.8736  0.4370  0.8104
  791MOL0     C 6706   9.850   1.936  10.821  0.6145  0.7191  0.2031
  791MOL0     C 6707   9.983   1.964  10.827  1.1374  0.3671  0.2946
  791MOL0     C 6708  10.080   1.861  10.850  0.4298  0.3417 -0.3028
  791MOL0     O 6709  10.212   1.872  10.856  0.7945  0.3790  0.6616
  791MOL0     C 6710  10.270   1.958  10.756  0.0365 -0.4773 -0.0581
  791MOL0     C 6711  10.421   1.961  10.781  0.3194  0.1396 -0.0597
  791MOL0     C 6712  10.477   1.820  10.793 -0.1655 -0.4233 -0.9028
  791MOL0     C 6713  10.628   1.819  10.776  0.5832  0.3875  0.0030
  791MOL0     C 6714  10.695   1.864  10.894 -1.2276 -0.9070 -0.1824
  791MOL0     C 6715  10.750   1.892  11.003  0.6719 -0.1748  0.4819
  791MOL0     C 6716  10.027   1.739  10.881  0.4834 -0.3414  0.1253
  791MOL0     C 6717   9.890   1.709  10.900  0.3532  0.3610  0.2447
  791MOL0     H 6718   9.379   1.773  10.819  2.7069 -2.6326 -3.0176
  791MOL0     H 6719   9.148   1.703  10.884 -2.6540 -3.9224 -1.0448
  791MOL0     H 6720   8.971   1.614  10.955  3.6911  1.9640  0.9747
  791MOL0     H 6721   8.907   1.455  11.021  1.1633 -1.3475 -0.3768
  791MOL0     H 6722   9.065   1.676  11.172 -0.1543 -0.0774  0.9774
  791MOL0     H 6723   8.888   1.656  11.154 -0.8682 -0.5637  1.1471
  791MOL0     H 6724   8.894   1.440  11.255  2.1954 -3.0224  2.2425
  791MOL0     H 6725   9.077   1.455  11.282 -0.5286 -0.3122  1.0715
  791MOL0     H 6726   9.018   1.660  11.398 -3.2852  2.1455 -2.3977
  791MOL0     H 6727   8.856   1.633  11.387 -1.2261 -0.4102  3.2540
  791MOL0     H 6728   8.865   1.421  11.532 -0.4172  1.0069  0.1231
  791MOL0     H 6729   9.043   1.429  11.534 -0.7426 -0.7194  1.4098
  791MOL0     H 6730   8.980   1.680  11.633  1.2473 -0.2594 -0.7153
  791MOL0     H 6731   8.831   1.599  11.659 -1.4270 -2.9178 -2.7780
  791MOL0     H 6732   8.945   1.429  11.807  1.8581 -1.7815 -0.9367
  791MOL0     H 6733   9.102   1.492  11.782 -0.6660 -1.1943 -0.7161
  791MOL0     H 6734   9.012   1.721  11.885 -0.6588  0.4125 -0.2162
  791MOL0     H 6735   8.998   1.565  11.988 -3.1518  1.0641  1.6500
  791MOL0     H 6736   8.740   1.445  11.952  0.0955  0.2319  0.4448
  791MOL0     H 6737   8.477   1.456  11.874 -0.0599  0.4841 -0.1098
  791MOL0     H 6738   8.426   1.539  12.019 -1.0452 -0.1325 -0.3011
  791MOL0     H 6739   8.406   1.653  11.747 -1.9434 -0.6924 -0.9229
  791MOL0     H 6740   8.359   1.743  11.891  2.4685  1.5901 -2.5117
  791MOL0     H 6741   8.221   1.544  11.958  1.9248 -1.8149 -0.0461
  791MOL0     H 6742   8.230   1.467  11.789 -1.9091 -0.3463 -0.9585
  791MOL0     H 6743   8.157   1.673  11.695  0.8139 -2.9886 -0.9359
  791MOL0     H 6744   8.105   1.731  11.852 -2.0350  0.5774 -0.4375
  791MOL0     H 6745   7.951   1.801  11.648 -0.5561  0.5033 -2.8483
  791MOL0     H 6746   7.787   1.941  11.564  1.0050  0.0353 -0.4834
  791MOL0     H 6747   7.811   1.890  11.392 -2.4224 -0.2527 -2.4294
  791MOL0     H 6748   7.654   1.908  11.474  0.3542  0.4785  1.7465
  791MOL0     H 6749   7.591   1.873  11.153 -0.2829  0.1350 -2.2533
  791MOL0     H 6750   7.437   2.010  11.037  1.6858 -2.5104 -0.7337
  791MOL0     H 6751   6.996   1.953  11.161 -0.7287  0.6053  0.6594
  791MOL0     H 6752   7.050   2.084  11.258 -1.2448 -3.6169  2.1581
  791MOL0     H 6753   7.011   2.223  11.057  2.0355 -0.7499  2.1233
  791MOL0     H 6754   6.926   2.099  10.972  1.2280 -0.9518 -1.4822
  791MOL0     H 6755   6.853   2.177  11.270 -1.6751 -0.9619  1.2636
  791MOL0     H 6756   6.769   2.068  11.163  0.7076 -0.2881 -0.8032
  791MOL0     H 6757   6.792   2.373  11.153 -2.3556  0.9427  0.1754
  791MOL0     H 6758   6.760   2.304  10.996 -0.6411  0.5389 -0.0103
  791MOL0     H 6759   6.554   2.190  11.095  0.1107 -0.7974  2.1359
  791MOL0     H 6760   6.559   2.369  11.107 -0.2204  1.4441  3.5577
  791MOL0     H 6761   6.603   2.179  11.329 -1.1247 -0.2590  1.7156
  791MOL0     H 6762   6.608   2.354  11.348  0.3946  2.1266 -2.1597
  791MOL0     H 6763   6.406   2.259  11.418  3.6189  0.7937  0.6798
  791MOL0     H 6764   6.369   2.175  11.263 -1.0090  0.6430 -0.7830
  791MOL0     H 6765   6.232   2.412  11.282  0.5369 -0.9319  5.0520
  791MOL0     H 6766   6.364   2.422  11.167  1.2818  0.9237  0.2475
  791MOL0     H 6767   7.126   1.872  11.306  0.0379  2.2182  0.0206
  791MOL0     H 6768   7.295   1.716  11.413  2.0045 -1.1914 -0.5401
  791MOL0     H 6769   7.617   1.440  11.601  2.6181 -1.0792 -2.0748
  791MOL0     H 6770   7.823   1.399  11.757  0.3572 -0.3715  1.4165
  791MOL0     H 6771   9.313   1.358  11.058 -0.8648 -0.0309 -0.4426
  791MOL0     H 6772   9.552   1.449  11.028  1.7989 -0.1571 -2.6741
  791MOL0     H 6773   9.776   2.006  10.784  0.8889  0.6007 -0.5800
  791MOL0     H 6774  10.012   2.065  10.801 -1.5256  1.4867  1.3245
  791MOL0     H 6775  10.250   1.914  10.657  1.8562 -2.1014  0.2258
  791MOL0     H 6776  10.234   2.061  10.760  1.8047  0.1709  0.1521
  791MOL0     H 6777  10.451   2.012  10.873  0.1178 -0.8481  0.5731
  791MOL0     H 6778  10.470   2.017  10.701  2.0064 -0.1311  0.7287
  791MOL0     H 6779  10.438   1.757  10.712 -1.4687 -0.3875 -0.3186
  791MOL0     H 6780  10.459   1.769  10.888 -0.3908 -0.5551 -1.0162
  791MOL0     H 6781  10.666   1.882  10.694  2.5273 -0.9552 -0.1871
  791MOL0     H 6782  10.642   1.712  10.756 -4.0533 -0.1839 -1.2238
  791MOL0     H 6783  10.797   1.911  11.098  1.2892 -3.4595  0.9336
  791MOL0     H 6784  10.092   1.653  10.893  0.0804 -0.4915  1.3529
  791MOL0     H 6785   9.846   1.616  10.936 -1.1853  1.6741  1.9258
  792MOL0     O 6786   0.503  10.616   7.139  0.0019 -0.3362 -1.3016
  792MOL0     C 6787   0.605  10.639   7.212 -0.1948  0.7257  0.4304
  792MOL0     O 6788   0.616  10.712   7.327  0.3119  0.2038  0.4541
  792MOL0     C 6789   0.509  10.756   7.398 -0.0455 -0.4943 -0.2447
  792MOL0     C 6790   0.533  10.878   7.460  0.1596 -0.0426  0.4060
  792MOL0     C 6791   0.425  10.940   7.524 -0.5565 -0.6105  0.6442
  792MOL0     C 6792   0.298  10.873   7.533 -0.0132  0.2182 -0.0626
  792MOL0     O 6793   0.184  10.927   7.591 -0.2920  0.3273 -0.0041
  792MOL0     C 6794   0.189  11.060   7.630 -0.9031  0.0937  0.9762
  792MOL0     C 6795   0.056  11.126   7.671  0.4288  0.1011 -0.9197
  792MOL0     C 6796  -0.033  11.030   7.759  0.1971  1.2635  0.5781
  792MOL0     C 6797  -0.166  11.104   7.765  0.3228 -1.2409  0.0083
  792MOL0     C 6798  -0.250  11.040   7.873 -0.2919  0.0913 -0.8265
  792MOL0     C 6799  -0.402  11.067   7.861 -0.8961 -0.0931  0.2113
  792MOL0     C 6800  -0.448  11.218   7.858  0.0689 -0.0423  0.1687
  792MOL0     C 6801  -0.591  11.239   7.797 -0.3684  0.3567 -0.0262
  792MOL0     N 6802  -0.695  11.187   7.888 -0.1120  0.5938  1.0338
  792MOL0     C 6803  -0.756  11.058   7.870 -0.8736  0.8108 -0.0507
  792MOL0     C 6804  -0.822  11.044   7.998  0.4679  0.4764  0.0866
  792MOL0     C 6805  -0.917  10.925   8.036  0.8437  0.1158 -0.2825
  792MOL0     C 6806  -1.059  10.970   8.068  0.1867 -0.1922 -0.4320
  792MOL0     C 6807  -1.114  11.065   7.958 -0.9110  0.2425 -0.0456
  792MOL0     C 6808  -1.260  11.105   7.973  0.0484  0.2743  0.6630
  792MOL0     O 6809  -1.340  10.988   7.935 -0.0943  0.4199 -0.0116
  792MOL0     C 6810  -1.473  10.992   7.942 -0.2980  0.1542 -0.1054
  792MOL0     C 6811  -1.542  10.875   7.926 -0.4028  0.3996 -0.6084
  792MOL0     C 6812  -1.678  10.854   7.942 -0.1540  0.0183  0.4874
  792MOL0     C 6813  -1.721  10.713   7.903  0.1077  0.1194  0.4053
  792MOL0     C 6814  -1.747  10.971   7.968  0.6109 -0.1778  0.2132
  792MOL0     C 6815  -1.896  10.960   7.971 -0.0302  0.9567 -0.1038
  792MOL0     O 6816  -1.970  11.070   7.939  0.3676  0.6813  0.0541
  792MOL0     C 6817  -2.100  11.093   7.991  0.1413 -0.2925 -0.5275
  792MOL0     C 6818  -2.136  11.049   8.115  0.0940  0.7275 -0.4500
  792MOL0     C 6819  -2.271  11.057   8.156 -0.3035 -1.1748 -1.5655
  792MOL0     C 6820  -2.368  11.126   8.073  0.4608 -0.2483 -0.0936
  792MOL0     O 6821  -2.506  11.148   8.098 -0.6581  0.4343  0.3788
  792MOL0     C 6822  -2.558  11.083   8.217 -0.7898 -0.6415  0.9164
  792MOL0     C 6823  -2.710  11.099   8.226  0.7139  0.2709 -0.0928
  792MOL0     C 6824  -2.744  11.247   8.251 -0.6538  0.4834 -0.1025
  792MOL0     C 6825  -2.895  11.260   8.281  0.6292 -1.1645 -0.0996
  792MOL0     C 6826  -2.948  11.395   8.304  0.0481  0.0575 -0.6360
  792MOL0     C 6827  -2.907  11.475   8.433  0.0970  0.7060 -0.4781
  792MOL0     C 6828  -2.926  11.626   8.407  0.0215 -0.2720  0.8164
  792MOL0     C 6829  -3.076  11.665   8.390  0.0534 -0.0318  0.0229
  792MOL0    Cl 6830  -3.089  11.835   8.376 -0.5212 -0.2248  0.1632
  792MOL0     C 6831  -2.324  11.183   7.956 -0.6464  0.5268 -0.5414
  792MOL0     C 6832  -2.187  11.172   7.917  0.2644 -1.1613  0.0775
  792MOL0     O 6833  -1.946  10.846   7.996  0.3872 -0.3758  0.4098
  792MOL0     C 6834  -1.684  11.099   7.988  0.2482  0.5512  0.1776
  792MOL0     C 6835  -1.544  11.106   7.978  0.4352  0.4401 -0.2440
  792MOL0     N 6836  -0.807  11.165   8.069 -0.2633  0.0461  0.3579
  792MOL0     N 6837  -0.729  11.250   8.007  0.1462 -0.1492  0.3789
  792MOL0     C 6838   0.281  10.742   7.492 -0.1184  0.1386  0.1786
  792MOL0     C 6839   0.384  10.693   7.410  0.1313  0.6342  0.0020
  792MOL0     C 6840   0.727  10.571   7.166 -0.7494  0.0791 -0.1430
  792MOL0     C 6841   0.849  10.599   7.237 -0.3464  0.3563  0.5785
  792MOL0     C 6842   0.960  10.519   7.195  0.4008  0.2178  0.0659
  792MOL0     C 6843   0.964  10.425   7.090  1.0360  0.2061 -0.2126
  792MOL0     O 6844   1.072  10.351   7.041 -0.8809 -0.0805  0.1033
  792MOL0     C 6845   1.193  10.354   7.123  0.4262 -0.5760 -0.4832
  792MOL0     C 6846   1.172  10.246   7.223 -0.8803 -0.5906 -1.1113
  792MOL0     C 6847   1.274  10.253   7.345  0.3856  0.1217 -0.3182
  792MOL0     C 6848   1.419  10.255   7.298 -0.1381 -0.3949 -0.0519
  792MOL0     C 6849   1.521  10.255   7.407  0.2282  0.3251 -0.0128
  792MOL0     C 6850   1.599  10.262   7.496  0.0794 -0.1680  0.1304
  792MOL0     C 6851   0.846  10.403   7.024 -0.0345  0.1267 -0.4511
  792MOL0     C 6852   0.738  10.481   7.053  0.6828  0.1296 -1.0603
  792MOL0     H 6853   0.626  10.934   7.471 -0.4743  1.0751  0.2390
  792MOL0     H 6854   0.428  11.045   7.552 -1.5633 -0.3924  0.0047
  792MOL0     H 6855   0.266  11.083   7.705  1.1667 -2.4477 -0.2138
  792MOL0     H 6856   0.224  11.111   7.540  0.9012  2.8840  3.0685
  792MOL0     H 6857   0.074  11.220   7.724  2.0410 -2.3781  3.5015
  792MOL0     H 6858   0.004  11.147   7.577  0.4000  0.0599 -0.9132
  792MOL0     H 6859  -0.045  10.931   7.713 -1.0774  1.1625  1.0938
  792MOL0     H 6860   0.008  11.016   7.860 -0.3771  4.4433  1.3432
  792MOL0     H 6861  -0.161  11.210   7.792 -1.9057 -1.2017  0.4287
  792MOL0     H 6862  -0.209  11.104   7.664  1.9791 -1.7837 -0.7356
  792MOL0     H 6863  -0.246  10.931   7.867 -1.7482 -0.0197 -0.3729
  792MOL0     H 6864  -0.212  11.068   7.971  0.1259 -0.2028 -0.9043
  792MOL0     H 6865  -0.420  11.030   7.759 -1.3524  2.7572 -0.8199
  792MOL0     H 6866  -0.454  11.010   7.938  1.3072 -2.4722  0.1032
  792MOL0     H 6867  -0.448  11.253   7.962 -2.1325 -0.5200  0.3686
  792MOL0     H 6868  -0.374  11.285   7.812  0.5708  0.2439  1.3290
  792MOL0     H 6869  -0.589  11.179   7.706 -1.6948 -1.4801  1.0798
  792MOL0     H 6870  -0.603  11.347   7.782 -1.4162  0.2588 -0.0089
  792MOL0     H 6871  -0.757  10.993   7.782  2.1583 -0.6151  0.8252
  792MOL0     H 6872  -0.916  10.858   7.950  1.1176 -0.6180  0.2845
  792MOL0     H 6873  -0.862  10.866   8.109 -0.0898  1.6988  1.8089
  792MOL0     H 6874  -1.047  11.028   8.160  3.5928 -0.7194 -0.4136
  792MOL0     H 6875  -1.123  10.885   8.090  1.1374 -1.4596 -2.3093
  792MOL0     H 6876  -1.111  11.023   7.857 -1.5187 -0.9711  0.4264
  792MOL0     H 6877  -1.059  11.159   7.966 -0.7263 -0.0125  2.2128
  792MOL0     H 6878  -1.290  11.187   7.908 -0.0367  0.6973  1.2245
  792MOL0     H 6879  -1.270  11.134   8.078 -1.1364 -1.3929  1.0576
  792MOL0     H 6880  -1.475  10.793   7.904  0.1018  0.1710  1.5933
  792MOL0     H 6881  -1.810  10.706   7.840 -0.1823 -2.6924  1.0190
  792MOL0     H 6882  -1.646  10.659   7.844 -3.2573 -3.9018 -0.5965
  792MOL0     H 6883  -1.752  10.645   7.982 -3.9423 -2.1582 -2.7854
  792MOL0     H 6884  -2.069  10.995   8.180 -0.6524  0.7130  0.3237
  792MOL0     H 6885  -2.303  11.011   8.250 -0.8409  2.6043  0.2843
  792MOL0     H 6886  -2.542  10.975   8.210 -0.9070 -0.5939 -0.1972
  792MOL0     H 6887  -2.509  11.107   8.312  0.8075 -2.2723  0.5754
  792MOL0     H 6888  -2.752  11.049   8.138  0.4611  1.9855 -0.9941
  792MOL0     H 6889  -2.752  11.041   8.308  2.4989 -1.0007 -0.0370
  792MOL0     H 6890  -2.726  11.306   8.161  2.3993  0.5134  0.4017
  792MOL0     H 6891  -2.690  11.288   8.337 -1.9736 -0.5538  1.2969
  792MOL0     H 6892  -2.947  11.202   8.205  1.9788 -2.2653 -0.2416
  792MOL0     H 6893  -2.917  11.209   8.376 -0.6017  1.3090  1.0098
  792MOL0     H 6894  -3.056  11.391   8.284 -0.2840  1.2416  0.7583
  792MOL0     H 6895  -2.905  11.455   8.223 -2.1737  2.0490 -0.4551
  792MOL0     H 6896  -2.971  11.447   8.516 -0.8966  5.4241  0.6503
  792MOL0     H 6897  -2.805  11.451   8.465 -1.3483 -2.5257  2.2619
  792MOL0     H 6898  -2.868  11.659   8.320  0.3579 -0.4538  0.9692
  792MOL0     H 6899  -2.895  11.672   8.501 -0.0200  0.7356  0.3582
  792MOL0     H 6900  -3.128  11.643   8.484 -0.4832  0.1949 -0.2173
  792MOL0     H 6901  -3.125  11.612   8.308 -0.5553  0.6014 -0.0367
  792MOL0     H 6902  -2.396  11.238   7.896 -0.2481 -0.2836 -1.8034
  792MOL0     H 6903  -2.158  11.217   7.822  1.6376  0.5919  1.2432
  792MOL0     H 6904  -1.750  11.186   7.988 -0.0267  0.4357 -2.7280
  792MOL0     H 6905  -1.496  11.203   7.982 -0.1352  1.0354 -3.8035
  792MOL0     H 6906   0.183  10.696   7.501 -1.1996  2.1563 -0.7886
  792MOL0     H 6907   0.366  10.608   7.346  1.0139  0.8643 -0.5677
  792MOL0     H 6908   0.857  10.669   7.319  1.3348  0.7079  0.1531
  792MOL0     H 6909   1.051  10.543   7.248 -0.0491 -2.0663  2.0520
  792MOL0     H 6910   1.273  10.340   7.049  1.4087  3.2629 -0.3425
  792MOL0     H 6911   1.216  10.448   7.173  0.6558 -1.5880  1.4180
  792MOL0     H 6912   1.179  10.150   7.171  1.1096 -0.5911 -0.9108
  792MOL0     H 6913   1.075  10.242   7.274 -0.0356 -0.9267  0.5553
  792MOL0     H 6914   1.241  10.179   7.418 -1.9589  2.8995  1.6864
  792MOL0     H 6915   1.248  10.344   7.400 -1.1849 -1.4835  1.7774
  792MOL0     H 6916   1.439  10.344   7.238  1.0328 -0.2908  0.4569
  792MOL0     H 6917   1.441  10.172   7.230  0.3513 -3.2597  3.2646
  792MOL0     H 6918   1.674  10.275   7.571 -0.7763  1.1310  0.7916
  792MOL0     H 6919   0.859  10.331   6.944  2.8755  0.2084 -0.1562
  792MOL0     H 6920   0.650  10.455   6.994  0.0379  1.8312 -0.9066
  793MOL0     O 6921   2.477   3.721   4.088  0.5227 -0.4087  1.0554
  793MOL0     C 6922   2.479   3.734   3.963  0.8333  0.4170 -0.0778
  793MOL0     O 6923   2.378   3.783   3.883  0.1285  0.4674 -0.1217
  793MOL0     C 6924   2.256   3.820   3.934 -0.0690 -0.1120 -0.6693
  793MOL0     C 6925   2.192   3.776   4.049  0.3094  0.5208  0.7217
  793MOL0     C 6926   2.067   3.830   4.095 -0.6501 -0.2823 -0.2310
  793MOL0     C 6927   2.020   3.949   4.033  0.3013 -0.2368 -0.6075
  793MOL0     O 6928   1.902   3.995   4.088 -0.1886 -0.5693 -0.0135
  793MOL0     C 6929   1.809   4.039   3.998  0.1191 -1.1842  0.4336
  793MOL0     C 6930   1.662   4.015   4.054 -0.1150 -0.3884  0.4442
  793MOL0     C 6931   1.610   4.126   4.143 -0.1835  0.0354  0.0948
  793MOL0     C 6932   1.459   4.122   4.176 -0.1507 -0.3593  0.1068
  793MOL0     C 6933   1.415   4.258   4.239 -0.2760  0.3664 -0.8426
  793MOL0     C 6934   1.291   4.272   4.321 -0.4076  0.4700  0.5084
  793MOL0     C 6935   1.261   4.418   4.343  0.1549  0.6549  0.5680
  793MOL0     C 6936   1.138   4.447   4.430  0.1448 -0.0529  0.1293
  793MOL0     N 6937   1.014   4.375   4.379  0.7706 -0.6696  0.3799
  793MOL0     C 6938   0.912   4.447   4.311 -0.3210  0.2664 -0.5375
  793MOL0     C 6939   0.806   4.351   4.312  0.1177  0.4019  0.6868
  793MOL0     C 6940   0.667   4.371   4.263  0.2307  0.5976 -0.6221
  793MOL0     C 6941   0.662   4.372   4.103 -0.1468  0.0454  0.3168
  793MOL0     C 6942   0.522   4.406   4.051 -0.6437  0.4081 -0.2212
  793MOL0     C 6943   0.417   4.316   4.106 -0.2821 -0.2174  0.5248
  793MOL0     O 6944   0.300   4.334   4.037  0.0490  0.3777 -0.3075
  793MOL0     C 6945   0.178   4.281   4.086 -0.0922  0.3250  0.2573
  793MOL0     C 6946   0.168   4.206   4.207  0.3818 -0.7013 -0.4295
  793MOL0     C 6947   0.040   4.176   4.255 -0.9054  0.2722 -0.0802
  793MOL0     C 6948   0.045   4.085   4.373 -0.0314  0.6356  0.4364
  793MOL0     C 6949  -0.081   4.218   4.190 -0.0104  0.3437  0.7963
  793MOL0     C 6950  -0.222   4.193   4.238 -1.0772 -0.5993  0.3239
  793MOL0     O 6951  -0.248   4.204   4.377 -0.1416  0.2228  0.4379
  793MOL0     C 6952  -0.372   4.156   4.413  0.2638  0.8505  0.3148
  793MOL0     C 6953  -0.444   4.247   4.486  0.4999 -0.0277  0.7984
  793MOL0     C 6954  -0.566   4.204   4.542 -0.5712 -0.2346 -0.4416
  793MOL0     C 6955  -0.613   4.072   4.533 -0.5717  0.5302  0.3312
  793MOL0     O 6956  -0.736   4.041   4.580  0.3257  0.1909  0.1469
  793MOL0     C 6957  -0.824   3.947   4.501  0.1095 -0.0970 -0.5245
  793MOL0     C 6958  -0.955   3.933   4.584  1.1255  0.2636  0.2993
  793MOL0     C 6959  -1.060   3.857   4.482  0.2370 -0.1371  0.3501
  793MOL0     C 6960  -1.181   3.802   4.563 -0.5918  0.2467  0.6807
  793MOL0     C 6961  -1.296   3.744   4.471 -0.3156  0.7868 -0.3741
  793MOL0     C 6962  -1.266   3.598   4.431  0.0957 -0.4809 -0.5560
  793MOL0     C 6963  -1.386   3.522   4.359  0.0925 -0.0636 -0.3114
  793MOL0     C 6964  -1.435   3.580   4.228 -0.5076 -0.4303  0.7657
  793MOL0    Cl 6965  -1.328   3.524   4.096 -0.3347 -0.4813 -0.2667
  793MOL0     C 6966  -0.537   3.982   4.462  0.7399  0.4169  0.1934
  793MOL0     C 6967  -0.420   4.022   4.401  0.6292  0.0884  0.9708
  793MOL0     O 6968  -0.309   4.164   4.154  0.7513 -0.0775 -0.6993
  793MOL0     C 6969  -0.067   4.300   4.074  0.2683  0.0390  0.1667
  793MOL0     C 6970   0.063   4.319   4.024  0.3226 -0.1792  0.0513
  793MOL0     N 6971   0.843   4.235   4.370 -0.6540  0.2547 -0.0362
  793MOL0     N 6972   0.958   4.258   4.424  0.6254  0.0517  0.2416
  793MOL0     C 6973   2.083   3.995   3.920  0.7187  0.4517  0.5074
  793MOL0     C 6974   2.190   3.927   3.871  0.0345 -0.1571  0.4220
  793MOL0     C 6975   2.610   3.705   3.901 -0.5916  0.2002  0.0099
  793MOL0     C 6976   2.647   3.749   3.771  0.3065  0.1454 -0.2205
  793MOL0     C 6977   2.770   3.719   3.719  0.7248  0.5453  0.3240
  793MOL0     C 6978   2.867   3.655   3.790 -0.1430  0.7513  0.3847
  793MOL0     O 6979   2.993   3.638   3.728 -0.5578 -0.3628  0.2635
  793MOL0     C 6980   3.097   3.559   3.798  0.0881  0.0317 -0.3166
  793MOL0     C 6981   3.210   3.531   3.697  0.2397  0.0079 -0.3224
  793MOL0     C 6982   3.348   3.509   3.748  0.4293  0.4521 -0.0098
  793MOL0     C 6983   3.463   3.536   3.649  0.6385 -0.0801  0.0443
  793MOL0     C 6984   3.590   3.537   3.730 -0.5358  0.4131  1.2045
  793MOL0     C 6985   3.689   3.536   3.796 -0.3854 -0.1708 -0.4984
  793MOL0     C 6986   2.835   3.617   3.920 -0.2180  0.8423  0.0724
  793MOL0     C 6987   2.712   3.643   3.975  0.5974 -0.2030  0.7107
  793MOL0     H 6988   2.233   3.703   4.118 -1.4379 -0.5232  0.7327
  793MOL0     H 6989   2.023   3.781   4.181 -0.8395  1.4429  0.6975
  793MOL0     H 6990   1.826   4.141   3.961  0.6415 -1.4591 -0.1019
  793MOL0     H 6991   1.820   3.974   3.911  0.4407  0.4172 -0.7621
  793MOL0     H 6992   1.589   4.012   3.973 -0.3430  2.1686  0.4556
  793MOL0     H 6993   1.663   3.920   4.107 -1.0891  0.1151  1.4145
  793MOL0     H 6994   1.660   4.120   4.240 -1.4565 -1.7248  0.6910
  793MOL0     H 6995   1.616   4.225   4.096 -0.0737 -0.9103 -2.0113
  793MOL0     H 6996   1.393   4.098   4.092 -2.4699  0.1777  1.6706
  793MOL0     H 6997   1.455   4.039   4.246 -0.0969 -1.6322 -1.3388
  793MOL0     H 6998   1.497   4.303   4.296 -1.3126  0.7515  0.3858
  793MOL0     H 6999   1.407   4.328   4.155  0.8602  1.3553 -0.1723
  793MOL0     H 7000   1.204   4.230   4.269 -0.8547  0.7792  0.9868
  793MOL0     H 7001   1.313   4.215   4.412  0.2341 -0.3472 -0.1480
  793MOL0     H 7002   1.342   4.463   4.401  0.7321 -0.3929  0.5978
  793MOL0     H 7003   1.247   4.467   4.246  0.7830 -0.8956 -0.3516
  793MOL0     H 7004   1.118   4.554   4.433  2.0854  0.3314  0.9029
  793MOL0     H 7005   1.161   4.420   4.534  0.2158  1.2428  0.4647
  793MOL0     H 7006   0.914   4.548   4.272  1.5892 -0.5085 -2.7318
  793MOL0     H 7007   0.604   4.293   4.305 -2.4033  1.7131 -2.2543
  793MOL0     H 7008   0.630   4.469   4.294 -1.3308  0.3704 -1.6417
  793MOL0     H 7009   0.698   4.283   4.051  0.1913  0.2745  0.1562
  793MOL0     H 7010   0.724   4.455   4.069 -0.0488  0.4504  1.4466
  793MOL0     H 7011   0.529   4.398   3.942 -0.4811 -2.9680 -0.0731
  793MOL0     H 7012   0.494   4.510   4.070  2.1692  1.5014 -1.5402
  793MOL0     H 7013   0.404   4.331   4.213 -2.3411 -1.8080  0.5705
  793MOL0     H 7014   0.463   4.217   4.098  3.1464  1.2343  0.3980
  793MOL0     H 7015   0.258   4.177   4.260  1.7312 -1.0349 -2.7965
  793MOL0     H 7016   0.142   4.041   4.399 -1.7253 -3.8072 -0.0019
  793MOL0     H 7017   0.009   4.144   4.457  1.1900  0.5857  1.0167
  793MOL0     H 7018  -0.011   3.992   4.359 -1.1086  1.3899 -0.4462
  793MOL0     H 7019  -0.405   4.347   4.508 -1.7294  1.0473  0.1653
  793MOL0     H 7020  -0.634   4.275   4.587  1.4000  0.6755  1.2332
  793MOL0     H 7021  -0.850   3.979   4.400  0.7276 -0.7511 -0.8946
  793MOL0     H 7022  -0.771   3.853   4.486 -1.3011 -0.7782 -1.4573
  793MOL0     H 7023  -0.937   3.879   4.677 -0.0174  3.0330  2.2526
  793MOL0     H 7024  -1.013   4.022   4.609  0.1606  0.1307 -1.2817
  793MOL0     H 7025  -1.009   3.796   4.407  0.8640  1.9011 -0.9833
  793MOL0     H 7026  -1.098   3.936   4.416 -1.2300 -0.5030  0.7180
  793MOL0     H 7027  -1.139   3.722   4.626 -1.3276 -0.6892  0.0268
  793MOL0     H 7028  -1.215   3.880   4.631 -0.4081 -1.4200  2.8134
  793MOL0     H 7029  -1.294   3.797   4.375  0.9409 -0.6033 -1.1528
  793MOL0     H 7030  -1.390   3.746   4.527  0.3406  0.4326  0.7609
  793MOL0     H 7031  -1.189   3.619   4.357 -1.3358  3.0183 -1.2212
  793MOL0     H 7032  -1.226   3.532   4.509 -0.7646  0.9288  1.1488
  793MOL0     H 7033  -1.465   3.511   4.435  0.8575  0.1113  0.5266
  793MOL0     H 7034  -1.349   3.422   4.335  0.6259  0.4410 -1.6707
  793MOL0     H 7035  -1.433   3.690   4.228  1.8387 -0.3580 -1.7349
  793MOL0     H 7036  -1.534   3.543   4.199 -0.2026  1.1198 -2.8118
  793MOL0     H 7037  -0.581   3.885   4.446  0.0097  0.5883  1.0810
  793MOL0     H 7038  -0.381   3.948   4.332 -4.1710 -0.5529 -1.4641
  793MOL0     H 7039  -0.155   4.335   4.021  1.1197  0.5646 -0.9365
  793MOL0     H 7040   0.055   4.379   3.934 -0.9386 -0.1119  0.1896
  793MOL0     H 7041   2.029   4.077   3.875 -1.8481 -0.2772  2.0357
  793MOL0     H 7042   2.239   3.985   3.793  1.3045 -0.3317  1.0624
  793MOL0     H 7043   2.572   3.791   3.704 -0.4065 -1.0109 -0.1804
  793MOL0     H 7044   2.810   3.757   3.625 -0.6343 -0.3125 -0.6585
  793MOL0     H 7045   3.130   3.616   3.885 -2.1065  0.3743  0.3735
  793MOL0     H 7046   3.060   3.466   3.843  1.8875  0.4384  2.2013
  793MOL0     H 7047   3.218   3.622   3.637 -0.1089  1.7225  2.0792
  793MOL0     H 7048   3.182   3.452   3.626 -0.7946  1.7691 -1.9493
  793MOL0     H 7049   3.342   3.406   3.784 -0.7694  0.7129  0.6026
  793MOL0     H 7050   3.360   3.572   3.836  1.3072 -0.8435  0.8304
  793MOL0     H 7051   3.445   3.631   3.598 -2.3265 -0.5009  0.1496
  793MOL0     H 7052   3.477   3.458   3.575 -1.0210  1.0241 -1.5269
  793MOL0     H 7053   3.778   3.543   3.855 -1.1103  3.0650  0.3963
  793MOL0     H 7054   2.912   3.568   3.978  0.7521  0.7685 -1.2375
  793MOL0     H 7055   2.699   3.614   4.079  0.9840 -4.0478 -0.1585
  794MOL0     O 7056   5.862   8.753   2.974  0.5505 -0.3881  0.8551
  794MOL0     C 7057   5.810   8.754   2.863 -0.0624 -0.3054 -0.4134
  794MOL0     O 7058   5.687   8.696   2.832 -1.2492 -0.4862 -0.6827
  794MOL0     C 7059   5.627   8.630   2.935  0.6442  0.1287  0.4517
  794MOL0     C 7060   5.491   8.669   2.952  0.4134  1.1510 -0.1322
  794MOL0     C 7061   5.405   8.603   3.042  0.3805 -1.0369  0.1197
  794MOL0     C 7062   5.450   8.501   3.125  0.0024  0.3824  0.2444
  794MOL0     O 7063   5.365   8.459   3.228 -0.4415 -0.1320  0.5304
  794MOL0     C 7064   5.412   8.362   3.324 -0.9318 -0.7051 -0.4096
  794MOL0     C 7065   5.303   8.362   3.439  0.4092 -0.4746 -0.6774
  794MOL0     C 7066   5.166   8.315   3.394  0.1909 -0.5637  0.0851
  794MOL0     C 7067   5.056   8.316   3.500 -0.0168  0.4380 -0.7769
  794MOL0     C 7068   4.915   8.315   3.445  0.0800  0.5422  0.1777
  794MOL0     C 7069   4.813   8.328   3.555  0.3777 -0.2635 -0.1514
  794MOL0     C 7070   4.671   8.286   3.500 -0.5279 -0.6619 -0.0774
  794MOL0     C 7071   4.561   8.288   3.610  0.0675 -0.5953  0.7625
  794MOL0     N 7072   4.418   8.288   3.551  0.4003  0.8258 -0.4672
  794MOL0     C 7073   4.312   8.236   3.615  0.6436 -0.3717  0.0093
  794MOL0     C 7074   4.205   8.256   3.536 -0.3385  0.1255 -0.8456
  794MOL0     C 7075   4.065   8.208   3.558  1.1030  0.3866 -0.2803
  794MOL0     C 7076   3.962   8.321   3.587 -0.7463  0.5166  0.6669
  794MOL0     C 7077   3.991   8.386   3.721 -0.4247 -0.8087  0.6156
  794MOL0     C 7078   3.868   8.473   3.775  0.1090 -0.2764 -0.0259
  794MOL0     O 7079   3.749   8.398   3.793  0.1608  0.7568  1.2440
  794MOL0     C 7080   3.642   8.481   3.779  0.2883  0.0278 -0.2861
  794MOL0     C 7081   3.544   8.455   3.683  0.8101 -0.7691 -0.2545
  794MOL0     C 7082   3.418   8.524   3.691  0.6519  0.2605 -0.0202
  794MOL0     C 7083   3.318   8.468   3.590 -1.1525  0.8022 -0.1567
  794MOL0     C 7084   3.392   8.614   3.790 -0.8477  0.3049 -0.3047
  794MOL0     C 7085   3.273   8.701   3.806 -0.2328 -0.7384  0.3297
  794MOL0     O 7086   3.255   8.763   3.931 -0.3745 -0.2577 -0.1166
  794MOL0     C 7087   3.130   8.817   3.943 -0.9637  0.6285 -0.6163
  794MOL0     C 7088   3.020   8.734   3.977  0.8050 -0.3434  0.4497
  794MOL0     C 7089   2.892   8.799   4.006 -0.1436 -0.6650 -0.2343
  794MOL0     C 7090   2.877   8.943   3.979 -0.3309  0.6640 -1.0729
  794MOL0     O 7091   2.745   8.972   3.992  0.3715 -0.0660 -0.7900
  794MOL0     C 7092   2.692   9.086   3.922  0.1142 -1.0576  0.6254
  794MOL0     C 7093   2.548   9.117   3.958  0.3049 -0.6631 -0.1254
  794MOL0     C 7094   2.452   8.999   3.952  0.1620 -0.0273 -1.0742
  794MOL0     C 7095   2.316   9.045   4.001  0.5191  0.6261 -0.3258
  794MOL0     C 7096   2.248   8.918   4.058  0.3526 -0.4151 -0.3072
  794MOL0     C 7097   2.102   8.955   4.104  0.3298 -0.1137 -0.4768
  794MOL0     C 7098   2.028   8.836   4.178 -0.7392 -0.9668  0.2197
  794MOL0     C 7099   1.942   8.897   4.283 -0.3256 -0.5879  0.1956
  794MOL0    Cl 7100   1.856   8.777   4.385 -0.1079 -0.1265 -0.1188
  794MOL0     C 7101   2.990   9.024   3.940  0.6230 -0.3941  0.0777
  794MOL0     C 7102   3.110   8.957   3.920  0.1134  0.5110 -0.8963
  794MOL0     O 7103   3.196   8.712   3.707 -0.1393 -0.2708 -0.2577
  794MOL0     C 7104   3.494   8.638   3.884 -0.0236  0.1176 -1.0080
  794MOL0     C 7105   3.617   8.570   3.876  0.2842 -0.7809 -0.5648
  794MOL0     N 7106   4.246   8.329   3.427  0.3460  0.6462  0.2012
  794MOL0     N 7107   4.375   8.344   3.433 -0.0668  0.1765 -0.1973
  794MOL0     C 7108   5.588   8.454   3.100  0.3007 -0.2309 -0.4649
  794MOL0     C 7109   5.672   8.515   3.009 -0.9954 -1.0254 -0.1779
  794MOL0     C 7110   5.871   8.863   2.768  0.9323  0.0392 -0.5670
  794MOL0     C 7111   6.007   8.880   2.759  0.2219  0.3682 -0.3573
  794MOL0     C 7112   6.066   8.971   2.666 -1.1975  0.0368  0.3756
  794MOL0     C 7113   5.982   9.028   2.574  0.6541 -0.7267  0.3503
  794MOL0     O 7114   6.029   9.109   2.477 -0.6223  0.1851  0.2897
  794MOL0     C 7115   6.034   9.042   2.346  0.1936 -0.3761 -0.3791
  794MOL0     C 7116   5.959   9.124   2.238 -0.4260 -0.5927  0.3960
  794MOL0     C 7117   5.878   9.040   2.133  0.2445 -0.5178  0.1097
  794MOL0     C 7118   5.967   8.968   2.029  0.3383  0.8955  0.0466
  794MOL0     C 7119   6.030   8.854   2.092  1.3306 -0.2612  0.0140
  794MOL0     C 7120   6.087   8.751   2.123 -1.1438 -0.0521  0.4220
  794MOL0     C 7121   5.847   9.012   2.575  0.7074  0.3066  1.2325
  794MOL0     C 7122   5.789   8.924   2.676 -0.5289 -0.5890 -0.4598
  794MOL0     H 7123   5.449   8.744   2.887  1.1282  1.2240 -0.5195
  794MOL0     H 7124   5.301   8.631   3.055 -0.0326 -2.4091  0.0361
  794MOL0     H 7125   5.419   8.263   3.280 -0.1410 -0.2202 -1.4051
  794MOL0     H 7126   5.504   8.394   3.373 -2.1154 -0.2486  1.6415
  794MOL0     H 7127   5.342   8.294   3.516 -0.3108 -0.5354 -0.3581
  794MOL0     H 7128   5.298   8.460   3.486  1.9620 -0.9609  0.5830
  794MOL0     H 7129   5.142   8.383   3.312  0.3328  2.5247  2.4244
  794MOL0     H 7130   5.187   8.218   3.348  0.0099  1.1828 -4.1504
  794MOL0     H 7131   5.068   8.237   3.575 -1.0268  1.2004  0.2287
  794MOL0     H 7132   5.060   8.413   3.550 -0.0261  0.3442 -0.5938
  794MOL0     H 7133   4.912   8.407   3.386 -0.4764 -0.1196 -0.8616
  794MOL0     H 7134   4.897   8.229   3.380 -3.8260  0.6085  0.9564
  794MOL0     H 7135   4.841   8.259   3.635  1.9759 -0.6577 -0.9977
  794MOL0     H 7136   4.806   8.426   3.602 -2.4035 -0.5333  0.1331
  794MOL0     H 7137   4.653   8.365   3.426 -1.5996 -0.5512  0.2780
  794MOL0     H 7138   4.674   8.196   3.439  1.8312  0.0463 -1.1104
  794MOL0     H 7139   4.578   8.384   3.659  1.4000 -1.1213  1.3902
  794MOL0     H 7140   4.578   8.207   3.682  0.4637 -0.1370  1.1888
  794MOL0     H 7141   4.303   8.188   3.712 -2.3957 -1.8566 -0.8611
  794MOL0     H 7142   4.025   8.161   3.468 -3.1584  0.5448  1.2762
  794MOL0     H 7143   4.067   8.131   3.635 -0.7220  0.0366 -0.5353
  794MOL0     H 7144   3.859   8.284   3.590 -0.1616 -1.1797  2.2876
  794MOL0     H 7145   3.973   8.393   3.506  0.8583 -1.6405 -1.1586
  794MOL0     H 7146   4.073   8.459   3.710 -1.7816  1.1719  2.7968
  794MOL0     H 7147   4.015   8.313   3.798 -1.0891 -2.1827 -0.4220
  794MOL0     H 7148   3.849   8.560   3.711 -1.0613 -0.8781 -0.5091
  794MOL0     H 7149   3.899   8.513   3.872  1.1318  0.0629 -0.4778
  794MOL0     H 7150   3.549   8.382   3.603 -0.5873  0.4137 -1.4819
  794MOL0     H 7151   3.304   8.361   3.604 -1.1641  0.9676  1.2062
  794MOL0     H 7152   3.219   8.515   3.590 -0.9210  1.3011  0.4016
  794MOL0     H 7153   3.362   8.486   3.491 -1.0793 -1.8775 -0.6762
  794MOL0     H 7154   3.041   8.632   4.008 -2.2139 -0.6875  1.7782
  794MOL0     H 7155   2.805   8.744   4.041 -1.3846  0.0087 -2.0727
  794MOL0     H 7156   2.756   9.173   3.938 -1.3846  0.1609  0.1923
  794MOL0     H 7157   2.696   9.050   3.818  0.4828 -0.0874  0.2961
  794MOL0     H 7158   2.550   9.166   4.056  0.5731  0.2708 -0.5848
  794MOL0     H 7159   2.512   9.191   3.886 -1.4334 -1.8721 -0.5606
  794MOL0     H 7160   2.489   8.922   4.020 -0.4454  1.5061  1.1186
  794MOL0     H 7161   2.454   8.955   3.852 -3.4480 -4.8634  0.6082
  794MOL0     H 7162   2.327   9.111   4.088 -1.1061  0.2843  0.1879
  794MOL0     H 7163   2.243   9.078   3.926 -2.0244 -0.1895  1.6277
  794MOL0     H 7164   2.312   8.871   4.134  3.1912  2.3538 -0.7637
  794MOL0     H 7165   2.240   8.843   3.979 -1.4676 -0.4152 -0.1706
  794MOL0     H 7166   2.119   9.030   4.182  0.1404 -1.9868  1.4453
  794MOL0     H 7167   2.041   8.996   4.023 -0.2492  0.1693  0.1023
  794MOL0     H 7168   2.102   8.768   4.222 -1.0415  0.0600  2.4341
  794MOL0     H 7169   1.971   8.770   4.112 -2.2903 -0.2904  0.8537
  794MOL0     H 7170   1.872   8.965   4.234  1.6837  0.5530 -1.2417
  794MOL0     H 7171   1.995   8.949   4.363 -3.0672  2.0814  0.4654
  794MOL0     H 7172   2.973   9.125   3.902 -0.1096 -1.1386 -1.7068
  794MOL0     H 7173   3.200   9.012   3.897 -0.6150  1.1211 -2.4831
  794MOL0     H 7174   3.479   8.720   3.954 -1.3623  0.5471 -1.7578
  794MOL0     H 7175   3.689   8.581   3.957  0.3449 -3.2865 -0.1864
  794MOL0     H 7176   5.628   8.375   3.163  1.6460  0.4219 -0.4698
  794MOL0     H 7177   5.776   8.486   2.995 -0.6158  0.9541 -1.9551
  794MOL0     H 7178   6.075   8.823   2.822  1.0721 -0.7046 -2.1874
  794MOL0     H 7179   6.173   8.989   2.668 -0.8578 -1.8880  0.9326
  794MOL0     H 7180   6.137   9.025   2.312  0.3246 -1.7822  0.6516
  794MOL0     H 7181   5.984   8.945   2.357 -1.5308  0.5994  0.9129
  794MOL0     H 7182   6.033   9.186   2.188 -1.3212  1.1771  1.1732
  794MOL0     H 7183   5.877   9.186   2.274  2.0410  2.0712  1.8723
  794MOL0     H 7184   5.813   9.107   2.076 -1.2704 -2.4712 -0.6082
  794MOL0     H 7185   5.812   8.968   2.183 -0.4226 -1.5595 -2.1275
  794MOL0     H 7186   6.038   9.042   1.990  0.8068  1.1217  1.2842
  794MOL0     H 7187   5.908   8.939   1.942  1.7224  1.5870 -1.1618
  794MOL0     H 7188   6.139   8.663   2.154  4.2666  3.5166  3.1140
  794MOL0     H 7189   5.787   9.061   2.499  3.6461  2.2435 -0.0292
  794MOL0     H 7190   5.682   8.914   2.685 -0.6827 -2.5586 -3.1891
  795MOL0     O 7191   9.288   9.281   6.943 -0.3005  0.0974 -0.1988
  795MOL0     C 7192   9.323   9.370   6.870 -0.4559 -0.7753 -0.5463
  795MOL0     O 7193   9.260   9.488   6.859 -0.2894 -0.3259  0.3264
  795MOL0     C 7194   9.164   9.528   6.944 -0.3289 -0.2922 -0.4906
  795MOL0     C 7195   9.196   9.558   7.074 -0.4264  0.3408 -0.4406
  795MOL0     C 7196   9.088   9.599   7.164  0.1800 -0.0291 -0.3222
  795MOL0     C 7197   8.957   9.627   7.126 -0.6927  0.0969  0.5079
  795MOL0     O 7198   8.865   9.700   7.198  0.1896 -0.8529 -0.2692
  795MOL0     C 7199   8.874   9.698   7.334  0.3597 -0.4317  0.0853
  795MOL0     C 7200   8.757   9.779   7.406  0.4071  0.2769 -0.4914
  795MOL0     C 7201   8.623   9.710   7.390  0.4351 -0.0951  0.3415
  795MOL0     C 7202   8.500   9.770   7.467  0.0595 -0.3689  0.0913
  795MOL0     C 7203   8.525   9.795   7.616  0.3174 -0.4143  0.0475
  795MOL0     C 7204   8.410   9.806   7.710  0.2235  0.2561 -0.2826
  795MOL0     C 7205   8.372   9.664   7.766 -0.5089 -0.0017  0.1000
  795MOL0     C 7206   8.254   9.675   7.861  0.1058  0.1025  1.1661
  795MOL0     N 7207   8.130   9.713   7.797  0.1012 -0.1134  0.0672
  795MOL0     C 7208   8.038   9.620   7.753  0.0130  0.0225  1.3680
  795MOL0     C 7209   7.953   9.695   7.681 -0.2972  0.1051  0.0034
  795MOL0     C 7210   7.838   9.635   7.595 -0.4514 -0.3110 -0.5318
  795MOL0     C 7211   7.719   9.586   7.677  0.8928 -0.1123  0.5304
  795MOL0     C 7212   7.583   9.579   7.600 -0.6873 -0.2235  0.7316
  795MOL0     C 7213   7.491   9.474   7.658 -0.0973 -0.4317  0.4150
  795MOL0     O 7214   7.551   9.347   7.623  0.0340  0.1324  0.2336
  795MOL0     C 7215   7.451   9.246   7.607 -0.8119  0.4498 -0.2860
  795MOL0     C 7216   7.340   9.252   7.519 -0.6418  0.8317 -0.5039
  795MOL0     C 7217   7.241   9.149   7.512 -0.5338 -0.2567 -0.1978
  795MOL0     C 7218   7.126   9.181   7.421 -0.4817 -0.1016 -0.1315
  795MOL0     C 7219   7.254   9.034   7.593 -0.2188 -0.1382 -0.9166
  795MOL0     C 7220   7.148   8.923   7.612 -1.1904 -0.3566  0.0518
  795MOL0     O 7221   7.155   8.852   7.726 -0.3777  0.0242  1.0333
  795MOL0     C 7222   7.060   8.744   7.744 -0.2646 -0.3320 -0.4722
  795MOL0     C 7223   6.918   8.765   7.748  0.4081  0.1112 -0.8386
  795MOL0     C 7224   6.832   8.656   7.773 -0.5208 -0.4753  0.8829
  795MOL0     C 7225   6.880   8.530   7.805  0.4795 -0.6895 -0.2130
  795MOL0     O 7226   6.788   8.439   7.856  0.1576 -0.1651 -0.0861
  795MOL0     C 7227   6.808   8.301   7.836 -0.3461 -0.4572 -0.5025
  795MOL0     C 7228   6.682   8.218   7.871  0.3397 -0.0173  0.7679
  795MOL0     C 7229   6.556   8.267   7.789 -0.0734 -0.4875  0.1125
  795MOL0     C 7230   6.435   8.178   7.836  0.1330 -0.1198 -0.2464
  795MOL0     C 7231   6.307   8.214   7.761  0.6861  0.3569  0.1889
  795MOL0     C 7232   6.180   8.132   7.789  0.3870  0.8079  0.7193
  795MOL0     C 7233   6.194   7.999   7.703 -0.1802  0.2838 -0.0970
  795MOL0     C 7234   6.061   7.934   7.680 -1.6002 -0.4777  0.2055
  795MOL0    Cl 7235   5.971   7.902   7.827  0.4562  0.2853 -0.0642
  795MOL0     C 7236   7.021   8.515   7.819 -0.0306  0.3907  0.5532
  795MOL0     C 7237   7.111   8.619   7.784  0.4317  0.5006  0.4433
  795MOL0     O 7238   7.062   8.897   7.528 -0.2194  0.0751  0.3742
  795MOL0     C 7239   7.367   9.026   7.673  0.1703  0.1729  0.8242
  795MOL0     C 7240   7.465   9.129   7.680 -0.9461 -0.5471  0.3381
  795MOL0     N 7241   7.984   9.823   7.706  0.2031  0.4123 -0.1260
  795MOL0     N 7242   8.085   9.839   7.771 -0.0124 -1.2929  0.1549
  795MOL0     C 7243   8.932   9.600   6.988 -0.5451  0.3569 -0.2988
  795MOL0     C 7244   9.034   9.549   6.904 -0.2120  0.3565  0.1637
  795MOL0     C 7245   9.429   9.341   6.773  0.5133  0.9333 -0.8207
  795MOL0     C 7246   9.480   9.214   6.758 -0.1099  0.0748 -0.1893
  795MOL0     C 7247   9.583   9.181   6.666  0.4914 -0.0441 -0.4144
  795MOL0     C 7248   9.624   9.282   6.576 -0.4735 -0.1322  0.3644
  795MOL0     O 7249   9.728   9.259   6.489  0.5199 -0.2366  0.3150
  795MOL0     C 7250   9.723   9.323   6.360 -0.6865  0.4287 -0.2068
  795MOL0     C 7251   9.665   9.246   6.241  0.3349  0.0751  0.0975
  795MOL0     C 7252   9.722   9.100   6.222  0.0878  1.1159  0.0529
  795MOL0     C 7253   9.704   9.046   6.080 -0.3419 -0.1746  0.1024
  795MOL0     C 7254   9.565   9.059   6.038 -0.4322  0.0961  0.0174
  795MOL0     C 7255   9.444   9.054   6.008  0.0600 -0.1499 -0.7728
  795MOL0     C 7256   9.563   9.409   6.595  0.0280 -0.5141  0.4795
  795MOL0     C 7257   9.464   9.439   6.685 -0.2466 -0.1453 -0.9862
  795MOL0     H 7258   9.297   9.567   7.112 -0.0634  1.1932 -1.5440
  795MOL0     H 7259   9.115   9.605   7.269 -1.9144 -0.2097  0.2781
  795MOL0     H 7260   8.880   9.594   7.367 -0.4272 -0.1560  1.1314
  795MOL0     H 7261   8.967   9.747   7.366  1.1506 -0.7924 -1.5626
  795MOL0     H 7262   8.797   9.777   7.507 -1.4547 -5.3062  0.5054
  795MOL0     H 7263   8.738   9.875   7.357 -4.7422 -0.3430 -0.3423
  795MOL0     H 7264   8.597   9.710   7.284 -1.9911 -0.4823  0.8693
  795MOL0     H 7265   8.645   9.605   7.409  3.2042  0.3140 -0.1555
  795MOL0     H 7266   8.452   9.853   7.414 -2.6083 -0.6822  1.8462
  795MOL0     H 7267   8.430   9.686   7.463 -1.7421  0.9425  2.2031
  795MOL0     H 7268   8.595   9.716   7.643 -1.9687 -1.8743  2.1389
  795MOL0     H 7269   8.587   9.883   7.631  1.6644 -1.1158 -1.1617
  795MOL0     H 7270   8.434   9.875   7.792 -0.5834  0.7608 -0.4682
  795MOL0     H 7271   8.320   9.851   7.668 -0.4319 -0.3947  0.3766
  795MOL0     H 7272   8.355   9.598   7.680 -1.8637 -0.2106  0.5226
  795MOL0     H 7273   8.453   9.620   7.825  0.3056  0.0703 -0.9229
  795MOL0     H 7274   8.282   9.744   7.941 -0.2377 -0.0832  1.4481
  795MOL0     H 7275   8.222   9.582   7.909  0.5992 -0.5124  0.3445
  795MOL0     H 7276   8.046   9.512   7.761  0.3403 -0.1858 -0.9009
  795MOL0     H 7277   7.798   9.708   7.524 -0.0272  1.2333  0.7428
  795MOL0     H 7278   7.876   9.548   7.540  1.1084 -0.3519  0.5413
  795MOL0     H 7279   7.702   9.657   7.759  0.3058 -2.2734  2.3737
  795MOL0     H 7280   7.743   9.485   7.709 -1.2382 -1.7581 -2.5718
  795MOL0     H 7281   7.596   9.548   7.496 -1.6180 -1.9352  1.1055
  795MOL0     H 7282   7.528   9.674   7.602  3.5087  2.6765 -2.3675
  795MOL0     H 7283   7.389   9.478   7.620  0.1907 -2.7981 -0.7916
  795MOL0     H 7284   7.489   9.483   7.767  2.1023  0.5342  0.4239
  795MOL0     H 7285   7.325   9.341   7.458 -1.2322  1.4896  0.5689
  795MOL0     H 7286   7.068   9.252   7.481  1.1781  1.3804 -0.1733
  795MOL0     H 7287   7.160   9.234   7.332 -1.6095  0.4553 -0.2468
  795MOL0     H 7288   7.061   9.099   7.391  1.7047 -2.2401  0.6655
  795MOL0     H 7289   6.882   8.865   7.729  1.3477  0.5920 -0.1552
  795MOL0     H 7290   6.724   8.653   7.777 -0.6260  1.4402  0.4758
  795MOL0     H 7291   6.843   8.281   7.734 -1.0647  0.9851 -1.0597
  795MOL0     H 7292   6.894   8.271   7.897 -1.0191  1.6695  1.6416
  795MOL0     H 7293   6.701   8.116   7.838 -0.8236  0.6417 -2.4067
  795MOL0     H 7294   6.658   8.218   7.977  2.1979 -2.1536  1.2454
  795MOL0     H 7295   6.559   8.261   7.680 -3.0582 -0.1258 -0.0886
  795MOL0     H 7296   6.543   8.373   7.812  0.2545 -0.5293  0.4997
  795MOL0     H 7297   6.449   8.071   7.813 -0.1203 -0.6557  1.9246
  795MOL0     H 7298   6.426   8.173   7.945  0.6465  0.4370 -0.1752
  795MOL0     H 7299   6.311   8.212   7.652 -0.8862 -1.3496  0.1099
  795MOL0     H 7300   6.282   8.318   7.786  1.8103  1.1330 -1.7216
  795MOL0     H 7301   6.168   8.106   7.894  0.5390  0.7394  0.7195
  795MOL0     H 7302   6.097   8.195   7.756  0.4913  1.3912  1.5473
  795MOL0     H 7303   6.268   7.928   7.740  0.1295  1.7458  2.2684
  795MOL0     H 7304   6.224   8.033   7.603 -1.1732  3.5075  0.5711
  795MOL0     H 7305   6.089   7.834   7.644 -0.3966  0.2136 -0.8643
  795MOL0     H 7306   6.005   7.986   7.602 -1.5293 -0.0923  0.4121
  795MOL0     H 7307   7.069   8.421   7.846  0.9837  0.7359 -0.0233
  795MOL0     H 7308   7.217   8.610   7.805  0.3671 -0.9287  0.2435
  795MOL0     H 7309   7.378   8.931   7.724 -0.0615 -0.5390 -0.4186
  795MOL0     H 7310   7.555   9.113   7.739 -0.9159  1.1389  0.7979
  795MOL0     H 7311   8.835   9.626   6.948 -1.9382 -1.7722  1.4466
  795MOL0     H 7312   9.008   9.520   6.802  0.7638  1.9421 -0.5762
  795MOL0     H 7313   9.467   9.133   6.830  1.1259  2.3027  2.7076
  795MOL0     H 7314   9.628   9.083   6.653  0.2818 -0.0977 -0.7686
  795MOL0     H 7315   9.679   9.423   6.364  1.5409  1.4202  1.5247
  795MOL0     H 7316   9.827   9.339   6.329 -0.2811  0.9617  1.3765
  795MOL0     H 7317   9.676   9.296   6.144 -2.6007 -0.5547 -0.6734
  795MOL0     H 7318   9.557   9.240   6.260  0.5639  0.0705  1.5000
  795MOL0     H 7319   9.671   9.039   6.297  0.1924  3.6872  2.4104
  795MOL0     H 7320   9.825   9.114   6.254  0.3342 -0.8805  0.2512
  795MOL0     H 7321   9.729   8.940   6.070 -2.0873 -0.4442 -2.3495
  795MOL0     H 7322   9.762   9.104   6.007 -3.4329  0.3662 -2.1004
  795MOL0     H 7323   9.348   9.048   5.961  0.1430  0.9614 -1.1150
  795MOL0     H 7324   9.587   9.487   6.523 -0.0487 -0.9723 -0.0452
  795MOL0     H 7325   9.440   9.545   6.692 -0.0190  0.0082 -2.2857
  796MOL0     O 7326   7.345   6.249   8.048  0.1944 -0.2768 -0.8873
  796MOL0     C 7327   7.373   6.299   8.156 -0.6813 -0.1258 -0.0916
  796MOL0     O 7328   7.297   6.399   8.226  0.2743  0.5137  0.0975
  796MOL0     C 7329   7.170   6.419   8.189  0.4841 -0.4982  0.3160
  796MOL0     C 7330   7.123   6.462   8.066 -0.7579 -0.8290  0.8188
  796MOL0     C 7331   6.988   6.491   8.046 -0.3899  0.7744 -0.4262
  796MOL0     C 7332   6.900   6.478   8.157  0.0252 -0.0417  0.2090
  796MOL0     O 7333   6.767   6.513   8.135 -1.0612  0.1912  0.2189
  796MOL0     C 7334   6.673   6.495   8.242  0.1909  0.7349 -0.8198
  796MOL0     C 7335   6.532   6.529   8.204  1.5374 -0.6150  0.3719
  796MOL0     C 7336   6.444   6.428   8.118 -0.3106  0.1671 -0.2844
  796MOL0     C 7337   6.453   6.472   7.974  0.4776  0.0623  0.3713
  796MOL0     C 7338   6.346   6.412   7.882  0.0736 -0.1396 -0.7697
  796MOL0     C 7339   6.351   6.465   7.734  0.2880  0.0740 -0.2477
  796MOL0     C 7340   6.486   6.457   7.662  0.7648  0.6951 -0.0738
  796MOL0     C 7341   6.523   6.306   7.628 -0.4560 -0.5410  0.0962
  796MOL0     N 7342   6.424   6.229   7.561 -0.0089  0.3334  0.5409
  796MOL0     C 7343   6.354   6.254   7.448  0.8429  0.4301  0.8031
  796MOL0     C 7344   6.263   6.154   7.430  0.4647  0.2624 -0.2120
  796MOL0     C 7345   6.158   6.148   7.326 -0.3385  0.8993  0.2730
  796MOL0     C 7346   6.046   6.052   7.354  0.1231 -0.7336  0.7764
  796MOL0     C 7347   5.940   6.037   7.247 -0.7159 -0.6792  0.2918
  796MOL0     C 7348   5.817   5.959   7.292  0.1472  0.0993 -0.7932
  796MOL0     O 7349   5.734   6.037   7.381  0.1933 -0.0728 -0.5162
  796MOL0     C 7350   5.599   5.999   7.414  0.4130 -1.0770  0.8672
  796MOL0     C 7351   5.550   5.877   7.371  0.5593  0.6942 -0.0555
  796MOL0     C 7352   5.418   5.830   7.394  0.9133 -0.8460 -0.7044
  796MOL0     C 7353   5.370   5.705   7.327  0.2982  0.2714  0.2503
  796MOL0     C 7354   5.333   5.916   7.463 -0.0652  0.2320 -0.1634
  796MOL0     C 7355   5.197   5.891   7.499  0.4209 -1.1129  0.3918
  796MOL0     O 7356   5.144   5.993   7.575  0.1146  0.1011 -0.4311
  796MOL0     C 7357   5.006   6.008   7.608 -0.8561  0.5788 -0.1071
  796MOL0     C 7358   4.904   5.957   7.533  0.6174 -1.5502 -0.2173
  796MOL0     C 7359   4.771   5.970   7.585  0.5241  0.3801  0.7416
  796MOL0     C 7360   4.744   6.046   7.693 -0.2130  0.4361 -0.2294
  796MOL0     O 7361   4.619   6.062   7.750 -0.5865  0.4112  0.0315
  796MOL0     C 7362   4.497   6.026   7.669  0.2155 -0.6130  0.4509
  796MOL0     C 7363   4.391   6.073   7.774 -0.4678 -0.0691  0.9628
  796MOL0     C 7364   4.251   6.017   7.761 -0.9771 -0.4363 -0.1117
  796MOL0     C 7365   4.148   6.100   7.832  0.0756  0.8258  0.6146
  796MOL0     C 7366   4.001   6.064   7.800  0.3016  0.3404  0.6240
  796MOL0     C 7367   3.899   6.184   7.822  0.8011  0.1097 -0.4651
  796MOL0     C 7368   3.933   6.307   7.736 -0.9053  0.0582 -0.0981
  796MOL0     C 7369   3.813   6.408   7.739 -0.3025 -0.7569  0.4349
  796MOL0    Cl 7370   3.703   6.395   7.600 -0.2066 -0.1070 -0.1379
  796MOL0     C 7371   4.848   6.095   7.766  0.2788 -0.5786  0.0685
  796MOL0     C 7372   4.980   6.077   7.726 -0.1101  0.0253  0.1059
  796MOL0     O 7373   5.137   5.789   7.469  0.8198 -0.0299  0.0695
  796MOL0     C 7374   5.379   6.043   7.496  0.0754  0.1473  0.2015
  796MOL0     C 7375   5.514   6.078   7.483  0.3969  0.4130  0.5532
  796MOL0     N 7376   6.263   6.077   7.543  0.2093 -0.5687 -0.6298
  796MOL0     N 7377   6.358   6.124   7.621 -0.0852  0.0315 -0.2498
  796MOL0     C 7378   6.947   6.441   8.287  0.3668 -0.3468  1.0306
  796MOL0     C 7379   7.084   6.408   8.305 -0.8240  0.0126 -0.9568
  796MOL0     C 7380   7.505   6.270   8.212  0.0072 -0.1620  0.6569
  796MOL0     C 7381   7.549   6.335   8.316 -0.1725  0.3168  0.2149
  796MOL0     C 7382   7.682   6.341   8.355 -0.0321  1.5958 -0.4899
  796MOL0     C 7383   7.772   6.245   8.298 -0.2619  0.0874 -0.8261
  796MOL0     O 7384   7.896   6.236   8.367  0.6372  0.8199 -0.2978
  796MOL0     C 7385   8.012   6.224   8.287 -0.3085  0.0202 -0.3102
  796MOL0     C 7386   8.069   6.085   8.271  0.1949  0.1432  0.2382
  796MOL0     C 7387   8.192   6.085   8.175  0.1116  0.3917 -0.7398
  796MOL0     C 7388   8.212   5.956   8.108  0.2074 -0.1605 -0.3646
  796MOL0     C 7389   8.268   5.861   8.207  0.4580  0.1931  0.1836
  796MOL0     C 7390   8.311   5.778   8.284 -0.2656  0.3153 -0.6118
  796MOL0     C 7391   7.728   6.171   8.194 -0.7387  0.2951  0.4539
  796MOL0     C 7392   7.603   6.194   8.141 -0.7364 -0.2829 -0.3948
  796MOL0     H 7393   7.190   6.457   7.981  1.3539  0.5212  2.2978
  796MOL0     H 7394   6.948   6.517   7.948 -2.1436 -1.7474 -0.4838
  796MOL0     H 7395   6.676   6.394   8.284  0.6318  0.8693 -0.5182
  796MOL0     H 7396   6.703   6.560   8.325 -1.2983  0.1275  0.2354
  796MOL0     H 7397   6.487   6.543   8.303  0.8623 -1.7251  0.2373
  796MOL0     H 7398   6.524   6.626   8.154 -2.1335 -0.5893  0.7447
  796MOL0     H 7399   6.496   6.333   8.130  0.1578  0.4890  0.3220
  796MOL0     H 7400   6.342   6.407   8.153  0.0610 -0.5215  0.4176
  796MOL0     H 7401   6.453   6.579   7.953 -1.4877 -0.0639 -0.4991
  796MOL0     H 7402   6.549   6.445   7.929 -0.5155  1.1416 -2.5727
  796MOL0     H 7403   6.351   6.303   7.889  2.4769 -0.0321  5.1538
  796MOL0     H 7404   6.247   6.438   7.918  0.6485 -0.3232  1.0661
  796MOL0     H 7405   6.269   6.418   7.679 -0.4652 -0.4263  1.2670
  796MOL0     H 7406   6.333   6.572   7.749  0.2089 -0.0335  0.4692
  796MOL0     H 7407   6.498   6.506   7.565  3.9810 -2.2064 -1.3285
  796MOL0     H 7408   6.560   6.508   7.726 -0.8571  1.6796  1.0949
  796MOL0     H 7409   6.555   6.245   7.713 -0.6517 -1.9043 -0.7747
  796MOL0     H 7410   6.610   6.310   7.561  0.9833  1.5096  1.9414
  796MOL0     H 7411   6.371   6.346   7.393  1.2208  0.9243  1.7336
  796MOL0     H 7412   6.117   6.248   7.309 -1.1756  0.5786  0.3501
  796MOL0     H 7413   6.208   6.113   7.235 -1.8555 -0.7385  0.0139
  796MOL0     H 7414   5.996   6.094   7.441  1.4596 -1.5617  1.9901
  796MOL0     H 7415   6.084   5.949   7.358  0.6253 -0.4939  3.6821
  796MOL0     H 7416   5.984   5.998   7.155  1.0662  3.0068 -0.5825
  796MOL0     H 7417   5.898   6.132   7.213 -3.0069 -1.8885 -0.4401
  796MOL0     H 7418   5.839   5.870   7.351 -4.9654 -1.0924 -0.2885
  796MOL0     H 7419   5.760   5.926   7.205 -0.4201  3.1126 -1.6803
  796MOL0     H 7420   5.618   5.813   7.315 -0.5337 -1.5014  0.9934
  796MOL0     H 7421   5.329   5.644   7.408  2.4473 -1.8761 -0.1517
  796MOL0     H 7422   5.298   5.726   7.248 -0.8811  0.1914  1.2803
  796MOL0     H 7423   5.452   5.655   7.273 -1.3120 -2.2050 -0.0505
  796MOL0     H 7424   4.914   5.889   7.449  1.3117 -0.0403 -1.3976
  796MOL0     H 7425   4.696   5.918   7.527  0.7203  2.8320 -1.9458
  796MOL0     H 7426   4.480   6.085   7.579  0.0225  0.6767  1.3041
  796MOL0     H 7427   4.493   5.920   7.642 -1.2597  0.2691 -3.3994
  796MOL0     H 7428   4.415   6.042   7.876 -0.8187  1.4111  1.5201
  796MOL0     H 7429   4.392   6.181   7.757 -2.5115 -0.3718 -1.8590
  796MOL0     H 7430   4.248   5.911   7.789 -1.0427  0.3015  3.0294
  796MOL0     H 7431   4.214   6.025   7.658 -1.6190  0.3467  0.1716
  796MOL0     H 7432   4.151   6.086   7.941 -0.3434  0.8130  0.6283
  796MOL0     H 7433   4.166   6.207   7.816  0.6940  0.7174  0.5701
  796MOL0     H 7434   3.970   5.976   7.856 -1.8088 -1.0108 -2.3845
  796MOL0     H 7435   3.982   6.027   7.699 -2.0197  1.4802  0.5766
  796MOL0     H 7436   3.799   6.145   7.799 -0.4604  1.9198  1.6167
  796MOL0     H 7437   3.907   6.213   7.927  4.9224  0.8763 -0.8471
  796MOL0     H 7438   3.953   6.278   7.632 -0.1330  1.8951 -0.5121
  796MOL0     H 7439   4.020   6.357   7.780 -0.1628 -0.2513 -1.1645
  796MOL0     H 7440   3.860   6.504   7.759  1.9308 -1.2020 -2.0341
  796MOL0     H 7441   3.752   6.403   7.830 -0.8446  0.7807  0.1793
  796MOL0     H 7442   4.829   6.149   7.859  3.4841  0.1881  0.4143
  796MOL0     H 7443   5.065   6.108   7.785 -0.0107  0.7189 -0.3888
  796MOL0     H 7444   5.318   6.121   7.541 -1.3388 -0.5788 -0.3745
  796MOL0     H 7445   5.549   6.177   7.511 -1.0728  1.3292 -0.6796
  796MOL0     H 7446   6.884   6.452   8.375 -2.4058  1.6103 -1.0154
  796MOL0     H 7447   7.129   6.388   8.401 -0.8603  0.9845 -0.7334
  796MOL0     H 7448   7.479   6.380   8.387  0.2929 -1.0451  1.6035
  796MOL0     H 7449   7.710   6.408   8.436 -3.7973 -1.5060  3.9319
  796MOL0     H 7450   7.996   6.272   8.190  1.2668  1.0042 -0.1101
  796MOL0     H 7451   8.082   6.283   8.347 -0.6410 -0.9117  1.0493
  796MOL0     H 7452   7.993   6.022   8.225 -0.5556  3.9534 -4.5546
  796MOL0     H 7453   8.097   6.046   8.369 -0.5306  1.7232  1.1123
  796MOL0     H 7454   8.283   6.122   8.223 -0.2855 -0.6425  0.9072
  796MOL0     H 7455   8.187   6.160   8.095  1.2399  1.2018 -0.0786
  796MOL0     H 7456   8.284   5.975   8.027  0.5736  2.6162  0.4780
  796MOL0     H 7457   8.126   5.917   8.053 -0.0482  0.0393 -0.1055
  796MOL0     H 7458   8.343   5.692   8.340  0.1485 -0.4122 -1.9345
  796MOL0     H 7459   7.797   6.102   8.147  0.5766  1.9338 -0.0968
  796MOL0     H 7460   7.576   6.146   8.047  1.4780 -0.1141 -1.1704
  797MOL0     O 7461   2.621   0.491  10.101 -0.3694  0.6415  0.4897
  797MOL0     C 7462   2.608   0.456   9.986  1.1660 -0.5099  0.3871
  797MOL0     O 7463   2.484   0.439   9.920 -0.0745  0.5740 -0.0228
  797MOL0     C 7464   2.368   0.445   9.982 -0.2352  0.6050  0.1730
  797MOL0     C 7465   2.278   0.546   9.948 -0.7314 -0.0703 -0.9760
  797MOL0     C 7466   2.156   0.563  10.009 -0.0358  0.0473  0.3424
  797MOL0     C 7467   2.116   0.467  10.100 -0.2018  0.4982 -0.6636
  797MOL0     O 7468   2.001   0.463  10.176  0.0908 -0.0750 -0.4536
  797MOL0     C 7469   1.874   0.479  10.108  0.5752 -0.1754  0.9168
  797MOL0     C 7470   1.764   0.428  10.190 -0.7943 -0.9060 -0.5116
  797MOL0     C 7471   1.622   0.409  10.129 -0.6783 -0.9630  0.4581
  797MOL0     C 7472   1.570   0.538  10.058 -0.3725 -0.5072  0.1381
  797MOL0     C 7473   1.435   0.512   9.994  0.0737 -0.4285 -0.0364
  797MOL0     C 7474   1.330   0.499  10.105  0.6055  0.3850 -0.5022
  797MOL0     C 7475   1.195   0.481  10.038  0.1445  0.5490 -0.2884
  797MOL0     C 7476   1.088   0.412  10.127 -0.1713 -0.3804 -0.2963
  797MOL0     N 7477   1.093   0.272  10.141  0.6455  0.7340 -0.1940
  797MOL0     C 7478   1.047   0.183  10.038 -0.2145  0.5208 -0.0135
  797MOL0     C 7479   1.091   0.065  10.089 -0.2766 -0.1358  0.1314
  797MOL0     C 7480   1.095  -0.067  10.008  1.1332  0.5146  0.4352
  797MOL0     C 7481   0.993  -0.152  10.095 -0.3222 -0.7338 -0.5262
  797MOL0     C 7482   0.967  -0.289  10.035  0.0236 -0.9639 -0.2443
  797MOL0     C 7483   0.857  -0.289   9.936  0.0450 -0.0907  0.9805
  797MOL0     O 7484   0.816  -0.427   9.905 -0.2626  0.6548 -0.3257
  797MOL0     C 7485   0.695  -0.474   9.932  0.3582 -0.2862 -0.0477
  797MOL0     C 7486   0.628  -0.435  10.048 -0.2958 -0.3509 -0.4183
  797MOL0     C 7487   0.503  -0.490  10.086  0.1738  1.0926  0.5152
  797MOL0     C 7488   0.447  -0.453  10.222 -0.0789 -0.5538 -0.3554
  797MOL0     C 7489   0.445  -0.592  10.002 -0.3748 -0.5975  0.0480
  797MOL0     C 7490   0.320  -0.661  10.031  0.0299  0.1598  0.1155
  797MOL0     O 7491   0.241  -0.617  10.131  0.0261 -0.7248 -0.7223
  797MOL0     C 7492   0.128  -0.691  10.177 -0.5900 -0.3235 -0.7914
  797MOL0     C 7493  -0.001  -0.675  10.131  0.3564  0.1841  0.3126
  797MOL0     C 7494  -0.103  -0.757  10.178 -0.3610  0.0066  0.0554
  797MOL0     C 7495  -0.080  -0.860  10.272 -1.3323  0.2550 -0.9231
  797MOL0     O 7496  -0.181  -0.947  10.291 -0.1661  0.3150  0.3144
  797MOL0     C 7497  -0.194  -1.056  10.390 -0.1940  0.4739  0.2399
  797MOL0     C 7498  -0.273  -1.173  10.325  0.0318 -0.0220  0.4031
  797MOL0     C 7499  -0.291  -1.283  10.425 -0.2716  0.0672  0.2138
  797MOL0     C 7500  -0.389  -1.390  10.374  0.6203 -0.2488 -0.4161
  797MOL0     C 7501  -0.450  -1.461  10.493 -0.7915  0.5432 -0.0414
  797MOL0     C 7502  -0.560  -1.559  10.451  0.5058 -0.1988 -1.0517
  797MOL0     C 7503  -0.590  -1.634  10.583  0.2476  0.6933  0.2654
  797MOL0     C 7504  -0.693  -1.743  10.550  0.2288  0.5924 -0.7810
  797MOL0    Cl 7505  -0.748  -1.808  10.707 -0.0621  0.1514  0.3207
  797MOL0     C 7506   0.054  -0.882  10.322 -0.1674  0.1338  0.0917
  797MOL0     C 7507   0.153  -0.791  10.272 -0.4697 -1.2497 -0.4442
  797MOL0     O 7508   0.319  -0.772   9.988 -0.6649 -0.2400  0.1735
  797MOL0     C 7509   0.518  -0.633   9.897  0.2999 -0.1394  0.5852
  797MOL0     C 7510   0.649  -0.580   9.862 -0.6780 -0.4908 -0.1837
  797MOL0     N 7511   1.146   0.082  10.213 -0.0408  0.0479 -0.9938
  797MOL0     N 7512   1.145   0.204  10.247  0.5670  0.4301  0.7419
  797MOL0     C 7513   2.200   0.357  10.127 -0.0500  0.0711 -0.1732
  797MOL0     C 7514   2.328   0.341  10.072  0.3799  0.0861  0.0848
  797MOL0     C 7515   2.735   0.428   9.919  0.1116  0.2678  0.2673
  797MOL0     C 7516   2.866   0.460   9.978  0.6226  0.7217  0.1136
  797MOL0     C 7517   2.981   0.418   9.905 -0.4309 -1.0080 -0.4484
  797MOL0     C 7518   2.980   0.331   9.795  1.1472  0.5838  0.1660
  797MOL0     O 7519   3.091   0.301   9.719 -0.0216  0.2403 -0.3224
  797MOL0     C 7520   3.218   0.294   9.792  0.4320 -0.0854  0.1109
  797MOL0     C 7521   3.319   0.218   9.702  0.3018 -0.2593  0.5478
  797MOL0     C 7522   3.448   0.172   9.765  0.5997  0.6198  0.3796
  797MOL0     C 7523   3.531   0.082   9.672  0.0346 -0.1736 -0.5521
  797MOL0     C 7524   3.660   0.036   9.728 -0.2312 -0.7275 -0.1877
  797MOL0     C 7525   3.772   0.016   9.774 -0.8995 -0.5680 -0.0454
  797MOL0     C 7526   2.855   0.287   9.748  0.4225  0.6212  0.1262
  797MOL0     C 7527   2.735   0.330   9.815  0.2538 -0.1080  0.1992
  797MOL0     H 7528   2.317   0.621   9.879  1.2924  1.7958  1.9334
  797MOL0     H 7529   2.106   0.657   9.986  1.0543  0.2876 -1.2221
  797MOL0     H 7530   1.858   0.586  10.093 -0.6651 -0.4259  0.2854
  797MOL0     H 7531   1.876   0.427  10.012  4.9793  0.9915  0.1665
  797MOL0     H 7532   1.794   0.327  10.220  0.6527 -0.5587 -0.6981
  797MOL0     H 7533   1.749   0.476  10.287 -3.6088  1.8881 -2.1465
  797MOL0     H 7534   1.617   0.319  10.067 -0.4166 -1.7724  1.5581
  797MOL0     H 7535   1.564   0.389  10.220 -0.4804 -0.8018  0.6229
  797MOL0     H 7536   1.565   0.624  10.124 -0.4279 -1.8084  1.9132
  797MOL0     H 7537   1.643   0.549   9.977  2.2109 -1.2878  2.2395
  797MOL0     H 7538   1.419   0.599   9.929  2.1954 -2.5445 -3.7424
  797MOL0     H 7539   1.443   0.420   9.934  0.6368 -0.6432  0.3606
  797MOL0     H 7540   1.349   0.406  10.160 -1.0886  0.4619  0.2825
  797MOL0     H 7541   1.336   0.577  10.182  2.9510 -1.0567  0.8910
  797MOL0     H 7542   1.160   0.580  10.008 -0.2018 -0.7158 -4.8492
  797MOL0     H 7543   1.202   0.412   9.953 -1.7463 -0.4432  0.2971
  797MOL0     H 7544   0.987   0.448  10.105 -1.1401 -0.8985  2.9086
  797MOL0     H 7545   1.092   0.448  10.230 -2.3939 -1.7454  0.3106
  797MOL0     H 7546   0.995   0.206   9.945 -1.8315  0.5694  0.8673
  797MOL0     H 7547   1.065  -0.046   9.904 -0.3504 -2.7000  0.1023
  797MOL0     H 7548   1.189  -0.122  10.012  0.5954 -0.4392  0.1135
  797MOL0     H 7549   0.897  -0.100  10.083  0.2246  0.7966  1.2378
  797MOL0     H 7550   1.027  -0.162  10.198  2.3443 -6.4055 -1.6134
  797MOL0     H 7551   0.944  -0.362  10.113 -0.1122 -0.0504  0.5952
  797MOL0     H 7552   1.059  -0.321   9.986  2.7136  2.5703  2.0624
  797MOL0     H 7553   0.877  -0.236   9.842  0.8270  0.0567  1.2292
  797MOL0     H 7554   0.771  -0.230   9.971 -2.4882 -1.7760 -1.9114
  797MOL0     H 7555   0.682  -0.357  10.102  1.0839  0.1741 -2.4602
  797MOL0     H 7556   0.349  -0.406  10.225 -0.2941 -0.9445  3.1496
  797MOL0     H 7557   0.449  -0.536  10.293 -2.0083 -0.4346 -0.1110
  797MOL0     H 7558   0.515  -0.375  10.257  0.6066 -0.6924 -1.3382
  797MOL0     H 7559  -0.025  -0.593  10.065 -1.0709  0.5087  1.1927
  797MOL0     H 7560  -0.203  -0.740  10.140 -0.8985 -0.8889  1.0303
  797MOL0     H 7561  -0.098  -1.102  10.413  0.5486  1.2006 -1.2280
  797MOL0     H 7562  -0.235  -1.021  10.485 -0.2538  0.2105  0.3126
  797MOL0     H 7563  -0.374  -1.142  10.299 -0.8258 -2.1147  1.0281
  797MOL0     H 7564  -0.211  -1.199  10.239  0.8015 -0.8007  1.1619
  797MOL0     H 7565  -0.328  -1.246  10.522 -2.2490  1.1703 -0.8913
  797MOL0     H 7566  -0.201  -1.343  10.442 -0.8203 -1.9468 -3.1006
  797MOL0     H 7567  -0.466  -1.336  10.318  0.7212  0.6064  0.2535
  797MOL0     H 7568  -0.350  -1.466  10.306 -2.1528 -1.4356 -0.8229
  797MOL0     H 7569  -0.490  -1.391  10.567 -1.3142  0.3860 -0.1742
  797MOL0     H 7570  -0.361  -1.504  10.540 -0.3686 -0.2797 -1.5418
  797MOL0     H 7571  -0.651  -1.505  10.422 -0.3483 -1.1995 -0.3268
  797MOL0     H 7572  -0.523  -1.622  10.370 -0.1327 -1.9287 -0.0481
  797MOL0     H 7573  -0.625  -1.565  10.661 -0.7713  2.2646 -1.4748
  797MOL0     H 7574  -0.501  -1.688  10.616 -0.0568 -0.4966 -0.7963
  797MOL0     H 7575  -0.666  -1.831  10.492  0.8272  0.8786 -0.9450
  797MOL0     H 7576  -0.777  -1.694  10.499  1.8057  1.6610 -2.4912
  797MOL0     H 7577   0.083  -0.963  10.387  0.0234  0.2162  0.1100
  797MOL0     H 7578   0.253  -0.800  10.314 -0.5549  0.2933  0.1949
  797MOL0     H 7579   0.484  -0.717   9.836  1.3955 -1.7674  2.1334
  797MOL0     H 7580   0.703  -0.631   9.783  0.6384 -3.3001  2.3238
  797MOL0     H 7581   2.165   0.278  10.192 -2.0278  1.0636  0.0435
  797MOL0     H 7582   2.391   0.253  10.077  0.9082  0.0894 -3.6151
  797MOL0     H 7583   2.860   0.526  10.064  2.0116  0.7071  0.2470
  797MOL0     H 7584   3.078   0.453   9.938 -0.3897 -2.4885  1.1033
  797MOL0     H 7585   3.241   0.399   9.809 -3.8295  0.9660  0.5997
  797MOL0     H 7586   3.210   0.238   9.885 -1.2611 -1.7097 -0.9225
  797MOL0     H 7587   3.340   0.287   9.621 -3.9850  0.9521  0.1967
  797MOL0     H 7588   3.267   0.131   9.661  1.5532 -2.6119  3.5666
  797MOL0     H 7589   3.419   0.110   9.850  0.3203 -0.7333 -0.6612
  797MOL0     H 7590   3.510   0.257   9.795  2.6281 -1.2621  1.8903
  797MOL0     H 7591   3.550   0.145   9.584  0.1377  0.5851  0.0012
  797MOL0     H 7592   3.468  -0.003   9.644 -1.4679  0.2513  1.3447
  797MOL0     H 7593   3.876   0.002   9.798 -0.9777 -1.6871 -0.3184
  797MOL0     H 7594   2.869   0.213   9.670  2.0984 -0.2661  1.2283
  797MOL0     H 7595   2.639   0.299   9.777 -0.0435  2.1938 -1.1240
  798MOL0     O 7596   8.191   9.920   1.025  0.3592 -0.6644  0.2725
  798MOL0     C 7597   8.256   9.817   1.006 -0.2491  0.2263  0.2995
  798MOL0     O 7598   8.198   9.699   0.948 -1.0388 -0.5688  0.1431
  798MOL0     C 7599   8.065   9.693   0.940 -0.4802 -0.2911 -0.0132
  798MOL0     C 7600   7.974   9.734   1.039 -0.4017 -0.1834  0.4816
  798MOL0     C 7601   7.844   9.705   1.018 -0.9745 -0.2733 -0.0010
  798MOL0     C 7602   7.794   9.639   0.905 -0.5425  0.1218  0.5760
  798MOL0     O 7603   7.669   9.586   0.894 -0.1620 -0.4641 -0.4617
  798MOL0     C 7604   7.559   9.648   0.959 -0.6219  0.3233 -0.5588
  798MOL0     C 7605   7.501   9.552   1.057  0.5462 -0.3670 -0.2080
  798MOL0     C 7606   7.363   9.603   1.109 -0.5739 -0.2364  0.2813
  798MOL0     C 7607   7.303   9.518   1.224  0.1311 -0.3892  0.5611
  798MOL0     C 7608   7.175   9.580   1.276 -0.4135 -0.6212  0.1109
  798MOL0     C 7609   7.060   9.560   1.175  0.2256  0.2972 -0.2102
  798MOL0     C 7610   6.920   9.576   1.244 -0.3113 -0.2420  0.3481
  798MOL0     C 7611   6.881   9.725   1.277  0.2441 -0.1665 -0.4406
  798MOL0     N 7612   6.794   9.736   1.399 -0.1862 -0.1064  0.4346
  798MOL0     C 7613   6.691   9.824   1.407 -0.8782 -0.0572  0.5274
  798MOL0     C 7614   6.628   9.803   1.521 -0.7492  0.3398  0.3212
  798MOL0     C 7615   6.510   9.874   1.560  0.3243  0.2817  0.4881
  798MOL0     C 7616   6.383   9.830   1.483  0.7800 -0.9281  0.3612
  798MOL0     C 7617   6.344   9.684   1.495  0.0802  0.2453 -0.0043
  798MOL0     C 7618   6.295   9.635   1.627  0.5086 -0.0787 -0.3467
  798MOL0     O 7619   6.170   9.708   1.659 -0.0291  0.6108  1.2981
  798MOL0     C 7620   6.072   9.651   1.735  0.0115 -0.1018 -0.7900
  798MOL0     C 7621   6.094   9.622   1.872  0.3062 -0.3943 -0.1922
  798MOL0     C 7622   6.000   9.554   1.952  0.0508 -0.3186 -0.0557
  798MOL0     C 7623   6.034   9.533   2.097 -0.7847 -0.0799 -0.5852
  798MOL0     C 7624   5.875   9.521   1.897  0.2778  0.9382  0.0298
  798MOL0     C 7625   5.763   9.458   1.971 -0.0317  0.4105 -0.1706
  798MOL0     O 7626   5.639   9.474   1.910  0.3901 -0.7659 -0.0417
  798MOL0     C 7627   5.542   9.401   1.964 -0.3236  0.1379 -0.0940
  798MOL0     C 7628   5.495   9.430   2.092 -0.5146  0.5155  0.3786
  798MOL0     C 7629   5.382   9.371   2.148  0.5962  0.5468 -0.3908
  798MOL0     C 7630   5.303   9.282   2.068 -0.4248  0.3659  0.1221
  798MOL0     O 7631   5.188   9.233   2.117 -0.0620 -0.3764 -0.2591
  798MOL0     C 7632   5.106   9.141   2.041 -0.3603 -0.3084 -0.6646
  798MOL0     C 7633   4.993   9.103   2.128 -0.1461  0.2532  0.3491
  798MOL0     C 7634   4.896   8.998   2.066 -0.3494 -0.2414  0.1485
  798MOL0     C 7635   4.787   8.945   2.167 -0.1670 -0.5668  0.1232
  798MOL0     C 7636   4.682   8.860   2.091  0.4853  0.1406 -0.0180
  798MOL0     C 7637   4.577   8.803   2.187 -0.0733 -0.2347 -0.0641
  798MOL0     C 7638   4.468   8.725   2.112 -0.3111  0.6019 -0.0382
  798MOL0     C 7639   4.341   8.707   2.205 -1.0716 -0.5088  0.1050
  798MOL0    Cl 7640   4.223   8.612   2.117  0.3698 -0.2299  0.2108
  798MOL0     C 7641   5.360   9.252   1.940 -0.6556 -0.5750  0.5666
  798MOL0     C 7642   5.473   9.314   1.889 -0.5689 -0.4764  0.3990
  798MOL0     O 7643   5.782   9.401   2.076  0.0896  0.3530 -0.1794
  798MOL0     C 7644   5.858   9.541   1.758 -1.2318 -0.8780 -0.0682
  798MOL0     C 7645   5.959   9.604   1.679  0.0972 -0.0569  0.0953
  798MOL0     N 7646   6.701   9.712   1.589  0.1446  0.3069 -0.6764
  798MOL0     N 7647   6.805   9.670   1.515 -0.7510  0.3056 -0.6511
  798MOL0     C 7648   7.885   9.590   0.818 -0.3128  0.4343 -0.0204
  798MOL0     C 7649   8.016   9.619   0.835  0.0370  0.4107  0.4066
  798MOL0     C 7650   8.400   9.802   1.049 -1.1427  0.7044  0.8406
  798MOL0     C 7651   8.469   9.899   1.121  0.5528  0.4208 -0.5123
  798MOL0     C 7652   8.597   9.869   1.175  0.1200 -0.2530 -0.3148
  798MOL0     C 7653   8.654   9.744   1.164  0.2339  0.9669  0.3210
  798MOL0     O 7654   8.774   9.707   1.220 -0.6033  0.2632  0.1119
  798MOL0     C 7655   8.839   9.796   1.319 -0.5407 -0.1276  0.1328
  798MOL0     C 7656   8.968   9.728   1.374  0.1933 -0.1584  0.4015
  798MOL0     C 7657   9.005   9.767   1.518 -0.4073  1.4094  0.2505
  798MOL0     C 7658   8.915   9.712   1.633  1.0841  0.1115 -0.1119
  798MOL0     C 7659   8.954   9.775   1.760 -0.7434 -0.4443 -0.5669
  798MOL0     C 7660   8.989   9.820   1.864 -0.1545  0.5552  0.5806
  798MOL0     C 7661   8.586   9.654   1.082  0.1851  0.2576 -0.0373
  798MOL0     C 7662   8.468   9.680   1.024  0.2973 -0.2211 -0.3772
  798MOL0     H 7663   7.999   9.794   1.126 -1.1968 -0.2050  0.7327
  798MOL0     H 7664   7.776   9.733   1.098 -2.0253 -3.0284  0.1989
  798MOL0     H 7665   7.596   9.742   1.002 -2.4223  0.7726  0.1141
  798MOL0     H 7666   7.483   9.676   0.886 -2.8205 -0.0650  1.4375
  798MOL0     H 7667   7.487   9.458   1.003 -1.3936 -0.6839  0.7658
  798MOL0     H 7668   7.558   9.536   1.148 -0.5474 -0.7783  0.4262
  798MOL0     H 7669   7.372   9.708   1.140  0.8191 -0.7951  1.9509
  798MOL0     H 7670   7.294   9.607   1.025 -2.0595 -1.5026  1.3911
  798MOL0     H 7671   7.290   9.415   1.188  3.2983  0.0500 -2.3282
  798MOL0     H 7672   7.372   9.507   1.308 -0.0626  2.3454  1.1661
  798MOL0     H 7673   7.155   9.533   1.373 -1.3253 -0.6270 -0.0707
  798MOL0     H 7674   7.184   9.687   1.298  1.5716 -0.5183 -0.9846
  798MOL0     H 7675   7.059   9.622   1.085 -2.7828 -1.8067 -1.7653
  798MOL0     H 7676   7.069   9.457   1.142 -0.7766  0.0811  0.1566
  798MOL0     H 7677   6.847   9.530   1.177  3.9175 -2.4919 -3.2488
  798MOL0     H 7678   6.921   9.520   1.338 -0.4172  1.5175  1.4357
  798MOL0     H 7679   6.818   9.765   1.197 -1.5805 -0.9997  0.5443
  798MOL0     H 7680   6.975   9.781   1.281  1.2044 -1.7812  2.2157
  798MOL0     H 7681   6.650   9.896   1.337 -1.4079 -0.3632  0.5152
  798MOL0     H 7682   6.498   9.841   1.664  2.8323 -0.0028  0.7457
  798MOL0     H 7683   6.522   9.983   1.555 -1.3816  0.4601 -0.3575
  798MOL0     H 7684   6.405   9.860   1.380 -0.2243 -1.2448  0.0431
  798MOL0     H 7685   6.295   9.891   1.506  0.3746 -0.5307 -2.0246
  798MOL0     H 7686   6.440   9.634   1.480 -0.4219 -1.1124  1.0447
  798MOL0     H 7687   6.272   9.655   1.418  0.6965  0.2031 -0.5771
  798MOL0     H 7688   6.371   9.662   1.701  0.7407 -0.0909 -0.5799
  798MOL0     H 7689   6.266   9.530   1.626 -1.9753  0.4303  2.4257
  798MOL0     H 7690   6.192   9.646   1.913 -0.7104  0.0113  2.1474
  798MOL0     H 7691   6.048   9.428   2.124 -0.9970  0.5160  2.0520
  798MOL0     H 7692   6.132   9.578   2.111  0.3588 -1.5528 -3.1320
  798MOL0     H 7693   5.958   9.578   2.161  0.4380  1.1876  0.0201
  798MOL0     H 7694   5.552   9.490   2.161 -2.0457  0.9037  1.3571
  798MOL0     H 7695   5.367   9.385   2.255 -2.6540 -2.0197 -0.3606
  798MOL0     H 7696   5.068   9.194   1.953  2.6248  0.2635 -1.7050
  798MOL0     H 7697   5.158   9.049   2.010  2.2858 -0.0860  2.5449
  798MOL0     H 7698   5.043   9.065   2.218 -0.3634  0.0571  0.3869
  798MOL0     H 7699   4.939   9.194   2.154 -1.7425 -0.4316 -0.4557
  798MOL0     H 7700   4.964   8.923   2.025  0.7483  0.2696  0.9900
  798MOL0     H 7701   4.847   9.038   1.978  3.4128  3.5982 -0.5261
  798MOL0     H 7702   4.833   8.882   2.244  2.7526  2.8457  1.4233
  798MOL0     H 7703   4.738   9.025   2.223 -0.7166 -0.5352 -0.3984
  798MOL0     H 7704   4.735   8.775   2.046  0.9707  0.6487 -0.4309
  798MOL0     H 7705   4.649   8.924   2.008 -1.4292  0.3202  0.8385
  798MOL0     H 7706   4.611   8.724   2.255 -4.0132 -1.7071  0.4591
  798MOL0     H 7707   4.533   8.883   2.247  1.3204 -0.3941  1.2395
  798MOL0     H 7708   4.508   8.641   2.055 -1.2169  0.1585 -0.0436
  798MOL0     H 7709   4.429   8.787   2.030 -1.7914 -2.2112 -1.6102
  798MOL0     H 7710   4.296   8.799   2.245  0.4103  0.2629  0.0939
  798MOL0     H 7711   4.390   8.662   2.292  2.5615  3.6848  0.6081
  798MOL0     H 7712   5.314   9.180   1.873  0.4375 -0.1761 -0.6653
  798MOL0     H 7713   5.524   9.290   1.797  1.4828 -1.3692  1.6902
  798MOL0     H 7714   5.775   9.501   1.700 -1.6394  2.1074 -1.7447
  798MOL0     H 7715   5.937   9.616   1.573  1.0963  1.8554  0.0548
  798MOL0     H 7716   7.857   9.526   0.736  0.9699 -0.4551  0.2026
  798MOL0     H 7717   8.094   9.572   0.775 -0.7184 -0.3619  0.0109
  798MOL0     H 7718   8.419   9.991   1.150  0.0701  0.1490 -0.4702
  798MOL0     H 7719   8.645   9.937   1.245  2.2933 -3.4033  1.5111
  798MOL0     H 7720   8.858   9.897   1.282  2.7079  0.1307  2.1346
  798MOL0     H 7721   8.772   9.797   1.405 -1.2761 -2.2939 -0.3390
  798MOL0     H 7722   9.054   9.759   1.314  0.3440  3.0921  2.0549
  798MOL0     H 7723   8.939   9.623   1.359 -0.8949  0.4086 -1.8407
  798MOL0     H 7724   9.008   9.876   1.519  0.9111  1.5721 -3.3285
  798MOL0     H 7725   9.105   9.731   1.544 -0.8062 -1.1100 -1.3128
  798MOL0     H 7726   8.928   9.603   1.633 -1.4311 -0.2383  0.3236
  798MOL0     H 7727   8.809   9.735   1.621  1.4936  2.3526  0.2190
  798MOL0     H 7728   9.009   9.844   1.966 -2.2554  1.6892  0.7832
  798MOL0     H 7729   8.631   9.556   1.069 -0.9782 -0.2550 -0.2775
  798MOL0     H 7730   8.424   9.609   0.954 -0.3649  0.8296 -1.0656
  799MOL0     O 7731   0.674   6.163   4.545 -0.3923 -0.1036 -0.2743
  799MOL0     C 7732   0.706   6.213   4.657  0.1437  0.2682 -0.0748
  799MOL0     O 7733   0.614   6.244   4.762 -0.6395 -0.0927  0.1188
  799MOL0     C 7734   0.481   6.220   4.735 -0.9399 -0.0606 -0.6305
  799MOL0     C 7735   0.397   6.316   4.781 -0.2264  0.0472 -0.3142
  799MOL0     C 7736   0.260   6.297   4.779  0.5708 -0.1462 -0.5546
  799MOL0     C 7737   0.195   6.187   4.717 -0.1315 -0.1301 -0.4817
  799MOL0     O 7738   0.063   6.164   4.693 -0.6307  0.3332  0.7180
  799MOL0     C 7739  -0.028   6.265   4.739 -0.7883  0.4143 -0.3623
  799MOL0     C 7740  -0.160   6.188   4.735  0.3400 -0.1846 -0.7551
  799MOL0     C 7741  -0.271   6.296   4.753  0.1618 -0.0101  0.4031
  799MOL0     C 7742  -0.405   6.231   4.730 -1.0403  0.0761  0.4078
  799MOL0     C 7743  -0.507   6.342   4.764 -0.6567  0.7872 -0.5413
  799MOL0     C 7744  -0.653   6.289   4.764  0.6960  0.6581 -0.4164
  799MOL0     C 7745  -0.714   6.266   4.623  0.7954  0.6511 -0.2739
  799MOL0     C 7746  -0.833   6.174   4.638 -1.0343  0.2489  0.0507
  799MOL0     N 7747  -0.942   6.216   4.722  0.4247 -0.1064 -0.2539
  799MOL0     C 7748  -1.054   6.270   4.661 -0.7724 -0.2686 -0.1120
  799MOL0     C 7749  -1.146   6.297   4.756 -0.5862 -0.3656  0.2762
  799MOL0     C 7750  -1.268   6.379   4.743 -0.1596 -0.3604  0.6662
  799MOL0     C 7751  -1.348   6.356   4.612 -0.1219 -0.1396  0.4586
  799MOL0     C 7752  -1.419   6.475   4.561 -0.8466  0.9813 -0.7949
  799MOL0     C 7753  -1.553   6.449   4.492 -0.1739 -0.2937  0.5241
  799MOL0     O 7754  -1.536   6.373   4.371  0.7000 -0.0675  0.4066
  799MOL0     C 7755  -1.654   6.332   4.312  0.1826 -0.5450  0.1799
  799MOL0     C 7756  -1.781   6.390   4.325 -0.0576 -0.6038  0.0336
  799MOL0     C 7757  -1.892   6.335   4.248 -0.4074 -1.2991  0.4675
  799MOL0     C 7758  -2.020   6.412   4.261 -0.4097 -0.1898  0.2119
  799MOL0     C 7759  -1.872   6.225   4.169 -0.2614 -0.3061 -0.4627
  799MOL0     C 7760  -1.984   6.155   4.101  0.0552  0.1494 -0.3622
  799MOL0     O 7761  -2.112   6.170   4.152  0.2018  0.2902 -0.1127
  799MOL0     C 7762  -2.227   6.116   4.092  0.4593 -0.6872  0.9767
  799MOL0     C 7763  -2.246   6.115   3.954 -0.2515  0.1075  0.6724
  799MOL0     C 7764  -2.365   6.075   3.899  0.3702 -0.7121  0.3123
  799MOL0     C 7765  -2.460   6.012   3.973  0.1012  0.0155  0.5013
  799MOL0     O 7766  -2.570   5.947   3.924  0.1907  0.1897 -0.3749
  799MOL0     C 7767  -2.558   5.852   3.823  0.5201 -0.5490 -0.3449
  799MOL0     C 7768  -2.702   5.798   3.799 -0.0877 -0.7191 -0.8329
  799MOL0     C 7769  -2.713   5.763   3.648 -0.4389 -0.4315 -0.0221
  799MOL0     C 7770  -2.831   5.671   3.617  0.3004  0.1343  0.5531
  799MOL0     C 7771  -2.956   5.751   3.593  0.9848  0.4332  1.2347
  799MOL0     C 7772  -3.082   5.663   3.610  0.7812 -0.3229 -0.3670
  799MOL0     C 7773  -3.083   5.543   3.513  0.3119  0.4289  0.0625
  799MOL0     C 7774  -3.193   5.438   3.555  0.2188  0.2450  0.4961
  799MOL0    Cl 7775  -3.132   5.355   3.699 -0.1603 -0.4807  0.1267
  799MOL0     C 7776  -2.444   6.019   4.119 -0.9736  0.3407 -0.3157
  799MOL0     C 7777  -2.326   6.067   4.176 -0.3075  0.3256 -0.0635
  799MOL0     O 7778  -1.956   6.098   3.997 -0.3939 -0.1290 -0.5674
  799MOL0     C 7779  -1.736   6.174   4.155 -0.5139 -0.0996  0.3264
  799MOL0     C 7780  -1.628   6.232   4.213  0.0020 -0.4354 -0.7176
  799MOL0     N 7781  -1.090   6.264   4.880 -0.4554  0.5991  0.0253
  799MOL0     N 7782  -0.975   6.201   4.862  0.6372  0.0378  0.0111
  799MOL0     C 7783   0.281   6.080   4.677 -1.1265 -0.4841  0.5461
  799MOL0     C 7784   0.424   6.102   4.678 -0.4802  0.1237 -0.2749
  799MOL0     C 7785   0.848   6.246   4.677  0.2360  0.0542  0.1771
  799MOL0     C 7786   0.882   6.322   4.793  0.0627  0.7275  0.5740
  799MOL0     C 7787   1.014   6.370   4.815 -0.0127 -0.0201 -0.5651
  799MOL0     C 7788   1.118   6.335   4.728 -0.3058 -0.5345 -0.4664
  799MOL0     O 7789   1.251   6.370   4.738 -0.8900 -0.2767 -0.0100
  799MOL0     C 7790   1.290   6.438   4.856  0.2076  0.9534 -0.7728
  799MOL0     C 7791   1.439   6.469   4.858  0.0405  0.4837  0.3595
  799MOL0     C 7792   1.461   6.582   4.960  0.0324 -0.2930 -0.0286
  799MOL0     C 7793   1.601   6.641   4.971 -0.2149 -0.1370 -0.9050
  799MOL0     C 7794   1.696   6.544   5.017 -0.7163  0.1046 -0.4179
  799MOL0     C 7795   1.782   6.464   5.049  0.0830 -1.2599 -0.3832
  799MOL0     C 7796   1.080   6.269   4.615  0.3782  0.2562 -0.5738
  799MOL0     C 7797   0.948   6.213   4.589  0.2332 -0.1484 -0.3308
  799MOL0     H 7798   0.430   6.414   4.815 -0.2074 -1.0832  3.2472
  799MOL0     H 7799   0.203   6.379   4.820 -1.0192 -1.6276  0.3306
  799MOL0     H 7800  -0.015   6.285   4.846  1.6970  3.6622 -1.1112
  799MOL0     H 7801  -0.034   6.348   4.668  2.9813  1.3532  0.2133
  799MOL0     H 7802  -0.177   6.131   4.644 -2.0063 -1.7879  0.5914
  799MOL0     H 7803  -0.172   6.119   4.819 -0.1453 -0.7440 -1.2818
  799MOL0     H 7804  -0.266   6.337   4.855 -0.0379  2.5739 -0.5586
  799MOL0     H 7805  -0.248   6.383   4.691  0.4100 -1.0375 -0.9928
  799MOL0     H 7806  -0.427   6.189   4.631  0.1875  0.4302 -0.0235
  799MOL0     H 7807  -0.427   6.145   4.794 -2.0409  0.5294  0.6927
  799MOL0     H 7808  -0.480   6.383   4.862 -0.8081  0.7287 -0.4755
  799MOL0     H 7809  -0.504   6.432   4.702  1.0567  1.0617 -0.1172
  799MOL0     H 7810  -0.663   6.205   4.834 -0.9628  1.0321 -0.1676
  799MOL0     H 7811  -0.701   6.368   4.821  3.4778  0.0564  3.1121
  799MOL0     H 7812  -0.758   6.364   4.597  1.4133  2.1110  3.5289
  799MOL0     H 7813  -0.637   6.235   4.553 -0.8995  2.7445 -3.3462
  799MOL0     H 7814  -0.799   6.076   4.673 -1.6135 -0.1314 -0.4289
  799MOL0     H 7815  -0.878   6.153   4.540 -4.8347  0.6177  1.5622
  799MOL0     H 7816  -1.057   6.296   4.555  2.1685  1.9528  0.2248
  799MOL0     H 7817  -1.331   6.345   4.825  3.4110  0.5122  4.0757
  799MOL0     H 7818  -1.236   6.482   4.763  1.0401 -0.0751 -2.1455
  799MOL0     H 7819  -1.428   6.286   4.640  0.7018 -0.6968  1.4696
  799MOL0     H 7820  -1.282   6.317   4.534  0.2436  2.9743 -0.9648
  799MOL0     H 7821  -1.362   6.543   4.497  0.6340 -1.3226 -2.0649
  799MOL0     H 7822  -1.445   6.528   4.653  1.4568 -0.0523  0.5399
  799MOL0     H 7823  -1.597   6.547   4.472  0.2663 -0.4790 -1.6286
  799MOL0     H 7824  -1.617   6.386   4.554 -1.1696  0.8324  0.6635
  799MOL0     H 7825  -1.789   6.480   4.385  0.9258  0.4546 -1.3777
  799MOL0     H 7826  -2.051   6.443   4.161 -0.0019 -0.8183 -0.1154
  799MOL0     H 7827  -2.091   6.341   4.304  0.9960 -1.9215 -0.2012
  799MOL0     H 7828  -2.020   6.503   4.322 -4.4912  1.1664 -1.4745
  799MOL0     H 7829  -2.170   6.145   3.883  0.2822 -2.8735 -0.1230
  799MOL0     H 7830  -2.373   6.085   3.791 -0.7625  1.5521  0.5632
  799MOL0     H 7831  -2.516   5.904   3.737 -1.0144 -2.1261 -2.1322
  799MOL0     H 7832  -2.486   5.772   3.845 -0.8309 -1.8687 -0.5038
  799MOL0     H 7833  -2.708   5.704   3.854 -0.9482  0.1893  0.6826
  799MOL0     H 7834  -2.774   5.876   3.824  1.7141  2.0111 -3.4419
  799MOL0     H 7835  -2.626   5.703   3.618  2.2395  1.9541  2.3289
  799MOL0     H 7836  -2.716   5.852   3.584  0.6413 -1.1322 -1.0977
  799MOL0     H 7837  -2.811   5.619   3.523 -0.6653 -0.0618  0.4461
  799MOL0     H 7838  -2.850   5.601   3.698 -1.0314 -0.2543 -0.0514
  799MOL0     H 7839  -2.960   5.793   3.492 -0.9805  0.2894  1.2103
  799MOL0     H 7840  -2.955   5.840   3.657 -1.5746  1.7897 -0.4789
  799MOL0     H 7841  -3.096   5.644   3.717 -0.7285  0.4564 -0.4010
  799MOL0     H 7842  -3.174   5.718   3.589 -0.1757 -1.0576  1.6870
  799MOL0     H 7843  -2.987   5.489   3.512 -0.5426 -1.2519 -3.0581
  799MOL0     H 7844  -3.102   5.568   3.409  0.4278 -1.2255 -0.3858
  799MOL0     H 7845  -3.210   5.363   3.476 -3.4601 -0.4578  1.7519
  799MOL0     H 7846  -3.291   5.482   3.573 -0.2823 -0.6584  0.0329
  799MOL0     H 7847  -2.531   5.997   4.180 -1.9505 -2.6418 -2.5508
  799MOL0     H 7848  -2.310   6.080   4.283  0.4904  0.7869 -0.2405
  799MOL0     H 7849  -1.726   6.085   4.094  0.0075 -1.7447  2.6975
  799MOL0     H 7850  -1.522   6.207   4.202  0.2935  1.3848 -2.4587
  799MOL0     H 7851   0.237   5.989   4.638  0.2741 -1.3976  1.0190
  799MOL0     H 7852   0.486   6.017   4.652  1.0890  1.4211 -0.9374
  799MOL0     H 7853   0.806   6.352   4.864 -1.8258 -1.1186 -0.5486
  799MOL0     H 7854   1.024   6.436   4.901 -0.4566  1.3594 -1.5345
  799MOL0     H 7855   1.239   6.535   4.851  2.5721  2.2863 -0.3381
  799MOL0     H 7856   1.255   6.381   4.942  0.5807  0.9687 -0.6112
  799MOL0     H 7857   1.466   6.499   4.757 -1.1560  0.5950  0.0626
  799MOL0     H 7858   1.503   6.384   4.884  1.1018  1.1477 -0.0423
  799MOL0     H 7859   1.434   6.547   5.060 -2.0073  4.3450  1.2992
  799MOL0     H 7860   1.396   6.669   4.945 -1.6471 -1.5812 -0.4413
  799MOL0     H 7861   1.591   6.736   5.025  0.7500 -0.4163 -0.2131
  799MOL0     H 7862   1.637   6.671   4.872  0.8811 -1.9730 -1.0949
  799MOL0     H 7863   1.839   6.388   5.098 -0.0898 -1.2009 -0.0841
  799MOL0     H 7864   1.156   6.222   4.554 -1.3666 -2.6500 -0.6953
  799MOL0     H 7865   0.925   6.143   4.510  1.4790 -1.2440  0.2399
  800MOL0     O 7866   1.535   2.948   5.531 -0.2945 -0.6051  0.9953
  800MOL0     C 7867   1.651   2.967   5.574  0.0173 -0.4531  0.4792
  800MOL0     O 7868   1.683   2.973   5.702  0.0179  0.1048 -0.6863
  800MOL0     C 7869   1.588   2.921   5.785 -0.7680 -0.6076 -0.6377
  800MOL0     C 7870   1.466   2.993   5.824 -0.8944 -0.2880 -1.3386
  800MOL0     C 7871   1.371   2.942   5.907  0.4907 -1.3716  0.3460
  800MOL0     C 7872   1.386   2.815   5.950  0.8557  0.7942  0.4119
  800MOL0     O 7873   1.294   2.749   6.029 -0.3085  0.1084  0.6290
  800MOL0     C 7874   1.173   2.809   6.074  0.0047  1.0733  0.5118
  800MOL0     C 7875   1.201   2.871   6.209 -0.3478 -0.2668 -0.8071
  800MOL0     C 7876   1.087   2.943   6.270 -0.2054 -0.4517  0.2438
  800MOL0     C 7877   0.958   2.868   6.280  0.1218  0.2596 -0.9099
  800MOL0     C 7878   0.856   2.952   6.363  0.3026  0.2878  0.8970
  800MOL0     C 7879   0.721   2.881   6.363  0.1382  0.1125 -0.7323
  800MOL0     C 7880   0.595   2.971   6.395 -0.4815  0.2507 -0.4974
  800MOL0     C 7881   0.602   3.044   6.527  0.1190 -0.5366  0.3860
  800MOL0     N 7882   0.484   3.131   6.546 -1.0041 -1.2539  0.9051
  800MOL0     C 7883   0.474   3.270   6.502 -0.9967 -0.0370 -1.2606
  800MOL0     C 7884   0.344   3.293   6.527 -0.2242 -0.3157  0.5917
  800MOL0     C 7885   0.279   3.425   6.498  1.0110 -0.0954  0.4337
  800MOL0     C 7886   0.124   3.414   6.515 -1.0275  0.4446 -0.2814
  800MOL0     C 7887   0.053   3.543   6.473 -0.1498  0.2677  0.1660
  800MOL0     C 7888  -0.101   3.531   6.503 -0.5567  1.0796 -0.6483
  800MOL0     O 7889  -0.173   3.655   6.478 -0.7103  0.2525  0.5551
  800MOL0     C 7890  -0.301   3.664   6.519 -0.9137  0.7587  0.2785
  800MOL0     C 7891  -0.382   3.548   6.552 -0.7164 -0.0242 -0.0794
  800MOL0     C 7892  -0.524   3.563   6.568 -0.2406  0.2397 -0.6164
  800MOL0     C 7893  -0.604   3.430   6.571 -0.1121 -0.0532 -0.0148
  800MOL0     C 7894  -0.585   3.694   6.560 -0.1866  1.2288  0.4704
  800MOL0     C 7895  -0.732   3.718   6.562 -0.3329 -0.1251 -0.8230
  800MOL0     O 7896  -0.811   3.613   6.541 -0.0575  0.4272  0.8526
  800MOL0     C 7897  -0.941   3.601   6.600 -0.8813  0.3993  0.2726
  800MOL0     C 7898  -1.003   3.687   6.683 -0.2959  0.2966 -0.0258
  800MOL0     C 7899  -1.136   3.674   6.726  0.1456  0.3544 -1.0128
  800MOL0     C 7900  -1.208   3.562   6.694 -0.3034 -0.9200 -0.3521
  800MOL0     O 7901  -1.345   3.535   6.729 -0.1540 -0.5417 -0.0768
  800MOL0     C 7902  -1.397   3.581   6.856 -0.5549 -0.0828  0.6852
  800MOL0     C 7903  -1.546   3.552   6.862  0.6004  0.2656  0.1704
  800MOL0     C 7904  -1.603   3.436   6.783  0.4684  0.0489 -1.5378
  800MOL0     C 7905  -1.734   3.377   6.851 -0.3790  0.1489  0.1329
  800MOL0     C 7906  -1.816   3.276   6.764 -0.3439 -0.6695 -0.0243
  800MOL0     C 7907  -1.923   3.200   6.831  1.1560 -0.9248  0.3744
  800MOL0     C 7908  -1.949   3.063   6.757  0.3833  0.3292  0.1875
  800MOL0     C 7909  -2.030   2.969   6.850 -0.1719  0.5349  0.2257
  800MOL0    Cl 7910  -2.172   3.046   6.910 -0.0901  0.2168  0.1463
  800MOL0     C 7911  -1.151   3.465   6.611 -0.5140  0.1967 -0.6778
  800MOL0     C 7912  -1.018   3.482   6.568 -0.6728  0.2356  0.2673
  800MOL0     O 7913  -0.771   3.833   6.591 -0.7571  0.2779 -0.3199
  800MOL0     C 7914  -0.509   3.803   6.519 -0.6769  0.4450  0.8843
  800MOL0     C 7915  -0.375   3.787   6.510 -0.0449  0.5883  0.2266
  800MOL0     N 7916   0.281   3.183   6.577  0.2418  0.3152 -0.9988
  800MOL0     N 7917   0.367   3.090   6.598  0.9438 -0.6580  0.0684
  800MOL0     C 7918   1.494   2.737   5.909  0.2906 -0.1556 -1.3973
  800MOL0     C 7919   1.599   2.789   5.829  0.8976 -0.0797 -1.2740
  800MOL0     C 7920   1.762   2.980   5.478  1.1282  0.2574 -0.6884
  800MOL0     C 7921   1.730   2.998   5.346  0.0003 -0.1766  0.3445
  800MOL0     C 7922   1.834   3.014   5.255  0.4771  0.1799  0.3662
  800MOL0     C 7923   1.969   3.020   5.297 -0.0136 -0.8014  0.2113
  800MOL0     O 7924   2.069   3.045   5.210 -0.3639 -0.3816  0.5044
  800MOL0     C 7925   2.080   2.959   5.089 -0.6194  0.1606  0.1599
  800MOL0     C 7926   2.091   3.050   4.963 -0.4201 -0.0248 -0.4041
  800MOL0     C 7927   2.071   2.975   4.831 -0.3869 -0.7654 -0.6077
  800MOL0     C 7928   1.920   2.949   4.808 -0.1000 -1.2636  0.9292
  800MOL0     C 7929   1.893   2.853   4.697  0.1662  0.1754 -0.2954
  800MOL0     C 7930   1.890   2.772   4.615  0.0521 -0.9770  0.1446
  800MOL0     C 7931   1.997   2.999   5.429 -0.0779 -0.9264  0.1223
  800MOL0     C 7932   1.898   2.977   5.516  0.8210 -0.5472 -0.6030
  800MOL0     H 7933   1.442   3.090   5.783 -3.0470  0.0986  0.6298
  800MOL0     H 7934   1.297   3.017   5.935  1.7783 -0.0437  0.3013
  800MOL0     H 7935   1.133   2.881   6.002  1.2192 -0.0612 -1.3805
  800MOL0     H 7936   1.098   2.734   6.098  0.1629  0.9245  0.5451
  800MOL0     H 7937   1.225   2.791   6.280 -0.4981  1.3536  1.1520
  800MOL0     H 7938   1.287   2.939   6.203 -0.8820  0.6570  1.1474
  800MOL0     H 7939   1.114   2.983   6.368 -0.4414  0.4536 -0.0516
  800MOL0     H 7940   1.070   3.027   6.201  2.1198 -0.3311 -0.2850
  800MOL0     H 7941   0.917   2.841   6.182  0.0158 -0.2625 -0.7229
  800MOL0     H 7942   0.975   2.768   6.322 -1.5966 -1.0980 -3.1823
  800MOL0     H 7943   0.898   2.951   6.464  1.1255 -0.1422  0.5598
  800MOL0     H 7944   0.852   3.050   6.314 -0.2819 -1.0198 -1.8879
  800MOL0     H 7945   0.701   2.826   6.270 -0.6682 -0.7226 -0.0922
  800MOL0     H 7946   0.719   2.814   6.450 -1.0159  2.3682  1.0963
  800MOL0     H 7947   0.587   3.049   6.318 -0.1431  1.1521  0.3587
  800MOL0     H 7948   0.509   2.905   6.410  0.2406 -0.0753  3.2943
  800MOL0     H 7949   0.692   3.106   6.529  1.3547 -2.2149 -0.5500
  800MOL0     H 7950   0.606   2.976   6.612  3.1615 -0.8794  0.0873
  800MOL0     H 7951   0.554   3.343   6.491 -2.5256  1.6751 -1.3678
  800MOL0     H 7952   0.315   3.504   6.565 -0.3816  0.3828  0.6468
  800MOL0     H 7953   0.311   3.460   6.400 -0.1048  0.2897  0.1928
  800MOL0     H 7954   0.105   3.396   6.621  3.7780  1.8171  1.0724
  800MOL0     H 7955   0.082   3.337   6.449  1.0106  1.5726 -3.1266
  800MOL0     H 7956   0.056   3.544   6.364 -2.0758  0.8799  0.0814
  800MOL0     H 7957   0.086   3.638   6.516 -2.8341  0.0415  3.1407
  800MOL0     H 7958  -0.105   3.510   6.610 -0.5104 -1.1039 -1.0278
  800MOL0     H 7959  -0.150   3.444   6.458 -1.9385  0.0671  2.5549
  800MOL0     H 7960  -0.335   3.452   6.567 -1.9475 -0.5194  0.8238
  800MOL0     H 7961  -0.675   3.411   6.652  1.6227  2.0622  2.1429
  800MOL0     H 7962  -0.664   3.436   6.479  1.8141  1.2480 -1.2554
  800MOL0     H 7963  -0.536   3.345   6.559 -3.4979 -3.1050  0.6488
  800MOL0     H 7964  -0.960   3.781   6.717  2.3856 -1.3697  1.6584
  800MOL0     H 7965  -1.164   3.764   6.780 -1.1676 -0.8862  0.4630
  800MOL0     H 7966  -1.348   3.523   6.934 -0.9817 -0.5807  0.5880
  800MOL0     H 7967  -1.378   3.688   6.872 -0.8733 -0.1353  1.4373
  800MOL0     H 7968  -1.580   3.534   6.964  0.3037 -3.4975 -0.4515
  800MOL0     H 7969  -1.591   3.637   6.809 -1.5141 -1.4704 -0.9811
  800MOL0     H 7970  -1.526   3.359   6.770  0.6816  0.2261 -1.3325
  800MOL0     H 7971  -1.633   3.487   6.691 -1.5080  1.2091 -0.3130
  800MOL0     H 7972  -1.697   3.330   6.943  2.0786 -1.2258 -1.4527
  800MOL0     H 7973  -1.801   3.462   6.872  0.2236  0.6474  0.0632
  800MOL0     H 7974  -1.741   3.203   6.733 -0.0081 -0.5814  0.5792
  800MOL0     H 7975  -1.861   3.325   6.677  1.0719 -0.0289 -0.4153
  800MOL0     H 7976  -1.903   3.191   6.939  1.0910  1.8722  0.6883
  800MOL0     H 7977  -2.015   3.258   6.820  0.8810 -1.2165  1.0379
  800MOL0     H 7978  -1.853   3.017   6.734 -0.5131 -1.6563  0.2103
  800MOL0     H 7979  -2.007   3.071   6.664 -0.0545  0.4764  0.4700
  800MOL0     H 7980  -1.965   2.954   6.937 -0.4634 -1.2703  0.1622
  800MOL0     H 7981  -2.054   2.875   6.800  1.6546 -0.8756  1.8223
  800MOL0     H 7982  -1.205   3.374   6.587 -0.1243  0.0315 -0.9367
  800MOL0     H 7983  -0.978   3.405   6.503 -0.6195 -1.5109  2.2380
  800MOL0     H 7984  -0.543   3.903   6.497  0.6078  1.0103  1.3625
  800MOL0     H 7985  -0.321   3.874   6.476 -3.5687  3.0729  0.3729
  800MOL0     H 7986   1.508   2.650   5.971  1.1861  1.6134  1.0287
  800MOL0     H 7987   1.690   2.733   5.811  0.8610 -1.6779  2.5803
  800MOL0     H 7988   1.635   2.991   5.295  0.9934 -1.2425 -1.4728
  800MOL0     H 7989   1.811   3.029   5.150  0.2535  0.6940  0.4870
  800MOL0     H 7990   2.167   2.894   5.101 -0.9457 -0.6173 -1.4309
  800MOL0     H 7991   1.991   2.895   5.082  0.0667 -1.0703  1.8948
  800MOL0     H 7992   2.187   3.102   4.967  0.6619 -1.9371 -0.4321
  800MOL0     H 7993   2.005   3.118   4.966 -2.2188 -2.1396  3.4154
  800MOL0     H 7994   2.139   2.890   4.841 -1.2083 -1.5196 -1.2264
  800MOL0     H 7995   2.116   3.036   4.752 -0.3262  0.1003  0.0900
  800MOL0     H 7996   1.864   3.043   4.798 -1.3210 -2.0367  0.2844
  800MOL0     H 7997   1.867   2.914   4.897 -1.6611 -1.8895 -0.2031
  800MOL0     H 7998   1.888   2.694   4.541 -0.8741  0.4951 -1.4255
  800MOL0     H 7999   2.097   2.997   5.472 -0.6119 -1.9709  1.3792
  800MOL0     H 8000   1.921   2.961   5.621 -2.0377  1.2447  0.4138
  801MOL0     O 8001   1.005   5.917   5.490 -0.3432 -0.1822 -0.0718
  801MOL0     C 8002   1.093   5.988   5.541  0.8640 -0.1701 -0.2714
  801MOL0     O 8003   1.062   6.113   5.597  0.7298  0.0577  0.0558
  801MOL0     C 8004   0.935   6.130   5.642  0.2962  0.6304 -0.3070
  801MOL0     C 8005   0.836   6.191   5.567  0.0282  0.0261 -0.1600
  801MOL0     C 8006   0.714   6.220   5.621  0.0336 -0.0562 -0.4000
  801MOL0     C 8007   0.685   6.175   5.754 -0.6259 -0.3493  0.2493
  801MOL0     O 8008   0.554   6.190   5.809 -0.3444  0.2802 -0.0693
  801MOL0     C 8009   0.446   6.130   5.740  0.1354 -0.3945 -0.1805
  801MOL0     C 8010   0.319   6.204   5.790 -0.7189  0.2621  0.7114
  801MOL0     C 8011   0.334   6.353   5.744  0.2524 -0.1407 -0.5332
  801MOL0     C 8012   0.219   6.435   5.788  0.1831 -0.6263  0.1933
  801MOL0     C 8013   0.103   6.432   5.680  1.0788 -0.0392  0.0655
  801MOL0     C 8014   0.001   6.540   5.726  0.2866 -0.8429 -0.0173
  801MOL0     C 8015  -0.130   6.546   5.640  0.4230 -0.1239  0.0270
  801MOL0     C 8016  -0.215   6.668   5.685  0.0513  0.0075  0.2729
  801MOL0     N 8017  -0.355   6.664   5.645  0.0427 -0.5057  0.1732
  801MOL0     C 8018  -0.402   6.713   5.524  0.6121  0.4933 -0.6471
  801MOL0     C 8019  -0.531   6.690   5.529  0.1628  0.4798  0.1475
  801MOL0     C 8020  -0.627   6.731   5.417 -0.3292  0.3341 -0.1421
  801MOL0     C 8021  -0.605   6.882   5.371  0.0475  0.6938 -0.2366
  801MOL0     C 8022  -0.712   6.915   5.259 -0.4211 -0.0960  0.0874
  801MOL0     C 8023  -0.701   7.056   5.211  0.1493 -0.4562  0.5388
  801MOL0     O 8024  -0.812   7.090   5.114  0.2996 -0.6265 -0.4401
  801MOL0     C 8025  -0.896   7.191   5.152 -0.3165 -0.4359 -0.3785
  801MOL0     C 8026  -0.955   7.194   5.282 -0.4422  0.3606  0.5655
  801MOL0     C 8027  -1.059   7.286   5.305  0.2148  0.5201 -0.2327
  801MOL0     C 8028  -1.118   7.265   5.434 -0.7793  0.1885 -0.2322
  801MOL0     C 8029  -1.112   7.363   5.205  0.2950 -0.6100  0.1340
  801MOL0     C 8030  -1.218   7.471   5.221  0.3765 -0.2672 -0.6451
  801MOL0     O 8031  -1.273   7.523   5.109  0.6217  0.7668  0.3564
  801MOL0     C 8032  -1.356   7.634   5.124 -0.0192 -0.3168  1.0281
  801MOL0     C 8033  -1.499   7.627   5.134 -0.3379 -0.3651  0.0056
  801MOL0     C 8034  -1.569   7.746   5.170 -0.6089  0.2021 -0.3543
  801MOL0     C 8035  -1.506   7.859   5.193 -0.5776 -0.8400  0.1112
  801MOL0     O 8036  -1.581   7.972   5.218 -0.8864 -0.4218  0.1312
  801MOL0     C 8037  -1.710   7.998   5.155  0.6049  0.2173 -0.3802
  801MOL0     C 8038  -1.777   8.123   5.223  0.1748 -0.9145  0.0972
  801MOL0     C 8039  -1.754   8.124   5.383  0.8473 -0.0624  0.3055
  801MOL0     C 8040  -1.870   8.202   5.449 -0.5149 -0.5323  0.2637
  801MOL0     C 8041  -1.861   8.236   5.593 -0.0089  0.0877 -0.8841
  801MOL0     C 8042  -1.985   8.299   5.644  1.0169  0.3324  0.6879
  801MOL0     C 8043  -2.001   8.289   5.795 -0.0181 -0.3761 -0.6416
  801MOL0     C 8044  -2.135   8.355   5.845  0.5721  0.4905 -0.0113
  801MOL0    Cl 8045  -2.126   8.397   6.028 -0.2342  0.2966  0.1538
  801MOL0     C 8046  -1.370   7.869   5.180 -0.5685  0.0957 -0.0407
  801MOL0     C 8047  -1.292   7.753   5.155 -0.2803 -0.6851  0.0584
  801MOL0     O 8048  -1.247   7.507   5.335 -0.3227  0.6926  0.6227
  801MOL0     C 8049  -1.049   7.365   5.080 -0.1292  0.2621 -0.3341
  801MOL0     C 8050  -0.939   7.284   5.056 -0.2354 -0.0066 -0.6016
  801MOL0     N 8051  -0.561   6.635   5.646 -0.2638  0.3102 -0.5396
  801MOL0     N 8052  -0.456   6.625   5.719 -0.1862  0.0597  0.6040
  801MOL0     C 8053   0.781   6.100   5.826 -1.0737 -0.5575  0.5341
  801MOL0     C 8054   0.907   6.072   5.770 -0.7875  0.3807  0.4800
  801MOL0     C 8055   1.232   5.946   5.545 -0.1616  0.0354 -0.2815
  801MOL0     C 8056   1.265   5.807   5.532 -0.5712  0.0556 -0.7108
  801MOL0     C 8057   1.405   5.766   5.528  0.0176  0.0802  0.6596
  801MOL0     C 8058   1.510   5.861   5.537  0.3008  0.0996 -0.5047
  801MOL0     O 8059   1.646   5.841   5.513  0.2757 -0.1095 -0.4426
  801MOL0     C 8060   1.704   5.717   5.478 -0.7477  0.2103  0.0021
  801MOL0     C 8061   1.851   5.727   5.441  0.5715  0.6045 -0.0274
  801MOL0     C 8062   1.901   5.581   5.423  0.1557  0.1151  0.5467
  801MOL0     C 8063   2.043   5.575   5.373  0.4776 -0.4361  0.5209
  801MOL0     C 8064   2.059   5.584   5.226 -0.2764 -0.6136 -0.7516
  801MOL0     C 8065   2.046   5.606   5.108 -0.8127  1.6744  0.0551
  801MOL0     C 8066   1.467   5.992   5.565  0.2060  0.8436 -0.1963
  801MOL0     C 8067   1.336   6.037   5.564  0.3531  1.1615 -0.3697
  801MOL0     H 8068   0.853   6.220   5.464 -0.5325 -2.6785 -1.0978
  801MOL0     H 8069   0.638   6.281   5.573  1.2048  1.1110 -0.8347
  801MOL0     H 8070   0.464   6.137   5.633  0.7102  2.5258  0.0244
  801MOL0     H 8071   0.434   6.023   5.762 -1.3431 -0.7776 -2.5792
  801MOL0     H 8072   0.233   6.162   5.735  0.8745 -0.3454 -1.4556
  801MOL0     H 8073   0.310   6.195   5.898 -0.0795 -1.5992  0.6562
  801MOL0     H 8074   0.416   6.406   5.794 -2.3050  0.7029  3.2470
  801MOL0     H 8075   0.337   6.355   5.635 -2.1952  3.2204 -0.6965
  801MOL0     H 8076   0.177   6.404   5.884 -1.1837 -3.3251 -1.1666
  801MOL0     H 8077   0.245   6.541   5.785 -3.9581  0.5642  0.3404
  801MOL0     H 8078   0.144   6.454   5.581 -1.2336  1.3541 -0.6682
  801MOL0     H 8079   0.042   6.341   5.681 -3.1021  2.4956 -0.1116
  801MOL0     H 8080  -0.023   6.544   5.833  0.5445 -0.5672  0.0310
  801MOL0     H 8081   0.058   6.631   5.705 -2.8218  1.8611  2.1320
  801MOL0     H 8082  -0.105   6.541   5.534  2.5252  0.4190  0.4545
  801MOL0     H 8083  -0.180   6.449   5.647 -2.6699  1.3679  0.4164
  801MOL0     H 8084  -0.180   6.765   5.648 -3.5148  1.9954  1.5981
  801MOL0     H 8085  -0.214   6.681   5.793 -2.4369  0.1291  0.3450
  801MOL0     H 8086  -0.341   6.744   5.440 -0.0259  0.3527 -1.1738
  801MOL0     H 8087  -0.611   6.663   5.333 -2.7597  1.1277 -1.3284
  801MOL0     H 8088  -0.732   6.721   5.446 -0.4577 -1.7981 -1.2082
  801MOL0     H 8089  -0.506   6.901   5.328  1.2949  0.2816  2.2488
  801MOL0     H 8090  -0.617   6.936   5.465 -1.0899 -1.4645  0.9460
  801MOL0     H 8091  -0.809   6.907   5.308  0.8838  1.8644  3.3205
  801MOL0     H 8092  -0.706   6.841   5.179  0.4141 -0.5921  0.5921
  801MOL0     H 8093  -0.605   7.078   5.164  0.2631  0.3837  1.1483
  801MOL0     H 8094  -0.711   7.126   5.294 -0.2456  1.2083 -0.8517
  801MOL0     H 8095  -0.918   7.122   5.354  0.7168 -0.0723 -0.4303
  801MOL0     H 8096  -1.065   7.324   5.509 -3.5828  0.8476  1.3594
  801MOL0     H 8097  -1.222   7.297   5.433 -0.1714  2.3500 -1.3009
  801MOL0     H 8098  -1.108   7.158   5.458  2.1200  0.7831  1.6477
  801MOL0     H 8099  -1.548   7.530   5.126  1.0516 -1.1282  0.3670
  801MOL0     H 8100  -1.676   7.736   5.189 -0.6843  0.9186 -0.4082
  801MOL0     H 8101  -1.717   8.015   5.047  3.2372 -1.1249 -0.8425
  801MOL0     H 8102  -1.784   7.920   5.173  0.4263  0.4019 -0.3018
  801MOL0     H 8103  -1.729   8.211   5.180 -0.5568 -0.5822 -0.0608
  801MOL0     H 8104  -1.883   8.125   5.197  0.6992 -1.0245 -2.2816
  801MOL0     H 8105  -1.662   8.181   5.390  1.0065 -0.5692  3.3352
  801MOL0     H 8106  -1.740   8.021   5.416 -0.8944 -0.9002 -1.3437
  801MOL0     H 8107  -1.890   8.293   5.392  2.2510 -0.9900 -1.6495
  801MOL0     H 8108  -1.956   8.134   5.443 -1.1854  0.2545  0.7620
  801MOL0     H 8109  -1.775   8.298   5.619 -1.6051  2.0218  0.0464
  801MOL0     H 8110  -1.836   8.139   5.638  1.2125  0.3888 -0.8807
  801MOL0     H 8111  -1.986   8.405   5.617 -1.6117 -0.2179 -1.8426
  801MOL0     H 8112  -2.068   8.246   5.596  0.6191  0.6055  1.0588
  801MOL0     H 8113  -1.927   8.348   5.850 -0.9734 -1.0710  1.4517
  801MOL0     H 8114  -1.999   8.186   5.830 -1.0881 -0.0337  0.4997
  801MOL0     H 8115  -2.215   8.283   5.829  3.6994 -4.5057  3.6347
  801MOL0     H 8116  -2.145   8.449   5.790  1.0064  1.3527  1.3391
  801MOL0     H 8117  -1.326   7.964   5.207 -1.0758  0.4966 -0.5977
  801MOL0     H 8118  -1.184   7.753   5.150 -0.0499 -1.2130  3.1923
  801MOL0     H 8119  -1.068   7.443   5.007  1.0727  0.6070 -0.2995
  801MOL0     H 8120  -0.882   7.294   4.964 -2.5249  1.9185 -1.9499
  801MOL0     H 8121   0.760   6.058   5.924 -0.7451  2.2202  1.8661
  801MOL0     H 8122   0.984   6.015   5.820  0.1542  0.8006 -0.4345
  801MOL0     H 8123   1.176   5.745   5.525 -1.0082  0.7544 -1.5615
  801MOL0     H 8124   1.414   5.662   5.497 -1.5646  0.5592 -1.5989
  801MOL0     H 8125   1.695   5.649   5.563 -0.1247  1.6412  1.2620
  801MOL0     H 8126   1.648   5.675   5.393 -0.2641  0.0790 -0.2550
  801MOL0     H 8127   1.915   5.770   5.519 -1.1941  0.1219  1.7635
  801MOL0     H 8128   1.861   5.781   5.346 -1.3827  1.1816  0.0460
  801MOL0     H 8129   1.843   5.531   5.345  0.9764  1.4678 -1.0136
  801MOL0     H 8130   1.878   5.522   5.511 -1.9649  1.7552  1.1938
  801MOL0     H 8131   2.086   5.481   5.407  4.4935  0.2687 -1.9592
  801MOL0     H 8132   2.107   5.648   5.424 -0.0955 -0.1176  0.7979
  801MOL0     H 8133   2.034   5.631   5.004  2.8967  0.0212 -0.9127
  801MOL0     H 8134   1.537   6.074   5.562 -0.2686  1.2089 -1.5953
  801MOL0     H 8135   1.321   6.145   5.559  1.9213  1.4301  0.1945
  802MOL0     O 8136   2.644   7.932  10.437 -0.4038 -0.5993  0.1777
  802MOL0     C 8137   2.676   8.028  10.365  0.2877  0.4374  0.3512
  802MOL0     O 8138   2.596   8.124  10.305  0.3134  0.7744 -0.0195
  802MOL0     C 8139   2.464   8.137  10.344 -0.4765 -0.1655  0.5983
  802MOL0     C 8140   2.400   8.207  10.239  0.6227 -1.3068 -0.6982
  802MOL0     C 8141   2.269   8.247  10.254  0.4736 -0.0076 -0.2130
  802MOL0     C 8142   2.208   8.227  10.378  0.3682 -0.4828  0.4584
  802MOL0     O 8143   2.072   8.257  10.406  0.4790 -0.1489  0.1034
  802MOL0     C 8144   1.983   8.242  10.292 -0.1789  0.2614 -0.3459
  802MOL0     C 8145   1.846   8.261  10.322  0.2480  0.9609  0.0089
  802MOL0     C 8146   1.789   8.398  10.271 -0.2198 -0.0609 -0.2784
  802MOL0     C 8147   1.642   8.409  10.306  1.2340  0.0859  0.4387
  802MOL0     C 8148   1.587   8.544  10.266 -0.2161  0.2547  0.9771
  802MOL0     C 8149   1.457   8.562  10.342 -0.1852 -0.6432  0.4011
  802MOL0     C 8150   1.374   8.669  10.271  0.5950  0.5709 -0.3311
  802MOL0     C 8151   1.262   8.718  10.363  0.2498 -0.4146  0.5546
  802MOL0     N 8152   1.203   8.843  10.309  1.3939 -0.1585  0.5805
  802MOL0     C 8153   1.069   8.850  10.271 -0.6360  0.0358 -0.0513
  802MOL0     C 8154   1.050   8.976  10.229 -0.5972  0.0484 -0.2891
  802MOL0     C 8155   0.938   9.047  10.167  1.1852 -0.0460  0.6633
  802MOL0     C 8156   0.810   8.956  10.184 -0.0358  0.2617  0.0856
  802MOL0     C 8157   0.694   9.017  10.104  0.0974  0.3196 -0.2809
  802MOL0     C 8158   0.570   8.929  10.093  0.0907 -0.2783  0.1163
  802MOL0     O 8159   0.525   8.929  10.229 -0.0619  0.7333  0.3987
  802MOL0     C 8160   0.407   8.876  10.272  0.2977 -0.0823  0.1692
  802MOL0     C 8161   0.384   8.879  10.412 -0.2522  0.5295  0.5393
  802MOL0     C 8162   0.268   8.819  10.466  0.0567  0.6704 -0.0332
  802MOL0     C 8163   0.257   8.846  10.618  0.3444  0.2110 -0.6253
  802MOL0     C 8164   0.165   8.765  10.380 -0.7389 -0.4460  0.1048
  802MOL0     C 8165   0.037   8.717  10.420 -0.3276  0.3654 -0.2546
  802MOL0     O 8166  -0.057   8.687  10.320  0.1706 -0.0441 -0.4805
  802MOL0     C 8167  -0.160   8.591  10.344  0.6624 -0.1367  0.1043
  802MOL0     C 8168  -0.262   8.600  10.259  0.4733  0.2699  0.0177
  802MOL0     C 8169  -0.359   8.492  10.263 -0.0962 -0.6763  0.6616
  802MOL0     C 8170  -0.361   8.397  10.370  0.5673  0.0323  0.4717
  802MOL0     O 8171  -0.458   8.298  10.385  0.0731 -0.3967  0.1428
  802MOL0     C 8172  -0.566   8.296  10.294  0.1961 -0.0296 -0.0152
  802MOL0     C 8173  -0.688   8.219  10.343 -0.4176 -0.3134 -0.3368
  802MOL0     C 8174  -0.777   8.177  10.226  0.1417 -0.1846 -0.5362
  802MOL0     C 8175  -0.895   8.099  10.288  0.0030  0.2409  1.3232
  802MOL0     C 8176  -0.990   8.043  10.188 -0.1308 -0.0541  0.5675
  802MOL0     C 8177  -1.132   8.009  10.248 -1.1582 -0.5075 -0.6849
  802MOL0     C 8178  -1.209   8.147  10.275 -0.2568 -0.1767 -0.4560
  802MOL0     C 8179  -1.307   8.131  10.400 -0.2591  0.2945 -0.1227
  802MOL0    Cl 8180  -1.213   8.101  10.552 -0.2108 -0.0781  0.1499
  802MOL0     C 8181  -0.259   8.398  10.462 -0.0401  0.2333 -0.4256
  802MOL0     C 8182  -0.162   8.498  10.451  0.0603  0.2627  0.2137
  802MOL0     O 8183   0.020   8.697  10.539 -1.2647 -0.0222  0.3089
  802MOL0     C 8184   0.196   8.759  10.235 -0.7316  0.7756 -0.1348
  802MOL0     C 8185   0.313   8.817  10.180  0.6609  0.6335 -0.2345
  802MOL0     N 8186   1.171   9.045  10.249  0.0412  0.1428 -0.3619
  802MOL0     N 8187   1.260   8.964  10.298 -0.1588 -0.0600 -0.2669
  802MOL0     C 8188   2.270   8.162  10.486 -0.1119 -0.0184  0.2534
  802MOL0     C 8189   2.398   8.113  10.462  0.0560 -0.7328  0.2036
  802MOL0     C 8190   2.823   8.034  10.337 -0.4129 -0.7917  0.8314
  802MOL0     C 8191   2.905   7.951  10.422 -0.0323 -0.1039  0.1953
  802MOL0     C 8192   3.039   7.936  10.385 -0.8620  0.2109  0.0527
  802MOL0     C 8193   3.090   8.018  10.280 -0.3815  0.2577 -0.6173
  802MOL0     O 8194   3.225   8.011  10.241  0.8636 -0.2581 -0.3347
  802MOL0     C 8195   3.306   8.116  10.295 -0.0296 -0.3836  0.5186
  802MOL0     C 8196   3.458   8.086  10.277  0.6200  0.9254 -0.4279
  802MOL0     C 8197   3.488   7.984  10.393 -0.0969  0.0776  0.9013
  802MOL0     C 8198   3.632   7.931  10.382  0.5826  0.3505  0.2260
  802MOL0     C 8199   3.740   8.031  10.385 -0.6092  0.0914  0.5208
  802MOL0     C 8200   3.842   8.101  10.403  0.0507 -0.0708  0.5899
  802MOL0     C 8201   3.011   8.110  10.211 -0.7276  0.3759 -0.3811
  802MOL0     C 8202   2.873   8.119  10.236  0.5745 -0.4870 -0.1799
  802MOL0     H 8203   2.439   8.222  10.139 -0.5094  0.2727 -0.9392
  802MOL0     H 8204   2.210   8.291  10.174 -0.9555  3.2186  2.3816
  802MOL0     H 8205   2.014   8.311  10.214 -0.3867 -0.3949 -1.0201
  802MOL0     H 8206   1.991   8.138  10.258 -1.0434  0.3332 -0.8066
  802MOL0     H 8207   1.785   8.187  10.270  0.8858  0.4769 -0.0638
  802MOL0     H 8208   1.827   8.243  10.428  3.2281  0.3897  0.5476
  802MOL0     H 8209   1.847   8.480  10.314 -1.4355  0.0522  1.2418
  802MOL0     H 8210   1.800   8.402  10.162  0.2446  1.2824 -0.1871
  802MOL0     H 8211   1.592   8.330  10.249 -1.3457 -0.1065  2.7632
  802MOL0     H 8212   1.607   8.386  10.407 -1.9459  0.9147 -0.3448
  802MOL0     H 8213   1.651   8.631  10.277  0.7123  0.0436 -1.7942
  802MOL0     H 8214   1.566   8.532  10.159 -1.7063 -1.8656  1.4346
  802MOL0     H 8215   1.398   8.471  10.351  0.5527 -1.1700  0.0855
  802MOL0     H 8216   1.493   8.596  10.440  3.3467  2.1452 -1.6007
  802MOL0     H 8217   1.437   8.748  10.230  0.2049  0.4856 -1.1390
  802MOL0     H 8218   1.320   8.610  10.196  0.1095 -1.8119  1.7945
  802MOL0     H 8219   1.300   8.735  10.464 -0.7807 -0.5545  0.9838
  802MOL0     H 8220   1.184   8.641  10.366 -1.5021  1.0615 -2.3897
  802MOL0     H 8221   0.988   8.777  10.277 -0.2728 -0.2383  2.1957
  802MOL0     H 8222   0.920   9.141  10.221  0.9563 -0.2927  1.0264
  802MOL0     H 8223   0.946   9.058  10.059 -0.3763 -2.1861  0.2750
  802MOL0     H 8224   0.794   8.955  10.293 -1.6111  0.2181 -0.1243
  802MOL0     H 8225   0.812   8.852  10.152  1.5563  1.0392 -2.6425
  802MOL0     H 8226   0.739   9.035  10.006 -0.0197  1.2756 -0.1623
  802MOL0     H 8227   0.668   9.119  10.134  0.4429  0.5071 -0.6145
  802MOL0     H 8228   0.602   8.832  10.054  0.5321  0.0306 -0.3057
  802MOL0     H 8229   0.493   8.975  10.029 -0.8947 -2.0039  0.0121
  802MOL0     H 8230   0.458   8.932  10.471 -0.5247  1.9869 -0.3544
  802MOL0     H 8231   0.347   8.891  10.659  1.4637 -1.9578 -0.5653
  802MOL0     H 8232   0.168   8.908  10.634  0.2945 -0.2849  1.2437
  802MOL0     H 8233   0.236   8.753  10.671 -0.1081  0.4293 -0.4230
  802MOL0     H 8234  -0.283   8.671  10.179 -1.2364 -0.1302  0.0772
  802MOL0     H 8235  -0.425   8.480  10.178  0.9496 -2.2246  0.0206
  802MOL0     H 8236  -0.603   8.396  10.269 -0.2953  0.1519  1.3508
  802MOL0     H 8237  -0.543   8.246  10.199 -2.7316 -1.3275 -0.1500
  802MOL0     H 8238  -0.647   8.134  10.399 -0.8597  0.1961  0.8102
  802MOL0     H 8239  -0.742   8.291  10.405  0.2350  0.3565 -0.5403
  802MOL0     H 8240  -0.733   8.111  10.151  0.0335  0.5415 -1.2510
  802MOL0     H 8241  -0.808   8.265  10.169 -0.0314 -0.2938 -0.6108
  802MOL0     H 8242  -0.852   8.020  10.350  0.5056 -0.8964 -0.4046
  802MOL0     H 8243  -0.950   8.161  10.359 -0.7703 -1.7033  2.5019
  802MOL0     H 8244  -0.949   7.951  10.144 -2.2735 -1.4839  1.3854
  802MOL0     H 8245  -0.992   8.112  10.103  3.9769  0.0934  0.4240
  802MOL0     H 8246  -1.186   7.950  10.174  1.8060 -0.2155 -3.3183
  802MOL0     H 8247  -1.134   7.942  10.334 -1.9655  1.3020  0.7873
  802MOL0     H 8248  -1.257   8.188  10.185  1.8498 -0.8597 -1.9579
  802MOL0     H 8249  -1.138   8.221  10.310  1.2088 -1.8792  0.3562
  802MOL0     H 8250  -1.363   8.040  10.375 -1.3989  0.8325  0.4082
  802MOL0     H 8251  -1.376   8.214  10.412  2.3776  2.6421 -0.2059
  802MOL0     H 8252  -0.254   8.325  10.542 -1.6676  2.0340  1.4185
  802MOL0     H 8253  -0.078   8.474  10.516  0.6581 -1.5368 -1.1275
  802MOL0     H 8254   0.114   8.716  10.180  0.8627 -1.3521 -0.9929
  802MOL0     H 8255   0.335   8.827  10.074  3.5690 -1.8974 -0.0258
  802MOL0     H 8256   2.221   8.141  10.580 -1.2028 -0.8218 -0.4731
  802MOL0     H 8257   2.450   8.064  10.544  2.8855 -1.2001 -1.7171
  802MOL0     H 8258   2.862   7.899  10.507 -1.1763 -0.2051 -0.4358
  802MOL0     H 8259   3.111   7.881  10.446 -0.3224  2.4251  1.5423
  802MOL0     H 8260   3.275   8.211  10.250  2.4824 -0.5877 -1.9094
  802MOL0     H 8261   3.294   8.120  10.404  2.5125 -0.9795  0.8722
  802MOL0     H 8262   3.526   8.171  10.287  0.5382  0.8586  0.8404
  802MOL0     H 8263   3.469   8.039  10.180 -0.4703  0.4628 -0.3434
  802MOL0     H 8264   3.414   7.904  10.391 -0.5079  0.4454 -1.2625
  802MOL0     H 8265   3.475   8.030  10.491  0.9357 -0.1773  1.1797
  802MOL0     H 8266   3.635   7.865  10.295 -0.1845  2.1943 -1.2880
  802MOL0     H 8267   3.656   7.867  10.467  2.4725 -0.0517 -0.5630
  802MOL0     H 8268   3.932   8.155  10.426 -0.9966  1.4446  1.2954
  802MOL0     H 8269   3.052   8.163  10.126  1.3663 -2.2503 -1.1322
  802MOL0     H 8270   2.812   8.188  10.179  0.2024 -0.2129  0.5333
  803MOL0     O 8271   7.616   1.578   2.255 -0.1710  0.0394  0.4751
  803MOL0     C 8272   7.716   1.583   2.183 -0.0672 -0.5582 -1.0131
  803MOL0     O 8273   7.721   1.640   2.057 -0.1073 -0.1840 -0.1724
  803MOL0     C 8274   7.611   1.701   2.004  0.0325 -0.6247  0.1191
  803MOL0     C 8275   7.648   1.812   1.924  0.6790  0.0946 -0.3672
  803MOL0     C 8276   7.545   1.893   1.863 -0.1598 -0.7976  0.2055
  803MOL0     C 8277   7.408   1.854   1.877  0.4426 -0.5974  0.0082
  803MOL0     O 8278   7.303   1.933   1.835  0.6244 -0.0121 -0.3775
  803MOL0     C 8279   7.318   2.039   1.736 -0.4139  0.0609 -0.0896
  803MOL0     C 8280   7.182   2.108   1.704 -0.5358 -0.0768 -0.0556
  803MOL0     C 8281   7.071   1.997   1.701  1.0258 -0.8726 -0.3464
  803MOL0     C 8282   7.075   1.924   1.568 -0.2384 -0.7261 -0.5633
  803MOL0     C 8283   7.056   1.773   1.583 -0.3868  0.7770  0.5857
  803MOL0     C 8284   7.025   1.704   1.446 -0.5386  0.3581 -0.3270
  803MOL0     C 8285   6.954   1.566   1.439  0.4997  0.6255  0.2379
  803MOL0     C 8286   6.844   1.539   1.338  0.9951 -0.3890 -0.5364
  803MOL0     N 8287   6.875   1.589   1.207  0.7066  0.6181 -0.1447
  803MOL0     C 8288   6.994   1.576   1.149  0.0553 -0.0640 -0.1833
  803MOL0     C 8289   6.989   1.610   1.020  0.5590  0.8160 -0.7240
  803MOL0     C 8290   7.106   1.603   0.912  0.4910  0.5689 -0.8781
  803MOL0     C 8291   7.217   1.704   0.918  0.3812  0.2192  0.2833
  803MOL0     C 8292   7.161   1.848   0.890 -0.0901  0.5211  0.3551
  803MOL0     C 8293   7.282   1.941   0.867  0.5442  0.0007 -0.7523
  803MOL0     O 8294   7.372   1.946   0.982  0.1409  0.5769  0.0686
  803MOL0     C 8295   7.482   2.015   0.946  1.1376  0.2492  0.2602
  803MOL0     C 8296   7.484   2.145   0.887 -0.2301 -0.8610  0.6438
  803MOL0     C 8297   7.600   2.217   0.870  0.0287  0.2785  0.8093
  803MOL0     C 8298   7.602   2.360   0.805  0.2597  0.1230  0.7323
  803MOL0     C 8299   7.728   2.150   0.910  0.9296 -0.3909 -0.1322
  803MOL0     C 8300   7.868   2.208   0.902 -0.4089 -0.1917 -0.5568
  803MOL0     O 8301   7.872   2.348   0.901 -0.9100  0.8617 -0.5784
  803MOL0     C 8302   7.979   2.433   0.866 -0.0011  0.7879 -0.1957
  803MOL0     C 8303   7.955   2.569   0.871  0.0672  0.1275  1.1284
  803MOL0     C 8304   8.045   2.670   0.831 -1.0213  0.0402  0.4556
  803MOL0     C 8305   8.166   2.634   0.778  0.1505 -0.2270  0.0219
  803MOL0     O 8306   8.254   2.724   0.718 -0.3962 -0.5340 -0.4430
  803MOL0     C 8307   8.251   2.865   0.751 -0.8844  0.3806 -0.1485
  803MOL0     C 8308   8.185   2.961   0.657  0.3811  0.0317  0.1081
  803MOL0     C 8309   8.225   2.937   0.515 -0.4484  0.0916 -0.0251
  803MOL0     C 8310   8.326   3.043   0.462 -0.4883 -0.1898  0.1124
  803MOL0     C 8311   8.380   3.006   0.329  0.2986  0.2807 -0.1383
  803MOL0     C 8312   8.505   2.918   0.340 -0.0534  0.0735  0.8027
  803MOL0     C 8313   8.628   2.988   0.417  1.0199 -0.0502  0.3827
  803MOL0     C 8314   8.641   3.136   0.417 -0.1515  0.3384  0.6942
  803MOL0    Cl 8315   8.643   3.200   0.244 -0.1311  0.3888 -0.0286
  803MOL0     C 8316   8.202   2.495   0.770 -0.2140  0.1764  0.4158
  803MOL0     C 8317   8.110   2.399   0.821  0.2717 -0.0455  0.1990
  803MOL0     O 8318   7.955   2.137   0.867 -0.8020  0.4678  0.5183
  803MOL0     C 8319   7.718   2.019   0.963  0.3252 -0.3672  0.1410
  803MOL0     C 8320   7.595   1.949   0.982  0.8424 -0.1070 -0.1979
  803MOL0     N 8321   6.859   1.651   1.005 -1.1183 -0.4797  0.5561
  803MOL0     N 8322   6.793   1.635   1.112  0.1059 -0.2688  0.6358
  803MOL0     C 8323   7.378   1.744   1.957  0.6030 -0.5930  0.6559
  803MOL0     C 8324   7.473   1.664   2.013  0.9241  0.7278  0.2683
  803MOL0     C 8325   7.847   1.549   2.246 -0.6171 -0.4895  0.0701
  803MOL0     C 8326   7.862   1.491   2.370  0.1248  0.1647 -1.1111
  803MOL0     C 8327   7.986   1.474   2.437  0.3078  0.7241 -0.0869
  803MOL0     C 8328   8.104   1.503   2.365 -0.4822 -1.2173  0.3425
  803MOL0     O 8329   8.236   1.460   2.388 -0.0679  0.5347  0.4042
  803MOL0     C 8330   8.267   1.382   2.513 -1.1365 -0.1235 -0.8432
  803MOL0     C 8331   8.273   1.468   2.641 -0.1246 -0.7256  0.4128
  803MOL0     C 8332   8.383   1.570   2.615 -0.9023 -0.6550 -0.0069
  803MOL0     C 8333   8.407   1.649   2.741 -0.6557 -0.3730 -0.2655
  803MOL0     C 8334   8.491   1.570   2.836  0.2331 -0.4864 -0.5826
  803MOL0     C 8335   8.553   1.497   2.903  0.3230  0.7227  0.7053
  803MOL0     C 8336   8.086   1.566   2.241 -0.0696 -0.0491  0.2415
  803MOL0     C 8337   7.964   1.595   2.183 -0.0979  0.5159 -0.1687
  803MOL0     H 8338   7.749   1.844   1.899  0.8891  0.2744  0.6766
  803MOL0     H 8339   7.567   1.989   1.819 -3.3904 -0.3695 -0.7090
  803MOL0     H 8340   7.386   2.120   1.764 -0.3747  0.8130 -2.1916
  803MOL0     H 8341   7.357   2.004   1.639  1.9501 -1.4901  1.3051
  803MOL0     H 8342   7.160   2.177   1.786  2.4614  1.3020 -0.2715
  803MOL0     H 8343   7.180   2.167   1.612  0.1392  0.5069  0.2923
  803MOL0     H 8344   7.077   1.930   1.788  3.6950  0.3488  0.5086
  803MOL0     H 8345   6.973   2.044   1.712  0.0177 -3.2105  2.0486
  803MOL0     H 8346   7.002   1.967   1.498 -0.4781 -1.7952 -0.9857
  803MOL0     H 8347   7.171   1.940   1.518 -0.0307 -0.9265 -0.2310
  803MOL0     H 8348   7.139   1.719   1.631  0.5557  0.0756 -1.6898
  803MOL0     H 8349   6.970   1.757   1.649 -0.1486  1.6656  1.1337
  803MOL0     H 8350   6.972   1.781   1.390  1.8344  2.5270  0.2194
  803MOL0     H 8351   7.112   1.696   1.380  1.0014  1.6915  1.4355
  803MOL0     H 8352   7.028   1.490   1.411  1.0291  2.2160 -3.2767
  803MOL0     H 8353   6.908   1.545   1.535  0.1880  3.6558  0.8314
  803MOL0     H 8354   6.747   1.576   1.371  1.2957  0.2094 -0.3101
  803MOL0     H 8355   6.828   1.432   1.321  1.6690 -0.4877 -0.5784
  803MOL0     H 8356   7.085   1.531   1.187 -0.4793 -0.8312  0.1973
  803MOL0     H 8357   7.165   1.511   0.914 -0.9794 -0.3996  0.0184
  803MOL0     H 8358   7.059   1.601   0.813 -2.2008  2.9870  0.2244
  803MOL0     H 8359   7.298   1.680   0.848  0.3463 -2.0984  0.9536
  803MOL0     H 8360   7.268   1.708   1.015  1.6780 -0.8045 -0.3216
  803MOL0     H 8361   7.099   1.879   0.974 -1.0905  3.9320 -1.4139
  803MOL0     H 8362   7.096   1.843   0.802 -0.3099 -2.6389  0.6007
  803MOL0     H 8363   7.251   2.045   0.849 -2.5975 -0.3245  1.8091
  803MOL0     H 8364   7.347   1.916   0.783  1.9259 -0.7816  0.4924
  803MOL0     H 8365   7.396   2.191   0.844  0.4194 -1.7213 -1.7609
  803MOL0     H 8366   7.625   2.433   0.883 -0.9790  1.0018  0.3022
  803MOL0     H 8367   7.675   2.366   0.724 -1.7296 -0.0999 -1.1814
  803MOL0     H 8368   7.504   2.394   0.770  0.7018  2.8635  1.9633
  803MOL0     H 8369   7.859   2.591   0.917 -1.2594  1.3030 -1.8819
  803MOL0     H 8370   8.008   2.771   0.837 -0.3566  0.4008 -1.0117
  803MOL0     H 8371   8.211   2.871   0.852 -0.8818 -1.3209 -0.0163
  803MOL0     H 8372   8.359   2.884   0.751 -0.6187 -0.9468 -1.4428
  803MOL0     H 8373   8.076   2.967   0.665  0.3420  1.7968 -1.2791
  803MOL0     H 8374   8.223   3.059   0.688 -4.0983  2.4902 -1.3385
  803MOL0     H 8375   8.134   2.942   0.455 -0.1033  1.9038 -0.4600
  803MOL0     H 8376   8.260   2.836   0.493 -0.1734  0.2886 -0.5040
  803MOL0     H 8377   8.275   3.137   0.439 -1.9229 -1.0268 -0.3222
  803MOL0     H 8378   8.400   3.044   0.542  3.1928 -1.7786 -2.9953
  803MOL0     H 8379   8.408   3.101   0.283  0.4063  0.8051  0.9766
  803MOL0     H 8380   8.300   2.957   0.273 -0.8716 -0.4272  2.0510
  803MOL0     H 8381   8.489   2.817   0.378  3.0033  0.0411  2.3344
  803MOL0     H 8382   8.542   2.908   0.237 -0.4758 -2.5494  0.8389
  803MOL0     H 8383   8.721   2.942   0.383  1.1157 -0.1363  0.7565
  803MOL0     H 8384   8.612   2.949   0.518  1.5064 -3.9617 -0.9145
  803MOL0     H 8385   8.729   3.171   0.473  1.1957 -1.1575 -0.3769
  803MOL0     H 8386   8.555   3.181   0.468 -1.4666 -0.3612 -0.8230
  803MOL0     H 8387   8.295   2.457   0.729 -0.3275  2.8173 -2.6454
  803MOL0     H 8388   8.130   2.293   0.827 -1.6948 -0.4251  0.6694
  803MOL0     H 8389   7.812   1.978   0.999  0.3636  1.3109  2.1063
  803MOL0     H 8390   7.597   1.859   1.043 -3.9389  0.0743  0.6036
  803MOL0     H 8391   7.271   1.732   1.973  0.6014 -1.0413  0.3298
  803MOL0     H 8392   7.437   1.574   2.062  2.6866  0.6495  1.4982
  803MOL0     H 8393   7.770   1.464   2.422 -0.3916  2.1876 -0.8846
  803MOL0     H 8394   7.988   1.431   2.537  1.9516  4.8610  1.8672
  803MOL0     H 8395   8.208   1.290   2.515  0.2109 -1.0144 -0.7224
  803MOL0     H 8396   8.368   1.344   2.498 -1.0329  0.0413 -0.5676
  803MOL0     H 8397   8.296   1.405   2.727  0.3288 -0.2889  0.6142
  803MOL0     H 8398   8.175   1.516   2.653  0.8210  1.8924 -1.4029
  803MOL0     H 8399   8.358   1.642   2.536 -1.1083 -0.9904 -0.2493
  803MOL0     H 8400   8.482   1.534   2.585 -0.7086  0.7060 -1.0871
  803MOL0     H 8401   8.309   1.670   2.786 -0.6471 -0.9579  0.0408
  803MOL0     H 8402   8.471   1.738   2.734  0.7699 -1.2099  1.4470
  803MOL0     H 8403   8.622   1.432   2.954 -2.1259 -0.6738  2.4447
  803MOL0     H 8404   8.178   1.590   2.187  0.9063  0.5183  2.0590
  803MOL0     H 8405   7.950   1.653   2.092  2.3281  1.4335 -0.0362
  804MOL0     O 8406   2.737   2.751   4.622  0.5487  0.6431  0.5901
  804MOL0     C 8407   2.813   2.812   4.553  0.4348  1.1707 -0.6481
  804MOL0     O 8408   2.782   2.893   4.451  1.1703  0.5140 -0.1622
  804MOL0     C 8409   2.649   2.924   4.423 -0.5605  0.3090  0.2521
  804MOL0     C 8410   2.621   2.975   4.296 -0.5401  0.3579  0.1848
  804MOL0     C 8411   2.499   3.028   4.265 -0.0693  0.7134  0.0520
  804MOL0     C 8412   2.401   3.034   4.366  1.0973 -0.1427  0.6019
  804MOL0     O 8413   2.273   3.074   4.325 -0.0763  0.1634 -0.8350
  804MOL0     C 8414   2.181   2.970   4.281 -1.1492  0.7282  0.1124
  804MOL0     C 8415   2.043   3.020   4.275 -0.2184  0.0866  0.2794
  804MOL0     C 8416   1.984   3.108   4.398 -0.1708  0.7649 -0.9478
  804MOL0     C 8417   1.830   3.106   4.389  0.0648  0.9578 -0.0019
  804MOL0     C 8418   1.766   3.196   4.490 -0.6712  0.3149 -0.0684
  804MOL0     C 8419   1.620   3.187   4.483 -0.4275  0.6428  0.5885
  804MOL0     C 8420   1.570   3.294   4.577 -0.1902  0.1935 -0.5656
  804MOL0     C 8421   1.471   3.248   4.685  0.5843  0.4361  0.5864
  804MOL0     N 8422   1.518   3.143   4.780  0.2626 -0.0355 -0.8025
  804MOL0     C 8423   1.497   3.006   4.762  0.1333 -0.6848 -0.3883
  804MOL0     C 8424   1.575   2.954   4.864  0.0984  0.5403 -0.0822
  804MOL0     C 8425   1.566   2.800   4.897 -0.7052  0.2259  0.3410
  804MOL0     C 8426   1.422   2.749   4.924  0.4051 -0.5672 -0.3072
  804MOL0     C 8427   1.350   2.824   5.036  0.4610  0.0161 -0.0772
  804MOL0     C 8428   1.204   2.799   5.037 -0.0298 -0.0840 -0.1768
  804MOL0     O 8429   1.146   2.908   5.117  0.3808  0.2892 -0.7186
  804MOL0     C 8430   1.012   2.926   5.120 -0.4883 -1.2800 -0.6074
  804MOL0     C 8431   0.963   3.045   5.177  0.5918  0.1073 -0.4246
  804MOL0     C 8432   0.820   3.076   5.180  0.0959 -0.7191  0.6819
  804MOL0     C 8433   0.791   3.215   5.232 -0.2748 -0.6674 -0.4020
  804MOL0     C 8434   0.726   2.973   5.152  0.4207  0.8699 -0.3606
  804MOL0     C 8435   0.576   2.997   5.149 -0.1811 -0.2042 -0.7817
  804MOL0     O 8436   0.509   2.915   5.071  0.3521  0.3463 -0.2746
  804MOL0     C 8437   0.382   2.929   5.026  0.0003  0.3975 -0.3985
  804MOL0     C 8438   0.274   3.013   5.087  0.4267 -0.6241 -0.7040
  804MOL0     C 8439   0.152   3.040   5.018  0.2745 -0.4662 -0.0445
  804MOL0     C 8440   0.133   2.990   4.890  0.4445 -0.1721  0.3302
  804MOL0     O 8441   0.003   3.015   4.841 -0.1713 -0.4468  0.4133
  804MOL0     C 8442  -0.042   2.925   4.735 -0.7204 -0.0762 -0.4814
  804MOL0     C 8443  -0.201   2.934   4.721 -0.5207  0.1157 -0.2328
  804MOL0     C 8444  -0.244   2.850   4.606 -0.6159  0.4529  0.2372
  804MOL0     C 8445  -0.400   2.863   4.588  0.9665  0.5604 -0.2854
  804MOL0     C 8446  -0.452   2.792   4.459 -0.0155  0.3964 -0.7562
  804MOL0     C 8447  -0.603   2.786   4.453  0.1879  0.2963  0.8959
  804MOL0     C 8448  -0.634   2.702   4.329 -0.1222 -0.8090  0.5427
  804MOL0     C 8449  -0.783   2.681   4.309  0.5426  0.8379  0.0426
  804MOL0    Cl 8450  -0.811   2.648   4.135 -0.0244 -0.1022 -0.1759
  804MOL0     C 8451   0.231   2.912   4.824 -0.0233 -0.5529 -0.4406
  804MOL0     C 8452   0.353   2.879   4.894 -0.1615  0.3771  0.1174
  804MOL0     O 8453   0.522   3.068   5.230 -0.7313  0.6733 -0.3730
  804MOL0     C 8454   0.779   2.858   5.097  0.2378  0.5470 -0.1484
  804MOL0     C 8455   0.917   2.827   5.090  0.6598 -0.6794  0.4134
  804MOL0     N 8456   1.646   3.058   4.921 -0.0793  0.1127  0.3329
  804MOL0     N 8457   1.620   3.165   4.868 -0.2066 -0.5815  0.2661
  804MOL0     C 8458   2.425   2.990   4.490 -1.0157 -0.4941 -0.7355
  804MOL0     C 8459   2.552   2.931   4.524 -0.0694 -0.6251  0.3943
  804MOL0     C 8460   2.953   2.801   4.587 -0.3767 -0.0259 -0.4961
  804MOL0     C 8461   3.044   2.858   4.496 -0.0046 -0.8372  0.2185
  804MOL0     C 8462   3.186   2.844   4.515 -0.5565  0.0289 -0.5417
  804MOL0     C 8463   3.238   2.779   4.626 -0.1677  1.4094 -0.5690
  804MOL0     O 8464   3.373   2.778   4.647 -0.0697 -0.1602  0.8376
  804MOL0     C 8465   3.434   2.649   4.625  0.4475  0.0266 -0.0336
  804MOL0     C 8466   3.556   2.658   4.525 -0.5219  0.8116 -0.1824
  804MOL0     C 8467   3.526   2.647   4.374  0.7612  0.1430 -0.2053
  804MOL0     C 8468   3.649   2.622   4.285  0.7866  0.2908  0.1534
  804MOL0     C 8469   3.743   2.731   4.309  0.5839 -1.0646  1.3259
  804MOL0     C 8470   3.813   2.826   4.340 -1.0068 -0.4910 -0.3134
  804MOL0     C 8471   3.145   2.712   4.709 -0.9389  0.6032 -0.5555
  804MOL0     C 8472   3.005   2.725   4.693 -0.4609 -0.3124  0.0051
  804MOL0     H 8473   2.688   2.968   4.211 -1.7756 -0.3862 -0.7678
  804MOL0     H 8474   2.479   3.064   4.165 -0.0991  2.7473  0.7366
  804MOL0     H 8475   2.219   2.924   4.189  2.1850  0.1978  1.5912
  804MOL0     H 8476   2.184   2.883   4.347 -1.8673 -1.3336 -2.3816
  804MOL0     H 8477   2.041   3.085   4.187  1.1806 -0.1153  0.0819
  804MOL0     H 8478   1.979   2.935   4.249  0.9975 -0.7240 -0.1479
  804MOL0     H 8479   2.008   3.066   4.496  0.1612 -1.6383 -1.9801
  804MOL0     H 8480   2.012   3.213   4.391 -0.0503  0.8868  0.9187
  804MOL0     H 8481   1.799   3.134   4.288 -0.4280  1.8182  0.3828
  804MOL0     H 8482   1.807   3.004   4.421  1.9071  0.6685  0.5072
  804MOL0     H 8483   1.810   3.186   4.590 -2.2626 -1.4810  0.5117
  804MOL0     H 8484   1.786   3.296   4.450 -4.1812  0.4521 -1.8603
  804MOL0     H 8485   1.595   3.203   4.377  3.0572 -0.0297 -0.4559
  804MOL0     H 8486   1.594   3.083   4.507 -2.5398  0.8612 -0.5080
  804MOL0     H 8487   1.637   3.364   4.628  1.4667 -2.3691  0.9908
  804MOL0     H 8488   1.524   3.362   4.505 -1.2529 -0.2090 -0.2830
  804MOL0     H 8489   1.379   3.217   4.634  1.6488 -0.3654 -0.9247
  804MOL0     H 8490   1.444   3.330   4.751  1.8308 -1.1943  3.2962
  804MOL0     H 8491   1.422   2.959   4.698 -0.8990 -1.0876  1.0538
  804MOL0     H 8492   1.614   2.750   4.813 -1.0411 -0.7521  0.7168
  804MOL0     H 8493   1.633   2.769   4.977  0.5290 -0.8811 -1.0709
  804MOL0     H 8494   1.439   2.646   4.957  0.0900 -0.8714 -1.0626
  804MOL0     H 8495   1.371   2.742   4.827  2.4253  2.7656 -1.8034
  804MOL0     H 8496   1.372   2.930   5.020  0.9542  0.0281  0.6608
  804MOL0     H 8497   1.390   2.791   5.132  0.9578 -1.3223 -0.7098
  804MOL0     H 8498   1.182   2.699   5.075  0.2768  0.4146  1.3868
  804MOL0     H 8499   1.166   2.808   4.935  1.0649 -2.5228 -0.8546
  804MOL0     H 8500   1.038   3.119   5.203  1.4941 -1.1629  0.7113
  804MOL0     H 8501   0.878   3.265   5.275  0.3883 -1.7481 -0.4518
  804MOL0     H 8502   0.740   3.272   5.154 -0.0117 -0.0282 -0.1116
  804MOL0     H 8503   0.710   3.211   5.306 -2.2303 -0.3581 -2.4045
  804MOL0     H 8504   0.279   3.057   5.186  0.9520 -1.2216 -0.4607
  804MOL0     H 8505   0.067   3.090   5.064 -1.1713 -1.8488 -1.0825
  804MOL0     H 8506   0.001   2.959   4.640  2.1514  0.9712  1.0814
  804MOL0     H 8507  -0.009   2.823   4.754  0.1473  0.0583 -1.1948
  804MOL0     H 8508  -0.249   2.905   4.815  2.8744 -1.3292  1.2046
  804MOL0     H 8509  -0.235   3.036   4.699 -0.2278 -0.2989 -2.9362
  804MOL0     H 8510  -0.214   2.748   4.630  0.0818  1.0534  2.0630
  804MOL0     H 8511  -0.200   2.880   4.510 -0.5877 -1.7693 -0.5076
  804MOL0     H 8512  -0.443   2.821   4.679 -0.8701  1.7328 -0.5535
  804MOL0     H 8513  -0.420   2.971   4.586  0.6359  0.4941 -0.5116
  804MOL0     H 8514  -0.415   2.689   4.471 -1.0557  0.0231 -0.6472
  804MOL0     H 8515  -0.407   2.828   4.366 -0.0871  2.8393  0.0939
  804MOL0     H 8516  -0.655   2.753   4.544 -2.6919  0.0030 -0.7380
  804MOL0     H 8517  -0.642   2.887   4.436 -0.5674 -0.2199 -0.5670
  804MOL0     H 8518  -0.588   2.603   4.329  1.5872 -0.0349  0.0973
  804MOL0     H 8519  -0.602   2.758   4.241  1.6060 -0.1822  1.5230
  804MOL0     H 8520  -0.829   2.777   4.333  1.6060  1.1025  1.1179
  804MOL0     H 8521  -0.826   2.599   4.368 -0.1227  0.1902 -1.3084
  804MOL0     H 8522   0.218   2.877   4.722  0.3399  2.9588 -1.8292
  804MOL0     H 8523   0.433   2.818   4.854  1.9551  2.4509  0.9265
  804MOL0     H 8524   0.720   2.774   5.060  0.7134 -0.3764  1.1150
  804MOL0     H 8525   0.934   2.723   5.065 -0.3475 -1.0451  1.2036
  804MOL0     H 8526   2.355   2.995   4.573 -0.8058 -0.0458 -0.5753
  804MOL0     H 8527   2.573   2.903   4.627  1.1741 -0.9637  0.0596
  804MOL0     H 8528   3.021   2.917   4.408  3.3314 -0.0018 -0.2355
  804MOL0     H 8529   3.254   2.888   4.442  0.0676 -0.5188 -0.3014
  804MOL0     H 8530   3.485   2.626   4.719 -0.4850  1.4411  0.8653
  804MOL0     H 8531   3.355   2.576   4.603  1.1150 -0.4039 -1.0671
  804MOL0     H 8532   3.631   2.581   4.549  0.1123  0.0024 -4.1099
  804MOL0     H 8533   3.604   2.755   4.544 -1.6887  1.1783  0.9942
  804MOL0     H 8534   3.487   2.747   4.351 -1.0912 -0.6414 -0.6491
  804MOL0     H 8535   3.461   2.564   4.346 -1.0933  0.2809  3.2215
  804MOL0     H 8536   3.608   2.627   4.183  1.0660  0.1055  0.0298
  804MOL0     H 8537   3.697   2.525   4.302  0.2693  0.0362  0.1640
  804MOL0     H 8538   3.871   2.913   4.362 -2.2541  0.7107 -1.5724
  804MOL0     H 8539   3.189   2.652   4.788 -0.5725  0.3944 -0.9148
  804MOL0     H 8540   2.941   2.680   4.769 -0.9608  0.4117  0.0221
  805MOL0     O 8541   4.395   7.991   0.013 -0.6862  0.2785 -0.0470
  805MOL0     C 8542   4.415   8.108  -0.019  0.3907  0.1121  0.1590
  805MOL0     O 8543   4.317   8.200  -0.040  0.9366  0.0055 -0.1808
  805MOL0     C 8544   4.184   8.158  -0.036 -0.5260  0.1861 -0.1886
  805MOL0     C 8545   4.122   8.043  -0.085 -0.4073  0.4550 -0.0324
  805MOL0     C 8546   3.979   8.030  -0.080 -1.2496  0.8380 -0.9904
  805MOL0     C 8547   3.903   8.127  -0.030 -0.1208  0.1463  0.4618
  805MOL0     O 8548   3.762   8.108  -0.044  0.0794  0.1103 -0.2346
  805MOL0     C 8549   3.684   8.228  -0.016 -0.9138  0.8528  0.1333
  805MOL0     C 8550   3.545   8.185  -0.056  0.0303  0.8536  0.0008
  805MOL0     C 8551   3.452   8.308  -0.037  0.2580  0.2455 -0.4072
  805MOL0     C 8552   3.305   8.270  -0.026 -0.3623 -0.9999  0.6528
  805MOL0     C 8553   3.205   8.381  -0.023 -0.1940 -0.4635 -0.3682
  805MOL0     C 8554   3.071   8.338   0.035 -0.3149  0.3818  0.2623
  805MOL0     C 8555   3.002   8.229  -0.045  0.2808 -0.7034 -0.7197
  805MOL0     C 8556   2.951   8.269  -0.184  0.1138 -0.3272 -0.5742
  805MOL0     N 8557   2.848   8.378  -0.187  0.4890 -0.2218 -0.2550
  805MOL0     C 8558   2.722   8.373  -0.134  0.0261 -0.4180  0.0694
  805MOL0     C 8559   2.671   8.496  -0.140  0.3489  0.1621  0.3211
  805MOL0     C 8560   2.546   8.547  -0.071  0.7580 -0.4357  0.9295
  805MOL0     C 8561   2.430   8.506  -0.167 -0.1048  0.0204  0.9455
  805MOL0     C 8562   2.283   8.551  -0.126 -0.2200 -0.0070 -1.3631
  805MOL0     C 8563   2.249   8.444  -0.017  0.1458 -0.2149 -0.2924
  805MOL0     O 8564   2.128   8.473   0.051  0.1061 -0.2788  0.1325
  805MOL0     C 8565   2.011   8.411   0.017 -0.5340  0.1349 -0.9514
  805MOL0     C 8566   1.906   8.440   0.104 -0.8791 -0.4229 -0.3117
  805MOL0     C 8567   1.781   8.373   0.107  0.1893 -0.3204  0.2728
  805MOL0     C 8568   1.678   8.409   0.205 -0.0296 -0.0753  0.2727
  805MOL0     C 8569   1.758   8.283  -0.006 -0.0927 -0.1057 -0.2198
  805MOL0     C 8570   1.633   8.224  -0.042 -0.2320  0.0130 -0.4337
  805MOL0     O 8571   1.606   8.199  -0.177 -0.2009  0.0959  0.0287
  805MOL0     C 8572   1.481   8.216  -0.210 -0.3339  0.2535 -0.2148
  805MOL0     C 8573   1.397   8.108  -0.191  0.1583 -0.3812 -0.6093
  805MOL0     C 8574   1.255   8.120  -0.200 -0.4191 -0.6276  0.9003
  805MOL0     C 8575   1.197   8.238  -0.254 -0.8826  0.2570  0.2901
  805MOL0     O 8576   1.065   8.242  -0.265 -0.2989 -0.0287 -0.4173
  805MOL0     C 8577   1.001   8.362  -0.266 -0.5185 -0.0641  0.1754
  805MOL0     C 8578   0.854   8.338  -0.223  0.2771  0.8696 -0.1774
  805MOL0     C 8579   0.853   8.289  -0.072 -0.2856 -0.7137  0.4771
  805MOL0     C 8580   0.737   8.193  -0.041  0.6064 -0.6066 -0.1718
  805MOL0     C 8581   0.739   8.154   0.104 -0.1042 -0.8096 -0.5298
  805MOL0     C 8582   0.681   8.014   0.135 -0.3180 -0.0126  0.1609
  805MOL0     C 8583   0.722   7.972   0.276  0.3356  0.2805  0.0939
  805MOL0     C 8584   0.685   7.825   0.306 -0.0309  0.3724 -0.4305
  805MOL0    Cl 8585   0.603   7.797   0.462  0.2473  0.1781  0.3451
  805MOL0     C 8586   1.295   8.340  -0.287  0.3576 -0.1078  0.0543
  805MOL0     C 8587   1.432   8.334  -0.261  0.4777  0.1930  0.7496
  805MOL0     O 8588   1.552   8.202   0.053  0.1949 -1.1902  0.2772
  805MOL0     C 8589   1.872   8.248  -0.085  0.5778 -0.0852  1.6107
  805MOL0     C 8590   1.996   8.304  -0.070 -0.0129 -0.8114  0.4398
  805MOL0     N 8591   2.762   8.579  -0.201 -0.4069  0.1042 -0.1179
  805MOL0     N 8592   2.865   8.504  -0.233  0.6650  0.0862  0.0744
  805MOL0     C 8593   3.970   8.242   0.022  1.1615  0.4104  0.1856
  805MOL0     C 8594   4.110   8.263   0.019 -0.0575  0.7276  0.0985
  805MOL0     C 8595   4.552   8.155  -0.014 -0.1101  0.5967 -0.5719
  805MOL0     C 8596   4.646   8.082   0.050 -1.1917  0.4447 -0.3269
  805MOL0     C 8597   4.785   8.124   0.059  0.2764 -0.3863 -0.4331
  805MOL0     C 8598   4.826   8.254   0.008  0.1233  0.7097 -0.6572
  805MOL0     O 8599   4.945   8.320   0.028  0.0161 -0.5382  0.6176
  805MOL0     C 8600   5.043   8.250   0.110 -0.0517  0.1912 -0.5030
  805MOL0     C 8601   5.128   8.171   0.007  0.3921 -0.0150 -0.5718
  805MOL0     C 8602   5.203   8.066   0.068  0.1184 -0.1890 -0.7825
  805MOL0     C 8603   5.292   8.008  -0.034  0.3770  1.1431  0.1259
  805MOL0     C 8604   5.398   7.932   0.025  0.0747  0.1146 -0.6390
  805MOL0     C 8605   5.499   7.871   0.062  0.3386  0.2943  0.1357
  805MOL0     C 8606   4.723   8.318  -0.066 -0.6633 -0.2545  0.3359
  805MOL0     C 8607   4.595   8.263  -0.083  0.2998  0.1278  0.2978
  805MOL0     H 8608   4.179   7.957  -0.119  1.3719  1.6390 -0.1622
  805MOL0     H 8609   3.939   7.932  -0.104 -2.1801  0.8900  0.2035
  805MOL0     H 8610   3.703   8.259   0.087  3.5149  1.2448 -0.6337
  805MOL0     H 8611   3.716   8.314  -0.074  0.1838  1.7154  1.9224
  805MOL0     H 8612   3.533   8.161  -0.162 -4.0738  0.2121  0.4307
  805MOL0     H 8613   3.515   8.096   0.000 -0.3342  1.4894  0.8427
  805MOL0     H 8614   3.472   8.364   0.055 -0.4340  2.5930 -1.6097
  805MOL0     H 8615   3.461   8.381  -0.117  0.0501 -0.4508 -1.0762
  805MOL0     H 8616   3.290   8.212  -0.118  0.4124 -2.3049  1.3235
  805MOL0     H 8617   3.304   8.207   0.063  1.9659 -2.6230 -0.3479
  805MOL0     H 8618   3.245   8.445   0.056  0.2063 -3.0934  1.7038
  805MOL0     H 8619   3.187   8.439  -0.114 -0.8694  1.8697  1.1672
  805MOL0     H 8620   3.083   8.300   0.137 -3.5886 -3.3501 -0.5107
  805MOL0     H 8621   3.005   8.426   0.039 -1.0488 -0.2041  2.2376
  805MOL0     H 8622   3.071   8.144  -0.041  0.0573 -0.8402  1.9328
  805MOL0     H 8623   2.912   8.203   0.012 -2.3750  1.2785 -3.6649
  805MOL0     H 8624   2.905   8.183  -0.232 -1.0799 -0.2120  0.3254
  805MOL0     H 8625   3.040   8.289  -0.245 -2.0084 -2.4415 -4.8130
  805MOL0     H 8626   2.675   8.286  -0.087  1.7105  0.0242  2.7740
  805MOL0     H 8627   2.540   8.500   0.028  0.2835  0.2659  1.2453
  805MOL0     H 8628   2.541   8.654  -0.053  3.0755 -0.4667  2.0754
  805MOL0     H 8629   2.442   8.402  -0.198 -0.6900  0.2634 -0.1557
  805MOL0     H 8630   2.447   8.570  -0.254  2.8746 -2.7226 -0.7251
  805MOL0     H 8631   2.220   8.533  -0.213 -0.5891 -1.6520 -0.7964
  805MOL0     H 8632   2.270   8.652  -0.086 -0.3002 -0.8675  0.9257
  805MOL0     H 8633   2.327   8.445   0.059 -1.4498 -1.2118  1.4600
  805MOL0     H 8634   2.251   8.348  -0.070 -1.0372 -0.6061  0.3371
  805MOL0     H 8635   1.915   8.518   0.180  2.3464  0.1716 -1.1601
  805MOL0     H 8636   1.720   8.482   0.274 -0.3249 -2.1710  2.8284
  805MOL0     H 8637   1.589   8.453   0.159 -0.6343 -1.0848  0.4634
  805MOL0     H 8638   1.653   8.319   0.261 -0.1286 -1.0283 -1.2457
  805MOL0     H 8639   1.437   8.016  -0.150  0.7409  1.4297  3.4155
  805MOL0     H 8640   1.190   8.038  -0.172  1.4597 -2.0583  1.2324
  805MOL0     H 8641   1.054   8.439  -0.209 -1.2960 -0.4643  1.4895
  805MOL0     H 8642   1.003   8.400  -0.368 -0.6054 -1.1240 -0.2301
  805MOL0     H 8643   0.801   8.433  -0.230  0.3248  0.9447  0.4983
  805MOL0     H 8644   0.807   8.271  -0.295 -0.1180 -0.3044  1.1353
  805MOL0     H 8645   0.838   8.385  -0.021 -0.5048  1.0174 -2.6003
  805MOL0     H 8646   0.947   8.239  -0.050  0.4162  0.2216 -0.2663
  805MOL0     H 8647   0.646   8.251  -0.057  2.4532  3.4525  2.3899
  805MOL0     H 8648   0.736   8.106  -0.108  0.5635 -0.4133 -0.4241
  805MOL0     H 8649   0.681   8.225   0.163  2.9934  0.9263  0.6718
  805MOL0     H 8650   0.842   8.156   0.143 -0.2305 -1.7332 -0.1231
  805MOL0     H 8651   0.572   8.009   0.127 -0.4356  2.5453 -0.7223
  805MOL0     H 8652   0.721   7.938   0.067  0.3722  0.4717  0.0194
  805MOL0     H 8653   0.681   8.042   0.349 -0.4756 -0.3913  0.3048
  805MOL0     H 8654   0.829   7.992   0.277  0.3900  0.3045 -2.0689
  805MOL0     H 8655   0.775   7.763   0.300 -0.7471 -0.6232 -1.8668
  805MOL0     H 8656   0.616   7.788   0.229  0.3543 -0.1919 -0.5128
  805MOL0     H 8657   1.264   8.433  -0.332  0.8773  1.1359  2.1331
  805MOL0     H 8658   1.502   8.416  -0.276 -0.1248  0.2118 -2.7198
  805MOL0     H 8659   1.862   8.182  -0.170 -0.3181  0.6996  1.0941
  805MOL0     H 8660   2.080   8.263  -0.126  1.6106  3.1744 -0.3618
  805MOL0     H 8661   3.911   8.321   0.067 -0.2713 -1.4276  1.6723
  805MOL0     H 8662   4.161   8.350   0.060 -0.9548  0.9479  0.7808
  805MOL0     H 8663   4.623   7.979   0.075  2.1397 -0.4818 -0.6108
  805MOL0     H 8664   4.852   8.065   0.120  0.6919  1.3067  0.8252
  805MOL0     H 8665   5.110   8.320   0.162 -0.6379 -1.6888  3.0803
  805MOL0     H 8666   5.004   8.191   0.193  2.3574 -1.2682 -0.3080
  805MOL0     H 8667   5.199   8.247  -0.029  1.3362 -0.4673  0.2958
  805MOL0     H 8668   5.064   8.130  -0.071 -1.3169 -1.8281  1.6723
  805MOL0     H 8669   5.130   7.991   0.100 -2.1240  1.8295 -0.9281
  805MOL0     H 8670   5.260   8.105   0.153 -1.7598  0.7954  0.0864
  805MOL0     H 8671   5.341   8.083  -0.097  2.9463 -1.2233 -0.9308
  805MOL0     H 8672   5.225   7.943  -0.092  0.7097 -0.4987  1.4871
  805MOL0     H 8673   5.588   7.819   0.093 -0.1458 -1.2262 -0.9158
  805MOL0     H 8674   4.752   8.408  -0.119 -2.9603  1.1990  1.3662
  805MOL0     H 8675   4.530   8.328  -0.141 -0.7010 -0.4536  0.7429
  806MOL0     O 8676   0.634   5.806   8.260  0.3087  0.1340  0.0757
  806MOL0     C 8677   0.711   5.708   8.250 -0.2124  0.3682 -0.2020
  806MOL0     O 8678   0.696   5.614   8.148 -0.1691 -0.0603  0.1843
  806MOL0     C 8679   0.594   5.623   8.049 -0.6608 -0.6054 -0.1015
  806MOL0     C 8680   0.529   5.511   8.017 -0.4335  0.8430 -0.4413
  806MOL0     C 8681   0.446   5.502   7.905  0.2848 -0.0085 -0.0498
  806MOL0     C 8682   0.419   5.617   7.834  0.1642 -0.0233  0.3504
  806MOL0     O 8683   0.338   5.597   7.728 -0.4517 -0.1929 -0.1896
  806MOL0     C 8684   0.267   5.707   7.668 -0.4787  0.9804 -0.8319
  806MOL0     C 8685   0.156   5.659   7.576  0.7495 -0.4918 -0.0767
  806MOL0     C 8686   0.043   5.585   7.649 -0.1637  0.0829  0.7938
  806MOL0     C 8687  -0.020   5.499   7.536  1.7027 -0.2479  0.3282
  806MOL0     C 8688  -0.121   5.401   7.582  0.0799  0.7061 -0.2670
  806MOL0     C 8689  -0.241   5.376   7.488  0.3553  0.4344  0.0294
  806MOL0     C 8690  -0.348   5.277   7.559 -0.6468 -0.2142  0.3001
  806MOL0     C 8691  -0.489   5.317   7.512  0.2834 -0.9309  0.1464
  806MOL0     N 8692  -0.587   5.242   7.584  0.2739 -0.7237 -0.7838
  806MOL0     C 8693  -0.639   5.131   7.535  0.5892  0.8481 -0.6879
  806MOL0     C 8694  -0.759   5.113   7.601 -1.0347 -0.0840  0.5995
  806MOL0     C 8695  -0.854   5.000   7.556  0.2748  0.1553  0.0263
  806MOL0     C 8696  -0.957   5.049   7.465 -0.1189 -0.8217  0.5565
  806MOL0     C 8697  -1.039   5.166   7.525  0.2013 -0.5861 -1.6442
  806MOL0     C 8698  -1.105   5.130   7.658  0.2220  0.6686 -0.0682
  806MOL0     O 8699  -1.207   5.232   7.686  1.0140 -0.5180 -0.4307
  806MOL0     C 8700  -1.328   5.237   7.624  0.5692 -0.5227  0.8024
  806MOL0     C 8701  -1.397   5.123   7.567 -0.4162  0.3390 -0.4845
  806MOL0     C 8702  -1.524   5.119   7.516 -0.3542 -1.0558 -0.4298
  806MOL0     C 8703  -1.563   4.994   7.445 -0.5729 -0.4136  0.0178
  806MOL0     C 8704  -1.607   5.235   7.520 -0.0046 -0.4938 -0.3795
  806MOL0     C 8705  -1.744   5.248   7.466  0.8385  0.3353 -0.1672
  806MOL0     O 8706  -1.787   5.373   7.447  0.5945 -0.7744 -0.0151
  806MOL0     C 8707  -1.922   5.398   7.436  1.4412  0.4906 -0.0889
  806MOL0     C 8708  -1.979   5.483   7.533 -0.1167 -0.3231 -0.3763
  806MOL0     C 8709  -2.116   5.499   7.545 -0.2511 -0.7200  0.3300
  806MOL0     C 8710  -2.198   5.473   7.440  0.3615 -0.8050 -0.2140
  806MOL0     O 8711  -2.341   5.495   7.433 -0.1894 -0.0353 -0.1201
  806MOL0     C 8712  -2.407   5.467   7.560  0.4938  0.2508 -1.0739
  806MOL0     C 8713  -2.558   5.520   7.556 -0.0642 -0.2684  0.1442
  806MOL0     C 8714  -2.644   5.459   7.442  0.5033  0.4815 -0.0799
  806MOL0     C 8715  -2.784   5.533   7.445  0.1242 -0.2108 -0.5958
  806MOL0     C 8716  -2.878   5.461   7.341  0.0851 -0.9375  0.7243
  806MOL0     C 8717  -2.945   5.334   7.394  0.2739 -0.3056 -0.3449
  806MOL0     C 8718  -3.033   5.262   7.285 -0.0671  0.2763  0.3955
  806MOL0     C 8719  -3.071   5.113   7.324  0.2236 -0.6414  1.1302
  806MOL0    Cl 8720  -3.207   5.127   7.456  0.1077  0.1408  0.3427
  806MOL0     C 8721  -2.142   5.406   7.332  0.4523  0.7220 -0.3869
  806MOL0     C 8722  -2.007   5.355   7.329  0.0218  0.6290 -0.7793
  806MOL0     O 8723  -1.811   5.150   7.433  0.3437 -0.5398 -0.2345
  806MOL0     C 8724  -1.547   5.354   7.574 -0.4181  0.5373 -0.1041
  806MOL0     C 8725  -1.419   5.353   7.633  0.5968  0.0866 -0.7148
  806MOL0     N 8726  -0.761   5.207   7.706 -0.1251 -0.3617 -0.2785
  806MOL0     N 8727  -0.655   5.285   7.691 -0.1758 -0.1075 -0.6721
  806MOL0     C 8728   0.471   5.731   7.881  0.4441 -1.0043  0.4708
  806MOL0     C 8729   0.566   5.739   7.977 -0.1730  0.3494  0.3317
  806MOL0     C 8730   0.817   5.696   8.347  0.3500  0.2220 -0.6652
  806MOL0     C 8731   0.888   5.575   8.342  0.4749  0.5080 -0.5096
  806MOL0     C 8732   0.992   5.552   8.437  0.0642 -0.1020  0.3807
  806MOL0     C 8733   1.034   5.653   8.525  0.2202 -0.9355 -0.1418
  806MOL0     O 8734   1.140   5.635   8.611  0.1391  0.2318  0.3271
  806MOL0     C 8735   1.260   5.565   8.563 -0.1378 -0.2763 -0.0639
  806MOL0     C 8736   1.307   5.621   8.436  0.2928 -0.5900  0.0596
  806MOL0     C 8737   1.348   5.770   8.461 -0.0657 -0.2869 -0.7961
  806MOL0     C 8738   1.380   5.827   8.319 -1.0520  0.1428 -0.4603
  806MOL0     C 8739   1.486   5.930   8.323  0.2644 -0.2239 -0.3270
  806MOL0     C 8740   1.574   6.012   8.349 -0.1596 -0.0535 -0.4835
  806MOL0     C 8741   0.949   5.771   8.535 -0.0317 -0.2671 -0.0031
  806MOL0     C 8742   0.845   5.790   8.448 -0.2231 -0.1397  0.6146
  806MOL0     H 8743   0.547   5.420   8.075  0.2177 -0.6933 -2.9065
  806MOL0     H 8744   0.393   5.411   7.879 -1.0335  1.4625 -2.9150
  806MOL0     H 8745   0.225   5.778   7.741 -2.3259  1.4023 -2.2273
  806MOL0     H 8746   0.338   5.761   7.605 -0.0564  2.3989  0.7920
  806MOL0     H 8747   0.121   5.746   7.520  0.3857 -1.0668 -0.7595
  806MOL0     H 8748   0.206   5.595   7.502  4.5349  2.1016 -0.0314
  806MOL0     H 8749   0.068   5.514   7.728 -2.8025 -0.3727  1.3260
  806MOL0     H 8750  -0.036   5.650   7.688 -2.2001 -3.1313  2.4633
  806MOL0     H 8751  -0.070   5.559   7.459 -3.3267 -2.6223  1.3243
  806MOL0     H 8752   0.059   5.438   7.490  1.6544  0.1720 -0.3337
  806MOL0     H 8753  -0.074   5.309   7.615 -0.5532  0.1187 -0.9655
  806MOL0     H 8754  -0.160   5.438   7.677  3.0474 -2.2441  2.3026
  806MOL0     H 8755  -0.284   5.476   7.477  0.0523  0.2963 -0.0565
  806MOL0     H 8756  -0.200   5.338   7.393  0.0056  1.4915 -0.5566
  806MOL0     H 8757  -0.327   5.171   7.539 -0.3581 -0.2751  0.9162
  806MOL0     H 8758  -0.335   5.282   7.667 -0.8275 -1.3364  0.3910
  806MOL0     H 8759  -0.489   5.304   7.403  0.7694  1.9510 -0.2747
  806MOL0     H 8760  -0.503   5.425   7.517 -0.8053 -1.1007  4.1115
  806MOL0     H 8761  -0.597   5.065   7.459 -0.5254 -0.9306  0.1763
  806MOL0     H 8762  -0.805   4.916   7.507  1.3065  1.0422 -0.4914
  806MOL0     H 8763  -0.913   4.956   7.637 -1.6449  2.0821 -0.2267
  806MOL0     H 8764  -1.027   4.979   7.421  0.8405 -1.6031  0.2333
  806MOL0     H 8765  -0.905   5.095   7.381 -1.2804  1.2426  0.9007
  806MOL0     H 8766  -1.111   5.207   7.454 -0.2975 -0.2405 -0.9467
  806MOL0     H 8767  -0.970   5.250   7.538 -0.0331 -0.4642 -1.1621
  806MOL0     H 8768  -1.043   5.136   7.748  1.5028 -1.9875 -0.6734
  806MOL0     H 8769  -1.146   5.029   7.645 -0.7683  0.7761  1.8728
  806MOL0     H 8770  -1.335   5.036   7.545 -2.4673 -1.2546 -0.3053
  806MOL0     H 8771  -1.654   4.939   7.471 -0.6403 -2.7145 -4.2260
  806MOL0     H 8772  -1.573   5.033   7.343  1.1459 -0.2849 -0.1212
  806MOL0     H 8773  -1.481   4.923   7.455  1.6294  1.9551 -0.3863
  806MOL0     H 8774  -1.910   5.509   7.612  0.7368 -0.3448 -1.0948
  806MOL0     H 8775  -2.164   5.548   7.629 -4.3397 -1.3211 -1.4154
  806MOL0     H 8776  -2.415   5.363   7.591 -2.5305  1.5317  3.5107
  806MOL0     H 8777  -2.364   5.529   7.639 -1.6846 -2.0641  2.2052
  806MOL0     H 8778  -2.606   5.501   7.652  2.2743 -5.5591  0.6145
  806MOL0     H 8779  -2.554   5.628   7.534  1.7207 -0.2788  0.2765
  806MOL0     H 8780  -2.656   5.354   7.470  3.5417 -0.1959 -0.9608
  806MOL0     H 8781  -2.591   5.447   7.347 -1.0062 -0.2623 -0.8674
  806MOL0     H 8782  -2.821   5.542   7.547  1.4601 -2.3356  0.1512
  806MOL0     H 8783  -2.774   5.633   7.403  0.4288  0.2280  0.5129
  806MOL0     H 8784  -2.824   5.446   7.248 -1.0986 -0.6126 -0.0379
  806MOL0     H 8785  -2.958   5.530   7.314 -1.2840 -3.1537 -1.2434
  806MOL0     H 8786  -2.875   5.261   7.433  1.1060  0.3375 -0.6073
  806MOL0     H 8787  -2.998   5.363   7.485 -0.3021 -1.6903 -0.2099
  806MOL0     H 8788  -2.965   5.245   7.201  0.3419  0.6801  0.6452
  806MOL0     H 8789  -3.118   5.323   7.252 -0.2691 -0.3318 -0.2493
  806MOL0     H 8790  -2.974   5.072   7.354  1.5651 -0.0522 -2.0462
  806MOL0     H 8791  -3.103   5.059   7.235  0.9049  0.4907  0.1746
  806MOL0     H 8792  -2.202   5.393   7.242  0.6079  0.7529 -0.4953
  806MOL0     H 8793  -1.962   5.296   7.249 -0.0226 -1.9540  0.9707
  806MOL0     H 8794  -1.605   5.445   7.578 -1.2591  0.0138 -0.0832
  806MOL0     H 8795  -1.378   5.444   7.674  2.6391 -1.8424  1.8612
  806MOL0     H 8796   0.451   5.825   7.829  4.5673 -1.4244 -2.4293
  806MOL0     H 8797   0.619   5.832   8.000  2.1081  0.2034 -3.4643
  806MOL0     H 8798   0.868   5.502   8.264 -0.0389  0.4790 -0.3491
  806MOL0     H 8799   1.041   5.455   8.435  0.8067  0.2798 -0.3291
  806MOL0     H 8800   1.344   5.562   8.633 -0.8619  3.0904  1.1135
  806MOL0     H 8801   1.229   5.460   8.559 -1.9427 -0.0098  3.4296
  806MOL0     H 8802   1.241   5.614   8.350 -1.4675 -1.0897  1.3946
  806MOL0     H 8803   1.402   5.571   8.416  0.8527 -0.7038  2.6075
  806MOL0     H 8804   1.437   5.765   8.525  1.0661 -0.1919 -2.3255
  806MOL0     H 8805   1.265   5.826   8.506 -1.3228 -2.1873 -0.6123
  806MOL0     H 8806   1.291   5.852   8.261 -0.4949  2.5047 -0.4200
  806MOL0     H 8807   1.419   5.744   8.260 -0.8947  0.9390 -1.5292
  806MOL0     H 8808   1.665   6.066   8.369  0.5641 -1.5694  0.5381
  806MOL0     H 8809   0.973   5.846   8.610 -0.9902 -0.7258  0.7837
  806MOL0     H 8810   0.790   5.879   8.474  0.4953  0.0871  1.4321
  807MOL0     O 8811   2.369   7.286   5.667 -0.8419 -0.7703  0.1700
  807MOL0     C 8812   2.395   7.166   5.649  0.7741  0.1191  0.3487
  807MOL0     O 8813   2.314   7.064   5.687  0.3051  0.0873  0.7361
  807MOL0     C 8814   2.179   7.080   5.701  1.0549 -0.3733  0.1036
  807MOL0     C 8815   2.111   6.971   5.758 -0.1382 -0.6220  0.4420
  807MOL0     C 8816   1.962   6.965   5.753 -0.3107 -0.5670  0.2510
  807MOL0     C 8817   1.881   7.062   5.688 -0.7968 -0.2616 -0.2128
  807MOL0     O 8818   1.745   7.049   5.679  0.1007  0.1471  0.0405
  807MOL0     C 8819   1.697   6.923   5.728 -0.0761 -0.4591  0.4729
  807MOL0     C 8820   1.548   6.915   5.704  0.4691  0.3571  0.0639
  807MOL0     C 8821   1.477   7.020   5.789  0.1281 -0.1909 -0.0374
  807MOL0     C 8822   1.331   6.996   5.783 -0.3159 -0.2460  0.2904
  807MOL0     C 8823   1.261   7.069   5.896 -0.3587 -0.2995 -0.5718
  807MOL0     C 8824   1.111   7.060   5.888  0.0065 -0.7749 -0.6284
  807MOL0     C 8825   1.058   7.146   6.009 -0.3558  0.1870 -0.5169
  807MOL0     C 8826   0.928   7.096   6.072 -0.9445 -0.5205 -0.2481
  807MOL0     N 8827   0.815   7.118   5.978 -0.7300  0.2822 -0.3119
  807MOL0     C 8828   0.776   7.233   5.906  0.3090  0.8419  0.3615
  807MOL0     C 8829   0.656   7.196   5.863  1.1803 -0.5076 -0.1877
  807MOL0     C 8830   0.563   7.284   5.784 -0.3463  0.3826  0.2635
  807MOL0     C 8831   0.616   7.324   5.646 -0.8717  1.0529  0.3048
  807MOL0     C 8832   0.677   7.199   5.565  0.0712  0.1326  0.3100
  807MOL0     C 8833   0.697   7.252   5.423 -0.3848 -0.2237 -0.2253
  807MOL0     O 8834   0.563   7.250   5.359  0.5023  0.3340  0.6838
  807MOL0     C 8835   0.540   7.293   5.234  0.3041  0.4083  0.7217
  807MOL0     C 8836   0.406   7.296   5.191  0.2689 -0.3126 -0.0187
  807MOL0     C 8837   0.379   7.337   5.061 -1.1428  0.1978 -0.1837
  807MOL0     C 8838   0.236   7.339   5.022  0.6129 -0.4548  1.0803
  807MOL0     C 8839   0.490   7.366   4.978 -0.1101  0.5583 -0.1795
  807MOL0     C 8840   0.466   7.396   4.837  0.2470  0.3314 -0.4189
  807MOL0     O 8841   0.430   7.281   4.768 -0.6681  0.4247 -0.2291
  807MOL0     C 8842   0.380   7.278   4.643 -0.5585 -0.2460  0.4109
  807MOL0     C 8843   0.294   7.376   4.595 -1.0742  0.1767  0.7983
  807MOL0     C 8844   0.258   7.371   4.458  1.1478 -0.6645 -0.3315
  807MOL0     C 8845   0.286   7.255   4.381 -0.2961 -0.1413  0.8750
  807MOL0     O 8846   0.233   7.257   4.251 -0.1415 -0.3732  0.2625
  807MOL0     C 8847   0.246   7.138   4.172 -0.2228  0.2256  0.6748
  807MOL0     C 8848   0.191   7.160   4.037  0.1104  0.0351  0.3155
  807MOL0     C 8849   0.277   7.229   3.924 -0.3545  0.1673 -0.1725
  807MOL0     C 8850   0.385   7.134   3.864 -0.1859  0.0291  0.1969
  807MOL0     C 8851   0.454   7.210   3.747 -0.1212  0.4996  0.0231
  807MOL0     C 8852   0.569   7.132   3.690  0.1037  0.5534 -0.8563
  807MOL0     C 8853   0.691   7.108   3.784  1.2057  0.1989  0.6972
  807MOL0     C 8854   0.803   7.028   3.716  0.8770  0.8798  0.6533
  807MOL0    Cl 8855   0.959   7.044   3.800 -0.0694 -0.1039 -0.1574
  807MOL0     C 8856   0.368   7.150   4.439  0.3513  0.2001 -0.6685
  807MOL0     C 8857   0.427   7.165   4.565  0.0137 -0.3371 -0.0253
  807MOL0     O 8858   0.470   7.510   4.787  0.7959  0.0868  0.4857
  807MOL0     C 8859   0.622   7.374   5.022  0.2884  0.4542  0.2954
  807MOL0     C 8860   0.648   7.328   5.151  0.4238  0.1432  0.2654
  807MOL0     N 8861   0.620   7.072   5.896 -0.2513  0.6987 -0.1770
  807MOL0     N 8862   0.722   7.024   5.950  0.1094  0.8714 -0.2195
  807MOL0     C 8863   1.959   7.169   5.635 -0.5887  0.6196 -0.3072
  807MOL0     C 8864   2.098   7.176   5.645 -0.1635  0.2908 -0.6186
  807MOL0     C 8865   2.517   7.125   5.587  0.1388 -0.6079  0.6100
  807MOL0     C 8866   2.566   6.993   5.589  0.7176 -0.1733 -0.1198
  807MOL0     C 8867   2.688   6.952   5.545 -0.3646 -0.1599  0.1440
  807MOL0     C 8868   2.771   7.040   5.483 -0.4405  0.5042 -0.1832
  807MOL0     O 8869   2.886   6.990   5.437 -0.2012 -0.1026  0.0074
  807MOL0     C 8870   2.950   7.060   5.327 -0.5364  0.2521 -0.2818
  807MOL0     C 8871   3.098   7.028   5.320  0.9144 -0.1614 -0.2065
  807MOL0     C 8872   3.172   7.060   5.446  0.6306  0.8861  0.6232
  807MOL0     C 8873   3.307   6.981   5.460  0.9421 -0.7972  0.3655
  807MOL0     C 8874   3.406   7.038   5.371 -0.3642 -0.0334 -0.0455
  807MOL0     C 8875   3.486   7.112   5.311 -0.9574 -0.4438 -0.1538
  807MOL0     C 8876   2.730   7.170   5.471  0.5883 -0.5461  0.3078
  807MOL0     C 8877   2.609   7.216   5.520 -0.1962 -0.4116  0.0468
  807MOL0     H 8878   2.170   6.888   5.797  0.1966 -1.4477 -1.6321
  807MOL0     H 8879   1.923   6.870   5.788  0.9412 -1.8340 -1.5918
  807MOL0     H 8880   1.744   6.848   5.664 -1.2893  0.8892 -2.1670
  807MOL0     H 8881   1.725   6.901   5.831 -2.1781  1.5670  1.5711
  807MOL0     H 8882   1.534   6.942   5.599 -3.1022 -1.7967 -0.1566
  807MOL0     H 8883   1.509   6.814   5.717  3.2589 -0.5859  2.3305
  807MOL0     H 8884   1.504   7.004   5.894 -1.2792  0.5842  0.4645
  807MOL0     H 8885   1.488   7.126   5.765  0.1427  0.0565  0.9964
  807MOL0     H 8886   1.292   7.043   5.692 -0.3713  1.9272  1.3701
  807MOL0     H 8887   1.314   6.888   5.786  0.7374 -0.4089  0.5669
  807MOL0     H 8888   1.285   7.023   5.992 -0.6463 -0.0822 -0.3949
  807MOL0     H 8889   1.287   7.175   5.895 -1.4583 -0.0195 -0.5318
  807MOL0     H 8890   1.051   7.094   5.803 -0.5387  1.4085  0.5319
  807MOL0     H 8891   1.086   6.954   5.898 -0.3575 -0.7607 -1.3162
  807MOL0     H 8892   1.125   7.140   6.095 -1.2132 -1.8275  0.0434
  807MOL0     H 8893   1.055   7.254   5.990 -0.2416  0.9718  3.1583
  807MOL0     H 8894   0.911   7.148   6.167  1.5256  3.7702 -1.8713
  807MOL0     H 8895   0.937   6.987   6.079 -4.2470 -0.7802  2.3572
  807MOL0     H 8896   0.838   7.322   5.897  0.0398  0.9729 -0.1954
  807MOL0     H 8897   0.465   7.236   5.771  0.4346 -0.6801 -2.1663
  807MOL0     H 8898   0.553   7.375   5.844  0.9288  1.7366 -1.4590
  807MOL0     H 8899   0.700   7.393   5.654 -1.4091  1.8142 -0.5669
  807MOL0     H 8900   0.540   7.367   5.581 -0.0518  0.0382 -1.3875
  807MOL0     H 8901   0.615   7.109   5.559 -0.9651  0.5668  3.1074
  807MOL0     H 8902   0.773   7.164   5.605 -0.9586  0.1858  3.0445
  807MOL0     H 8903   0.768   7.182   5.376 -0.1588  0.7368 -1.3406
  807MOL0     H 8904   0.748   7.348   5.432 -0.3620 -0.2636  0.0818
  807MOL0     H 8905   0.332   7.261   5.263  1.3787 -0.6297  0.9903
  807MOL0     H 8906   0.223   7.383   4.923  0.4697  0.3952  1.4710
  807MOL0     H 8907   0.198   7.236   5.024  1.2796 -0.6978  1.9342
  807MOL0     H 8908   0.178   7.391   5.099  1.4604 -3.0507  3.6973
  807MOL0     H 8909   0.263   7.455   4.663 -3.3878 -0.2611  0.3267
  807MOL0     H 8910   0.185   7.444   4.425  0.0776  0.5503  4.0813
  807MOL0     H 8911   0.344   7.092   4.155 -1.0581 -1.0698 -0.9943
  807MOL0     H 8912   0.190   7.057   4.220  0.0411 -1.7438 -2.0977
  807MOL0     H 8913   0.161   7.064   3.992  0.0157  1.2008 -2.2790
  807MOL0     H 8914   0.106   7.226   4.055 -0.0819 -0.5669  1.7521
  807MOL0     H 8915   0.318   7.321   3.966 -0.6930  0.6469 -0.8844
  807MOL0     H 8916   0.209   7.262   3.846 -1.5289 -1.9941 -0.1352
  807MOL0     H 8917   0.449   7.093   3.942 -2.2767 -2.5742  0.7027
  807MOL0     H 8918   0.330   7.046   3.831  0.1010 -0.9405  2.1957
  807MOL0     H 8919   0.485   7.311   3.775 -1.0700  0.6630  0.5202
  807MOL0     H 8920   0.376   7.234   3.674  0.2657 -0.6996 -0.8141
  807MOL0     H 8921   0.534   7.042   3.639  1.8294  0.2926 -1.6519
  807MOL0     H 8922   0.623   7.193   3.617  1.4588 -0.5502 -0.7977
  807MOL0     H 8923   0.671   7.053   3.876 -0.2937 -0.0060  0.2786
  807MOL0     H 8924   0.718   7.212   3.804 -1.9884  1.0148  1.1835
  807MOL0     H 8925   0.812   7.060   3.612 -4.2128 -0.1388 -0.3490
  807MOL0     H 8926   0.764   6.926   3.712 -1.3111  1.7008 -2.3870
  807MOL0     H 8927   0.393   7.064   4.379  0.8712 -1.1694  1.4017
  807MOL0     H 8928   0.486   7.088   4.612 -1.0177 -2.1119 -1.5337
  807MOL0     H 8929   0.703   7.413   4.961  1.1966  0.2145  1.3357
  807MOL0     H 8930   0.751   7.308   5.182 -0.0556 -1.5342  0.8864
  807MOL0     H 8931   1.904   7.245   5.580 -0.4273 -0.6359 -2.3331
  807MOL0     H 8932   2.148   7.260   5.597 -0.3396  3.6972  4.4355
  807MOL0     H 8933   2.501   6.917   5.630  0.4224 -1.5045 -2.8135
  807MOL0     H 8934   2.715   6.847   5.550 -0.6374 -0.3024 -1.1501
  807MOL0     H 8935   2.894   7.043   5.234  2.0858 -1.6072 -1.6578
  807MOL0     H 8936   2.951   7.167   5.348 -0.4972  0.3437 -0.7341
  807MOL0     H 8937   3.138   7.090   5.240  0.8767  2.0933  1.4229
  807MOL0     H 8938   3.114   6.923   5.292 -2.8226 -0.7627 -0.5235
  807MOL0     H 8939   3.123   7.017   5.533  0.6853  1.5192  0.9701
  807MOL0     H 8940   3.186   7.166   5.467  0.0960  1.4805 -1.7118
  807MOL0     H 8941   3.299   6.872   5.458 -0.5039 -0.7602  1.9525
  807MOL0     H 8942   3.343   7.014   5.558 -2.7896 -0.2860  1.7094
  807MOL0     H 8943   3.543   7.192   5.268 -2.9099  1.4413  0.5863
  807MOL0     H 8944   2.802   7.241   5.432  0.4710 -0.8362 -0.4546
  807MOL0     H 8945   2.571   7.316   5.542 -1.5411 -0.8501 -0.2130
  808MOL0     O 8946   1.654   0.218   2.828 -0.0731 -0.3053  0.3061
  808MOL0     C 8947   1.657   0.170   2.715 -0.1436 -0.2786  0.0530
  808MOL0     O 8948   1.548   0.119   2.639 -0.3785 -0.4147  0.1965
  808MOL0     C 8949   1.426   0.133   2.700 -0.2481 -0.0408  0.4271
  808MOL0     C 8950   1.365   0.248   2.748  0.7532 -0.5419 -0.5312
  808MOL0     C 8951   1.234   0.249   2.800 -0.0012 -0.8391  0.0624
  808MOL0     C 8952   1.162   0.136   2.802 -0.1715 -0.2890  0.6279
  808MOL0     O 8953   1.031   0.142   2.843  0.0027  0.5361 -0.5629
  808MOL0     C 8954   0.947   0.234   2.778 -0.3986 -0.7146 -0.1322
  808MOL0     C 8955   0.803   0.205   2.800 -0.0260  0.2772  0.2015
  808MOL0     C 8956   0.780   0.216   2.948 -0.8762 -0.1045  0.3341
  808MOL0     C 8957   0.624   0.203   2.969  0.2677  0.1496  0.0016
  808MOL0     C 8958   0.557   0.073   2.914  0.0459 -0.3758 -0.0621
  808MOL0     C 8959   0.407   0.074   2.942  0.0014 -0.6923  0.0186
  808MOL0     C 8960   0.330  -0.056   2.943 -0.1432  0.7474 -0.7293
  808MOL0     C 8961   0.177  -0.051   2.998  0.2996 -0.2169  0.1065
  808MOL0     N 8962   0.106  -0.163   2.935  0.1851 -0.7469  1.8411
  808MOL0     C 8963   0.074  -0.173   2.798 -0.4947 -0.4126  0.2640
  808MOL0     C 8964  -0.003  -0.279   2.784 -0.1569  0.6114 -0.4867
  808MOL0     C 8965  -0.088  -0.300   2.651 -0.4022  0.1057 -0.2531
  808MOL0     C 8966  -0.088  -0.434   2.594 -0.4833  0.7885  0.8179
  808MOL0     C 8967  -0.201  -0.435   2.480 -0.3113  0.7830  0.0711
  808MOL0     C 8968  -0.226  -0.582   2.443  0.0067  0.8830 -0.2679
  808MOL0     O 8969  -0.337  -0.594   2.359  0.5244 -0.3937 -0.3170
  808MOL0     C 8970  -0.454  -0.604   2.418  0.0933  1.2521 -0.2950
  808MOL0     C 8971  -0.488  -0.600   2.557 -1.0505  0.2597  1.1886
  808MOL0     C 8972  -0.617  -0.618   2.600  0.1780 -0.6275 -0.1777
  808MOL0     C 8973  -0.639  -0.604   2.754  0.4531  0.9388  0.2439
  808MOL0     C 8974  -0.724  -0.635   2.509 -0.0140 -0.1813 -0.1605
  808MOL0     C 8975  -0.866  -0.630   2.528 -0.5838  0.1410 -0.7719
  808MOL0     O 8976  -0.955  -0.648   2.428 -0.1986 -0.6299 -0.7207
  808MOL0     C 8977  -1.085  -0.669   2.443  0.2499  0.6869  0.3453
  808MOL0     C 8978  -1.155  -0.687   2.555  0.3159 -0.7170  0.2672
  808MOL0     C 8979  -1.300  -0.693   2.559 -0.0138  0.0286  0.4823
  808MOL0     C 8980  -1.372  -0.705   2.438  0.6603 -0.4999 -0.0239
  808MOL0     O 8981  -1.507  -0.708   2.448  0.2335  0.1426 -0.3954
  808MOL0     C 8982  -1.585  -0.652   2.338 -0.3952  0.3076  0.1125
  808MOL0     C 8983  -1.723  -0.633   2.388  0.0240 -0.6812 -0.2494
  808MOL0     C 8984  -1.820  -0.598   2.273 -0.1408 -0.0594 -0.7298
  808MOL0     C 8985  -1.959  -0.558   2.329  0.3153 -0.9449 -0.4456
  808MOL0     C 8986  -2.044  -0.520   2.205  0.1637  0.4247 -0.2731
  808MOL0     C 8987  -2.187  -0.480   2.252 -0.6305  0.1037  0.3769
  808MOL0     C 8988  -2.272  -0.568   2.337  0.7113 -0.3524  0.2015
  808MOL0     C 8989  -2.272  -0.715   2.293  0.2497  0.5434 -0.4586
  808MOL0    Cl 8990  -2.378  -0.731   2.143  0.0700  0.1932 -0.2835
  808MOL0     C 8991  -1.290  -0.705   2.320  1.0967 -0.4338 -0.0829
  808MOL0     C 8992  -1.155  -0.675   2.322  0.3284 -0.0375  0.1648
  808MOL0     O 8993  -0.897  -0.610   2.645 -0.2511  0.5069  0.0277
  808MOL0     C 8994  -0.684  -0.664   2.368 -0.2308  0.3364  0.1302
  808MOL0     C 8995  -0.552  -0.642   2.327 -0.4545 -0.7836 -0.8814
  808MOL0     N 8996  -0.022  -0.335   2.909 -0.0431  0.2643  0.2087
  808MOL0     N 8997   0.044  -0.267   2.991  0.0010 -0.1865  1.1770
  808MOL0     C 8998   1.222   0.022   2.748  1.1292  1.0032 -0.4226
  808MOL0     C 8999   1.358   0.014   2.715  1.4493  0.5724  1.0075
  808MOL0     C 9000   1.785   0.141   2.648 -0.5207 -0.2384 -0.0212
  808MOL0     C 9001   1.785   0.059   2.538 -0.5693  0.3360  0.0928
  808MOL0     C 9002   1.906   0.003   2.486  0.3264  0.0396 -0.1127
  808MOL0     C 9003   2.027   0.050   2.530 -1.1282  0.2040 -0.6112
  808MOL0     O 9004   2.144   0.010   2.470 -0.6395 -0.3874 -0.7930
  808MOL0     C 9005   2.163  -0.101   2.384 -0.3322 -0.3653  0.0830
  808MOL0     C 9006   2.313  -0.102   2.358  0.7758 -0.3352 -0.2661
  808MOL0     C 9007   2.345  -0.219   2.269  0.2387  0.0760 -0.4635
  808MOL0     C 9008   2.339  -0.365   2.331  0.0471  0.0159 -0.7036
  808MOL0     C 9009   2.371  -0.464   2.231  0.1967 -0.2423  0.0117
  808MOL0     C 9010   2.371  -0.537   2.132 -1.3130 -0.1393 -0.2951
  808MOL0     C 9011   2.029   0.139   2.638 -1.0313 -0.6615 -0.7245
  808MOL0     C 9012   1.908   0.178   2.699 -0.2370 -0.0057  0.3155
  808MOL0     H 9013   1.408   0.347   2.734 -1.3339  0.2691 -1.6768
  808MOL0     H 9014   1.195   0.341   2.843 -1.8716 -0.8450 -1.4729
  808MOL0     H 9015   0.970   0.335   2.813  0.8672 -1.5458  1.5414
  808MOL0     H 9016   0.969   0.234   2.670 -0.4044 -0.4580 -0.1348
  808MOL0     H 9017   0.737   0.274   2.746  2.4057  1.7564 -1.0741
  808MOL0     H 9018   0.778   0.105   2.764 -0.2176  0.0212  1.0302
  808MOL0     H 9019   0.851   0.151   3.001  0.6864  0.3726 -1.0921
  808MOL0     H 9020   0.814   0.307   2.998 -0.7039 -0.0308  0.0875
  808MOL0     H 9021   0.599   0.206   3.076  3.0602 -0.3577  0.7414
  808MOL0     H 9022   0.585   0.291   2.918  1.9730 -0.2364 -2.0729
  808MOL0     H 9023   0.571   0.064   2.806 -2.3841  2.2045 -0.6979
  808MOL0     H 9024   0.610  -0.001   2.975 -2.4426  0.0085  2.8093
  808MOL0     H 9025   0.390   0.138   3.028 -0.5517 -0.8266  0.0087
  808MOL0     H 9026   0.363   0.122   2.854  0.5660 -1.2108 -0.5591
  808MOL0     H 9027   0.335  -0.087   2.839  0.6502 -0.2982 -0.4042
  808MOL0     H 9028   0.393  -0.127   2.999 -2.6975 -0.2421  1.0795
  808MOL0     H 9029   0.133   0.047   2.979  1.0430 -0.0221 -0.6908
  808MOL0     H 9030   0.176  -0.050   3.107 -1.6026  0.6085  0.1217
  808MOL0     H 9031   0.102  -0.099   2.723  0.2261 -1.4853 -0.5665
  808MOL0     H 9032  -0.188  -0.276   2.688 -0.4583 -1.4652  0.7005
  808MOL0     H 9033  -0.078  -0.233   2.565 -3.4339  1.2788  0.1545
  808MOL0     H 9034  -0.099  -0.502   2.679  1.1390 -0.6707 -0.0957
  808MOL0     H 9035   0.007  -0.442   2.541 -1.6822 -1.6083 -1.1516
  808MOL0     H 9036  -0.176  -0.383   2.387 -0.8416  0.5644 -0.1933
  808MOL0     H 9037  -0.294  -0.392   2.518 -0.8695  1.5979 -2.0807
  808MOL0     H 9038  -0.233  -0.646   2.531 -0.9227 -1.5299 -2.0026
  808MOL0     H 9039  -0.149  -0.638   2.390  1.8548  1.6521  1.4842
  808MOL0     H 9040  -0.407  -0.596   2.629 -0.7329 -1.0799  0.9444
  808MOL0     H 9041  -0.691  -0.513   2.787 -3.4233 -0.5078 -1.2692
  808MOL0     H 9042  -0.695  -0.688   2.796 -0.4870  2.3598  1.9797
  808MOL0     H 9043  -0.546  -0.594   2.810 -0.0739 -0.3748  1.3874
  808MOL0     H 9044  -1.106  -0.689   2.652 -1.2622 -1.0984  1.0840
  808MOL0     H 9045  -1.359  -0.699   2.650 -0.2264 -1.9253  0.2580
  808MOL0     H 9046  -1.544  -0.563   2.290 -0.8560  0.4577 -0.0102
  808MOL0     H 9047  -1.582  -0.732   2.264  1.5108  1.5205 -1.2145
  808MOL0     H 9048  -1.764  -0.721   2.438 -0.4420 -0.0218  0.5499
  808MOL0     H 9049  -1.721  -0.547   2.455 -2.5460 -1.7214  1.2651
  808MOL0     H 9050  -1.827  -0.691   2.217 -1.8463  0.4311 -1.3897
  808MOL0     H 9051  -1.781  -0.524   2.202 -0.5787 -0.8744 -1.8257
  808MOL0     H 9052  -1.992  -0.635   2.398  0.7717  0.6690  1.6880
  808MOL0     H 9053  -1.960  -0.461   2.380 -0.2215  0.6437 -3.2061
  808MOL0     H 9054  -2.047  -0.602   2.133 -1.7355 -0.2856  0.5522
  808MOL0     H 9055  -1.999  -0.436   2.151  0.2080  1.7608  1.7254
  808MOL0     H 9056  -2.174  -0.384   2.303  0.4686  0.6625 -0.8882
  808MOL0     H 9057  -2.249  -0.460   2.163  1.8469 -0.4385 -1.5973
  808MOL0     H 9058  -2.373  -0.526   2.337  0.4174 -0.8541  2.9868
  808MOL0     H 9059  -2.233  -0.561   2.439  0.1686  3.8960  0.3166
  808MOL0     H 9060  -2.304  -0.777   2.378  4.4177 -1.8432 -0.3408
  808MOL0     H 9061  -2.167  -0.742   2.286 -0.1802 -1.6561  0.6814
  808MOL0     H 9062  -1.337  -0.722   2.224 -0.9273  2.8459  0.1660
  808MOL0     H 9063  -1.092  -0.662   2.235  0.0239  0.6233  0.0377
  808MOL0     H 9064  -0.757  -0.694   2.293 -2.4958 -0.3067  2.4192
  808MOL0     H 9065  -0.523  -0.643   2.223  1.5798 -2.0022 -0.3667
  808MOL0     H 9066   1.165  -0.067   2.723  2.2870 -0.1503  0.8909
  808MOL0     H 9067   1.408  -0.081   2.704  0.5642  0.0988  0.9694
  808MOL0     H 9068   1.697   0.026   2.483  0.3692  0.1583 -1.3662
  808MOL0     H 9069   1.894  -0.075   2.412 -3.0866 -2.1638  2.4701
  808MOL0     H 9070   2.124  -0.189   2.436  1.3685 -0.7189  0.8349
  808MOL0     H 9071   2.102  -0.091   2.293  0.0426  3.2865  0.0588
  808MOL0     H 9072   2.358  -0.103   2.457  2.1144 -1.2177 -0.8619
  808MOL0     H 9073   2.349  -0.011   2.309 -0.2144  0.6321  0.7516
  808MOL0     H 9074   2.450  -0.205   2.245  1.2864 -1.7063  2.5173
  808MOL0     H 9075   2.286  -0.218   2.177  1.5840  1.9613 -1.3646
  808MOL0     H 9076   2.235  -0.381   2.362 -1.0230  2.3528 -2.6715
  808MOL0     H 9077   2.407  -0.379   2.415 -1.4032  0.0096  0.5189
  808MOL0     H 9078   2.371  -0.612   2.056  0.4610  0.0902 -0.5663
  808MOL0     H 9079   2.121   0.175   2.683 -0.9861  0.2802 -1.5471
  808MOL0     H 9080   1.901   0.241   2.787  3.1932  1.6935 -0.4967
  809MOL0     O 9081   3.028   3.660   8.600  1.4351 -0.0834  0.6470
  809MOL0     C 9082   3.094   3.597   8.684  0.5124  0.6372 -0.3008
  809MOL0     O 9083   3.047   3.561   8.800  0.3670  0.2847  0.2128
  809MOL0     C 9084   2.917   3.581   8.839 -0.2498 -0.8275  0.9330
  809MOL0     C 9085   2.852   3.476   8.896 -0.6396  0.6009  0.4559
  809MOL0     C 9086   2.725   3.488   8.944  0.6543 -0.6294 -0.0201
  809MOL0     C 9087   2.648   3.607   8.921 -0.6122 -0.2402 -0.3978
  809MOL0     O 9088   2.517   3.633   8.959  0.8119 -0.6149 -0.7200
  809MOL0     C 9089   2.416   3.530   8.931  0.5838  0.1832 -0.2182
  809MOL0     C 9090   2.270   3.586   8.924  0.3522 -0.1527 -0.6488
  809MOL0     C 9091   2.161   3.476   8.903 -0.6741  0.3543  0.2755
  809MOL0     C 9092   2.024   3.529   8.945  0.6063 -0.1131 -0.2487
  809MOL0     C 9093   1.907   3.453   8.885  0.6096  0.2883 -0.7183
  809MOL0     C 9094   1.781   3.499   8.960 -0.6248  0.0468 -0.5515
  809MOL0     C 9095   1.656   3.450   8.899  0.1745  0.5675  0.1567
  809MOL0     C 9096   1.639   3.305   8.931 -0.0791  0.4608 -0.1851
  809MOL0     N 9097   1.500   3.267   8.903 -0.2098 -1.2977 -0.1970
  809MOL0     C 9098   1.405   3.228   8.986 -0.1540 -0.9095 -0.0135
  809MOL0     C 9099   1.298   3.196   8.900 -0.3802  0.2477  0.0424
  809MOL0     C 9100   1.170   3.143   8.953  0.2329  0.2004  0.3968
  809MOL0     C 9101   1.053   3.204   8.882  0.1757 -0.0522  0.3637
  809MOL0     C 9102   0.931   3.122   8.910  0.2253 -0.1857  0.0791
  809MOL0     C 9103   0.806   3.183   8.856  0.1372  0.0029  0.5980
  809MOL0     O 9104   0.697   3.106   8.915  0.7803  0.2194  0.2951
  809MOL0     C 9105   0.578   3.095   8.841  1.0373 -1.2512 -0.7760
  809MOL0     C 9106   0.525   3.178   8.741  0.2343 -0.7933 -0.2516
  809MOL0     C 9107   0.402   3.161   8.679  0.3375  0.5303 -0.3210
  809MOL0     C 9108   0.362   3.243   8.557  0.5741 -0.1483 -0.3057
  809MOL0     C 9109   0.324   3.052   8.724 -0.4608  0.7150 -0.3525
  809MOL0     C 9110   0.185   3.013   8.677  1.1077  0.4694  0.0806
  809MOL0     O 9111   0.121   2.953   8.775 -0.1324 -0.4885  0.2375
  809MOL0     C 9112  -0.009   2.913   8.776  0.1212  0.3899 -0.2722
  809MOL0     C 9113  -0.075   2.854   8.674  0.3777  0.6980 -0.2751
  809MOL0     C 9114  -0.208   2.805   8.692  0.8527  0.1805  0.2828
  809MOL0     C 9115  -0.273   2.820   8.814  0.6116 -0.2877 -0.3602
  809MOL0     O 9116  -0.404   2.768   8.822 -0.1241 -0.6240  0.8450
  809MOL0     C 9117  -0.493   2.814   8.919 -0.3866  0.2744 -0.2332
  809MOL0     C 9118  -0.637   2.785   8.870 -1.1618 -0.3037 -0.6102
  809MOL0     C 9119  -0.741   2.761   8.975  0.2544 -0.0576 -0.1482
  809MOL0     C 9120  -0.880   2.727   8.916  0.6656 -0.6491 -0.1217
  809MOL0     C 9121  -0.989   2.710   9.014 -0.3764  0.4369 -0.6068
  809MOL0     C 9122  -1.124   2.700   8.938 -0.2989 -0.5520 -0.1835
  809MOL0     C 9123  -1.248   2.721   9.023  0.1362 -1.0761 -0.1191
  809MOL0     C 9124  -1.377   2.668   8.958  0.5987 -0.5423 -1.0887
  809MOL0    Cl 9125  -1.531   2.732   9.046 -0.0331 -0.0084  0.0115
  809MOL0     C 9126  -0.206   2.886   8.923  0.5092 -0.2514  0.6299
  809MOL0     C 9127  -0.074   2.940   8.900 -1.0315  1.3449 -0.4951
  809MOL0     O 9128   0.142   3.043   8.564  0.2420 -0.2247  0.3717
  809MOL0     C 9129   0.374   2.965   8.824 -0.6693  0.7671 -0.7036
  809MOL0     C 9130   0.497   2.987   8.880 -0.8564 -0.1615  0.3676
  809MOL0     N 9131   1.340   3.199   8.770 -0.5610 -0.0410 -0.6677
  809MOL0     N 9132   1.450   3.256   8.779  0.7394 -0.1358 -0.6903
  809MOL0     C 9133   2.719   3.714   8.867  0.1953  0.1559 -0.4507
  809MOL0     C 9134   2.847   3.695   8.828  0.2856  0.2109 -0.0665
  809MOL0     C 9135   3.228   3.563   8.660 -0.9157 -0.0860 -0.0745
  809MOL0     C 9136   3.310   3.570   8.779  0.9483  0.0372  0.5583
  809MOL0     C 9137   3.441   3.534   8.767  0.4037 -0.1000 -0.0982
  809MOL0     C 9138   3.498   3.486   8.647 -0.3563  0.1492 -0.4292
  809MOL0     O 9139   3.634   3.460   8.630  0.8802 -0.2263  0.1768
  809MOL0     C 9140   3.713   3.451   8.747 -0.3179 -0.7184  0.9266
  809MOL0     C 9141   3.837   3.368   8.701  1.1658 -0.8902  0.8974
  809MOL0     C 9142   3.946   3.337   8.803  0.0410  0.7602 -0.2031
  809MOL0     C 9143   3.977   3.452   8.891  0.2792 -0.6770 -0.6168
  809MOL0     C 9144   4.090   3.438   8.986  0.2110 -0.6310 -0.7092
  809MOL0     C 9145   4.190   3.425   9.058  0.0557  0.2152 -0.1849
  809MOL0     C 9146   3.417   3.483   8.530  0.9923  0.1579 -0.6824
  809MOL0     C 9147   3.275   3.509   8.541  1.1510  0.8784 -0.2730
  809MOL0     H 9148   2.907   3.383   8.906  0.4723  1.3766  1.9141
  809MOL0     H 9149   2.689   3.397   8.991 -0.1113 -0.4993 -0.3421
  809MOL0     H 9150   2.444   3.493   8.832  2.3610  0.3177  0.2019
  809MOL0     H 9151   2.425   3.447   9.001 -1.3803  2.0185  2.3968
  809MOL0     H 9152   2.252   3.620   9.027  1.5633  2.3278 -1.1669
  809MOL0     H 9153   2.258   3.669   8.854 -1.0245 -0.4287 -0.7710
  809MOL0     H 9154   2.162   3.450   8.797  3.5349  5.9668 -1.5756
  809MOL0     H 9155   2.187   3.388   8.961 -0.8677  1.1911  1.6810
  809MOL0     H 9156   2.020   3.514   9.054 -0.1181 -1.8898 -0.4768
  809MOL0     H 9157   2.013   3.631   8.908 -0.3409 -0.1837 -0.1763
  809MOL0     H 9158   1.910   3.482   8.779  0.0229  2.5302 -0.1796
  809MOL0     H 9159   1.926   3.346   8.897  1.3067  0.3884 -0.8815
  809MOL0     H 9160   1.794   3.460   9.061 -2.2318 -4.5391 -1.8474
  809MOL0     H 9161   1.776   3.608   8.972 -0.4917 -0.2787  4.0233
  809MOL0     H 9162   1.560   3.487   8.938 -1.4843 -0.7480 -2.3409
  809MOL0     H 9163   1.653   3.484   8.795 -1.6094  1.5035  0.4815
  809MOL0     H 9164   1.663   3.286   9.036 -2.4952  0.6436  0.4544
  809MOL0     H 9165   1.716   3.252   8.874 -0.9727  0.7004 -1.6648
  809MOL0     H 9166   1.414   3.219   9.093  2.0709  0.9139  0.0430
  809MOL0     H 9167   1.169   3.036   8.929 -0.7292  0.8760 -3.1788
  809MOL0     H 9168   1.171   3.163   9.060  1.7382  1.3874  0.2063
  809MOL0     H 9169   1.080   3.203   8.776  1.7832  1.1409  0.7292
  809MOL0     H 9170   1.031   3.310   8.899 -0.2892 -0.1331  0.2799
  809MOL0     H 9171   0.918   3.093   9.015 -1.5741 -1.3698 -0.4102
  809MOL0     H 9172   0.956   3.032   8.853  0.7309 -1.1305  1.7148
  809MOL0     H 9173   0.819   3.160   8.750  1.6359 -0.3537  0.8261
  809MOL0     H 9174   0.796   3.291   8.870 -1.4171 -0.0534  0.0458
  809MOL0     H 9175   0.593   3.255   8.705  1.0603 -1.3976 -0.0112
  809MOL0     H 9176   0.330   3.184   8.471  0.8069  0.4880 -0.8396
  809MOL0     H 9177   0.295   3.325   8.584  1.1974  1.5478 -3.4079
  809MOL0     H 9178   0.451   3.296   8.522 -0.3284 -0.1007 -2.7005
  809MOL0     H 9179  -0.031   2.842   8.576 -1.5112  0.8008 -1.1749
  809MOL0     H 9180  -0.252   2.747   8.611  1.2009 -1.7296  1.3880
  809MOL0     H 9181  -0.483   2.774   9.020  0.4128  3.2096  0.9579
  809MOL0     H 9182  -0.494   2.924   8.924  0.6386  0.5138 -3.2280
  809MOL0     H 9183  -0.670   2.864   8.802 -2.3747 -2.5577 -2.7599
  809MOL0     H 9184  -0.631   2.693   8.812  0.8511  0.9316 -2.5358
  809MOL0     H 9185  -0.749   2.842   9.049 -0.1853 -1.0938  0.9801
  809MOL0     H 9186  -0.710   2.679   9.041  0.4929 -0.8697 -1.2442
  809MOL0     H 9187  -0.908   2.816   8.859 -0.2807  0.6174  2.2019
  809MOL0     H 9188  -0.877   2.647   8.842  0.4441 -1.7890  1.0680
  809MOL0     H 9189  -0.994   2.790   9.088  0.9682  1.6285 -1.7445
  809MOL0     H 9190  -0.978   2.618   9.072 -0.7249  0.6540 -0.1901
  809MOL0     H 9191  -1.123   2.776   8.859 -0.8084 -0.8864 -0.5178
  809MOL0     H 9192  -1.126   2.603   8.887  3.7681 -1.2244  0.5762
  809MOL0     H 9193  -1.263   2.826   9.049  1.8175 -1.0063  0.6669
  809MOL0     H 9194  -1.236   2.670   9.120 -0.7613  1.6901  1.5521
  809MOL0     H 9195  -1.387   2.560   8.972  0.6859 -0.4494 -0.3049
  809MOL0     H 9196  -1.384   2.687   8.850  1.1864  0.5961 -0.9402
  809MOL0     H 9197  -0.264   2.889   9.015  0.1068 -3.2313  0.5554
  809MOL0     H 9198  -0.011   2.977   8.980  0.6658 -1.0218 -0.6400
  809MOL0     H 9199   0.323   2.891   8.885  0.0646  1.5197  0.8993
  809MOL0     H 9200   0.536   2.925   8.960  1.5871  1.1510  0.3002
  809MOL0     H 9201   2.664   3.807   8.856 -3.9733 -2.2295 -1.8090
  809MOL0     H 9202   2.887   3.788   8.789  0.5130  1.3392  2.5843
  809MOL0     H 9203   3.276   3.591   8.880  1.4412  1.7092  0.4111
  809MOL0     H 9204   3.496   3.549   8.860 -2.5787  4.4376  1.2687
  809MOL0     H 9205   3.755   3.546   8.782  0.6924 -0.2361 -1.3917
  809MOL0     H 9206   3.662   3.389   8.822 -0.8514  0.1053  1.2580
  809MOL0     H 9207   3.882   3.416   8.614 -0.7580 -0.7979 -0.1002
  809MOL0     H 9208   3.785   3.274   8.678  0.2174 -0.7172  2.2504
  809MOL0     H 9209   4.043   3.308   8.762  0.4204  0.8549  0.6265
  809MOL0     H 9210   3.925   3.244   8.857  2.1573  0.9143  1.0072
  809MOL0     H 9211   3.883   3.470   8.944 -1.1975 -1.5798 -2.8062
  809MOL0     H 9212   3.998   3.540   8.829 -2.0038 -0.6883 -1.5019
  809MOL0     H 9213   4.274   3.412   9.123 -0.2651 -1.7242 -0.1123
  809MOL0     H 9214   3.461   3.463   8.434 -2.7114 -1.8134 -2.1610
  809MOL0     H 9215   3.204   3.517   8.459  2.1033  3.5536 -0.9605
  810MOL0     O 9216   0.104   1.841  10.107 -0.1150  0.0397 -0.3744
  810MOL0     C 9217   0.183   1.746  10.112  0.2060 -0.0457 -0.0536
  810MOL0     O 9218   0.160   1.620  10.152 -0.0914  0.3083  0.2983
  810MOL0     C 9219   0.035   1.577  10.153 -0.0136  0.5879  0.1265
  810MOL0     C 9220  -0.004   1.498  10.265 -0.0270 -0.8250  0.2029
  810MOL0     C 9221  -0.141   1.460  10.271  0.8432 -0.8413  0.0138
  810MOL0     C 9222  -0.230   1.490  10.168  0.2741  0.3146 -0.2607
  810MOL0     O 9223  -0.364   1.442  10.177  0.0180 -0.6324 -0.0673
  810MOL0     C 9224  -0.406   1.354  10.287  0.4576 -0.1674  1.2115
  810MOL0     C 9225  -0.554   1.330  10.281  0.5583  0.6082 -0.4668
  810MOL0     C 9226  -0.615   1.275  10.403 -0.7631  0.4699  0.4406
  810MOL0     C 9227  -0.759   1.249  10.386  0.2702 -0.4589  0.1637
  810MOL0     C 9228  -0.830   1.219  10.517 -0.0779 -0.1407 -0.4894
  810MOL0     C 9229  -0.959   1.155  10.474 -0.4906 -0.9599 -0.2962
  810MOL0     C 9230  -1.034   1.100  10.606 -0.1196 -0.5377 -0.1199
  810MOL0     C 9231  -1.163   1.036  10.558 -0.5515  0.5203 -0.1156
  810MOL0     N 9232  -1.249   0.960  10.652 -0.6561  0.2115  0.4046
  810MOL0     C 9233  -1.255   0.972  10.791  1.1486  0.0638 -0.2512
  810MOL0     C 9234  -1.333   0.868  10.831 -0.6024 -0.4605  0.4744
  810MOL0     C 9235  -1.336   0.827  10.976  0.0970 -0.4609  0.1469
  810MOL0     C 9236  -1.466   0.747  11.005  1.1237  0.3788  0.5317
  810MOL0     C 9237  -1.487   0.736  11.162 -0.1010 -0.1395  0.2663
  810MOL0     C 9238  -1.630   0.747  11.210 -0.1537  0.7490 -0.0518
  810MOL0     O 9239  -1.687   0.614  11.217 -0.1350 -0.1335 -0.0164
  810MOL0     C 9240  -1.817   0.596  11.178  0.9969  0.7650  0.0268
  810MOL0     C 9241  -1.855   0.472  11.138  0.6687  0.6506 -0.1973
  810MOL0     C 9242  -1.991   0.435  11.111  0.1976 -0.2585 -0.0719
  810MOL0     C 9243  -2.034   0.299  11.056 -0.5579  0.5903  1.1703
  810MOL0     C 9244  -2.092   0.533  11.120  0.6934  0.6443 -0.3681
  810MOL0     C 9245  -2.232   0.495  11.096  0.1706  0.5313  0.6443
  810MOL0     O 9246  -2.281   0.383  11.159 -0.4152 -0.4155 -0.6754
  810MOL0     C 9247  -2.419   0.379  11.173 -0.6470  1.3759 -0.0069
  810MOL0     C 9248  -2.473   0.412  11.295  1.1763  0.5290  0.6369
  810MOL0     C 9249  -2.613   0.395  11.304 -0.1233 -0.5201 -0.1871
  810MOL0     C 9250  -2.699   0.344  11.202 -0.4621 -0.6849 -1.0390
  810MOL0     O 9251  -2.838   0.325  11.210  0.5918 -0.1069 -0.8751
  810MOL0     C 9252  -2.906   0.379  11.324 -0.3950  0.0927 -0.2092
  810MOL0     C 9253  -3.054   0.351  11.299 -0.3394  0.3823 -0.2759
  810MOL0     C 9254  -3.131   0.301  11.416 -0.2079 -0.5884 -0.1830
  810MOL0     C 9255  -3.274   0.296  11.373 -1.0493 -1.2176 -0.2864
  810MOL0     C 9256  -3.376   0.243  11.468 -0.1339  0.3540  0.3363
  810MOL0     C 9257  -3.372   0.331  11.592  0.3067  0.3873 -0.4226
  810MOL0     C 9258  -3.503   0.310  11.675 -0.0664 -0.1390 -0.4735
  810MOL0     C 9259  -3.493   0.384  11.805  1.5165  0.0780 -1.0132
  810MOL0    Cl 9260  -3.420   0.295  11.940  0.1766 -0.8589  0.0632
  810MOL0     C 9261  -2.632   0.306  11.089  0.3755  0.1220 -0.1829
  810MOL0     C 9262  -2.489   0.322  11.072  0.9741 -0.4113 -0.1477
  810MOL0     O 9263  -2.302   0.583  11.043 -0.4172 -0.5107  0.4367
  810MOL0     C 9264  -2.049   0.664  11.153 -0.1785 -0.6229  0.2457
  810MOL0     C 9265  -1.916   0.691  11.185  0.3945  0.1128 -0.2207
  810MOL0     N 9266  -1.384   0.810  10.712 -0.4687  0.2195  0.9262
  810MOL0     N 9267  -1.326   0.860  10.608  0.5607  0.1947 -0.6651
  810MOL0     C 9268  -0.194   1.566  10.055 -0.0800  0.9810 -0.0119
  810MOL0     C 9269  -0.059   1.603  10.048 -0.0387 -0.0457 -0.1318
  810MOL0     C 9270   0.327   1.783  10.089  0.3861 -0.4867 -0.4796
  810MOL0     C 9271   0.361   1.902  10.021  0.0547  0.0034 -0.4814
  810MOL0     C 9272   0.497   1.932  10.000  0.1558 -0.0667 -0.9294
  810MOL0     C 9273   0.597   1.841  10.031  0.2081  0.0671 -0.5428
  810MOL0     O 9274   0.719   1.883   9.996  0.1672 -0.2079  0.5150
  810MOL0     C 9275   0.837   1.822  10.038  0.1500  0.0280 -0.2328
  810MOL0     C 9276   0.870   1.854  10.189 -0.1467 -0.5194 -0.0137
  810MOL0     C 9277   0.983   1.765  10.256  1.2168 -0.7180 -0.2745
  810MOL0     C 9278   0.949   1.614  10.280  0.5006 -1.1346 -0.1664
  810MOL0     C 9279   0.820   1.599  10.345 -0.0704 -0.0564  0.2870
  810MOL0     C 9280   0.719   1.564  10.397  0.3662  0.0479 -0.6514
  810MOL0     C 9281   0.567   1.723  10.109 -0.5764  0.1583  0.8462
  810MOL0     C 9282   0.435   1.709  10.145  0.4572  0.1894  0.6081
  810MOL0     H 9283   0.078   1.487  10.335  5.2047  3.5618 -4.2688
  810MOL0     H 9284  -0.172   1.407  10.360 -1.6050  3.8093  2.2802
  810MOL0     H 9285  -0.354   1.257  10.288 -0.1322 -0.5697 -0.9730
  810MOL0     H 9286  -0.388   1.397  10.386  1.0633  1.0948  0.5721
  810MOL0     H 9287  -0.600   1.427  10.256 -0.2588  0.3926  0.1477
  810MOL0     H 9288  -0.589   1.256  10.207 -1.1654  0.7101  0.1868
  810MOL0     H 9289  -0.563   1.186  10.440  0.2085  0.1626 -1.5051
  810MOL0     H 9290  -0.605   1.354  10.478 -0.9668 -0.0411  1.0089
  810MOL0     H 9291  -0.803   1.343  10.349 -0.6944  0.0460  2.4414
  810MOL0     H 9292  -0.774   1.168  10.314  0.7085  0.9797 -1.6155
  810MOL0     H 9293  -0.772   1.149  10.576  2.6609  0.0631 -2.7423
  810MOL0     H 9294  -0.835   1.305  10.584 -1.9757  0.1915 -0.9741
  810MOL0     H 9295  -1.008   1.238  10.422  2.6812  0.4689 -1.2600
  810MOL0     H 9296  -0.937   1.079  10.400 -0.4914  1.8159 -3.3833
  810MOL0     H 9297  -0.963   1.029  10.650  0.3356 -0.2292 -0.3419
  810MOL0     H 9298  -1.044   1.173  10.687  2.4245  0.7212 -0.8168
  810MOL0     H 9299  -1.134   0.982  10.467  1.3582  1.8192 -0.3404
  810MOL0     H 9300  -1.217   1.126  10.528 -1.0239 -0.2032 -1.5374
  810MOL0     H 9301  -1.197   1.039  10.854  0.5564  0.7595 -0.4314
  810MOL0     H 9302  -1.250   0.762  10.993 -0.7118 -1.1821  1.6736
  810MOL0     H 9303  -1.336   0.920  11.033  1.0027  0.6984 -1.6391
  810MOL0     H 9304  -1.463   0.653  10.949 -1.2543  0.1384  0.7059
  810MOL0     H 9305  -1.545   0.808  10.961  2.2022  1.8016  0.4998
  810MOL0     H 9306  -1.423   0.808  11.214 -0.6405  0.3150  0.3132
  810MOL0     H 9307  -1.442   0.644  11.198 -1.2517 -0.3863  1.1403
  810MOL0     H 9308  -1.680   0.827  11.153 -2.7565  0.5415  1.7398
  810MOL0     H 9309  -1.632   0.786  11.312 -0.8256  1.7499 -0.4283
  810MOL0     H 9310  -1.783   0.393  11.119 -0.3578 -0.6774  1.1830
  810MOL0     H 9311  -2.066   0.225  11.130  1.2160 -2.5975 -0.9763
  810MOL0     H 9312  -2.109   0.307  10.977 -0.9836 -0.0770  1.5022
  810MOL0     H 9313  -1.945   0.255  11.010 -0.2729  1.6199  0.7170
  810MOL0     H 9314  -2.418   0.457  11.377  0.6393  0.8998  0.7968
  810MOL0     H 9315  -2.652   0.431  11.398 -1.1581 -3.6019  0.7037
  810MOL0     H 9316  -2.870   0.328  11.414 -1.7281  1.8254  1.3795
  810MOL0     H 9317  -2.897   0.486  11.346 -2.1591  0.2276 -0.0165
  810MOL0     H 9318  -3.102   0.442  11.263 -3.4280 -0.8263  0.5000
  810MOL0     H 9319  -3.060   0.270  11.225 -0.0239  1.0502 -1.0499
  810MOL0     H 9320  -3.116   0.380  11.490  1.0986  0.0678 -1.1069
  810MOL0     H 9321  -3.093   0.208  11.460  1.8434  2.0535  4.3490
  810MOL0     H 9322  -3.291   0.400  11.345  0.9768 -0.8430 -0.3081
  810MOL0     H 9323  -3.275   0.234  11.282 -0.7241  1.0138 -1.8927
  810MOL0     H 9324  -3.369   0.136  11.487 -0.3763  0.1208 -0.8335
  810MOL0     H 9325  -3.470   0.257  11.414 -1.5326  0.5009  2.6872
  810MOL0     H 9326  -3.282   0.325  11.654  0.2030  1.9528 -0.0699
  810MOL0     H 9327  -3.376   0.437  11.564  0.5728  1.5374  3.2378
  810MOL0     H 9328  -3.533   0.206  11.687 -2.1832  0.6033  1.3372
  810MOL0     H 9329  -3.588   0.348  11.619 -0.9361 -2.7294 -1.0230
  810MOL0     H 9330  -3.596   0.411  11.830  1.3876 -0.2966 -1.1249
  810MOL0     H 9331  -3.444   0.479  11.784  3.6360 -0.6360  0.3742
  810MOL0     H 9332  -2.699   0.266  11.013 -0.8986  0.9306  0.4824
  810MOL0     H 9333  -2.419   0.286  10.997  0.9558 -1.0897  0.1571
  810MOL0     H 9334  -2.121   0.743  11.169  0.7061  0.4911 -1.0787
  810MOL0     H 9335  -1.885   0.785  11.229 -1.5042  0.2396  0.9410
  810MOL0     H 9336  -0.260   1.590   9.972 -0.0363  2.0091  0.2368
  810MOL0     H 9337  -0.022   1.656   9.961  2.8618  2.4758  2.4328
  810MOL0     H 9338   0.292   1.970   9.973 -0.0047 -0.0308 -0.4441
  810MOL0     H 9339   0.523   2.018   9.939  0.6044 -0.6186 -1.5297
  810MOL0     H 9340   0.837   1.714  10.024  0.7621  0.1415 -1.2595
  810MOL0     H 9341   0.911   1.860   9.967 -0.9296  1.5268 -0.6369
  810MOL0     H 9342   0.787   1.860  10.261 -0.2858 -1.2605 -0.1019
  810MOL0     H 9343   0.920   1.951  10.182 -1.1775 -0.0619 -1.6114
  810MOL0     H 9344   0.998   1.819  10.351 -2.3389  2.1238 -1.0964
  810MOL0     H 9345   1.080   1.768  10.206  0.4489  0.1448 -1.7649
  810MOL0     H 9346   1.028   1.568  10.340  1.7290 -1.0328 -1.6471
  810MOL0     H 9347   0.955   1.558  10.186  0.4118  0.2700 -1.0275
  810MOL0     H 9348   0.623   1.539  10.439 -0.2876  2.3599 -0.6703
  810MOL0     H 9349   0.637   1.647  10.143  0.2766  0.0402 -1.0278
  810MOL0     H 9350   0.411   1.616  10.197  2.9353 -0.5553  0.5645
  811MOL0     O 9351   6.538   4.596   1.098 -0.0217 -0.9166  0.2969
  811MOL0     C 9352   6.510   4.495   1.158 -0.2735  0.0658  0.6525
  811MOL0     O 9353   6.378   4.445   1.172  0.3441  0.1269  0.1883
  811MOL0     C 9354   6.284   4.487   1.088  0.9832 -0.7580  1.1839
  811MOL0     C 9355   6.228   4.620   1.104  0.0192 -0.5594  0.1004
  811MOL0     C 9356   6.124   4.671   1.025  0.2267  0.5062  0.2669
  811MOL0     C 9357   6.058   4.588   0.929  0.2816  0.1406  0.0937
  811MOL0     O 9358   5.951   4.618   0.848  0.4489 -0.7008 -0.5386
  811MOL0     C 9359   5.863   4.731   0.871  0.3038 -0.1575 -0.5595
  811MOL0     C 9360   5.717   4.689   0.827 -0.6148  0.1726  0.2654
  811MOL0     C 9361   5.654   4.619   0.951  0.2754  0.5065  1.2077
  811MOL0     C 9362   5.516   4.566   0.913 -0.2308  0.1923  0.3559
  811MOL0     C 9363   5.460   4.463   1.017 -0.2431 -0.0693 -0.1040
  811MOL0     C 9364   5.513   4.324   0.994  0.3193  0.5094 -0.4496
  811MOL0     C 9365   5.472   4.235   1.111  0.0383 -1.2399  0.3131
  811MOL0     C 9366   5.523   4.094   1.079 -0.2476  0.2484  0.1376
  811MOL0     N 9367   5.663   4.082   1.127 -0.0029 -0.4839 -0.3549
  811MOL0     C 9368   5.771   4.085   1.044  0.4835  0.3343 -0.5484
  811MOL0     C 9369   5.875   4.057   1.119  0.1745  0.2960 -0.6915
  811MOL0     C 9370   6.003   4.050   1.054  0.2690 -0.4042  0.2363
  811MOL0     C 9371   6.074   3.915   1.093 -0.4700  0.2708 -0.6596
  811MOL0     C 9372   6.212   3.925   1.041 -0.4798 -0.7053  0.8706
  811MOL0     C 9373   6.240   3.916   0.889 -0.1093  0.2364 -0.9585
  811MOL0     O 9374   6.246   4.047   0.828 -1.0275 -0.6061  0.4088
  811MOL0     C 9375   6.366   4.118   0.830  0.0669  1.0650 -0.2460
  811MOL0     C 9376   6.354   4.241   0.758 -0.1076 -0.4731 -0.3269
  811MOL0     C 9377   6.450   4.343   0.762 -0.5888  0.5144  0.7791
  811MOL0     C 9378   6.411   4.480   0.709  0.0711 -0.3234 -0.7007
  811MOL0     C 9379   6.581   4.313   0.819  0.1624  0.4437  0.0598
  811MOL0     C 9380   6.688   4.414   0.835 -0.1554  0.1941 -0.6530
  811MOL0     O 9381   6.656   4.548   0.804  0.0184  0.0286 -0.1301
  811MOL0     C 9382   6.738   4.663   0.816  0.7648  0.1760 -0.0298
  811MOL0     C 9383   6.680   4.780   0.781  0.5458 -0.1279 -0.0905
  811MOL0     C 9384   6.751   4.904   0.778 -0.9982 -0.4695 -0.9865
  811MOL0     C 9385   6.889   4.902   0.820 -0.5920 -0.5144  0.6328
  811MOL0     O 9386   6.945   5.027   0.809 -0.0668  0.3097  0.0133
  811MOL0     C 9387   7.092   5.043   0.829  0.2282  0.0686  0.2378
  811MOL0     C 9388   7.138   5.182   0.799 -0.6017 -0.8937  0.4831
  811MOL0     C 9389   7.294   5.203   0.804  0.1867 -0.2313  0.2098
  811MOL0     C 9390   7.360   5.149   0.672  0.0425 -0.3035 -0.0072
  811MOL0     C 9391   7.507   5.184   0.656 -0.1367  1.4163  0.1533
  811MOL0     C 9392   7.560   5.122   0.531  0.3301  0.7354 -0.2496
  811MOL0     C 9393   7.704   5.158   0.503  0.0861  0.0709  0.4872
  811MOL0     C 9394   7.798   5.100   0.604  0.2507  0.1603 -0.0332
  811MOL0    Cl 9395   7.810   4.919   0.569  0.3760  0.1794  0.2317
  811MOL0     C 9396   6.948   4.783   0.863 -0.5645  0.5410 -0.1137
  811MOL0     C 9397   6.868   4.674   0.864 -0.3903  0.0124  0.0282
  811MOL0     O 9398   6.790   4.379   0.888 -0.1148 -0.1532 -0.1787
  811MOL0     C 9399   6.599   4.183   0.873 -0.1539  0.2825  0.1327
  811MOL0     C 9400   6.491   4.093   0.889 -0.0523 -0.6223 -0.7876
  811MOL0     N 9401   5.839   4.043   1.249 -0.1202  0.0776 -0.5639
  811MOL0     N 9402   5.714   4.057   1.253  0.5560 -0.0091  0.6126
  811MOL0     C 9403   6.112   4.455   0.907  0.1389 -0.8903 -0.9654
  811MOL0     C 9404   6.208   4.403   0.999  0.2964  0.7065 -0.0619
  811MOL0     C 9405   6.629   4.430   1.216 -0.8153  0.6451 -0.1187
  811MOL0     C 9406   6.762   4.486   1.220 -0.1721 -0.2950 -0.1332
  811MOL0     C 9407   6.868   4.420   1.287 -0.0747 -0.3855  0.5838
  811MOL0     C 9408   6.837   4.301   1.360  1.1246 -0.2513  0.9804
  811MOL0     O 9409   6.935   4.259   1.438  0.0684  0.2236 -0.5267
  811MOL0     C 9410   6.946   4.116   1.452 -0.2972  0.5947  0.7445
  811MOL0     C 9411   7.094   4.077   1.492 -0.7659  0.7127 -0.3938
  811MOL0     C 9412   7.196   4.143   1.401  0.4307  0.0241  0.1748
  811MOL0     C 9413   7.347   4.105   1.418  0.1191 -0.0933 -0.4243
  811MOL0     C 9414   7.429   4.189   1.332  0.2425 -0.2014  0.2074
  811MOL0     C 9415   7.496   4.255   1.252 -0.6977  0.1382 -0.5598
  811MOL0     C 9416   6.711   4.241   1.352 -0.0791 -0.1979  0.2099
  811MOL0     C 9417   6.608   4.310   1.290 -0.0457  0.3992  0.5042
  811MOL0     H 9418   6.277   4.700   1.159  3.1235 -0.6815 -2.2161
  811MOL0     H 9419   6.095   4.775   1.025  1.0776  0.9042 -3.4707
  811MOL0     H 9420   5.851   4.744   0.978 -2.7727  2.7844 -1.0980
  811MOL0     H 9421   5.885   4.830   0.829 -4.1559  1.1538 -0.2588
  811MOL0     H 9422   5.655   4.772   0.790 -0.5362  0.5943  1.0549
  811MOL0     H 9423   5.718   4.620   0.742 -2.7218  1.2997 -0.7662
  811MOL0     H 9424   5.713   4.533   0.985 -0.4429 -1.2090 -1.5811
  811MOL0     H 9425   5.639   4.701   1.021 -0.7371  0.3070  1.2391
  811MOL0     H 9426   5.445   4.649   0.919 -1.8105 -1.0811 -0.0293
  811MOL0     H 9427   5.523   4.530   0.810 -1.6436  0.3900  0.1716
  811MOL0     H 9428   5.500   4.491   1.115 -0.1922 -1.5703  0.3278
  811MOL0     H 9429   5.351   4.455   1.024 -0.1691 -0.0529  1.4606
  811MOL0     H 9430   5.462   4.301   0.900 -0.5865  1.2633 -0.1567
  811MOL0     H 9431   5.622   4.326   0.997  0.2824  1.7218  1.3079
  811MOL0     H 9432   5.518   4.263   1.206 -1.3643  0.7426  0.4680
  811MOL0     H 9433   5.363   4.233   1.124 -0.3000  1.5201 -1.3338
  811MOL0     H 9434   5.495   4.080   0.975  1.3089 -0.3277 -0.2238
  811MOL0     H 9435   5.461   4.026   1.139  0.0722  0.1503  0.3594
  811MOL0     H 9436   5.766   4.107   0.938  0.6513  0.7626 -0.4688
  811MOL0     H 9437   5.986   4.048   0.946 -1.2305 -1.5151  0.4624
  811MOL0     H 9438   6.063   4.139   1.075 -0.1739  0.1598 -0.7759
  811MOL0     H 9439   6.023   3.829   1.047  0.7619 -1.2340  0.6489
  811MOL0     H 9440   6.079   3.898   1.201  0.3750 -1.3307 -0.9144
  811MOL0     H 9441   6.266   3.842   1.088 -0.5737 -0.1959  1.9222
  811MOL0     H 9442   6.265   4.014   1.078  0.4333 -0.6490 -0.5105
  811MOL0     H 9443   6.168   3.846   0.845  0.1785  0.4065 -1.7153
  811MOL0     H 9444   6.337   3.869   0.874  0.7760  0.4351  3.1499
  811MOL0     H 9445   6.254   4.261   0.721  0.3390  2.6778 -0.0464
  811MOL0     H 9446   6.476   4.507   0.625  1.6094  2.2487  1.1758
  811MOL0     H 9447   6.309   4.474   0.670  0.6475 -3.0543 -2.0600
  811MOL0     H 9448   6.423   4.552   0.790  0.5722 -2.8092  1.5615
  811MOL0     H 9449   6.583   4.764   0.733  1.7644 -2.4199 -2.0572
  811MOL0     H 9450   6.694   4.994   0.761  0.5410  0.3058 -2.3083
  811MOL0     H 9451   7.109   5.013   0.933 -3.3124  0.5971  1.0979
  811MOL0     H 9452   7.145   4.972   0.765  0.0986 -0.0744  0.2864
  811MOL0     H 9453   7.113   5.215   0.697  0.6719  1.1798  0.7916
  811MOL0     H 9454   7.088   5.241   0.877 -0.0086 -0.1965  0.3423
  811MOL0     H 9455   7.337   5.148   0.888 -0.6797 -2.2362 -0.6095
  811MOL0     H 9456   7.313   5.309   0.826 -1.1676  0.9170 -3.4590
  811MOL0     H 9457   7.359   5.040   0.663  2.1956 -0.4670  1.1004
  811MOL0     H 9458   7.309   5.199   0.589  1.5327  1.5497  0.1310
  811MOL0     H 9459   7.556   5.134   0.740 -3.7972  1.7084  2.6896
  811MOL0     H 9460   7.523   5.292   0.661  1.8738  1.1925 -0.6536
  811MOL0     H 9461   7.538   5.015   0.537  0.0061  0.7138 -1.4837
  811MOL0     H 9462   7.502   5.173   0.454 -0.4322 -0.5555 -0.5558
  811MOL0     H 9463   7.706   5.267   0.496  2.5560 -0.0148 -3.8915
  811MOL0     H 9464   7.730   5.121   0.403  0.0197  2.4489 -0.4655
  811MOL0     H 9465   7.772   5.109   0.710 -0.9186 -2.3485 -0.0330
  811MOL0     H 9466   7.897   5.137   0.577  1.5751 -3.3609 -0.5227
  811MOL0     H 9467   7.047   4.781   0.907 -1.3848 -2.8219  1.9027
  811MOL0     H 9468   6.899   4.579   0.906  1.5870  1.6274  2.5061
  811MOL0     H 9469   6.690   4.148   0.921 -0.0230  0.7051  0.2009
  811MOL0     H 9470   6.507   3.997   0.937 -0.3984 -0.1608  0.2680
  811MOL0     H 9471   6.060   4.382   0.846  1.8002  0.0009 -3.6419
  811MOL0     H 9472   6.229   4.297   1.000 -1.0579  0.3771  2.2296
  811MOL0     H 9473   6.780   4.587   1.186  0.4247  0.6872  2.8197
  811MOL0     H 9474   6.966   4.465   1.304  0.2398 -0.9874  0.3959
  811MOL0     H 9475   6.871   4.083   1.525 -0.6008  0.0462  0.1945
  811MOL0     H 9476   6.922   4.060   1.362  1.1840 -0.4457  0.9686
  811MOL0     H 9477   7.091   3.968   1.492 -2.6056  0.7069 -1.9204
  811MOL0     H 9478   7.101   4.108   1.597 -2.6006  1.1030 -0.3434
  811MOL0     H 9479   7.189   4.251   1.417 -0.7876  0.0208 -0.2192
  811MOL0     H 9480   7.169   4.136   1.296  1.0349  1.6194 -0.1136
  811MOL0     H 9481   7.361   3.998   1.401 -1.9064 -0.1502 -2.2101
  811MOL0     H 9482   7.365   4.125   1.524  0.2121  1.6923 -0.7453
  811MOL0     H 9483   7.554   4.307   1.178  0.8315  0.9320  1.1146
  811MOL0     H 9484   6.691   4.144   1.398  0.8387 -1.0816 -1.1623
  811MOL0     H 9485   6.509   4.265   1.297  0.5189 -1.1081 -0.5872
  812MOL0     O 9486   2.347   9.983   1.222  0.0199  0.1782 -0.5819
  812MOL0     C 9487   2.346   9.920   1.123  0.2356  0.3023  0.7378
  812MOL0     O 9488   2.437   9.926   1.026  0.3721  0.5962  0.2537
  812MOL0     C 9489   2.540  10.020   1.039 -0.6197 -0.0808 -0.2479
  812MOL0     C 9490   2.624  10.034   1.158 -0.6006 -0.2013 -0.3087
  812MOL0     C 9491   2.743  10.104   1.156 -0.1026  0.0920  0.5064
  812MOL0     C 9492   2.768  10.194   1.050 -0.2902 -0.1995 -0.1574
  812MOL0     O 9493   2.856  10.298   1.034  0.1217 -0.1248  0.2347
  812MOL0     C 9494   2.937  10.317   1.152 -0.4307 -0.0418  0.3539
  812MOL0     C 9495   3.035  10.425   1.128  0.0799 -0.6352 -1.1398
  812MOL0     C 9496   3.152  10.408   1.220  0.7665  0.9061 -1.0833
  812MOL0     C 9497   3.224  10.542   1.258 -0.4304  0.2316 -0.2712
  812MOL0     C 9498   3.297  10.596   1.143 -0.7936  0.2591  0.8717
  812MOL0     C 9499   3.366  10.723   1.177 -0.3725  0.3792 -0.2118
  812MOL0     C 9500   3.486  10.726   1.102 -0.1072 -0.1137  0.0202
  812MOL0     C 9501   3.522  10.877   1.098  0.4933  0.0994 -0.5305
  812MOL0     N 9502   3.608  10.924   1.212  0.8077  0.1004  0.3249
  812MOL0     C 9503   3.586  11.027   1.291 -0.6778 -0.5284 -0.4435
  812MOL0     C 9504   3.701  11.052   1.356  0.3699 -0.0876 -1.0314
  812MOL0     C 9505   3.722  11.166   1.452 -0.6281  0.5148 -0.6938
  812MOL0     C 9506   3.752  11.115   1.594 -0.9418  0.0185 -0.2824
  812MOL0     C 9507   3.707  10.972   1.627 -0.0705 -0.1547  0.2236
  812MOL0     C 9508   3.753  10.941   1.769  1.1107 -0.3246 -0.2550
  812MOL0     O 9509   3.699  11.028   1.866  0.2181  0.2962  0.3266
  812MOL0     C 9510   3.576  10.997   1.932  0.0789  0.3967  0.4520
  812MOL0     C 9511   3.506  10.871   1.939 -0.0361 -0.4598  0.1954
  812MOL0     C 9512   3.379  10.852   2.002 -1.1111  0.2397 -0.3119
  812MOL0     C 9513   3.306  10.719   1.993 -0.9986 -0.8784 -0.0441
  812MOL0     C 9514   3.324  10.961   2.063  0.9899 -0.1993  0.3653
  812MOL0     C 9515   3.201  10.961   2.146 -0.0804 -0.6995 -0.0813
  812MOL0     O 9516   3.108  11.061   2.144 -0.2742  0.3512  0.1975
  812MOL0     C 9517   3.029  11.073   2.260 -0.8416  0.0438 -0.2447
  812MOL0     C 9518   2.890  11.094   2.235  0.1116  0.7372 -0.0801
  812MOL0     C 9519   2.800  11.089   2.343 -0.7753  0.9634  0.3692
  812MOL0     C 9520   2.848  11.082   2.475 -0.9500  0.4269  1.2851
  812MOL0     O 9521   2.764  11.101   2.583 -0.5649 -0.6111  0.0299
  812MOL0     C 9522   2.630  11.161   2.561 -0.5700 -0.6108  1.4160
  812MOL0     C 9523   2.560  11.178   2.701 -0.3299 -0.0588  0.1614
  812MOL0     C 9524   2.605  11.307   2.770 -0.1699  0.5984 -0.0587
  812MOL0     C 9525   2.586  11.441   2.695  0.1474  0.4334  0.4262
  812MOL0     C 9526   2.580  11.549   2.802 -0.4695  0.3740  0.7161
  812MOL0     C 9527   2.568  11.684   2.735 -0.1737 -0.1360  0.3094
  812MOL0     C 9528   2.594  11.792   2.842 -0.2896 -0.4378 -0.2487
  812MOL0     C 9529   2.531  11.921   2.790  0.7367  0.1375  0.0975
  812MOL0    Cl 9530   2.599  12.058   2.890  0.2381 -0.2331 -0.3126
  812MOL0     C 9531   2.983  11.066   2.495 -0.2786 -0.1422  0.4730
  812MOL0     C 9532   3.070  11.067   2.393  0.0263  0.4057 -0.4388
  812MOL0     O 9533   3.199  10.865   2.224 -0.0950  0.2009  0.5034
  812MOL0     C 9534   3.383  11.087   2.044  0.7609  0.2964  0.1261
  812MOL0     C 9535   3.509  11.107   1.980  0.4863  0.0128 -0.5235
  812MOL0     N 9536   3.796  10.958   1.314 -0.4771 -0.2085 -0.4569
  812MOL0     N 9537   3.739  10.880   1.222  0.5442 -0.4370 -0.6421
  812MOL0     C 9538   2.689  10.182   0.934  0.3571  0.3833  0.6197
  812MOL0     C 9539   2.578  10.091   0.926  0.0301  0.4011  0.0731
  812MOL0     C 9540   2.241   9.824   1.102  0.0274  0.3222  0.1623
  812MOL0     C 9541   2.256   9.720   1.005  0.1444  0.3366 -0.3587
  812MOL0     C 9542   2.145   9.630   0.986  0.4009 -1.0652 -0.1476
  812MOL0     C 9543   2.019   9.653   1.043  0.8038  0.1378  0.2841
  812MOL0     O 9544   1.906   9.574   1.039 -0.2947 -0.6228  0.1908
  812MOL0     C 9545   1.849   9.546   0.906 -0.3228 -0.2535 -0.3621
  812MOL0     C 9546   1.697   9.521   0.921 -0.0620 -0.0501  0.7041
  812MOL0     C 9547   1.626   9.656   0.933  0.1447 -0.2208  0.3195
  812MOL0     C 9548   1.480   9.639   0.995 -0.8632  0.3987  0.3985
  812MOL0     C 9549   1.407   9.554   0.901  0.3169  0.8834  0.0401
  812MOL0     C 9550   1.338   9.476   0.840 -0.1655 -0.2157 -0.0469
  812MOL0     C 9551   2.008   9.753   1.148 -1.0622  0.6351 -0.0837
  812MOL0     C 9552   2.116   9.839   1.170  0.6342  0.0942 -0.0729
  812MOL0     H 9553   2.606   9.969   1.243  0.5450  2.2631  1.9656
  812MOL0     H 9554   2.817  10.105   1.236  0.1769 -1.0827  0.2815
  812MOL0     H 9555   2.868  10.349   1.231 -1.3308  0.5554 -0.6333
  812MOL0     H 9556   2.990  10.228   1.186 -0.5471  0.1409  1.0285
  812MOL0     H 9557   3.089  10.428   1.033  1.1881 -0.4267 -0.5247
  812MOL0     H 9558   2.985  10.521   1.141  1.3628 -0.1989  1.0860
  812MOL0     H 9559   3.122  10.359   1.313  2.0774  0.2388 -0.9867
  812MOL0     H 9560   3.221  10.340   1.169  0.1512 -0.9614  0.4695
  812MOL0     H 9561   3.146  10.617   1.273 -2.3150 -1.9668  1.6519
  812MOL0     H 9562   3.292  10.529   1.342  2.1055 -2.0886 -2.4665
  812MOL0     H 9563   3.368  10.517   1.117 -2.8412 -1.2683 -0.3732
  812MOL0     H 9564   3.227  10.621   1.064 -0.8799 -2.0450  0.1508
  812MOL0     H 9565   3.304  10.808   1.148 -3.0243 -2.2800 -3.0991
  812MOL0     H 9566   3.394  10.727   1.283 -2.9195  3.1109  0.4651
  812MOL0     H 9567   3.556  10.654   1.146  0.4300  0.8019  0.7083
  812MOL0     H 9568   3.455  10.693   1.003  2.0474 -0.5979 -0.5558
  812MOL0     H 9569   3.433  10.940   1.100 -0.9181 -1.7092  2.7452
  812MOL0     H 9570   3.579  10.883   1.005  1.1904  2.3464 -0.0315
  812MOL0     H 9571   3.489  11.075   1.298 -0.5465 -0.4278  0.8793
  812MOL0     H 9572   3.794  11.240   1.418  0.5537  1.6218  3.5638
  812MOL0     H 9573   3.627  11.218   1.467  1.4392  4.0052  1.7457
  812MOL0     H 9574   3.703  11.181   1.667  0.4107  1.7855 -0.8878
  812MOL0     H 9575   3.859  11.125   1.614 -1.3355  1.3429  1.4865
  812MOL0     H 9576   3.752  10.897   1.560  0.1912  0.1742  0.0263
  812MOL0     H 9577   3.599  10.959   1.615  0.2668 -1.6676 -1.9649
  812MOL0     H 9578   3.862  10.954   1.776  1.2832 -1.4499 -0.5969
  812MOL0     H 9579   3.735  10.837   1.798  0.4697  0.0193  0.6137
  812MOL0     H 9580   3.545  10.784   1.887  0.9337  2.8514 -5.3969
  812MOL0     H 9581   3.311  10.696   1.886 -4.1466  1.8971 -0.9777
  812MOL0     H 9582   3.351  10.645   2.059 -0.8608  0.3767  1.3355
  812MOL0     H 9583   3.199  10.716   2.016 -1.0759  2.2089  0.3786
  812MOL0     H 9584   2.861  11.082   2.131 -0.2861  0.8983  0.0096
  812MOL0     H 9585   2.694  11.092   2.317 -0.9679 -2.3592  0.3191
  812MOL0     H 9586   2.643  11.258   2.514 -2.2672 -1.3683 -0.8075
  812MOL0     H 9587   2.572  11.094   2.496  0.8141 -1.4071  0.9591
  812MOL0     H 9588   2.451  11.165   2.701 -0.7434  2.4233  2.3435
  812MOL0     H 9589   2.595  11.093   2.760 -3.7707 -2.5875 -1.1687
  812MOL0     H 9590   2.707  11.298   2.808 -0.2624 -0.5580 -0.0461
  812MOL0     H 9591   2.546  11.311   2.862  2.9827  1.1050  2.0987
  812MOL0     H 9592   2.671  11.463   2.630 -1.5428  1.6714 -1.4883
  812MOL0     H 9593   2.495  11.429   2.636 -0.1739 -4.5192  1.5694
  812MOL0     H 9594   2.670  11.549   2.865 -1.1044 -3.6139  1.9463
  812MOL0     H 9595   2.495  11.539   2.870 -0.1907 -0.5294  0.9513
  812MOL0     H 9596   2.631  11.693   2.646  1.4493 -2.0978  1.1689
  812MOL0     H 9597   2.464  11.699   2.704 -0.6651 -1.9902  0.9047
  812MOL0     H 9598   2.698  11.808   2.872 -0.2316 -3.5682  1.7117
  812MOL0     H 9599   2.534  11.771   2.932 -0.9284 -0.0584 -0.5795
  812MOL0     H 9600   2.422  11.916   2.786  0.5495  2.5506 -3.8752
  812MOL0     H 9601   2.569  11.929   2.687  0.9443  2.7836  0.2942
  812MOL0     H 9602   3.028  11.064   2.593 -0.2688 -3.8360  0.5588
  812MOL0     H 9603   3.175  11.066   2.422  0.2613 -2.1847 -1.1575
  812MOL0     H 9604   3.328  11.170   2.087 -0.0901  0.2154 -0.7782
  812MOL0     H 9605   3.554  11.206   1.980  1.1488 -0.2781 -0.0597
  812MOL0     H 9606   2.720  10.238   0.846  0.9126 -1.0311 -0.1174
  812MOL0     H 9607   2.515  10.074   0.840 -0.2240  0.4790  0.2431
  812MOL0     H 9608   2.350   9.712   0.952 -0.2423 -0.2050 -0.9688
  812MOL0     H 9609   2.158   9.553   0.910 -1.8719 -1.8028  0.1352
  812MOL0     H 9610   1.862   9.636   0.846 -1.7648 -0.7971 -1.5701
  812MOL0     H 9611   1.911   9.472   0.854 -0.8579 -0.1847 -1.1190
  812MOL0     H 9612   1.674   9.455   1.005  0.6912 -2.3176 -0.7910
  812MOL0     H 9613   1.651   9.473   0.834  1.1037  2.7658 -1.6237
  812MOL0     H 9614   1.613   9.702   0.834  2.0904 -0.9568 -0.3211
  812MOL0     H 9615   1.691   9.717   0.996  0.8282  1.0053 -1.4738
  812MOL0     H 9616   1.435   9.737   1.011 -0.6683  0.1811  2.6187
  812MOL0     H 9617   1.486   9.590   1.093 -0.4274 -3.5378 -1.4205
  812MOL0     H 9618   1.281   9.410   0.778 -0.6064 -0.8912  1.0530
  812MOL0     H 9619   1.914   9.762   1.201 -1.4259 -2.7582  0.0965
  812MOL0     H 9620   2.106   9.916   1.246 -0.5363  0.6732 -0.7923
  813MOL0     O 9621   6.200   3.439   3.324  0.7014 -0.1566  0.3491
  813MOL0     C 9622   6.234   3.344   3.391 -0.7842 -0.1481 -0.2274
  813MOL0     O 9623   6.150   3.266   3.467  0.4571 -0.6258 -0.1868
  813MOL0     C 9624   6.014   3.293   3.464 -0.1498  0.2511  0.0535
  813MOL0     C 9625   5.929   3.185   3.432 -0.5148 -0.9025  0.3372
  813MOL0     C 9626   5.786   3.205   3.434 -0.1803 -0.2552 -0.2481
  813MOL0     C 9627   5.737   3.334   3.471 -0.3897 -0.6975 -0.8638
  813MOL0     O 9628   5.607   3.365   3.489 -0.1035  0.1523 -0.3997
  813MOL0     C 9629   5.535   3.318   3.602 -0.6241  0.6718 -0.6939
  813MOL0     C 9630   5.404   3.397   3.596 -0.4253  0.0498  0.5220
  813MOL0     C 9631   5.321   3.352   3.467 -0.3251  0.0227 -0.8292
  813MOL0     C 9632   5.296   3.208   3.455  0.4937 -0.0778 -1.1878
  813MOL0     C 9633   5.253   3.134   3.578 -0.0764 -0.2971 -0.3175
  813MOL0     C 9634   5.116   3.183   3.630 -0.2808 -0.0463 -0.0660
  813MOL0     C 9635   5.053   3.079   3.734 -0.2840 -0.4054  0.2721
  813MOL0     C 9636   4.986   2.971   3.657 -0.0950 -0.6363 -0.5677
  813MOL0     N 9637   4.928   2.857   3.747 -0.1941 -0.0673  0.2452
  813MOL0     C 9638   4.894   2.742   3.688 -0.6511  0.5667 -0.0902
  813MOL0     C 9639   4.810   2.674   3.775  0.0532  0.4597 -0.4535
  813MOL0     C 9640   4.748   2.534   3.746 -0.6089 -0.0918 -0.8645
  813MOL0     C 9641   4.769   2.448   3.870 -0.3384 -0.4396  0.0903
  813MOL0     C 9642   4.705   2.312   3.840 -0.2977 -0.0251 -0.8180
  813MOL0     C 9643   4.554   2.315   3.879  0.6082  0.3153 -0.5351
  813MOL0     O 9644   4.509   2.177   3.896 -0.7293 -0.7081 -0.3326
  813MOL0     C 9645   4.377   2.157   3.907 -0.2309 -0.3984 -0.2786
  813MOL0     C 9646   4.323   2.092   4.020 -0.4871  1.0411  0.0005
  813MOL0     C 9647   4.184   2.062   4.023  0.2763  0.0849 -0.3854
  813MOL0     C 9648   4.141   1.989   4.148  0.8209 -0.8963  0.2312
  813MOL0     C 9649   4.093   2.104   3.919  0.4512  0.6342 -0.0006
  813MOL0     C 9650   3.947   2.074   3.913 -0.0612  0.2851 -0.0921
  813MOL0     O 9651   3.895   2.060   3.792 -0.5063 -0.0322  0.1991
  813MOL0     C 9652   3.782   1.996   3.773  0.1107  0.6529  0.1849
  813MOL0     C 9653   3.672   2.077   3.753  0.0507  0.5603 -0.2319
  813MOL0     C 9654   3.543   2.023   3.734 -0.1796  0.1500 -0.2824
  813MOL0     C 9655   3.528   1.881   3.730  0.6092  0.2293 -0.3618
  813MOL0     O 9656   3.402   1.822   3.713  0.1888  0.1514  0.6968
  813MOL0     C 9657   3.373   1.680   3.706  0.0949  0.4947 -0.7243
  813MOL0     C 9658   3.367   1.610   3.842 -0.6568  0.0426 -0.4982
  813MOL0     C 9659   3.318   1.691   3.960  0.4754 -0.5515  0.2825
  813MOL0     C 9660   3.166   1.730   3.938 -0.5172 -0.4124 -0.2481
  813MOL0     C 9661   3.140   1.817   4.066  0.5004  0.2716  0.5392
  813MOL0     C 9662   2.993   1.823   4.107 -0.6624  0.0964  0.1858
  813MOL0     C 9663   2.951   1.951   4.184 -0.4638 -0.4716 -0.5877
  813MOL0     C 9664   2.971   1.944   4.336 -0.2187  1.1121 -0.4022
  813MOL0    Cl 9665   2.908   1.801   4.420  0.0123  0.3066  0.2661
  813MOL0     C 9666   3.634   1.801   3.758 -0.3262 -0.3442 -0.5130
  813MOL0     C 9667   3.760   1.857   3.782 -0.2457  0.0930  0.2495
  813MOL0     O 9668   3.882   2.054   4.013  0.0678  0.2916 -0.2589
  813MOL0     C 9669   4.155   2.167   3.810 -0.2006 -0.9728  0.5168
  813MOL0     C 9670   4.291   2.198   3.805 -0.4332  0.7735  0.4013
  813MOL0     N 9671   4.804   2.754   3.891  0.1617  0.9333  0.4352
  813MOL0     N 9672   4.885   2.864   3.880 -0.1004  1.2528  0.4630
  813MOL0     C 9673   5.822   3.446   3.495  0.3618  0.4739 -0.2507
  813MOL0     C 9674   5.956   3.422   3.490  0.4385  0.8282 -0.2345
  813MOL0     C 9675   6.385   3.328   3.403 -0.3987 -0.0360  0.3920
  813MOL0     C 9676   6.473   3.425   3.352 -0.5027 -0.1333 -0.0363
  813MOL0     C 9677   6.611   3.417   3.376  0.5318  0.3139 -0.4470
  813MOL0     C 9678   6.667   3.312   3.441  0.0840 -0.3032  0.2416
  813MOL0     O 9679   6.803   3.308   3.464  0.2091 -0.0461  0.1759
  813MOL0     C 9680   6.865   3.197   3.402 -0.2110 -0.1660  0.2001
  813MOL0     C 9681   7.010   3.170   3.457 -0.2258 -0.0299 -0.2008
  813MOL0     C 9682   7.074   3.037   3.409 -0.6506 -0.1034 -0.4726
  813MOL0     C 9683   7.221   3.039   3.445  0.1738  0.2215 -0.5535
  813MOL0     C 9684   7.304   2.922   3.412  0.1108 -1.3120  0.2377
  813MOL0     C 9685   7.378   2.827   3.393 -0.0156  0.0685  0.6900
  813MOL0     C 9686   6.582   3.220   3.502 -0.2142  0.1680 -0.4529
  813MOL0     C 9687   6.440   3.237   3.491 -0.1329  0.9826 -0.3836
  813MOL0     H 9688   5.975   3.093   3.396 -0.5485 -0.6499 -0.3773
  813MOL0     H 9689   5.724   3.122   3.402  0.0119 -0.2793 -0.5585
  813MOL0     H 9690   5.527   3.209   3.593  0.4091  0.5867 -0.6019
  813MOL0     H 9691   5.589   3.343   3.694 -1.0373 -0.8173 -0.0180
  813MOL0     H 9692   5.343   3.371   3.683 -0.4717 -2.5423 -0.2094
  813MOL0     H 9693   5.426   3.504   3.596  0.6797 -0.1468  2.0817
  813MOL0     H 9694   5.228   3.410   3.464  0.6408  1.6855  0.1369
  813MOL0     H 9695   5.374   3.377   3.375 -2.2560 -0.4266 -2.1350
  813MOL0     H 9696   5.213   3.210   3.385  0.6571  1.8060 -1.3844
  813MOL0     H 9697   5.382   3.163   3.404  1.4645  1.1412 -0.6778
  813MOL0     H 9698   5.247   3.028   3.553  1.0569 -1.5700  4.0701
  813MOL0     H 9699   5.326   3.149   3.658  0.3412  1.3169 -0.9378
  813MOL0     H 9700   5.113   3.278   3.684  0.5467 -0.8128  1.4112
  813MOL0     H 9701   5.050   3.204   3.545 -1.8145  2.9290  1.6782
  813MOL0     H 9702   5.138   3.038   3.790 -0.6978  0.8775  1.9015
  813MOL0     H 9703   4.980   3.119   3.805 -1.1999 -1.8217  0.1855
  813MOL0     H 9704   5.064   2.922   3.598 -0.2155 -2.1729  0.4622
  813MOL0     H 9705   4.915   3.029   3.598 -0.2754  1.5421  1.6102
  813MOL0     H 9706   4.922   2.714   3.587 -4.7555  0.9110 -1.5150
  813MOL0     H 9707   4.642   2.540   3.719 -0.2163 -0.9331 -2.7355
  813MOL0     H 9708   4.801   2.485   3.664 -1.5040 -1.4600 -0.6678
  813MOL0     H 9709   4.704   2.489   3.949  0.9311 -1.3301  1.6462
  813MOL0     H 9710   4.870   2.433   3.909 -0.1448 -1.9790 -0.9324
  813MOL0     H 9711   4.743   2.233   3.906 -1.6392  0.1953  0.2759
  813MOL0     H 9712   4.721   2.287   3.735 -0.4732  1.7937 -1.3033
  813MOL0     H 9713   4.500   2.367   3.799  2.2257  0.9905 -1.2281
  813MOL0     H 9714   4.534   2.376   3.968 -3.6818  0.7419 -1.5680
  813MOL0     H 9715   4.394   2.057   4.093 -2.0496 -1.1109  0.5976
  813MOL0     H 9716   4.115   2.046   4.238  1.4394  0.5756 -0.4923
  813MOL0     H 9717   4.054   1.930   4.116 -0.9835  2.3783 -1.3938
  813MOL0     H 9718   4.216   1.913   4.174  0.6731 -0.9169  0.6154
  813MOL0     H 9719   3.683   2.185   3.740  1.1283  0.4714 -0.1180
  813MOL0     H 9720   3.457   2.088   3.721 -0.0142  0.6137  0.8214
  813MOL0     H 9721   3.269   1.669   3.673 -0.6647  1.9734  0.9730
  813MOL0     H 9722   3.438   1.628   3.636  1.4360  3.2555 -1.6804
  813MOL0     H 9723   3.303   1.523   3.827  0.8022 -1.1069 -0.2419
  813MOL0     H 9724   3.465   1.565   3.855 -1.5186 -2.6537 -2.4766
  813MOL0     H 9725   3.378   1.778   3.988 -1.3888  0.4852  1.2694
  813MOL0     H 9726   3.320   1.624   4.046 -2.6349 -0.0246  0.8941
  813MOL0     H 9727   3.151   1.783   3.844  3.4834  3.2689  0.8616
  813MOL0     H 9728   3.101   1.642   3.936 -1.4345  0.2503 -0.5259
  813MOL0     H 9729   3.172   1.918   4.038  0.2933  0.4451  0.9267
  813MOL0     H 9730   3.206   1.787   4.149  3.8322 -2.6695 -2.7688
  813MOL0     H 9731   2.931   1.811   4.017  0.3501 -2.4285 -0.2549
  813MOL0     H 9732   2.978   1.734   4.170  0.9066  0.4683  1.1222
  813MOL0     H 9733   2.845   1.974   4.167 -0.5423  1.1063  1.6064
  813MOL0     H 9734   2.994   2.048   4.158 -0.9107  0.2141  1.1094
  813MOL0     H 9735   2.917   2.031   4.376  2.1707  2.3166  0.3665
  813MOL0     H 9736   3.077   1.957   4.358 -0.0280 -0.0038 -0.5848
  813MOL0     H 9737   3.611   1.695   3.766 -0.9717 -0.0436  3.5367
  813MOL0     H 9738   3.839   1.786   3.803 -0.2450 -0.5208 -1.6533
  813MOL0     H 9739   4.085   2.188   3.729 -0.0503 -3.7457 -0.4618
  813MOL0     H 9740   4.324   2.253   3.718  1.7957 -1.0296  0.0315
  813MOL0     H 9741   5.786   3.546   3.514 -1.4129 -0.3341  0.8276
  813MOL0     H 9742   6.028   3.500   3.513  0.5315  0.4813  0.7164
  813MOL0     H 9743   6.435   3.512   3.300 -3.8860  0.0320  2.3714
  813MOL0     H 9744   6.682   3.488   3.336  2.0597 -0.3443  0.9751
  813MOL0     H 9745   6.798   3.111   3.406 -2.4705  1.4681  4.5891
  813MOL0     H 9746   6.886   3.203   3.295 -0.5113  2.0052  0.2176
  813MOL0     H 9747   7.008   3.176   3.567 -0.4062  1.4504 -0.2568
  813MOL0     H 9748   7.073   3.256   3.432  1.8763 -1.3162  0.4029
  813MOL0     H 9749   7.063   3.021   3.301 -2.8377  2.3980 -0.7295
  813MOL0     H 9750   7.020   2.957   3.460  0.7229 -0.5795  0.2678
  813MOL0     H 9751   7.221   3.057   3.553  0.9400  1.6999 -0.7739
  813MOL0     H 9752   7.270   3.122   3.394  1.7553  0.5011  1.3194
  813MOL0     H 9753   7.444   2.748   3.362 -0.5277 -0.0831 -0.0410
  813MOL0     H 9754   6.630   3.128   3.534 -0.0859 -0.0214 -1.1802
  813MOL0     H 9755   6.380   3.159   3.538  3.3065 -1.2180  0.7322
  814MOL0     O 9756   4.294   0.478   4.926 -0.2770  0.0016 -0.3617
  814MOL0     C 9757   4.323   0.358   4.913  0.3192  0.3043  0.5814
  814MOL0     O 9758   4.235   0.265   4.904 -0.1067 -0.3726  0.0113
  814MOL0     C 9759   4.101   0.303   4.926  0.4920  0.3982  0.3394
  814MOL0     C 9760   4.035   0.382   4.830 -0.4954 -0.0084  0.7114
  814MOL0     C 9761   3.899   0.415   4.843 -0.0870 -0.9010 -0.1561
  814MOL0     C 9762   3.827   0.368   4.954  0.4259  1.1906 -0.2127
  814MOL0     O 9763   3.699   0.414   4.981  0.5281  0.1693 -0.4385
  814MOL0     C 9764   3.589   0.404   4.886 -0.4378  0.1761  0.7788
  814MOL0     C 9765   3.467   0.327   4.948 -0.7999  0.1775  0.3374
  814MOL0     C 9766   3.359   0.299   4.839  0.3332 -0.0361 -0.3008
  814MOL0     C 9767   3.227   0.383   4.843 -0.9136  0.1923  0.1356
  814MOL0     C 9768   3.116   0.321   4.749  0.4538  0.2137 -0.2029
  814MOL0     C 9769   3.151   0.296   4.604  0.1999  0.7400  0.7415
  814MOL0     C 9770   3.015   0.246   4.529  0.6075 -0.6681  0.3120
  814MOL0     C 9771   2.939   0.138   4.596  0.6513  0.3485 -0.7957
  814MOL0     N 9772   2.841   0.081   4.504 -0.2979  0.7262  0.1902
  814MOL0     C 9773   2.878  -0.017   4.414 -0.2264 -0.2094  0.1509
  814MOL0     C 9774   2.764  -0.036   4.346  0.7036  0.2360 -0.1322
  814MOL0     C 9775   2.753  -0.140   4.236  0.0625  0.4762  0.3382
  814MOL0     C 9776   2.618  -0.131   4.168 -0.9451  0.6938  0.3616
  814MOL0     C 9777   2.621  -0.012   4.069  0.1239  0.7453  0.2288
  814MOL0     C 9778   2.485  -0.009   3.990 -0.0982 -0.1724  0.1257
  814MOL0     O 9779   2.356  -0.031   4.060 -0.4852  0.1580  0.3718
  814MOL0     C 9780   2.266   0.069   4.035  0.6269 -0.3544 -0.0456
  814MOL0     C 9781   2.177   0.066   3.929 -0.6479  0.6460 -0.3716
  814MOL0     C 9782   2.085   0.166   3.905 -0.6532  0.2886  0.3506
  814MOL0     C 9783   1.988   0.141   3.794 -0.8327 -0.0419 -0.3930
  814MOL0     C 9784   2.091   0.278   3.989  0.5674 -0.2907 -0.0903
  814MOL0     C 9785   1.995   0.395   3.964  0.3990 -0.7553 -0.0894
  814MOL0     O 9786   1.979   0.471   4.069 -0.2957 -0.0616 -0.0618
  814MOL0     C 9787   1.919   0.596   4.064  1.0741 -0.7492  0.4004
  814MOL0     C 9788   1.947   0.690   4.163  0.0613 -0.1609  0.4187
  814MOL0     C 9789   1.890   0.814   4.170 -0.6391 -0.3485  0.1478
  814MOL0     C 9790   1.797   0.844   4.074 -0.0216  0.3487  0.3988
  814MOL0     O 9791   1.741   0.974   4.073 -0.3125 -0.0487  0.1181
  814MOL0     C 9792   1.652   1.022   3.968  0.9846  0.6205 -0.2412
  814MOL0     C 9793   1.673   1.167   3.941 -0.1913 -0.7381  0.2166
  814MOL0     C 9794   1.583   1.213   3.828  0.0669 -0.0604  0.5047
  814MOL0     C 9795   1.630   1.339   3.748 -0.5947 -0.8190 -0.0213
  814MOL0     C 9796   1.537   1.358   3.626  0.7137 -0.3403 -0.1280
  814MOL0     C 9797   1.379   1.371   3.650 -0.2051  1.0268 -0.3716
  814MOL0     C 9798   1.362   1.487   3.748 -0.5464  0.9442  0.3746
  814MOL0     C 9799   1.220   1.544   3.755  0.5529  0.5813  0.2344
  814MOL0    Cl 9800   1.115   1.407   3.778 -0.3695  0.1654  0.3796
  814MOL0     C 9801   1.766   0.759   3.971  0.9347 -0.1848  0.8964
  814MOL0     C 9802   1.828   0.643   3.960  0.5043  0.0188  0.3334
  814MOL0     O 9803   1.951   0.415   3.850 -0.1819 -0.0282  0.8950
  814MOL0     C 9804   2.169   0.282   4.108  0.6658 -0.2910  0.6906
  814MOL0     C 9805   2.261   0.177   4.130  0.3691 -0.5311 -0.2870
  814MOL0     N 9806   2.666   0.049   4.388  0.4079  0.0208  0.0451
  814MOL0     N 9807   2.712   0.125   4.490  0.1000  0.1694 -0.3981
  814MOL0     C 9808   3.892   0.280   5.046 -0.4091 -0.8620 -0.2679
  814MOL0     C 9809   4.024   0.244   5.030 -0.3957  0.5021 -0.1362
  814MOL0     C 9810   4.463   0.322   4.930  0.0853 -0.5736 -0.3256
  814MOL0     C 9811   4.564   0.420   4.935  0.8033 -0.1253  0.4110
  814MOL0     C 9812   4.695   0.378   4.933  0.0054 -0.4870 -0.3371
  814MOL0     C 9813   4.732   0.237   4.937 -0.4905  0.5057  0.9377
  814MOL0     O 9814   4.858   0.182   4.932 -0.0487  0.4420 -0.8682
  814MOL0     C 9815   4.970   0.266   4.900  0.1169 -0.4969 -0.4144
  814MOL0     C 9816   5.091   0.175   4.899 -0.0994  0.0376 -0.0048
  814MOL0     C 9817   5.224   0.237   4.846  0.2623  0.5609 -0.0639
  814MOL0     C 9818   5.323   0.137   4.815  0.3572  0.5933 -0.3491
  814MOL0     C 9819   5.436   0.206   4.753 -0.3951  0.8307 -1.3139
  814MOL0     C 9820   5.541   0.268   4.729 -0.1344  0.3022 -0.7409
  814MOL0     C 9821   4.629   0.146   4.947 -0.1014 -0.0401 -0.2695
  814MOL0     C 9822   4.495   0.187   4.943  0.2840 -1.1057 -0.3414
  814MOL0     H 9823   4.091   0.419   4.744  2.2850  1.1488  2.8837
  814MOL0     H 9824   3.847   0.483   4.776 -1.4342 -1.4535  0.2984
  814MOL0     H 9825   3.556   0.498   4.842 -1.2379 -0.3331  0.2573
  814MOL0     H 9826   3.625   0.341   4.804 -0.4276  0.4459  0.5761
  814MOL0     H 9827   3.503   0.226   4.972  2.9355  0.3772 -3.2318
  814MOL0     H 9828   3.427   0.383   5.033  0.6271  2.1525 -0.2127
  814MOL0     H 9829   3.413   0.298   4.745  1.0984  1.1701  0.0947
  814MOL0     H 9830   3.322   0.198   4.854 -1.2228  0.7140  1.3292
  814MOL0     H 9831   3.199   0.391   4.948 -0.3758  1.6445  0.2015
  814MOL0     H 9832   3.261   0.481   4.808  1.7782 -0.5225  0.5074
  814MOL0     H 9833   3.103   0.224   4.798  0.1980  0.4088  0.1177
  814MOL0     H 9834   3.019   0.371   4.754  1.6956  2.8266 -0.5273
  814MOL0     H 9835   3.183   0.385   4.551  1.7379  0.4971  1.2153
  814MOL0     H 9836   3.239   0.233   4.587 -0.0817  0.4631  0.2824
  814MOL0     H 9837   2.944   0.327   4.514  0.4492 -0.8373  0.1329
  814MOL0     H 9838   3.042   0.197   4.435 -3.1438 -0.4974 -1.0263
  814MOL0     H 9839   2.885   0.176   4.683  0.3738 -1.9478  0.1103
  814MOL0     H 9840   3.006   0.058   4.630  0.9210  0.8271 -0.1847
  814MOL0     H 9841   2.969  -0.075   4.410  0.9079  1.5628 -1.3899
  814MOL0     H 9842   2.832  -0.127   4.161 -0.4259 -2.4630 -0.8009
  814MOL0     H 9843   2.762  -0.232   4.293  4.2649 -1.1381 -2.4325
  814MOL0     H 9844   2.537  -0.108   4.237 -0.6802 -1.0621  1.3429
  814MOL0     H 9845   2.592  -0.217   4.106 -2.4019  2.3483 -1.4577
  814MOL0     H 9846   2.699  -0.027   3.994 -1.3358 -0.5697 -1.1196
  814MOL0     H 9847   2.637   0.081   4.124  0.4787  1.3518 -0.8681
  814MOL0     H 9848   2.477  -0.082   3.909 -2.2757 -0.5235  0.5935
  814MOL0     H 9849   2.476   0.086   3.937 -0.8674 -1.3271 -1.8871
  814MOL0     H 9850   2.193  -0.017   3.861 -0.6641  1.0469 -0.8616
  814MOL0     H 9851   1.987   0.211   3.710 -0.0836 -0.8148 -1.0733
  814MOL0     H 9852   1.998   0.044   3.746  3.6078 -0.5539  1.0367
  814MOL0     H 9853   1.886   0.136   3.832 -1.2158  0.5226 -1.3174
  814MOL0     H 9854   2.020   0.664   4.239  1.0027  1.7216  0.2322
  814MOL0     H 9855   1.944   0.882   4.236  1.8703 -0.8819 -1.1997
  814MOL0     H 9856   1.652   0.966   3.874  1.0583 -1.1231  0.7393
  814MOL0     H 9857   1.549   1.008   4.002  0.9072  1.4352 -0.1266
  814MOL0     H 9858   1.658   1.231   4.028  1.6258  2.8464 -1.8753
  814MOL0     H 9859   1.776   1.189   3.911 -0.9231 -0.8651 -2.7225
  814MOL0     H 9860   1.482   1.228   3.867 -0.6688  1.0468 -1.6471
  814MOL0     H 9861   1.578   1.128   3.760  0.6262 -1.6754  2.3750
  814MOL0     H 9862   1.628   1.420   3.821 -2.0385  1.6781 -2.6617
  814MOL0     H 9863   1.732   1.329   3.708 -1.0583  1.0651 -1.8464
  814MOL0     H 9864   1.549   1.271   3.562 -2.2029 -0.2356 -0.9524
  814MOL0     H 9865   1.571   1.442   3.564  1.3336 -1.5278 -1.4595
  814MOL0     H 9866   1.326   1.394   3.557 -0.4783  2.5581  0.1326
  814MOL0     H 9867   1.336   1.276   3.683 -0.4080  0.8075 -1.2403
  814MOL0     H 9868   1.428   1.565   3.708 -2.0211  0.5509 -3.1284
  814MOL0     H 9869   1.392   1.459   3.850  1.2355 -0.4262 -0.4727
  814MOL0     H 9870   1.204   1.602   3.664  1.4322  0.4509 -0.0052
  814MOL0     H 9871   1.204   1.606   3.844 -1.5353  2.7716 -1.5136
  814MOL0     H 9872   1.687   0.777   3.899  2.2011  0.7862 -0.3273
  814MOL0     H 9873   1.804   0.588   3.870 -3.0474 -0.9432  1.6674
  814MOL0     H 9874   2.159   0.356   4.187  2.6133 -2.2105  2.8663
  814MOL0     H 9875   2.341   0.189   4.203 -0.3073 -2.9028  0.9471
  814MOL0     H 9876   3.840   0.235   5.129  1.2169 -1.1673  0.6399
  814MOL0     H 9877   4.065   0.195   5.117 -2.2597 -1.7353 -0.4218
  814MOL0     H 9878   4.540   0.526   4.937  3.1775  0.5043 -0.6722
  814MOL0     H 9879   4.779   0.447   4.929 -0.0422 -0.3592  0.5995
  814MOL0     H 9880   4.949   0.305   4.801  1.4308 -0.5911 -0.7499
  814MOL0     H 9881   4.982   0.343   4.977 -0.4408 -2.6592  2.0221
  814MOL0     H 9882   5.076   0.086   4.837 -1.0272  2.0189 -2.8171
  814MOL0     H 9883   5.104   0.166   5.007 -0.2019 -2.4794 -0.1467
  814MOL0     H 9884   5.263   0.313   4.915  0.0032 -0.6008  1.4140
  814MOL0     H 9885   5.183   0.285   4.757  1.4910 -1.2841 -1.7038
  814MOL0     H 9886   5.272   0.060   4.756  0.7730 -1.7896  2.2271
  814MOL0     H 9887   5.362   0.085   4.903 -2.1657 -1.0340 -0.0861
  814MOL0     H 9888   5.624   0.335   4.719  0.4914 -0.1920  0.8278
  814MOL0     H 9889   4.651   0.040   4.951  0.9716  0.1411 -1.0179
  814MOL0     H 9890   4.416   0.116   4.963  0.4340 -0.9335  1.0031
  815MOL0     O 9891   8.338   2.948   4.162 -0.4952 -0.2348  0.1476
  815MOL0     C 9892   8.394   2.988   4.061 -0.1645 -0.0812 -0.6917
  815MOL0     O 9893   8.351   2.983   3.936 -0.9122  0.2355 -0.7775
  815MOL0     C 9894   8.219   2.984   3.896 -0.1444  0.6208 -0.8341
  815MOL0     C 9895   8.100   2.988   3.979 -0.6973  0.5084 -0.1899
  815MOL0     C 9896   7.968   3.009   3.918  0.3481  0.3862  0.8670
  815MOL0     C 9897   7.954   3.016   3.776  0.3741  0.4394 -1.0148
  815MOL0     O 9898   7.824   3.030   3.720  0.0474  0.1064 -1.0193
  815MOL0     C 9899   7.811   3.111   3.604  0.1547 -0.3206  0.6413
  815MOL0     C 9900   7.663   3.126   3.570  0.3319  0.2825  0.2402
  815MOL0     C 9901   7.606   3.234   3.659 -0.4696  0.3290  0.5060
  815MOL0     C 9902   7.452   3.242   3.627 -0.7250 -0.3736  0.3499
  815MOL0     C 9903   7.380   3.345   3.710  0.8326  0.1166 -0.7182
  815MOL0     C 9904   7.259   3.394   3.640  0.0272 -0.4048  0.3358
  815MOL0     C 9905   7.172   3.469   3.738 -0.1207 -0.8730 -0.7348
  815MOL0     C 9906   7.036   3.524   3.689  0.2414  0.2995 -0.2308
  815MOL0     N 9907   6.964   3.610   3.779 -0.1460  0.0448 -0.1475
  815MOL0     C 9908   6.831   3.616   3.793  0.1430  1.1293  0.1396
  815MOL0     C 9909   6.804   3.729   3.855  0.6004  0.3479  0.1157
  815MOL0     C 9910   6.670   3.778   3.898 -0.7639  1.0574  0.5957
  815MOL0     C 9911   6.674   3.914   3.951 -0.1881 -0.2770  0.8132
  815MOL0     C 9912   6.536   3.957   3.995  0.8956  0.0606  0.6014
  815MOL0     C 9913   6.452   3.869   4.083  0.0990  0.3968  0.0615
  815MOL0     O 9914   6.345   3.951   4.127  0.1210  0.3087 -0.5792
  815MOL0     C 9915   6.224   3.898   4.157 -0.1665  1.1022 -0.2892
  815MOL0     C 9916   6.210   3.784   4.241  0.6388  0.4745 -0.6265
  815MOL0     C 9917   6.080   3.729   4.275 -0.1136  0.4013 -0.4355
  815MOL0     C 9918   6.069   3.601   4.349 -0.5255  0.0059 -0.6011
  815MOL0     C 9919   5.963   3.810   4.255 -0.1419  0.8233 -0.4446
  815MOL0     C 9920   5.824   3.769   4.291 -0.6611  0.3872  0.5195
  815MOL0     O 9921   5.726   3.820   4.202  0.0049 -0.5855  0.0343
  815MOL0     C 9922   5.596   3.822   4.254  0.2824 -0.1602 -0.1443
  815MOL0     C 9923   5.554   3.928   4.331  0.2928  0.2820 -0.3247
  815MOL0     C 9924   5.423   3.936   4.381 -0.0557  0.5519 -0.5253
  815MOL0     C 9925   5.328   3.838   4.357 -0.4201 -0.2189  0.2088
  815MOL0     O 9926   5.201   3.864   4.398 -0.2364  0.4649 -0.1071
  815MOL0     C 9927   5.094   3.777   4.370  0.2431  0.8749  0.6548
  815MOL0     C 9928   4.968   3.840   4.426 -0.4854  0.3994  0.5874
  815MOL0     C 9929   4.844   3.739   4.432 -0.2952 -0.5877  0.2202
  815MOL0     C 9930   4.847   3.638   4.553 -0.3469  0.9370 -0.3065
  815MOL0     C 9931   4.723   3.559   4.583 -0.1950  0.3445 -0.1029
  815MOL0     C 9932   4.750   3.450   4.684 -0.0297  0.7394  0.2929
  815MOL0     C 9933   4.627   3.414   4.772  0.6045  1.0402  0.4723
  815MOL0     C 9934   4.635   3.269   4.809 -0.6164  0.5860 -0.9588
  815MOL0    Cl 9935   4.783   3.245   4.915  0.4770 -0.2289  0.1092
  815MOL0     C 9936   5.361   3.736   4.272 -0.1365  0.6003 -0.0210
  815MOL0     C 9937   5.499   3.726   4.221 -0.2269 -0.3191 -0.5397
  815MOL0     O 9938   5.797   3.697   4.384 -0.2416  0.3104 -0.4725
  815MOL0     C 9939   5.983   3.926   4.175 -0.1890 -0.6408 -0.1519
  815MOL0     C 9940   6.115   3.969   4.126 -0.1011 -0.3618 -0.0646
  815MOL0     N 9941   6.922   3.785   3.897 -0.4171  0.2057  0.0107
  815MOL0     N 9942   7.020   3.721   3.837  0.0514  0.8706 -0.9011
  815MOL0     C 9943   8.073   3.006   3.700  0.4833  0.2787 -0.1118
  815MOL0     C 9944   8.201   2.990   3.759  0.0609 -0.3074 -0.2327
  815MOL0     C 9945   8.536   3.030   4.087  0.0150 -0.0109 -0.4114
  815MOL0     C 9946   8.610   2.985   4.197 -0.2937  0.3601  0.1418
  815MOL0     C 9947   8.748   3.021   4.217 -0.0718 -0.4603  0.1057
  815MOL0     C 9948   8.812   3.107   4.130  0.2047 -0.0652  1.1457
  815MOL0     O 9949   8.939   3.139   4.136 -0.1289  0.0433 -0.0983
  815MOL0     C 9950   9.007   3.139   4.260  0.1226  0.8121  1.2298
  815MOL0     C 9951   9.158   3.157   4.222 -0.1023 -0.1905  0.6760
  815MOL0     C 9952   9.259   3.167   4.340 -1.1746 -0.3660 -0.1409
  815MOL0     C 9953   9.415   3.177   4.310  0.2693 -0.1567  0.4816
  815MOL0     C 9954   9.450   3.316   4.275  0.1744 -0.3043  1.3212
  815MOL0     C 9955   9.489   3.426   4.254  0.1284 -0.4660 -0.0613
  815MOL0     C 9956   8.738   3.150   4.009 -0.5707 -0.7522 -0.0786
  815MOL0     C 9957   8.604   3.110   3.989 -0.5554  0.0584 -0.2127
  815MOL0     H 9958   8.110   2.979   4.086  0.8512 -0.3547 -0.3770
  815MOL0     H 9959   7.879   3.016   3.979 -0.4111 -0.3492 -0.1212
  815MOL0     H 9960   7.848   3.214   3.609 -1.4244  0.4454 -1.6525
  815MOL0     H 9961   7.873   3.070   3.524 -1.4763  0.0151 -0.8467
  815MOL0     H 9962   7.649   3.144   3.463  3.2472 -2.2035 -0.7082
  815MOL0     H 9963   7.613   3.033   3.597  1.3348  0.3442  2.5533
  815MOL0     H 9964   7.620   3.213   3.765 -0.9083 -2.3823  0.1071
  815MOL0     H 9965   7.654   3.327   3.627  0.8157 -0.7286 -0.8324
  815MOL0     H 9966   7.442   3.278   3.524  0.1134  1.2513  0.8077
  815MOL0     H 9967   7.410   3.145   3.657 -2.9821  0.3183 -0.3657
  815MOL0     H 9968   7.351   3.299   3.805 -0.6974  0.0311 -1.2007
  815MOL0     H 9969   7.448   3.427   3.731  2.4617 -1.7587  1.9134
  815MOL0     H 9970   7.290   3.465   3.563  0.3484  3.2861  3.5315
  815MOL0     H 9971   7.205   3.309   3.597 -0.3583 -0.3162  0.6395
  815MOL0     H 9972   7.147   3.391   3.810 -2.6890 -1.9859 -2.6658
  815MOL0     H 9973   7.225   3.546   3.796  0.2202 -3.8668  3.3064
  815MOL0     H 9974   6.976   3.439   3.656  1.0642 -0.4321  0.1157
  815MOL0     H 9975   7.057   3.594   3.606  3.4949 -1.7001 -1.2759
  815MOL0     H 9976   6.759   3.548   3.747  0.0919  1.0383  0.3554
  815MOL0     H 9977   6.615   3.770   3.804  1.6228  0.5763 -0.8488
  815MOL0     H 9978   6.650   3.707   3.978  0.3060 -1.3762 -1.1546
  815MOL0     H 9979   6.716   3.982   3.876  0.1019 -1.8189 -0.4767
  815MOL0     H 9980   6.735   3.931   4.039  1.5101  0.9274 -0.5340
  815MOL0     H 9981   6.490   3.977   3.898  3.4307 -0.6296 -0.8330
  815MOL0     H 9982   6.554   4.058   4.034  1.8090  0.0268  0.3069
  815MOL0     H 9983   6.507   3.838   4.172 -0.5864  0.2858  0.4560
  815MOL0     H 9984   6.412   3.783   4.029 -0.3509  0.0924  0.8792
  815MOL0     H 9985   6.290   3.725   4.285  0.9071  0.2668 -1.3756
  815MOL0     H 9986   6.149   3.532   4.323  1.1374  0.3915  2.8686
  815MOL0     H 9987   6.076   3.618   4.457 -3.4071 -0.6771 -0.2227
  815MOL0     H 9988   5.972   3.553   4.338 -0.7558  0.2467  0.2761
  815MOL0     H 9989   5.619   4.003   4.376  2.6607 -1.0408 -1.3324
  815MOL0     H 9990   5.386   4.026   4.428 -1.2328 -0.1512 -0.0602
  815MOL0     H 9991   5.077   3.760   4.263 -1.3496  0.0573  1.0053
  815MOL0     H 9992   5.100   3.686   4.430 -1.7914  1.4672  1.8511
  815MOL0     H 9993   4.971   3.868   4.532 -0.9803  0.0784  0.6880
  815MOL0     H 9994   4.939   3.929   4.369 -0.6877 -0.0946 -0.0987
  815MOL0     H 9995   4.853   3.684   4.339 -0.2511 -0.5103  0.1786
  815MOL0     H 9996   4.758   3.806   4.441  0.2264  0.0964  0.2039
  815MOL0     H 9997   4.930   3.570   4.531 -0.2276  1.4357 -1.4674
  815MOL0     H 9998   4.872   3.689   4.647 -0.5009 -0.0579  0.2842
  815MOL0     H 9999   4.685   3.527   4.485  1.3081  3.2107 -1.7551
  815MOL0     H10000   4.647   3.629   4.620  0.6010  2.7429 -2.6808
  815MOL0     H10001   4.776   3.369   4.615 -3.6434 -2.1208  1.9296
  815MOL0     H10002   4.834   3.486   4.744  0.8855 -1.1756  0.2322
  815MOL0     H10003   4.537   3.436   4.713 -0.4645 -0.5381  1.4572
  815MOL0     H10004   4.616   3.469   4.866  1.2654 -2.0395  2.4923
  815MOL0     H10005   4.650   3.205   4.722  0.7737  1.1446 -1.1644
  815MOL0     H10006   4.539   3.248   4.857 -0.0641  1.1831  0.4774
  815MOL0     H10007   5.282   3.672   4.233  1.4774 -0.7247 -1.3122
  815MOL0     H10008   5.517   3.647   4.149 -0.6034 -0.1856 -0.7799
  815MOL0     H10009   5.905   3.999   4.157 -0.2851 -0.8873 -0.7891
  815MOL0     H10010   6.114   4.059   4.066 -1.1779  0.6546  1.4021
  815MOL0     H10011   8.059   3.014   3.592  1.4095  2.4129 -0.1232
  815MOL0     H10012   8.284   2.991   3.689  1.3557  0.9565  1.2400
  815MOL0     H10013   8.556   2.921   4.266 -0.8100 -0.2396 -0.7923
  815MOL0     H10014   8.801   2.984   4.304  0.7826 -0.9412 -0.6012
  815MOL0     H10015   8.960   3.219   4.319 -1.0054  0.2174  1.1610
  815MOL0     H10016   8.999   3.045   4.315  0.2895 -0.6634 -1.1398
  815MOL0     H10017   9.167   3.258   4.182 -2.0421 -0.0430  0.5584
  815MOL0     H10018   9.184   3.077   4.151 -0.1232  0.9048 -0.5998
  815MOL0     H10019   9.248   3.077   4.401 -0.5672 -0.0737  0.4212
  815MOL0     H10020   9.225   3.242   4.412  0.3798 -1.3581  1.7087
  815MOL0     H10021   9.429   3.116   4.220  2.3754  0.6279  0.2314
  815MOL0     H10022   9.475   3.150   4.397  0.1224  1.9319  1.2982
  815MOL0     H10023   9.525   3.523   4.224  0.9355 -1.7940 -3.9906
  815MOL0     H10024   8.787   3.220   3.944  1.1411  0.5722  2.4539
  815MOL0     H10025   8.548   3.143   3.903 -1.4635 -1.2283 -0.1438
  816MOL0     O10026   3.474   5.245   2.865 -0.3395  0.1725  0.0176
  816MOL0     C10027   3.485   5.134   2.809 -0.6914 -0.2473  0.2686
  816MOL0     O10028   3.378   5.072   2.752  0.0471  0.0368  0.0152
  816MOL0     C10029   3.252   5.100   2.793  0.6993  1.0713 -0.5600
  816MOL0     C10030   3.155   5.159   2.706  0.4764  0.3314 -0.0878
  816MOL0     C10031   3.024   5.195   2.752  0.1779  0.1697  0.0277
  816MOL0     C10032   2.977   5.151   2.879 -1.2781  0.3232  1.1387
  816MOL0     O10033   2.853   5.195   2.907  0.9665 -0.3588 -0.2282
  816MOL0     C10034   2.767   5.105   2.979 -0.2546 -0.1219  0.2895
  816MOL0     C10035   2.621   5.152   2.964 -1.0483 -0.6944  0.1944
  816MOL0     C10036   2.513   5.056   2.990  0.0714 -0.7954  0.1189
  816MOL0     C10037   2.371   5.114   2.962 -0.3763 -0.7320  0.4844
  816MOL0     C10038   2.256   5.006   2.960 -0.0844 -0.6524  0.6618
  816MOL0     C10039   2.119   5.091   2.966  0.0184  0.0452 -0.2435
  816MOL0     C10040   2.077   5.149   2.829 -0.5362  0.2674  0.5107
  816MOL0     C10041   1.930   5.195   2.823  0.7233 -0.3440 -0.6589
  816MOL0     N10042   1.888   5.280   2.944 -0.1824  0.0805 -0.3983
  816MOL0     C10043   1.957   5.378   3.007  0.0150  0.0454  0.1156
  816MOL0     C10044   1.895   5.400   3.119 -1.0108 -0.1933  0.3559
  816MOL0     C10045   1.935   5.479   3.235  0.0210  0.0859 -0.0925
  816MOL0     C10046   2.072   5.537   3.221 -0.3627 -0.0264  0.2503
  816MOL0     C10047   2.192   5.439   3.245 -1.0205  0.4347 -1.1675
  816MOL0     C10048   2.340   5.502   3.230  0.0519 -0.2551 -0.3081
  816MOL0     O10049   2.446   5.409   3.219 -1.2940  0.1722  0.6351
  816MOL0     C10050   2.568   5.466   3.229 -0.7591  0.2345 -0.4807
  816MOL0     C10051   2.600   5.598   3.197 -0.0486 -0.3753  0.9068
  816MOL0     C10052   2.740   5.632   3.201 -0.2973 -0.3769  0.3762
  816MOL0     C10053   2.790   5.783   3.186 -0.7280  0.2024  0.0803
  816MOL0     C10054   2.838   5.539   3.255 -0.5027 -1.1610 -0.3691
  816MOL0     C10055   2.979   5.579   3.271 -0.2535 -0.2978  0.0937
  816MOL0     O10056   3.064   5.525   3.174 -0.6762  0.2783 -0.1666
  816MOL0     C10057   3.192   5.484   3.205 -0.0852  0.2498 -0.6273
  816MOL0     C10058   3.286   5.563   3.272  0.2463  0.3563 -0.2469
  816MOL0     C10059   3.416   5.514   3.297  0.0561  0.2079 -0.3249
  816MOL0     C10060   3.447   5.380   3.256 -0.0872 -0.4397 -0.1186
  816MOL0     O10061   3.572   5.341   3.302  0.4839  0.3968  0.0083
  816MOL0     C10062   3.605   5.203   3.281  0.1419 -0.0370 -0.2122
  816MOL0     C10063   3.740   5.191   3.356  0.2087  0.2619  0.4790
  816MOL0     C10064   3.842   5.285   3.291  0.2127 -0.0643 -0.3156
  816MOL0     C10065   3.973   5.276   3.371  0.5857  0.3814  0.4871
  816MOL0     C10066   4.078   5.377   3.343  0.0254  0.1721 -0.3026
  816MOL0     C10067   4.039   5.512   3.408 -0.2272  0.2488  0.7946
  816MOL0     C10068   4.152   5.615   3.403  0.1243 -0.5323  0.1150
  816MOL0     C10069   4.251   5.593   3.513 -0.5073  0.4412 -0.5874
  816MOL0    Cl10070   4.342   5.738   3.563 -0.0919 -0.0375 -0.1486
  816MOL0     C10071   3.354   5.307   3.178  0.0341  0.6687 -0.5139
  816MOL0     C10072   3.228   5.362   3.159  0.3140 -0.2084  0.6440
  816MOL0     O10073   3.006   5.652   3.370  0.2995 -0.0306 -0.6228
  816MOL0     C10074   2.800   5.410   3.284 -0.1065 -0.3397 -0.0793
  816MOL0     C10075   2.665   5.372   3.268 -0.3661 -0.1625 -0.2600
  816MOL0     N10076   1.776   5.336   3.108  0.4592  0.7042  0.6183
  816MOL0     N10077   1.772   5.253   3.014  0.1431  0.2973  0.2458
  816MOL0     C10078   3.073   5.082   2.960  0.3686  0.4366 -0.0754
  816MOL0     C10079   3.203   5.062   2.917  0.5788  0.3266 -0.6686
  816MOL0     C10080   3.629   5.088   2.790  1.0788 -0.9410  0.5255
  816MOL0     C10081   3.737   5.166   2.843  0.8844  0.9730  0.1731
  816MOL0     C10082   3.872   5.135   2.819  0.1457  0.1742 -0.4881
  816MOL0     C10083   3.901   5.026   2.744  0.7177  0.1795  0.1501
  816MOL0     O10084   4.038   4.995   2.732 -0.1885  0.1670 -0.0096
  816MOL0     C10085   4.102   4.918   2.633  0.5532  0.2038  0.0381
  816MOL0     C10086   4.198   5.007   2.547  0.1755  0.1105  0.1360
  816MOL0     C10087   4.239   4.926   2.422  0.8551 -0.7759 -0.8911
  816MOL0     C10088   4.339   4.996   2.330 -0.1971 -0.9533 -0.2172
  816MOL0     C10089   4.280   5.127   2.289  0.4986 -0.0170 -0.8445
  816MOL0     C10090   4.233   5.232   2.244  0.6905  0.1395  1.3494
  816MOL0     C10091   3.801   4.940   2.695 -0.3256 -0.1174  0.7222
  816MOL0     C10092   3.669   4.978   2.707  0.2439 -0.5524 -0.0665
  816MOL0     H10093   3.182   5.166   2.601 -1.5564  2.0418 -0.5583
  816MOL0     H10094   2.955   5.233   2.678  0.2095 -1.3968 -0.8554
  816MOL0     H10095   2.779   5.004   2.939 -0.5208 -0.1303  0.2333
  816MOL0     H10096   2.801   5.095   3.083 -2.2803  0.4282  1.0406
  816MOL0     H10097   2.603   5.243   3.022 -0.0193  0.7446 -1.6451
  816MOL0     H10098   2.602   5.184   2.861 -1.5894 -0.0027  0.5031
  816MOL0     H10099   2.524   4.981   2.912 -1.8933  0.0482 -1.0574
  816MOL0     H10100   2.508   5.017   3.092 -2.0689  3.2553  1.8191
  816MOL0     H10101   2.355   5.189   3.040  1.2494 -0.3730  0.5048
  816MOL0     H10102   2.368   5.166   2.865 -0.2430 -0.9846  0.3438
  816MOL0     H10103   2.258   4.958   2.862 -4.2554  2.1807 -1.0839
  816MOL0     H10104   2.261   4.932   3.040  0.0970  0.0707  1.3442
  816MOL0     H10105   2.045   5.021   3.007 -0.2260  0.6460  0.3699
  816MOL0     H10106   2.128   5.175   3.036 -2.3042 -0.3208  0.5986
  816MOL0     H10107   2.152   5.226   2.807  1.6537 -0.6403  4.0438
  816MOL0     H10108   2.088   5.066   2.759  2.7682 -1.5789  2.9085
  816MOL0     H10109   1.857   5.114   2.823 -0.7718  0.8829  1.5943
  816MOL0     H10110   1.908   5.255   2.734 -1.6340  0.3549  0.3320
  816MOL0     H10111   2.057   5.416   2.989  0.4575  1.2425  4.0359
  816MOL0     H10112   1.877   5.571   3.248  2.8594  1.8260  0.9487
  816MOL0     H10113   1.921   5.420   3.327 -0.9912  1.3866  0.6297
  816MOL0     H10114   2.091   5.617   3.294  1.0947 -2.3255  2.5833
  816MOL0     H10115   2.086   5.584   3.123 -2.1169 -0.2538 -0.1406
  816MOL0     H10116   2.188   5.353   3.178  0.2447 -1.5966  1.2211
  816MOL0     H10117   2.187   5.409   3.349  1.6066  2.9779 -0.1479
  816MOL0     H10118   2.362   5.563   3.317  0.7657 -1.5079  0.4237
  816MOL0     H10119   2.333   5.559   3.137 -1.8312 -1.3346 -0.8762
  816MOL0     H10120   2.536   5.682   3.171  0.8468 -0.1350 -0.6537
  816MOL0     H10121   2.728   5.844   3.120 -0.6643 -0.8942 -1.0274
  816MOL0     H10122   2.783   5.828   3.285  1.8144 -0.9605  0.8832
  816MOL0     H10123   2.893   5.787   3.149 -0.0664 -1.5932  1.5321
  816MOL0     H10124   3.249   5.654   3.316  0.8120 -0.1457  1.3300
  816MOL0     H10125   3.495   5.567   3.349 -2.4904  1.7217  2.2832
  816MOL0     H10126   3.527   5.136   3.317 -1.7309  1.1228 -1.8873
  816MOL0     H10127   3.613   5.180   3.174 -2.4712  3.0510 -1.2332
  816MOL0     H10128   3.724   5.217   3.461 -1.8979  1.7536 -0.1523
  816MOL0     H10129   3.771   5.088   3.339  1.3341  1.0536 -3.0815
  816MOL0     H10130   3.799   5.385   3.295  0.5357  0.0603  0.2016
  816MOL0     H10131   3.854   5.251   3.188  1.0497 -1.1969  0.1371
  816MOL0     H10132   3.943   5.280   3.476 -2.9162  0.4434 -0.3812
  816MOL0     H10133   4.006   5.174   3.349 -0.0915  0.5505 -1.4632
  816MOL0     H10134   4.087   5.383   3.234 -1.7203  0.5923 -0.4578
  816MOL0     H10135   4.167   5.329   3.384  0.0595 -0.1509 -0.7437
  816MOL0     H10136   3.956   5.548   3.347  0.3595 -0.6575 -0.5771
  816MOL0     H10137   4.007   5.503   3.512 -1.8862  4.1111  0.8001
  816MOL0     H10138   4.104   5.711   3.422  0.1100 -0.1335 -1.7903
  816MOL0     H10139   4.203   5.607   3.306 -1.0498 -1.9047 -0.4195
  816MOL0     H10140   4.325   5.517   3.486 -1.6525 -1.3645  1.0360
  816MOL0     H10141   4.200   5.560   3.604  2.6340  0.4654  1.3301
  816MOL0     H10142   3.398   5.220   3.131  0.0297  1.0125 -1.1730
  816MOL0     H10143   3.155   5.310   3.099 -0.7231 -0.5663  2.1475
  816MOL0     H10144   2.873   5.333   3.309  1.1974  0.1950 -1.9472
  816MOL0     H10145   2.636   5.269   3.283  2.0010 -0.8543 -0.0164
  816MOL0     H10146   3.055   5.048   3.062 -0.7879  1.9314  0.2541
  816MOL0     H10147   3.262   5.022   2.999 -0.2525 -0.1506 -0.2967
  816MOL0     H10148   3.725   5.248   2.912 -1.0010  1.2967 -0.4945
  816MOL0     H10149   3.956   5.196   2.852  0.0441 -0.1524  0.4108
  816MOL0     H10150   4.159   4.841   2.686  0.0262  1.0451  1.9282
  816MOL0     H10151   4.019   4.870   2.580 -1.4165  2.2903  1.0104
  816MOL0     H10152   4.290   5.041   2.595 -2.6400  3.9414  3.4229
  816MOL0     H10153   4.142   5.093   2.511  2.2603  1.4794 -0.0105
  816MOL0     H10154   4.149   4.893   2.369  0.7050 -0.9917 -0.5095
  816MOL0     H10155   4.277   4.826   2.446 -0.3179 -2.1715 -4.2526
  816MOL0     H10156   4.341   4.937   2.238 -0.1782 -2.1468  0.5181
  816MOL0     H10157   4.439   5.001   2.374 -1.0896  0.3886  1.8286
  816MOL0     H10158   4.185   5.320   2.206 -1.3787 -2.9195 -4.2478
  816MOL0     H10159   3.829   4.850   2.639  1.0786 -0.0933  1.3518
  816MOL0     H10160   3.591   4.919   2.659 -1.1823  2.0995 -1.2140
  817MOL0     O10161   4.055   9.925   9.034  0.5575  0.0155  0.1599
  817MOL0     C10162   4.057   9.814   9.084  0.4331 -0.1290 -0.3066
  817MOL0     O10163   3.942   9.752   9.124 -0.4078  0.8223  0.5564
  817MOL0     C10164   3.824   9.820   9.109 -0.4267 -0.4902 -0.6558
  817MOL0     C10165   3.785   9.918   9.211 -0.3035  0.4988 -0.0983
  817MOL0     C10166   3.661   9.988   9.204 -0.5995  0.5161  0.4528
  817MOL0     C10167   3.574   9.966   9.093  0.9917 -0.5844 -0.3898
  817MOL0     O10168   3.452  10.033   9.102 -0.4640 -0.9244  0.1656
  817MOL0     C10169   3.366  10.031   8.988 -0.0621  0.1350  0.2621
  817MOL0     C10170   3.231   9.978   9.029  0.1019 -0.4444  0.8736
  817MOL0     C10171   3.130  10.032   8.925  0.8020  0.1046  0.2326
  817MOL0     C10172   2.984  10.006   8.969  1.0964 -0.0592 -0.1637
  817MOL0     C10173   2.886  10.080   8.870  0.2655 -0.5947  0.3855
  817MOL0     C10174   2.746  10.035   8.904 -0.1818  0.4582  0.2637
  817MOL0     C10175   2.634  10.106   8.820  0.5475 -0.8950 -0.2916
  817MOL0     C10176   2.612  10.250   8.860  0.1338  0.8012 -1.0287
  817MOL0     N10177   2.501  10.318   8.786  0.3441  0.3382  0.1208
  817MOL0     C10178   2.508  10.340   8.650  0.9086 -0.7837 -0.4468
  817MOL0     C10179   2.407  10.424   8.620  0.7021  0.4644 -0.1471
  817MOL0     C10180   2.363  10.474   8.483 -0.0514  0.2834 -0.8004
  817MOL0     C10181   2.284  10.608   8.491 -0.1016  0.6752 -0.0595
  817MOL0     C10182   2.211  10.642   8.358 -0.0574  0.9126  0.6882
  817MOL0     C10183   2.134  10.774   8.365 -0.2720  0.3497  0.4407
  817MOL0     O10184   2.226  10.889   8.375  0.4468  0.5143  0.1984
  817MOL0     C10185   2.170  11.012   8.399  0.3788 -0.2835 -0.5549
  817MOL0     C10186   2.034  11.042   8.413 -0.6738 -0.5680 -0.0743
  817MOL0     C10187   1.998  11.173   8.429  0.0774 -0.4001  0.4377
  817MOL0     C10188   1.853  11.206   8.467 -0.2974  0.5886  0.0908
  817MOL0     C10189   2.097  11.279   8.414  0.8540  0.1940  1.1566
  817MOL0     C10190   2.053  11.424   8.420 -0.0401 -0.2435  0.5018
  817MOL0     O10191   1.951  11.445   8.332  0.1322 -0.3486  0.4157
  817MOL0     C10192   1.903  11.567   8.316  0.2227 -0.4271  0.1968
  817MOL0     C10193   1.770  11.587   8.304  0.5943  0.2713 -0.5126
  817MOL0     C10194   1.719  11.714   8.270  0.2365 -1.2770 -0.5403
  817MOL0     C10195   1.808  11.817   8.249  0.3277  0.7620  0.4379
  817MOL0     O10196   1.754  11.943   8.206 -0.5852  0.5591 -0.2776
  817MOL0     C10197   1.848  12.043   8.193  0.2687 -0.6227 -0.7373
  817MOL0     C10198   1.790  12.185   8.182 -0.1239 -0.3904 -0.2812
  817MOL0     C10199   1.914  12.272   8.149  0.2889  0.2130  0.0203
  817MOL0     C10200   2.009  12.287   8.282  0.4847 -0.4584  0.1514
  817MOL0     C10201   2.138  12.368   8.240 -0.8148  1.2247  0.2764
  817MOL0     C10202   2.126  12.517   8.281  0.0894  0.6599  0.4076
  817MOL0     C10203   2.244  12.593   8.241 -0.6512  0.4965 -0.3232
  817MOL0     C10204   2.216  12.744   8.277 -0.5247 -0.0345 -1.2833
  817MOL0    Cl10205   2.353  12.851   8.257  0.4036  0.1459  0.2836
  817MOL0     C10206   1.945  11.795   8.251  0.0192 -0.3542  0.3930
  817MOL0     C10207   1.990  11.671   8.285 -0.3630 -0.5985 -0.3037
  817MOL0     O10208   2.112  11.501   8.499 -0.0245  0.5470  0.6925
  817MOL0     C10209   2.226  11.247   8.402  0.2250 -0.0985 -0.8387
  817MOL0     C10210   2.269  11.116   8.398  0.1234  0.0740 -0.2371
  817MOL0     N10211   2.345  10.450   8.743 -0.0907  0.1931  0.1795
  817MOL0     N10212   2.404  10.392   8.839 -1.0987  0.1823 -0.4279
  817MOL0     C10213   3.609   9.865   9.006 -0.0186 -0.2359  0.0384
  817MOL0     C10214   3.731   9.795   9.012 -0.7074  0.6749  0.6802
  817MOL0     C10215   4.189   9.736   9.090 -1.1071  0.5477  0.4806
  817MOL0     C10216   4.192   9.596   9.099  0.2969 -0.2648  0.5806
  817MOL0     C10217   4.306   9.526   9.135  0.6592  0.4266  0.5083
  817MOL0     C10218   4.430   9.590   9.136 -0.2180  0.0313  0.6686
  817MOL0     O10219   4.552   9.530   9.156 -0.6365 -0.4556  0.1064
  817MOL0     C10220   4.540   9.390   9.186 -0.2902  0.4676 -0.1136
  817MOL0     C10221   4.672   9.320   9.198  0.2117  0.1945 -0.2217
  817MOL0     C10222   4.747   9.329   9.065  0.8524  0.8161  0.6140
  817MOL0     C10223   4.891   9.304   9.089  0.0203  0.8631  0.2444
  817MOL0     C10224   4.969   9.320   8.966 -0.2930 -0.8378  0.0528
  817MOL0     C10225   5.032   9.338   8.854  0.1492  0.8010  0.1338
  817MOL0     C10226   4.434   9.729   9.116  0.7052  0.0693  0.0589
  817MOL0     C10227   4.314   9.800   9.091 -0.0718  0.3328  0.3708
  817MOL0     H10228   3.839   9.945   9.301  0.0504 -0.0247 -0.1464
  817MOL0     H10229   3.633  10.059   9.281  0.1104 -0.3216  1.4950
  817MOL0     H10230   3.363  10.139   8.975 -0.9891  0.0233 -0.6070
  817MOL0     H10231   3.406   9.987   8.896  0.5046  0.1596  0.4960
  817MOL0     H10232   3.242   9.870   9.043  2.8778 -0.1766  1.2723
  817MOL0     H10233   3.203  10.021   9.126 -1.4750  0.0170  0.2499
  817MOL0     H10234   3.152  10.139   8.919 -0.5227  0.4204  0.7693
  817MOL0     H10235   3.150   9.980   8.831 -2.3002 -1.2687  0.2210
  817MOL0     H10236   2.960   9.900   8.961  1.3177 -0.2269  1.2714
  817MOL0     H10237   2.977  10.047   9.070  0.3320 -0.9303  0.1530
  817MOL0     H10238   2.890  10.189   8.881  0.8493 -0.4930 -0.6591
  817MOL0     H10239   2.917  10.056   8.768  4.0297  0.6127  1.0737
  817MOL0     H10240   2.738   9.930   8.875  1.3138  0.5833 -0.6933
  817MOL0     H10241   2.720  10.034   9.011 -2.6130 -2.6727 -0.1911
  817MOL0     H10242   2.659  10.102   8.714 -0.7137 -1.1106 -0.5935
  817MOL0     H10243   2.538  10.056   8.830  1.0077 -2.4195 -2.6788
  817MOL0     H10244   2.703  10.311   8.853  0.8729 -0.3423 -1.7992
  817MOL0     H10245   2.590  10.254   8.967 -1.0350 -1.0843 -1.1582
  817MOL0     H10246   2.584  10.302   8.582  1.4713 -2.2500  0.9462
  817MOL0     H10247   2.453  10.484   8.422  0.2387 -1.3697 -0.7083
  817MOL0     H10248   2.296  10.402   8.435  0.5377 -1.7046  1.1850
  817MOL0     H10249   2.369  10.671   8.518  1.9334 -0.5376 -3.1405
  817MOL0     H10250   2.211  10.600   8.572 -0.3850 -4.1499 -0.4875
  817MOL0     H10251   2.148  10.557   8.330  1.5366 -0.5642  1.3845
  817MOL0     H10252   2.283  10.638   8.276  0.8269  2.0230  1.3855
  817MOL0     H10253   2.065  10.766   8.450 -2.4242  3.2310 -0.8969
  817MOL0     H10254   2.072  10.787   8.276  1.0674  0.1938 -0.5408
  817MOL0     H10255   1.965  10.959   8.423  1.7594 -2.5870  1.0155
  817MOL0     H10256   1.794  11.250   8.386  1.7973  1.6793 -0.9507
  817MOL0     H10257   1.812  11.105   8.481 -0.1161  0.3607 -0.9295
  817MOL0     H10258   1.848  11.263   8.560 -1.1686 -1.4280  1.3505
  817MOL0     H10259   1.705  11.509   8.341 -0.4703  1.5626  0.3848
  817MOL0     H10260   1.614  11.737   8.280  1.0754  2.0394  4.3971
  817MOL0     H10261   1.906  12.045   8.286  2.2858 -0.6944 -1.9239
  817MOL0     H10262   1.923  12.021   8.116  3.9553  2.3638  1.6462
  817MOL0     H10263   1.721  12.195   8.097 -2.4950 -2.4173  1.2493
  817MOL0     H10264   1.740  12.226   8.271  1.1954 -1.0890  0.8204
  817MOL0     H10265   1.875  12.367   8.111  2.3114  1.3489  0.6253
  817MOL0     H10266   1.972  12.234   8.065  0.2444 -2.1225  0.9749
  817MOL0     H10267   1.950  12.342   8.355 -0.8054 -0.5060 -0.8216
  817MOL0     H10268   2.042  12.192   8.327  2.1311 -1.1290 -2.2348
  817MOL0     H10269   2.146  12.358   8.131 -0.5823 -0.0188  0.3940
  817MOL0     H10270   2.224  12.320   8.287  0.0688  4.3889  2.1904
  817MOL0     H10271   2.039  12.569   8.241  0.1189  2.3742  2.4119
  817MOL0     H10272   2.125  12.527   8.390 -0.3753 -0.6544  0.5380
  817MOL0     H10273   2.267  12.584   8.134 -1.0011 -3.3629 -0.1971
  817MOL0     H10274   2.330  12.553   8.294 -1.1259  0.8373  0.7275
  817MOL0     H10275   2.177  12.757   8.378  2.4348 -0.8176  0.0594
  817MOL0     H10276   2.142  12.786   8.208  0.6040  1.1527 -1.8378
  817MOL0     H10277   2.025  11.866   8.233 -1.0380  0.1350 -3.1982
  817MOL0     H10278   2.097  11.654   8.291 -0.1338  0.2381 -1.6370
  817MOL0     H10279   2.299  11.327   8.411  0.5468 -0.4092 -0.6790
  817MOL0     H10280   2.374  11.090   8.396  0.5769  1.7883  0.2922
  817MOL0     H10281   3.544   9.841   8.922  1.6521  1.9637 -2.0105
  817MOL0     H10282   3.756   9.718   8.941 -3.5763 -1.6982  2.0222
  817MOL0     H10283   4.103   9.535   9.088  0.1630  0.0734 -0.3038
  817MOL0     H10284   4.293   9.419   9.142  2.8060  0.0306 -0.6697
  817MOL0     H10285   4.484   9.383   9.280  0.1624 -2.6254  0.0332
  817MOL0     H10286   4.477   9.335   9.115 -1.7569  2.0323 -0.1041
  817MOL0     H10287   4.651   9.215   9.221  1.7575 -0.7838 -2.7288
  817MOL0     H10288   4.727   9.369   9.278 -1.3527  1.3752  0.1749
  817MOL0     H10289   4.734   9.428   9.020 -2.2267 -0.9836 -3.0503
  817MOL0     H10290   4.714   9.240   9.011  2.6266  0.0366  0.7396
  817MOL0     H10291   4.901   9.202   9.127  2.5535  1.3733  1.1762
  817MOL0     H10292   4.926   9.363   9.174  0.0883  1.8058 -0.4238
  817MOL0     H10293   5.079   9.355   8.760 -0.4030  1.1267 -0.0855
  817MOL0     H10294   4.531   9.776   9.103 -0.9022  4.0807  1.2473
  817MOL0     H10295   4.323   9.906   9.069  0.9621  0.8042  2.6986
  818MOL0     O10296   7.107   9.493   3.315  0.2063  0.4525  0.2036
  818MOL0     C10297   7.109   9.397   3.244 -0.0928 -0.5429  0.0506
  818MOL0     O10298   7.013   9.377   3.148  0.4317 -0.7080 -0.5373
  818MOL0     C10299   6.889   9.429   3.174  0.4771 -0.2252 -0.2258
  818MOL0     C10300   6.826   9.400   3.290 -0.3606  0.7236 -0.1965
  818MOL0     C10301   6.701   9.459   3.311 -0.7265 -0.3789  0.6152
  818MOL0     C10302   6.653   9.556   3.228  0.1875 -0.4982  0.6123
  818MOL0     O10303   6.549   9.636   3.263 -0.1954  0.6508  0.2984
  818MOL0     C10304   6.558   9.708   3.385  0.3159  0.6089 -0.9674
  818MOL0     C10305   6.412   9.758   3.390  0.0892  0.6380  0.0958
  818MOL0     C10306   6.362   9.818   3.263  0.5140 -0.3134  0.3617
  818MOL0     C10307   6.236   9.904   3.282 -0.8263  0.3142  0.6391
  818MOL0     C10308   6.113   9.810   3.291 -0.6490  0.3731 -0.5632
  818MOL0     C10309   5.997   9.905   3.256  0.5519  0.9104  0.1536
  818MOL0     C10310   5.862   9.829   3.241  0.1674 -1.5873 -0.2340
  818MOL0     C10311   5.751   9.935   3.254  0.6147  0.7436  0.0763
  818MOL0     N10312   5.623   9.868   3.254  0.7193 -0.8603 -0.7159
  818MOL0     C10313   5.525   9.875   3.160 -0.2463 -0.4011  0.4648
  818MOL0     C10314   5.417   9.822   3.225 -0.3160  0.5427  1.1539
  818MOL0     C10315   5.280   9.811   3.161  0.2528  1.0800 -0.1542
  818MOL0     C10316   5.167   9.896   3.223 -0.3415 -0.0589  0.2980
  818MOL0     C10317   5.018   9.844   3.199 -0.0040 -0.3934  0.5494
  818MOL0     C10318   4.915   9.899   3.304  1.1452 -0.9174  0.6903
  818MOL0     O10319   4.784   9.874   3.246  0.7244  0.0034  0.5317
  818MOL0     C10320   4.715   9.991   3.197 -1.0724  0.5445 -0.4539
  818MOL0     C10321   4.759  10.122   3.186 -0.4779 -0.1097  0.1536
  818MOL0     C10322   4.680  10.235   3.171  1.3756  0.2929 -0.1913
  818MOL0     C10323   4.741  10.370   3.170  0.2507  0.6701  0.6161
  818MOL0     C10324   4.544  10.215   3.140  0.1852  0.1907 -0.7037
  818MOL0     C10325   4.445  10.327   3.103  0.1734 -0.5954  0.2597
  818MOL0     O10326   4.308  10.297   3.138  0.3451 -0.0547 -0.2117
  818MOL0     C10327   4.225  10.381   3.079  1.0283  0.0643 -0.5469
  818MOL0     C10328   4.160  10.461   3.175 -0.3353 -0.3959 -0.2737
  818MOL0     C10329   4.054  10.541   3.129 -0.3103 -0.4938  0.7405
  818MOL0     C10330   4.009  10.529   2.996 -0.2436  0.1604 -1.0887
  818MOL0     O10331   3.908  10.603   2.939  0.5910 -0.7492 -0.4479
  818MOL0     C10332   3.835  10.690   3.025  0.1301  0.0091 -0.1816
  818MOL0     C10333   3.714  10.745   2.946 -0.3112 -0.1008 -0.5837
  818MOL0     C10334   3.595  10.782   3.040  0.7513 -0.6152  0.0540
  818MOL0     C10335   3.491  10.853   2.959 -0.2464 -0.4200  0.6786
  818MOL0     C10336   3.371  10.895   3.043 -0.0017  0.9957  0.8386
  818MOL0     C10337   3.273  10.982   2.961  0.1186  0.6391 -0.3255
  818MOL0     C10338   3.133  10.979   3.021 -0.2754  0.2440 -0.4290
  818MOL0     C10339   3.036  11.055   2.936 -0.0199  0.0316  0.8486
  818MOL0    Cl10340   2.871  11.025   2.985  0.1827 -0.2783 -0.2095
  818MOL0     C10341   4.084  10.453   2.903 -0.1698 -0.3610  0.8716
  818MOL0     C10342   4.192  10.370   2.944 -0.5358  0.9390 -0.3826
  818MOL0     O10343   4.486  10.430   3.044  0.2515 -0.3410  0.0426
  818MOL0     C10344   4.494  10.085   3.147  0.6335 -0.2494 -0.4139
  818MOL0     C10345   4.573   9.976   3.177 -0.6252 -0.1796  0.2250
  818MOL0     N10346   5.446   9.789   3.354 -0.0277 -0.3290 -1.1373
  818MOL0     N10347   5.569   9.819   3.370 -0.0735 -0.3004  0.2830
  818MOL0     C10348   6.713   9.582   3.106  0.4082  0.5081 -0.3975
  818MOL0     C10349   6.828   9.515   3.070  0.4023  0.4239 -0.6349
  818MOL0     C10350   7.240   9.326   3.241  0.3412 -0.3781  1.5459
  818MOL0     C10351   7.340   9.363   3.334 -0.8008 -0.1795 -0.2317
  818MOL0     C10352   7.459   9.301   3.340 -0.4947  0.5150 -0.7082
  818MOL0     C10353   7.498   9.220   3.237 -0.2082  0.0330  0.7623
  818MOL0     O10354   7.625   9.168   3.235 -0.4440 -0.1117 -0.0562
  818MOL0     C10355   7.674   9.079   3.126  0.5404 -0.6658 -0.0762
  818MOL0     C10356   7.814   9.040   3.146  0.1431  0.6374 -0.1227
  818MOL0     C10357   7.899   9.169   3.125  0.1741 -0.3053 -0.1151
  818MOL0     C10358   8.018   9.174   3.222  0.6642  1.4144  1.1692
  818MOL0     C10359   8.122   9.072   3.193  0.5261  0.4782  0.1041
  818MOL0     C10360   8.188   8.984   3.160 -0.3476  0.7052 -0.1355
  818MOL0     C10361   7.401   9.187   3.142 -0.4915 -0.3640  0.2315
  818MOL0     C10362   7.271   9.233   3.134  0.1648 -0.6687  0.0973
  818MOL0     H10363   6.861   9.336   3.371 -2.2408 -2.1542 -1.5192
  818MOL0     H10364   6.642   9.434   3.399  0.3947 -0.3915  1.3851
  818MOL0     H10365   6.583   9.650   3.474 -0.7750  2.7809  0.8813
  818MOL0     H10366   6.631   9.789   3.372 -0.2380  1.6057  1.4926
  818MOL0     H10367   6.338   9.689   3.430 -1.2892  1.0404 -1.6021
  818MOL0     H10368   6.422   9.826   3.475  3.5768  0.7502 -0.2429
  818MOL0     H10369   6.435   9.878   3.208 -2.5634  1.0401 -2.5582
  818MOL0     H10370   6.336   9.734   3.198 -1.4460 -1.1815  2.1641
  818MOL0     H10371   6.246   9.972   3.367 -2.2618 -0.0175  1.1138
  818MOL0     H10372   6.221   9.949   3.184  0.1974 -1.0711 -0.1817
  818MOL0     H10373   6.106   9.723   3.224 -2.3858 -1.6529  2.0152
  818MOL0     H10374   6.098   9.758   3.386 -0.0588 -2.0935 -1.7261
  818MOL0     H10375   5.994   9.973   3.342  0.6943 -1.8715  2.4733
  818MOL0     H10376   6.015   9.951   3.159 -1.4310 -0.3411 -0.8685
  818MOL0     H10377   5.850   9.802   3.136  2.3678  1.8622 -1.5229
  818MOL0     H10378   5.848   9.743   3.308  0.9265 -0.0900  1.9415
  818MOL0     H10379   5.754  10.015   3.179  0.0113  1.3542  0.6935
  818MOL0     H10380   5.766   9.984   3.350  2.1655  1.9826 -0.7466
  818MOL0     H10381   5.528   9.919   3.061 -1.9544  1.2714  1.0931
  818MOL0     H10382   5.289   9.843   3.057 -0.6856  2.3527  0.1442
  818MOL0     H10383   5.251   9.705   3.164 -1.7992  1.6304  1.9606
  818MOL0     H10384   5.179   9.998   3.183 -2.0950 -0.1715 -0.6439
  818MOL0     H10385   5.183   9.897   3.332  0.2916 -1.2517  0.2301
  818MOL0     H10386   5.016   9.734   3.198 -0.9752 -0.3794  0.0130
  818MOL0     H10387   4.984   9.872   3.099  3.5679 -1.2407 -1.0803
  818MOL0     H10388   4.930  10.002   3.336  1.8173 -1.1096  1.0069
  818MOL0     H10389   4.923   9.850   3.402 -0.4920  1.3317  2.0551
  818MOL0     H10390   4.863  10.152   3.198 -0.6582  0.6407 -0.0770
  818MOL0     H10391   4.674  10.456   3.163  0.3452  0.6761 -0.2607
  818MOL0     H10392   4.797  10.389   3.262  0.0779  1.1730  0.6167
  818MOL0     H10393   4.810  10.374   3.086 -1.6883 -0.4816 -1.1449
  818MOL0     H10394   4.181  10.454   3.281 -3.0265  1.9466  0.5440
  818MOL0     H10395   3.999  10.593   3.207 -0.3186 -1.0656  1.1235
  818MOL0     H10396   3.808  10.634   3.115 -0.9493  2.4878  1.1385
  818MOL0     H10397   3.890  10.777   3.063 -0.1892  1.9535 -3.6657
  818MOL0     H10398   3.737  10.832   2.882 -2.3287  1.3782  0.5896
  818MOL0     H10399   3.678  10.671   2.874  0.8475 -1.0175 -0.2498
  818MOL0     H10400   3.634  10.838   3.125  0.6783 -2.0845  1.1038
  818MOL0     H10401   3.551  10.695   3.089 -1.4824  0.0574 -0.6643
  818MOL0     H10402   3.531  10.940   2.906 -0.0318 -1.7242 -1.3832
  818MOL0     H10403   3.460  10.781   2.883  3.4508 -0.1825 -1.2975
  818MOL0     H10404   3.403  10.941   3.137  2.2545 -0.7931  1.0551
  818MOL0     H10405   3.321  10.802   3.069  1.6434  1.0841  4.9710
  818MOL0     H10406   3.309  11.085   2.960  1.2554  0.2565 -1.6943
  818MOL0     H10407   3.268  10.943   2.859  0.7296 -0.6131  0.0960
  818MOL0     H10408   3.134  11.041   3.111 -0.6647 -0.4894  0.0996
  818MOL0     H10409   3.106  10.877   3.052  0.4529  0.6996  1.9404
  818MOL0     H10410   3.037  11.000   2.841 -2.5767 -0.0699  0.8284
  818MOL0     H10411   3.058  11.161   2.922 -1.2554 -0.1476 -6.1071
  818MOL0     H10412   4.034  10.436   2.808  2.7980  2.3576 -1.4132
  818MOL0     H10413   4.247  10.307   2.875  0.9275  2.9740 -1.1484
  818MOL0     H10414   4.389  10.069   3.126  0.1099  0.1864  1.6837
  818MOL0     H10415   4.535   9.875   3.174  1.7023 -1.1121 -0.6235
  818MOL0     H10416   6.668   9.649   3.033 -0.7862 -0.2943 -0.4289
  818MOL0     H10417   6.881   9.558   2.985 -0.4145  1.1628 -0.7787
  818MOL0     H10418   7.329   9.440   3.410  2.1559 -0.1579  0.2948
  818MOL0     H10419   7.526   9.349   3.411 -1.2211  0.7234 -0.1487
  818MOL0     H10420   7.614   8.988   3.127 -0.1996 -0.1898  0.7046
  818MOL0     H10421   7.676   9.136   3.033  0.5120 -0.5782 -0.0234
  818MOL0     H10422   7.844   8.961   3.075  4.5208  0.3569  1.7197
  818MOL0     H10423   7.828   8.994   3.244 -0.8814 -0.6472 -0.5567
  818MOL0     H10424   7.841   9.262   3.132 -0.3325 -0.5919 -0.4130
  818MOL0     H10425   7.951   9.173   3.029  3.4571 -4.8631  1.1522
  818MOL0     H10426   7.976   9.161   3.323  0.8819 -1.0249  1.0077
  818MOL0     H10427   8.064   9.273   3.231 -0.9116  2.1737  1.1826
  818MOL0     H10428   8.254   8.915   3.112 -0.8213  1.2889 -1.7109
  818MOL0     H10429   7.436   9.124   3.060 -0.2574 -1.9610  1.4905
  818MOL0     H10430   7.206   9.198   3.054  2.1860  1.1224 -2.4905
  819MOL0     O10431   4.227   6.250   1.677 -0.2309 -0.8138 -0.0085
  819MOL0     C10432   4.298   6.249   1.779 -1.0195  0.3514  0.8064
  819MOL0     O10433   4.252   6.244   1.908  0.3708 -0.3981  0.0741
  819MOL0     C10434   4.118   6.249   1.922 -0.0870  0.3241 -0.1895
  819MOL0     C10435   4.021   6.160   1.863 -0.2096 -0.0680  0.5776
  819MOL0     C10436   3.884   6.186   1.896 -0.5884  0.2341  1.1451
  819MOL0     C10437   3.845   6.277   1.987 -0.0655 -0.9042 -0.5028
  819MOL0     O10438   3.712   6.286   2.000  0.6671 -0.5556 -0.4475
  819MOL0     C10439   3.667   6.353   2.126  0.3564  0.1374  0.0661
  819MOL0     C10440   3.552   6.270   2.178  0.2612 -0.4677  0.1696
  819MOL0     C10441   3.416   6.269   2.113  0.2565 -0.2158  0.4217
  819MOL0     C10442   3.315   6.160   2.147  0.4560  0.0758  0.1065
  819MOL0     C10443   3.162   6.178   2.121 -0.5004 -0.6142 -0.2503
  819MOL0     C10444   3.131   6.198   1.971 -0.2183  0.2167 -0.0630
  819MOL0     C10445   2.988   6.254   1.951 -0.2063 -0.2975 -0.7870
  819MOL0     C10446   2.969   6.317   1.809  0.1984 -0.1526  0.1559
  819MOL0     N10447   2.827   6.350   1.775  0.2824 -0.3883  0.1124
  819MOL0     C10448   2.776   6.476   1.788  1.0184 -0.0165 -0.0726
  819MOL0     C10449   2.638   6.454   1.785 -0.8189  0.4058  0.7893
  819MOL0     C10450   2.538   6.572   1.799 -0.1775 -1.1447  0.2196
  819MOL0     C10451   2.464   6.564   1.941 -0.1294  0.2933 -0.3591
  819MOL0     C10452   2.362   6.453   1.965  0.3283  0.4329 -0.4938
  819MOL0     C10453   2.225   6.490   2.015  1.3135  0.2590  0.5377
  819MOL0     O10454   2.110   6.403   1.994 -0.3061 -0.7989  0.0330
  819MOL0     C10455   1.989   6.467   1.980 -0.2911  0.0835 -0.4946
  819MOL0     C10456   1.927   6.459   1.863 -0.4904  0.3330  0.1431
  819MOL0     C10457   1.797   6.512   1.845 -0.8155  0.0200 -0.1885
  819MOL0     C10458   1.751   6.533   1.703  0.4172  0.0864  1.0967
  819MOL0     C10459   1.723   6.552   1.954  0.3105 -0.1995 -0.2176
  819MOL0     C10460   1.582   6.598   1.943 -1.0827 -0.3770  0.1669
  819MOL0     O10461   1.536   6.694   2.023  0.8517 -0.4349  0.4273
  819MOL0     C10462   1.408   6.739   2.001  0.2552  0.5573  1.1579
  819MOL0     C10463   1.396   6.856   1.926  0.5005 -0.3350  0.4495
  819MOL0     C10464   1.273   6.893   1.877  0.0884 -0.6185  1.0225
  819MOL0     C10465   1.155   6.820   1.911  0.3362 -0.9422 -0.2337
  819MOL0     O10466   1.031   6.858   1.876  0.1600 -0.1803 -0.4535
  819MOL0     C10467   1.011   7.000   1.868 -0.2101 -0.1864 -0.3524
  819MOL0     C10468   0.864   7.027   1.881 -0.2752  0.1093 -0.8121
  819MOL0     C10469   0.815   7.070   2.025 -0.2002  0.1021  0.5639
  819MOL0     C10470   0.658   7.061   2.043 -0.6990 -0.1232  0.7024
  819MOL0     C10471   0.622   7.083   2.193  0.0776  0.3212  0.5992
  819MOL0     C10472   0.478   7.129   2.207 -0.2661  0.2106 -0.1412
  819MOL0     C10473   0.377   7.015   2.187 -0.7276 -0.1056 -0.0878
  819MOL0     C10474   0.421   6.890   2.276 -0.1633 -0.5539  1.0239
  819MOL0    Cl10475   0.466   6.932   2.444  0.1677 -0.1879 -0.5340
  819MOL0     C10476   1.171   6.707   1.986  0.3952 -0.3110  0.2193
  819MOL0     C10477   1.297   6.659   2.024  0.5111 -0.3909 -0.3321
  819MOL0     O10478   1.518   6.533   1.858  0.2653 -0.6642  0.0892
  819MOL0     C10479   1.788   6.543   2.083  0.3570  0.9208 -0.6013
  819MOL0     C10480   1.923   6.506   2.093 -0.3605 -0.1337  0.1045
  819MOL0     N10481   2.616   6.318   1.765 -0.3855 -0.0834 -0.0132
  819MOL0     N10482   2.725   6.252   1.765 -0.2009 -0.6013  0.1374
  819MOL0     C10483   3.942   6.355   2.049  0.3909 -0.0876 -0.4629
  819MOL0     C10484   4.074   6.344   2.019 -0.1106 -0.3131 -1.0135
  819MOL0     C10485   4.443   6.234   1.764 -0.5412 -0.1494  0.0890
  819MOL0     C10486   4.518   6.145   1.842  1.0561  0.2607  0.0191
  819MOL0     C10487   4.656   6.107   1.813  0.5251 -0.0210 -0.2621
  819MOL0     C10488   4.720   6.156   1.698  0.2890  0.0682  0.2093
  819MOL0     O10489   4.839   6.098   1.674 -0.5779 -0.1321 -0.0317
  819MOL0     C10490   4.906   6.122   1.545  0.5022  1.3425  0.1404
  819MOL0     C10491   5.024   6.023   1.524 -0.0449 -0.3825 -0.0942
  819MOL0     C10492   5.140   6.064   1.618  0.0545 -0.0913  0.0706
  819MOL0     C10493   5.259   5.975   1.593  0.7706 -0.2322  0.6470
  819MOL0     C10494   5.329   5.996   1.463  0.0062 -0.7827  0.4760
  819MOL0     C10495   5.365   6.017   1.346 -0.1389 -0.4049  0.2385
  819MOL0     C10496   4.640   6.238   1.613 -0.0959  0.7457 -0.4222
  819MOL0     C10497   4.506   6.273   1.645  0.8214 -0.0010 -0.8585
  819MOL0     H10498   4.032   6.099   1.773 -1.0727 -1.4686  1.3887
  819MOL0     H10499   3.818   6.122   1.838 -0.3925 -0.4621  1.6776
  819MOL0     H10500   3.745   6.347   2.203 -0.4386  0.8695  0.9477
  819MOL0     H10501   3.643   6.456   2.098  0.2939 -0.4176 -2.0717
  819MOL0     H10502   3.587   6.168   2.196 -1.2045 -1.1867 -0.8271
  819MOL0     H10503   3.535   6.315   2.276  3.3853  0.0445  0.5678
  819MOL0     H10504   3.380   6.372   2.121  1.9068  0.3175  1.3847
  819MOL0     H10505   3.436   6.252   2.007 -0.1365  1.3489  0.0736
  819MOL0     H10506   3.346   6.067   2.099 -0.7804  0.0435 -0.6664
  819MOL0     H10507   3.319   6.141   2.255 -2.4906  1.0704  0.4802
  819MOL0     H10508   3.097   6.100   2.163 -1.4595  0.3303  0.0445
  819MOL0     H10509   3.124   6.266   2.172 -3.1502 -0.4512 -2.2621
  819MOL0     H10510   3.203   6.263   1.920  0.3401  1.4672  2.1921
  819MOL0     H10511   3.146   6.103   1.919 -0.0811 -0.3400  0.9697
  819MOL0     H10512   2.916   6.174   1.972 -3.7367  1.9095 -3.3162
  819MOL0     H10513   2.958   6.332   2.022 -6.0559 -3.1465  0.5656
  819MOL0     H10514   3.011   6.242   1.741 -0.5211 -2.1038  1.7625
  819MOL0     H10515   3.030   6.407   1.799  0.1952 -0.0711  0.8748
  819MOL0     H10516   2.829   6.571   1.792 -0.8171  1.1522 -1.6041
  819MOL0     H10517   2.601   6.661   1.795  1.2054 -1.8435  3.2636
  819MOL0     H10518   2.465   6.573   1.718 -0.6881 -1.5367  0.6615
  819MOL0     H10519   2.418   6.660   1.968  0.8573 -0.0198  2.7901
  819MOL0     H10520   2.540   6.547   2.017 -1.1337  1.3498  0.9363
  819MOL0     H10521   2.403   6.370   2.023 -1.7230 -0.1450  0.2148
  819MOL0     H10522   2.332   6.411   1.869 -4.0330  0.3677  0.6942
  819MOL0     H10523   2.207   6.583   1.962 -0.0656  0.0573  0.6189
  819MOL0     H10524   2.230   6.529   2.117 -1.6083 -0.4095  1.0257
  819MOL0     H10525   1.987   6.435   1.775  2.7147  0.1854  2.1938
  819MOL0     H10526   1.680   6.459   1.666  1.9217  0.1299 -2.1949
  819MOL0     H10527   1.699   6.627   1.683 -2.2923 -1.3749  0.7720
  819MOL0     H10528   1.833   6.520   1.632  0.5139  0.3576  1.1581
  819MOL0     H10529   1.487   6.909   1.899  0.9492 -0.0785  2.3557
  819MOL0     H10530   1.260   6.983   1.816  0.8705 -0.0116  1.7259
  819MOL0     H10531   1.068   7.047   1.948  2.9293 -2.1676 -1.2429
  819MOL0     H10532   1.039   7.039   1.770  1.1245  0.9837  0.4659
  819MOL0     H10533   0.840   7.111   1.816 -2.4952 -0.2259 -0.4962
  819MOL0     H10534   0.804   6.938   1.859 -2.1790  0.4844  2.2810
  819MOL0     H10535   0.853   7.170   2.046 -1.6679  0.5482  1.2413
  819MOL0     H10536   0.854   7.001   2.100 -0.0679 -1.4586 -0.8824
  819MOL0     H10537   0.604   7.125   1.973  0.5614  0.2029 -0.0089
  819MOL0     H10538   0.624   6.965   2.003 -0.5425  0.0380  0.1650
  819MOL0     H10539   0.689   7.161   2.230 -0.1676  0.1482  1.4342
  819MOL0     H10540   0.648   6.995   2.253 -1.1027 -0.4327  0.0499
  819MOL0     H10541   0.451   7.178   2.301 -1.8495  0.0405 -0.4837
  819MOL0     H10542   0.463   7.212   2.137  1.4471 -0.3100 -1.1760
  819MOL0     H10543   0.365   6.985   2.082 -0.4094 -2.5800  0.5022
  819MOL0     H10544   0.275   7.047   2.210 -1.6339 -0.7662 -2.7438
  819MOL0     H10545   0.496   6.824   2.233  0.9735  0.7717  0.9230
  819MOL0     H10546   0.327   6.833   2.276  0.6241 -1.9063  0.2384
  819MOL0     H10547   1.080   6.656   2.018  1.6400 -1.1285  2.7140
  819MOL0     H10548   1.299   6.560   2.069  1.7936 -1.3760 -2.4259
  819MOL0     H10549   1.739   6.566   2.178 -1.3254  1.3653 -1.5383
  819MOL0     H10550   1.979   6.509   2.187  2.1945 -0.0213 -1.3218
  819MOL0     H10551   3.931   6.435   2.121  2.0272 -2.3915  2.5194
  819MOL0     H10552   4.153   6.405   2.061  1.4099 -0.4754 -3.4319
  819MOL0     H10553   4.473   6.106   1.933 -1.6885 -0.4805 -1.5289
  819MOL0     H10554   4.708   6.041   1.881  0.8013  1.0414  0.5967
  819MOL0     H10555   4.841   6.103   1.458  1.9035  1.0873 -0.8923
  819MOL0     H10556   4.934   6.227   1.534 -0.4544  1.7421  1.2664
  819MOL0     H10557   5.053   6.010   1.419 -0.8552 -2.8522 -0.0606
  819MOL0     H10558   4.988   5.923   1.548  0.3801 -0.3638  0.6410
  819MOL0     H10559   5.109   6.057   1.723  1.0799  1.6236  0.5112
  819MOL0     H10560   5.172   6.168   1.612  0.3739 -0.1565  0.5890
  819MOL0     H10561   5.219   5.873   1.594  1.5172 -0.5783 -1.0573
  819MOL0     H10562   5.329   5.989   1.676  1.2235  4.8770 -0.2688
  819MOL0     H10563   5.383   6.024   1.241 -0.1709 -1.3831  0.1640
  819MOL0     H10564   4.672   6.279   1.518 -0.8475  3.3436  0.3586
  819MOL0     H10565   4.451   6.337   1.577  0.1989  0.8368  0.3985
  820MOL0     O10566   9.039  10.688   7.115  0.9524  0.0970  0.2654
  820MOL0     C10567   9.046  10.626   7.216  0.2687  0.3209  0.0245
  820MOL0     O10568   8.946  10.604   7.297  0.6987 -0.1720  0.7102
  820MOL0     C10569   8.823  10.667   7.277 -0.3787 -0.1010 -0.2308
  820MOL0     C10570   8.768  10.709   7.398 -0.7431 -0.1210 -0.4336
  820MOL0     C10571   8.638  10.758   7.392 -0.9600  0.9022 -0.6564
  820MOL0     C10572   8.559  10.782   7.280  0.1414 -0.7816 -0.1742
  820MOL0     O10573   8.439  10.849   7.271 -0.0043 -0.8294  0.1921
  820MOL0     C10574   8.365  10.894   7.386  0.2070 -0.3123 -0.6094
  820MOL0     C10575   8.243  10.969   7.350  0.1117 -0.8009  0.0354
  820MOL0     C10576   8.121  10.883   7.311 -0.4988  0.5644 -0.5080
  820MOL0     C10577   7.995  10.961   7.307 -0.0176 -0.1282 -0.1509
  820MOL0     C10578   7.883  10.867   7.336  0.7371  0.1952  0.0543
  820MOL0     C10579   7.746  10.936   7.329 -0.1029 -0.0332 -0.2555
  820MOL0     C10580   7.629  10.851   7.384  0.2649  0.4102  0.9957
  820MOL0     C10581   7.496  10.909   7.354  0.9489  0.6571  0.3216
  820MOL0     N10582   7.401  10.886   7.463 -0.3080 -0.1355 -0.8744
  820MOL0     C10583   7.380  10.768   7.528  0.9058 -0.0191 -0.5266
  820MOL0     C10584   7.270  10.789   7.602 -0.9501 -0.5938  0.8161
  820MOL0     C10585   7.200  10.679   7.682  0.0761 -0.3225 -1.1029
  820MOL0     C10586   7.232  10.689   7.826 -0.8137 -0.9379 -0.3702
  820MOL0     C10587   7.186  10.565   7.914 -0.9740  0.6011 -0.0673
  820MOL0     C10588   7.244  10.425   7.884 -1.2485  0.6179 -1.5840
  820MOL0     O10589   7.190  10.322   7.975 -0.0507 -0.6056 -0.4221
  820MOL0     C10590   7.066  10.284   7.949  0.8277  0.4321 -0.5998
  820MOL0     C10591   7.028  10.223   7.825 -0.2162 -0.3089 -0.9799
  820MOL0     C10592   6.887  10.201   7.795  1.1720  0.5846 -0.2418
  820MOL0     C10593   6.855  10.158   7.650 -0.6942  0.0695  0.4868
  820MOL0     C10594   6.789  10.218   7.897 -0.2293  0.7130 -0.1783
  820MOL0     C10595   6.638  10.214   7.879 -0.1108  0.6899 -0.4685
  820MOL0     O10596   6.588  10.144   7.771 -0.9235  0.5432  0.5451
  820MOL0     C10597   6.456  10.115   7.755 -0.2608  0.0398  0.4324
  820MOL0     C10598   6.384  10.168   7.654 -1.1156 -0.7473  0.5159
  820MOL0     C10599   6.247  10.135   7.638  0.1079  1.1850  0.3715
  820MOL0     C10600   6.178  10.050   7.732 -0.4133 -1.0678 -0.0073
  820MOL0     O10601   6.045  10.034   7.705  0.3607 -1.1517  0.5856
  820MOL0     C10602   5.986   9.914   7.749  0.6049 -0.1081  0.7183
  820MOL0     C10603   5.939   9.930   7.897 -0.2481 -1.3026 -0.4144
  820MOL0     C10604   5.804   9.855   7.923  0.3106 -0.5600  0.2413
  820MOL0     C10605   5.767   9.868   8.077 -0.5930 -0.0113  0.3352
  820MOL0     C10606   5.646   9.796   8.123 -0.3719 -0.1375 -0.3854
  820MOL0     C10607   5.666   9.651   8.119  0.1200  0.7401 -0.5542
  820MOL0     C10608   5.545   9.564   8.154 -0.2192  0.1118 -0.0035
  820MOL0     C10609   5.583   9.474   8.264 -0.6808  0.5225  0.1707
  820MOL0    Cl10610   5.662   9.325   8.219  0.1792  0.0947 -0.3123
  820MOL0     C10611   6.253  10.005   7.845 -0.7884  0.0062 -0.0815
  820MOL0     C10612   6.389  10.034   7.853  0.0053 -0.8241  0.5840
  820MOL0     O10613   6.571  10.237   7.974  0.4424 -0.6365 -0.1184
  820MOL0     C10614   6.832  10.278   8.022 -0.3259  0.7724 -0.1473
  820MOL0     C10615   6.963  10.304   8.052 -0.1054 -0.1296  1.1123
  820MOL0     N10616   7.214  10.914   7.570  0.9974 -0.5640 -0.5037
  820MOL0     N10617   7.289  10.968   7.480 -0.6139 -0.0995  0.8023
  820MOL0     C10618   8.622  10.754   7.163  0.0600  0.6859  0.2426
  820MOL0     C10619   8.754  10.692   7.157  0.6699  0.0380 -0.2026
  820MOL0     C10620   9.179  10.585   7.257 -0.8262  0.1465  0.8817
  820MOL0     C10621   9.196  10.531   7.387 -0.8116 -0.8940  0.4719
  820MOL0     C10622   9.317  10.482   7.427 -0.4258  1.0693 -0.0917
  820MOL0     C10623   9.427  10.485   7.342  0.2343  0.0920  0.7564
  820MOL0     O10624   9.537  10.410   7.377 -0.2760 -0.4233  0.0942
  820MOL0     C10625   9.639  10.388   7.277  0.0641  0.7067  0.2710
  820MOL0     C10626   9.744  10.318   7.366  0.3210  0.2162 -0.1011
  820MOL0     C10627   9.843  10.404   7.446 -0.5777 -0.5199 -0.4945
  820MOL0     C10628   9.774  10.501   7.548  0.4327  0.6170  0.2492
  820MOL0     C10629   9.884  10.550   7.627 -0.6774  0.4639 -0.2183
  820MOL0     C10630   9.975  10.602   7.693 -0.0110  0.0591 -0.7429
  820MOL0     C10631   9.409  10.545   7.213 -0.5751 -0.4186 -0.3640
  820MOL0     C10632   9.289  10.588   7.169 -0.3649  1.2279  0.1000
  820MOL0     H10633   8.813  10.704   7.496 -2.2583 -3.7612  0.2279
  820MOL0     H10634   8.596  10.783   7.489 -0.8464 -1.1030 -0.0343
  820MOL0     H10635   8.331  10.809   7.446 -0.6096  1.8114  2.1916
  820MOL0     H10636   8.425  10.959   7.450 -0.8445 -1.2544  1.4429
  820MOL0     H10637   8.211  11.023   7.440  0.5490 -0.9753  0.2969
  820MOL0     H10638   8.265  11.043   7.273  1.0899 -1.3371 -0.2166
  820MOL0     H10639   8.124  10.842   7.210 -3.8278 -0.1586 -0.4442
  820MOL0     H10640   8.120  10.811   7.394  2.5787  0.3012 -0.5931
  820MOL0     H10641   7.992  11.040   7.382 -0.4368  3.1360 -3.3704
  820MOL0     H10642   7.988  11.020   7.216 -1.0481 -0.5001 -0.3263
  820MOL0     H10643   7.885  10.774   7.278  3.8749 -1.3444  2.3250
  820MOL0     H10644   7.911  10.832   7.436 -0.6446 -2.1998 -0.3087
  820MOL0     H10645   7.746  11.030   7.385 -1.7003 -0.3297  0.2712
  820MOL0     H10646   7.720  10.963   7.226 -1.9265 -0.1897  0.1330
  820MOL0     H10647   7.638  10.755   7.332  2.6896  1.1658 -0.1466
  820MOL0     H10648   7.648  10.843   7.491  2.9993 -0.4600  0.5174
  820MOL0     H10649   7.467  10.859   7.261  2.1354 -1.0167  0.8047
  820MOL0     H10650   7.505  11.016   7.334 -0.9448  0.6991 -0.4912
  820MOL0     H10651   7.440  10.678   7.534 -0.1576 -0.7621  5.0210
  820MOL0     H10652   7.091  10.674   7.676  0.0358  0.1338 -0.8532
  820MOL0     H10653   7.234  10.585   7.638  1.6463 -1.3268  1.9578
  820MOL0     H10654   7.188  10.778   7.871  0.5976 -1.5327  2.4035
  820MOL0     H10655   7.339  10.708   7.822 -1.0507  1.6297  2.2235
  820MOL0     H10656   7.077  10.554   7.913 -1.2791  2.6246  1.8691
  820MOL0     H10657   7.207  10.590   8.019 -0.1519  2.4293 -0.6365
  820MOL0     H10658   7.351  10.425   7.907 -1.4462 -2.7544 -0.1095
  820MOL0     H10659   7.242  10.408   7.776  2.7401  1.2557 -1.9304
  820MOL0     H10660   7.095  10.219   7.739 -1.4461  0.4756 -2.0032
  820MOL0     H10661   6.773  10.213   7.604  0.0240  0.8200  0.0852
  820MOL0     H10662   6.946  10.168   7.590  0.5121 -2.3655  1.7271
  820MOL0     H10663   6.825  10.053   7.646  0.0418 -0.2039  1.7195
  820MOL0     H10664   6.437  10.230   7.582  1.2479 -2.3977  0.7094
  820MOL0     H10665   6.197  10.183   7.555  2.0591 -1.7781 -2.7685
  820MOL0     H10666   5.902   9.896   7.682  1.7526  0.3600 -0.8954
  820MOL0     H10667   6.050   9.826   7.735 -1.6351 -1.5941 -0.8800
  820MOL0     H10668   6.019   9.899   7.964 -1.9171  0.7184  2.7420
  820MOL0     H10669   5.911  10.033   7.918 -1.5573 -1.6306 -0.4407
  820MOL0     H10670   5.822   9.754   7.883 -0.1193 -0.3546 -0.4755
  820MOL0     H10671   5.722   9.893   7.862  0.1910 -3.4870 -1.6193
  820MOL0     H10672   5.859   9.849   8.133 -0.9726  1.7649  1.6717
  820MOL0     H10673   5.750   9.975   8.093  2.3912  0.7415 -0.9060
  820MOL0     H10674   5.562   9.825   8.059  0.5091 -1.7175 -2.3882
  820MOL0     H10675   5.632   9.826   8.227 -0.6686 -2.5870  0.3506
  820MOL0     H10676   5.700   9.629   8.017  0.3464  2.4297 -0.8646
  820MOL0     H10677   5.749   9.622   8.185 -1.3342 -2.8304 -0.0309
  820MOL0     H10678   5.517   9.512   8.062 -0.2167  1.4039 -0.7661
  820MOL0     H10679   5.458   9.625   8.180 -0.5114 -0.8816  1.4883
  820MOL0     H10680   5.492   9.441   8.316  0.3648 -0.8938  1.1755
  820MOL0     H10681   5.633   9.522   8.349  1.6995 -0.2828 -0.7040
  820MOL0     H10682   6.203   9.961   7.930 -1.0092  1.4938  0.6028
  820MOL0     H10683   6.444   9.990   7.936  0.9005 -1.5689 -0.3762
  820MOL0     H10684   6.769  10.308   8.105  1.5637 -0.0580  1.6840
  820MOL0     H10685   6.992  10.358   8.142  1.8704  0.1695  0.3635
  820MOL0     H10686   8.569  10.784   7.073  2.3989 -1.6312 -2.0781
  820MOL0     H10687   8.779  10.660   7.056 -0.4298 -1.5640  0.0024
  820MOL0     H10688   9.114  10.539   7.458 -1.0224  2.2921  0.0446
  820MOL0     H10689   9.326  10.433   7.524  3.0005 -0.8791 -1.2291
  820MOL0     H10690   9.606  10.329   7.191  1.4429  2.0349 -1.2325
  820MOL0     H10691   9.682  10.482   7.241  1.0761 -0.1327 -0.7913
  820MOL0     H10692   9.805  10.255   7.300  0.7196  0.7929 -0.2887
  820MOL0     H10693   9.696  10.244   7.431  0.7640 -1.2983 -1.4324
  820MOL0     H10694   9.894  10.472   7.376 -0.8237  2.7583  2.2782
  820MOL0     H10695   9.921  10.343   7.492  3.8013  2.1332 -3.5133
  820MOL0     H10696   9.707  10.430   7.596  1.7526 -0.8969 -0.0258
  820MOL0     H10697   9.733  10.586   7.492  0.3970  0.6982  0.4005
  820MOL0     H10698  10.052  10.654   7.747 -0.3989  0.1847 -0.3006
  820MOL0     H10699   9.492  10.539   7.143  0.3515 -1.4884  0.7756
  820MOL0     H10700   9.277  10.616   7.065  0.8200 -3.3574 -1.5114
  821MOL0     O10701   4.383   7.994  10.590  0.3805  0.5089 -0.0657
  821MOL0     C10702   4.481   7.987  10.517  1.3866  0.9119 -0.1885
  821MOL0     O10703   4.493   8.043  10.386  0.6462 -0.5045  0.4564
  821MOL0     C10704   4.384   8.102  10.323 -1.0840 -0.6294 -0.7758
  821MOL0     C10705   4.313   8.040  10.227 -0.3374  0.7510  0.6472
  821MOL0     C10706   4.209   8.107  10.162 -0.4986  0.2565 -0.2279
  821MOL0     C10707   4.180   8.237  10.202  0.4905  0.8063 -0.5317
  821MOL0     O10708   4.058   8.297  10.166 -0.4496 -0.2073 -0.4850
  821MOL0     C10709   3.982   8.254  10.055 -0.3500 -0.7443  0.6665
  821MOL0     C10710   3.859   8.333  10.039  0.0245  1.2059 -1.5354
  821MOL0     C10711   3.818   8.323   9.893 -0.5712 -0.2837 -0.2838
  821MOL0     C10712   3.899   8.417   9.812  0.2511  0.2445  0.6497
  821MOL0     C10713   3.910   8.375   9.658 -0.3505  0.5844 -0.1640
  821MOL0     C10714   3.780   8.399   9.586  0.0647 -0.0953  0.0012
  821MOL0     C10715   3.813   8.413   9.440  0.4337 -0.0162 -0.0598
  821MOL0     C10716   3.688   8.434   9.343 -0.8307  0.1934  0.1580
  821MOL0     N10717   3.590   8.537   9.370  0.4305 -0.2121 -0.1979
  821MOL0     C10718   3.512   8.549   9.484  0.6201  0.3872 -0.0815
  821MOL0     C10719   3.431   8.652   9.458 -0.6698  0.0514 -0.0775
  821MOL0     C10720   3.325   8.694   9.552  0.2327 -0.9420  0.2709
  821MOL0     C10721   3.197   8.622   9.570  0.4682 -0.3021 -0.3579
  821MOL0     C10722   3.145   8.544   9.457  0.6059  0.0851  0.1564
  821MOL0     C10723   3.026   8.453   9.512 -0.1836  0.4603  1.1833
  821MOL0     O10724   2.973   8.361   9.420 -0.3942  0.5646 -0.0112
  821MOL0     C10725   3.035   8.239   9.398  0.2009  0.7605  0.0169
  821MOL0     C10726   2.967   8.142   9.323 -0.2057  0.0209 -0.4810
  821MOL0     C10727   3.018   8.009   9.303  0.1800  0.9803  0.6450
  821MOL0     C10728   2.934   7.916   9.221  0.5268  0.2025 -0.1136
  821MOL0     C10729   3.148   7.981   9.354  0.3002  0.7698  0.0311
  821MOL0     C10730   3.218   7.848   9.333 -0.3606 -0.0052  0.1087
  821MOL0     O10731   3.300   7.806   9.433 -0.5590 -0.3134  0.4731
  821MOL0     C10732   3.379   7.695   9.418  0.0314 -0.0668 -0.2236
  821MOL0     C10733   3.322   7.567   9.417  0.5097 -0.3242  0.0699
  821MOL0     C10734   3.402   7.454   9.419  0.4718 -0.4719  0.1373
  821MOL0     C10735   3.542   7.470   9.421  0.2066  0.4558  0.3884
  821MOL0     O10736   3.620   7.357   9.440 -0.4374  0.2873  0.1714
  821MOL0     C10737   3.756   7.390   9.486 -0.5465 -0.4358  0.7830
  821MOL0     C10738   3.820   7.268   9.541  0.0648  0.3557 -0.3302
  821MOL0     C10739   3.976   7.282   9.578 -0.5802  0.9690  1.0690
  821MOL0     C10740   4.008   7.390   9.684  0.0263  0.9171  0.1517
  821MOL0     C10741   4.157   7.373   9.733 -0.5535 -1.1110 -0.2535
  821MOL0     C10742   4.250   7.454   9.646 -0.2037  0.6251  0.7230
  821MOL0     C10743   4.387   7.482   9.677 -0.1360  0.1301  0.6177
  821MOL0     C10744   4.453   7.349   9.728 -0.1249  0.2121 -0.4039
  821MOL0    Cl10745   4.466   7.216   9.599 -0.4691  0.3668  0.1323
  821MOL0     C10746   3.597   7.596   9.409 -0.5082  0.4835 -0.0530
  821MOL0     C10747   3.522   7.713   9.408  0.2415  0.8966 -0.3512
  821MOL0     O10748   3.222   7.795   9.223 -0.8751  0.1991 -0.5268
  821MOL0     C10749   3.217   8.075   9.433  0.4314 -0.1807 -1.2879
  821MOL0     C10750   3.162   8.203   9.447 -0.1932 -0.0366 -0.2887
  821MOL0     N10751   3.469   8.705   9.333 -0.2492 -0.3042  0.1491
  821MOL0     N10752   3.559   8.628   9.281  0.1960 -0.0867  0.0101
  821MOL0     C10753   4.256   8.296  10.295  0.0997 -0.0587 -0.0203
  821MOL0     C10754   4.352   8.229  10.360 -0.1910  0.5834  0.6183
  821MOL0     C10755   4.602   7.927  10.578  0.4339 -0.0986  0.0510
  821MOL0     C10756   4.724   7.937  10.506  0.6356  1.0922 -0.2545
  821MOL0     C10757   4.840   7.877  10.555  1.0778 -0.1727  0.6752
  821MOL0     C10758   4.840   7.807  10.676 -0.6840 -0.5122  0.7130
  821MOL0     O10759   4.964   7.763  10.709 -0.2286  0.3752  0.2038
  821MOL0     C10760   4.980   7.647  10.796 -0.3464  0.1158 -0.4278
  821MOL0     C10761   5.125   7.602  10.831  0.1491 -0.2987 -0.7526
  821MOL0     C10762   5.187   7.526  10.713 -0.3222  0.9024  0.2012
  821MOL0     C10763   5.302   7.437  10.754 -0.6516 -0.0754  0.1648
  821MOL0     C10764   5.252   7.316  10.823  0.5051  0.1962 -0.2945
  821MOL0     C10765   5.240   7.223  10.894 -0.1495 -0.6267 -0.5026
  821MOL0     C10766   4.719   7.796  10.746  0.1989 -0.0029  0.5115
  821MOL0     C10767   4.605   7.856  10.699  0.2324 -0.4088 -0.4445
  821MOL0     H10768   4.332   7.937  10.198 -0.6022  0.4821  1.3969
  821MOL0     H10769   4.168   8.045  10.083  0.8568  1.3494 -1.8676
  821MOL0     H10770   4.045   8.263   9.966  0.1807  2.1140  1.2374
  821MOL0     H10771   3.961   8.147  10.069 -0.6088 -1.2088 -2.4095
  821MOL0     H10772   3.779   8.286  10.096  1.4499 -0.3478 -0.7385
  821MOL0     H10773   3.869   8.435  10.076  0.2461  1.2082 -1.5989
  821MOL0     H10774   3.827   8.219   9.861 -2.8426 -1.4322  2.3476
  821MOL0     H10775   3.713   8.353   9.881 -0.7823  0.1635  2.2740
  821MOL0     H10776   3.845   8.512   9.820 -0.9704 -0.2096 -1.6023
  821MOL0     H10777   3.995   8.437   9.862  0.4392  2.3000 -0.4093
  821MOL0     H10778   3.998   8.420   9.611  1.7807 -1.3815  1.6620
  821MOL0     H10779   3.940   8.270   9.651  0.6101  0.7848  0.6373
  821MOL0     H10780   3.708   8.321   9.614  2.2003 -1.9789  0.5179
  821MOL0     H10781   3.732   8.495   9.605  1.1959  0.8062 -1.4973
  821MOL0     H10782   3.888   8.493   9.433  0.5966 -0.2351 -1.0133
  821MOL0     H10783   3.882   8.339   9.398  3.5770  2.5566  0.1066
  821MOL0     H10784   3.625   8.345   9.350 -1.6677  0.5156 -2.2082
  821MOL0     H10785   3.726   8.449   9.241  2.0745  1.1692  1.2798
  821MOL0     H10786   3.511   8.486   9.572 -0.1785 -0.0406 -0.3908
  821MOL0     H10787   3.351   8.739   9.648 -2.4663  3.4323 -0.7535
  821MOL0     H10788   3.296   8.788   9.504  0.9347  0.5759  2.6711
  821MOL0     H10789   3.124   8.687   9.619  1.7614 -0.2289  1.5853
  821MOL0     H10790   3.208   8.553   9.654  0.2425 -0.0206 -0.0971
  821MOL0     H10791   3.220   8.491   9.398 -1.6870  0.4907 -3.5131
  821MOL0     H10792   3.100   8.606   9.378  0.0663 -1.7172 -1.0200
  821MOL0     H10793   2.939   8.513   9.540 -1.4718 -0.2776 -1.0047
  821MOL0     H10794   3.065   8.398   9.598  3.7465 -2.0466 -1.8389
  821MOL0     H10795   2.864   8.161   9.292 -0.2897 -1.9861 -1.5683
  821MOL0     H10796   2.859   7.976   9.169 -0.4619 -0.8794  0.0270
  821MOL0     H10797   2.978   7.845   9.151 -0.1954 -3.1146  2.5388
  821MOL0     H10798   2.886   7.852   9.296  0.8004 -1.9034 -1.6738
  821MOL0     H10799   3.214   7.555   9.425  0.5575 -0.6868  0.1908
  821MOL0     H10800   3.351   7.361   9.442 -2.4857  1.5716  2.6315
  821MOL0     H10801   3.822   7.421   9.404 -0.9476 -0.2610  0.5190
  821MOL0     H10802   3.750   7.469   9.561  0.6136 -0.3989  0.8500
  821MOL0     H10803   3.763   7.237   9.629 -1.3062  0.5987 -1.1145
  821MOL0     H10804   3.807   7.194   9.462  0.9290 -1.0245  0.7679
  821MOL0     H10805   4.020   7.299   9.479  2.3250 -1.1249  1.8600
  821MOL0     H10806   4.021   7.184   9.600  1.7219  2.0394  1.4045
  821MOL0     H10807   3.987   7.484   9.633 -0.2288 -0.3148 -2.1375
  821MOL0     H10808   3.941   7.367   9.767  1.9775 -3.4769  0.7861
  821MOL0     H10809   4.186   7.268   9.722 -2.1982 -1.5492 -0.6283
  821MOL0     H10810   4.163   7.411   9.835 -1.3236  1.7052 -1.1372
  821MOL0     H10811   4.244   7.403   9.549  2.8223 -1.1856  1.3531
  821MOL0     H10812   4.204   7.552   9.631  1.0380  0.9741 -1.1525
  821MOL0     H10813   4.393   7.553   9.760  0.7124  1.0202 -0.1738
  821MOL0     H10814   4.442   7.513   9.588 -0.4976  3.1788  1.3603
  821MOL0     H10815   4.405   7.309   9.818 -0.2674 -0.7327 -0.8852
  821MOL0     H10816   4.556   7.379   9.747 -0.3403  1.6036 -1.2936
  821MOL0     H10817   3.704   7.603   9.392 -0.5593  0.0310 -0.6206
  821MOL0     H10818   3.571   7.808   9.390 -0.3754  0.6391 -4.2977
  821MOL0     H10819   3.311   8.054   9.484 -0.9773 -0.5832  1.3246
  821MOL0     H10820   3.213   8.282   9.500 -3.5459  3.2706 -1.5749
  821MOL0     H10821   4.248   8.401  10.322 -0.3077  0.4951 -2.1095
  821MOL0     H10822   4.422   8.267  10.433  0.6421  2.2377 -0.9670
  821MOL0     H10823   4.725   7.984  10.408  2.4957  0.4874 -0.5486
  821MOL0     H10824   4.936   7.872  10.506  2.1337  2.7168  2.2097
  821MOL0     H10825   4.935   7.679  10.890  2.8464 -3.2087  2.5956
  821MOL0     H10826   4.923   7.564  10.753 -0.9635  1.1427 -1.6586
  821MOL0     H10827   5.117   7.542  10.922  0.3099 -0.3757 -0.7891
  821MOL0     H10828   5.198   7.681  10.854  1.4343 -0.8778 -2.6360
  821MOL0     H10829   5.228   7.606  10.650  1.6145  0.5302  0.9303
  821MOL0     H10830   5.105   7.485  10.653  0.7321  1.8906 -2.0589
  821MOL0     H10831   5.374   7.493  10.814  1.0941  1.5141 -3.1393
  821MOL0     H10832   5.372   7.416  10.672 -1.2211 -1.8602  0.0850
  821MOL0     H10833   5.222   7.124  10.930  0.5647 -1.1891 -1.6221
  821MOL0     H10834   4.710   7.747  10.842  1.8641 -1.1144  0.1412
  821MOL0     H10835   4.515   7.843  10.758  2.2973  0.2594  3.0794
  822MOL0     O10836   9.074   7.591   8.166 -0.4309 -0.1945 -0.0418
  822MOL0     C10837   9.016   7.532   8.255  0.7770  0.6536  1.1749
  822MOL0     O10838   8.895   7.462   8.239  0.5786  0.1165  0.3082
  822MOL0     C10839   8.833   7.459   8.119 -0.1209 -0.3755  0.9066
  822MOL0     C10840   8.777   7.583   8.076  0.1660 -0.1421 -0.6420
  822MOL0     C10841   8.698   7.584   7.957  0.3867 -0.0298  0.4292
  822MOL0     C10842   8.661   7.472   7.888 -0.1599  1.1875  0.5020
  822MOL0     O10843   8.572   7.464   7.782 -0.4133  0.1720 -0.0055
  822MOL0     C10844   8.468   7.557   7.777 -0.2051 -0.1640  0.7074
  822MOL0     C10845   8.357   7.511   7.677 -0.0810  0.3333  0.7274
  822MOL0     C10846   8.233   7.594   7.696 -0.6809  0.2908  0.5807
  822MOL0     C10847   8.123   7.567   7.593 -0.2733  0.2666 -0.0502
  822MOL0     C10848   7.976   7.591   7.646 -0.7197  0.0329  0.9365
  822MOL0     C10849   7.940   7.736   7.656  0.6520 -0.7901  0.4335
  822MOL0     C10850   7.813   7.752   7.754 -0.4052 -0.4739 -1.0981
  822MOL0     C10851   7.776   7.903   7.788 -0.7042  0.2211 -0.6520
  822MOL0     N10852   7.625   7.917   7.792 -0.3924  0.3800  0.2580
  822MOL0     C10853   7.546   7.851   7.875  0.2643 -0.1134 -0.8216
  822MOL0     C10854   7.420   7.896   7.847 -0.6001  0.3083 -0.3882
  822MOL0     C10855   7.286   7.848   7.904  0.0240  0.0219  0.7590
  822MOL0     C10856   7.228   7.729   7.831 -0.1219  0.2079 -0.2525
  822MOL0     C10857   7.180   7.772   7.686  0.1220 -0.0763  0.3101
  822MOL0     C10858   7.056   7.874   7.681 -0.1438  1.0787  0.6489
  822MOL0     O10859   6.941   7.835   7.754  0.7517  0.2162  0.3625
  822MOL0     C10860   6.844   7.758   7.711 -0.5006 -0.2705  1.0381
  822MOL0     C10861   6.720   7.785   7.763  0.1538 -0.1643  1.0969
  822MOL0     C10862   6.606   7.706   7.731 -0.1722 -0.0101  0.5511
  822MOL0     C10863   6.476   7.757   7.789 -0.7833  0.4497 -0.7737
  822MOL0     C10864   6.612   7.606   7.631  0.0040 -0.5682 -0.1279
  822MOL0     C10865   6.505   7.531   7.578 -0.3475  0.0909  0.0126
  822MOL0     O10866   6.379   7.579   7.586 -0.1605 -0.3704  0.0583
  822MOL0     C10867   6.268   7.521   7.527 -0.6282 -0.0980  0.0343
  822MOL0     C10868   6.279   7.446   7.416  0.0462 -0.4714  1.2158
  822MOL0     C10869   6.158   7.403   7.348  0.2800  1.4941 -0.4269
  822MOL0     C10870   6.030   7.421   7.401 -0.2335 -1.1028 -0.4481
  822MOL0     O10871   5.911   7.373   7.346 -0.3374  0.0713  0.0216
  822MOL0     C10872   5.923   7.238   7.295  0.5344  0.2012 -0.6839
  822MOL0     C10873   5.798   7.206   7.212 -0.0097  0.1228 -0.6933
  822MOL0     C10874   5.663   7.214   7.296  0.3943 -0.5120 -0.0537
  822MOL0     C10875   5.546   7.191   7.203  1.0572 -0.7904  0.4739
  822MOL0     C10876   5.416   7.198   7.288  0.1089 -0.0302  1.2816
  822MOL0     C10877   5.294   7.164   7.203 -0.1997 -0.9683  0.3443
  822MOL0     C10878   5.166   7.155   7.290  0.6470 -0.3950  0.3076
  822MOL0     C10879   5.033   7.151   7.203  0.1775  0.1201  0.1834
  822MOL0    Cl10880   5.031   7.263   7.065  0.3335  0.7310  0.1069
  822MOL0     C10881   6.028   7.493   7.518 -0.0233 -0.3765  0.3776
  822MOL0     C10882   6.143   7.545   7.582  0.8047 -1.2149  0.7144
  822MOL0     O10883   6.532   7.419   7.538  0.4170 -0.2682 -0.3766
  822MOL0     C10884   6.746   7.587   7.571  0.4843 -0.2013  0.5355
  822MOL0     C10885   6.859   7.656   7.618 -0.2238 -0.1101  0.5716
  822MOL0     N10886   7.429   7.979   7.738  0.3982  0.4682 -0.0736
  822MOL0     N10887   7.554   7.992   7.707  0.7902  0.2894 -0.3716
  822MOL0     C10888   8.715   7.351   7.938  0.0487  0.3582  0.9264
  822MOL0     C10889   8.806   7.341   8.041  0.7027  0.4753 -0.2590
  822MOL0     C10890   9.077   7.534   8.388  0.3922 -0.5448 -0.5155
  822MOL0     C10891   9.199   7.609   8.408 -0.1218  0.4017  0.6331
  822MOL0     C10892   9.258   7.627   8.534  0.4208 -0.4500 -0.4793
  822MOL0     C10893   9.192   7.566   8.645  0.1322  0.1894  0.3396
  822MOL0     O10894   9.233   7.605   8.766 -0.0056 -0.9995  0.2497
  822MOL0     C10895   9.220   7.522   8.887  0.8159  1.2439  0.1359
  822MOL0     C10896   9.294   7.577   9.009 -0.8162  0.2336 -0.0502
  822MOL0     C10897   9.440   7.549   9.020  0.1948  0.4117  0.6225
  822MOL0     C10898   9.492   7.482   9.149 -0.5206  0.3930 -0.4146
  822MOL0     C10899   9.450   7.558   9.268 -0.1498  0.0594 -0.3197
  822MOL0     C10900   9.403   7.638   9.345 -0.3179 -1.3097 -0.7145
  822MOL0     C10901   9.080   7.496   8.628  0.0798 -0.8072  0.3376
  822MOL0     C10902   9.022   7.469   8.503  0.1098 -0.3551 -0.7851
  822MOL0     H10903   8.785   7.674   8.135 -1.3428  0.4145 -1.2282
  822MOL0     H10904   8.668   7.684   7.925  0.4330 -0.1699 -0.0687
  822MOL0     H10905   8.423   7.582   7.873 -0.0809  0.2833  0.6514
  822MOL0     H10906   8.509   7.651   7.737 -2.7524  0.1106 -1.5539
  822MOL0     H10907   8.388   7.520   7.572 -0.4230  5.6295  0.8219
  822MOL0     H10908   8.330   7.406   7.690  0.3619  0.0317 -0.6390
  822MOL0     H10909   8.184   7.568   7.790 -1.9448  0.1099 -0.0997
  822MOL0     H10910   8.256   7.701   7.696 -0.1447  0.1771 -0.0107
  822MOL0     H10911   8.131   7.639   7.510  2.1239  1.4268  1.0686
  822MOL0     H10912   8.123   7.469   7.544 -2.1826  0.9824 -1.6153
  822MOL0     H10913   7.905   7.544   7.578  0.7735  2.0509 -2.2598
  822MOL0     H10914   7.959   7.551   7.746 -2.8393 -0.6965  0.3379
  822MOL0     H10915   8.017   7.787   7.715 -0.3054 -0.9082  1.8448
  822MOL0     H10916   7.939   7.770   7.552  0.6926 -0.8667  0.4073
  822MOL0     H10917   7.725   7.703   7.709 -1.9016  2.2197 -1.3306
  822MOL0     H10918   7.850   7.704   7.845  1.5141 -0.2555 -1.7315
  822MOL0     H10919   7.816   7.978   7.719 -1.3756  1.3961  0.1810
  822MOL0     H10920   7.826   7.925   7.883 -0.0977 -1.6179 -0.5030
  822MOL0     H10921   7.586   7.783   7.949 -0.4179 -0.3979 -0.7092
  822MOL0     H10922   7.308   7.825   8.009  3.9030 -0.4391  0.0070
  822MOL0     H10923   7.216   7.931   7.910  0.7908  0.6043  2.0146
  822MOL0     H10924   7.146   7.687   7.890  0.6448  0.4714  1.0502
  822MOL0     H10925   7.300   7.647   7.819 -0.5546 -0.9844  3.8879
  822MOL0     H10926   7.146   7.681   7.636 -0.2820 -0.9203  2.0735
  822MOL0     H10927   7.267   7.807   7.629 -0.3006  0.3456 -0.0847
  822MOL0     H10928   7.028   7.891   7.577 -0.0263  2.6551  0.8541
  822MOL0     H10929   7.106   7.965   7.716  0.0264  0.3728  2.3311
  822MOL0     H10930   6.714   7.863   7.838 -0.9223  0.7622  0.0983
  822MOL0     H10931   6.406   7.673   7.797  1.3425 -1.3289  0.5705
  822MOL0     H10932   6.499   7.794   7.889  1.5512 -1.8090 -0.3452
  822MOL0     H10933   6.445   7.842   7.727  0.0336 -0.4039 -2.4325
  822MOL0     H10934   6.373   7.433   7.365 -0.6490 -0.9846  0.0178
  822MOL0     H10935   6.172   7.349   7.255  0.4939 -0.7307  0.8236
  822MOL0     H10936   6.007   7.217   7.228  1.6992  0.7943  0.5429
  822MOL0     H10937   5.920   7.171   7.382  0.0589 -3.0307 -2.9988
  822MOL0     H10938   5.785   7.263   7.119 -2.6135 -2.7076 -2.2668
  822MOL0     H10939   5.810   7.101   7.182 -3.7722 -1.7065  3.0696
  822MOL0     H10940   5.665   7.308   7.351 -0.2888 -1.0057  0.8491
  822MOL0     H10941   5.665   7.139   7.377 -0.4106  0.3151  0.7643
  822MOL0     H10942   5.557   7.273   7.131  2.3147 -0.2710  1.2235
  822MOL0     H10943   5.565   7.094   7.157 -0.0430 -0.0407 -1.6606
  822MOL0     H10944   5.402   7.294   7.337  1.1025  0.4321  0.6847
  822MOL0     H10945   5.404   7.132   7.374  0.7082 -1.7809  0.0968
  822MOL0     H10946   5.284   7.246   7.131  2.1609  0.5892  1.6691
  822MOL0     H10947   5.320   7.074   7.147  0.8194 -2.5080  3.1095
  822MOL0     H10948   5.166   7.242   7.355  0.2919  1.6766 -2.2962
  822MOL0     H10949   5.187   7.065   7.348  2.2753 -0.7572 -0.7703
  822MOL0     H10950   4.935   7.170   7.248 -0.3928  1.9624 -1.6599
  822MOL0     H10951   5.031   7.046   7.173 -1.8124 -0.0557  0.7984
  822MOL0     H10952   5.938   7.524   7.571 -0.5073  2.7363 -1.9505
  822MOL0     H10953   6.127   7.608   7.669 -1.6516  0.0671 -0.5672
  822MOL0     H10954   6.757   7.524   7.483 -2.3421 -0.2609  0.1545
  822MOL0     H10955   6.956   7.632   7.577  0.4292  1.9855  0.7764
  822MOL0     H10956   8.683   7.256   7.897 -6.1738  2.1778  0.5841
  822MOL0     H10957   8.851   7.247   8.070 -1.5766 -0.3554  0.8309
  822MOL0     H10958   9.255   7.654   8.327  2.1840  0.1316  1.9811
  822MOL0     H10959   9.346   7.690   8.550 -0.1396  0.3283 -0.4043
  822MOL0     H10960   9.115   7.518   8.917  0.3100  2.3345 -1.4164
  822MOL0     H10961   9.250   7.419   8.866 -6.0525 -1.1080 -0.7428
  822MOL0     H10962   9.248   7.534   9.099  2.3578  0.1228  1.6463
  822MOL0     H10963   9.284   7.685   9.019 -0.4873  0.3738 -1.1797
  822MOL0     H10964   9.494   7.643   9.003  1.7569 -0.4872  0.4459
  822MOL0     H10965   9.472   7.490   8.934  0.7120 -1.3181  1.9408
  822MOL0     H10966   9.601   7.488   9.146 -0.3973 -1.3481 -1.4306
  822MOL0     H10967   9.470   7.374   9.153  0.5748  0.1956  0.7091
  822MOL0     H10968   9.369   7.716   9.411  0.2933 -0.6517 -1.1649
  822MOL0     H10969   9.026   7.449   8.709  0.1839  1.8919  2.0715
  822MOL0     H10970   8.925   7.419   8.501 -0.7737  1.3335 -1.4533
  823MOL0     O10971   0.629  10.336   6.716 -0.1548 -0.6305  0.3252
  823MOL0     C10972   0.568  10.283   6.621 -1.1267  0.2535  0.3860
  823MOL0     O10973   0.436  10.253   6.615  0.2139  0.4097 -0.0933
  823MOL0     C10974   0.360  10.337   6.691  0.1469  0.2492 -0.2987
  823MOL0     C10975   0.254  10.402   6.630  0.6711  0.4476  0.7112
  823MOL0     C10976   0.167  10.478   6.706 -0.2261 -0.1805 -0.2071
  823MOL0     C10977   0.196  10.506   6.840  0.2164  0.4624  0.4040
  823MOL0     O10978   0.100  10.582   6.901  0.2107  0.4280  0.1078
  823MOL0     C10979   0.145  10.635   7.027 -0.3261 -0.0188 -0.3135
  823MOL0     C10980   0.047  10.720   7.108 -0.1528  0.5008  0.7403
  823MOL0     C10981  -0.066  10.635   7.156 -0.4249  0.4227  0.2618
  823MOL0     C10982  -0.041  10.544   7.273  0.0963 -0.1667  0.3517
  823MOL0     C10983  -0.163  10.480   7.352  0.4467  0.1082  0.0211
  823MOL0     C10984  -0.242  10.581   7.432 -0.8965  0.1447  0.3477
  823MOL0     C10985  -0.354  10.505   7.514  0.9849 -0.1143 -0.0448
  823MOL0     C10986  -0.469  10.583   7.585  0.4893  0.8417 -1.1640
  823MOL0     N10987  -0.582  10.493   7.595  0.0506  0.1804 -0.8292
  823MOL0     C10988  -0.608  10.410   7.700  0.4457  0.2707  1.0128
  823MOL0     C10989  -0.721  10.337   7.672 -0.1363 -0.8327 -0.1537
  823MOL0     C10990  -0.768  10.231   7.776 -1.3485 -0.1702 -0.0654
  823MOL0     C10991  -0.885  10.287   7.849 -0.2974  0.2878 -0.6271
  823MOL0     C10992  -1.001  10.321   7.755  0.7777  0.2296  0.0877
  823MOL0     C10993  -1.141  10.335   7.827  0.0110  0.8369  0.5038
  823MOL0     O10994  -1.160  10.451   7.905  0.5036 -0.2958 -0.7969
  823MOL0     C10995  -1.265  10.469   8.001  0.0033 -0.0797 -0.0413
  823MOL0     C10996  -1.357  10.366   8.035 -1.1369 -0.4034  0.6560
  823MOL0     C10997  -1.445  10.397   8.136 -0.7193 -0.2432 -0.9853
  823MOL0     C10998  -1.530  10.288   8.179 -0.3220  0.5724 -0.1501
  823MOL0     C10999  -1.449  10.525   8.207 -0.3829 -0.4475 -0.7275
  823MOL0     C11000  -1.554  10.570   8.304 -0.9979 -0.7179  0.0180
  823MOL0     O11001  -1.556  10.703   8.327  0.4877 -0.1760  0.1327
  823MOL0     C11002  -1.670  10.752   8.382 -0.4096 -0.3115 -0.2849
  823MOL0     C11003  -1.678  10.793   8.522  0.4398  0.1115  0.1234
  823MOL0     C11004  -1.795  10.848   8.569 -0.0225  0.2728  0.2834
  823MOL0     C11005  -1.912  10.847   8.486  1.4382  0.0719 -0.0267
  823MOL0     O11006  -2.021  10.899   8.544  0.1026  0.4403  0.7123
  823MOL0     C11007  -2.139  10.889   8.474 -0.0292 -0.1088 -0.5272
  823MOL0     C11008  -2.258  10.902   8.564  0.2963  0.4627  0.6299
  823MOL0     C11009  -2.257  11.021   8.658  0.4293 -0.8610 -0.1148
  823MOL0     C11010  -2.317  11.152   8.602 -0.1359  0.7350 -0.0477
  823MOL0     C11011  -2.294  11.271   8.687  0.1025  0.4493 -0.0957
  823MOL0     C11012  -2.145  11.328   8.690 -0.3490  0.6816 -0.0127
  823MOL0     C11013  -2.092  11.385   8.559 -0.2730 -0.0476 -0.2299
  823MOL0     C11014  -1.946  11.431   8.572 -0.4479 -0.1252 -0.4313
  823MOL0    Cl11015  -1.851  11.281   8.562 -0.2352  0.2011  0.2423
  823MOL0     C11016  -1.910  10.796   8.356 -0.1849 -1.5385  0.7194
  823MOL0     C11017  -1.785  10.759   8.309  0.5690  0.7649  0.1499
  823MOL0     O11018  -1.628  10.486   8.349  0.8897 -0.7259 -0.3586
  823MOL0     C11019  -1.359  10.625   8.164  0.0111 -0.0149  0.0982
  823MOL0     C11020  -1.269  10.593   8.063 -0.5512  0.0539  0.4737
  823MOL0     N11021  -0.771  10.395   7.549  0.3288  0.3602 -0.2697
  823MOL0     N11022  -0.689  10.488   7.507 -0.4744 -0.0630  0.1099
  823MOL0     C11023   0.309  10.456   6.897  0.3358  0.5588  0.4996
  823MOL0     C11024   0.374  10.353   6.831 -1.0071 -0.7856  0.4286
  823MOL0     C11025   0.655  10.212   6.520 -0.2358  0.1325 -0.2391
  823MOL0     C11026   0.613  10.210   6.395 -0.3281  0.4602  0.7324
  823MOL0     C11027   0.699  10.171   6.289  0.1135 -0.3263 -0.4469
  823MOL0     C11028   0.831  10.125   6.317 -0.0520  0.2948  0.1757
  823MOL0     O11029   0.920  10.085   6.218 -0.2029 -0.1002  0.1637
  823MOL0     C11030   0.883  10.093   6.078 -0.0561  0.5841 -0.9928
  823MOL0     C11031   0.996  10.072   5.976  0.9307  0.7360  0.0626
  823MOL0     C11032   0.941  10.059   5.833  0.7461  1.2374  0.2667
  823MOL0     C11033   1.054  10.038   5.722 -0.2496  0.8760 -0.4170
  823MOL0     C11034   1.144  10.149   5.728 -0.0380 -0.1999  0.5625
  823MOL0     C11035   1.204  10.256   5.739  0.2643 -0.5065 -0.0668
  823MOL0     C11036   0.869  10.128   6.450 -0.0139  0.0026 -1.6878
  823MOL0     C11037   0.784  10.169   6.550  0.1363  0.9684 -0.4009
  823MOL0     H11038   0.241  10.384   6.524 -2.1407  2.0998  0.6994
  823MOL0     H11039   0.074  10.499   6.653 -0.2957 -0.4158 -0.1830
  823MOL0     H11040   0.171  10.556   7.097 -2.0299  0.9289  1.4969
  823MOL0     H11041   0.233  10.698   7.010 -1.0102  0.9588 -0.3307
  823MOL0     H11042   0.092  10.783   7.185  0.0917 -0.4907  1.4411
  823MOL0     H11043   0.016  10.796   7.036  2.9661  0.1929 -1.1051
  823MOL0     H11044  -0.156  10.697   7.167 -2.0239 -2.0123  1.9839
  823MOL0     H11045  -0.094  10.572   7.071 -1.3934  2.5518 -1.0919
  823MOL0     H11046   0.017  10.460   7.234  0.8332  1.3017 -1.8258
  823MOL0     H11047   0.010  10.599   7.352  3.3498 -2.6797  0.1958
  823MOL0     H11048  -0.224  10.426   7.278 -0.5056  0.5758  0.4519
  823MOL0     H11049  -0.112  10.408   7.416  2.7453  0.4778 -1.2988
  823MOL0     H11050  -0.166  10.622   7.499  0.5664 -1.4754 -0.2525
  823MOL0     H11051  -0.291  10.653   7.365 -0.1912  1.0206  0.7418
  823MOL0     H11052  -0.401  10.428   7.452 -1.4439  0.3367  1.1106
  823MOL0     H11053  -0.305  10.443   7.590 -1.1793 -0.2207  1.3473
  823MOL0     H11054  -0.492  10.664   7.515 -0.3575  0.7466 -1.0015
  823MOL0     H11055  -0.429  10.618   7.681 -1.9128 -0.0024  0.2315
  823MOL0     H11056  -0.557  10.408   7.796  0.2857  1.0374  1.1177
  823MOL0     H11057  -0.798  10.141   7.722  0.0107 -0.8823  0.3399
  823MOL0     H11058  -0.689  10.202   7.846 -2.2827  1.8376  1.9620
  823MOL0     H11059  -0.852  10.382   7.892  0.2046  0.6966 -1.8710
  823MOL0     H11060  -0.926  10.215   7.920 -1.7121 -3.0087 -4.4204
  823MOL0     H11061  -1.014  10.235   7.689 -3.4361  0.4219  0.3681
  823MOL0     H11062  -0.985  10.411   7.696 -0.0599  0.1597 -0.2599
  823MOL0     H11063  -1.149  10.247   7.892 -3.1698  0.4667 -0.2500
  823MOL0     H11064  -1.222  10.328   7.755  0.2720  1.6169  0.1251
  823MOL0     H11065  -1.353  10.272   7.980 -0.9927 -0.7843  1.3035
  823MOL0     H11066  -1.525  10.194   8.123  1.0334 -1.3552  2.9169
  823MOL0     H11067  -1.497  10.248   8.276 -0.8071 -0.5849 -0.4420
  823MOL0     H11068  -1.637  10.313   8.185 -0.4415  0.3375 -1.1623
  823MOL0     H11069  -1.589  10.798   8.583  0.5141  0.3689 -0.0046
  823MOL0     H11070  -1.800  10.888   8.670 -0.3439  0.2658  0.2724
  823MOL0     H11071  -2.133  10.976   8.408 -2.5023  0.2911 -0.3191
  823MOL0     H11072  -2.146  10.794   8.420  0.2859  1.5021 -3.6211
  823MOL0     H11073  -2.348  10.908   8.502  1.7098  2.6354 -1.3606
  823MOL0     H11074  -2.266  10.813   8.628  0.1398 -0.6027 -0.8156
  823MOL0     H11075  -2.166  11.038   8.717  0.3327  1.5679 -0.5647
  823MOL0     H11076  -2.330  10.988   8.732  0.0382 -1.6725 -0.8387
  823MOL0     H11077  -2.278  11.162   8.500  0.2596  1.2008  0.1435
  823MOL0     H11078  -2.424  11.139   8.587  0.2169 -1.2184 -1.2734
  823MOL0     H11079  -2.325  11.244   8.788 -1.6874 -0.5275 -0.8573
  823MOL0     H11080  -2.360  11.347   8.643 -0.5991  1.0853  1.9222
  823MOL0     H11081  -2.131  11.409   8.762  0.3870  0.0396  0.5906
  823MOL0     H11082  -2.079  11.242   8.708 -0.3850  0.2632 -1.7092
  823MOL0     H11083  -2.153  11.470   8.527  0.8374  1.2435  0.9955
  823MOL0     H11084  -2.102  11.316   8.474 -2.2694  1.8858 -1.6863
  823MOL0     H11085  -1.930  11.491   8.662  2.0364  0.4879 -1.2206
  823MOL0     H11086  -1.924  11.503   8.493 -1.9930  1.8248  0.8126
  823MOL0     H11087  -1.993  10.784   8.289  1.0959 -2.6995 -0.7322
  823MOL0     H11088  -1.774  10.719   8.208  0.0288 -3.1549  1.4575
  823MOL0     H11089  -1.345  10.725   8.204  5.9424 -0.5725  0.4133
  823MOL0     H11090  -1.199  10.665   8.021 -1.7349  0.5207 -0.7877
  823MOL0     H11091   0.338  10.476   7.000 -1.1556 -0.5685  1.1771
  823MOL0     H11092   0.460  10.297   6.867  2.2256  2.0284 -2.1542
  823MOL0     H11093   0.514  10.251   6.374 -0.5529 -0.3423  0.1816
  823MOL0     H11094   0.664  10.174   6.186  1.1538 -2.0431 -0.8822
  823MOL0     H11095   0.801  10.025   6.050 -1.6803  1.5381  1.1390
  823MOL0     H11096   0.836  10.189   6.056 -0.3669  1.4561  2.8188
  823MOL0     H11097   1.058   9.984   5.996  1.7279  1.1480 -0.5253
  823MOL0     H11098   1.069  10.154   5.984  1.1881  0.4959  0.2034
  823MOL0     H11099   0.884  10.148   5.804 -0.6097  0.3899  0.2754
  823MOL0     H11100   0.880   9.968   5.836 -0.3897  2.0073  1.4212
  823MOL0     H11101   1.000  10.051   5.628 -0.2266  0.4838 -0.4844
  823MOL0     H11102   1.102   9.940   5.719  0.7688  1.1046  3.4336
  823MOL0     H11103   1.243  10.354   5.760 -0.1363 -0.9543  3.3762
  823MOL0     H11104   0.971  10.109   6.481 -0.6794  1.4993  1.9850
  823MOL0     H11105   0.827  10.201   6.645 -0.0424 -0.3133  0.1340
  824MOL0     O11106   4.131   4.862   5.479  0.1511 -0.5239 -0.2435
  824MOL0     C11107   4.163   4.805   5.581  0.1133  0.3392 -0.5673
  824MOL0     O11108   4.292   4.768   5.621  0.6247 -0.3633 -0.5299
  824MOL0     C11109   4.396   4.806   5.541 -0.3597 -0.2079  0.3057
  824MOL0     C11110   4.496   4.715   5.511  0.5225  0.3352 -0.0730
  824MOL0     C11111   4.609   4.756   5.441  0.3082 -0.2822  0.2423
  824MOL0     C11112   4.628   4.886   5.404  0.0844  0.2493  0.5062
  824MOL0     O11113   4.738   4.911   5.327  0.5047  0.1453  0.1085
  824MOL0     C11114   4.728   5.022   5.240 -0.8698 -1.1854  0.6762
  824MOL0     C11115   4.839   5.002   5.126  0.7468 -0.0866 -0.2031
  824MOL0     C11116   4.831   4.863   5.062  0.9553 -0.8357 -0.2240
  824MOL0     C11117   4.774   4.879   4.922  0.1965 -0.3102  0.0814
  824MOL0     C11118   4.622   4.853   4.932 -0.7561 -0.0690  0.4056
  824MOL0     C11119   4.557   4.860   4.789  0.3186  0.9405 -0.2356
  824MOL0     C11120   4.406   4.868   4.806  0.4583  0.3492 -0.3982
  824MOL0     C11121   4.355   4.879   4.662  0.6411 -0.9238 -0.2489
  824MOL0     N11122   4.207   4.895   4.663  0.6766  0.2814  0.1171
  824MOL0     C11123   4.135   4.968   4.756  0.0615  0.0320 -0.1802
  824MOL0     C11124   4.012   4.963   4.708 -1.0792 -0.3706  0.7318
  824MOL0     C11125   3.883   5.010   4.771  0.3310  0.0506  0.4474
  824MOL0     C11126   3.863   5.162   4.764 -0.6574 -0.1858 -0.4242
  824MOL0     C11127   3.750   5.194   4.864  0.6289 -0.5947 -0.6712
  824MOL0     C11128   3.686   5.340   4.866  0.6088  0.0346  0.3074
  824MOL0     O11129   3.609   5.358   4.747  0.1263 -0.4312 -0.1918
  824MOL0     C11130   3.509   5.453   4.741  0.1336  0.8752  0.5289
  824MOL0     C11131   3.446   5.453   4.620  0.7980 -0.2016  0.1761
  824MOL0     C11132   3.343   5.550   4.603  0.3936  0.8841  0.3156
  824MOL0     C11133   3.256   5.521   4.490  0.1799 -0.5991 -0.3028
  824MOL0     C11134   3.323   5.664   4.691 -0.2801  0.2330 -0.1238
  824MOL0     C11135   3.224   5.770   4.679 -0.4993 -0.0831 -0.3497
  824MOL0     O11136   3.178   5.824   4.795  0.0707 -0.1164 -0.0580
  824MOL0     C11137   3.088   5.926   4.782  0.1851 -0.5212  0.6530
  824MOL0     C11138   2.957   5.896   4.744  0.2700  0.2345  0.3472
  824MOL0     C11139   2.857   5.992   4.732  0.5208  0.6464  0.6688
  824MOL0     C11140   2.890   6.128   4.757  0.6490  0.1914  1.2070
  824MOL0     O11141   2.787   6.220   4.763  0.2792  0.2257  0.2454
  824MOL0     C11142   2.772   6.279   4.892  0.5457  0.7944  0.3869
  824MOL0     C11143   2.641   6.361   4.881  0.0076 -1.2140 -0.3826
  824MOL0     C11144   2.651   6.481   4.782  0.0123 -0.3505 -0.2650
  824MOL0     C11145   2.512   6.549   4.748 -0.2961  0.9472 -1.3494
  824MOL0     C11146   2.424   6.453   4.662  0.1079 -0.4239 -0.2938
  824MOL0     C11147   2.293   6.513   4.597  0.0268 -0.1348  0.7590
  824MOL0     C11148   2.208   6.600   4.688  0.3830 -0.1480  0.1326
  824MOL0     C11149   2.068   6.633   4.640 -0.0454 -0.0662  1.1572
  824MOL0    Cl11150   1.956   6.683   4.779 -0.2512 -0.0627  0.3919
  824MOL0     C11151   3.015   6.162   4.789 -0.3226  0.6059 -0.5457
  824MOL0     C11152   3.113   6.060   4.813  0.2237 -0.7653 -0.0507
  824MOL0     O11153   3.186   5.802   4.565 -0.6112  0.1935 -0.5584
  824MOL0     C11154   3.391   5.655   4.813 -0.4248 -0.4430 -0.0607
  824MOL0     C11155   3.482   5.550   4.843 -0.5105 -0.6970  0.4561
  824MOL0     N11156   4.003   4.881   4.597 -1.1979  0.1507  0.3965
  824MOL0     N11157   4.123   4.834   4.565 -0.0263 -0.7485 -0.1346
  824MOL0     C11158   4.530   4.984   5.446 -0.0650 -0.6611 -0.4108
  824MOL0     C11159   4.419   4.944   5.518 -0.4099 -0.5552  0.0912
  824MOL0     C11160   4.057   4.771   5.682  1.0219 -0.0832 -0.4715
  824MOL0     C11161   4.077   4.706   5.801  0.4251 -0.4137 -0.1464
  824MOL0     C11162   3.972   4.652   5.880  0.5035 -0.3444  0.1544
  824MOL0     C11163   3.846   4.666   5.843 -0.0065 -0.4655  0.2388
  824MOL0     O11164   3.744   4.636   5.936  0.5669  0.8588 -0.1279
  824MOL0     C11165   3.628   4.581   5.872  0.5034  0.4548  0.0914
  824MOL0     C11166   3.560   4.469   5.953  0.0814 -0.5182  0.1570
  824MOL0     C11167   3.434   4.406   5.889  0.2410  0.0695  0.0022
  824MOL0     C11168   3.354   4.322   5.990  0.1179  0.2029  0.5332
  824MOL0     C11169   3.436   4.215   6.053  0.3469 -0.6052  0.2929
  824MOL0     C11170   3.491   4.116   6.103 -0.0582 -0.5504  0.2662
  824MOL0     C11171   3.819   4.742   5.727  0.7599 -0.4123  0.4518
  824MOL0     C11172   3.921   4.798   5.651 -0.5952 -0.1688  0.3705
  824MOL0     H11173   4.485   4.614   5.551  4.0234 -0.2417 -0.2424
  824MOL0     H11174   4.681   4.681   5.408 -1.6572 -2.8827  1.4183
  824MOL0     H11175   4.633   5.026   5.185 -0.4266  2.6203 -0.0555
  824MOL0     H11176   4.747   5.114   5.295  1.5761 -0.1150 -1.6928
  824MOL0     H11177   4.826   5.080   5.050 -0.8999 -1.0322 -0.9290
  824MOL0     H11178   4.936   5.013   5.176 -0.0742 -2.0275  1.9588
  824MOL0     H11179   4.935   4.829   5.056  0.2233 -3.1657 -0.9199
  824MOL0     H11180   4.778   4.785   5.118  3.1906 -1.3790  1.2883
  824MOL0     H11181   4.806   4.968   4.867  1.4149 -1.5685 -1.3211
  824MOL0     H11182   4.801   4.791   4.863 -0.0581  0.5521 -1.3693
  824MOL0     H11183   4.600   4.760   4.985  0.2351 -0.6423 -0.1473
  824MOL0     H11184   4.579   4.933   4.993  1.9833  0.7173  1.4949
  824MOL0     H11185   4.597   4.943   4.730  1.1400  1.2273  0.6825
  824MOL0     H11186   4.583   4.761   4.750 -1.8970  0.4626 -0.6028
  824MOL0     H11187   4.371   4.777   4.854 -0.1023 -1.3294 -3.6659
  824MOL0     H11188   4.376   4.958   4.860  1.6251  0.8534 -0.5491
  824MOL0     H11189   4.377   4.785   4.610 -0.2779 -0.7267 -1.0153
  824MOL0     H11190   4.396   4.968   4.614 -0.4035 -0.2217  0.1225
  824MOL0     H11191   4.164   5.011   4.851  0.9565 -0.2457 -0.3163
  824MOL0     H11192   3.804   4.962   4.714  3.3041  1.4695 -5.8130
  824MOL0     H11193   3.889   4.984   4.877 -0.3574 -1.6397  0.0913
  824MOL0     H11194   3.842   5.204   4.665 -0.9921 -2.8984 -1.5854
  824MOL0     H11195   3.956   5.214   4.790 -0.7690  0.3807 -1.0895
  824MOL0     H11196   3.782   5.174   4.967 -0.2924 -0.5841 -0.3713
  824MOL0     H11197   3.669   5.122   4.846 -0.7936  1.0112 -0.9150
  824MOL0     H11198   3.760   5.421   4.870  1.3164 -0.2290 -3.4849
  824MOL0     H11199   3.624   5.339   4.956  0.4523  1.5811  0.2480
  824MOL0     H11200   3.456   5.375   4.545 -0.6061  0.8834 -1.2189
  824MOL0     H11201   3.231   5.415   4.505 -0.4824 -0.2016  1.7246
  824MOL0     H11202   3.164   5.580   4.504  0.2668 -1.0039  2.7085
  824MOL0     H11203   3.287   5.545   4.388 -1.7731  3.5039 -0.1361
  824MOL0     H11204   2.939   5.790   4.725  1.2895 -0.0989  1.1134
  824MOL0     H11205   2.758   5.960   4.699  0.5186  2.2122 -1.0429
  824MOL0     H11206   2.754   6.202   4.967  0.4553  0.7916  0.3614
  824MOL0     H11207   2.861   6.333   4.926  1.0476  0.4581 -0.3677
  824MOL0     H11208   2.562   6.289   4.857  1.1432 -2.5507 -0.2037
  824MOL0     H11209   2.615   6.413   4.973  0.3929  1.7489 -1.8102
  824MOL0     H11210   2.693   6.447   4.687  0.8248 -1.5544  0.4953
  824MOL0     H11211   2.719   6.553   4.827  1.4532 -0.6479 -1.8850
  824MOL0     H11212   2.469   6.585   4.841  1.4282 -0.3034 -0.0051
  824MOL0     H11213   2.535   6.639   4.690  1.6697  0.8390 -0.8191
  824MOL0     H11214   2.395   6.364   4.718  0.7409  0.1865  1.0459
  824MOL0     H11215   2.485   6.429   4.574  0.3200  2.2475 -0.9719
  824MOL0     H11216   2.323   6.576   4.513 -0.2213  0.4518  1.1009
  824MOL0     H11217   2.221   6.435   4.572 -3.6830  2.5975  2.0037
  824MOL0     H11218   2.265   6.691   4.708  3.1066 -0.8814 -3.2339
  824MOL0     H11219   2.196   6.552   4.785  0.9296 -0.4596  0.0485
  824MOL0     H11220   2.009   6.559   4.584 -2.9129  2.4032  0.7115
  824MOL0     H11221   2.068   6.719   4.572 -2.1257 -0.1385  1.0013
  824MOL0     H11222   3.041   6.266   4.805  3.6292 -0.4676  1.0904
  824MOL0     H11223   3.209   6.094   4.851  1.2916 -0.6476 -2.6604
  824MOL0     H11224   3.373   5.721   4.897  2.3514 -0.5523  0.6913
  824MOL0     H11225   3.536   5.542   4.937  0.6323  1.6973  0.0729
  824MOL0     H11226   4.556   5.087   5.425  0.6713 -0.6839  0.3336
  824MOL0     H11227   4.359   5.024   5.560  0.5507  0.9460 -1.2951
  824MOL0     H11228   4.177   4.675   5.830  0.7236 -1.2493 -1.9514
  824MOL0     H11229   4.000   4.607   5.974 -0.6188 -1.0514  0.1689
  824MOL0     H11230   3.554   4.661   5.871  0.8416  0.7653 -0.4742
  824MOL0     H11231   3.650   4.538   5.774 -0.0728  0.6427 -0.1207
  824MOL0     H11232   3.541   4.514   6.050  1.8915  1.1954 -0.2206
  824MOL0     H11233   3.644   4.399   5.962  1.3952  1.2932  4.4612
  824MOL0     H11234   3.472   4.344   5.807  1.6272  2.4250 -1.2428
  824MOL0     H11235   3.372   4.483   5.841 -1.1704 -1.1641 -0.2302
  824MOL0     H11236   3.272   4.270   5.939  1.3521 -2.8049  1.4056
  824MOL0     H11237   3.304   4.384   6.065 -1.4302 -1.1218  0.6397
  824MOL0     H11238   3.533   4.029   6.149  0.1853 -0.0833  0.9451
  824MOL0     H11239   3.715   4.767   5.706  0.9983 -0.4031 -0.7831
  824MOL0     H11240   3.900   4.846   5.556 -1.3174 -0.3441  0.4383
  825MOL0     O11241   6.532   9.818   5.444  1.2829 -0.1037 -0.1053
  825MOL0     C11242   6.462   9.765   5.359 -0.9456  0.4549  0.0691
  825MOL0     O11243   6.497   9.756   5.233 -0.6108  0.4160 -0.2253
  825MOL0     C11244   6.596   9.827   5.175  0.0209 -0.7419  0.4132
  825MOL0     C11245   6.683   9.926   5.235  0.3885 -1.4092 -0.0531
  825MOL0     C11246   6.784   9.980   5.153 -0.2047  0.6536 -0.0823
  825MOL0     C11247   6.807   9.939   5.016 -0.1399  1.3203  0.0640
  825MOL0     O11248   6.928   9.976   4.962 -1.2407  0.7017 -0.6998
  825MOL0     C11249   6.955   9.950   4.822 -0.4829  0.5241  0.6586
  825MOL0     C11250   7.102  10.007   4.800 -0.4132 -0.0110  0.2986
  825MOL0     C11251   7.103  10.157   4.837 -0.4302  0.9189  0.2253
  825MOL0     C11252   7.231  10.230   4.826  0.1467 -0.0231  0.2419
  825MOL0     C11253   7.275  10.263   4.685  0.7711 -0.1046 -0.2205
  825MOL0     C11254   7.393  10.358   4.675  0.0308 -0.2738 -0.0936
  825MOL0     C11255   7.437  10.403   4.526  0.3672 -1.2173 -0.2560
  825MOL0     C11256   7.575  10.457   4.546 -0.2234 -1.0275  0.4325
  825MOL0     N11257   7.609  10.531   4.418 -0.0431  0.3817 -0.1653
  825MOL0     C11258   7.606  10.666   4.397 -0.0816  1.0248  0.2269
  825MOL0     C11259   7.613  10.679   4.266 -0.3986 -1.1561  0.6530
  825MOL0     C11260   7.599  10.819   4.203  0.0032  0.0209 -0.0045
  825MOL0     C11261   7.735  10.880   4.205 -0.6118 -0.6099  0.5268
  825MOL0     C11262   7.777  10.958   4.076  0.7548 -0.4695  0.1209
  825MOL0     C11263   7.686  11.081   4.070  0.1540  0.2284 -1.1541
  825MOL0     O11264   7.709  11.150   3.953 -0.4448 -0.1267  0.3745
  825MOL0     C11265   7.672  11.282   3.942  0.0386 -0.1458 -0.2739
  825MOL0     C11266   7.764  11.381   3.968  0.1724 -0.2494  0.2737
  825MOL0     C11267   7.733  11.522   3.988 -0.9492  0.9113 -0.0159
  825MOL0     C11268   7.851  11.612   4.023 -0.2415 -0.5756 -0.3359
  825MOL0     C11269   7.596  11.561   3.995  0.8615  0.5761 -0.1064
  825MOL0     C11270   7.554  11.698   4.022  0.8638  0.2491 -0.2508
  825MOL0     O11271   7.457  11.708   4.116 -0.5101  0.0846  0.2801
  825MOL0     C11272   7.418  11.828   4.161 -0.0922 -0.2220 -0.6763
  825MOL0     C11273   7.289  11.882   4.143 -0.1721  0.6002 -0.8856
  825MOL0     C11274   7.250  11.985   4.213 -0.1324 -0.0581 -0.9978
  825MOL0     C11275   7.344  12.062   4.288  0.3383  0.5770 -0.1438
  825MOL0     O11276   7.306  12.183   4.349  0.1209  0.6896  0.2766
  825MOL0     C11277   7.376  12.294   4.296  0.6034 -0.1277 -0.2245
  825MOL0     C11278   7.329  12.330   4.155 -0.5990  0.0064  0.8119
  825MOL0     C11279   7.419  12.442   4.095 -0.2669 -0.0177 -0.5110
  825MOL0     C11280   7.418  12.450   3.947 -0.2205 -0.5316  0.1143
  825MOL0     C11281   7.484  12.572   3.883  0.1710 -0.5814 -0.8023
  825MOL0     C11282   7.631  12.569   3.893  0.6374  0.2806  0.2350
  825MOL0     C11283   7.674  12.702   3.846  0.4106 -0.9179 -0.2218
  825MOL0     C11284   7.824  12.712   3.855 -0.4753  0.0794  0.0036
  825MOL0    Cl11285   7.872  12.869   3.809  0.2574  0.2691  0.6313
  825MOL0     C11286   7.478  12.017   4.299 -0.9183 -0.9290  0.1565
  825MOL0     C11287   7.513  11.894   4.240  0.5382  0.3003 -0.2382
  825MOL0     O11288   7.616  11.792   3.969  0.4548  0.6013 -0.3586
  825MOL0     C11289   7.501  11.455   3.967 -0.3495  0.3601  0.2283
  825MOL0     C11290   7.539  11.323   3.947 -0.2522  0.1820 -0.5643
  825MOL0     N11291   7.616  10.560   4.207  0.1038 -0.0498  1.0889
  825MOL0     N11292   7.628  10.467   4.298 -0.0770 -0.4718 -0.3999
  825MOL0     C11293   6.712   9.850   4.959  0.1655  0.5374 -0.2491
  825MOL0     C11294   6.614   9.793   5.040  0.2911  0.2510 -0.1465
  825MOL0     C11295   6.332   9.707   5.404  0.2160 -1.0536  0.0178
  825MOL0     C11296   6.289   9.715   5.533  0.5592 -0.3513  0.4007
  825MOL0     C11297   6.162   9.680   5.578 -0.1481  0.5016 -0.4676
  825MOL0     C11298   6.065   9.629   5.492  0.2319 -0.0946  0.2195
  825MOL0     O11299   5.941   9.586   5.523  0.3163 -0.3722  0.2125
  825MOL0     C11300   5.912   9.539   5.657 -0.2398 -0.2280 -0.5581
  825MOL0     C11301   5.877   9.656   5.752  0.0039 -0.7868 -0.2587
  825MOL0     C11302   5.730   9.672   5.786  1.4893 -0.0887  0.1999
  825MOL0     C11303   5.684   9.798   5.850 -0.6156  0.1585  0.6567
  825MOL0     C11304   5.712   9.789   5.996  0.0015  0.2264  0.9531
  825MOL0     C11305   5.724   9.778   6.114  0.3429  0.3379 -0.3755
  825MOL0     C11306   6.102   9.624   5.353  0.5468  0.0438 -0.3363
  825MOL0     C11307   6.234   9.660   5.314  1.1825  0.1298  0.4273
  825MOL0     H11308   6.670   9.965   5.336 -0.5024 -1.5391 -0.1120
  825MOL0     H11309   6.846  10.057   5.198 -1.5274  2.4452 -1.1816
  825MOL0     H11310   6.944   9.844   4.799 -1.1055  0.7863 -0.2920
  825MOL0     H11311   6.895  10.011   4.754 -0.8798  1.9162  2.1984
  825MOL0     H11312   7.172   9.940   4.852 -1.3678 -0.8467  0.5396
  825MOL0     H11313   7.133   9.995   4.696 -0.7005  1.1272  0.0690
  825MOL0     H11314   7.027  10.205   4.775 -1.3240  1.1959  1.4846
  825MOL0     H11315   7.067  10.174   4.939 -0.5123  2.0975  0.0128
  825MOL0     H11316   7.234  10.331   4.868  2.5567 -0.5686  1.6010
  825MOL0     H11317   7.311  10.174   4.877 -0.6693 -2.2638 -0.8376
  825MOL0     H11318   7.305  10.175   4.627 -1.5348  0.7405 -2.8729
  825MOL0     H11319   7.186  10.311   4.645 -0.8409 -3.1588 -0.5750
  825MOL0     H11320   7.366  10.450   4.729  2.8536  0.7974 -0.3527
  825MOL0     H11321   7.480  10.305   4.712  0.9332  1.2657  0.0822
  825MOL0     H11322   7.426  10.322   4.453 -2.6861  1.2511 -2.8445
  825MOL0     H11323   7.380  10.493   4.499 -1.4408 -1.5333  2.1767
  825MOL0     H11324   7.647  10.384   4.583  1.2285  0.7638  1.2787
  825MOL0     H11325   7.578  10.541   4.616  0.5807 -1.4805  0.9553
  825MOL0     H11326   7.583  10.741   4.472  2.0750 -0.1514  2.1956
  825MOL0     H11327   7.552  10.809   4.105 -1.6004 -2.8066  0.9506
  825MOL0     H11328   7.541  10.887   4.265  0.3690  2.2338 -1.9528
  825MOL0     H11329   7.814  10.807   4.222 -0.5956 -0.8803 -0.5898
  825MOL0     H11330   7.744  10.944   4.293 -0.6453 -2.6964  2.1184
  825MOL0     H11331   7.773  10.903   3.982  0.3564  0.8797 -0.6782
  825MOL0     H11332   7.880  10.992   4.094  0.8420 -1.0360  0.7531
  825MOL0     H11333   7.715  11.144   4.155  0.9707  0.0117 -1.2628
  825MOL0     H11334   7.580  11.055   4.079  0.5361 -0.9621  0.3173
  825MOL0     H11335   7.863  11.336   3.978  0.8527  1.6722  3.3651
  825MOL0     H11336   7.866  11.701   3.961 -0.4348 -0.0746  0.3342
  825MOL0     H11337   7.840  11.633   4.129 -1.3057  1.8859 -0.8502
  825MOL0     H11338   7.946  11.557   4.012  1.3063  1.6846  0.9156
  825MOL0     H11339   7.215  11.815   4.101 -0.9800 -1.5962  3.4951
  825MOL0     H11340   7.146  12.013   4.229  0.5868  1.6939  1.1179
  825MOL0     H11341   7.352  12.383   4.354  1.6379 -1.6116  2.7202
  825MOL0     H11342   7.486  12.297   4.295  0.7338 -0.3668 -4.6187
  825MOL0     H11343   7.338  12.240   4.094  1.1889  0.9638 -0.4327
  825MOL0     H11344   7.227  12.371   4.155  0.2562  2.2769 -0.1467
  825MOL0     H11345   7.522  12.429   4.129 -0.5164 -0.5984  0.0443
  825MOL0     H11346   7.391  12.539   4.136  2.5260  0.2471  1.0262
  825MOL0     H11347   7.463  12.357   3.912 -1.6150 -1.2393  0.1347
  825MOL0     H11348   7.314  12.437   3.913 -0.2968 -0.3804  0.2866
  825MOL0     H11349   7.434  12.659   3.925  1.3895 -1.3361  2.5508
  825MOL0     H11350   7.466  12.574   3.776 -1.0931  0.6953 -0.5904
  825MOL0     H11351   7.668  12.548   3.994  1.4488  1.5156  0.2156
  825MOL0     H11352   7.674  12.492   3.827  1.8538  2.3187 -1.4640
  825MOL0     H11353   7.622  12.778   3.905 -0.1053 -0.1417 -1.6332
  825MOL0     H11354   7.647  12.709   3.740 -0.2290  0.3819 -0.0003
  825MOL0     H11355   7.859  12.643   3.778 -3.0724 -1.9871  0.5319
  825MOL0     H11356   7.863  12.693   3.955 -3.3416  0.3883  1.2526
  825MOL0     H11357   7.543  12.092   4.344  0.2348 -1.9910  0.2999
  825MOL0     H11358   7.616  11.861   4.246  1.5940  3.4882  2.7601
  825MOL0     H11359   7.396  11.484   3.969 -0.6499 -0.6109 -0.4864
  825MOL0     H11360   7.456  11.254   3.936 -0.3040  0.2026 -0.3080
  825MOL0     H11361   6.726   9.822   4.856 -0.0455 -2.5431  0.4769
  825MOL0     H11362   6.547   9.719   4.998  1.5452  0.1166 -2.0077
  825MOL0     H11363   6.362   9.747   5.608  0.6998  2.4740 -0.8249
  825MOL0     H11364   6.149   9.686   5.685 -1.6027 -1.2389 -0.5023
  825MOL0     H11365   5.832   9.465   5.664  0.7917 -1.3675 -0.4194
  825MOL0     H11366   5.998   9.484   5.696 -0.3835  1.8210  3.1552
  825MOL0     H11367   5.921   9.751   5.721  1.8721 -1.4629  0.1366
  825MOL0     H11368   5.928   9.623   5.843 -0.0038 -0.9744 -0.3205
  825MOL0     H11369   5.687   9.594   5.849 -1.0224  0.2616 -0.9300
  825MOL0     H11370   5.682   9.658   5.688  3.7077 -0.2110 -0.9323
  825MOL0     H11371   5.576   9.810   5.837 -0.2710  1.9277 -1.0039
  825MOL0     H11372   5.740   9.888   5.822  0.4990  0.7467  4.1840
  825MOL0     H11373   5.732   9.786   6.221 -2.6053  0.2212 -0.0540
  825MOL0     H11374   6.033   9.571   5.288  1.7317 -0.9405 -0.8510
  825MOL0     H11375   6.260   9.648   5.209 -2.4920  1.3591 -0.7834
  826MOL0     O11376   8.124   1.028  10.042 -0.1196  0.2313 -0.5393
  826MOL0     C11377   8.224   1.096  10.025 -0.0420  0.8951  0.1851
  826MOL0     O11378   8.223   1.231  10.034  0.6452  0.3410  0.3998
  826MOL0     C11379   8.098   1.285  10.054  0.9260 -0.4736  0.5643
  826MOL0     C11380   8.078   1.344  10.181 -0.2565 -0.4264  0.0894
  826MOL0     C11381   7.953   1.399  10.207 -0.4181  0.2660  0.3781
  826MOL0     C11382   7.856   1.424  10.102  0.4268 -0.7008 -0.7951
  826MOL0     O11383   7.749   1.507  10.140 -0.4496  0.0995  0.2614
  826MOL0     C11384   7.656   1.559  10.038  0.3445  0.1026  0.2182
  826MOL0     C11385   7.536   1.467  10.040  0.2260 -0.1925  0.6545
  826MOL0     C11386   7.448   1.476   9.909  0.1260 -0.1605 -1.0506
  826MOL0     C11387   7.296   1.478   9.947 -0.6262  0.5603 -0.7741
  826MOL0     C11388   7.198   1.531   9.847 -0.1697  0.4141 -0.7017
  826MOL0     C11389   7.061   1.537   9.915  0.5129  0.2337  0.2441
  826MOL0     C11390   6.964   1.621   9.824  0.0237  0.2972  0.2844
  826MOL0     C11391   6.944   1.568   9.680 -0.1601 -0.1077  0.9819
  826MOL0     N11392   6.836   1.636   9.608 -0.3511  0.1949  0.2857
  826MOL0     C11393   6.711   1.657   9.652 -0.0751  0.3206  1.0712
  826MOL0     C11394   6.636   1.698   9.543  0.4099  0.2305  0.3908
  826MOL0     C11395   6.483   1.687   9.549  0.3354  0.9759 -0.7463
  826MOL0     C11396   6.434   1.815   9.620 -0.0396 -0.6320  0.0955
  826MOL0     C11397   6.415   1.917   9.501 -0.1408 -0.1442 -0.5070
  826MOL0     C11398   6.386   2.060   9.541  0.2713  0.2126 -0.5536
  826MOL0     O11399   6.282   2.074   9.638 -0.3954  0.1687  0.0537
  826MOL0     C11400   6.156   2.017   9.613  0.4106  0.1754 -0.2968
  826MOL0     C11401   6.055   2.042   9.715 -0.3832 -0.2442 -0.4200
  826MOL0     C11402   5.921   2.004   9.712  0.2182  0.0490 -0.4847
  826MOL0     C11403   5.840   2.032   9.837 -0.4596 -0.4034 -0.7889
  826MOL0     C11404   5.875   1.936   9.594 -0.2073  0.5819 -0.0914
  826MOL0     C11405   5.744   1.874   9.586  0.3883 -0.1321 -0.2142
  826MOL0     O11406   5.718   1.809   9.471  0.2794 -0.0959 -0.2736
  826MOL0     C11407   5.597   1.748   9.461  0.6811  1.0019  0.3467
  826MOL0     C11408   5.492   1.812   9.399  0.4321 -0.1397  0.5834
  826MOL0     C11409   5.363   1.767   9.409 -0.0855  0.2913 -0.2696
  826MOL0     C11410   5.326   1.661   9.499 -0.2290 -0.4060 -0.6099
  826MOL0     O11411   5.196   1.615   9.531 -0.1022  0.0819  0.6491
  826MOL0     C11412   5.092   1.637   9.438  0.6404  0.0521  0.9941
  826MOL0     C11413   4.971   1.556   9.485  0.1342  0.4260 -0.7836
  826MOL0     C11414   4.833   1.600   9.439 -0.5456 -1.0708  0.4317
  826MOL0     C11415   4.733   1.494   9.496 -0.2538 -0.4223  0.2026
  826MOL0     C11416   4.592   1.521   9.432  0.4350 -0.5922  0.8208
  826MOL0     C11417   4.476   1.422   9.466  0.7544  0.4079  0.3125
  826MOL0     C11418   4.440   1.443   9.611  0.5125  0.2816  0.3637
  826MOL0     C11419   4.332   1.349   9.665 -1.1086 -0.0674 -0.5862
  826MOL0    Cl11420   4.170   1.377   9.587 -0.3162  0.4902  0.1331
  826MOL0     C11421   5.437   1.598   9.555 -0.2303  0.2794  0.2552
  826MOL0     C11422   5.567   1.640   9.537  0.9492  1.0147 -0.1331
  826MOL0     O11423   5.660   1.897   9.676 -0.2144  0.4850  0.2356
  826MOL0     C11424   5.965   1.919   9.485  0.6116 -0.0268  0.5053
  826MOL0     C11425   6.095   1.969   9.492 -0.6281  0.5401 -1.0330
  826MOL0     N11426   6.717   1.718   9.441  0.1764 -0.7929  0.0114
  826MOL0     N11427   6.830   1.669   9.469 -0.3293 -0.4947 -0.9291
  826MOL0     C11428   7.874   1.365   9.976  1.1363 -0.5664 -0.6116
  826MOL0     C11429   7.997   1.297   9.946  0.5886  0.4145 -0.1708
  826MOL0     C11430   8.360   1.024  10.021 -0.0858  0.2292  0.3561
  826MOL0     C11431   8.480   1.092   9.985  0.3954  0.3224  0.5931
  826MOL0     C11432   8.599   1.026   9.974  0.0907 -0.8314 -0.2661
  826MOL0     C11433   8.604   0.886  10.002 -0.3169 -0.6071 -1.0209
  826MOL0     O11434   8.716   0.806   9.988 -0.2114 -0.2695 -0.0808
  826MOL0     C11435   8.837   0.838   9.917  0.6907 -0.8108 -0.5349
  826MOL0     C11436   8.869   0.750   9.793 -0.4003 -0.6456 -1.0685
  826MOL0     C11437   9.014   0.726   9.765 -0.9223  0.1521  0.2487
  826MOL0     C11438   9.083   0.857   9.703  0.4533  0.8541 -0.3539
  826MOL0     C11439   9.019   0.888   9.576  0.5079  0.1578  0.5925
  826MOL0     C11440   8.970   0.917   9.476 -0.1430 -0.7313 -0.4394
  826MOL0     C11441   8.493   0.824  10.052  0.7409 -0.1785 -0.6230
  826MOL0     C11442   8.365   0.886  10.059 -0.4433 -0.5498  1.2867
  826MOL0     H11443   8.155   1.355  10.257  1.5438  0.5594 -1.7701
  826MOL0     H11444   7.952   1.436  10.309  1.9463 -0.4653  0.7162
  826MOL0     H11445   7.637   1.663  10.065  0.0246  0.6114 -1.7708
  826MOL0     H11446   7.696   1.559   9.936  0.2351 -2.2590  0.1188
  826MOL0     H11447   7.566   1.362  10.051  0.1091 -0.1964  0.9509
  826MOL0     H11448   7.477   1.489  10.129  0.9169 -0.4296  1.1804
  826MOL0     H11449   7.476   1.565   9.852  2.3736 -1.1275 -1.5771
  826MOL0     H11450   7.460   1.389   9.844  0.0859 -1.7748  1.0251
  826MOL0     H11451   7.265   1.373   9.954  2.7180 -0.4967  0.2492
  826MOL0     H11452   7.287   1.532  10.041  0.4071  0.4477 -0.5931
  826MOL0     H11453   7.240   1.629   9.820  2.0354 -0.3414 -0.2156
  826MOL0     H11454   7.203   1.458   9.765  0.0007 -1.2310  0.7348
  826MOL0     H11455   7.020   1.436   9.924  2.4110 -0.9928 -2.9811
  826MOL0     H11456   7.064   1.589  10.011 -1.6161 -1.7864  1.5058
  826MOL0     H11457   6.873   1.623   9.885  1.3114 -1.7110  2.4903
  826MOL0     H11458   7.008   1.721   9.818 -1.4214  0.8606 -3.0089
  826MOL0     H11459   6.919   1.461   9.680  1.0860 -0.5738 -3.4427
  826MOL0     H11460   7.034   1.581   9.619 -1.3308 -1.3231 -1.1347
  826MOL0     H11461   6.667   1.613   9.741  1.7039 -5.0068 -0.3502
  826MOL0     H11462   6.433   1.666   9.453 -1.5620 -0.3944  0.4614
  826MOL0     H11463   6.453   1.607   9.617 -1.0499 -0.0051 -2.4082
  826MOL0     H11464   6.507   1.851   9.693 -0.9867  0.7950  0.3959
  826MOL0     H11465   6.344   1.789   9.676  1.9976 -3.9928  2.1224
  826MOL0     H11466   6.330   1.878   9.445 -0.1387 -4.2017  1.8994
  826MOL0     H11467   6.504   1.918   9.437 -0.4008  0.1284 -0.8718
  826MOL0     H11468   6.350   2.128   9.463 -1.0145 -2.4165 -2.4016
  826MOL0     H11469   6.479   2.092   9.590  0.1364 -1.3969  0.8336
  826MOL0     H11470   6.091   2.086   9.807 -0.4328  0.1969 -0.6114
  826MOL0     H11471   5.897   2.087   9.914 -0.9321 -0.6424 -0.2634
  826MOL0     H11472   5.736   2.065   9.835 -0.9167 -0.5809  4.4846
  826MOL0     H11473   5.829   1.934   9.884 -0.0534  0.6731  1.7570
  826MOL0     H11474   5.494   1.895   9.330 -2.6285  1.6529  2.4144
  826MOL0     H11475   5.273   1.811   9.366  0.7298  0.5110 -1.8238
  826MOL0     H11476   5.069   1.743   9.427 -1.3574 -0.2052  2.1738
  826MOL0     H11477   5.121   1.602   9.339  0.4851  1.7647  0.3110
  826MOL0     H11478   4.982   1.448   9.470 -0.8354  0.2095 -0.0359
  826MOL0     H11479   4.967   1.559   9.595  2.3653 -0.5113 -0.6109
  826MOL0     H11480   4.823   1.611   9.330 -0.8104 -1.4426  0.4178
  826MOL0     H11481   4.803   1.694   9.485 -2.6205 -2.5754  2.3306
  826MOL0     H11482   4.760   1.393   9.464 -1.0746 -1.5360  2.7209
  826MOL0     H11483   4.728   1.493   9.606 -1.3077  1.1243  0.2036
  826MOL0     H11484   4.604   1.515   9.323  2.2255  1.3537  0.8642
  826MOL0     H11485   4.553   1.621   9.454 -1.1834 -0.8647 -0.5894
  826MOL0     H11486   4.388   1.446   9.406  2.4735  4.8213 -0.8728
  826MOL0     H11487   4.504   1.317   9.451 -0.7606  0.2745 -2.2001
  826MOL0     H11488   4.402   1.545   9.615  0.8442  0.4513 -0.6188
  826MOL0     H11489   4.521   1.427   9.683  0.1489 -1.7095  0.4028
  826MOL0     H11490   4.318   1.369   9.771 -1.8443 -1.1386 -0.4646
  826MOL0     H11491   4.358   1.243   9.651 -0.3040  0.1720 -0.9707
  826MOL0     H11492   5.410   1.519   9.624 -0.3927  1.2281  1.3021
  826MOL0     H11493   5.648   1.598   9.596  0.0451  0.9637  1.1200
  826MOL0     H11494   5.924   1.887   9.390  2.3332 -2.0691  0.3645
  826MOL0     H11495   6.151   1.958   9.400  1.7344 -1.4718  0.5086
  826MOL0     H11496   7.800   1.354   9.897 -0.2653 -1.4777  0.7551
  826MOL0     H11497   8.015   1.251   9.849 -1.5164 -2.1063  0.5209
  826MOL0     H11498   8.467   1.197   9.964 -1.1605 -0.3278 -2.2658
  826MOL0     H11499   8.693   1.072   9.945  0.1296 -0.9358 -0.3095
  826MOL0     H11500   8.850   0.944   9.897  0.2816 -0.7510 -0.4869
  826MOL0     H11501   8.913   0.811   9.991 -1.1509  0.4563  1.9347
  826MOL0     H11502   8.818   0.789   9.704  1.3870 -0.5320 -2.0760
  826MOL0     H11503   8.820   0.657   9.823 -0.4745 -0.8056 -1.6670
  826MOL0     H11504   9.031   0.647   9.692 -1.1559  1.4074 -1.2160
  826MOL0     H11505   9.073   0.690   9.850  2.5313  2.3283 -0.9836
  826MOL0     H11506   9.189   0.838   9.685  0.9435  1.7936  1.3125
  826MOL0     H11507   9.076   0.928   9.787 -0.0922  0.6970 -0.2616
  826MOL0     H11508   8.924   0.948   9.385  0.2861  0.0114 -0.4168
  826MOL0     H11509   8.504   0.722  10.089  0.6656  0.2128  0.5323
  826MOL0     H11510   8.276   0.833  10.091 -0.8205 -3.0050 -3.0653
  827MOL0     O11511   2.920   2.805  10.109  0.1209 -0.0386  0.1357
  827MOL0     C11512   3.016   2.823  10.183 -0.2984 -0.7686  0.7692
  827MOL0     O11513   3.009   2.854  10.315  0.4926 -0.7812 -0.3768
  827MOL0     C11514   2.889   2.837  10.373 -0.5007 -0.6461 -0.3340
  827MOL0     C11515   2.787   2.919  10.339  1.3670  0.2060  0.3911
  827MOL0     C11516   2.659   2.895  10.385  0.4908  0.1576  0.3048
  827MOL0     C11517   2.630   2.779  10.468 -0.6617 -0.3901 -0.5278
  827MOL0     O11518   2.500   2.751  10.515 -0.3353  0.4027  0.7987
  827MOL0     C11519   2.411   2.865  10.543 -0.2270  0.4779  0.0558
  827MOL0     C11520   2.306   2.825  10.645 -0.1101 -0.1121 -0.2399
  827MOL0     C11521   2.208   2.733  10.581  0.4580  0.2747  0.3698
  827MOL0     C11522   2.105   2.675  10.677 -0.2956  0.2012 -0.5203
  827MOL0     C11523   2.004   2.597  10.602 -0.5410 -0.0671  0.0938
  827MOL0     C11524   1.883   2.546  10.694 -0.3864  0.1759  0.2630
  827MOL0     C11525   1.764   2.490  10.610 -0.1225  0.1698  0.2141
  827MOL0     C11526   1.811   2.365  10.523 -0.6574 -0.3503 -0.0193
  827MOL0     N11527   1.686   2.288  10.508  0.2530  0.0680 -0.6101
  827MOL0     C11528   1.616   2.206  10.603 -0.1455 -0.4587  0.1764
  827MOL0     C11529   1.496   2.183  10.543  0.1303  0.8822 -0.3872
  827MOL0     C11530   1.384   2.118  10.625 -0.8651  0.6234 -0.0196
  827MOL0     C11531   1.295   2.036  10.539  0.4002  0.1382 -0.1411
  827MOL0     C11532   1.193   1.951  10.616  0.4679 -0.0529  0.2135
  827MOL0     C11533   1.067   2.028  10.661 -0.2503  0.4118  0.6942
  827MOL0     O11534   1.007   2.050  10.537  0.4317 -0.5273 -0.6218
  827MOL0     C11535   0.883   2.120  10.551  0.2929  0.4780  0.0944
  827MOL0     C11536   0.812   2.142  10.429 -0.4778  1.1870 -0.9909
  827MOL0     C11537   0.686   2.207  10.430 -0.6587  0.1412  0.5122
  827MOL0     C11538   0.621   2.223  10.294  0.1375 -0.2436 -0.8525
  827MOL0     C11539   0.627   2.250  10.555 -1.1948  0.1372  0.2329
  827MOL0     C11540   0.496   2.319  10.567  0.1103 -0.4690  0.1681
  827MOL0     O11541   0.396   2.304  10.480  0.0153 -0.3375 -0.4562
  827MOL0     C11542   0.278   2.364  10.519  0.0593  0.0119 -0.5991
  827MOL0     C11543   0.173   2.294  10.583  0.1537  0.2010 -0.1810
  827MOL0     C11544   0.053   2.343  10.621 -0.5465 -0.2907  0.4091
  827MOL0     C11545   0.028   2.482  10.592  0.1648  0.2880  0.5771
  827MOL0     O11546  -0.093   2.538  10.613 -0.4705  0.9786 -0.2322
  827MOL0     C11547  -0.186   2.474  10.699 -1.1444  0.1655 -0.0264
  827MOL0     C11548  -0.289   2.583  10.723 -0.2340 -0.2825  0.7562
  827MOL0     C11549  -0.397   2.535  10.819 -0.0728  0.6280  0.5658
  827MOL0     C11550  -0.506   2.637  10.846 -0.3850  0.8450 -0.4098
  827MOL0     C11551  -0.616   2.567  10.938  0.0325 -0.3250 -0.2979
  827MOL0     C11552  -0.724   2.665  10.996  0.8703 -0.0757  0.9842
  827MOL0     C11553  -0.832   2.596  11.073  0.2051  0.5522  0.3316
  827MOL0     C11554  -0.931   2.687  11.146  0.3736 -0.2400 -0.3268
  827MOL0    Cl11555  -1.019   2.795  11.030 -0.1103  0.1629  0.0536
  827MOL0     C11556   0.130   2.556  10.527 -0.6828 -0.2195 -0.9955
  827MOL0     C11557   0.255   2.500  10.491 -0.3620  0.3911  0.3823
  827MOL0     O11558   0.482   2.379  10.678  0.1819 -0.2164  0.1374
  827MOL0     C11559   0.701   2.230  10.675  0.0638  0.2343  0.0116
  827MOL0     C11560   0.821   2.160  10.672 -0.4288 -0.0312  0.9509
  827MOL0     N11561   1.489   2.243  10.419 -0.2007  0.1672  0.1022
  827MOL0     N11562   1.604   2.298  10.398 -0.0151 -0.3291 -0.7072
  827MOL0     C11563   2.737   2.701  10.511  0.2230  0.1117 -0.2785
  827MOL0     C11564   2.869   2.729  10.464  0.8500  0.5215  0.3638
  827MOL0     C11565   3.155   2.832  10.130  0.1969 -0.1707 -0.2023
  827MOL0     C11566   3.187   2.799  10.003  0.0716 -0.2778 -0.2341
  827MOL0     C11567   3.320   2.804   9.964  0.2666 -0.2639  0.3433
  827MOL0     C11568   3.424   2.841  10.051 -0.6805 -0.4837  0.0305
  827MOL0     O11569   3.555   2.829  10.010  0.0800 -0.3470  0.2871
  827MOL0     C11570   3.598   2.717   9.934  0.3436  0.6322 -0.0244
  827MOL0     C11571   3.737   2.672   9.980  0.5339  1.1649  0.3174
  827MOL0     C11572   3.831   2.774  10.024 -0.7291 -0.6716 -0.0606
  827MOL0     C11573   3.965   2.723  10.081  0.7628  0.5114  0.6561
  827MOL0     C11574   3.954   2.681  10.224 -0.5469  0.0673  0.1455
  827MOL0     C11575   3.949   2.656  10.343  0.3968  0.2798 -0.5150
  827MOL0     C11576   3.391   2.889  10.173 -0.4545 -0.1631  0.2435
  827MOL0     C11577   3.256   2.889  10.214  0.0385 -0.0794 -0.0541
  827MOL0     H11578   2.801   3.011  10.284 -3.0232  0.8558  0.0087
  827MOL0     H11579   2.586   2.967  10.352  0.4171  0.4448  1.0637
  827MOL0     H11580   2.469   2.954  10.571 -1.8812  1.6109  0.0252
  827MOL0     H11581   2.348   2.889  10.457  0.2727 -1.9631 -1.0794
  827MOL0     H11582   2.339   2.781  10.739 -1.9147  0.8196  0.8940
  827MOL0     H11583   2.256   2.918  10.674  3.0667  1.9385 -0.8676
  827MOL0     H11584   2.159   2.776  10.493  1.3830  0.1879 -0.2033
  827MOL0     H11585   2.270   2.646  10.557  0.3006  0.4001 -0.5290
  827MOL0     H11586   2.157   2.610  10.748 -1.2443 -2.9308 -2.4538
  827MOL0     H11587   2.058   2.764  10.718 -2.8096 -1.8348  1.3956
  827MOL0     H11588   1.959   2.653  10.520 -0.4280  0.3695  0.3272
  827MOL0     H11589   2.051   2.506  10.564 -0.6178 -0.4102  0.8059
  827MOL0     H11590   1.913   2.472  10.768  1.4673  0.8390  0.2355
  827MOL0     H11591   1.840   2.628  10.753 -1.9251 -0.6762  0.3785
  827MOL0     H11592   1.686   2.461  10.681 -2.5840  1.4548 -1.7866
  827MOL0     H11593   1.718   2.561  10.541  0.6854 -0.1328 -0.6538
  827MOL0     H11594   1.883   2.294  10.565  0.3220 -0.0076 -1.0677
  827MOL0     H11595   1.847   2.405  10.428  2.2946  0.5762  1.3714
  827MOL0     H11596   1.644   2.179  10.705  6.0278 -1.2244 -1.3139
  827MOL0     H11597   1.443   2.058  10.696  1.5588  3.3234  0.4574
  827MOL0     H11598   1.329   2.203  10.669 -1.1044  2.5763 -3.7022
  827MOL0     H11599   1.360   1.968  10.483  0.7086 -1.2833  1.8488
  827MOL0     H11600   1.252   2.094  10.458  0.0374 -0.0035 -0.0504
  827MOL0     H11601   1.244   1.909  10.703  0.2532  1.8940  1.3452
  827MOL0     H11602   1.152   1.869  10.555 -0.5411  0.8756 -0.3949
  827MOL0     H11603   1.093   2.120  10.713 -0.5604  1.2101 -0.5196
  827MOL0     H11604   1.000   1.959  10.715 -2.1075  0.3226 -1.5512
  827MOL0     H11605   0.861   2.111  10.337  0.0613 -0.1108 -0.2885
  827MOL0     H11606   0.687   2.198  10.210  0.6040  0.1218 -0.5949
  827MOL0     H11607   0.542   2.146  10.291 -0.4778  0.3961 -1.2806
  827MOL0     H11608   0.581   2.324  10.279 -2.4380 -1.1354 -0.5940
  827MOL0     H11609   0.181   2.187  10.601 -0.6686 -0.0829 -1.4100
  827MOL0     H11610  -0.027   2.287  10.667 -2.4815  0.5261 -1.7434
  827MOL0     H11611  -0.233   2.388  10.650  0.3250  0.0453 -1.3028
  827MOL0     H11612  -0.133   2.446  10.791  0.9232  0.5338 -1.0547
  827MOL0     H11613  -0.249   2.680  10.755 -1.3210 -0.2501  2.1062
  827MOL0     H11614  -0.340   2.602  10.627  2.9498  0.6049 -0.8992
  827MOL0     H11615  -0.350   2.508  10.914 -0.6951 -0.5153  0.5651
  827MOL0     H11616  -0.441   2.444  10.776 -1.3071  2.0454 -1.3386
  827MOL0     H11617  -0.462   2.719  10.904 -0.9628 -0.3924  1.9129
  827MOL0     H11618  -0.552   2.678  10.756 -0.9347 -1.4474 -1.2331
  827MOL0     H11619  -0.569   2.516  11.022  2.3607  0.6808 -0.8906
  827MOL0     H11620  -0.667   2.484  10.887  0.8467  0.0711 -1.8244
  827MOL0     H11621  -0.673   2.743  11.053  2.4581 -0.9057  0.7533
  827MOL0     H11622  -0.766   2.719  10.911 -0.0854 -0.7168  1.0268
  827MOL0     H11623  -0.781   2.538  11.151 -0.2909  1.0448  1.0277
  827MOL0     H11624  -0.891   2.528  11.011  1.8599 -0.3517 -0.3054
  827MOL0     H11625  -0.885   2.753  11.220 -0.4308  1.9720 -1.7030
  827MOL0     H11626  -0.999   2.621  11.201  0.6508 -1.5448 -1.5266
  827MOL0     H11627   0.120   2.664  10.517 -0.5448 -0.0907  0.1521
  827MOL0     H11628   0.340   2.549  10.443 -1.3652  2.9357  1.0647
  827MOL0     H11629   0.676   2.252  10.778 -1.0117  2.1522 -0.6087
  827MOL0     H11630   0.869   2.146  10.768 -0.5216  2.3295  1.4124
  827MOL0     H11631   2.727   2.622  10.585  1.5345 -1.2416 -1.4794
  827MOL0     H11632   2.957   2.672  10.493 -0.1074 -0.3837  1.6219
  827MOL0     H11633   3.111   2.767   9.932  0.5074  2.4075 -2.0519
  827MOL0     H11634   3.339   2.791   9.858  0.2651  0.0860  0.3002
  827MOL0     H11635   3.529   2.636   9.959  0.7688  0.4024  0.4109
  827MOL0     H11636   3.586   2.738   9.827 -1.0720  0.2724  0.0437
  827MOL0     H11637   3.788   2.615   9.902  1.4182  1.2593  0.8116
  827MOL0     H11638   3.728   2.601  10.062 -1.3643 -1.0018 -1.6343
  827MOL0     H11639   3.788   2.836  10.104 -1.1890 -2.0206  0.7604
  827MOL0     H11640   3.845   2.840   9.938  2.5022  0.1027  0.9331
  827MOL0     H11641   4.043   2.799  10.081  1.4470 -0.1498  2.2052
  827MOL0     H11642   4.011   2.649  10.015 -1.0073  2.4269 -3.0220
  827MOL0     H11643   3.945   2.638  10.449  1.7326  1.5983 -0.2072
  827MOL0     H11644   3.455   2.919  10.255 -1.4418 -1.2604  1.4465
  827MOL0     H11645   3.246   2.901  10.322 -0.1517 -3.6328  0.4525
  828MOL0     O11646   5.640   2.745   7.821  0.3466 -0.3061 -0.1526
  828MOL0     C11647   5.644   2.842   7.893 -0.4095 -0.1606 -0.2896
  828MOL0     O11648   5.557   2.886   7.993  0.5705  0.0683  0.8268
  828MOL0     C11649   5.450   2.799   8.015  0.6555  0.7732  0.1869
  828MOL0     C11650   5.412   2.779   8.142 -0.5244  0.5070 -0.6283
  828MOL0     C11651   5.301   2.712   8.184 -0.9190  0.8420  0.5009
  828MOL0     C11652   5.224   2.643   8.091  0.8113 -0.0148  0.3024
  828MOL0     O11653   5.131   2.548   8.135  0.2252 -0.3130  0.5003
  828MOL0     C11654   5.058   2.479   8.027  0.6829 -0.3358 -0.6942
  828MOL0     C11655   4.949   2.394   8.090 -0.4940  0.2895 -0.6262
  828MOL0     C11656   4.861   2.308   7.991  0.1151  0.2058 -0.2418
  828MOL0     C11657   4.750   2.224   8.065  0.8741  0.7096  0.1996
  828MOL0     C11658   4.657   2.130   7.979 -0.1715  0.0030 -0.3307
  828MOL0     C11659   4.576   2.031   8.066 -0.7204  0.2976 -0.7007
  828MOL0     C11660   4.477   1.952   7.982 -0.4247  0.0060  0.2647
  828MOL0     C11661   4.362   2.031   7.919  0.7812  0.0452 -0.2829
  828MOL0     N11662   4.268   2.077   8.023  0.2922 -0.5103 -0.2106
  828MOL0     C11663   4.240   2.204   8.062  0.0000 -0.3134 -0.3880
  828MOL0     C11664   4.117   2.199   8.122 -0.2699 -0.2718 -0.6922
  828MOL0     C11665   4.029   2.311   8.160  0.5549 -0.2272 -0.0671
  828MOL0     C11666   3.952   2.285   8.281  0.0642  0.3476  0.0417
  828MOL0     C11667   3.822   2.369   8.316  0.5068  0.6643 -0.0527
  828MOL0     C11668   3.721   2.360   8.195 -0.2138  0.1386 -0.4296
  828MOL0     O11669   3.704   2.227   8.147 -0.1904 -0.2792  0.6628
  828MOL0     C11670   3.576   2.203   8.102  0.7941  0.9971 -0.5906
  828MOL0     C11671   3.485   2.107   8.161 -0.5691 -0.4468  0.0458
  828MOL0     C11672   3.345   2.095   8.132  0.2269 -0.6870 -0.7721
  828MOL0     C11673   3.258   2.008   8.225  0.1380 -0.0233  0.3874
  828MOL0     C11674   3.292   2.174   8.020  1.0163  0.3781  0.4607
  828MOL0     C11675   3.149   2.184   7.974  0.4532 -0.4222  0.4656
  828MOL0     O11676   3.049   2.147   8.057 -0.3282  0.5871 -0.2506
  828MOL0     C11677   2.923   2.161   8.005 -0.2857 -0.4907 -0.4934
  828MOL0     C11678   2.833   2.217   8.097 -0.9509  0.5961  0.9342
  828MOL0     C11679   2.693   2.221   8.075  0.0512  0.7603 -0.0557
  828MOL0     C11680   2.640   2.162   7.957 -0.2629  0.4205  0.4286
  828MOL0     O11681   2.510   2.173   7.918  0.2271  0.0634  0.7408
  828MOL0     C11682   2.438   2.052   7.935  0.0118 -0.5147 -0.0140
  828MOL0     C11683   2.294   2.092   7.898  0.5320  0.1597 -0.4574
  828MOL0     C11684   2.193   2.044   8.001 -0.3239  0.1329 -0.5212
  828MOL0     C11685   2.046   2.091   7.964  0.4561  0.0719 -0.2890
  828MOL0     C11686   1.940   2.062   8.069  0.5094  0.1349 -0.4030
  828MOL0     C11687   1.893   1.916   8.075  0.1197 -0.5014 -1.0604
  828MOL0     C11688   2.002   1.834   8.143  0.7910 -0.8405  0.1963
  828MOL0     C11689   1.947   1.715   8.207  0.2993  0.4535 -0.1011
  828MOL0    Cl11690   1.851   1.752   8.358  0.0969  0.4421 -0.0430
  828MOL0     C11691   2.731   2.108   7.864 -0.5197 -0.5040  0.2325
  828MOL0     C11692   2.868   2.099   7.884 -0.0400 -0.3331  0.5394
  828MOL0     O11693   3.128   2.236   7.866 -0.2564  0.3474 -0.9907
  828MOL0     C11694   3.382   2.267   7.960 -0.2035  0.5878 -0.0447
  828MOL0     C11695   3.524   2.277   7.997  0.2048  0.1665  0.4585
  828MOL0     N11696   4.081   2.058   8.130 -0.0337  0.0154 -0.0618
  828MOL0     N11697   4.173   1.998   8.065  0.0715 -0.4357 -0.8605
  828MOL0     C11698   5.252   2.669   7.952 -0.1680  0.3987  0.5487
  828MOL0     C11699   5.370   2.740   7.915  0.1318 -0.2612  0.9378
  828MOL0     C11700   5.758   2.929   7.875 -0.5374  1.0026 -0.2385
  828MOL0     C11701   5.879   2.886   7.800 -0.4120 -0.6610 -0.2453
  828MOL0     C11702   5.977   2.985   7.798 -1.6818  0.6540 -0.0619
  828MOL0     C11703   5.980   3.098   7.874 -0.5179  0.5856  0.4138
  828MOL0     O11704   6.083   3.196   7.860  0.2035 -0.2320  0.4841
  828MOL0     C11705   6.210   3.162   7.811  0.0991 -0.3355  0.0102
  828MOL0     C11706   6.315   3.238   7.894  0.5482  1.2040 -0.0180
  828MOL0     C11707   6.296   3.392   7.880  0.4692 -0.1694  0.5953
  828MOL0     C11708   6.401   3.460   7.963  0.5098  0.1560 -0.3814
  828MOL0     C11709   6.375   3.605   7.971  0.2527 -0.5050  0.0832
  828MOL0     C11710   6.368   3.727   7.950  0.9127  0.1391 -0.5527
  828MOL0     C11711   5.871   3.134   7.950 -0.1285  0.1946  0.6886
  828MOL0     C11712   5.760   3.050   7.945  0.1111 -0.0389  0.4532
  828MOL0     H11713   5.475   2.820   8.220  1.5284  1.3598 -2.6027
  828MOL0     H11714   5.271   2.713   8.288 -2.4867 -0.0074  0.0851
  828MOL0     H11715   5.012   2.552   7.960  0.5715  0.0416 -0.2157
  828MOL0     H11716   5.124   2.418   7.966  2.8048  0.5020  0.6642
  828MOL0     H11717   4.994   2.337   8.172 -1.2711  0.4289 -0.0919
  828MOL0     H11718   4.891   2.470   8.142 -0.2782 -1.9021  3.2198
  828MOL0     H11719   4.818   2.374   7.915  0.6564 -0.0032 -0.7347
  828MOL0     H11720   4.922   2.230   7.945 -2.9144 -1.9248 -0.9675
  828MOL0     H11721   4.810   2.160   8.131  2.3104 -0.6139 -2.2214
  828MOL0     H11722   4.680   2.279   8.129 -1.1227 -0.5582 -0.7706
  828MOL0     H11723   4.583   2.193   7.928 -0.8152  0.4365  1.0877
  828MOL0     H11724   4.712   2.072   7.904 -1.0639 -1.5795  0.1970
  828MOL0     H11725   4.635   1.966   8.131 -0.6733  1.5015  0.5273
  828MOL0     H11726   4.525   2.092   8.141  1.1996  0.7793  0.2945
  828MOL0     H11727   4.531   1.911   7.896 -0.1709  2.2435 -0.7122
  828MOL0     H11728   4.435   1.865   8.032  2.1953 -2.5987 -1.6971
  828MOL0     H11729   4.305   1.974   7.846  0.1940  2.4303 -1.8273
  828MOL0     H11730   4.404   2.118   7.868  0.1868  0.4810 -0.0474
  828MOL0     H11731   4.284   2.299   8.034 -3.2487  1.2941 -0.5648
  828MOL0     H11732   4.089   2.403   8.165  1.4521 -0.7939 -0.2360
  828MOL0     H11733   3.955   2.328   8.081 -0.2642  0.3794  0.8023
  828MOL0     H11734   4.021   2.284   8.365  0.1698 -1.6756 -0.0182
  828MOL0     H11735   3.922   2.180   8.273 -0.0672  0.1628  2.2649
  828MOL0     H11736   3.866   2.468   8.326 -2.0146  1.9737 -1.1649
  828MOL0     H11737   3.774   2.345   8.411  1.7376 -2.6478 -0.1100
  828MOL0     H11738   3.763   2.414   8.110  0.6250 -2.3206 -1.6578
  828MOL0     H11739   3.627   2.409   8.221 -1.4334 -1.6327 -1.3147
  828MOL0     H11740   3.521   2.043   8.241 -3.2759  0.9500  2.5261
  828MOL0     H11741   3.329   1.948   8.283  0.3852  1.8043  2.0562
  828MOL0     H11742   3.203   2.066   8.299 -1.8964 -2.1265  0.6468
  828MOL0     H11743   3.176   1.954   8.176 -1.5916  0.2374  2.8346
  828MOL0     H11744   2.873   2.251   8.192 -1.4919  1.2390  0.9495
  828MOL0     H11745   2.624   2.270   8.143  1.4225 -0.7322  2.5688
  828MOL0     H11746   2.475   1.982   7.859  3.3331  2.3930 -1.3127
  828MOL0     H11747   2.449   2.009   8.035  0.4444  0.2683  0.2839
  828MOL0     H11748   2.287   2.200   7.883  2.1570  0.2030 -1.1640
  828MOL0     H11749   2.277   2.043   7.802 -0.2557  0.8223 -0.6624
  828MOL0     H11750   2.218   2.073   8.103 -0.7036  0.1619 -0.4332
  828MOL0     H11751   2.215   1.937   8.001  0.3919  0.2664 -1.3667
  828MOL0     H11752   2.044   2.201   7.960 -1.4669  0.0433 -1.6621
  828MOL0     H11753   2.016   2.050   7.867  1.0857  1.8662 -1.2993
  828MOL0     H11754   1.853   2.118   8.035  2.3991  1.5514 -3.3058
  828MOL0     H11755   1.973   2.094   8.168 -1.1579 -1.2298  0.6608
  828MOL0     H11756   1.808   1.914   8.142  1.1328 -0.0998  0.2697
  828MOL0     H11757   1.867   1.873   7.977 -0.1112  1.3684 -1.8583
  828MOL0     H11758   2.060   1.888   8.219 -2.5553 -0.3735  2.6672
  828MOL0     H11759   2.073   1.799   8.068 -2.4463 -3.1234 -2.0401
  828MOL0     H11760   2.026   1.647   8.237 -0.1507 -1.6395 -3.1627
  828MOL0     H11761   1.890   1.675   8.122  1.1798 -1.4250  0.1391
  828MOL0     H11762   2.708   2.043   7.781 -0.8159  0.1663 -0.2177
  828MOL0     H11763   2.936   2.050   7.814  0.1399 -0.1100  0.5566
  828MOL0     H11764   3.342   2.338   7.888 -0.8956  1.6840  1.3782
  828MOL0     H11765   3.578   2.359   7.952  1.0670  0.4154  1.9009
  828MOL0     H11766   5.191   2.620   7.876  3.8229 -2.6890 -1.0201
  828MOL0     H11767   5.389   2.762   7.811  0.6784 -2.2329  0.5717
  828MOL0     H11768   5.896   2.795   7.743  1.3445 -0.3951 -0.2130
  828MOL0     H11769   6.058   2.959   7.731 -1.3196  1.1080  0.1948
  828MOL0     H11770   6.244   3.058   7.816 -1.3376 -0.8976 -1.3857
  828MOL0     H11771   6.224   3.184   7.705  1.7398 -2.2444 -0.2307
  828MOL0     H11772   6.409   3.206   7.848 -0.7357 -0.3039 -1.7477
  828MOL0     H11773   6.309   3.205   7.998 -1.1088  0.5007 -0.3163
  828MOL0     H11774   6.198   3.419   7.919 -0.0775 -1.0367 -0.1460
  828MOL0     H11775   6.310   3.417   7.774  2.1804 -1.0431  0.5718
  828MOL0     H11776   6.502   3.452   7.921  1.3412  1.9739  1.1133
  828MOL0     H11777   6.399   3.404   8.057  2.5112  1.6235  0.6134
  828MOL0     H11778   6.375   3.826   7.911  0.1893 -0.3078 -1.8653
  828MOL0     H11779   5.873   3.229   8.002  1.1670  0.8478 -0.4985
  828MOL0     H11780   5.686   3.075   8.020 -0.3025  0.8615 -0.2324
  829MOL0     O11781   8.742   0.381  10.391  0.2626  0.0171  0.4533
  829MOL0     C11782   8.792   0.361  10.503 -0.3862  0.0864  0.7080
  829MOL0     O11783   8.711   0.356  10.607  0.0946 -0.0607 -0.2696
  829MOL0     C11784   8.581   0.363  10.586  0.0067  0.3435 -0.2876
  829MOL0     C11785   8.516   0.485  10.582 -0.0196  0.3467 -0.3358
  829MOL0     C11786   8.374   0.480  10.568 -0.2818  0.1806  0.3925
  829MOL0     C11787   8.302   0.359  10.556  0.3459 -0.0911 -0.5417
  829MOL0     O11788   8.167   0.348  10.529 -0.4067 -0.5097 -0.7713
  829MOL0     C11789   8.084   0.465  10.496  0.0723 -0.6860  0.0557
  829MOL0     C11790   7.937   0.446  10.465  0.1503  0.6922 -0.6737
  829MOL0     C11791   7.841   0.572  10.453  0.3273  0.6264  0.1163
  829MOL0     C11792   7.702   0.537  10.413 -0.3626 -0.0323 -0.9716
  829MOL0     C11793   7.606   0.654  10.411  0.5303  0.0627 -0.3724
  829MOL0     C11794   7.466   0.601  10.390  0.6222 -0.0864 -0.3507
  829MOL0     C11795   7.376   0.702  10.323 -0.1012  0.1019  0.4903
  829MOL0     C11796   7.230   0.681  10.364 -0.4986  0.0014  0.3602
  829MOL0     N11797   7.137   0.745  10.278 -0.8947 -0.7859 -0.6183
  829MOL0     C11798   7.034   0.831  10.316 -0.9541  0.2708 -0.4835
  829MOL0     C11799   6.974   0.871  10.201 -0.1325  0.4928  0.5551
  829MOL0     C11800   6.862   0.965  10.180  0.3335  0.3860 -0.5444
  829MOL0     C11801   6.877   1.064  10.068  0.3906  0.4232 -0.1652
  829MOL0     C11802   6.748   1.136  10.032 -0.8154  0.5312 -0.2189
  829MOL0     C11803   6.771   1.237   9.919 -0.7559  0.4732  0.0012
  829MOL0     O11804   6.653   1.312   9.911  0.6393  0.3271  0.3510
  829MOL0     C11805   6.589   1.309   9.786  0.4088  1.0699 -0.2151
  829MOL0     C11806   6.648   1.323   9.665 -0.1130  0.3056 -0.4184
  829MOL0     C11807   6.567   1.315   9.549 -0.4588 -0.1160 -0.0067
  829MOL0     C11808   6.633   1.342   9.420  0.4659 -0.0448  0.0467
  829MOL0     C11809   6.430   1.295   9.561 -0.1885  0.1296 -0.1287
  829MOL0     C11810   6.337   1.274   9.445 -0.5508  0.1537  0.1333
  829MOL0     O11811   6.244   1.372   9.434  0.2966 -0.3219 -0.4081
  829MOL0     C11812   6.152   1.351   9.335 -0.6793  0.4855 -0.1696
  829MOL0     C11813   6.013   1.346   9.375 -0.0636 -0.1575  0.5590
  829MOL0     C11814   5.921   1.328   9.265  0.7350 -0.5602  0.1475
  829MOL0     C11815   5.961   1.331   9.132  0.3769 -0.4293  0.4547
  829MOL0     O11816   5.876   1.347   9.025  0.4674 -0.2280 -0.5778
  829MOL0     C11817   5.738   1.331   9.046  0.0801  0.0344 -0.5113
  829MOL0     C11818   5.663   1.291   8.924 -0.0717  0.7263  0.3089
  829MOL0     C11819   5.519   1.272   8.954  0.3181  0.1461  0.0586
  829MOL0     C11820   5.438   1.257   8.818  0.2771 -0.1158 -0.0067
  829MOL0     C11821   5.291   1.287   8.845 -0.5375 -0.4822  0.5233
  829MOL0     C11822   5.183   1.236   8.745  0.6929 -0.5383 -0.4241
  829MOL0     C11823   5.039   1.243   8.799 -0.8497  0.0596 -0.8695
  829MOL0     C11824   4.946   1.166   8.707  0.1541 -0.1866 -0.4016
  829MOL0    Cl11825   4.789   1.124   8.786  0.3327 -0.1163  0.7122
  829MOL0     C11826   6.093   1.349   9.102  0.0356 -0.2730  0.4626
  829MOL0     C11827   6.192   1.351   9.194 -0.0676  0.0128  0.6897
  829MOL0     O11828   6.359   1.180   9.368 -0.1644 -0.1959  0.5096
  829MOL0     C11829   6.370   1.282   9.690  0.4933  0.6896 -0.4081
  829MOL0     C11830   6.449   1.285   9.797  0.7773  0.1680 -0.6813
  829MOL0     N11831   7.039   0.803  10.097 -0.3142 -0.5187 -0.2400
  829MOL0     N11832   7.143   0.743  10.150  0.0155  0.2493  0.4739
  829MOL0     C11833   8.372   0.240  10.559  0.1881 -0.0490 -0.9580
  829MOL0     C11834   8.513   0.241  10.579  0.0232 -0.1236 -0.9053
  829MOL0     C11835   8.936   0.346  10.519  0.6054  0.4256 -0.4595
  829MOL0     C11836   8.986   0.289  10.638 -0.8764  0.5973 -0.5888
  829MOL0     C11837   9.123   0.284  10.663  0.2764  0.4930 -0.8077
  829MOL0     C11838   9.204   0.330  10.563 -0.4359  0.2544  0.8032
  829MOL0     O11839   9.337   0.332  10.568 -0.0574  0.9912 -0.2996
  829MOL0     C11840   9.405   0.308  10.690  0.2385  0.6039 -0.3096
  829MOL0     C11841   9.554   0.340  10.678 -1.0587 -0.7366  0.2275
  829MOL0     C11842   9.629   0.335  10.812  0.7263 -0.0577 -0.0480
  829MOL0     C11843   9.779   0.314  10.801  0.1693 -0.0289  0.7541
  829MOL0     C11844   9.845   0.410  10.708  0.9309  0.2118 -1.0864
  829MOL0     C11845   9.883   0.495  10.635 -0.7139 -0.7362  0.0804
  829MOL0     C11846   9.159   0.386  10.447 -0.0030  0.9496  0.7933
  829MOL0     C11847   9.027   0.394  10.423  0.1683  0.3133 -0.5944
  829MOL0     H11848   8.572   0.577  10.595  1.9472 -1.1355  3.1598
  829MOL0     H11849   8.321   0.575  10.568 -2.7185 -1.0127 -2.2720
  829MOL0     H11850   8.085   0.533  10.582 -1.0436 -1.0838  0.4050
  829MOL0     H11851   8.127   0.516  10.410  0.4048 -1.2396 -0.1070
  829MOL0     H11852   7.932   0.372  10.385 -1.1510  0.0467 -0.0352
  829MOL0     H11853   7.908   0.385  10.551  5.1321 -1.2350 -0.0537
  829MOL0     H11854   7.839   0.631  10.545 -0.0646 -0.0131  0.5179
  829MOL0     H11855   7.877   0.638  10.373 -2.0996  0.7432 -0.9483
  829MOL0     H11856   7.707   0.489  10.314  0.0810  0.6762 -1.2989
  829MOL0     H11857   7.667   0.462  10.485  0.2472  1.8465  1.4019
  829MOL0     H11858   7.612   0.713  10.503 -1.2481  0.8726 -0.7534
  829MOL0     H11859   7.636   0.718  10.328  1.6118 -1.0917 -0.9224
  829MOL0     H11860   7.473   0.506  10.336  0.6516 -0.0701 -0.3751
  829MOL0     H11861   7.428   0.578  10.490  1.0572 -0.4472 -0.2614
  829MOL0     H11862   7.410   0.802  10.353 -2.3167  2.1164 -3.0239
  829MOL0     H11863   7.387   0.699  10.214  0.2440  2.9881  0.3599
  829MOL0     H11864   7.239   0.730  10.461  2.0410 -0.2515  0.3284
  829MOL0     H11865   7.208   0.575  10.373  0.1915 -0.0406  1.8725
  829MOL0     H11866   7.018   0.862  10.419  1.1549  0.0891 -0.0588
  829MOL0     H11867   6.769   0.909  10.167  0.8855  0.0055 -3.6749
  829MOL0     H11868   6.853   1.020  10.275 -0.2611  0.7242 -0.7927
  829MOL0     H11869   6.909   1.005   9.981  0.2278  0.1693 -0.0515
  829MOL0     H11870   6.952   1.141  10.089  0.5265 -0.3927  2.7437
  829MOL0     H11871   6.718   1.190  10.122 -0.2937 -0.0449  0.3090
  829MOL0     H11872   6.665   1.074   9.998 -0.4584  0.2974 -0.6802
  829MOL0     H11873   6.804   1.182   9.830  4.2572 -1.5533  2.7107
  829MOL0     H11874   6.852   1.303   9.949  2.0164 -2.5331 -0.2941
  829MOL0     H11875   6.751   1.357   9.651  0.2121 -1.1030 -1.5735
  829MOL0     H11876   6.561   1.363   9.341  0.0681  1.1342  0.7062
  829MOL0     H11877   6.689   1.436   9.422  2.3198 -1.0925 -0.0218
  829MOL0     H11878   6.700   1.262   9.385 -0.9269  0.0386 -3.1443
  829MOL0     H11879   5.972   1.343   9.476 -0.6319 -1.8193  0.3172
  829MOL0     H11880   5.818   1.330   9.298  0.9979 -0.3802  0.9908
  829MOL0     H11881   5.710   1.250   9.114 -3.5825  0.3981 -1.3654
  829MOL0     H11882   5.699   1.425   9.086 -0.6346 -0.7996  0.8399
  829MOL0     H11883   5.666   1.372   8.851 -0.7068  0.4554 -0.0305
  829MOL0     H11884   5.714   1.202   8.887 -0.3217 -0.8066  3.3539
  829MOL0     H11885   5.484   1.361   9.008  0.2451  1.5402 -2.1613
  829MOL0     H11886   5.500   1.190   9.024  0.1152  1.0553  1.0884
  829MOL0     H11887   5.469   1.293   8.719 -1.1403  0.2402 -0.3386
  829MOL0     H11888   5.437   1.151   8.791 -1.1200 -0.0434 -0.3039
  829MOL0     H11889   5.284   1.396   8.843  0.4951 -0.1806  4.4282
  829MOL0     H11890   5.276   1.248   8.947  1.1818 -1.5951  0.3921
  829MOL0     H11891   5.191   1.303   8.659 -0.7566  2.5274  1.6572
  829MOL0     H11892   5.206   1.130   8.730  0.0100 -0.7865  0.2090
  829MOL0     H11893   5.007   1.347   8.811  1.2754  0.5470  1.5260
  829MOL0     H11894   5.024   1.189   8.894 -0.0953 -2.0940 -1.9081
  829MOL0     H11895   4.995   1.072   8.680  3.4395  1.4199 -0.6093
  829MOL0     H11896   4.932   1.231   8.620 -0.4704  0.5506  0.2316
  829MOL0     H11897   6.115   1.356   8.997 -0.1329  0.8946  0.4983
  829MOL0     H11898   6.298   1.349   9.169 -0.0170 -1.4846  0.9811
  829MOL0     H11899   6.263   1.263   9.699  1.1110 -3.9971 -0.4557
  829MOL0     H11900   6.411   1.273   9.898 -1.3630 -0.6650 -1.5198
  829MOL0     H11901   8.315   0.149  10.543  0.0835  0.1824 -1.9852
  829MOL0     H11902   8.567   0.146  10.579  2.8206  1.3225  0.6774
  829MOL0     H11903   8.913   0.254  10.709 -1.6775  0.1380 -1.6037
  829MOL0     H11904   9.154   0.220  10.745 -0.9640  1.8595  0.8052
  829MOL0     H11905   9.370   0.371  10.772  3.0624  0.8634  0.8216
  829MOL0     H11906   9.398   0.202  10.717  1.3213  1.3542  3.5364
  829MOL0     H11907   9.571   0.444  10.649 -0.6734 -0.2891  1.9170
  829MOL0     H11908   9.603   0.280  10.601 -0.3124  2.5911 -2.0707
  829MOL0     H11909   9.587   0.261  10.881 -0.8634  0.8078 -0.0510
  829MOL0     H11910   9.621   0.437  10.849  1.3459 -0.8784  2.5703
  829MOL0     H11911   9.794   0.211  10.768  0.0823 -0.6281  2.4634
  829MOL0     H11912   9.826   0.328  10.900  1.0972  1.7324  0.1127
  829MOL0     H11913   9.924   0.571  10.572  2.5491 -0.7638  1.9259
  829MOL0     H11914   9.231   0.418  10.372 -0.7361  0.3756 -0.1751
  829MOL0     H11915   8.997   0.443  10.332  0.8347  1.0435 -0.4334
  830MOL0     O11916   8.131   2.838   8.467 -0.0433  0.1522 -0.4029
  830MOL0     C11917   8.233   2.858   8.403 -0.1086  0.9642 -0.3090
  830MOL0     O11918   8.253   2.961   8.319 -0.4317 -0.1175 -0.1993
  830MOL0     C11919   8.153   3.029   8.250 -0.5887  0.9795 -0.0356
  830MOL0     C11920   8.172   3.167   8.213 -0.9366 -0.0112  0.7811
  830MOL0     C11921   8.074   3.243   8.143  0.7496 -0.5962  0.2293
  830MOL0     C11922   7.955   3.186   8.103 -0.1024 -0.1032  0.7557
  830MOL0     O11923   7.858   3.264   8.050 -0.5865  0.0224 -0.3720
  830MOL0     C11924   7.731   3.273   8.113  0.9552  0.3283  0.0100
  830MOL0     C11925   7.633   3.338   8.006 -0.1335  0.5703  1.1103
  830MOL0     C11926   7.493   3.359   8.062 -0.0543 -0.1296 -1.1754
  830MOL0     C11927   7.391   3.421   7.956  0.4940 -0.4212  0.1735
  830MOL0     C11928   7.254   3.441   8.010  0.3331  0.1042  0.1301
  830MOL0     C11929   7.250   3.556   8.120 -0.0741 -0.1123  0.9788
  830MOL0     C11930   7.109   3.568   8.177 -0.9250  0.7816 -0.6096
  830MOL0     C11931   7.112   3.677   8.284  0.7727 -0.4979  0.0054
  830MOL0     N11932   6.991   3.664   8.361  0.0797  0.6124 -0.4237
  830MOL0     C11933   6.888   3.753   8.366  0.4326 -0.6191  0.3219
  830MOL0     C11934   6.782   3.689   8.411 -0.1215  0.1748  0.0195
  830MOL0     C11935   6.656   3.751   8.439 -0.4015 -0.8517  0.2521
  830MOL0     C11936   6.533   3.694   8.367  0.5424  0.8192  0.4097
  830MOL0     C11937   6.409   3.764   8.418  0.1358  0.0555 -0.0143
  830MOL0     C11938   6.283   3.704   8.357  0.5068  0.0551  0.2597
  830MOL0     O11939   6.161   3.723   8.434 -0.0673  0.3531 -1.1712
  830MOL0     C11940   6.043   3.687   8.372  0.4973  0.0248 -0.2936
  830MOL0     C11941   6.027   3.651   8.244 -1.4076  0.2232  0.4106
  830MOL0     C11942   5.912   3.592   8.187  0.4753 -0.9737 -0.5175
  830MOL0     C11943   5.905   3.539   8.042  0.4318 -1.3442 -0.0941
  830MOL0     C11944   5.805   3.572   8.274  0.6564 -0.5821  0.0189
  830MOL0     C11945   5.676   3.511   8.225  0.5122  0.0715 -0.6295
  830MOL0     O11946   5.562   3.562   8.279 -0.3430  0.2676  0.1970
  830MOL0     C11947   5.449   3.484   8.271 -0.6978  0.0074 -0.5438
  830MOL0     C11948   5.449   3.342   8.273 -0.0387 -0.8912 -0.1128
  830MOL0     C11949   5.324   3.269   8.274  0.2486  0.4534 -1.0489
  830MOL0     C11950   5.205   3.343   8.268 -0.1091 -0.1336  0.4053
  830MOL0     O11951   5.078   3.288   8.256 -0.5989  0.7621 -0.1920
  830MOL0     C11952   5.061   3.146   8.275  0.4266 -0.2603  0.8814
  830MOL0     C11953   4.905   3.111   8.287 -0.5669  0.0456 -0.1465
  830MOL0     C11954   4.887   2.959   8.275 -0.3363  0.9094  0.0563
  830MOL0     C11955   4.746   2.923   8.325 -0.1609 -0.5498 -0.1814
  830MOL0     C11956   4.748   2.781   8.366  0.1830 -0.2434 -0.2275
  830MOL0     C11957   4.605   2.737   8.403  0.6377  0.5128  0.5824
  830MOL0     C11958   4.590   2.585   8.418  1.0575 -0.5342  0.0575
  830MOL0     C11959   4.585   2.502   8.292  0.4903  0.3064  0.4072
  830MOL0    Cl11960   4.432   2.530   8.203  0.1906 -0.0604  0.1260
  830MOL0     C11961   5.215   3.484   8.267 -0.1290 -0.5289  0.4104
  830MOL0     C11962   5.332   3.556   8.265 -0.0717  0.8452  0.2278
  830MOL0     O11963   5.676   3.421   8.138 -0.6497 -0.3928 -0.2971
  830MOL0     C11964   5.814   3.612   8.410 -0.5398  0.3748  0.7822
  830MOL0     C11965   5.928   3.680   8.452 -0.6516 -0.6629 -0.0887
  830MOL0     N11966   6.826   3.567   8.445 -0.5677 -0.4725 -0.4373
  830MOL0     N11967   6.951   3.547   8.412 -0.2686 -0.3502 -0.2138
  830MOL0     C11968   7.936   3.051   8.136 -0.6314  0.3721  0.9142
  830MOL0     C11969   8.029   2.970   8.209 -0.4796 -0.0620 -0.4614
  830MOL0     C11970   8.344   2.767   8.431  0.1637  0.3731  0.4203
  830MOL0     C11971   8.334   2.633   8.479 -0.2740 -1.1777  1.2560
  830MOL0     C11972   8.451   2.563   8.507  0.3146 -0.3863 -0.0607
  830MOL0     C11973   8.578   2.612   8.478 -0.3568 -0.3920 -0.4998
  830MOL0     O11974   8.692   2.536   8.478 -0.3269  0.3977  0.4370
  830MOL0     C11975   8.690   2.392   8.505  0.1831  0.2817  0.0552
  830MOL0     C11976   8.701   2.370   8.652 -0.5376  0.0457  0.6500
  830MOL0     C11977   8.830   2.418   8.719 -0.4210  0.0886 -0.6961
  830MOL0     C11978   8.810   2.453   8.868  0.4738  0.2615  0.6994
  830MOL0     C11979   8.941   2.487   8.923 -0.3412 -0.1871  1.0378
  830MOL0     C11980   9.059   2.499   8.964  0.0772  0.1287  0.4380
  830MOL0     C11981   8.583   2.734   8.410  0.0197  1.1723 -0.1719
  830MOL0     C11982   8.467   2.813   8.388 -0.6793 -0.1523 -0.4700
  830MOL0     H11983   8.270   3.203   8.241 -0.1585 -2.0766  0.9421
  830MOL0     H11984   8.104   3.344   8.120 -1.0360 -0.2731 -0.8643
  830MOL0     H11985   7.681   3.177   8.128 -0.2779  0.9751  0.1916
  830MOL0     H11986   7.734   3.331   8.206  0.8510 -1.6420  1.3142
  830MOL0     H11987   7.662   3.443   7.992  0.9871  0.5886  3.1909
  830MOL0     H11988   7.628   3.283   7.912 -0.9931  0.6883  1.0748
  830MOL0     H11989   7.454   3.265   8.102 -0.2323  0.2585 -0.4315
  830MOL0     H11990   7.503   3.430   8.144 -1.7994 -1.1100 -0.0556
  830MOL0     H11991   7.439   3.508   7.912  0.3129 -0.4920 -0.1699
  830MOL0     H11992   7.384   3.354   7.870 -3.5656  1.5283 -1.2952
  830MOL0     H11993   7.197   3.471   7.922  4.0936  0.3009 -2.4877
  830MOL0     H11994   7.212   3.348   8.048 -0.3369  0.4988  0.3761
  830MOL0     H11995   7.325   3.544   8.199 -0.9494  2.2585  2.2658
  830MOL0     H11996   7.267   3.652   8.072  1.7507 -0.9748 -0.1909
  830MOL0     H11997   7.034   3.588   8.100  0.7777  0.6229 -2.4021
  830MOL0     H11998   7.083   3.468   8.213 -2.0688  0.9495 -0.9133
  830MOL0     H11999   7.116   3.770   8.227 -0.9700 -0.0234  0.5863
  830MOL0     H12000   7.197   3.671   8.352  0.0832  1.1497  1.0740
  830MOL0     H12001   6.901   3.857   8.338 -0.1552 -0.3141  1.1391
  830MOL0     H12002   6.636   3.753   8.546  0.0481  0.1925  0.3246
  830MOL0     H12003   6.679   3.853   8.408  0.0957  0.0176  3.1905
  830MOL0     H12004   6.524   3.586   8.384  2.3680  0.7658  1.2466
  830MOL0     H12005   6.548   3.714   8.261  0.9613  2.1522  0.7031
  830MOL0     H12006   6.426   3.867   8.388 -1.6315  0.7546  1.2002
  830MOL0     H12007   6.408   3.764   8.527 -0.6006  0.6101 -0.0128
  830MOL0     H12008   6.290   3.597   8.335 -1.3890  0.4284 -2.8334
  830MOL0     H12009   6.268   3.753   8.260 -3.1505  1.4857  1.3757
  830MOL0     H12010   6.112   3.647   8.177 -3.0713 -0.5114 -1.7474
  830MOL0     H12011   5.992   3.572   7.985 -0.2414 -1.3285 -1.1370
  830MOL0     H12012   5.901   3.430   8.039 -0.5822 -1.3174 -0.2894
  830MOL0     H12013   5.807   3.573   8.007 -0.0011 -1.1328  1.2603
  830MOL0     H12014   5.541   3.286   8.279  0.9106  0.5422 -0.7858
  830MOL0     H12015   5.337   3.162   8.261  2.5883  0.8472 -2.4485
  830MOL0     H12016   5.113   3.094   8.194  0.6425 -2.0672  2.1117
  830MOL0     H12017   5.112   3.107   8.363 -0.9013 -1.2173  1.2548
  830MOL0     H12018   4.858   3.146   8.379  1.6547  1.6616  0.4539
  830MOL0     H12019   4.856   3.155   8.200  1.1793 -1.8009 -2.2012
  830MOL0     H12020   4.950   2.907   8.348 -0.0760 -2.3567 -2.2590
  830MOL0     H12021   4.910   2.909   8.180  1.7063  0.6264  0.6409
  830MOL0     H12022   4.723   2.976   8.418 -2.3789  0.4171 -1.2057
  830MOL0     H12023   4.673   2.941   8.245  0.1349  0.6257 -0.1953
  830MOL0     H12024   4.816   2.756   8.447 -1.0814 -0.8397  0.6909
  830MOL0     H12025   4.794   2.734   8.278  3.3118  2.6722 -0.3192
  830MOL0     H12026   4.578   2.789   8.495 -1.1320 -1.1214  1.0502
  830MOL0     H12027   4.534   2.782   8.333  2.7805  2.6937 -0.3628
  830MOL0     H12028   4.501   2.565   8.478 -0.7285  2.3710 -1.4196
  830MOL0     H12029   4.684   2.562   8.471  1.1448 -0.7338 -0.1806
  830MOL0     H12030   4.588   2.393   8.302 -2.7406 -0.0983 -1.6084
  830MOL0     H12031   4.675   2.534   8.239 -0.8710  1.5461 -1.2894
  830MOL0     H12032   5.119   3.530   8.243 -0.6492 -3.3229 -4.0439
  830MOL0     H12033   5.324   3.664   8.272  0.0205  0.7451  2.3989
  830MOL0     H12034   5.727   3.599   8.473 -1.9386 -0.4409 -1.2209
  830MOL0     H12035   5.932   3.725   8.551  3.7027 -1.3697  0.2868
  830MOL0     H12036   7.842   3.004   8.110 -1.9406  3.7203 -1.0654
  830MOL0     H12037   7.997   2.868   8.231 -1.0346 -0.2589 -2.0089
  830MOL0     H12038   8.237   2.598   8.512 -1.2919  2.6034  2.6954
  830MOL0     H12039   8.439   2.464   8.549  0.9733 -1.8004 -2.9181
  830MOL0     H12040   8.595   2.345   8.478 -1.1229  2.1669  1.1805
  830MOL0     H12041   8.759   2.342   8.436 -1.7921 -4.3856  1.0507
  830MOL0     H12042   8.694   2.262   8.668 -0.4497 -0.1536 -0.5704
  830MOL0     H12043   8.619   2.419   8.707 -1.3730 -1.1819  0.5472
  830MOL0     H12044   8.842   2.515   8.671 -0.1948  0.2500 -0.3144
  830MOL0     H12045   8.920   2.363   8.689  1.0085  2.2100 -0.5503
  830MOL0     H12046   8.756   2.378   8.927  1.8163 -1.1412  0.2094
  830MOL0     H12047   8.743   2.540   8.873  2.6766  2.0794  0.0954
  830MOL0     H12048   9.162   2.510   8.992  0.4691 -2.3857  0.1883
  830MOL0     H12049   8.684   2.763   8.385 -0.5921 -0.1746 -5.2143
  830MOL0     H12050   8.482   2.910   8.341  0.5212 -1.5476 -3.2113
  831MOL0     O12051   1.151   8.225   9.520  0.2000 -0.5723 -0.4483
  831MOL0     C12052   1.194   8.184   9.629  0.4229 -0.0130  0.5703
  831MOL0     O12053   1.113   8.155   9.739 -0.1569 -0.7721 -0.0792
  831MOL0     C12054   0.981   8.186   9.732 -0.1935  0.8744 -0.6020
  831MOL0     C12055   0.916   8.300   9.685 -0.7547  0.3578  0.2569
  831MOL0     C12056   0.773   8.305   9.692  0.0309 -0.4810 -0.1101
  831MOL0     C12057   0.696   8.198   9.737 -0.0586 -0.1613 -0.4580
  831MOL0     O12058   0.554   8.217   9.748 -0.4119 -0.0644  0.1210
  831MOL0     C12059   0.478   8.098   9.759  0.3713  0.3219 -0.7329
  831MOL0     C12060   0.333   8.135   9.762 -0.4535 -0.4544 -0.1312
  831MOL0     C12061   0.262   7.998   9.780 -0.3713 -0.1818  0.1805
  831MOL0     C12062   0.112   8.029   9.823  0.2623  0.4963 -0.2163
  831MOL0     C12063   0.029   7.906   9.818  0.6305  0.3589  0.0213
  831MOL0     C12064  -0.101   7.921   9.889 -0.2679  0.3078  1.0291
  831MOL0     C12065  -0.176   7.786   9.883  0.5054  0.9025  0.3868
  831MOL0     C12066  -0.125   7.691   9.987 -0.1061 -0.5371  0.2902
  831MOL0     N12067  -0.203   7.570  10.002 -0.2393  0.7047  0.4055
  831MOL0     C12068  -0.338   7.560  10.018 -0.5197  0.3799  0.1281
  831MOL0     C12069  -0.373   7.435  10.014 -0.1690 -0.7602 -0.2940
  831MOL0     C12070  -0.515   7.382  10.021  0.4435 -0.0529  0.0070
  831MOL0     C12071  -0.551   7.303  10.152  0.3848 -0.2122  0.1795
  831MOL0     C12072  -0.684   7.221  10.128  0.4222  0.0000 -1.2856
  831MOL0     C12073  -0.805   7.314  10.098  0.4852 -0.3313  0.6823
  831MOL0     O12074  -0.813   7.335   9.952 -0.0668 -0.1027  0.5736
  831MOL0     C12075  -0.929   7.410   9.921  0.1205 -0.0342 -0.2141
  831MOL0     C12076  -0.932   7.546   9.928 -0.1465  0.0677  0.5723
  831MOL0     C12077  -1.048   7.622   9.900 -0.8968  0.1024  0.5544
  831MOL0     C12078  -1.038   7.769   9.915 -0.1659  0.0438  0.1052
  831MOL0     C12079  -1.164   7.557   9.862  0.7334  0.1983  0.3888
  831MOL0     C12080  -1.294   7.632   9.811  0.8471 -0.2249  0.0530
  831MOL0     O12081  -1.404   7.559   9.770  0.5779  0.0169 -0.4035
  831MOL0     C12082  -1.531   7.614   9.757  0.5493 -0.0738  0.0057
  831MOL0     C12083  -1.614   7.633   9.872 -0.3019  0.5670 -0.2947
  831MOL0     C12084  -1.747   7.663   9.847 -0.2340  0.3716 -0.3957
  831MOL0     C12085  -1.794   7.690   9.718 -0.2291  0.0233 -0.2529
  831MOL0     O12086  -1.925   7.716   9.684 -0.0577  0.4347 -0.3023
  831MOL0     C12087  -2.022   7.676   9.782  1.1075 -0.7406 -0.1504
  831MOL0     C12088  -2.167   7.676   9.720  0.7308 -0.1113 -0.3612
  831MOL0     C12089  -2.173   7.551   9.628 -0.5844  0.0619 -0.7194
  831MOL0     C12090  -2.304   7.539   9.552 -0.0985 -0.7154  0.0969
  831MOL0     C12091  -2.318   7.425   9.466  0.4701  0.5127  0.7452
  831MOL0     C12092  -2.466   7.397   9.428 -0.3300 -0.2840 -0.2518
  831MOL0     C12093  -2.474   7.315   9.297 -0.3374 -0.1901  0.5199
  831MOL0     C12094  -2.609   7.321   9.230 -0.9326  0.1080 -0.5026
  831MOL0    Cl12095  -2.606   7.222   9.079 -0.3738  0.1915  0.1196
  831MOL0     C12096  -1.705   7.681   9.612  0.7980 -0.3477 -0.3893
  831MOL0     C12097  -1.576   7.636   9.632 -0.3016 -0.0660  0.4645
  831MOL0     O12098  -1.297   7.753   9.807 -0.1059  0.3073 -0.1373
  831MOL0     C12099  -1.159   7.419   9.857  0.3778 -0.1899  0.6055
  831MOL0     C12100  -1.046   7.347   9.879 -0.5734  0.2170  0.5313
  831MOL0     N12101  -0.258   7.359  10.006  0.5050  0.1707  0.6446
  831MOL0     N12102  -0.158   7.439   9.996 -0.5922 -0.2551  0.1033
  831MOL0     C12103   0.766   8.092   9.786  0.2179  0.6351  0.0472
  831MOL0     C12104   0.904   8.080   9.785 -0.2986  0.6897  0.3132
  831MOL0     C12105   1.340   8.160   9.635 -0.8270 -0.5017  0.3140
  831MOL0     C12106   1.386   8.096   9.750 -0.5045  0.5502 -0.5067
  831MOL0     C12107   1.513   8.050   9.758 -0.2822 -0.1660  0.3842
  831MOL0     C12108   1.599   8.067   9.656  0.2318  0.2040 -0.8689
  831MOL0     O12109   1.723   8.007   9.678 -0.1709 -0.1183 -0.4245
  831MOL0     C12110   1.809   8.013   9.569 -0.4270  0.5417  0.2228
  831MOL0     C12111   1.945   7.953   9.603 -0.0830  0.4055 -0.6941
  831MOL0     C12112   1.925   7.803   9.629  0.0923  0.3106 -0.2741
  831MOL0     C12113   2.046   7.739   9.685  0.2283  0.7470  0.1252
  831MOL0     C12114   2.167   7.734   9.594 -0.2307  0.6762  0.1715
  831MOL0     C12115   2.272   7.729   9.537 -0.5494  0.0212  0.2055
  831MOL0     C12116   1.561   8.145   9.548 -0.2710 -0.4526  0.4948
  831MOL0     C12117   1.429   8.189   9.537 -0.1456  0.4663  0.6873
  831MOL0     H12118   0.962   8.377   9.624  2.0511 -1.1695  0.2674
  831MOL0     H12119   0.715   8.394   9.668 -2.8933 -1.9507  0.9421
  831MOL0     H12120   0.487   8.028   9.675  2.5840 -0.4470  0.0669
  831MOL0     H12121   0.498   8.045   9.852 -0.0701  0.6560 -0.4500
  831MOL0     H12122   0.308   8.197   9.849  0.9475  0.6152 -0.4537
  831MOL0     H12123   0.308   8.187   9.669 -3.2069 -0.2512  0.6247
  831MOL0     H12124   0.266   7.945   9.685  0.1892  3.3184 -1.9317
  831MOL0     H12125   0.315   7.937   9.854 -2.6882 -0.5788  1.6179
  831MOL0     H12126   0.110   8.065   9.927  0.9707  0.0052 -0.0207
  831MOL0     H12127   0.066   8.108   9.764 -3.3250 -0.3261  1.2593
  831MOL0     H12128   0.010   7.867   9.718  2.0393  1.2855 -0.6405
  831MOL0     H12129   0.094   7.830   9.863  2.3139  2.2370  0.9443
  831MOL0     H12130  -0.092   7.958   9.991  1.9650 -0.7068  1.2738
  831MOL0     H12131  -0.157   7.998   9.836 -0.6733  0.4676  1.6864
  831MOL0     H12132  -0.281   7.812   9.896  0.7807  2.8222 -0.6987
  831MOL0     H12133  -0.176   7.749   9.780 -2.6154  0.6477  0.3842
  831MOL0     H12134  -0.115   7.752  10.077  0.3848 -1.4799  0.8859
  831MOL0     H12135  -0.027   7.659   9.951 -1.1627 -2.6774 -0.8616
  831MOL0     H12136  -0.405   7.645  10.007  0.8546  1.2725 -1.9293
  831MOL0     H12137  -0.582   7.468  10.019 -1.5015 -1.4931  0.4454
  831MOL0     H12138  -0.537   7.334   9.925  1.8579  0.0893 -0.4149
  831MOL0     H12139  -0.559   7.369  10.239  0.7632 -0.7228  0.6045
  831MOL0     H12140  -0.472   7.232  10.179 -0.6704 -0.8859  1.5685
  831MOL0     H12141  -0.705   7.165  10.220 -1.6065  0.3172 -1.5014
  831MOL0     H12142  -0.666   7.145  10.051  1.6836 -0.8271 -0.2266
  831MOL0     H12143  -0.807   7.411  10.148 -1.1713  0.3316 -0.5729
  831MOL0     H12144  -0.898   7.264  10.125  1.2391 -2.9894 -1.1927
  831MOL0     H12145  -0.837   7.595   9.949 -0.0909  0.4751 -0.5683
  831MOL0     H12146  -1.069   7.824   9.825 -2.5943  0.7201  1.2745
  831MOL0     H12147  -1.095   7.803  10.002 -3.4625 -1.4450 -1.3186
  831MOL0     H12148  -0.936   7.804   9.935 -1.0757  2.9359  0.1684
  831MOL0     H12149  -1.571   7.612   9.969 -1.3942 -0.6977 -0.0437
  831MOL0     H12150  -1.819   7.662   9.928 -0.1048 -0.5385 -0.2848
  831MOL0     H12151  -2.013   7.583   9.839  0.6785 -2.2918 -2.4612
  831MOL0     H12152  -2.030   7.757   9.855 -0.8858 -0.3786 -0.6988
  831MOL0     H12153  -2.251   7.680   9.790  1.7213  0.4499  0.8291
  831MOL0     H12154  -2.183   7.764   9.657 -1.0608  1.1276  1.7044
  831MOL0     H12155  -2.146   7.464   9.688 -0.3251  1.3499  1.1069
  831MOL0     H12156  -2.095   7.557   9.552  2.2555 -1.4768  1.8280
  831MOL0     H12157  -2.384   7.528   9.626 -0.4532  1.7965  0.1868
  831MOL0     H12158  -2.313   7.631   9.494  2.3911 -1.2673 -1.3333
  831MOL0     H12159  -2.280   7.331   9.508 -3.1892 -0.9761  1.1318
  831MOL0     H12160  -2.260   7.439   9.374  2.7706 -1.9407  1.6937
  831MOL0     H12161  -2.513   7.346   9.512  0.5483  1.1889  1.2024
  831MOL0     H12162  -2.520   7.491   9.414 -0.8056 -0.4462  0.4819
  831MOL0     H12163  -2.450   7.211   9.322 -2.7351 -0.5553  1.5313
  831MOL0     H12164  -2.398   7.353   9.228 -2.4774 -0.4915 -2.1728
  831MOL0     H12165  -2.633   7.423   9.200  0.3895  1.3156  2.2478
  831MOL0     H12166  -2.685   7.274   9.293 -2.5336  1.3715 -1.4252
  831MOL0     H12167  -1.740   7.702   9.512  1.2747 -0.8402 -0.6623
  831MOL0     H12168  -1.519   7.641   9.540 -0.4385 -2.5454  0.1650
  831MOL0     H12169  -1.247   7.362   9.828  1.3821 -0.6719 -1.7540
  831MOL0     H12170  -1.045   7.239   9.878  2.3994  0.1400 -0.3319
  831MOL0     H12171   0.710   8.009   9.829  1.3028  1.3353  3.1003
  831MOL0     H12172   0.947   7.986   9.818 -0.7712 -0.1300 -1.3148
  831MOL0     H12173   1.322   8.069   9.834 -2.7850  0.8698 -2.0606
  831MOL0     H12174   1.550   7.990   9.841  0.5329 -2.9653 -1.8431
  831MOL0     H12175   1.767   7.955   9.486  3.2127 -0.4463 -1.1430
  831MOL0     H12176   1.825   8.117   9.543 -0.5953  0.5523  0.1647
  831MOL0     H12177   1.978   7.999   9.696  1.3592 -0.8202 -0.5558
  831MOL0     H12178   2.019   7.974   9.526  1.5942 -0.9874  0.4333
  831MOL0     H12179   1.903   7.756   9.533 -2.0428  1.2183 -0.2954
  831MOL0     H12180   1.833   7.761   9.671  0.1387 -0.7235 -1.1717
  831MOL0     H12181   2.006   7.639   9.706  1.2205  0.3809  0.3322
  831MOL0     H12182   2.072   7.773   9.786  0.8362 -0.8410  0.5298
  831MOL0     H12183   2.367   7.738   9.489  0.0257 -1.5712  0.9874
  831MOL0     H12184   1.621   8.168   9.461 -1.1092  0.3990  0.1179
  831MOL0     H12185   1.411   8.253   9.451 -0.6377 -2.4708 -1.5484
  832MOL0     O12186  11.214   8.430   5.398  0.2677  0.2890  0.3034
  832MOL0     C12187  11.311   8.498   5.433 -0.0571 -0.3702  0.7355
  832MOL0     O12188  11.405   8.545   5.343 -0.1939 -0.6460 -0.4105
  832MOL0     C12189  11.368   8.550   5.215 -0.0873 -0.1184 -0.4153
  832MOL0     C12190  11.461   8.493   5.117 -0.5719 -0.2836 -1.4628
  832MOL0     C12191  11.431   8.498   4.980  0.0509 -0.7119  0.1124
  832MOL0     C12192  11.313   8.569   4.932 -0.4463  0.1388 -0.1010
  832MOL0     O12193  11.265   8.585   4.802  0.6451  0.1529 -0.2451
  832MOL0     C12194  11.348   8.552   4.695  0.2469  0.0280  0.5268
  832MOL0     C12195  11.258   8.532   4.570  0.0335 -0.6976 -0.6905
  832MOL0     C12196  11.183   8.656   4.526  0.1505 -0.9938  0.6782
  832MOL0     C12197  11.268   8.736   4.420  0.0268 -0.4556  0.7325
  832MOL0     C12198  11.179   8.832   4.334  0.4529 -0.1245 -0.5298
  832MOL0     C12199  11.129   8.952   4.409  1.2333 -0.0423  0.1023
  832MOL0     C12200  11.062   9.052   4.327  0.0117 -0.0276  0.9260
  832MOL0     C12201  10.944   8.998   4.241 -0.5905 -0.8782 -0.8066
  832MOL0     N12202  10.830   8.947   4.313  0.3965  0.0547  0.6255
  832MOL0     C12203  10.759   9.023   4.414  1.0539 -0.9538 -0.1453
  832MOL0     C12204  10.654   8.946   4.450  0.7300  0.2333  0.4234
  832MOL0     C12205  10.557   8.967   4.561 -0.3249  0.0454  0.5737
  832MOL0     C12206  10.437   9.055   4.520 -0.4100  0.2556 -0.5866
  832MOL0     C12207  10.349   9.012   4.407 -0.1255  0.7098  0.5066
  832MOL0     C12208  10.213   9.083   4.424  0.1649 -0.2257  0.1096
  832MOL0     O12209  10.119   9.002   4.489 -0.5041  0.4874 -0.0121
  832MOL0     C12210  10.008   9.057   4.545 -0.5853  0.0820  0.8731
  832MOL0     C12211   9.977   9.063   4.682 -0.2803 -0.2988  0.1476
  832MOL0     C12212   9.856   9.109   4.731 -0.7964  0.0807 -0.0580
  832MOL0     C12213   9.844   9.107   4.881 -0.0675 -0.3427  0.3858
  832MOL0     C12214   9.758   9.157   4.647 -0.1305 -0.3305 -0.1078
  832MOL0     C12215   9.619   9.214   4.684 -0.5339  0.2761 -0.4330
  832MOL0     O12216   9.538   9.266   4.587  0.1341 -0.1760 -0.7774
  832MOL0     C12217   9.412   9.301   4.620 -0.3195 -0.5579  0.2227
  832MOL0     C12218   9.376   9.399   4.714  0.3213  0.6636 -0.5466
  832MOL0     C12219   9.239   9.435   4.733 -0.4216 -0.2652  0.7641
  832MOL0     C12220   9.133   9.354   4.668  0.2336 -0.1961  0.9282
  832MOL0     O12221   9.006   9.394   4.689 -0.4737 -0.0481 -0.1834
  832MOL0     C12222   8.903   9.306   4.644 -0.0306 -0.6318  1.4493
  832MOL0     C12223   8.766   9.346   4.696  0.3514 -0.2137 -0.5316
  832MOL0     C12224   8.726   9.494   4.655 -0.0071  0.2489 -0.4449
  832MOL0     C12225   8.582   9.525   4.713  0.5319 -0.2637  0.2158
  832MOL0     C12226   8.476   9.499   4.605  0.0071  0.1214  0.4053
  832MOL0     C12227   8.338   9.543   4.642  0.6923 -0.3436  0.3292
  832MOL0     C12228   8.237   9.521   4.535  0.2460  0.7799  0.2731
  832MOL0     C12229   8.255   9.579   4.400  0.2900  0.5179  0.5897
  832MOL0    Cl12230   8.277   9.753   4.413  0.5623  0.0477  0.2284
  832MOL0     C12231   9.173   9.256   4.567  0.0729 -0.2012  0.3520
  832MOL0     C12232   9.318   9.234   4.550  0.3716 -0.4357  0.2651
  832MOL0     O12233   9.588   9.216   4.801 -0.1108  0.6211  0.2781
  832MOL0     C12234   9.788   9.160   4.512 -0.2842 -0.0056  0.3892
  832MOL0     C12235   9.907   9.108   4.461  0.1722  0.4105  0.3315
  832MOL0     N12236  10.659   8.829   4.375  0.2238 -0.0767  0.3685
  832MOL0     N12237  10.765   8.831   4.299 -0.2437  0.6814  0.0845
  832MOL0     C12238  11.229   8.615   5.025 -0.2813 -0.2548  0.1884
  832MOL0     C12239  11.249   8.614   5.162 -1.1888  0.1506 -0.1785
  832MOL0     C12240  11.331   8.510   5.575 -0.3772 -0.4110 -0.6501
  832MOL0     C12241  11.226   8.486   5.668  0.4096  0.0515  0.3802
  832MOL0     C12242  11.238   8.512   5.805  0.0429 -0.0013 -0.9252
  832MOL0     C12243  11.354   8.567   5.861  0.0520 -0.1494  1.0331
  832MOL0     O12244  11.375   8.582   5.995  0.3842  0.5658  0.4804
  832MOL0     C12245  11.267   8.608   6.088 -0.3253  0.5372 -0.6679
  832MOL0     C12246  11.316   8.663   6.223 -0.3413 -0.6339 -0.1953
  832MOL0     C12247  11.193   8.721   6.293  0.7608 -0.2235 -0.2435
  832MOL0     C12248  11.222   8.841   6.388 -0.7903 -0.0644  0.0096
  832MOL0     C12249  11.096   8.903   6.434  0.1617 -0.6677  0.0717
  832MOL0     C12250  10.995   8.964   6.476  0.2203 -0.6200 -0.7036
  832MOL0     C12251  11.459   8.591   5.769 -0.3238  0.2883  1.1348
  832MOL0     C12252  11.447   8.562   5.633  0.3867  0.3925  0.2333
  832MOL0     H12253  11.547   8.435   5.149 -1.8555 -2.0784 -1.1088
  832MOL0     H12254  11.505   8.457   4.912 -0.1643 -0.5341 -0.2353
  832MOL0     H12255  11.416   8.634   4.670 -1.1731  0.8013 -1.0058
  832MOL0     H12256  11.400   8.457   4.710  1.0261 -0.4789 -3.9281
  832MOL0     H12257  11.314   8.493   4.484  0.0875  0.9418 -1.4371
  832MOL0     H12258  11.188   8.454   4.600 -0.3197  0.7369  2.6041
  832MOL0     H12259  11.084   8.630   4.487 -0.1097  1.3265 -0.3689
  832MOL0     H12260  11.156   8.724   4.607  3.0457  1.6197 -0.3363
  832MOL0     H12261  11.343   8.796   4.473 -0.9765  0.9094  0.6549
  832MOL0     H12262  11.312   8.663   4.351  1.6348 -0.2935  1.5316
  832MOL0     H12263  11.220   8.870   4.240 -0.2268 -0.6202 -1.0369
  832MOL0     H12264  11.090   8.773   4.312 -0.8423  0.5062  2.5559
  832MOL0     H12265  11.064   8.926   4.494  2.5914 -3.3561  0.2976
  832MOL0     H12266  11.216   8.999   4.455  1.3397 -0.3912  0.2681
  832MOL0     H12267  11.026   9.138   4.384 -0.2893  2.6047 -2.8085
  832MOL0     H12268  11.144   9.082   4.261  1.8685 -1.1401  2.6279
  832MOL0     H12269  10.969   8.926   4.163 -1.5775 -0.4023 -1.5938
  832MOL0     H12270  10.920   9.088   4.182  0.3259 -1.7534 -2.5903
  832MOL0     H12271  10.779   9.114   4.469 -0.2469 -0.5653 -0.2786
  832MOL0     H12272  10.541   8.880   4.625  1.6328  0.1792  1.3235
  832MOL0     H12273  10.607   9.030   4.635 -3.1437  2.1819  0.8037
  832MOL0     H12274  10.479   9.153   4.497  0.6533 -0.1960 -0.6029
  832MOL0     H12275  10.379   9.063   4.612 -1.2188  1.9643 -1.1929
  832MOL0     H12276  10.337   8.904   4.414  1.4184  0.5329  0.7179
  832MOL0     H12277  10.392   9.039   4.310  0.9941 -2.1382  0.1384
  832MOL0     H12278  10.165   9.101   4.327 -0.3617  1.7759  0.7160
  832MOL0     H12279  10.225   9.183   4.466 -4.1362  0.5843 -0.1460
  832MOL0     H12280  10.057   9.039   4.751 -0.1881 -0.5627 -0.0477
  832MOL0     H12281   9.753   9.058   4.914  0.5915 -3.1808 -1.5893
  832MOL0     H12282   9.930   9.068   4.936  1.3469  0.9082 -0.8356
  832MOL0     H12283   9.830   9.209   4.917 -2.9031 -0.6997  0.4661
  832MOL0     H12284   9.449   9.446   4.779  1.3694 -3.3407  1.4994
  832MOL0     H12285   9.215   9.522   4.793 -2.1227  0.4712 -0.8961
  832MOL0     H12286   8.901   9.309   4.534  1.8760 -2.3437  1.2885
  832MOL0     H12287   8.930   9.205   4.678  0.4312 -1.0021  0.1008
  832MOL0     H12288   8.683   9.282   4.667  0.8205 -1.5129  0.8594
  832MOL0     H12289   8.770   9.333   4.804 -1.9677 -1.6317 -0.5397
  832MOL0     H12290   8.716   9.515   4.548  1.6280  2.3620 -0.2548
  832MOL0     H12291   8.806   9.559   4.691  0.5438 -1.4346  1.5802
  832MOL0     H12292   8.550   9.471   4.803  0.2227  2.0237  1.5872
  832MOL0     H12293   8.578   9.632   4.739  1.9901 -0.2221  0.3591
  832MOL0     H12294   8.479   9.391   4.590  2.3464 -0.0532  1.6817
  832MOL0     H12295   8.511   9.545   4.512  0.9787  0.0286  0.7129
  832MOL0     H12296   8.305   9.477   4.723 -2.7712 -0.3063 -0.8775
  832MOL0     H12297   8.343   9.651   4.657 -2.2643 -0.3327  1.9046
  832MOL0     H12298   8.138   9.555   4.565 -0.6306 -0.0269 -1.5378
  832MOL0     H12299   8.222   9.414   4.516 -1.2459  0.9963  0.1252
  832MOL0     H12300   8.178   9.540   4.334  1.4027 -1.9917  0.6853
  832MOL0     H12301   8.348   9.536   4.362  0.2606  1.6400 -0.8451
  832MOL0     H12302   9.098   9.202   4.510 -0.0107  0.4507 -0.1664
  832MOL0     H12303   9.350   9.156   4.482 -1.2857  0.8515 -2.1201
  832MOL0     H12304   9.729   9.202   4.431  2.9922  1.4976 -1.4523
  832MOL0     H12305   9.924   9.102   4.354 -1.0976 -2.8017  0.1702
  832MOL0     H12306  11.135   8.659   4.993 -0.3293 -0.2016  0.3982
  832MOL0     H12307  11.164   8.637   5.225 -1.7375 -1.1504 -0.4079
  832MOL0     H12308  11.130   8.447   5.635 -0.7576  1.0352  2.4097
  832MOL0     H12309  11.155   8.478   5.866  0.4279  0.0059 -0.3902
  832MOL0     H12310  11.196   8.678   6.044 -1.2801  0.6127  0.8874
  832MOL0     H12311  11.207   8.521   6.116 -2.0890  1.5083 -1.2696
  832MOL0     H12312  11.386   8.746   6.212 -3.8547  2.9637  1.7202
  832MOL0     H12313  11.355   8.583   6.286 -0.6568  0.1827  1.0771
  832MOL0     H12314  11.148   8.642   6.354  4.0097 -1.8474  0.2895
  832MOL0     H12315  11.119   8.744   6.216 -0.8250 -4.6015 -0.3278
  832MOL0     H12316  11.282   8.917   6.336  0.2280 -2.5212 -2.6668
  832MOL0     H12317  11.270   8.802   6.478 -2.8471 -4.7897 -0.6494
  832MOL0     H12318  10.914   9.024   6.514  1.0901  1.2920 -1.7421
  832MOL0     H12319  11.552   8.629   5.810  0.4329  1.3542 -1.4163
  832MOL0     H12320  11.525   8.606   5.572 -0.5324  1.2658 -0.3457
  833MOL0     O12321   5.812   5.094   0.918  0.4598 -0.6226  0.2524
  833MOL0     C12322   5.776   5.028   1.018 -0.1599 -0.5664  0.0451
  833MOL0     O12323   5.649   4.996   1.045  0.6703 -0.4546 -0.0417
  833MOL0     C12324   5.553   5.077   0.980  0.3036  0.8337  0.9082
  833MOL0     C12325   5.506   5.184   1.052 -0.4256 -0.5557  0.1166
  833MOL0     C12326   5.410   5.270   1.001  0.0827  0.4116  0.3026
  833MOL0     C12327   5.367   5.251   0.865 -0.2861  0.4081 -0.9907
  833MOL0     O12328   5.268   5.326   0.803  0.6135  0.5598  0.2862
  833MOL0     C12329   5.213   5.444   0.872  0.4025  0.5493  0.4693
  833MOL0     C12330   5.097   5.520   0.799  0.2943 -0.0029  0.1373
  833MOL0     C12331   4.970   5.445   0.775 -0.6833 -0.3564  0.1347
  833MOL0     C12332   4.852   5.496   0.853  0.2416 -0.5713  0.2483
  833MOL0     C12333   4.721   5.431   0.811 -0.8428 -0.8989  0.3360
  833MOL0     C12334   4.602   5.470   0.892  0.8263 -0.1774 -0.0154
  833MOL0     C12335   4.474   5.424   0.811  0.0584 -0.1988 -0.2006
  833MOL0     C12336   4.344   5.464   0.886 -0.5342 -0.6010 -0.7676
  833MOL0     N12337   4.217   5.413   0.832 -0.2134 -0.2965 -0.5868
  833MOL0     C12338   4.191   5.287   0.785 -0.1464  0.5181 -0.5499
  833MOL0     C12339   4.067   5.301   0.741  0.4113  0.4436  0.4697
  833MOL0     C12340   3.987   5.189   0.680 -0.2372  0.3984  0.0048
  833MOL0     C12341   3.865   5.130   0.765 -0.4624 -0.5679 -0.6386
  833MOL0     C12342   3.746   5.228   0.739 -0.3193  0.2555 -0.4497
  833MOL0     C12343   3.616   5.188   0.800 -0.8019  0.0541  0.0967
  833MOL0     O12344   3.573   5.056   0.766 -0.3912  0.7451 -0.1364
  833MOL0     C12345   3.447   5.040   0.815 -0.6127  0.8631 -0.2763
  833MOL0     C12346   3.330   5.093   0.759 -0.5953 -0.2509  0.1780
  833MOL0     C12347   3.206   5.080   0.813  0.0626  0.6116 -0.1829
  833MOL0     C12348   3.086   5.119   0.731  0.0038  0.6938 -0.2706
  833MOL0     C12349   3.195   5.005   0.929 -1.0817  0.4518  0.0097
  833MOL0     C12350   3.071   4.995   1.003 -0.0964  0.2434 -0.1265
  833MOL0     O12351   3.056   4.872   1.065 -0.6736 -1.1001  0.0833
  833MOL0     C12352   2.933   4.820   1.097  0.5024  0.0259 -0.4997
  833MOL0     C12353   2.925   4.695   1.151 -0.4094 -0.7977 -0.0033
  833MOL0     C12354   2.808   4.627   1.172  0.3448 -0.3212 -0.1898
  833MOL0     C12355   2.691   4.701   1.162  0.2611  0.5234  0.3291
  833MOL0     O12356   2.561   4.650   1.186 -0.5194  0.2348  0.3474
  833MOL0     C12357   2.548   4.570   1.301  0.0069 -0.6954 -0.4027
  833MOL0     C12358   2.403   4.528   1.304  0.2906  0.1410 -1.2437
  833MOL0     C12359   2.313   4.648   1.341  0.1902  0.8909 -0.2317
  833MOL0     C12360   2.167   4.599   1.346 -0.2208  0.2970  0.1741
  833MOL0     C12361   2.084   4.687   1.434 -0.0634  0.4045 -0.2577
  833MOL0     C12362   2.073   4.825   1.365  0.7572 -0.0289 -0.1536
  833MOL0     C12363   1.979   4.915   1.457  0.3091 -0.4232 -0.1403
  833MOL0     C12364   1.939   5.049   1.389  0.2875  0.3650  0.8067
  833MOL0    Cl12365   1.814   5.129   1.478 -0.0916 -0.0338  0.2967
  833MOL0     C12366   2.695   4.828   1.117 -0.3076 -0.0909  0.2642
  833MOL0     C12367   2.815   4.891   1.080  0.4248 -0.1237  0.1283
  833MOL0     O12368   3.025   5.100   1.046 -0.4766 -0.1613 -0.0658
  833MOL0     C12369   3.307   4.953   0.991 -0.7686 -0.5464 -0.4991
  833MOL0     C12370   3.436   4.965   0.928  0.6249  0.7244 -0.9955
  833MOL0     N12371   4.023   5.429   0.760 -0.2144 -0.4125  0.7904
  833MOL0     N12372   4.115   5.496   0.820  0.5928 -0.3049  0.0236
  833MOL0     C12373   5.424   5.155   0.791  0.0087 -0.8415  0.0778
  833MOL0     C12374   5.510   5.066   0.844 -0.0808 -0.3203 -0.4951
  833MOL0     C12375   5.877   4.987   1.111  0.0183 -0.2981 -0.8659
  833MOL0     C12376   5.849   4.892   1.202  0.5757 -0.8486  0.4044
  833MOL0     C12377   5.950   4.832   1.280 -0.9035  0.2953  0.2000
  833MOL0     C12378   6.083   4.884   1.279 -0.2930  0.7331  0.5544
  833MOL0     O12379   6.185   4.831   1.353 -0.5425 -0.1734 -0.2042
  833MOL0     C12380   6.252   4.915   1.446 -0.4138  0.0061 -0.4615
  833MOL0     C12381   6.369   4.828   1.496 -0.2671  0.6923  1.0027
  833MOL0     C12382   6.478   4.834   1.395 -0.2544  0.1543  0.4209
  833MOL0     C12383   6.597   4.736   1.441  0.0542  0.4541  0.0739
  833MOL0     C12384   6.648   4.794   1.560  0.5274 -0.0835 -0.4700
  833MOL0     C12385   6.686   4.831   1.675 -0.3462 -0.0757  0.2520
  833MOL0     C12386   6.109   4.994   1.194  0.0013 -0.3559 -0.8949
  833MOL0     C12387   6.008   5.057   1.117 -0.3662  0.6848  0.1160
  833MOL0     H12388   5.550   5.205   1.150  2.7716  0.9853 -1.4979
  833MOL0     H12389   5.379   5.348   1.069  0.3670 -0.8171  1.9083
  833MOL0     H12390   5.188   5.415   0.975 -2.8266 -0.9972 -0.5948
  833MOL0     H12391   5.299   5.512   0.873  1.7325 -1.0504  1.6390
  833MOL0     H12392   5.082   5.613   0.854 -1.8332  0.8516 -1.7628
  833MOL0     H12393   5.125   5.539   0.695 -0.1402  3.3471  0.5279
  833MOL0     H12394   4.948   5.434   0.669  1.7874  2.0389 -0.7640
  833MOL0     H12395   4.976   5.341   0.808 -3.0328 -0.3714  0.7268
  833MOL0     H12396   4.868   5.479   0.960  0.3255  1.4057  0.5920
  833MOL0     H12397   4.841   5.604   0.845  0.6089 -0.6740 -2.4632
  833MOL0     H12398   4.705   5.446   0.704  1.0107  0.8563  0.2522
  833MOL0     H12399   4.739   5.325   0.832 -0.1398 -0.6795  0.8698
  833MOL0     H12400   4.600   5.436   0.995  1.1871  2.1695  0.8397
  833MOL0     H12401   4.593   5.579   0.897 -0.2256 -0.3040  1.1798
  833MOL0     H12402   4.484   5.466   0.710  1.8600  0.6400  0.2813
  833MOL0     H12403   4.479   5.315   0.799  0.5098 -0.2798  0.6518
  833MOL0     H12404   4.344   5.573   0.886  0.8160 -0.5488  1.2161
  833MOL0     H12405   4.347   5.432   0.990 -0.2425 -1.5671 -1.0553
  833MOL0     H12406   4.255   5.199   0.788  2.4494  2.3225  2.3362
  833MOL0     H12407   3.945   5.223   0.585  0.2336  0.5323 -0.1597
  833MOL0     H12408   4.055   5.106   0.661  0.9961  1.6259 -1.2692
  833MOL0     H12409   3.886   5.117   0.871  0.0747 -0.5991 -0.7449
  833MOL0     H12410   3.846   5.032   0.720 -3.5892  0.0341 -0.8798
  833MOL0     H12411   3.739   5.243   0.630 -0.8300  1.0868 -0.3106
  833MOL0     H12412   3.756   5.327   0.785  0.7010  0.3153 -0.7697
  833MOL0     H12413   3.550   5.271   0.773 -1.1063 -0.1069  0.3452
  833MOL0     H12414   3.635   5.205   0.906  0.8756  1.0728 -0.3174
  833MOL0     H12415   3.342   5.147   0.665  0.5051  1.2123  1.1150
  833MOL0     H12416   3.018   5.184   0.786 -0.1648 -0.4767  0.9602
  833MOL0     H12417   3.123   5.164   0.639  1.0634  0.2812 -0.0649
  833MOL0     H12418   3.039   5.023   0.708 -0.3401  0.5320  1.0012
  833MOL0     H12419   3.021   4.645   1.159  0.2595  0.7186  3.0630
  833MOL0     H12420   2.809   4.524   1.207  1.1289  0.5327  2.5291
  833MOL0     H12421   2.604   4.480   1.275 -0.5025 -1.5385  1.2154
  833MOL0     H12422   2.580   4.613   1.396 -0.4333 -0.7654 -0.2199
  833MOL0     H12423   2.369   4.486   1.208 -2.7601  0.1614 -0.2783
  833MOL0     H12424   2.395   4.446   1.376  1.9898  0.9774 -0.0489
  833MOL0     H12425   2.320   4.727   1.265  2.2742  0.9464 -0.0579
  833MOL0     H12426   2.338   4.682   1.441  1.3469  0.3135 -0.2935
  833MOL0     H12427   2.118   4.592   1.249 -2.3928  3.3819  0.8685
  833MOL0     H12428   2.175   4.495   1.379  2.1285 -0.3260 -2.0721
  833MOL0     H12429   2.131   4.704   1.532 -0.6039 -0.3875  0.1453
  833MOL0     H12430   1.988   4.636   1.446  0.0951 -0.1556 -1.2554
  833MOL0     H12431   2.160   4.884   1.337 -1.0277  2.1221 -1.5023
  833MOL0     H12432   2.021   4.810   1.270 -0.8568  2.5009  0.2383
  833MOL0     H12433   2.013   4.925   1.560 -1.0456  0.9894  0.1969
  833MOL0     H12434   1.889   4.856   1.476  0.6339 -1.8043 -2.4292
  833MOL0     H12435   1.889   5.029   1.294 -0.1952 -1.1706  1.3340
  833MOL0     H12436   2.027   5.113   1.380 -0.6621  1.5915  0.0277
  833MOL0     H12437   2.602   4.883   1.109 -1.1168 -0.9818  2.7113
  833MOL0     H12438   2.809   4.994   1.047  0.8978 -0.4765 -1.1105
  833MOL0     H12439   3.315   4.893   1.081  2.5893 -1.2710 -1.1564
  833MOL0     H12440   3.517   4.914   0.979 -1.8838 -2.2526  0.3149
  833MOL0     H12441   5.393   5.143   0.688  2.1975  4.2461 -1.5210
  833MOL0     H12442   5.550   4.987   0.781  2.3308 -0.9878  1.6922
  833MOL0     H12443   5.752   4.843   1.190 -0.1849  0.7387 -0.2368
  833MOL0     H12444   5.926   4.739   1.331  0.1993  0.1425  0.4604
  833MOL0     H12445   6.294   5.011   1.415 -0.8357 -0.1190 -1.4657
  833MOL0     H12446   6.194   4.936   1.536  2.2246 -2.3340  1.9744
  833MOL0     H12447   6.335   4.725   1.502  1.3241  0.1798  1.7838
  833MOL0     H12448   6.400   4.856   1.597 -0.5225 -0.0409  1.2918
  833MOL0     H12449   6.516   4.936   1.383  2.5973 -1.1208 -3.5025
  833MOL0     H12450   6.437   4.820   1.295 -0.4473 -1.7109  0.7336
  833MOL0     H12451   6.672   4.730   1.362  0.2375 -0.4151  0.3033
  833MOL0     H12452   6.570   4.633   1.465 -2.1680  0.8186 -0.6418
  833MOL0     H12453   6.700   4.848   1.780  0.9415  0.2733  0.0413
  833MOL0     H12454   6.204   5.042   1.177 -0.6102  0.3900 -2.4390
  833MOL0     H12455   6.031   5.143   1.054  0.0320  0.7441  0.3387
  834MOL0     O12456   0.142   0.910   5.841 -0.6161 -1.2162  0.1428
  834MOL0     C12457   0.198   0.899   5.734  0.5550 -0.5273 -0.7515
  834MOL0     O12458   0.144   0.868   5.618 -0.6065  0.1207 -0.8664
  834MOL0     C12459   0.019   0.812   5.621  0.6597  0.4675  0.0931
  834MOL0     C12460  -0.026   0.717   5.714  0.2829  0.4260  0.0696
  834MOL0     C12461  -0.161   0.669   5.694  0.7375 -0.2972  1.0948
  834MOL0     C12462  -0.242   0.707   5.585 -0.4403  0.3701  0.0360
  834MOL0     O12463  -0.372   0.660   5.564  0.5102  0.7730  0.2765
  834MOL0     C12464  -0.422   0.558   5.654 -0.6494 -0.2870 -0.0079
  834MOL0     C12465  -0.571   0.536   5.629 -0.2792  0.2079  0.1659
  834MOL0     C12466  -0.618   0.531   5.473  0.4856 -0.2732 -0.4251
  834MOL0     C12467  -0.746   0.444   5.457  0.3541  0.0225 -0.2144
  834MOL0     C12468  -0.712   0.291   5.442 -0.1042  0.4000 -0.8048
  834MOL0     C12469  -0.805   0.208   5.353  1.0613  0.0185  0.3026
  834MOL0     C12470  -0.774   0.052   5.370 -0.1685 -0.8003 -0.7121
  834MOL0     C12471  -0.882  -0.029   5.288 -0.5126 -0.2586 -0.1331
  834MOL0     N12472  -0.868  -0.005   5.138  0.0209  0.2856 -0.2090
  834MOL0     C12473  -0.757  -0.054   5.064  0.0743  0.8114  0.2176
  834MOL0     C12474  -0.760   0.020   4.950 -0.2935 -0.2095 -1.1273
  834MOL0     C12475  -0.658   0.003   4.837  0.3339 -0.5899 -0.2865
  834MOL0     C12476  -0.668  -0.135   4.790  0.2264  0.1207  0.0753
  834MOL0     C12477  -0.565  -0.158   4.675  0.7750  0.2092  0.0160
  834MOL0     C12478  -0.418  -0.152   4.718 -0.1412 -0.4666 -0.5571
  834MOL0     O12479  -0.402  -0.242   4.832  1.0096 -0.1664 -0.4795
  834MOL0     C12480  -0.280  -0.305   4.847 -0.3708 -0.2216  0.1202
  834MOL0     C12481  -0.288  -0.447   4.853 -0.2433  1.1471 -0.4364
  834MOL0     C12482  -0.163  -0.510   4.879  0.0587 -0.6147  0.0541
  834MOL0     C12483  -0.172  -0.662   4.875 -0.3299 -0.7757  1.2943
  834MOL0     C12484  -0.041  -0.439   4.917  0.4999 -0.1468 -0.2684
  834MOL0     C12485   0.091  -0.505   4.946  0.3445  0.2611 -1.1016
  834MOL0     O12486   0.195  -0.423   4.983  0.3801 -0.6939  0.4051
  834MOL0     C12487   0.319  -0.480   4.992 -0.4560 -0.1401  0.1560
  834MOL0     C12488   0.400  -0.515   4.885  0.2468 -0.0833  0.1140
  834MOL0     C12489   0.529  -0.552   4.917  0.3820  0.5025  0.4755
  834MOL0     C12490   0.574  -0.569   5.042 -0.6224 -1.0681  0.2120
  834MOL0     O12491   0.707  -0.604   5.059 -0.6637 -0.4998 -0.5752
  834MOL0     C12492   0.724  -0.744   5.101 -0.1422 -0.3594 -0.4166
  834MOL0     C12493   0.872  -0.789   5.092 -0.4533  0.3118 -0.6284
  834MOL0     C12494   0.950  -0.738   5.208 -0.6232 -0.3151 -0.4484
  834MOL0     C12495   1.102  -0.704   5.189  0.2374  0.5772 -0.1468
  834MOL0     C12496   1.167  -0.658   5.312 -1.0286  0.0044 -0.3450
  834MOL0     C12497   1.313  -0.628   5.287 -0.9429 -1.1675 -0.2668
  834MOL0     C12498   1.387  -0.596   5.420  0.8175 -0.3634  0.2971
  834MOL0     C12499   1.508  -0.516   5.381  0.3507  0.2657 -0.5026
  834MOL0    Cl12500   1.596  -0.464   5.529  0.0808  0.5367 -0.1933
  834MOL0     C12501   0.487  -0.536   5.142 -0.9278  0.5505 -0.7031
  834MOL0     C12502   0.364  -0.490   5.120  0.1598  0.6257  0.1190
  834MOL0     O12503   0.103  -0.629   4.937  0.3418  0.8434  0.2464
  834MOL0     C12504  -0.046  -0.301   4.905 -0.2641 -0.6716  0.4253
  834MOL0     C12505  -0.160  -0.235   4.866 -0.7698  0.1669 -0.1597
  834MOL0     N12506  -0.863   0.107   4.963 -0.6695 -1.2870 -0.5632
  834MOL0     N12507  -0.934   0.089   5.064  0.7592 -0.9473 -0.4725
  834MOL0     C12508  -0.190   0.803   5.497 -0.3212  0.7413  0.3739
  834MOL0     C12509  -0.062   0.854   5.512 -0.4072 -0.1789  0.1693
  834MOL0     C12510   0.342   0.957   5.715  0.8715  0.3180 -0.0444
  834MOL0     C12511   0.390   1.051   5.802  0.5047  0.3191 -0.1884
  834MOL0     C12512   0.516   1.104   5.797  0.0947  0.8935  0.6815
  834MOL0     C12513   0.599   1.074   5.688  0.6139 -0.7133  0.6799
  834MOL0     O12514   0.730   1.118   5.677  0.0982 -0.1357  0.0033
  834MOL0     C12515   0.783   1.204   5.779 -0.0854 -0.6005 -0.3682
  834MOL0     C12516   0.738   1.354   5.784 -0.8095 -0.1285  0.5824
  834MOL0     C12517   0.823   1.439   5.877  0.3491  0.3399 -0.2907
  834MOL0     C12518   0.836   1.401   6.023 -0.2480  0.2817 -0.9104
  834MOL0     C12519   0.942   1.302   6.040  0.3398 -1.0445 -0.4361
  834MOL0     C12520   1.018   1.218   6.079  0.1268 -0.6487 -0.3159
  834MOL0     C12521   0.540   0.992   5.589  0.1144 -0.8060  0.1477
  834MOL0     C12522   0.417   0.928   5.598  0.3852 -0.2280 -0.5869
  834MOL0     H12523   0.041   0.673   5.787 -1.1723 -3.0234 -0.4741
  834MOL0     H12524  -0.201   0.592   5.760 -2.0064  1.7986  2.0484
  834MOL0     H12525  -0.365   0.465   5.644 -1.7076 -0.9372 -0.2569
  834MOL0     H12526  -0.407   0.599   5.754 -0.1567  2.7619 -1.2245
  834MOL0     H12527  -0.596   0.446   5.686 -0.6645  0.4177  0.3339
  834MOL0     H12528  -0.630   0.615   5.677  1.6299  1.7454  0.0714
  834MOL0     H12529  -0.642   0.634   5.443 -0.8892 -0.2387  0.6928
  834MOL0     H12530  -0.537   0.488   5.414 -0.9417  0.3023 -2.9885
  834MOL0     H12531  -0.811   0.459   5.544 -1.6201  0.8119 -1.7353
  834MOL0     H12532  -0.800   0.490   5.373 -1.0542  0.3650  0.8429
  834MOL0     H12533  -0.608   0.287   5.407  0.9776 -2.5227  2.1481
  834MOL0     H12534  -0.709   0.246   5.542 -1.2170 -1.2459 -1.4637
  834MOL0     H12535  -0.910   0.234   5.374  1.2438 -0.9649  2.7195
  834MOL0     H12536  -0.794   0.241   5.249  2.0378  2.6537  1.1543
  834MOL0     H12537  -0.676   0.029   5.328 -0.2524  0.8097 -1.9243
  834MOL0     H12538  -0.771   0.027   5.476 -0.6338  1.4421 -0.1154
  834MOL0     H12539  -0.978   0.004   5.329  1.0296  2.3146  1.7112
  834MOL0     H12540  -0.872  -0.137   5.302 -0.4112 -0.0169  2.1728
  834MOL0     H12541  -0.676  -0.119   5.094  0.9203  1.2268 -1.0703
  834MOL0     H12542  -0.678   0.085   4.767  0.0209 -0.2068  0.2451
  834MOL0     H12543  -0.560   0.026   4.880 -0.8132  1.8537  1.2350
  834MOL0     H12544  -0.773  -0.148   4.761 -0.5858  0.6976  2.4871
  834MOL0     H12545  -0.651  -0.206   4.871  0.2601  0.5107  0.4108
  834MOL0     H12546  -0.588  -0.081   4.601  0.2019 -1.7085 -1.9212
  834MOL0     H12547  -0.586  -0.254   4.626 -1.2710  0.3248  0.5585
  834MOL0     H12548  -0.386  -0.052   4.748  0.0220 -0.5229 -0.5430
  834MOL0     H12549  -0.345  -0.187   4.644 -1.0330 -3.0868 -0.2707
  834MOL0     H12550  -0.378  -0.506   4.844  0.4409 -0.5090  2.3445
  834MOL0     H12551  -0.119  -0.701   4.962 -3.2668 -2.3282  2.5130
  834MOL0     H12552  -0.276  -0.695   4.868 -0.2549 -1.0756  1.5585
  834MOL0     H12553  -0.119  -0.690   4.783 -0.2774  2.6248  0.1406
  834MOL0     H12554   0.367  -0.516   4.782  2.8850  1.9261 -0.8466
  834MOL0     H12555   0.596  -0.583   4.838  0.8076  2.6968 -0.0607
  834MOL0     H12556   0.702  -0.778   5.203  2.4000 -0.0346  0.3231
  834MOL0     H12557   0.679  -0.815   5.031  0.4446  0.4900 -1.6960
  834MOL0     H12558   0.876  -0.898   5.095  1.4786  0.3415  2.7998
  834MOL0     H12559   0.922  -0.771   4.997  0.3612 -1.1243 -0.5039
  834MOL0     H12560   0.937  -0.813   5.287  0.9596 -0.9626 -0.7560
  834MOL0     H12561   0.896  -0.652   5.249 -1.8706 -1.4848  0.4899
  834MOL0     H12562   1.147  -0.800   5.164  0.2481  0.4370  0.3950
  834MOL0     H12563   1.099  -0.633   5.106  1.2590 -0.1868 -0.8542
  834MOL0     H12564   1.168  -0.729   5.395 -1.3006 -0.8848 -1.1007
  834MOL0     H12565   1.115  -0.567   5.344  1.6152  1.9418 -1.2040
  834MOL0     H12566   1.365  -0.708   5.234 -0.4761 -1.3092  0.3897
  834MOL0     H12567   1.304  -0.541   5.222 -2.8267  0.4411  1.9741
  834MOL0     H12568   1.409  -0.692   5.468  0.9151 -0.1611  0.6659
  834MOL0     H12569   1.327  -0.529   5.481  0.0346 -0.8926  0.1149
  834MOL0     H12570   1.479  -0.430   5.320 -0.3367  1.3706  1.2933
  834MOL0     H12571   1.582  -0.579   5.332 -0.6253 -0.7981 -0.6462
  834MOL0     H12572   0.506  -0.537   5.249  0.4060 -1.6912 -0.8942
  834MOL0     H12573   0.298  -0.464   5.202  0.7585  0.9603  0.5049
  834MOL0     H12574   0.034  -0.232   4.932 -1.8971  0.7848  1.8362
  834MOL0     H12575  -0.166  -0.129   4.844  0.3227  0.4266  0.6741
  834MOL0     H12576  -0.256   0.844   5.421  1.6596  3.0327 -0.2275
  834MOL0     H12577  -0.026   0.930   5.444 -0.7149 -0.9568 -0.9003
  834MOL0     H12578   0.340   1.091   5.890  2.1404  3.2372 -0.4528
  834MOL0     H12579   0.536   1.177   5.875  1.9987  2.0439 -0.8036
  834MOL0     H12580   0.777   1.158   5.878 -1.9149 -0.1151 -0.2115
  834MOL0     H12581   0.888   1.195   5.752  0.1298 -3.7677  1.0856
  834MOL0     H12582   0.633   1.360   5.817 -1.0233  0.1693 -0.1318
  834MOL0     H12583   0.723   1.390   5.682 -2.3107 -2.4442 -0.1036
  834MOL0     H12584   0.793   1.544   5.871 -0.3008  0.4455  2.8276
  834MOL0     H12585   0.922   1.440   5.830  0.9029  1.7489  0.8121
  834MOL0     H12586   0.740   1.372   6.065  0.7502  0.3200  1.5301
  834MOL0     H12587   0.880   1.487   6.074 -1.4721 -0.7337  2.0100
  834MOL0     H12588   1.105   1.157   6.094  0.5800 -0.1757 -0.9280
  834MOL0     H12589   0.597   0.973   5.499 -0.4497 -1.0187 -0.1677
  834MOL0     H12590   0.384   0.858   5.523 -2.4306 -0.1947  0.4953
  835MOL0     O12591   5.860   3.974   8.236  0.4938  0.3992 -0.8021
  835MOL0     C12592   5.877   4.038   8.132 -0.5755  0.8328 -0.0510
  835MOL0     O12593   5.780   4.083   8.044 -0.3803  1.0229  0.2976
  835MOL0     C12594   5.648   4.045   8.061 -0.0149 -0.7167 -0.2357
  835MOL0     C12595   5.541   4.132   8.073 -0.4620 -0.3290 -0.1551
  835MOL0     C12596   5.415   4.083   8.100 -0.0224 -0.2074 -0.4426
  835MOL0     C12597   5.387   3.948   8.117  0.9736  0.4466  0.4971
  835MOL0     O12598   5.268   3.894   8.163 -0.5854  0.4154 -0.9248
  835MOL0     C12599   5.187   3.981   8.240 -0.6483  0.3741 -0.1311
  835MOL0     C12600   5.062   3.895   8.284  0.0729 -0.3587  0.3317
  835MOL0     C12601   4.957   3.977   8.363  0.2369 -1.2049 -0.1398
  835MOL0     C12602   4.878   3.874   8.441 -0.3650 -0.5424 -0.6884
  835MOL0     C12603   4.755   3.918   8.523 -0.9103  0.0841 -0.0233
  835MOL0     C12604   4.632   3.937   8.437 -0.0791  0.0298 -0.7002
  835MOL0     C12605   4.502   3.962   8.516  0.4728 -0.5947 -0.0944
  835MOL0     C12606   4.510   4.097   8.598  0.0675 -0.2400 -0.0610
  835MOL0     N12607   4.460   4.207   8.514 -0.0989  0.4249  0.3013
  835MOL0     C12608   4.534   4.312   8.473  0.5881  0.8254 -0.1480
  835MOL0     C12609   4.447   4.399   8.410 -0.4321  0.1184  0.0120
  835MOL0     C12610   4.494   4.524   8.331  0.2674 -0.3038 -0.2766
  835MOL0     C12611   4.633   4.525   8.282 -0.0430  0.2220 -0.1793
  835MOL0     C12612   4.650   4.663   8.229  0.5876 -0.6281  0.3998
  835MOL0     C12613   4.795   4.676   8.187 -0.8980  0.7451 -0.2064
  835MOL0     O12614   4.859   4.569   8.120 -0.0192 -0.2695  0.2324
  835MOL0     C12615   4.994   4.548   8.108  0.4198 -0.2225 -0.2614
  835MOL0     C12616   5.044   4.442   8.037 -1.3248 -0.5025 -0.5975
  835MOL0     C12617   5.178   4.420   8.001 -0.4257 -0.3666 -0.3690
  835MOL0     C12618   5.207   4.301   7.911 -0.0118 -0.9419  0.5618
  835MOL0     C12619   5.267   4.519   8.062 -0.2608  0.8998  0.2317
  835MOL0     C12620   5.404   4.525   8.012  0.6558  0.5075 -0.3290
  835MOL0     O12621   5.494   4.588   8.090  0.5116  0.4011  0.0854
  835MOL0     C12622   5.621   4.598   8.044 -0.0248 -0.1504  0.5594
  835MOL0     C12623   5.700   4.708   8.099 -0.4485 -0.4678 -0.1591
  835MOL0     C12624   5.838   4.717   8.071 -0.1288  0.7000  0.2419
  835MOL0     C12625   5.894   4.625   7.987 -0.6731 -0.8451  0.4183
  835MOL0     O12626   6.028   4.650   7.962 -0.6344  0.3819 -0.3883
  835MOL0     C12627   6.114   4.558   7.885  0.0428  0.1302 -0.1847
  835MOL0     C12628   6.243   4.626   7.845 -0.2153  0.0674 -0.3404
  835MOL0     C12629   6.327   4.533   7.757  0.4328  0.1254  0.1448
  835MOL0     C12630   6.439   4.463   7.840 -0.0789  0.3969  0.3543
  835MOL0     C12631   6.515   4.365   7.750  0.7138 -0.6108 -0.4209
  835MOL0     C12632   6.605   4.431   7.655  0.1893 -0.8671  1.2279
  835MOL0     C12633   6.745   4.360   7.646 -0.6706 -0.9697  0.1305
  835MOL0     C12634   6.836   4.398   7.765 -0.2353 -0.5194  0.5758
  835MOL0    Cl12635   6.982   4.280   7.776  0.1811  0.2271  0.1824
  835MOL0     C12636   5.822   4.517   7.939  0.3327 -0.2575 -1.2109
  835MOL0     C12637   5.688   4.498   7.977 -0.2797 -0.2584 -0.1554
  835MOL0     O12638   5.410   4.515   7.888 -0.2504 -0.7698 -0.6609
  835MOL0     C12639   5.221   4.622   8.144  0.4938 -1.2623 -0.3622
  835MOL0     C12640   5.087   4.637   8.163  0.6061 -0.8447 -0.2752
  835MOL0     N12641   4.317   4.342   8.421 -0.0687  0.0704  0.1626
  835MOL0     N12642   4.329   4.231   8.490 -0.1235 -0.1080  0.5407
  835MOL0     C12643   5.490   3.864   8.080  0.2925  0.8178 -0.7115
  835MOL0     C12644   5.624   3.906   8.059  0.0795  0.3426  0.5374
  835MOL0     C12645   6.016   4.060   8.095  0.9697  0.3230 -0.3660
  835MOL0     C12646   6.125   4.035   8.198  0.9485  0.1553  0.9866
  835MOL0     C12647   6.256   4.050   8.164  0.1378  0.8613  0.5674
  835MOL0     C12648   6.299   4.100   8.042  0.0321  0.3846 -0.0259
  835MOL0     O12649   6.432   4.113   8.015 -0.1320 -0.5712  0.7458
  835MOL0     C12650   6.538   4.095   8.115  0.4533 -0.1879 -0.6807
  835MOL0     C12651   6.668   4.129   8.062  0.1010  0.0792 -0.0265
  835MOL0     C12652   6.778   4.127   8.166  0.0454  0.4339 -0.4394
  835MOL0     C12653   6.915   4.127   8.103  0.5462 -0.8859 -0.0492
  835MOL0     C12654   7.027   4.089   8.187 -0.2463  0.7396  0.0960
  835MOL0     C12655   7.133   4.073   8.246  0.2747  0.1994  0.1095
  835MOL0     C12656   6.203   4.112   7.945 -0.0828 -0.2124  0.7880
  835MOL0     C12657   6.066   4.105   7.973 -1.0385  0.5320  0.0355
  835MOL0     H12658   5.551   4.239   8.057 -3.2054  0.2931  1.6116
  835MOL0     H12659   5.338   4.156   8.123 -1.2562 -1.7590  0.5193
  835MOL0     H12660   5.245   4.016   8.326  1.3519  0.4167 -1.4375
  835MOL0     H12661   5.154   4.068   8.182 -0.2909  0.6191  0.0318
  835MOL0     H12662   5.018   3.852   8.193  0.1819  1.9380 -0.8799
  835MOL0     H12663   5.103   3.812   8.342  1.7297  0.7179  0.7976
  835MOL0     H12664   4.996   4.050   8.434 -1.2473 -0.5471  0.0189
  835MOL0     H12665   4.891   4.038   8.301  0.8133 -0.5303 -0.0983
  835MOL0     H12666   4.852   3.791   8.375 -1.0487 -0.8954 -0.0001
  835MOL0     H12667   4.951   3.833   8.512  0.8346  2.2354 -0.2186
  835MOL0     H12668   4.736   3.851   8.607  0.2151 -4.4592 -3.0742
  835MOL0     H12669   4.781   4.017   8.564 -0.9416 -0.5689  1.6763
  835MOL0     H12670   4.660   4.023   8.374  1.9488  1.9010  2.4792
  835MOL0     H12671   4.601   3.853   8.375 -0.8566  0.5077 -0.9853
  835MOL0     H12672   4.424   3.975   8.440  0.3266 -0.9441 -0.0028
  835MOL0     H12673   4.487   3.879   8.585 -0.6009  2.7538  4.1741
  835MOL0     H12674   4.605   4.115   8.649  0.1247 -0.0300 -0.2397
  835MOL0     H12675   4.434   4.090   8.676  0.3881  0.4380  0.3089
  835MOL0     H12676   4.642   4.316   8.478  0.6707 -0.9956  0.2465
  835MOL0     H12677   4.422   4.547   8.252  0.8556 -1.3685 -1.1471
  835MOL0     H12678   4.487   4.601   8.409  0.6147 -2.1732  1.7054
  835MOL0     H12679   4.650   4.451   8.203  1.2142  3.5018 -3.2774
  835MOL0     H12680   4.691   4.505   8.373 -3.2863 -2.1235  1.5717
  835MOL0     H12681   4.627   4.740   8.302 -0.6194 -2.7247  2.3532
  835MOL0     H12682   4.586   4.674   8.141 -0.0181 -0.6137  0.8419
  835MOL0     H12683   4.840   4.694   8.285 -1.4619 -3.2752  0.9904
  835MOL0     H12684   4.812   4.764   8.125  1.8952  0.2778 -0.2230
  835MOL0     H12685   4.961   4.387   7.993 -0.7768  0.2245 -2.6580
  835MOL0     H12686   5.136   4.219   7.920  1.6385 -2.1757  4.6872
  835MOL0     H12687   5.208   4.341   7.809  0.6686 -0.7896  0.6214
  835MOL0     H12688   5.299   4.244   7.924 -0.4904 -2.0861 -0.7677
  835MOL0     H12689   5.662   4.777   8.173  0.3054  2.4592 -2.2980
  835MOL0     H12690   5.912   4.781   8.118  0.6195 -0.8174  1.2248
  835MOL0     H12691   6.146   4.479   7.953 -1.3013  0.5242  0.9366
  835MOL0     H12692   6.067   4.512   7.798  1.6197 -3.1477  0.5360
  835MOL0     H12693   6.206   4.717   7.796 -4.4631 -0.4253  1.4846
  835MOL0     H12694   6.302   4.651   7.933 -0.1336 -0.7910 -0.1473
  835MOL0     H12695   6.375   4.598   7.683 -1.0967 -0.7247 -1.6757
  835MOL0     H12696   6.264   4.457   7.711  1.6565 -1.1179  0.4534
  835MOL0     H12697   6.499   4.538   7.892 -0.6880  0.6477  0.6965
  835MOL0     H12698   6.388   4.402   7.915 -0.2708  1.3297  0.9900
  835MOL0     H12699   6.440   4.301   7.704 -0.8715  0.7995  0.0919
  835MOL0     H12700   6.567   4.300   7.821 -0.7143 -1.4853 -0.1442
  835MOL0     H12701   6.574   4.441   7.551  1.1096  1.4546  1.1096
  835MOL0     H12702   6.613   4.539   7.671 -1.7244  0.0959 -2.8992
  835MOL0     H12703   6.783   4.417   7.561 -0.7750 -0.4278  0.4470
  835MOL0     H12704   6.751   4.251   7.635  3.1929 -1.0106  1.0049
  835MOL0     H12705   6.780   4.406   7.859  0.5904 -0.1815  1.0585
  835MOL0     H12706   6.870   4.501   7.751  0.6153 -0.6560  1.4954
  835MOL0     H12707   5.872   4.447   7.874  2.6578  1.1103 -1.0261
  835MOL0     H12708   5.633   4.409   7.949 -2.6740  0.4309  1.9522
  835MOL0     H12709   5.281   4.701   8.188  1.6202 -1.5347 -1.3534
  835MOL0     H12710   5.054   4.725   8.217 -2.6909 -1.7281 -0.6778
  835MOL0     H12711   5.463   3.760   8.091 -2.2122  1.2768 -1.7865
  835MOL0     H12712   5.705   3.836   8.041 -0.5975 -0.2418 -0.3925
  835MOL0     H12713   6.103   3.988   8.293 -1.1041 -1.1943 -0.0692
  835MOL0     H12714   6.332   4.034   8.241  0.4535  3.4479  0.8900
  835MOL0     H12715   6.519   4.158   8.203 -0.8889  1.2675 -1.9445
  835MOL0     H12716   6.540   3.989   8.140  1.6156 -0.2969 -1.1896
  835MOL0     H12717   6.656   4.229   8.020  2.8465 -0.1472 -1.5603
  835MOL0     H12718   6.688   4.064   7.976 -0.4360 -1.3515  0.8915
  835MOL0     H12719   6.775   4.030   8.217  1.3345  0.3485 -0.5059
  835MOL0     H12720   6.760   4.208   8.238 -2.6258 -1.0333  0.7279
  835MOL0     H12721   6.938   4.228   8.069  0.0271 -0.5890  0.4773
  835MOL0     H12722   6.915   4.054   8.021  0.5307 -1.3077  0.3245
  835MOL0     H12723   7.221   4.063   8.306  2.8459 -0.0527 -3.3879
  835MOL0     H12724   6.240   4.151   7.851  0.7627 -1.8720  0.3884
  835MOL0     H12725   5.998   4.129   7.891 -0.5439 -0.7987 -0.7906
  836MOL0     O12726   0.055   8.928   2.739 -0.3210  0.1456  0.0316
  836MOL0     C12727   0.081   8.806   2.714 -0.1849  0.1098 -0.1836
  836MOL0     O12728  -0.013   8.705   2.681 -0.7848 -1.2519  0.3888
  836MOL0     C12729  -0.129   8.766   2.638 -0.9696 -0.0922 -0.1782
  836MOL0     C12730  -0.133   8.816   2.506 -0.0245  0.2223  0.4359
  836MOL0     C12731  -0.251   8.852   2.451 -0.3589  0.3341 -0.5964
  836MOL0     C12732  -0.374   8.854   2.525  0.0465 -0.1348  0.7657
  836MOL0     O12733  -0.499   8.880   2.465  0.4075 -0.1713  0.0662
  836MOL0     C12734  -0.613   8.895   2.553 -0.5023 -0.0221  0.2254
  836MOL0     C12735  -0.731   8.938   2.471 -0.1015  0.4318 -0.4798
  836MOL0     C12736  -0.847   9.016   2.545  0.3566  0.9140 -0.6063
  836MOL0     C12737  -0.952   9.067   2.452  0.5481 -0.5225  1.1690
  836MOL0     C12738  -1.085   9.096   2.524 -0.8364  0.0208  0.3637
  836MOL0     C12739  -1.199   9.118   2.431 -0.6013  0.2113 -0.5786
  836MOL0     C12740  -1.188   9.261   2.376  0.0187 -0.0230  0.3874
  836MOL0     C12741  -1.315   9.280   2.299 -0.6122  0.1271 -0.4692
  836MOL0     N12742  -1.315   9.415   2.237 -0.1858 -0.1010  1.1975
  836MOL0     C12743  -1.351   9.529   2.292 -0.1219  0.0532  0.6734
  836MOL0     C12744  -1.329   9.621   2.195 -0.7939  0.3207 -0.7658
  836MOL0     C12745  -1.367   9.772   2.195 -0.2004  0.6728 -0.0467
  836MOL0     C12746  -1.514   9.797   2.172 -0.0289 -0.1457 -0.3198
  836MOL0     C12747  -1.553   9.936   2.223  0.6611  0.2553  0.3355
  836MOL0     C12748  -1.700   9.954   2.199 -0.0223  0.8052  0.1531
  836MOL0     O12749  -1.758   9.889   2.309  0.6848 -0.1442 -0.4226
  836MOL0     C12750  -1.891   9.904   2.330 -0.5193  0.3210  0.6816
  836MOL0     C12751  -1.933   9.928   2.459  0.2408 -0.3027 -0.2678
  836MOL0     C12752  -2.075   9.949   2.485  0.1529  0.1107  0.0801
  836MOL0     C12753  -2.114   9.983   2.632 -0.3138 -0.6239  0.4295
  836MOL0     C12754  -2.169   9.925   2.371 -0.2323  0.3873  0.3044
  836MOL0     C12755  -2.319   9.928   2.385 -0.1377 -0.1034  0.0227
  836MOL0     O12756  -2.384   9.993   2.478 -0.3000 -0.0131  0.5359
  836MOL0     C12757  -2.517   9.983   2.501  0.0329  1.1261  0.5051
  836MOL0     C12758  -2.597  10.042   2.418  0.9650 -1.2495 -0.9483
  836MOL0     C12759  -2.734  10.046   2.453  0.0386  0.0204 -0.3197
  836MOL0     C12760  -2.786   9.962   2.555 -1.0605  0.0105 -0.2829
  836MOL0     O12761  -2.915   9.953   2.601  0.2133 -0.0935  0.0999
  836MOL0     C12762  -3.017   9.986   2.499 -0.0425 -0.0455 -0.3548
  836MOL0     C12763  -3.138   9.911   2.547  0.3307  1.3691 -0.6434
  836MOL0     C12764  -3.237   9.851   2.441 -0.0116 -0.7861  0.5486
  836MOL0     C12765  -3.257   9.699   2.434 -0.0828 -0.1231 -0.8251
  836MOL0     C12766  -3.360   9.662   2.324  0.4247  0.8009  0.7730
  836MOL0     C12767  -3.417   9.521   2.354  0.0247  0.2317 -0.4506
  836MOL0     C12768  -3.537   9.534   2.451 -0.1916 -0.2353  1.2624
  836MOL0     C12769  -3.569   9.398   2.512  0.4931 -0.3399  0.5105
  836MOL0    Cl12770  -3.585   9.271   2.381  0.5210 -0.1058  0.9734
  836MOL0     C12771  -2.697   9.901   2.632 -0.6473 -0.6984 -0.1015
  836MOL0     C12772  -2.561   9.914   2.614 -0.7825  0.0849  0.4493
  836MOL0     O12773  -2.370   9.850   2.299  0.6496 -0.3321 -0.6180
  836MOL0     C12774  -2.114   9.900   2.246  0.8722  0.7563 -0.0475
  836MOL0     C12775  -1.978   9.889   2.222  0.0644  0.5784  0.5368
  836MOL0     N12776  -1.263   9.556   2.090 -0.6540 -0.3284  0.2900
  836MOL0     N12777  -1.253   9.436   2.118 -0.3372 -0.9192  0.4923
  836MOL0     C12778  -0.370   8.814   2.656 -0.4550 -0.7461 -0.6437
  836MOL0     C12779  -0.251   8.764   2.712 -0.4117  0.3160  0.9882
  836MOL0     C12780   0.225   8.768   2.736  0.3734  0.5667 -0.4060
  836MOL0     C12781   0.265   8.635   2.719 -0.0298  1.4522  0.0414
  836MOL0     C12782   0.404   8.601   2.731  0.2502 -0.0154  0.1654
  836MOL0     C12783   0.490   8.687   2.791 -0.4574 -1.0220  0.5519
  836MOL0     O12784   0.621   8.667   2.822  0.3573 -0.8054  0.1982
  836MOL0     C12785   0.675   8.541   2.813  0.7026 -0.4598 -0.7774
  836MOL0     C12786   0.660   8.465   2.941  0.0906  0.3646 -0.6656
  836MOL0     C12787   0.745   8.331   2.938  0.6510 -0.7742 -0.2105
  836MOL0     C12788   0.682   8.222   3.021 -0.7468  0.1641 -0.3941
  836MOL0     C12789   0.781   8.130   3.073  0.9809 -0.1580 -0.6323
  836MOL0     C12790   0.863   8.067   3.142  0.8662 -0.3951  0.2123
  836MOL0     C12791   0.446   8.819   2.822  0.4495  1.3769  0.6837
  836MOL0     C12792   0.317   8.857   2.782 -0.7997 -0.9162 -1.4226
  836MOL0     H12793  -0.045   8.832   2.444 -0.3370 -2.8101 -0.9722
  836MOL0     H12794  -0.265   8.885   2.349  3.1970 -2.6852 -2.2927
  836MOL0     H12795  -0.647   8.809   2.611  0.9840 -2.6258 -2.4510
  836MOL0     H12796  -0.581   8.969   2.626  0.7341 -0.8150  0.5130
  836MOL0     H12797  -0.694   9.006   2.393 -0.7321  2.1690  0.6651
  836MOL0     H12798  -0.781   8.854   2.422 -0.4733  0.8844 -0.8915
  836MOL0     H12799  -0.894   8.946   2.614  1.2597 -1.1670 -1.9783
  836MOL0     H12800  -0.806   9.091   2.612  2.4635  1.0448 -1.9387
  836MOL0     H12801  -0.921   9.163   2.410 -1.1904 -0.0370  0.9338
  836MOL0     H12802  -0.964   8.993   2.373 -1.9502  1.8129 -0.8140
  836MOL0     H12803  -1.089   9.015   2.597 -1.1592  0.8746  1.3200
  836MOL0     H12804  -1.072   9.185   2.586 -0.9680 -0.5404  1.2195
  836MOL0     H12805  -1.182   9.047   2.349 -0.8153  0.7646 -1.1119
  836MOL0     H12806  -1.285   9.084   2.489 -0.3207 -0.5540 -0.5980
  836MOL0     H12807  -1.180   9.335   2.456 -1.7358  2.1685 -1.3297
  836MOL0     H12808  -1.111   9.258   2.298 -0.4248 -2.8547 -0.0373
  836MOL0     H12809  -1.403   9.270   2.362 -0.3302 -1.1257 -0.2426
  836MOL0     H12810  -1.322   9.202   2.222  1.8130 -2.9317  2.1341
  836MOL0     H12811  -1.397   9.535   2.390 -0.8698 -3.5796  0.6754
  836MOL0     H12812  -1.332   9.816   2.289  1.7464  1.6468 -1.1861
  836MOL0     H12813  -1.303   9.808   2.114  1.1686 -0.6053  0.4193
  836MOL0     H12814  -1.574   9.729   2.233  3.1788 -0.4541  2.8991
  836MOL0     H12815  -1.530   9.779   2.066  0.8635 -1.6231 -0.2431
  836MOL0     H12816  -1.490  10.017   2.184  1.1106  0.9790  2.4632
  836MOL0     H12817  -1.531   9.947   2.329 -1.5697  0.4081  0.8210
  836MOL0     H12818  -1.727   9.909   2.103 -0.0014  0.8875  0.1083
  836MOL0     H12819  -1.737  10.057   2.211  1.2746  1.2525  0.4597
  836MOL0     H12820  -1.857   9.939   2.536 -0.5894 -0.4518  0.5851
  836MOL0     H12821  -2.205  10.044   2.628  1.1012  1.6520  0.6930
  836MOL0     H12822  -2.123   9.893   2.693  0.7703 -0.8901  0.2172
  836MOL0     H12823  -2.028  10.039   2.670  0.5007 -1.0512 -0.7323
  836MOL0     H12824  -2.560  10.091   2.328  1.4321  1.3579  0.5538
  836MOL0     H12825  -2.797  10.096   2.381  1.9441  1.1343 -1.2670
  836MOL0     H12826  -3.042  10.091   2.483 -1.7120 -0.5908 -1.5265
  836MOL0     H12827  -2.988   9.946   2.401  0.7397  1.8849 -0.9570
  836MOL0     H12828  -3.107   9.827   2.609 -0.2091  2.1599  0.7490
  836MOL0     H12829  -3.200   9.973   2.613 -0.5385 -0.4554  0.3262
  836MOL0     H12830  -3.204   9.874   2.339  1.0745  1.1665  1.2720
  836MOL0     H12831  -3.323   9.911   2.471  2.1369  1.5539  2.4478
  836MOL0     H12832  -3.156   9.658   2.424  0.2941  0.3536  0.6875
  836MOL0     H12833  -3.296   9.662   2.529  0.5764  1.0637 -0.0698
  836MOL0     H12834  -3.312   9.663   2.226  2.6504 -0.3340  1.7624
  836MOL0     H12835  -3.442   9.732   2.310 -0.1633 -0.4495 -3.2738
  836MOL0     H12836  -3.452   9.476   2.261  0.4878  0.0369 -0.5340
  836MOL0     H12837  -3.334   9.462   2.395  0.5510  1.5249  0.4164
  836MOL0     H12838  -3.614   9.569   2.383 -1.8959 -2.8997  1.6625
  836MOL0     H12839  -3.529   9.609   2.530  0.7448 -2.2961  3.2610
  836MOL0     H12840  -3.659   9.388   2.574 -0.7990 -5.0719 -1.6562
  836MOL0     H12841  -3.484   9.372   2.576  0.6670 -1.8929 -0.2933
  836MOL0     H12842  -2.725   9.847   2.722 -1.0556  0.3931  0.4480
  836MOL0     H12843  -2.492   9.849   2.667 -2.6559 -1.9800  0.5061
  836MOL0     H12844  -2.172   9.903   2.154  0.9085 -2.2593 -0.2713
  836MOL0     H12845  -1.938   9.864   2.124  0.1344 -3.1182  1.3887
  836MOL0     H12846  -0.456   8.819   2.722  2.7417  0.9430  3.9251
  836MOL0     H12847  -0.261   8.718   2.810 -1.3326  0.2805  0.8820
  836MOL0     H12848   0.200   8.552   2.694  2.8880 -0.8086 -0.5571
  836MOL0     H12849   0.432   8.498   2.710  1.0524 -0.0423  1.2854
  836MOL0     H12850   0.646   8.482   2.726  4.5894 -0.1094 -2.5369
  836MOL0     H12851   0.782   8.547   2.793  0.4695 -0.9883 -2.3411
  836MOL0     H12852   0.557   8.434   2.959  0.6556 -1.9111 -0.9973
  836MOL0     H12853   0.684   8.522   3.031 -0.9010 -0.6669  0.2890
  836MOL0     H12854   0.843   8.347   2.983  0.2713  0.3489  0.2530
  836MOL0     H12855   0.753   8.289   2.838  1.1726  0.1726 -0.5815
  836MOL0     H12856   0.606   8.165   2.967  0.3053 -0.8928 -0.7989
  836MOL0     H12857   0.620   8.261   3.102  1.0788  1.9177  0.2568
  836MOL0     H12858   0.944   8.020   3.194  0.2689 -0.7939  0.8076
  836MOL0     H12859   0.514   8.888   2.870  1.8623  0.5928 -0.1209
  836MOL0     H12860   0.282   8.957   2.805 -1.6016 -1.4394 -0.2899
  837MOL0     O12861   2.087   7.461   4.698 -0.3284 -0.3727  0.0115
  837MOL0     C12862   2.171   7.538   4.651 -0.5201 -0.4561  0.2629
  837MOL0     O12863   2.150   7.672   4.626 -0.2778 -0.0631 -0.0473
  837MOL0     C12864   2.041   7.731   4.687 -0.3811 -0.5811 -0.1212
  837MOL0     C12865   1.928   7.737   4.615 -0.3130 -0.1788  0.2718
  837MOL0     C12866   1.803   7.786   4.674 -0.5002 -0.0448  0.1113
  837MOL0     C12867   1.811   7.840   4.805 -1.2544 -0.0884  0.5033
  837MOL0     O12868   1.694   7.882   4.870  0.2364  0.2363  0.2318
  837MOL0     C12869   1.615   7.983   4.797  0.8493 -0.0185 -0.7135
  837MOL0     C12870   1.504   8.038   4.884 -0.3141 -0.3432 -0.6743
  837MOL0     C12871   1.402   8.121   4.807 -0.4991  0.4257 -0.4500
  837MOL0     C12872   1.275   8.148   4.888 -0.0273  0.2391  0.8146
  837MOL0     C12873   1.165   8.209   4.805 -0.4052  0.4192  0.5445
  837MOL0     C12874   1.044   8.252   4.890 -0.1926 -0.7843  0.3822
  837MOL0     C12875   0.915   8.206   4.840  0.1981  1.0982 -0.3048
  837MOL0     C12876   0.877   8.077   4.902 -0.8603 -0.3032 -0.0107
  837MOL0     N12877   0.736   8.049   4.871  0.0905 -0.4508  0.0091
  837MOL0     C12878   0.688   7.948   4.793 -0.4723  0.0027  0.3862
  837MOL0     C12879   0.556   7.942   4.834 -0.5356 -0.2921  0.1584
  837MOL0     C12880   0.457   7.842   4.774  0.3745  0.3305 -0.0093
  837MOL0     C12881   0.348   7.883   4.682 -0.8255  0.1837 -0.2326
  837MOL0     C12882   0.282   7.765   4.605  0.0180  0.2849  0.3138
  837MOL0     C12883   0.195   7.820   4.493  0.6387  0.4953 -0.1640
  837MOL0     O12884   0.122   7.702   4.448 -0.1732 -0.6935 -0.7060
  837MOL0     C12885   0.025   7.729   4.358  0.0482  0.0527 -1.1284
  837MOL0     C12886  -0.030   7.619   4.294 -0.0807 -0.0474 -0.3446
  837MOL0     C12887  -0.138   7.628   4.199 -0.8113 -0.5639  0.2211
  837MOL0     C12888  -0.217   7.504   4.164  0.5904  0.0862  0.1177
  837MOL0     C12889  -0.186   7.758   4.169  0.6280 -0.2222  0.1886
  837MOL0     C12890  -0.300   7.783   4.071 -0.1210 -0.6039 -0.2118
  837MOL0     O12891  -0.362   7.679   4.005 -0.3433  0.5569 -1.0240
  837MOL0     C12892  -0.472   7.698   3.920 -0.7587 -0.1160  0.2694
  837MOL0     C12893  -0.577   7.783   3.941  0.3180 -0.3444  0.2485
  837MOL0     C12894  -0.688   7.786   3.853  0.1157  0.8098  1.1580
  837MOL0     C12895  -0.674   7.715   3.734 -1.2209  0.5844  1.1261
  837MOL0     O12896  -0.782   7.715   3.648  0.2073  0.3730  0.2334
  837MOL0     C12897  -0.760   7.732   3.504 -0.1308 -0.1498  0.3109
  837MOL0     C12898  -0.887   7.788   3.431 -0.7696  0.3198  0.3560
  837MOL0     C12899  -0.928   7.929   3.483 -0.2242  0.0497  0.0733
  837MOL0     C12900  -1.027   7.989   3.384  0.4521 -0.1872 -0.2269
  837MOL0     C12901  -0.951   8.060   3.271 -0.2079 -0.6034  0.1170
  837MOL0     C12902  -1.057   8.111   3.175 -0.0243 -0.1831 -0.2974
  837MOL0     C12903  -1.002   8.187   3.069 -0.4203  0.4223  0.3513
  837MOL0     C12904  -1.105   8.225   2.967 -0.5015  0.0583  0.6012
  837MOL0    Cl12905  -1.268   8.278   3.032 -0.1488  0.3197  0.3280
  837MOL0     C12906  -0.557   7.637   3.707  0.0416  0.5340  0.2123
  837MOL0     C12907  -0.454   7.633   3.793 -0.5164 -0.2362 -0.9691
  837MOL0     O12908  -0.340   7.903   4.061 -0.4497  0.0475  0.3937
  837MOL0     C12909  -0.134   7.873   4.235 -1.2691  0.1593 -0.3541
  837MOL0     C12910  -0.033   7.858   4.329 -0.2903  0.4904 -0.0058
  837MOL0     N12911   0.532   8.043   4.927 -0.6061 -0.0773  1.0059
  837MOL0     N12912   0.635   8.113   4.938  0.5568  0.1057 -0.1240
  837MOL0     C12913   1.931   7.840   4.867 -0.2481 -0.1054  0.3099
  837MOL0     C12914   2.043   7.788   4.813  0.4390  0.1309 -0.4560
  837MOL0     C12915   2.302   7.478   4.605  0.6453 -0.1648  0.7528
  837MOL0     C12916   2.399   7.554   4.532 -0.1401 -0.3084  0.4876
  837MOL0     C12917   2.511   7.487   4.479 -0.7524 -0.7304  0.5579
  837MOL0     C12918   2.541   7.357   4.508  0.2066  0.4766 -0.8237
  837MOL0     O12919   2.636   7.286   4.447 -0.1987  0.2576 -0.5406
  837MOL0     C12920   2.764   7.349   4.409 -0.2978 -0.5771 -0.0780
  837MOL0     C12921   2.878   7.331   4.506  0.5485 -0.6202 -0.3800
  837MOL0     C12922   2.898   7.182   4.554  0.1824 -0.2676  0.6043
  837MOL0     C12923   2.958   7.095   4.439 -0.0224  0.0458 -0.2227
  837MOL0     C12924   3.091   7.143   4.405 -0.0624  0.5723 -0.6601
  837MOL0     C12925   3.208   7.181   4.392  0.3418  0.6139  0.2933
  837MOL0     C12926   2.443   7.286   4.577 -0.3491  1.0402 -0.1295
  837MOL0     C12927   2.329   7.344   4.631  0.1208  0.0405 -0.2363
  837MOL0     H12928   1.927   7.695   4.514  0.2630 -1.4732  0.7843
  837MOL0     H12929   1.717   7.778   4.607  1.2580  0.5699 -2.3630
  837MOL0     H12930   1.678   8.065   4.761  1.7687 -0.6184 -0.5199
  837MOL0     H12931   1.572   7.936   4.708  2.1490 -0.1910 -1.2784
  837MOL0     H12932   1.468   7.949   4.936 -1.5426  1.1460  1.1528
  837MOL0     H12933   1.544   8.094   4.969  1.1531 -1.9905 -0.2326
  837MOL0     H12934   1.451   8.215   4.780 -1.9547  1.6226  0.8335
  837MOL0     H12935   1.375   8.070   4.714  3.3174 -3.3731  0.1977
  837MOL0     H12936   1.245   8.047   4.920 -0.6388 -0.5168 -1.8813
  837MOL0     H12937   1.309   8.213   4.969 -0.4788 -1.8940  2.8309
  837MOL0     H12938   1.204   8.299   4.757  0.0308 -0.4736 -0.8334
  837MOL0     H12939   1.138   8.140   4.724 -1.9215 -0.1753  1.5007
  837MOL0     H12940   1.066   8.223   4.993  3.8992  1.5147  0.3407
  837MOL0     H12941   1.043   8.361   4.892 -1.6125 -0.7694  0.3572
  837MOL0     H12942   0.835   8.275   4.869 -1.6433 -1.0535  0.0328
  837MOL0     H12943   0.911   8.198   4.731 -0.9987 -1.1434 -0.1610
  837MOL0     H12944   0.895   8.086   5.009  1.1869 -1.5842 -0.2163
  837MOL0     H12945   0.938   7.996   4.862 -0.9322 -0.0732 -0.5999
  837MOL0     H12946   0.743   7.881   4.727  0.1435  1.0119 -0.1446
  837MOL0     H12947   0.515   7.770   4.716  0.3052  2.5400 -3.0533
  837MOL0     H12948   0.406   7.791   4.856 -0.6997  3.4530  1.4486
  837MOL0     H12949   0.391   7.951   4.607 -0.3625 -0.9516 -1.0214
  837MOL0     H12950   0.282   7.943   4.744  0.9561 -0.4457  2.4236
  837MOL0     H12951   0.225   7.702   4.673 -0.3844 -2.1148 -2.0847
  837MOL0     H12952   0.355   7.699   4.558 -0.9773  0.7849 -2.0727
  837MOL0     H12953   0.253   7.862   4.411  0.0430  1.2400 -0.2183
  837MOL0     H12954   0.125   7.897   4.527  0.2867  0.6743 -1.2745
  837MOL0     H12955  -0.001   7.517   4.317  1.0018  0.3980  0.3269
  837MOL0     H12956  -0.196   7.462   4.065 -1.6036  0.4465 -0.5712
  837MOL0     H12957  -0.182   7.428   4.235  0.5616 -0.3188 -0.2951
  837MOL0     H12958  -0.325   7.510   4.182  0.3000 -1.3029 -0.9367
  837MOL0     H12959  -0.585   7.839   4.033 -0.4612 -1.3047  0.7771
  837MOL0     H12960  -0.776   7.847   3.869  0.0023  1.0916 -0.3333
  837MOL0     H12961  -0.682   7.807   3.484 -3.0290  2.5150 -2.2815
  837MOL0     H12962  -0.731   7.638   3.456 -0.4131  0.2769 -0.7356
  837MOL0     H12963  -0.858   7.790   3.325 -1.6779 -3.1274 -0.0860
  837MOL0     H12964  -0.977   7.727   3.438 -1.2696  1.0836  0.6848
  837MOL0     H12965  -0.844   7.997   3.499 -1.6110  2.0221 -0.5820
  837MOL0     H12966  -0.975   7.916   3.581  1.2999  0.0196  0.8273
  837MOL0     H12967  -1.075   7.902   3.339 -0.3413  0.4412 -0.6238
  837MOL0     H12968  -1.102   8.045   3.441  1.3188  0.1141  0.6571
  837MOL0     H12969  -0.879   7.993   3.222  0.7128  0.4615 -0.0337
  837MOL0     H12970  -0.898   8.146   3.313 -0.9632 -0.4479  0.7800
  837MOL0     H12971  -1.104   8.020   3.136  3.1240 -1.7343 -0.7264
  837MOL0     H12972  -1.137   8.167   3.225  1.0865  1.9307 -0.7642
  837MOL0     H12973  -0.922   8.129   3.022  0.1440 -0.1965  2.0055
  837MOL0     H12974  -0.961   8.269   3.128  0.1138 -1.6266  3.0518
  837MOL0     H12975  -1.120   8.149   2.890 -1.4494  0.5406  0.2891
  837MOL0     H12976  -1.071   8.310   2.906  1.8521 -0.6833  0.7564
  837MOL0     H12977  -0.540   7.577   3.618  1.1931  0.4517  0.4694
  837MOL0     H12978  -0.368   7.572   3.768  0.0570  0.5893 -1.0544
  837MOL0     H12979  -0.170   7.971   4.206  2.2822  1.3426 -1.2255
  837MOL0     H12980  -0.002   7.942   4.390 -2.9706  0.9330  0.8571
  837MOL0     H12981   1.940   7.873   4.970  3.2181  2.3494 -0.6026
  837MOL0     H12982   2.134   7.783   4.872 -0.4784 -2.5937  0.8447
  837MOL0     H12983   2.380   7.659   4.515 -0.3796  0.2261  3.4799
  837MOL0     H12984   2.583   7.530   4.411 -0.4313 -2.4612 -0.2444
  837MOL0     H12985   2.789   7.298   4.316  0.5136 -0.3738  0.0217
  837MOL0     H12986   2.749   7.454   4.382 -2.0760 -1.1498 -1.5144
  837MOL0     H12987   2.867   7.401   4.590  2.0488  2.8114 -2.8086
  837MOL0     H12988   2.965   7.377   4.458  0.1387  1.3302  0.6260
  837MOL0     H12989   2.798   7.141   4.575  0.4003 -0.1600  1.9339
  837MOL0     H12990   2.961   7.176   4.643  0.8183  2.7543  0.4567
  837MOL0     H12991   2.892   7.096   4.352 -2.2442 -1.7681  1.3280
  837MOL0     H12992   2.961   6.992   4.474  0.0005  0.5033  1.2063
  837MOL0     H12993   3.313   7.199   4.387  1.1473 -3.3619 -1.8610
  837MOL0     H12994   2.455   7.179   4.587 -2.4794  0.6411 -1.4093
  837MOL0     H12995   2.254   7.285   4.682 -0.0092 -0.8959 -1.4690
  838MOL0     O12996   6.698  11.092   1.669 -0.3091 -0.4496  0.2487
  838MOL0     C12997   6.784  11.008   1.654 -0.0695 -0.4397 -0.3716
  838MOL0     O12998   6.803  10.905   1.739  0.2060 -0.3180  0.0114
  838MOL0     C12999   6.727  10.902   1.862  0.1017  0.1825  1.4141
  838MOL0     C13000   6.794  10.946   1.977 -0.4877  0.4581  0.5891
  838MOL0     C13001   6.723  10.942   2.103 -0.3064 -0.5748  0.0548
  838MOL0     C13002   6.589  10.900   2.112  0.5841 -0.7378 -1.0618
  838MOL0     O13003   6.524  10.883   2.232  0.0365 -0.3987 -0.2589
  838MOL0     C13004   6.569  10.969   2.341  0.0917  0.2173  0.1693
  838MOL0     C13005   6.453  11.007   2.438 -0.1163  0.4801  0.2420
  838MOL0     C13006   6.339  11.071   2.363 -0.6801  0.7364  0.2392
  838MOL0     C13007   6.239  11.130   2.460 -0.6595 -1.1674 -0.7541
  838MOL0     C13008   6.123  11.170   2.375 -1.1164 -0.3762 -0.1193
  838MOL0     C13009   6.033  11.271   2.439  0.4836 -0.0251  0.3313
  838MOL0     C13010   5.895  11.264   2.367 -0.7932 -0.1024  0.2262
  838MOL0     C13011   5.830  11.401   2.359 -0.8430 -0.0133 -0.4948
  838MOL0     N13012   5.692  11.380   2.315  0.1410 -0.7639 -0.2801
  838MOL0     C13013   5.654  11.294   2.213  0.8372  0.2212 -0.1770
  838MOL0     C13014   5.520  11.298   2.192 -0.1929  0.2094 -0.4511
  838MOL0     C13015   5.434  11.244   2.077  0.1618  0.7007 -0.6882
  838MOL0     C13016   5.454  11.316   1.947 -0.1069  0.7486  0.7582
  838MOL0     C13017   5.438  11.206   1.839 -0.5222 -0.2948  0.2949
  838MOL0     C13018   5.491  11.235   1.703 -0.1088  0.2343 -0.5254
  838MOL0     O13019   5.636  11.230   1.706 -0.3777  0.3024  0.2284
  838MOL0     C13020   5.704  11.296   1.604 -0.3834  0.4533 -0.4962
  838MOL0     C13021   5.834  11.282   1.619 -0.5800  0.2351  0.7902
  838MOL0     C13022   5.928  11.337   1.533 -0.4449  0.8383 -0.0058
  838MOL0     C13023   6.077  11.302   1.552 -0.3740 -0.0778 -0.9598
  838MOL0     C13024   5.883  11.410   1.419  0.0291 -0.7831  0.4380
  838MOL0     C13025   5.964  11.469   1.313 -0.5839 -0.5582  0.0898
  838MOL0     O13026   5.905  11.467   1.187 -0.3038 -0.0487 -0.0655
  838MOL0     C13027   5.950  11.545   1.092 -0.7865 -0.2928 -1.0053
  838MOL0     C13028   6.009  11.675   1.110  0.5619 -0.5842  0.0870
  838MOL0     C13029   6.098  11.726   1.002  0.4124  0.3544  0.8362
  838MOL0     C13030   6.118  11.652   0.881  0.0921 -0.5612  0.6632
  838MOL0     O13031   6.206  11.699   0.791  0.5726 -0.0971 -0.0288
  838MOL0     C13032   6.343  11.697   0.835 -0.6240 -0.3167  0.8760
  838MOL0     C13033   6.423  11.738   0.705 -0.2619  0.0296 -0.8809
  838MOL0     C13034   6.407  11.660   0.579  0.1075 -0.0501  0.7369
  838MOL0     C13035   6.501  11.542   0.589 -0.0968  0.1613  0.4950
  838MOL0     C13036   6.524  11.487   0.449  0.1282 -0.1540  0.0486
  838MOL0     C13037   6.622  11.368   0.446 -0.7192 -0.2897 -0.4913
  838MOL0     C13038   6.630  11.324   0.295  0.6159  0.2505 -1.0768
  838MOL0     C13039   6.679  11.186   0.282 -0.4186  0.0235 -0.0811
  838MOL0    Cl13040   6.656  11.143   0.110 -0.0338  0.3814  0.1198
  838MOL0     C13041   6.041  11.536   0.857  0.2805 -0.5335 -0.4118
  838MOL0     C13042   5.972  11.483   0.969  0.4337 -0.1310 -0.3633
  838MOL0     O13043   6.069  11.521   1.344 -0.3030  0.4042  0.3765
  838MOL0     C13044   5.749  11.430   1.397  0.8490 -0.0657  0.9046
  838MOL0     C13045   5.663  11.364   1.484  0.1751 -0.9035 -0.4597
  838MOL0     N13046   5.468  11.372   2.296 -0.3365 -0.1900  0.4788
  838MOL0     N13047   5.569  11.418   2.373  0.0059 -0.0099  0.1222
  838MOL0     C13048   6.520  10.876   1.990  0.3247  0.3683 -0.1393
  838MOL0     C13049   6.587  10.874   1.868  0.0754 -0.0567 -0.0393
  838MOL0     C13050   6.870  11.007   1.539  0.3788 -0.5443 -0.2123
  838MOL0     C13051   6.959  10.905   1.514 -0.0317 -0.2580 -0.3907
  838MOL0     C13052   7.047  10.913   1.408  0.3673  0.1702  0.2328
  838MOL0     C13053   7.050  11.025   1.319 -0.6022 -0.1246  0.1665
  838MOL0     O13054   7.140  11.020   1.209 -0.2664  0.0685  0.2370
  838MOL0     C13055   7.103  11.095   1.089 -0.5582  0.1699  0.3221
  838MOL0     C13056   7.005  11.036   0.986  0.4437 -0.0593 -0.5521
  838MOL0     C13057   7.025  10.885   0.963 -0.3141 -0.8265  0.2437
  838MOL0     C13058   7.095  10.838   0.838  0.6363  0.2194  0.2539
  838MOL0     C13059   7.238  10.877   0.841  0.1180 -0.6441 -0.0874
  838MOL0     C13060   7.364  10.899   0.840  0.3878 -0.6538 -0.6245
  838MOL0     C13061   6.971  11.133   1.349  0.2030  0.3978  0.0172
  838MOL0     C13062   6.875  11.118   1.452 -1.0026 -0.9662 -0.1077
  838MOL0     H13063   6.900  10.971   1.976 -0.1671 -0.8674 -0.4540
  838MOL0     H13064   6.773  10.980   2.191 -1.3832  0.2576  0.3308
  838MOL0     H13065   6.650  10.909   2.383 -1.0058 -2.0407 -0.7534
  838MOL0     H13066   6.612  11.061   2.301  0.8232 -0.7982 -1.5014
  838MOL0     H13067   6.419  10.918   2.492 -1.4160  0.3149 -0.7971
  838MOL0     H13068   6.502  11.076   2.507  0.3077  0.7694 -0.3386
  838MOL0     H13069   6.383  11.153   2.306  1.9177 -0.4640  0.3548
  838MOL0     H13070   6.291  11.001   2.293 -0.3611 -1.4368  2.0750
  838MOL0     H13071   6.203  11.053   2.530  0.0869  0.8514  2.0524
  838MOL0     H13072   6.269  11.217   2.519 -2.1086  2.8300 -5.2646
  838MOL0     H13073   6.171  11.218   2.289  2.2605 -0.8703  1.3329
  838MOL0     H13074   6.064  11.085   2.339  0.1456 -1.1352 -0.4960
  838MOL0     H13075   6.026  11.261   2.548  2.9119 -2.2985  0.3950
  838MOL0     H13076   6.084  11.366   2.426 -1.9682  1.1946 -1.0245
  838MOL0     H13077   5.905  11.239   2.261  0.2683  0.6430  0.1387
  838MOL0     H13078   5.830  11.199   2.426  2.8084 -2.1468  2.3032
  838MOL0     H13079   5.883  11.447   2.275 -0.1631 -2.1831 -1.3246
  838MOL0     H13080   5.845  11.457   2.452 -0.9754  1.7381 -1.4971
  838MOL0     H13081   5.727  11.248   2.147  0.8187 -1.1364  0.7050
  838MOL0     H13082   5.433  11.134   2.070 -4.6096  0.5342 -0.8290
  838MOL0     H13083   5.335  11.264   2.120  0.9835  0.6552  1.3567
  838MOL0     H13084   5.551  11.366   1.945 -0.7041  1.9223 -0.3620
  838MOL0     H13085   5.372  11.386   1.931  1.2015  2.3527  0.7926
  838MOL0     H13086   5.331  11.197   1.821 -0.7118  2.2930 -0.2537
  838MOL0     H13087   5.467  11.104   1.866 -0.0375 -0.2359  0.0107
  838MOL0     H13088   5.449  11.335   1.684  0.2111  1.1450  2.8792
  838MOL0     H13089   5.453  11.161   1.632 -0.3666 -0.7300  0.5953
  838MOL0     H13090   5.859  11.217   1.703 -0.8719 -2.6973 -1.2640
  838MOL0     H13091   6.116  11.399   1.584 -0.9869 -0.5658  1.4781
  838MOL0     H13092   6.105  11.225   1.625 -0.2283 -0.6030 -1.5600
  838MOL0     H13093   6.125  11.267   1.460  1.5558 -1.5962  0.5383
  838MOL0     H13094   5.988  11.735   1.198 -2.5633  1.6713 -1.9702
  838MOL0     H13095   6.147  11.823   1.004  0.9206  0.2941 -2.9006
  838MOL0     H13096   6.363  11.775   0.909 -3.4541  1.3368  0.0629
  838MOL0     H13097   6.382  11.598   0.860  0.3176 -0.4295 -0.8519
  838MOL0     H13098   6.399  11.844   0.693  0.8317  0.0800 -3.0994
  838MOL0     H13099   6.527  11.736   0.737  0.1608  1.2642 -2.0938
  838MOL0     H13100   6.434  11.732   0.502  1.8824  0.7310  2.0188
  838MOL0     H13101   6.302  11.634   0.563  0.1698 -0.2848  0.7082
  838MOL0     H13102   6.596  11.576   0.632 -0.9448  1.8112  1.1772
  838MOL0     H13103   6.458  11.470   0.659  1.7266 -2.3586 -0.8384
  838MOL0     H13104   6.563  11.571   0.391  1.9832 -0.1101  1.2565
  838MOL0     H13105   6.429  11.450   0.409  1.0056  0.9582 -3.4111
  838MOL0     H13106   6.719  11.399   0.485  0.0410  1.5261 -3.4997
  838MOL0     H13107   6.575  11.290   0.507 -0.7242  0.4086  0.4044
  838MOL0     H13108   6.690  11.394   0.236 -0.3366  0.2495 -2.0776
  838MOL0     H13109   6.530  11.327   0.249 -0.7908 -0.2971  1.7266
  838MOL0     H13110   6.624  11.124   0.353  0.3966  2.5271  2.9780
  838MOL0     H13111   6.782  11.176   0.318 -0.4223 -2.1548 -0.5535
  838MOL0     H13112   6.053  11.468   0.774  1.8662  0.6371 -1.1956
  838MOL0     H13113   5.939  11.381   0.953  1.8499 -0.9486  1.5608
  838MOL0     H13114   5.699  11.478   1.313 -0.5771 -3.0201 -0.0767
  838MOL0     H13115   5.559  11.368   1.452 -0.4138  1.1525  1.5070
  838MOL0     H13116   6.417  10.842   1.995  1.1312 -2.2211  0.3024
  838MOL0     H13117   6.535  10.850   1.775 -0.9643  1.4645  0.1196
  838MOL0     H13118   6.961  10.814   1.572 -0.4415 -0.7060 -1.0584
  838MOL0     H13119   7.109  10.827   1.384 -1.0407 -0.4069 -1.5834
  838MOL0     H13120   7.091  11.203   1.107  4.7830  0.9201  1.0121
  838MOL0     H13121   7.197  11.101   1.032 -0.9504 -1.1833 -0.5132
  838MOL0     H13122   7.015  11.094   0.894 -0.5442  0.2534 -0.4622
  838MOL0     H13123   6.905  11.037   1.029 -0.4665  1.8456 -2.5468
  838MOL0     H13124   6.924  10.843   0.967 -1.0948  0.6872 -1.7571
  838MOL0     H13125   7.091  10.842   1.038 -0.0284 -2.0271 -0.6685
  838MOL0     H13126   7.052  10.875   0.744  1.2857  2.7306  0.8589
  838MOL0     H13127   7.077  10.731   0.828  1.5082  0.0787  0.1627
  838MOL0     H13128   7.469  10.914   0.854  0.6953  0.1433 -3.2072
  838MOL0     H13129   6.970  11.231   1.302 -2.7238  0.7439  0.6394
  838MOL0     H13130   6.808  11.200   1.473 -0.7137 -0.9478  0.7857
  839MOL0     O13131   7.112   6.964  10.950 -0.4255 -0.4519 -1.2931
  839MOL0     C13132   7.154   7.064  10.901 -0.2314  0.2194  0.6815
  839MOL0     O13133   7.086   7.171  10.853  0.0714  0.6663  0.4494
  839MOL0     C13134   6.956   7.166  10.877  0.6420 -0.4713  0.7021
  839MOL0     C13135   6.863   7.121  10.784 -0.0380 -0.4735 -0.1563
  839MOL0     C13136   6.728   7.103  10.807  0.8959 -0.2128 -0.3745
  839MOL0     C13137   6.671   7.139  10.929  0.2885  0.1198  0.3118
  839MOL0     O13138   6.535   7.116  10.945 -0.4291  0.3472  0.0110
  839MOL0     C13139   6.471   7.205  11.044 -0.2137 -0.4643 -0.1283
  839MOL0     C13140   6.319   7.180  11.043 -0.4501 -0.4865  0.4354
  839MOL0     C13141   6.254   7.214  11.176  0.2821  0.3660 -0.5897
  839MOL0     C13142   6.097   7.210  11.167  0.1740  0.2454  1.0263
  839MOL0     C13143   6.025   7.287  11.055 -0.0975  0.7666  0.1589
  839MOL0     C13144   5.869   7.264  11.078  0.0462  0.4924 -0.3404
  839MOL0     C13145   5.787   7.340  10.977  1.2498 -0.2970  0.8624
  839MOL0     C13146   5.630   7.315  10.995 -0.2042  0.6943 -0.2346
  839MOL0     N13147   5.593   7.172  10.978  0.0395 -0.4442 -0.6690
  839MOL0     C13148   5.526   7.098  11.077  0.1651 -0.1406 -0.4028
  839MOL0     C13149   5.465   7.002  11.002  0.4047 -0.4965 -0.4757
  839MOL0     C13150   5.366   6.901  11.068 -0.2375 -1.1124  0.5943
  839MOL0     C13151   5.408   6.880  11.217  0.5013  0.0633 -0.3581
  839MOL0     C13152   5.319   6.776  11.287 -0.6227 -0.0219 -0.3104
  839MOL0     C13153   5.185   6.822  11.336  0.7013  0.5181 -0.4535
  839MOL0     O13154   5.115   6.840  11.215  0.1033  0.2907 -0.2601
  839MOL0     C13155   4.986   6.881  11.215  0.3757 -0.1489 -1.1123
  839MOL0     C13156   4.900   6.842  11.322  0.0760 -0.0063 -0.1622
  839MOL0     C13157   4.760   6.873  11.324 -0.8668  0.4023  0.4036
  839MOL0     C13158   4.662   6.808  11.424  0.3299 -0.0732  0.3007
  839MOL0     C13159   4.698   6.955  11.219 -0.0582 -0.0283 -0.8378
  839MOL0     C13160   4.557   6.998  11.211  0.6696 -0.0975 -0.8092
  839MOL0     O13161   4.460   6.930  11.290 -0.6126 -0.2774 -0.0427
  839MOL0     C13162   4.334   6.980  11.304 -0.3628 -0.3261 -0.3746
  839MOL0     C13163   4.261   6.901  11.389  0.1445  0.0226 -0.2705
  839MOL0     C13164   4.133   6.944  11.421 -0.8517 -0.1493 -0.5120
  839MOL0     C13165   4.077   7.060  11.363 -0.5363  0.9615  0.5332
  839MOL0     O13166   3.945   7.084  11.397  0.2795 -0.8007  0.5188
  839MOL0     C13167   3.868   7.201  11.347  0.4414 -0.1017 -0.1201
  839MOL0     C13168   3.725   7.150  11.313  0.0228 -0.7164 -0.1649
  839MOL0     C13169   3.630   7.266  11.289 -0.2507  0.0764 -0.1654
  839MOL0     C13170   3.494   7.214  11.250  0.4442 -0.0297  0.7835
  839MOL0     C13171   3.375   7.313  11.245  0.2601 -0.6095  0.5713
  839MOL0     C13172   3.250   7.244  11.185 -0.1497 -0.0083  0.3550
  839MOL0     C13173   3.123   7.327  11.201 -0.1462 -0.4857  0.0152
  839MOL0     C13174   3.005   7.267  11.130  0.0632  0.8115  0.6550
  839MOL0    Cl13175   2.985   7.326  10.969  0.1711 -0.3863  0.0284
  839MOL0     C13176   4.154   7.144  11.281  1.5193  0.2572  0.1083
  839MOL0     C13177   4.281   7.109  11.257 -0.3269  1.2094 -0.1855
  839MOL0     O13178   4.532   7.081  11.130  0.0728  0.9286  0.5963
  839MOL0     C13179   4.793   6.997  11.117  0.0114  0.1243 -0.8233
  839MOL0     C13180   4.925   6.959  11.116  0.6596 -0.1520  0.4033
  839MOL0     N13181   5.508   7.016  10.870  0.7336 -0.1709 -0.3722
  839MOL0     N13182   5.591   7.110  10.860  0.6514 -0.8271 -0.4946
  839MOL0     C13183   6.759   7.199  11.023  0.0909  1.0200  0.0408
  839MOL0     C13184   6.897   7.211  10.994  0.1780  0.8045 -0.4769
  839MOL0     C13185   7.302   7.061  10.885 -0.2948  0.7183  1.3026
  839MOL0     C13186   7.377   6.941  10.893  0.0989 -0.5417 -0.9601
  839MOL0     C13187   7.515   6.943  10.870  0.2119  0.0034  0.0219
  839MOL0     C13188   7.577   7.058  10.829 -1.3877  0.9853  0.4241
  839MOL0     O13189   7.711   7.036  10.800  0.6066  0.0136  0.0252
  839MOL0     C13190   7.785   7.134  10.726  0.1685  0.1262  0.9364
  839MOL0     C13191   7.936   7.134  10.757  0.9973  0.4043  0.0783
  839MOL0     C13192   7.969   7.245  10.861 -0.1374  0.0637  0.8923
  839MOL0     C13193   8.113   7.281  10.882  0.4342  0.0709  0.7583
  839MOL0     C13194   8.179   7.218  10.999  0.6643 -0.0551 -0.5083
  839MOL0     C13195   8.257   7.169  11.076  0.0712 -0.1808  0.5776
  839MOL0     C13196   7.511   7.177  10.824  0.0665 -0.0509  0.5048
  839MOL0     C13197   7.368   7.177  10.853 -0.3867 -0.2319 -0.1094
  839MOL0     H13198   6.890   7.107  10.680 -1.6640  0.4343 -0.7304
  839MOL0     H13199   6.657   7.073  10.730  1.2376 -0.5022 -0.5806
  839MOL0     H13200   6.512   7.192  11.144 -2.6655  2.2966  1.3855
  839MOL0     H13201   6.489   7.310  11.019 -1.6130 -0.1560  0.1135
  839MOL0     H13202   6.276   7.238  10.961 -0.7779  0.9885  1.6176
  839MOL0     H13203   6.297   7.077  11.015  0.2163  0.2629 -3.5688
  839MOL0     H13204   6.278   7.158  11.267 -0.7957  1.0899  0.1666
  839MOL0     H13205   6.293   7.313  11.201  4.1610 -1.2864  0.7537
  839MOL0     H13206   6.075   7.103  11.159 -0.3417  0.0754  3.7385
  839MOL0     H13207   6.059   7.243  11.265  1.3038 -1.4368  2.0937
  839MOL0     H13208   6.059   7.391  11.064  0.6227  0.6456 -0.9230
  839MOL0     H13209   6.049   7.252  10.954  2.4248 -0.3683  1.0721
  839MOL0     H13210   5.845   7.158  11.072 -1.9787  0.8018  1.3017
  839MOL0     H13211   5.841   7.290  11.180 -3.1393  0.9643 -1.2192
  839MOL0     H13212   5.790   7.449  10.968 -2.3852 -0.1667 -0.5453
  839MOL0     H13213   5.815   7.307  10.877 -1.7488  1.8262 -0.8706
  839MOL0     H13214   5.588   7.367  10.909  0.5026  0.0502 -0.9877
  839MOL0     H13215   5.600   7.364  11.088  0.9425  3.0315 -1.0072
  839MOL0     H13216   5.525   7.127  11.182 -2.1851  2.7650 -1.0809
  839MOL0     H13217   5.262   6.935  11.061 -1.0349 -3.1373  1.6623
  839MOL0     H13218   5.373   6.808  11.010  0.4292  0.8684 -2.8068
  839MOL0     H13219   5.395   6.970  11.277  0.9361 -0.2639  0.2321
  839MOL0     H13220   5.513   6.850  11.211  0.1207 -1.2974 -0.5094
  839MOL0     H13221   5.378   6.749  11.375 -0.4029 -0.4556 -0.5834
  839MOL0     H13222   5.300   6.696  11.214  0.2087  0.4010 -1.0217
  839MOL0     H13223   5.169   6.911  11.398 -2.3099  0.2940 -0.7430
  839MOL0     H13224   5.143   6.735  11.387 -1.3235  0.8335 -1.4677
  839MOL0     H13225   4.929   6.766  11.394 -0.8563  0.9576  1.2798
  839MOL0     H13226   4.592   6.880  11.467  0.1948 -0.0791  0.0883
  839MOL0     H13227   4.612   6.725  11.374 -1.7917  0.7438  0.9659
  839MOL0     H13228   4.706   6.756  11.510 -0.9207 -0.8139  0.5154
  839MOL0     H13229   4.294   6.808  11.434 -1.7717  0.4644  2.2493
  839MOL0     H13230   4.064   6.888  11.483 -0.1050  2.1415  2.6091
  839MOL0     H13231   3.873   7.282  11.420  1.5096  0.8444 -1.1993
  839MOL0     H13232   3.912   7.235  11.253  3.2140  2.0310  1.7889
  839MOL0     H13233   3.729   7.103  11.214 -0.9354  1.4110 -1.2903
  839MOL0     H13234   3.697   7.081  11.393 -1.6866 -0.6251 -0.6453
  839MOL0     H13235   3.674   7.322  11.206 -0.1839  1.8076  0.9958
  839MOL0     H13236   3.619   7.331  11.377  1.7898 -1.2874  1.1790
  839MOL0     H13237   3.500   7.177  11.146 -2.0790  0.3221  0.4640
  839MOL0     H13238   3.464   7.129  11.311 -0.3350  0.7709  1.5307
  839MOL0     H13239   3.413   7.392  11.180  0.6461 -0.8284  0.5260
  839MOL0     H13240   3.368   7.354  11.347  1.4428 -0.4337  0.6001
  839MOL0     H13241   3.274   7.211  11.083 -1.4948 -1.2641  0.4112
  839MOL0     H13242   3.226   7.156  11.245  0.8928 -1.1347 -0.8158
  839MOL0     H13243   3.126   7.432  11.173  1.0544 -0.1209  1.3648
  839MOL0     H13244   3.092   7.327  11.306 -3.1146 -0.4663 -0.7786
  839MOL0     H13245   2.913   7.294  11.183  0.7878  0.8182  1.9690
  839MOL0     H13246   3.018   7.159  11.136 -0.8801  0.4097 -2.5442
  839MOL0     H13247   4.100   7.227  11.236 -1.7358  0.1519  3.3513
  839MOL0     H13248   4.341   7.184  11.206 -0.6171  1.0064 -0.8299
  839MOL0     H13249   4.753   7.050  11.031 -0.4698 -0.4666 -0.9754
  839MOL0     H13250   4.987   6.994  11.034 -0.2359 -2.3058 -1.2955
  839MOL0     H13251   6.735   7.229  11.125  2.1251 -0.1600  0.9348
  839MOL0     H13252   6.960   7.243  11.076  1.0608 -0.2304 -0.7234
  839MOL0     H13253   7.328   6.851  10.929 -1.9933  1.0618  0.4624
  839MOL0     H13254   7.572   6.850  10.863  0.6836  0.3880 -2.1833
  839MOL0     H13255   7.772   7.122  10.618  2.7653  2.4045  0.2456
  839MOL0     H13256   7.747   7.232  10.756  0.9736  0.1960  1.7797
  839MOL0     H13257   8.005   7.143  10.673  2.0047  2.0802  1.0553
  839MOL0     H13258   7.958   7.038  10.806 -0.7721  0.4324  1.0007
  839MOL0     H13259   7.922   7.210  10.954 -2.6293 -2.9892 -1.2795
  839MOL0     H13260   7.916   7.333  10.825 -1.1251  0.0418  2.2084
  839MOL0     H13261   8.115   7.390  10.891 -3.6587  0.6236 -2.3200
  839MOL0     H13262   8.163   7.261  10.787 -2.6219 -2.2988 -0.5270
  839MOL0     H13263   8.331   7.115  11.131  1.1565 -0.4129 -1.0373
  839MOL0     H13264   7.567   7.270  10.826  1.8604 -0.9898 -1.7729
  839MOL0     H13265   7.319   7.273  10.862 -1.9966 -1.0315  0.0052
  840MOL0     O13266   5.824   5.859   3.072  0.0340 -0.3021  0.4605
  840MOL0     C13267   5.756   5.849   3.175 -0.1760 -0.1854  0.5057
  840MOL0     O13268   5.621   5.820   3.180 -0.4398 -0.0051 -0.1934
  840MOL0     C13269   5.549   5.837   3.066 -1.3760 -0.4156  0.3140
  840MOL0     C13270   5.528   5.946   2.978 -0.3055 -1.1679 -0.5154
  840MOL0     C13271   5.428   5.941   2.874  0.7991  0.4032  0.4527
  840MOL0     C13272   5.356   5.817   2.842  1.0439  0.5558 -0.1128
  840MOL0     O13273   5.260   5.802   2.737 -0.7218  0.0260  0.5293
  840MOL0     C13274   5.225   5.913   2.653  0.1417  0.0735  0.4279
  840MOL0     C13275   5.122   5.872   2.550 -0.4568 -0.0912 -0.6363
  840MOL0     C13276   5.178   5.766   2.461  0.1739  0.1820  0.7949
  840MOL0     C13277   5.283   5.815   2.362 -0.3094  0.2285 -0.5630
  840MOL0     C13278   5.320   5.708   2.265 -0.1435 -0.3356  0.4399
  840MOL0     C13279   5.354   5.762   2.126  0.0438 -0.4075 -0.1882
  840MOL0     C13280   5.296   5.666   2.021 -0.1744 -0.5798 -0.8059
  840MOL0     C13281   5.305   5.743   1.888  1.1172 -0.0228 -0.0144
  840MOL0     N13282   5.197   5.681   1.801  0.5587  0.4936  0.2743
  840MOL0     C13283   5.070   5.736   1.787 -0.2813 -0.5683  0.4607
  840MOL0     C13284   5.003   5.651   1.704 -0.3126  0.3360  0.2055
  840MOL0     C13285   4.857   5.660   1.651  0.4048  0.6258 -0.4595
  840MOL0     C13286   4.763   5.721   1.767 -0.0364 -0.8029  0.2519
  840MOL0     C13287   4.624   5.740   1.715  0.5002 -0.1995 -0.1427
  840MOL0     C13288   4.537   5.788   1.834 -0.1414  0.5061 -0.5606
  840MOL0     O13289   4.495   5.682   1.924 -0.2799  0.1971 -0.0341
  840MOL0     C13290   4.444   5.722   2.038  0.3651 -1.8995 -0.2775
  840MOL0     C13291   4.373   5.846   2.045  0.2232 -0.7946  0.4638
  840MOL0     C13292   4.327   5.899   2.172 -0.2736 -0.3878  0.0371
  840MOL0     C13293   4.280   6.045   2.169  0.6042  0.1549  0.3289
  840MOL0     C13294   4.322   5.812   2.287 -0.8401  0.7874  0.0079
  840MOL0     C13295   4.264   5.849   2.418  0.6381  1.0598  0.0394
  840MOL0     O13296   4.242   5.761   2.519 -0.2186  0.4772 -0.0866
  840MOL0     C13297   4.164   5.799   2.626  0.2386 -0.4403  0.7191
  840MOL0     C13298   4.039   5.851   2.607  0.5422 -0.0531 -0.3717
  840MOL0     C13299   3.945   5.871   2.712 -0.5332 -0.0638  0.1220
  840MOL0     C13300   3.984   5.861   2.844  0.3770  0.1294  0.2260
  840MOL0     O13301   3.916   5.888   2.952 -0.9056 -0.1650  0.0551
  840MOL0     C13302   3.782   5.932   2.935  0.2551 -0.2345  0.7901
  840MOL0     C13303   3.791   6.082   2.936 -1.3620 -0.2962 -0.4109
  840MOL0     C13304   3.656   6.153   2.917 -0.0281 -0.0637 -0.3284
  840MOL0     C13305   3.544   6.099   3.010  0.0048  0.5342 -0.4439
  840MOL0     C13306   3.424   6.176   2.999  0.0570 -0.4061 -0.5635
  840MOL0     C13307   3.303   6.100   3.020 -0.0501  0.2756  0.2621
  840MOL0     C13308   3.278   6.042   3.156  0.4356 -0.3239  0.4476
  840MOL0     C13309   3.157   5.944   3.168 -0.6605 -0.5530 -0.2569
  840MOL0    Cl13310   3.006   6.014   3.094 -0.4594  0.6063 -0.3436
  840MOL0     C13311   4.117   5.829   2.867  0.7046  0.7203 -0.4873
  840MOL0     C13312   4.202   5.795   2.764 -0.1004  0.1128  0.6340
  840MOL0     O13313   4.250   5.971   2.434 -0.3666 -0.1842  0.1061
  840MOL0     C13314   4.369   5.679   2.261  0.0860 -1.3947 -0.1297
  840MOL0     C13315   4.433   5.640   2.147 -0.2464  0.7130  0.6359
  840MOL0     N13316   5.092   5.551   1.662  0.4161 -0.9934 -0.3528
  840MOL0     N13317   5.208   5.574   1.719  0.7038 -0.1540 -0.2928
  840MOL0     C13318   5.385   5.707   2.929 -0.6999  0.3827  0.9107
  840MOL0     C13319   5.476   5.721   3.041  1.3183 -0.3627 -0.2250
  840MOL0     C13320   5.831   5.880   3.301 -0.8230  0.7249  0.2271
  840MOL0     C13321   5.966   5.845   3.322  0.4198  0.5203  0.3157
  840MOL0     C13322   6.029   5.870   3.440  0.0935 -0.3924  0.5577
  840MOL0     C13323   5.962   5.939   3.546 -0.7708  0.1431  0.1612
  840MOL0     O13324   6.024   5.943   3.672 -0.2798  0.2112 -0.4723
  840MOL0     C13325   5.946   5.944   3.795  0.2546  0.7511  0.6131
  840MOL0     C13326   5.857   5.813   3.818 -0.3579  0.0778  0.8976
  840MOL0     C13327   5.924   5.672   3.794  0.1371  0.3959 -0.5451
  840MOL0     C13328   5.822   5.577   3.725  0.2566 -0.7912  0.3531
  840MOL0     C13329   5.688   5.566   3.796  0.5827 -1.1251 -0.2357
  840MOL0     C13330   5.595   5.544   3.868 -0.8926  0.4179  0.6424
  840MOL0     C13331   5.832   5.985   3.520 -0.1685  0.4467 -0.8205
  840MOL0     C13332   5.770   5.952   3.408 -0.4849  0.1658  0.8183
  840MOL0     H13333   5.589   6.035   2.989 -1.4610 -0.6332  2.2050
  840MOL0     H13334   5.422   6.025   2.806  0.2933 -0.0821 -0.1103
  840MOL0     H13335   5.182   6.001   2.701  1.5628  0.4457  1.0640
  840MOL0     H13336   5.314   5.944   2.598 -0.2811 -1.8130 -1.4434
  840MOL0     H13337   5.032   5.845   2.607  0.6220 -2.0020  0.2824
  840MOL0     H13338   5.094   5.958   2.489  6.2344  2.8271 -0.4165
  840MOL0     H13339   5.221   5.683   2.519 -1.3399 -3.0216 -2.2887
  840MOL0     H13340   5.089   5.727   2.412 -1.5119 -1.2899  4.6101
  840MOL0     H13341   5.249   5.908   2.316 -0.5592  1.3353  1.7013
  840MOL0     H13342   5.368   5.858   2.416 -0.5045  0.7472 -0.6674
  840MOL0     H13343   5.399   5.641   2.300 -0.5028 -0.6691  0.6317
  840MOL0     H13344   5.229   5.648   2.252  1.2329 -2.5489  0.5428
  840MOL0     H13345   5.300   5.856   2.112 -1.6117 -1.6235 -2.6925
  840MOL0     H13346   5.458   5.792   2.109 -0.1947 -0.2788 -1.4793
  840MOL0     H13347   5.341   5.567   2.028  1.4251  0.1968  0.5931
  840MOL0     H13348   5.191   5.647   2.046 -0.2928 -0.4877 -1.2224
  840MOL0     H13349   5.399   5.721   1.836  0.7544  0.1555 -0.7622
  840MOL0     H13350   5.275   5.848   1.898  0.0287 -0.1516 -1.6087
  840MOL0     H13351   5.037   5.823   1.842  2.1664 -0.3033  1.6430
  840MOL0     H13352   4.858   5.723   1.562 -1.9450  0.0251 -0.9691
  840MOL0     H13353   4.815   5.560   1.636  2.4225 -0.6938  1.8454
  840MOL0     H13354   4.810   5.809   1.813  1.0275 -1.6309  0.7892
  840MOL0     H13355   4.754   5.645   1.845 -1.1034 -0.2065  0.7325
  840MOL0     H13356   4.575   5.653   1.672 -0.8461  0.5191 -0.1327
  840MOL0     H13357   4.621   5.823   1.643  2.5470 -0.3120 -0.4288
  840MOL0     H13358   4.448   5.840   1.797 -1.3128 -1.5694 -0.8041
  840MOL0     H13359   4.592   5.864   1.891 -0.4818  0.7678 -0.5764
  840MOL0     H13360   4.356   5.912   1.961 -1.4050 -0.4052  1.0637
  840MOL0     H13361   4.343   6.114   2.226 -0.3587 -0.5412  2.3210
  840MOL0     H13362   4.271   6.067   2.062 -0.5829 -1.9088 -0.0387
  840MOL0     H13363   4.182   6.044   2.216 -0.0196 -0.3370 -0.9324
  840MOL0     H13364   4.011   5.869   2.503 -0.5345 -1.3793 -0.3491
  840MOL0     H13365   3.853   5.918   2.678 -0.6580 -1.2486 -1.2959
  840MOL0     H13366   3.738   5.880   2.850 -0.0546 -1.4170  1.6529
  840MOL0     H13367   3.723   5.901   3.022 -1.2527  0.6235  0.1191
  840MOL0     H13368   3.824   6.119   3.033 -1.1642  2.8629 -1.5466
  840MOL0     H13369   3.872   6.113   2.869 -0.5859 -1.7422 -0.1855
  840MOL0     H13370   3.620   6.157   2.814 -3.5143  0.5361  0.7729
  840MOL0     H13371   3.673   6.258   2.941 -0.5058  0.4263 -2.0413
  840MOL0     H13372   3.513   5.998   2.981 -1.6802  0.9192 -0.0891
  840MOL0     H13373   3.570   6.094   3.116  0.4278 -0.5750 -0.5846
  840MOL0     H13374   3.420   6.222   2.900  3.0154 -0.5685 -0.8565
  840MOL0     H13375   3.434   6.264   3.064 -2.8202 -2.0317  2.4272
  840MOL0     H13376   3.219   6.167   2.997  0.3819 -0.0177 -2.6216
  840MOL0     H13377   3.301   6.023   2.942 -2.7791 -0.3207  0.8156
  840MOL0     H13378   3.268   6.119   3.233  0.1021  0.1314 -0.0463
  840MOL0     H13379   3.367   5.985   3.184  1.3628 -0.7422 -2.9053
  840MOL0     H13380   3.124   5.945   3.272 -3.3407  4.0153 -0.8703
  840MOL0     H13381   3.171   5.841   3.133 -2.3630  0.0042 -2.8788
  840MOL0     H13382   4.157   5.823   2.967  0.8658 -1.3250 -0.6346
  840MOL0     H13383   4.307   5.780   2.786  0.0688  0.3362  0.0009
  840MOL0     H13384   4.359   5.608   2.342  0.8353 -1.2433  0.1015
  840MOL0     H13385   4.474   5.542   2.125 -0.8772  0.8855 -1.4809
  840MOL0     H13386   5.336   5.613   2.902  1.1458  0.0520 -1.6440
  840MOL0     H13387   5.491   5.629   3.096 -1.6532 -1.4663 -1.0899
  840MOL0     H13388   6.023   5.800   3.241 -3.0051 -0.2875 -1.8429
  840MOL0     H13389   6.132   5.837   3.445  0.3923  0.6662  1.4604
  840MOL0     H13390   6.008   5.942   3.885  0.3582  1.3175  0.5605
  840MOL0     H13391   5.899   6.043   3.797  0.6979  0.9588  2.0290
  840MOL0     H13392   5.771   5.838   3.756 -0.3954  1.4634  1.4594
  840MOL0     H13393   5.823   5.807   3.922 -1.1322  1.5387  0.7585
  840MOL0     H13394   5.959   5.636   3.891  0.7506  0.0479 -0.8849
  840MOL0     H13395   6.005   5.683   3.721  0.3539  1.0397 -0.2114
  840MOL0     H13396   5.856   5.473   3.733  0.2665 -0.7301  1.2584
  840MOL0     H13397   5.811   5.617   3.624 -2.7746 -0.7808  0.5963
  840MOL0     H13398   5.512   5.525   3.934  0.4976  0.1087  2.3609
  840MOL0     H13399   5.780   6.040   3.597  1.2980  2.1321 -0.9608
  840MOL0     H13400   5.664   5.976   3.408 -0.7690 -0.8729 -1.3672
  841MOL0     O13401   8.462   9.498   9.608  0.2462  0.0540 -0.3233
  841MOL0     C13402   8.377   9.588   9.644 -1.0188  0.3258 -0.4353
  841MOL0     O13403   8.379   9.717   9.591 -0.5547  0.0819 -0.2373
  841MOL0     C13404   8.461   9.761   9.493 -0.2540 -0.3551  0.1253
  841MOL0     C13405   8.420   9.883   9.446  0.4214  0.1104  0.0386
  841MOL0     C13406   8.479   9.954   9.341 -0.4471  0.5651 -0.1466
  841MOL0     C13407   8.583   9.881   9.273  0.5858  0.2218 -0.9917
  841MOL0     O13408   8.641   9.949   9.171 -0.3298 -0.4221 -0.3455
  841MOL0     C13409   8.771   9.888   9.131  0.6240 -0.1744 -0.6943
  841MOL0     C13410   8.840   9.987   9.033 -0.7065 -0.1462  0.3334
  841MOL0     C13411   8.787   9.997   8.891 -0.5254  0.7858 -0.0881
  841MOL0     C13412   8.883  10.088   8.808  0.3063  0.1664  0.0119
  841MOL0     C13413   8.811  10.152   8.687  0.3215  0.6962 -0.5528
  841MOL0     C13414   8.864  10.289   8.647  0.0762  0.0265  0.3559
  841MOL0     C13415   8.753  10.342   8.543 -0.4900  0.7244 -0.6347
  841MOL0     C13416   8.805  10.477   8.491  0.0037 -0.1451 -0.8281
  841MOL0     N13417   8.702  10.571   8.424  0.0925  0.2846  0.5148
  841MOL0     C13418   8.578  10.532   8.384  0.9677 -0.0601 -0.5806
  841MOL0     C13419   8.522  10.640   8.324  0.2313 -0.4121  0.2545
  841MOL0     C13420   8.398  10.638   8.240  0.8720 -0.2356  0.6085
  841MOL0     C13421   8.334  10.777   8.225 -0.6394  0.5327 -0.7787
  841MOL0     C13422   8.181  10.766   8.187  0.4459 -0.7263  0.3831
  841MOL0     C13423   8.119  10.907   8.186 -0.6858 -0.3094 -0.2584
  841MOL0     O13424   7.980  10.907   8.141 -0.3567 -0.7563  0.0427
  841MOL0     C13425   7.916  11.033   8.133 -0.4868  0.5418 -0.1599
  841MOL0     C13426   7.975  11.156   8.122 -0.1225 -0.6640  0.4923
  841MOL0     C13427   7.910  11.280   8.123  1.2437  0.4151  0.1851
  841MOL0     C13428   7.987  11.409   8.104 -0.4600  0.0700 -0.7318
  841MOL0     C13429   7.768  11.281   8.143 -0.3173  0.5602 -0.5683
  841MOL0     C13430   7.671  11.391   8.145 -0.5375  0.2361 -0.7166
  841MOL0     O13431   7.537  11.358   8.147 -0.2101 -0.5486 -0.5689
  841MOL0     C13432   7.444  11.457   8.188  0.6478  0.9727 -0.1539
  841MOL0     C13433   7.330  11.481   8.116 -0.9550 -0.1510  0.7717
  841MOL0     C13434   7.230  11.565   8.151  0.1048 -0.5816 -0.3826
  841MOL0     C13435   7.236  11.616   8.279  0.3233  0.5700  0.7063
  841MOL0     O13436   7.130  11.683   8.337 -0.5486 -0.2749  0.1077
  841MOL0     C13437   7.016  11.728   8.257  0.7602 -0.0126  0.4562
  841MOL0     C13438   6.921  11.836   8.313  0.1359  0.3597 -0.2542
  841MOL0     C13439   6.823  11.881   8.203 -0.0913 -0.3416  0.1439
  841MOL0     C13440   6.698  11.782   8.181  0.4747 -0.0526  0.2100
  841MOL0     C13441   6.690  11.749   8.027 -0.1044 -0.1690 -0.2333
  841MOL0     C13442   6.565  11.677   7.992  0.4573 -0.5410 -0.1538
  841MOL0     C13443   6.531  11.675   7.846  0.1018 -0.4669  0.2347
  841MOL0     C13444   6.447  11.557   7.804  0.0235  0.3146 -0.2334
  841MOL0    Cl13445   6.540  11.408   7.838 -0.1990  0.1223 -0.3984
  841MOL0     C13446   7.347  11.599   8.357 -0.0860 -0.0304 -0.1060
  841MOL0     C13447   7.450  11.518   8.313  0.5499 -1.3773  0.1614
  841MOL0     O13448   7.721  11.504   8.164 -0.4571 -0.2909 -0.7033
  841MOL0     C13449   7.713  11.153   8.153 -0.3834 -0.4815 -0.3932
  841MOL0     C13450   7.783  11.037   8.145 -0.5299  0.0692 -0.7612
  841MOL0     N13451   8.610  10.750   8.340  0.8439 -0.7464  0.0556
  841MOL0     N13452   8.716  10.711   8.403  0.0657  0.6642  0.4946
  841MOL0     C13453   8.622   9.754   9.321  0.1133 -0.0759  0.1865
  841MOL0     C13454   8.565   9.695   9.431  0.4942 -0.1118 -0.0130
  841MOL0     C13455   8.283   9.555   9.759 -0.1282  0.8511  0.5102
  841MOL0     C13456   8.265   9.424   9.790  0.3518  0.4510 -0.0772
  841MOL0     C13457   8.174   9.389   9.898  0.4212 -0.9394 -0.0095
  841MOL0     C13458   8.098   9.486   9.976 -0.4893 -0.2736  0.7124
  841MOL0     O13459   8.007   9.449  10.072  0.1730 -0.5549 -0.5652
  841MOL0     C13460   7.914   9.539  10.123 -0.1132 -0.9179 -0.1365
  841MOL0     C13461   7.821   9.573  10.008  0.0399 -0.1747  0.4551
  841MOL0     C13462   7.744   9.458   9.959  0.0211  0.8996 -0.2438
  841MOL0     C13463   7.683   9.363  10.064 -0.4268 -0.5356 -0.0766
  841MOL0     C13464   7.588   9.284   9.990  0.4532  0.1811 -0.5569
  841MOL0     C13465   7.509   9.205   9.943  0.4231  0.4078 -0.8868
  841MOL0     C13466   8.122   9.618   9.931  0.3734 -0.2246  0.1778
  841MOL0     C13467   8.217   9.654   9.829  0.6639 -0.4780  0.4972
  841MOL0     H13468   8.331   9.933   9.486  0.2427  1.1901 -1.6319
  841MOL0     H13469   8.446  10.050   9.302  1.9957  0.5890 -2.4620
  841MOL0     H13470   8.845   9.866   9.209 -1.3671  0.9642  1.6519
  841MOL0     H13471   8.747   9.797   9.076 -2.3675 -1.8164  2.8257
  841MOL0     H13472   8.848  10.090   9.071 -1.4533 -0.1862  0.6105
  841MOL0     H13473   8.943   9.952   9.027 -0.9010 -0.6012 -0.5901
  841MOL0     H13474   8.789   9.896   8.849  0.0788  0.5653  0.4614
  841MOL0     H13475   8.680  10.019   8.890 -1.8461 -3.4640  4.8123
  841MOL0     H13476   8.927  10.171   8.865 -0.2212  1.5434 -1.5139
  841MOL0     H13477   8.965  10.031   8.764 -1.4540 -1.0105 -1.9266
  841MOL0     H13478   8.826  10.085   8.602  0.7336  0.0238  0.0434
  841MOL0     H13479   8.703  10.157   8.705  0.1257 -0.0271 -1.4381
  841MOL0     H13480   8.865  10.361   8.729  1.3022  0.4918 -0.0492
  841MOL0     H13481   8.961  10.282   8.597 -1.2843 -2.1546 -2.2206
  841MOL0     H13482   8.732  10.267   8.466 -0.5825  2.3253 -2.2397
  841MOL0     H13483   8.658  10.358   8.594 -0.5466 -1.7294  0.1460
  841MOL0     H13484   8.889  10.458   8.423  1.7459  1.0980  0.8564
  841MOL0     H13485   8.856  10.528   8.573  1.1862 -3.0745  0.4187
  841MOL0     H13486   8.547  10.427   8.381 -0.9286  0.3634  1.4607
  841MOL0     H13487   8.423  10.604   8.139 -0.4376 -0.5304  0.3543
  841MOL0     H13488   8.319  10.574   8.282  1.4527  0.1746  2.3955
  841MOL0     H13489   8.377  10.838   8.145 -1.2734  1.5712 -0.3590
  841MOL0     H13490   8.346  10.831   8.319 -1.2894 -0.9079  0.1621
  841MOL0     H13491   8.117  10.707   8.254  1.8638 -1.3787  1.2002
  841MOL0     H13492   8.166  10.732   8.084 -1.2852  0.8066  0.0697
  841MOL0     H13493   8.182  10.976   8.130  0.0156 -2.4153 -2.2346
  841MOL0     H13494   8.118  10.937   8.291  0.7391 -3.3484  0.7393
  841MOL0     H13495   8.082  11.170   8.118  0.0098  0.0024  3.8146
  841MOL0     H13496   7.948  11.455   8.013 -0.1448 -0.9902 -1.4119
  841MOL0     H13497   7.974  11.482   8.185  1.6300  0.9253 -1.1059
  841MOL0     H13498   8.094  11.385   8.098 -0.8292 -1.9134 -0.0520
  841MOL0     H13499   7.309  11.435   8.019  0.9792  0.4578  0.0176
  841MOL0     H13500   7.149  11.584   8.081  1.2438 -3.0878 -2.5611
  841MOL0     H13501   7.071  11.770   8.173  0.9195  1.0797  1.0936
  841MOL0     H13502   6.957  11.640   8.229 -2.2784  1.3912  1.8791
  841MOL0     H13503   6.868  11.809   8.404  0.3936  0.5475 -0.0500
  841MOL0     H13504   6.982  11.916   8.355 -2.4199  1.6809  1.1836
  841MOL0     H13505   6.875  11.891   8.108  0.8280 -0.1175  0.6574
  841MOL0     H13506   6.787  11.983   8.222 -0.8525 -0.4019 -0.8774
  841MOL0     H13507   6.696  11.703   8.257  0.6434  0.6952  1.0152
  841MOL0     H13508   6.609  11.843   8.200  0.9875  1.3366 -1.5380
  841MOL0     H13509   6.769  11.676   8.006  1.4198  0.7880  1.8518
  841MOL0     H13510   6.705  11.841   7.970  1.0421 -0.1286  0.1090
  841MOL0     H13511   6.577  11.574   8.027  1.7166 -1.4555 -2.9515
  841MOL0     H13512   6.485  11.713   8.057  1.4988 -2.7291  2.5212
  841MOL0     H13513   6.620  11.679   7.782 -0.8964  2.5260 -1.1454
  841MOL0     H13514   6.477  11.770   7.833 -1.1098 -0.8954  1.7593
  841MOL0     H13515   6.417  11.571   7.700  3.7093 -0.2654 -1.5527
  841MOL0     H13516   6.355  11.549   7.862 -0.4468  5.3298  0.1459
  841MOL0     H13517   7.351  11.629   8.461  1.8630 -0.9994  0.1473
  841MOL0     H13518   7.536  11.503   8.378  2.7049  0.1255 -2.1407
  841MOL0     H13519   7.606  11.136   8.163 -0.2002 -0.1966  3.2407
  841MOL0     H13520   7.720  10.950   8.160  0.8074 -1.2914 -2.5646
  841MOL0     H13521   8.693   9.695   9.264 -1.0017 -1.0270 -0.2699
  841MOL0     H13522   8.596   9.595   9.459 -0.2843 -0.1750  0.6638
  841MOL0     H13523   8.318   9.341   9.745  1.0244 -0.3333  2.0133
  841MOL0     H13524   8.163   9.286   9.928  0.0890 -1.4299 -1.7250
  841MOL0     H13525   7.858   9.488  10.202  0.5925 -0.8231  0.4298
  841MOL0     H13526   7.948   9.637  10.157 -3.6220  0.2950  0.2894
  841MOL0     H13527   7.869   9.606   9.916  0.4624 -3.0793 -0.4819
  841MOL0     H13528   7.749   9.648  10.040 -0.5066 -0.1555 -0.7693
  841MOL0     H13529   7.812   9.403   9.894 -0.0876 -0.1575  0.5091
  841MOL0     H13530   7.654   9.496   9.908 -1.1034  1.3814  1.9575
  841MOL0     H13531   7.626   9.424  10.135 -1.6343 -1.3006 -0.3515
  841MOL0     H13532   7.764   9.308  10.112  0.7253 -0.5464 -1.9513
  841MOL0     H13533   7.430   9.144   9.903 -1.5952  0.9059  1.9758
  841MOL0     H13534   8.066   9.699   9.978 -1.1282 -1.1619  0.0892
  841MOL0     H13535   8.219   9.757   9.796 -1.9495 -0.6608 -0.4573
  842MOL0     O13536   3.910   7.458   5.694  0.0187 -0.3833 -0.5809
  842MOL0     C13537   3.879   7.451   5.806 -0.3513  0.2182 -0.5970
  842MOL0     O13538   3.934   7.515   5.913  0.3424  0.0452  0.0990
  842MOL0     C13539   4.019   7.614   5.882  0.2762 -0.8534  0.3369
  842MOL0     C13540   4.134   7.613   5.794  0.8228 -0.6186  0.6813
  842MOL0     C13541   4.201   7.729   5.766 -0.3974  0.3566 -0.3111
  842MOL0     C13542   4.160   7.855   5.809  0.7921  0.1944 -0.1574
  842MOL0     O13543   4.226   7.975   5.781 -0.4246  0.1653  0.0710
  842MOL0     C13544   4.342   7.975   5.702  0.5628 -1.0938  0.0573
  842MOL0     C13545   4.414   8.110   5.720  0.1416 -0.5110 -0.4461
  842MOL0     C13546   4.377   8.221   5.618 -0.9818  0.4126  0.3966
  842MOL0     C13547   4.235   8.261   5.609 -0.0576 -0.1342  0.1679
  842MOL0     C13548   4.175   8.296   5.743 -0.2902  0.3969 -0.3385
  842MOL0     C13549   4.032   8.357   5.720  0.2447  0.4032  0.4807
  842MOL0     C13550   4.041   8.507   5.684  0.4916  0.7636  0.2784
  842MOL0     C13551   3.896   8.560   5.662 -0.0291 -0.2862 -0.2692
  842MOL0     N13552   3.827   8.608   5.775 -0.3387  0.6323  0.3808
  842MOL0     C13553   3.886   8.665   5.889  0.2669  0.2686  0.1379
  842MOL0     C13554   3.783   8.683   5.975 -0.1790  0.6796  0.2172
  842MOL0     C13555   3.790   8.728   6.119 -0.7384 -0.3481  0.8037
  842MOL0     C13556   3.766   8.619   6.221 -0.0926 -0.1301  0.1230
  842MOL0     C13557   3.786   8.668   6.370  0.1115  0.0754 -0.1086
  842MOL0     C13558   3.766   8.558   6.476 -0.0864  0.1881 -0.2745
  842MOL0     O13559   3.728   8.633   6.600 -1.4156  0.5721 -0.3020
  842MOL0     C13560   3.594   8.629   6.629 -0.0969  0.1537 -0.4372
  842MOL0     C13561   3.521   8.514   6.660  0.2613 -0.3024  0.2816
  842MOL0     C13562   3.378   8.527   6.674  0.0737 -0.0905  0.7182
  842MOL0     C13563   3.305   8.391   6.688  0.1827  0.2471  0.0548
  842MOL0     C13564   3.312   8.655   6.672 -0.4075  0.6848  1.0282
  842MOL0     C13565   3.162   8.664   6.680 -0.2916  0.3000  0.4291
  842MOL0     O13566   3.120   8.793   6.683 -0.4840 -0.3013 -0.2929
  842MOL0     C13567   2.989   8.805   6.722  0.2984  0.6396  0.2247
  842MOL0     C13568   2.885   8.798   6.633  0.6186 -0.1133  0.8041
  842MOL0     C13569   2.751   8.831   6.659  0.0798 -0.2297 -0.2586
  842MOL0     C13570   2.723   8.883   6.789 -0.5132  0.1749  0.0161
  842MOL0     O13571   2.591   8.908   6.811 -0.1633  0.4727 -0.7454
  842MOL0     C13572   2.551   9.013   6.909 -0.9345 -0.0742 -0.4957
  842MOL0     C13573   2.451   9.097   6.845  0.7904 -0.5809 -0.0385
  842MOL0     C13574   2.396   9.210   6.941 -0.4075 -0.1030 -1.2555
  842MOL0     C13575   2.288   9.304   6.890 -0.1573  0.0074 -0.2265
  842MOL0     C13576   2.188   9.350   6.998  0.1749  0.5543  0.1801
  842MOL0     C13577   2.080   9.438   6.940 -0.1464 -0.2509  0.2907
  842MOL0     C13578   1.955   9.448   7.031  0.3604  0.1315 -0.4052
  842MOL0     C13579   1.872   9.556   6.968 -0.1636 -0.1740  0.4427
  842MOL0    Cl13580   1.839   9.538   6.804  0.5278  0.2297  0.2559
  842MOL0     C13581   2.824   8.886   6.884 -0.3668 -0.2282 -0.3107
  842MOL0     C13582   2.955   8.844   6.856 -0.5258  0.8832 -0.0412
  842MOL0     O13583   3.088   8.563   6.680  0.4209  0.9377 -0.2206
  842MOL0     C13584   3.393   8.768   6.654  0.4349 -0.0083  0.2368
  842MOL0     C13585   3.527   8.750   6.631  0.0572  0.1075  0.3093
  842MOL0     N13586   3.664   8.641   5.911  0.5325  0.3617  1.2787
  842MOL0     N13587   3.693   8.597   5.793  0.6922  0.6217 -0.2832
  842MOL0     C13588   4.056   7.854   5.902 -0.1040  0.0324 -0.4317
  842MOL0     C13589   3.985   7.738   5.937 -0.9715  0.5546 -0.1643
  842MOL0     C13590   3.761   7.368   5.838  0.2959 -0.1442 -0.1583
  842MOL0     C13591   3.725   7.253   5.753 -0.7689 -0.3400 -0.3029
  842MOL0     C13592   3.600   7.192   5.786 -0.7287  0.1834  0.0073
  842MOL0     C13593   3.525   7.225   5.896 -0.3077  0.1951 -0.3250
  842MOL0     O13594   3.403   7.157   5.904  0.7389 -0.7951 -0.4000
  842MOL0     C13595   3.312   7.179   6.009 -0.8641  0.5217 -0.2329
  842MOL0     C13596   3.204   7.069   6.020  0.6062  0.2019  0.6642
  842MOL0     C13597   3.258   6.933   5.995  0.0980 -0.3340  0.5922
  842MOL0     C13598   3.149   6.820   6.009  1.0499 -0.8320 -0.2712
  842MOL0     C13599   3.047   6.830   5.903  1.1294 -1.1961  0.5937
  842MOL0     C13600   2.961   6.839   5.814  0.3156 -0.4081  0.0074
  842MOL0     C13601   3.566   7.329   5.978 -0.3243 -0.2362 -0.2453
  842MOL0     C13602   3.688   7.404   5.949  0.3446 -0.4241  0.0806
  842MOL0     H13603   4.164   7.520   5.748 -0.0721 -0.7261  0.2835
  842MOL0     H13604   4.284   7.712   5.698 -0.9585 -2.4412 -0.4469
  842MOL0     H13605   4.410   7.894   5.727  1.6797 -1.1445 -2.7528
  842MOL0     H13606   4.316   7.955   5.597  0.6387 -0.4732 -0.0823
  842MOL0     H13607   4.403   8.154   5.820 -0.0449  0.4318 -0.8651
  842MOL0     H13608   4.523   8.095   5.713  0.3587  0.8070 -0.2602
  842MOL0     H13609   4.423   8.316   5.646 -0.2557  0.1336  0.1887
  842MOL0     H13610   4.409   8.186   5.520  0.7716 -1.6215  1.5866
  842MOL0     H13611   4.220   8.349   5.546 -1.1384 -0.9204 -0.7128
  842MOL0     H13612   4.178   8.175   5.573  0.4566 -1.2982  2.0205
  842MOL0     H13613   4.157   8.214   5.812 -2.0874  0.5296 -0.6069
  842MOL0     H13614   4.240   8.367   5.795 -0.0905  0.4371 -0.6376
  842MOL0     H13615   3.987   8.301   5.638  1.7978 -0.4962  0.2026
  842MOL0     H13616   3.969   8.350   5.810  1.1391  2.0555  1.2850
  842MOL0     H13617   4.086   8.554   5.772  0.9621 -0.3938  0.6817
  842MOL0     H13618   4.093   8.519   5.589 -4.3683 -0.1188 -2.8934
  842MOL0     H13619   3.832   8.484   5.616  0.8764 -0.3482 -1.4755
  842MOL0     H13620   3.893   8.636   5.583 -1.9281  0.6046  0.5860
  842MOL0     H13621   3.989   8.687   5.918  0.0549 -0.8037  1.8538
  842MOL0     H13622   3.883   8.784   6.137  0.0989 -0.4682 -2.5913
  842MOL0     H13623   3.711   8.802   6.128 -0.5168  0.1006 -0.7589
  842MOL0     H13624   3.835   8.536   6.202  0.9504  1.1624 -2.1637
  842MOL0     H13625   3.664   8.581   6.205 -0.4829  0.9291  0.0060
  842MOL0     H13626   3.708   8.742   6.391 -0.8892 -0.9819  0.0821
  842MOL0     H13627   3.883   8.711   6.395 -1.1564  2.3907  1.1259
  842MOL0     H13628   3.863   8.509   6.493  0.0501  0.6511  0.2865
  842MOL0     H13629   3.699   8.477   6.445  1.0853 -0.5892 -0.8475
  842MOL0     H13630   3.572   8.419   6.671  1.5010  0.3027 -0.0814
  842MOL0     H13631   3.381   8.314   6.702  3.2448  3.3911  2.7315
  842MOL0     H13632   3.254   8.395   6.785 -0.3414 -1.2006 -0.1373
  842MOL0     H13633   3.236   8.374   6.605  1.8062 -2.1967 -0.9137
  842MOL0     H13634   2.909   8.754   6.537 -0.4415  1.7155 -0.3597
  842MOL0     H13635   2.678   8.818   6.579  2.2243 -0.8371 -2.2331
  842MOL0     H13636   2.520   8.960   6.999  0.3080 -0.4095 -0.2428
  842MOL0     H13637   2.637   9.073   6.940 -0.6777 -0.5093 -0.3545
  842MOL0     H13638   2.487   9.143   6.752  2.4830 -0.8240  0.4587
  842MOL0     H13639   2.375   9.029   6.806  0.4054  0.3671 -0.9986
  842MOL0     H13640   2.481   9.262   6.987  0.7880 -2.5411 -0.5198
  842MOL0     H13641   2.355   9.161   7.030 -0.3236  1.7102 -0.1644
  842MOL0     H13642   2.336   9.395   6.855 -0.9024  1.7572  2.9033
  842MOL0     H13643   2.237   9.242   6.815 -1.6098 -0.1321  0.8394
  842MOL0     H13644   2.241   9.399   7.080 -1.9368  2.0511  0.7360
  842MOL0     H13645   2.146   9.262   7.049  1.4377  0.6300  1.4012
  842MOL0     H13646   2.123   9.530   6.900 -1.0773 -1.4477 -3.9092
  842MOL0     H13647   2.046   9.385   6.851 -1.8610  1.0311  0.1272
  842MOL0     H13648   1.991   9.459   7.133 -0.0000 -1.7572 -0.0267
  842MOL0     H13649   1.892   9.359   7.039 -0.3319  0.6814  0.3405
  842MOL0     H13650   1.920   9.653   6.987 -2.3303  0.5772  2.7641
  842MOL0     H13651   1.775   9.541   7.017 -0.1546 -0.5565  0.3452
  842MOL0     H13652   2.794   8.932   6.977  0.5612 -1.4372  0.6142
  842MOL0     H13653   3.040   8.853   6.923  1.5573  1.1158 -2.5244
  842MOL0     H13654   3.342   8.864   6.648 -0.1086 -0.3943 -2.1599
  842MOL0     H13655   3.591   8.837   6.624 -2.5696  2.2606  1.3897
  842MOL0     H13656   4.019   7.945   5.948  1.9864  0.7903 -0.1318
  842MOL0     H13657   3.913   7.748   6.018  1.1398 -0.0859  1.9218
  842MOL0     H13658   3.765   7.220   5.658 -3.3111 -1.0497 -1.2114
  842MOL0     H13659   3.564   7.135   5.700  0.9085  3.2236 -2.9303
  842MOL0     H13660   3.369   7.178   6.102  0.2609  2.2604 -0.8554
  842MOL0     H13661   3.268   7.279   6.004  0.1388  1.0862  1.5519
  842MOL0     H13662   3.122   7.091   5.951  1.3313 -0.2861 -0.3783
  842MOL0     H13663   3.155   7.070   6.118 -0.3553 -0.2222  0.1939
  842MOL0     H13664   3.348   6.914   6.054 -0.3618  0.9606  1.7735
  842MOL0     H13665   3.290   6.922   5.891 -3.3397 -1.1275 -0.5344
  842MOL0     H13666   3.101   6.821   6.107 -0.0514  2.3694 -0.7057
  842MOL0     H13667   3.198   6.723   5.999 -0.3176 -1.6914  1.0084
  842MOL0     H13668   2.889   6.842   5.735  0.3140 -1.7233 -0.0482
  842MOL0     H13669   3.507   7.363   6.062 -1.0112 -2.2422  0.1622
  842MOL0     H13670   3.710   7.487   6.016 -0.8180 -1.1723  1.4611
  843MOL0     O13671   7.522   9.991   6.164 -0.4159 -0.0346 -0.1396
  843MOL0     C13672   7.583   9.975   6.272  0.3014  0.0901  0.5494
  843MOL0     O13673   7.519   9.954   6.393  0.2951 -0.4886  0.4835
  843MOL0     C13674   7.376   9.965   6.395  0.2197  0.3786 -0.0883
  843MOL0     C13675   7.285   9.914   6.302  0.4848  0.9855 -0.7205
  843MOL0     C13676   7.149   9.944   6.310 -0.5278  0.7499  1.0003
  843MOL0     C13677   7.094  10.022   6.416 -0.5712  1.2313 -0.6879
  843MOL0     O13678   6.959  10.032   6.436 -0.3446  0.4150 -0.3675
  843MOL0     C13679   6.876  10.007   6.318  0.4812  0.2014  0.3218
  843MOL0     C13680   6.728  10.045   6.344  0.1102  0.0015  0.8184
  843MOL0     C13681   6.628  10.024   6.229 -0.0740  1.2073 -0.2327
  843MOL0     C13682   6.489  10.072   6.282  0.0348  0.4133 -0.4162
  843MOL0     C13683   6.381  10.086   6.175 -0.1451 -0.1545 -0.1759
  843MOL0     C13684   6.245  10.021   6.228 -0.4591 -0.4518 -1.1802
  843MOL0     C13685   6.137  10.087   6.160  0.3966 -0.4140 -0.3444
  843MOL0     C13686   6.005  10.013   6.192 -0.7896  0.2544  0.0057
  843MOL0     N13687   5.958  10.029   6.335 -0.4882 -0.5378  1.0170
  843MOL0     C13688   5.977  10.143   6.416 -0.5686  0.0877 -0.2906
  843MOL0     C13689   5.911  10.119   6.531 -0.1291  0.4881  0.6094
  843MOL0     C13690   5.907  10.193   6.653  1.0000 -0.4105 -0.4516
  843MOL0     C13691   5.992  10.316   6.666 -0.3754  0.9190  0.2909
  843MOL0     C13692   6.132  10.262   6.690 -0.1317 -0.1339  0.8758
  843MOL0     C13693   6.247  10.364   6.711  0.0981 -0.0193  0.1564
  843MOL0     O13694   6.367  10.288   6.707 -0.1172  0.0612  0.4059
  843MOL0     C13695   6.485  10.344   6.745  0.0747  0.0386  0.5778
  843MOL0     C13696   6.593  10.298   6.672  0.0284 -0.3782  0.5642
  843MOL0     C13697   6.722  10.347   6.696 -0.3046 -0.4927  0.8133
  843MOL0     C13698   6.840  10.294   6.611  0.1727  0.2086  0.1888
  843MOL0     C13699   6.738  10.450   6.794 -0.1795  0.9357 -0.2740
  843MOL0     C13700   6.859  10.518   6.828  0.1776  0.3167 -1.0697
  843MOL0     O13701   6.944  10.557   6.728  0.0849 -0.2288 -0.8726
  843MOL0     C13702   7.068  10.609   6.753  0.1166 -0.7129 -0.3381
  843MOL0     C13703   7.174  10.531   6.708 -0.4381  0.1957  0.1687
  843MOL0     C13704   7.306  10.576   6.730 -0.6970 -0.0324  0.0007
  843MOL0     C13705   7.333  10.694   6.801  0.2470 -0.0501 -0.4129
  843MOL0     O13706   7.450  10.759   6.835 -0.3441 -0.0673  0.1065
  843MOL0     C13707   7.571  10.705   6.802 -0.3959  0.0033 -0.0469
  843MOL0     C13708   7.682  10.783   6.869  0.5952 -0.0131 -0.1713
  843MOL0     C13709   7.818  10.717   6.846  0.9209 -0.2892 -0.1634
  843MOL0     C13710   7.925  10.817   6.811  0.2356  0.1429 -0.6715
  843MOL0     C13711   7.938  10.929   6.912  0.3225 -0.5019 -0.1889
  843MOL0     C13712   8.070  11.009   6.897 -0.0775 -0.5952 -0.4049
  843MOL0     C13713   8.201  10.921   6.905 -0.6254 -0.1475  0.6598
  843MOL0     C13714   8.340  10.999   6.921  0.0125  0.6951 -0.0829
  843MOL0    Cl13715   8.478  10.909   6.864  0.1994  0.1419  0.2419
  843MOL0     C13716   7.231  10.765   6.854  0.4041  0.0099 -0.0975
  843MOL0     C13717   7.100  10.725   6.828  0.0782  0.2723 -0.1343
  843MOL0     O13718   6.872  10.552   6.943  0.5571  0.0244 -0.3614
  843MOL0     C13719   6.627  10.492   6.868 -0.9813  0.9446 -0.4073
  843MOL0     C13720   6.510  10.435   6.845  0.8443 -0.4026 -0.5007
  843MOL0     N13721   5.836  10.010   6.512 -0.2819  0.0209  0.2833
  843MOL0     N13722   5.863   9.951   6.402  0.0989 -0.6710  0.2210
  843MOL0     C13723   7.185  10.073   6.516 -0.5302 -0.0138  0.5886
  843MOL0     C13724   7.327  10.043   6.496 -0.0736 -0.1047 -1.0878
  843MOL0     C13725   7.728   9.976   6.261 -1.0451  0.3021 -0.3191
  843MOL0     C13726   7.801   9.994   6.375 -0.1882 -0.1439  0.1645
  843MOL0     C13727   7.950   9.994   6.378 -0.3204 -0.2676  0.3717
  843MOL0     C13728   8.019   9.962   6.257 -0.2227 -0.9697  0.1351
  843MOL0     O13729   8.162   9.961   6.265  0.0506  0.1880 -0.1405
  843MOL0     C13730   8.236   9.896   6.159  0.7978 -0.4212  0.0223
  843MOL0     C13731   8.390   9.907   6.188 -0.1721 -0.5652 -0.3541
  843MOL0     C13732   8.440   9.780   6.264 -0.1893  0.2059  0.9100
  843MOL0     C13733   8.599   9.769   6.277  0.0213 -1.0040 -0.6919
  843MOL0     C13734   8.632   9.635   6.307  0.0468 -0.2736 -0.0697
  843MOL0     C13735   8.641   9.517   6.289  0.1421 -0.0292 -1.1024
  843MOL0     C13736   7.948   9.931   6.148  0.2645 -0.4552 -1.2777
  843MOL0     C13737   7.799   9.947   6.138  0.7923  0.6914  0.7570
  843MOL0     H13738   7.328   9.863   6.216  0.1179 -1.4621  0.4496
  843MOL0     H13739   7.100   9.909   6.220  1.9129  0.9885 -0.4926
  843MOL0     H13740   6.921  10.063   6.234  2.6995 -1.9327 -0.0363
  843MOL0     H13741   6.874   9.899   6.300  1.2470 -0.3182  3.0055
  843MOL0     H13742   6.691   9.990   6.431 -1.5518  0.2352  0.2833
  843MOL0     H13743   6.723  10.150   6.374 -0.3416  0.7005 -1.5384
  843MOL0     H13744   6.653  10.076   6.136 -0.0710 -1.0044 -1.5375
  843MOL0     H13745   6.623   9.916   6.214 -1.9991  0.8583  2.3185
  843MOL0     H13746   6.465  10.001   6.362  1.5794  0.0790 -0.2128
  843MOL0     H13747   6.494  10.165   6.339  2.3524  0.0659  0.0573
  843MOL0     H13748   6.365  10.191   6.149  2.8015  0.8314  1.4651
  843MOL0     H13749   6.420  10.035   6.087  2.9395  0.5012  0.6705
  843MOL0     H13750   6.260   9.915   6.205 -0.9667 -1.0998  1.1889
  843MOL0     H13751   6.229  10.026   6.336  0.3017  0.0801 -1.0772
  843MOL0     H13752   6.120  10.193   6.182  0.0249  0.3826 -3.8505
  843MOL0     H13753   6.152  10.084   6.052 -2.0598  0.8957 -0.7971
  843MOL0     H13754   6.030   9.908   6.173 -1.4666 -0.0813  0.9366
  843MOL0     H13755   5.932  10.058   6.124  1.7969  0.0987 -3.1268
  843MOL0     H13756   6.032  10.232   6.388 -1.0444 -0.2823 -2.6347
  843MOL0     H13757   5.804  10.230   6.662  1.1185  0.2561 -1.6415
  843MOL0     H13758   5.940  10.121   6.729  0.0350  1.3181  1.7341
  843MOL0     H13759   5.946  10.357   6.756 -0.7718  1.4548 -0.1454
  843MOL0     H13760   5.977  10.394   6.590 -0.6587  2.3487  1.7704
  843MOL0     H13761   6.165  10.213   6.597  0.5080  0.6075  0.7010
  843MOL0     H13762   6.132  10.189   6.771 -1.4647 -1.5714 -0.3544
  843MOL0     H13763   6.226  10.407   6.809  1.6001 -1.2689  1.0762
  843MOL0     H13764   6.237  10.435   6.629  3.8566 -2.9803 -3.2879
  843MOL0     H13765   6.579  10.218   6.599 -0.2408 -0.9367  1.2169
  843MOL0     H13766   6.859  10.342   6.515  1.4089 -0.1229  0.2446
  843MOL0     H13767   6.930  10.314   6.671  0.2841 -1.9943  0.8425
  843MOL0     H13768   6.820  10.189   6.587  0.1258  0.2424  0.0825
  843MOL0     H13769   7.160  10.437   6.656  0.5822 -0.0525  0.3183
  843MOL0     H13770   7.387  10.527   6.678 -1.8290  2.7431 -5.0201
  843MOL0     H13771   7.578  10.608   6.851 -0.6143  0.4372  0.8518
  843MOL0     H13772   7.595  10.694   6.695  1.5928  1.8761  0.1346
  843MOL0     H13773   7.689  10.886   6.835  2.9372  0.1221  0.5731
  843MOL0     H13774   7.667  10.796   6.977  1.7511  2.0099 -0.2082
  843MOL0     H13775   7.822  10.644   6.764  0.8844 -0.4856  0.0091
  843MOL0     H13776   7.845  10.658   6.934  0.7797 -2.7300 -1.6368
  843MOL0     H13777   8.017  10.757   6.811 -1.4394 -2.6535  0.6249
  843MOL0     H13778   7.907  10.866   6.715 -0.6505 -0.7761 -0.9955
  843MOL0     H13779   7.941  10.900   7.018  0.4750  2.0993  0.5741
  843MOL0     H13780   7.855  10.999   6.900  1.0837  0.3832 -0.4216
  843MOL0     H13781   8.069  11.063   6.802 -2.0908 -0.0228 -0.1066
  843MOL0     H13782   8.062  11.085   6.975 -3.6586 -0.5283 -0.6554
  843MOL0     H13783   8.212  10.874   6.807  0.3102 -0.9171  1.1249
  843MOL0     H13784   8.198  10.843   6.981  0.9989 -0.7184  0.1732
  843MOL0     H13785   8.370  11.013   7.026  3.2030  0.4986 -0.8689
  843MOL0     H13786   8.354  11.102   6.886  1.1248  0.9606  1.0471
  843MOL0     H13787   7.252  10.841   6.929  2.5786 -2.4625  1.9854
  843MOL0     H13788   7.031  10.792   6.878 -2.1658 -2.8089  1.1990
  843MOL0     H13789   6.627  10.571   6.943 -0.3589 -0.6008  1.2820
  843MOL0     H13790   6.424  10.482   6.893  1.5829  0.6330 -0.1530
  843MOL0     H13791   7.163  10.129   6.607 -1.3108  0.3433  0.1996
  843MOL0     H13792   7.405  10.068   6.566 -0.2339 -1.4259 -0.3972
  843MOL0     H13793   7.740  10.011   6.463  0.7541 -0.5899  0.9242
  843MOL0     H13794   8.014  10.006   6.464  1.3900 -3.4108 -0.2998
  843MOL0     H13795   8.211   9.791   6.140  1.8169 -0.5443 -0.7074
  843MOL0     H13796   8.206   9.952   6.069 -0.8640  0.3071  0.9853
  843MOL0     H13797   8.407   9.994   6.253 -0.3898 -0.2617 -0.7028
  843MOL0     H13798   8.449   9.907   6.097  1.3177 -0.5519  0.5789
  843MOL0     H13799   8.414   9.691   6.204  2.5646 -0.0993  0.0207
  843MOL0     H13800   8.390   9.782   6.362 -0.6944 -1.4321  0.7312
  843MOL0     H13801   8.616   9.840   6.359  0.8144 -1.2620 -0.6335
  843MOL0     H13802   8.659   9.799   6.191  0.2357 -0.4043 -0.3402
  843MOL0     H13803   8.653   9.411   6.280 -1.2021 -0.0286 -3.7050
  843MOL0     H13804   8.004   9.908   6.058 -2.1153  0.9514 -3.2452
  843MOL0     H13805   7.735   9.928   6.053  1.8768  0.8291 -0.1230
  844MOL0     O13806   3.409   5.462   8.589 -0.2325  0.6045  0.0439
  844MOL0     C13807   3.429   5.426   8.469  0.5120  0.6341  0.3413
  844MOL0     O13808   3.347   5.351   8.389 -0.9800 -0.7222  0.1302
  844MOL0     C13809   3.269   5.261   8.457 -0.5366  0.2879  0.0449
  844MOL0     C13810   3.141   5.299   8.492  0.9135 -0.8460 -0.2151
  844MOL0     C13811   3.056   5.211   8.552 -0.3301 -0.2345 -0.7501
  844MOL0     C13812   3.101   5.084   8.600 -0.1776  1.1096  1.0706
  844MOL0     O13813   3.021   5.013   8.688  0.2941 -0.0436 -0.1725
  844MOL0     C13814   3.045   4.867   8.685 -0.0840  0.2899 -0.1905
  844MOL0     C13815   2.946   4.784   8.774 -0.5511 -0.1460 -0.0964
  844MOL0     C13816   2.833   4.718   8.706  0.0085 -0.0445 -0.1842
  844MOL0     C13817   2.720   4.811   8.682 -0.8630 -0.6816 -0.4553
  844MOL0     C13818   2.603   4.753   8.609  0.6934  0.7393 -0.5039
  844MOL0     C13819   2.534   4.633   8.691  0.3658 -0.1238 -0.8028
  844MOL0     C13820   2.378   4.614   8.686 -0.4202 -0.1458 -0.3492
  844MOL0     C13821   2.328   4.479   8.731 -0.1735  0.3874 -0.1559
  844MOL0     N13822   2.180   4.460   8.737 -0.1985  0.0837 -0.2103
  844MOL0     C13823   2.081   4.533   8.810 -0.1934  0.7327 -0.1129
  844MOL0     C13824   1.969   4.455   8.815  0.7559 -0.2447  0.1393
  844MOL0     C13825   1.851   4.477   8.901 -0.3029  0.2447  0.5715
  844MOL0     C13826   1.755   4.353   8.887 -0.7081 -0.4334  0.1837
  844MOL0     C13827   1.643   4.369   8.991  0.2858 -0.1707  0.8113
  844MOL0     C13828   1.541   4.261   8.976 -0.3732  0.2934 -0.2319
  844MOL0     O13829   1.430   4.300   9.058  0.5974  0.3521 -0.7600
  844MOL0     C13830   1.317   4.223   9.047 -0.6650  0.1316 -0.0937
  844MOL0     C13831   1.197   4.278   9.097 -0.9045  0.1133 -0.3504
  844MOL0     C13832   1.079   4.203   9.095 -1.0525  0.5544 -0.8472
  844MOL0     C13833   0.957   4.277   9.143 -0.3641 -0.1127  0.0744
  844MOL0     C13834   1.079   4.064   9.043  0.1965 -0.7348  0.2420
  844MOL0     C13835   0.966   3.974   9.034 -0.0218 -0.9272  0.1513
  844MOL0     O13836   0.976   3.839   9.051  0.4806  0.3254 -0.2166
  844MOL0     C13837   0.860   3.768   9.056  0.0662 -0.3821  0.5108
  844MOL0     C13838   0.756   3.808   9.143  0.5195 -0.2003 -0.6610
  844MOL0     C13839   0.634   3.734   9.150 -0.6282 -1.0160 -0.5640
  844MOL0     C13840   0.615   3.620   9.071  0.2378 -1.0812 -0.1372
  844MOL0     O13841   0.497   3.550   9.081 -0.9469 -0.3727  0.2920
  844MOL0     C13842   0.439   3.482   8.972 -0.1992  0.2454  0.5542
  844MOL0     C13843   0.406   3.566   8.847  0.8720 -0.1487 -0.1070
  844MOL0     C13844   0.354   3.712   8.882 -0.1083  0.0453  0.0556
  844MOL0     C13845   0.337   3.791   8.756 -0.7729  0.1751  0.2265
  844MOL0     C13846   0.313   3.942   8.786  0.4585  0.4780  0.1346
  844MOL0     C13847   0.224   4.018   8.688 -0.2839  0.4659 -0.0264
  844MOL0     C13848   0.183   4.148   8.741  0.9775  0.0557 -0.3165
  844MOL0     C13849   0.122   4.236   8.624 -0.8016 -0.2357 -0.4959
  844MOL0    Cl13850   0.249   4.281   8.504  0.0227 -0.2487 -0.4304
  844MOL0     C13851   0.722   3.584   8.989  0.3404 -0.8626  0.0499
  844MOL0     C13852   0.842   3.650   8.982 -0.3368  0.2022  0.0508
  844MOL0     O13853   0.862   4.030   8.984 -0.6284  0.6062 -0.9644
  844MOL0     C13854   1.199   4.008   9.010 -0.4915 -0.6107  0.7330
  844MOL0     C13855   1.314   4.086   9.007  0.1401  0.2601 -0.2737
  844MOL0     N13856   2.005   4.331   8.762  0.2650  0.0538 -0.1719
  844MOL0     N13857   2.126   4.336   8.713  0.1772 -0.5151  0.9159
  844MOL0     C13858   3.235   5.048   8.562 -0.2579  0.4271  0.2812
  844MOL0     C13859   3.321   5.138   8.493  0.1799  0.0259  0.8071
  844MOL0     C13860   3.558   5.472   8.407  0.8929 -0.0956 -0.1812
  844MOL0     C13861   3.651   5.546   8.490 -0.1098  0.7068  0.2659
  844MOL0     C13862   3.774   5.590   8.431  0.0471 -1.4044 -0.5740
  844MOL0     C13863   3.797   5.581   8.290  0.7051  0.3123 -0.4678
  844MOL0     O13864   3.922   5.624   8.243 -0.4837 -0.1951 -1.1444
  844MOL0     C13865   3.978   5.582   8.118 -0.4138  0.3829  0.2945
  844MOL0     C13866   4.086   5.673   8.059 -0.2608 -0.4889  0.4789
  844MOL0     C13867   4.192   5.700   8.166  0.2935 -0.1963  0.2109
  844MOL0     C13868   4.268   5.832   8.133 -0.2445 -0.2714 -0.3209
  844MOL0     C13869   4.353   5.899   8.239 -0.2414 -0.5832  0.9594
  844MOL0     C13870   4.432   5.943   8.321 -0.3539  0.2050 -0.9655
  844MOL0     C13871   3.695   5.518   8.217 -0.4235  0.3284 -0.0780
  844MOL0     C13872   3.581   5.463   8.272  0.0670 -0.5666  0.4178
  844MOL0     H13873   3.100   5.396   8.466  1.0503 -0.7357 -0.0185
  844MOL0     H13874   2.958   5.240   8.590  0.7531  0.3622  1.8199
  844MOL0     H13875   3.049   4.826   8.584 -1.9719  0.0721 -0.2183
  844MOL0     H13876   3.140   4.856   8.737 -0.4925  2.6378  1.1950
  844MOL0     H13877   3.002   4.698   8.811 -0.2579 -0.9949 -2.3479
  844MOL0     H13878   2.929   4.852   8.858  1.5255  2.0859 -1.3216
  844MOL0     H13879   2.871   4.671   8.614 -0.7479  1.4419 -1.3008
  844MOL0     H13880   2.788   4.641   8.769 -0.7155 -0.3335 -1.0354
  844MOL0     H13881   2.665   4.843   8.771 -1.1252  1.8883 -1.4494
  844MOL0     H13882   2.756   4.901   8.631  1.7695 -1.2955  0.1755
  844MOL0     H13883   2.532   4.834   8.588 -1.7695 -0.9120  0.8183
  844MOL0     H13884   2.633   4.714   8.512 -0.4779  0.5514 -0.8141
  844MOL0     H13885   2.575   4.542   8.646 -2.3495 -1.6085 -0.4962
  844MOL0     H13886   2.570   4.630   8.795 -0.1694 -0.2272 -0.6154
  844MOL0     H13887   2.338   4.692   8.753  3.5313  1.0475  0.8570
  844MOL0     H13888   2.347   4.619   8.581  0.3535 -5.6085 -1.1024
  844MOL0     H13889   2.370   4.455   8.829  1.3157  1.2506 -0.5495
  844MOL0     H13890   2.372   4.405   8.664  0.4216 -0.1695  0.8350
  844MOL0     H13891   2.101   4.629   8.857  1.5709  0.3101  0.0681
  844MOL0     H13892   1.880   4.492   9.006  0.3715 -1.6543  0.6977
  844MOL0     H13893   1.807   4.570   8.865  1.1701  1.6326  2.1687
  844MOL0     H13894   1.803   4.257   8.907 -1.4847 -0.3652  2.8747
  844MOL0     H13895   1.709   4.359   8.788  0.2316  0.4404 -0.2113
  844MOL0     H13896   1.605   4.471   8.984  2.9696  0.8500 -0.3706
  844MOL0     H13897   1.684   4.351   9.091  1.4668 -2.5242 -0.0227
  844MOL0     H13898   1.579   4.162   9.003 -1.0202  0.4779  1.4427
  844MOL0     H13899   1.519   4.257   8.869 -0.5822 -1.6064 -0.1433
  844MOL0     H13900   1.191   4.380   9.133  0.0397 -0.1837  0.6752
  844MOL0     H13901   0.983   4.346   9.224 -0.4173  1.4951 -1.2226
  844MOL0     H13902   0.926   4.340   9.059  2.7542  1.7040  0.1408
  844MOL0     H13903   0.889   4.198   9.174 -0.9483 -0.0657 -1.0525
  844MOL0     H13904   0.758   3.903   9.195  0.1181 -0.3955 -0.2763
  844MOL0     H13905   0.551   3.769   9.210  3.5164  2.7677  3.9058
  844MOL0     H13906   0.500   3.395   8.946  4.3306  2.4590  2.5511
  844MOL0     H13907   0.343   3.450   9.012 -0.3746 -1.1132 -0.8713
  844MOL0     H13908   0.493   3.583   8.782  1.4265 -2.1423  0.0643
  844MOL0     H13909   0.336   3.506   8.789  2.8042 -3.2425  0.5553
  844MOL0     H13910   0.442   3.758   8.927  0.2527 -0.4798 -0.1016
  844MOL0     H13911   0.272   3.713   8.954  1.1404  3.2742  1.6177
  844MOL0     H13912   0.417   3.780   8.682 -1.6657  1.3614 -0.9636
  844MOL0     H13913   0.250   3.758   8.698  0.8714 -1.2029 -1.6248
  844MOL0     H13914   0.409   3.990   8.807  1.2734 -1.8548  2.2586
  844MOL0     H13915   0.256   3.939   8.880  0.1537 -2.4509 -0.0389
  844MOL0     H13916   0.285   4.039   8.600 -0.0062 -0.4762 -0.0691
  844MOL0     H13917   0.133   3.966   8.657 -0.2615  0.0864  0.5246
  844MOL0     H13918   0.274   4.199   8.775 -0.2262  2.0396  0.0664
  844MOL0     H13919   0.108   4.140   8.820  1.8350 -0.9913  0.4313
  844MOL0     H13920   0.074   4.328   8.658 -0.1269 -1.3140  3.9654
  844MOL0     H13921   0.052   4.171   8.569 -0.0598 -1.4951 -0.0091
  844MOL0     H13922   0.714   3.484   8.947  2.3309 -1.7885  1.6932
  844MOL0     H13923   0.927   3.605   8.932 -0.5661  1.6593 -1.7442
  844MOL0     H13924   1.215   3.902   8.990 -1.1874 -0.9832  2.0307
  844MOL0     H13925   1.403   4.029   8.983  1.4492  2.2617 -0.4143
  844MOL0     H13926   3.273   4.955   8.602 -1.2842  0.5039  1.4739
  844MOL0     H13927   3.426   5.118   8.474 -0.0815 -0.6088  0.0091
  844MOL0     H13928   3.632   5.543   8.597 -1.3052 -1.9569  0.0570
  844MOL0     H13929   3.865   5.621   8.482 -1.0616 -1.4588  1.5343
  844MOL0     H13930   4.024   5.485   8.137 -0.2604 -0.0704 -2.1359
  844MOL0     H13931   3.898   5.574   8.043 -0.6352  1.3956  0.4104
  844MOL0     H13932   4.035   5.764   8.028 -2.8616 -1.5965  1.1720
  844MOL0     H13933   4.137   5.630   7.973 -1.4801  2.3235 -1.8071
  844MOL0     H13934   4.250   5.608   8.175 -1.6354 -1.5900 -0.6818
  844MOL0     H13935   4.145   5.730   8.260 -0.5554 -2.0468  0.4108
  844MOL0     H13936   4.194   5.908   8.106 -0.3728  0.2492  1.3835
  844MOL0     H13937   4.333   5.808   8.048  0.6793 -0.7038  0.4941
  844MOL0     H13938   4.495   5.982   8.399 -0.2693 -3.5942  1.1268
  844MOL0     H13939   3.704   5.504   8.110 -3.6896  0.1781 -0.4373
  844MOL0     H13940   3.501   5.426   8.209 -2.9289  3.1765  1.6372
  845MOL0     O13941  10.287   5.264   6.611 -0.0310 -0.6875 -0.1882
  845MOL0     C13942  10.243   5.338   6.523  0.9486 -0.0512  0.4121
  845MOL0     O13943  10.279   5.466   6.488  0.1506 -0.5514 -1.0140
  845MOL0     C13944  10.401   5.515   6.527 -0.2149  0.0047 -0.0592
  845MOL0     C13945  10.409   5.652   6.550 -0.1079 -0.2767  0.3204
  845MOL0     C13946  10.532   5.704   6.593 -0.0729  0.1289  0.4937
  845MOL0     C13947  10.645   5.621   6.609  0.5786 -0.9333 -0.2909
  845MOL0     O13948  10.766   5.682   6.650  0.9192  0.0785 -0.0081
  845MOL0     C13949  10.887   5.610   6.624  0.0318  0.8714 -0.8314
  845MOL0     C13950  11.009   5.690   6.673  0.6562  0.5754  0.2641
  845MOL0     C13951  11.133   5.618   6.617  0.1145 -0.2564 -0.8248
  845MOL0     C13952  11.263   5.694   6.640 -0.3023 -0.4195 -0.9284
  845MOL0     C13953  11.386   5.606   6.616 -0.5140 -0.4788  0.0765
  845MOL0     C13954  11.395   5.463   6.667  0.2552  0.6591 -0.8551
  845MOL0     C13955  11.378   5.465   6.818  0.0319 -0.2248 -0.2470
  845MOL0     C13956  11.410   5.326   6.887 -0.7796 -0.4946 -0.0146
  845MOL0     N13957  11.299   5.232   6.870  0.1942  0.4564 -0.3941
  845MOL0     C13958  11.280   5.128   6.778  0.2582 -0.2992  0.5013
  845MOL0     C13959  11.159   5.087   6.784 -0.7572  0.6764  0.3373
  845MOL0     C13960  11.094   4.981   6.706 -0.1164 -0.0178  0.0056
  845MOL0     C13961  10.940   4.960   6.717 -0.5993  0.6245  0.0438
  845MOL0     C13962  10.864   5.070   6.646 -0.7546  0.1412 -0.1072
  845MOL0     C13963  10.717   5.057   6.670  0.8525 -0.2727 -0.3768
  845MOL0     O13964  10.678   4.922   6.674  0.2633  1.2244  0.0486
  845MOL0     C13965  10.551   4.889   6.697 -0.2016 -0.5016  0.0874
  845MOL0     C13966  10.518   4.752   6.719  0.5880  0.1508 -0.3565
  845MOL0     C13967  10.389   4.701   6.736  0.1854  1.3617  0.2903
  845MOL0     C13968  10.384   4.554   6.755 -0.4588 -0.3831  0.1127
  845MOL0     C13969  10.281   4.791   6.708 -0.5995  0.3261  0.0987
  845MOL0     C13970  10.139   4.742   6.710 -0.3481  0.5467  0.4798
  845MOL0     O13971  10.052   4.822   6.662 -0.4169  0.0006 -0.1761
  845MOL0     C13972   9.918   4.788   6.658 -0.0702 -0.7683 -0.9175
  845MOL0     C13973   9.841   4.779   6.774  0.4109 -0.8934  0.0578
  845MOL0     C13974   9.703   4.755   6.773 -0.2192  0.0103  0.0549
  845MOL0     C13975   9.643   4.757   6.652  0.1522 -0.3802 -0.5179
  845MOL0     O13976   9.507   4.734   6.672 -0.6689  0.1508  0.2427
  845MOL0     C13977   9.422   4.730   6.559  0.3585  0.3432 -0.3821
  845MOL0     C13978   9.282   4.735   6.606  0.3521  0.9977  0.0824
  845MOL0     C13979   9.173   4.714   6.503  0.3356  0.1778 -0.2884
  845MOL0     C13980   9.043   4.733   6.573 -0.5571  0.2077 -0.7334
  845MOL0     C13981   8.933   4.743   6.465  0.4075  0.3749  0.3432
  845MOL0     C13982   8.802   4.780   6.526 -0.0596  0.0562  1.5175
  845MOL0     C13983   8.692   4.809   6.422  0.0108  0.7840  0.5719
  845MOL0     C13984   8.555   4.741   6.467 -0.8703 -0.3847 -0.1995
  845MOL0    Cl13985   8.528   4.732   6.656 -0.1535 -0.1454 -0.3393
  845MOL0     C13986   9.720   4.761   6.532 -0.0645  0.7988  0.0143
  845MOL0     C13987   9.856   4.774   6.536 -0.4963 -0.0363  0.6017
  845MOL0     O13988  10.123   4.626   6.758  0.2750  0.0661 -0.1637
  845MOL0     C13989  10.313   4.927   6.686 -0.1341  1.1918  0.6009
  845MOL0     C13990  10.442   4.978   6.697 -1.4901  0.6287  0.0040
  845MOL0     N13991  11.086   5.158   6.878 -0.2691  0.3519  0.0578
  845MOL0     N13992  11.172   5.248   6.929  0.0178 -0.3248 -0.2080
  845MOL0     C13993  10.637   5.490   6.575  0.4372 -0.3534  0.4323
  845MOL0     C13994  10.516   5.439   6.537 -0.2439  0.7914 -0.2105
  845MOL0     C13995  10.123   5.295   6.448  0.5924  0.3770  0.6503
  845MOL0     C13996  10.048   5.380   6.368 -1.0157 -0.4496 -0.1517
  845MOL0     C13997   9.934   5.327   6.286 -0.0268  0.3024  0.1744
  845MOL0     C13998   9.920   5.189   6.285  0.0465  0.5451 -0.0848
  845MOL0     O13999   9.832   5.140   6.195 -0.5871 -0.3648 -0.5587
  845MOL0     C14000   9.830   5.007   6.139 -0.0824 -0.5963  0.1857
  845MOL0     C14001   9.743   4.917   6.228  0.5517 -0.8273 -0.6049
  845MOL0     C14002   9.592   4.961   6.225 -0.9790 -0.5334  0.2042
  845MOL0     C14003   9.543   4.950   6.077  1.1339  0.3355 -0.3242
  845MOL0     C14004   9.402   4.991   6.088 -0.3695 -0.6120 -0.8005
  845MOL0     C14005   9.286   5.036   6.082 -0.9125 -0.7853  0.1982
  845MOL0     C14006   9.980   5.102   6.375  0.4395 -0.4521 -0.7247
  845MOL0     C14007  10.090   5.155   6.450  0.3700  0.0472  0.2479
  845MOL0     H14008  10.318   5.706   6.525  0.0157 -0.5242 -0.7200
  845MOL0     H14009  10.546   5.807   6.625 -2.1988 -0.3326  3.3628
  845MOL0     H14010  10.884   5.511   6.670  1.0661  1.0536 -0.3503
  845MOL0     H14011  10.892   5.605   6.515 -3.6438 -0.9825 -1.1014
  845MOL0     H14012  11.004   5.791   6.632 -0.9145  0.4796  0.1556
  845MOL0     H14013  10.997   5.685   6.782 -2.0919 -1.5570 -0.0129
  845MOL0     H14014  11.145   5.517   6.657 -0.3916  0.4010  1.1054
  845MOL0     H14015  11.114   5.610   6.510  1.4250  1.4606 -1.2379
  845MOL0     H14016  11.258   5.781   6.574 -4.2983 -0.0900 -0.4360
  845MOL0     H14017  11.262   5.728   6.744  0.5411  1.6693 -1.5464
  845MOL0     H14018  11.413   5.612   6.510  1.2440 -2.3590  0.3538
  845MOL0     H14019  11.467   5.664   6.662 -0.2240 -0.6199 -0.2497
  845MOL0     H14020  11.308   5.407   6.630 -0.1721  0.3405  0.5561
  845MOL0     H14021  11.494   5.418   6.654  0.8933  0.8221  2.5269
  845MOL0     H14022  11.439   5.544   6.863 -0.8847 -0.1723  0.9529
  845MOL0     H14023  11.273   5.487   6.838 -0.7677 -1.5645 -2.5787
  845MOL0     H14024  11.441   5.345   6.990 -2.8356 -1.5133  0.8530
  845MOL0     H14025  11.498   5.284   6.838 -1.9958 -2.4098 -0.6753
  845MOL0     H14026  11.354   5.090   6.708  0.4564 -0.1772  0.6444
  845MOL0     H14027  11.097   5.002   6.598  0.8126  0.8279  0.1725
  845MOL0     H14028  11.141   4.885   6.728 -0.1870 -0.1677 -0.4861
  845MOL0     H14029  10.906   4.963   6.821  2.2477 -1.7469  1.1958
  845MOL0     H14030  10.921   4.860   6.675  4.1626 -0.0213 -1.1616
  845MOL0     H14031  10.884   5.078   6.538  4.3410  1.0391  0.6485
  845MOL0     H14032  10.886   5.165   6.696  0.4581 -0.1884  0.0229
  845MOL0     H14033  10.657   5.099   6.589  1.0156  2.4562  0.8200
  845MOL0     H14034  10.682   5.101   6.764 -4.5352 -1.2940 -1.5151
  845MOL0     H14035  10.602   4.690   6.750  0.3878  1.1511  2.5641
  845MOL0     H14036  10.485   4.513   6.753 -0.7772 -1.2791  1.2786
  845MOL0     H14037  10.328   4.522   6.843 -0.0338 -0.6367  0.2917
  845MOL0     H14038  10.333   4.510   6.669 -0.5523 -2.8320  1.3376
  845MOL0     H14039   9.899   4.798   6.864  4.0414 -1.8094 -1.9232
  845MOL0     H14040   9.655   4.751   6.870 -0.1424 -1.7940  0.0432
  845MOL0     H14041   9.430   4.819   6.496  1.8296 -0.4239 -1.3451
  845MOL0     H14042   9.435   4.639   6.499  0.4889  0.3830 -0.4150
  845MOL0     H14043   9.270   4.663   6.687 -0.4452  0.1942 -0.7369
  845MOL0     H14044   9.270   4.842   6.625 -1.1521  1.1914 -1.6164
  845MOL0     H14045   9.193   4.618   6.454  1.3063  1.0369 -1.6525
  845MOL0     H14046   9.174   4.787   6.421 -0.9326  0.5990  0.0521
  845MOL0     H14047   9.019   4.645   6.635  0.0572  1.4201  1.3262
  845MOL0     H14048   9.042   4.818   6.642  1.0108 -1.5535  1.6309
  845MOL0     H14049   8.925   4.649   6.409 -1.5512 -0.7778  2.3679
  845MOL0     H14050   8.965   4.832   6.411 -1.4942  2.0523  1.8092
  845MOL0     H14051   8.766   4.706   6.598 -1.8232  1.5986  2.3100
  845MOL0     H14052   8.808   4.863   6.596 -1.8140  0.5188  1.1790
  845MOL0     H14053   8.724   4.781   6.321 -1.3829 -0.6853  0.4956
  845MOL0     H14054   8.695   4.918   6.419  0.4015  0.8291  1.9841
  845MOL0     H14055   8.561   4.640   6.426  1.1147 -1.3265  2.2309
  845MOL0     H14056   8.469   4.790   6.419 -0.6476  0.9344  0.6993
  845MOL0     H14057   9.660   4.759   6.442 -1.1618  1.1441  0.7144
  845MOL0     H14058   9.918   4.777   6.447 -0.9492  1.6268  0.2914
  845MOL0     H14059  10.225   4.991   6.677 -1.6250 -0.9809 -1.8284
  845MOL0     H14060  10.467   5.082   6.678  0.9956  0.0237 -0.4823
  845MOL0     H14061  10.717   5.416   6.579 -0.4400 -1.3508 -0.0764
  845MOL0     H14062  10.521   5.336   6.504  2.6403  0.4356  1.0385
  845MOL0     H14063  10.060   5.488   6.361 -2.6695 -0.2670 -0.6575
  845MOL0     H14064   9.870   5.380   6.216 -0.2769 -0.0590  0.1246
  845MOL0     H14065   9.790   5.021   6.038  0.5463 -1.4338 -0.1844
  845MOL0     H14066   9.929   4.963   6.128  0.7443  1.6094 -2.2164
  845MOL0     H14067   9.765   4.945   6.331 -1.9762  3.8534 -1.1062
  845MOL0     H14068   9.760   4.814   6.193  0.1813  0.1020 -3.8401
  845MOL0     H14069   9.587   5.065   6.260 -0.0189 -0.4176  0.0282
  845MOL0     H14070   9.530   4.900   6.291 -1.3771  1.4788  1.8023
  845MOL0     H14071   9.556   4.855   6.025  1.4271  0.5512 -0.6434
  845MOL0     H14072   9.589   5.031   6.020 -0.3778  1.2056 -0.3755
  845MOL0     H14073   9.188   5.077   6.078 -0.4808  0.1973 -0.6162
  845MOL0     H14074   9.958   4.998   6.395  3.3692 -0.5979  2.7739
  845MOL0     H14075  10.158   5.082   6.492  0.7796  1.0374  1.3829
  846MOL0     O14076   6.014   0.514  10.556 -0.3700 -0.0151  0.7446
  846MOL0     C14077   5.924   0.456  10.622 -0.4587  1.1850  0.3110
  846MOL0     O14078   5.946   0.344  10.700  0.1415  0.4976  0.0616
  846MOL0     C14079   6.079   0.313  10.713 -0.4317  0.2305  1.1232
  846MOL0     C14080   6.129   0.198  10.652 -0.5081 -0.5390  0.1189
  846MOL0     C14081   6.268   0.161  10.669  0.0331  0.0394  0.6271
  846MOL0     C14082   6.352   0.237  10.743  0.2017  0.6240 -0.4658
  846MOL0     O14083   6.484   0.196  10.751 -0.1116  0.7036 -0.2989
  846MOL0     C14084   6.530   0.216  10.888 -0.2992 -0.9552 -0.1313
  846MOL0     C14085   6.650   0.123  10.915  0.1802 -0.3255  0.4935
  846MOL0     C14086   6.670   0.130  11.062 -0.2067  0.1008 -0.6437
  846MOL0     C14087   6.771   0.015  11.099 -0.5446  0.2819  0.0391
  846MOL0     C14088   6.833   0.049  11.230 -0.8378 -0.0187  0.2414
  846MOL0     C14089   6.907  -0.075  11.285 -0.2520  0.3870  0.1641
  846MOL0     C14090   7.052  -0.060  11.261  0.1147 -0.4635 -0.2391
  846MOL0     C14091   7.148  -0.125  11.365  0.1963  0.9845 -0.0750
  846MOL0     N14092   7.105  -0.099  11.505 -0.9991 -0.3002 -0.1926
  846MOL0     C14093   7.085   0.027  11.560 -1.0393 -0.5845 -0.0327
  846MOL0     C14094   7.082   0.012  11.694  0.4032 -0.7065 -0.2881
  846MOL0     C14095   7.069   0.132  11.791 -0.6067 -0.6119  0.0288
  846MOL0     C14096   7.199   0.192  11.840 -0.7752 -0.2417 -0.2264
  846MOL0     C14097   7.184   0.261  11.978 -0.3547 -0.1347 -0.5665
  846MOL0     C14098   7.317   0.301  12.038  0.7961  0.9213 -0.2798
  846MOL0     O14099   7.374   0.408  11.966 -1.1982  0.4920 -0.3119
  846MOL0     C14100   7.494   0.457  12.001 -0.4853  0.0100 -0.1826
  846MOL0     C14101   7.565   0.406  12.109  1.2964 -0.7067 -0.1546
  846MOL0     C14102   7.674   0.474  12.156  0.2589  0.1579 -0.1152
  846MOL0     C14103   7.740   0.414  12.274 -0.2828 -0.6653 -0.5180
  846MOL0     C14104   7.726   0.589  12.086  0.2159  0.1052  0.1087
  846MOL0     C14105   7.852   0.655  12.120  1.1407 -0.3556  0.3216
  846MOL0     O14106   7.868   0.692  12.249 -0.3605 -0.0513 -0.7671
  846MOL0     C14107   7.975   0.769  12.293  1.1795 -0.2788  0.2139
  846MOL0     C14108   8.111   0.739  12.256 -0.3697  0.3628  0.4301
  846MOL0     C14109   8.219   0.808  12.315  0.5179  0.2692  0.2007
  846MOL0     C14110   8.200   0.903  12.416  0.5116 -0.3370  0.4785
  846MOL0     O14111   8.311   0.954  12.472 -0.1526 -0.3558 -0.9212
  846MOL0     C14112   8.310   1.095  12.496 -0.6633  0.2207 -0.6557
  846MOL0     C14113   8.437   1.146  12.568  0.1418  0.1161  0.2025
  846MOL0     C14114   8.420   1.290  12.628 -0.8388  0.5870  0.6421
  846MOL0     C14115   8.539   1.331  12.710 -0.1089  0.6501  0.0520
  846MOL0     C14116   8.560   1.472  12.742  0.9503  0.9895  0.2269
  846MOL0     C14117   8.661   1.492  12.853  0.2091 -0.1214  0.3410
  846MOL0     C14118   8.666   1.629  12.896  0.2155 -0.9444 -0.1528
  846MOL0     C14119   8.789   1.671  12.976 -0.2042  0.0315 -0.2948
  846MOL0    Cl14120   8.930   1.649  12.863  0.2632  0.0628 -0.2339
  846MOL0     C14121   8.062   0.940  12.452 -0.6575 -0.4738  0.2146
  846MOL0     C14122   7.956   0.871  12.392 -0.3063  1.1004 -0.4337
  846MOL0     O14123   7.925   0.691  12.024  0.9204 -0.8473  0.0891
  846MOL0     C14124   7.647   0.641  11.979 -0.9467 -0.2430  0.1268
  846MOL0     C14125   7.537   0.571  11.938  0.7036  0.2668 -0.0143
  846MOL0     N14126   7.096  -0.119  11.725 -0.4056  0.1025  0.4527
  846MOL0     N14127   7.118  -0.186  11.610  0.0566  1.0643 -0.3887
  846MOL0     C14128   6.306   0.348  10.802  0.9734 -0.2062 -0.2562
  846MOL0     C14129   6.170   0.384  10.792 -0.2413  0.6558 -0.1061
  846MOL0     C14130   5.782   0.501  10.597  0.1979 -0.5401  0.7526
  846MOL0     C14131   5.748   0.568  10.476 -0.3609  0.4135  0.5188
  846MOL0     C14132   5.619   0.602  10.438  0.2713 -0.1639  0.0940
  846MOL0     C14133   5.512   0.572  10.516 -0.2316  1.0407  0.0831
  846MOL0     O14134   5.377   0.600  10.484 -0.1961 -1.1954  0.1734
  846MOL0     C14135   5.287   0.618  10.598 -1.3144 -0.3093 -0.0445
  846MOL0     C14136   5.184   0.724  10.556 -0.1187 -0.0052  0.1803
  846MOL0     C14137   5.098   0.760  10.673  0.0802 -0.5236 -0.5244
  846MOL0     C14138   5.007   0.878  10.647 -1.3904  0.5940  0.6208
  846MOL0     C14139   4.903   0.848  10.553  1.0083  0.4267  0.1133
  846MOL0     C14140   4.820   0.823  10.470  0.2607  0.3096  1.1624
  846MOL0     C14141   5.554   0.505  10.633 -0.0404  0.1726 -0.4021
  846MOL0     C14142   5.678   0.468  10.677  0.3219 -0.7104  0.4227
  846MOL0     H14143   6.062   0.135  10.594  1.0713 -1.6329 -0.5857
  846MOL0     H14144   6.312   0.074  10.622 -1.3723  1.3186 -3.4898
  846MOL0     H14145   6.563   0.320  10.899 -0.2437 -1.1809  2.7056
  846MOL0     H14146   6.448   0.191  10.956 -0.2939 -1.0854 -0.1736
  846MOL0     H14147   6.638   0.018  10.887 -0.2075  0.3006 -1.9373
  846MOL0     H14148   6.738   0.161  10.863 -1.9677  4.3054 -0.3318
  846MOL0     H14149   6.705   0.227  11.098  2.0107 -0.1747 -1.8395
  846MOL0     H14150   6.577   0.123  11.119  0.0527 -0.2612 -0.2561
  846MOL0     H14151   6.719  -0.080  11.107 -1.0374  0.6040  0.7125
  846MOL0     H14152   6.843   0.011  11.016 -0.2527  0.8910  0.2604
  846MOL0     H14153   6.898   0.137  11.221 -0.7496  0.1425  2.0005
  846MOL0     H14154   6.752   0.067  11.301 -1.7061 -0.2468 -0.6747
  846MOL0     H14155   6.892  -0.073  11.393 -0.5684  2.6145  0.1244
  846MOL0     H14156   6.868  -0.168  11.242  1.5965  0.3032 -1.4795
  846MOL0     H14157   7.073  -0.099  11.161  0.2144 -0.3926 -0.2459
  846MOL0     H14158   7.086   0.044  11.264  0.7026 -0.6543 -0.2066
  846MOL0     H14159   7.254  -0.103  11.351  0.8115 -2.3599 -1.5803
  846MOL0     H14160   7.136  -0.234  11.360 -1.9524  1.1095  1.2290
  846MOL0     H14161   7.087   0.118  11.500  0.4133 -0.3062  0.4112
  846MOL0     H14162   7.000   0.203  11.743  1.8874 -0.1392 -3.2090
  846MOL0     H14163   7.019   0.095  11.881 -1.5045  1.6725  0.5471
  846MOL0     H14164   7.224   0.261  11.759  2.6227  0.4122  1.2217
  846MOL0     H14165   7.272   0.112  11.846  0.2293  0.5011 -1.8127
  846MOL0     H14166   7.132   0.195  12.048 -3.8854  2.4007 -0.5313
  846MOL0     H14167   7.111   0.343  11.975 -3.8453 -2.8088  2.2690
  846MOL0     H14168   7.388   0.218  12.040  0.2521  0.3735 -1.9366
  846MOL0     H14169   7.314   0.342  12.139 -0.1173 -1.1490  0.5901
  846MOL0     H14170   7.533   0.314  12.158  2.3127 -0.7753  0.4157
  846MOL0     H14171   7.749   0.481  12.360 -1.9932  2.5077 -2.5943
  846MOL0     H14172   7.664   0.343  12.307 -0.2817  0.6904  2.8119
  846MOL0     H14173   7.837   0.370  12.249 -0.4941 -2.5109  1.6049
  846MOL0     H14174   8.131   0.657  12.188 -2.7461 -1.5676  1.8737
  846MOL0     H14175   8.322   0.786  12.288  0.9382  0.4516  1.5662
  846MOL0     H14176   8.300   1.151  12.403 -0.3520  0.4067 -0.5770
  846MOL0     H14177   8.226   1.119  12.563 -0.8410 -3.1764  0.5546
  846MOL0     H14178   8.464   1.082  12.652  4.7184  2.5415  0.9052
  846MOL0     H14179   8.520   1.136  12.498 -1.9648 -3.6621 -2.1037
  846MOL0     H14180   8.329   1.298  12.689 -2.9163 -0.3561 -2.1112
  846MOL0     H14181   8.405   1.356  12.542 -1.8170 -1.3553 -0.7486
  846MOL0     H14182   8.543   1.277  12.805 -2.2390  0.5383  0.1244
  846MOL0     H14183   8.629   1.304  12.652 -0.8276  2.0836 -1.8354
  846MOL0     H14184   8.467   1.505  12.790  0.5828 -2.4797  2.2728
  846MOL0     H14185   8.599   1.519  12.652  2.2097  0.3397  0.4214
  846MOL0     H14186   8.649   1.432  12.943 -2.3796 -0.8549 -0.4041
  846MOL0     H14187   8.760   1.463  12.818  0.3432  0.4403  0.2351
  846MOL0     H14188   8.576   1.658  12.951  0.6982  0.4337 -0.0416
  846MOL0     H14189   8.661   1.683  12.801  1.3463 -1.4660 -0.5222
  846MOL0     H14190   8.806   1.599  13.056  1.1822 -3.0776 -3.1468
  846MOL0     H14191   8.764   1.769  13.017  0.9899  0.5834 -0.8375
  846MOL0     H14192   8.037   1.021  12.520  3.0294  0.6009  0.5171
  846MOL0     H14193   7.856   0.889  12.431 -0.1738  1.5523 -0.3014
  846MOL0     H14194   7.687   0.730  11.933  0.3866 -1.0157 -0.2495
  846MOL0     H14195   7.483   0.603  11.850  0.7534  0.0845 -0.1121
  846MOL0     H14196   6.373   0.409  10.862  1.0251 -0.5177  0.0007
  846MOL0     H14197   6.120   0.472  10.831 -2.5880 -0.6347 -0.0010
  846MOL0     H14198   5.831   0.598  10.413 -1.1642 -3.1328 -2.5895
  846MOL0     H14199   5.601   0.655  10.345  1.6998 -1.3350 -0.9074
  846MOL0     H14200   5.246   0.523  10.632 -4.4342  0.4323 -1.3945
  846MOL0     H14201   5.336   0.653  10.689 -1.7039 -1.8708  0.8100
  846MOL0     H14202   5.124   0.679  10.477 -1.5096  1.3456  0.4201
  846MOL0     H14203   5.225   0.816  10.514  0.9933  0.1922  1.6180
  846MOL0     H14204   5.169   0.790  10.751  0.7910 -1.8509 -0.6374
  846MOL0     H14205   5.028   0.680  10.699 -0.7854 -1.1010 -4.1284
  846MOL0     H14206   5.059   0.971  10.622 -1.7335  0.6979  0.2777
  846MOL0     H14207   4.953   0.906  10.738  0.4699  0.8537  1.7086
  846MOL0     H14208   4.751   0.816  10.388 -0.4431 -0.3982  1.7975
  846MOL0     H14209   5.479   0.496  10.711  1.3710 -0.6739  0.8986
  846MOL0     H14210   5.693   0.422  10.774 -0.6711 -5.0072 -1.2465
  847MOL0     O14211   8.878  10.893   1.086  0.0156  0.0473 -0.0192
  847MOL0     C14212   8.882  10.826   0.988 -0.0634 -0.1592  0.1429
  847MOL0     O14213   8.794  10.729   0.954 -0.2085 -0.0466  0.6686
  847MOL0     C14214   8.674  10.697   1.028 -0.3273 -0.2472 -0.0287
  847MOL0     C14215   8.547  10.650   0.976  0.0928 -0.7441 -0.9862
  847MOL0     C14216   8.444  10.612   1.066  0.2528 -0.7432 -0.3650
  847MOL0     C14217   8.460  10.600   1.204 -1.0062  1.5112  0.3467
  847MOL0     O14218   8.370  10.547   1.293  0.1903  0.3162  0.5824
  847MOL0     C14219   8.263  10.466   1.237  0.1063 -0.0070  0.3521
  847MOL0     C14220   8.203  10.361   1.334 -0.5523 -0.3818  0.3510
  847MOL0     C14221   8.079  10.292   1.286 -0.3549 -0.1325 -0.5121
  847MOL0     C14222   8.036  10.194   1.400 -0.4444 -0.1620  0.7031
  847MOL0     C14223   7.903  10.123   1.357  0.7205  0.5536  0.4360
  847MOL0     C14224   7.787  10.224   1.338  1.1561  0.2634  0.2278
  847MOL0     C14225   7.652  10.171   1.365  0.1540 -0.5316 -0.3106
  847MOL0     C14226   7.600  10.056   1.277  0.6676  0.1467 -0.3482
  847MOL0     N14227   7.457  10.022   1.310 -0.5175  0.1042  0.0607
  847MOL0     C14228   7.350  10.103   1.327  0.2476  0.4014 -0.2799
  847MOL0     C14229   7.245  10.026   1.340  0.5939 -0.3201  0.1140
  847MOL0     C14230   7.099  10.075   1.374  0.7908 -0.3302 -0.1603
  847MOL0     C14231   7.073  10.044   1.526 -0.9485  0.0306  1.3008
  847MOL0     C14232   6.944  10.103   1.572  0.3741  1.2673  0.1673
  847MOL0     C14233   6.946  10.150   1.710 -0.6358 -0.1281  0.5581
  847MOL0     O14234   6.821  10.188   1.756  0.1176 -0.5800 -0.3097
  847MOL0     C14235   6.741  10.096   1.822 -0.6396 -0.1573  0.0404
  847MOL0     C14236   6.755   9.957   1.824 -0.1299 -0.4177  0.2663
  847MOL0     C14237   6.660   9.875   1.897 -0.6968 -0.7450  0.4968
  847MOL0     C14238   6.681   9.728   1.912 -0.3141  1.0018  0.4288
  847MOL0     C14239   6.548   9.932   1.961  0.2221  0.0566  0.6675
  847MOL0     C14240   6.445   9.857   2.030 -0.3066 -0.0572 -0.2213
  847MOL0     O14241   6.365   9.933   2.111 -0.1729  1.1109 -0.3698
  847MOL0     C14242   6.288   9.856   2.197 -0.8132 -0.8420 -0.2562
  847MOL0     C14243   6.330   9.756   2.285  0.2636  0.2034 -0.6987
  847MOL0     C14244   6.239   9.693   2.381  0.0114 -0.0174 -0.7993
  847MOL0     C14245   6.106   9.729   2.391 -0.0634  0.1211  0.6775
  847MOL0     O14246   6.008   9.675   2.461  0.5396  0.5165 -0.2578
  847MOL0     C14247   6.033   9.535   2.497  0.0157 -0.4922  0.1010
  847MOL0     C14248   5.912   9.480   2.579 -0.5891  1.0906 -0.7153
  847MOL0     C14249   5.804   9.426   2.488 -0.4010  1.1955 -1.0139
  847MOL0     C14250   5.701   9.352   2.568 -1.2421  0.5873  0.0148
  847MOL0     C14251   5.602   9.288   2.473  0.4763 -0.2806  0.0722
  847MOL0     C14252   5.510   9.176   2.541 -0.3992 -0.4270  0.2468
  847MOL0     C14253   5.376   9.145   2.461 -0.0199  0.5166 -0.8571
  847MOL0     C14254   5.406   9.064   2.331  0.3108  0.2980  0.2654
  847MOL0    Cl14255   5.469   8.896   2.383  0.1415 -0.1600  0.5112
  847MOL0     C14256   6.076   9.847   2.313 -0.4021 -0.1241 -0.8668
  847MOL0     C14257   6.159   9.901   2.217 -0.6486 -0.0409 -0.0714
  847MOL0     O14258   6.419   9.744   1.992 -0.4471  0.5163 -0.1752
  847MOL0     C14259   6.548  10.068   1.972 -0.2648 -0.3772  0.2142
  847MOL0     C14260   6.641  10.156   1.909  0.6211  0.3707  0.2241
  847MOL0     N14261   7.289   9.900   1.342 -0.4663  0.5099 -0.1184
  847MOL0     N14262   7.421   9.895   1.334 -0.1322  0.5487 -0.5640
  847MOL0     C14263   8.579  10.650   1.256  0.4398  0.9562  0.5440
  847MOL0     C14264   8.682  10.696   1.174 -0.0665 -1.2781 -0.0802
  847MOL0     C14265   9.006  10.832   0.907 -0.1300  0.3922  0.5396
  847MOL0     C14266   9.109  10.925   0.921 -0.1088  0.1915 -1.2767
  847MOL0     C14267   9.221  10.922   0.838 -1.2593  0.1590 -0.0645
  847MOL0     C14268   9.231  10.832   0.728 -0.1043  0.0826  0.5702
  847MOL0     O14269   9.334  10.821   0.635 -0.4993 -0.1111 -0.4350
  847MOL0     C14270   9.453  10.897   0.668  0.0417  0.5616  0.4217
  847MOL0     C14271   9.543  10.838   0.775 -0.5456 -0.1034  0.1518
  847MOL0     C14272   9.632  10.730   0.721 -0.4812 -0.2769  0.1492
  847MOL0     C14273   9.733  10.772   0.613 -0.6958 -0.6989  0.6077
  847MOL0     C14274   9.829  10.659   0.588  0.1740  0.7368  0.3323
  847MOL0     C14275   9.880  10.541   0.574 -0.1476  0.2329  0.3131
  847MOL0     C14276   9.124  10.749   0.699  0.3539  0.3145  0.2307
  847MOL0     C14277   9.013  10.747   0.789  0.3646 -0.8168 -0.1761
  847MOL0     H14278   8.546  10.634   0.869  3.5352 -1.1085 -1.0918
  847MOL0     H14279   8.348  10.580   1.026 -1.3241  1.1600  1.6510
  847MOL0     H14280   8.180  10.530   1.204  0.2109 -0.5284 -1.0180
  847MOL0     H14281   8.296  10.408   1.150  2.8690 -0.6453  1.7421
  847MOL0     H14282   8.279  10.285   1.350 -0.1309  0.0109  0.2319
  847MOL0     H14283   8.180  10.414   1.427 -1.6766 -1.2633  0.5956
  847MOL0     H14284   7.996  10.360   1.268  0.0602  0.8300  1.0770
  847MOL0     H14285   8.096  10.232   1.196 -0.4391 -2.5253  0.9643
  847MOL0     H14286   8.097  10.105   1.418 -3.1518 -1.6012  3.9409
  847MOL0     H14287   8.031  10.247   1.495 -1.2522 -0.1785  0.6833
  847MOL0     H14288   7.913  10.062   1.267  2.5872  1.0816  0.2560
  847MOL0     H14289   7.876  10.047   1.430 -2.1479  0.5828 -0.4703
  847MOL0     H14290   7.806  10.313   1.400  0.0180  1.7080 -1.4164
  847MOL0     H14291   7.786  10.263   1.236  2.1785  0.3354  0.2348
  847MOL0     H14292   7.661  10.138   1.468 -1.6725  3.0742  1.1959
  847MOL0     H14293   7.581  10.253   1.346 -0.1280 -0.7049 -0.0181
  847MOL0     H14294   7.671   9.973   1.285  1.6960  1.1069  0.7932
  847MOL0     H14295   7.606  10.090   1.173  0.7451  3.6104  0.6977
  847MOL0     H14296   7.343  10.212   1.323  1.1909  0.4863  0.1967
  847MOL0     H14297   7.095  10.183   1.363  0.3118 -0.4240 -0.9577
  847MOL0     H14298   7.029  10.032   1.302 -2.0310  0.8826  1.6965
  847MOL0     H14299   7.154  10.090   1.583  0.2740 -0.7244  0.2250
  847MOL0     H14300   7.087   9.938   1.545 -0.4710 -1.2349 -4.3002
  847MOL0     H14301   6.876  10.018   1.565  0.3707  1.3645 -1.1480
  847MOL0     H14302   6.905  10.188   1.514 -0.9741 -0.4335 -1.5448
  847MOL0     H14303   7.014  10.235   1.704 -0.4430 -0.3109  0.1248
  847MOL0     H14304   6.999  10.083   1.779  0.6161 -1.2417 -1.3930
  847MOL0     H14305   6.826   9.902   1.762 -0.2286  1.0314 -1.2103
  847MOL0     H14306   6.607   9.666   1.860  1.0879 -0.3675 -0.0442
  847MOL0     H14307   6.775   9.710   1.859  0.5421 -0.1474  2.2254
  847MOL0     H14308   6.686   9.692   2.015 -0.3688  1.7690  0.7025
  847MOL0     H14309   6.432   9.718   2.280 -0.4544 -1.9131 -0.2126
  847MOL0     H14310   6.283   9.610   2.435  0.3675  1.0937  0.6968
  847MOL0     H14311   6.041   9.475   2.406  2.5025 -2.1807  1.3226
  847MOL0     H14312   6.125   9.541   2.555  0.8587  4.0958 -1.2998
  847MOL0     H14313   5.945   9.397   2.642  0.5426  1.2116 -1.1416
  847MOL0     H14314   5.877   9.564   2.640 -0.7457  1.8521 -1.8407
  847MOL0     H14315   5.851   9.353   2.421  2.2822  0.5610  1.4074
  847MOL0     H14316   5.767   9.510   2.428 -1.3995  1.6639  0.2154
  847MOL0     H14317   5.753   9.273   2.622  2.9647  2.7134 -0.5822
  847MOL0     H14318   5.654   9.426   2.634 -1.9274  1.2768 -1.1856
  847MOL0     H14319   5.650   9.249   2.383  1.2777  3.0983 -1.1293
  847MOL0     H14320   5.540   9.372   2.441 -0.7788 -1.4065 -0.5456
  847MOL0     H14321   5.569   9.086   2.560  1.0471  1.1359  3.9733
  847MOL0     H14322   5.482   9.224   2.634  0.6193  1.6955 -0.4838
  847MOL0     H14323   5.328   9.235   2.424  2.3667  2.0205 -0.5026
  847MOL0     H14324   5.302   9.093   2.523 -0.4148  1.1572 -0.7828
  847MOL0     H14325   5.474   9.125   2.271  0.2192  0.1721  0.0321
  847MOL0     H14326   5.313   9.049   2.275  0.5924 -1.4187  0.2051
  847MOL0     H14327   5.984   9.900   2.333  0.2913  0.9988 -0.6182
  847MOL0     H14328   6.122   9.992   2.171 -0.4980 -0.0124 -0.1372
  847MOL0     H14329   6.471  10.120   2.027  0.5845 -0.0079  1.0801
  847MOL0     H14330   6.634  10.264   1.916  0.7177  0.3448  0.7803
  847MOL0     H14331   8.594  10.656   1.363  1.6521  2.3990  0.3373
  847MOL0     H14332   8.772  10.735   1.220  0.9860  1.5562 -4.0293
  847MOL0     H14333   9.101  11.001   0.998  0.6051 -0.0208 -0.9856
  847MOL0     H14334   9.297  10.994   0.863 -0.4224  1.0556 -4.3347
  847MOL0     H14335   9.496  10.899   0.567 -2.0679  1.1954 -0.5247
  847MOL0     H14336   9.430  11.004   0.680 -2.4227 -0.0184  1.2616
  847MOL0     H14337   9.485  10.794   0.856 -0.5507  0.6777  0.5857
  847MOL0     H14338   9.616  10.910   0.812 -0.9639  0.3335  0.1456
  847MOL0     H14339   9.562  10.661   0.674 -2.5326  0.4378  2.0236
  847MOL0     H14340   9.685  10.680   0.803  2.0852  0.2588 -1.0525
  847MOL0     H14341   9.780  10.860   0.657  0.9040 -2.0295  1.6845
  847MOL0     H14342   9.676  10.803   0.525 -0.9040 -0.6350  0.7643
  847MOL0     H14343   9.934  10.451   0.552 -0.0818 -0.4097  2.8518
  847MOL0     H14344   9.122  10.688   0.609 -0.7425  2.2130 -1.1021
  847MOL0     H14345   8.931  10.678   0.772 -1.1892  1.0873 -0.8417
  848MOL0     O14346   4.059   4.334   1.396  0.0970  0.7112 -0.1372
  848MOL0     C14347   3.995   4.338   1.294 -0.2058 -0.1973 -0.5333
  848MOL0     O14348   4.044   4.385   1.178 -0.4477  0.1284  0.4745
  848MOL0     C14349   4.176   4.423   1.168  0.1078 -0.5256  0.1630
  848MOL0     C14350   4.207   4.548   1.102  0.7490  0.2235  0.1554
  848MOL0     C14351   4.342   4.577   1.088  0.0852 -0.0067 -0.9955
  848MOL0     C14352   4.442   4.488   1.112 -0.5502 -0.4215  1.1666
  848MOL0     O14353   4.574   4.540   1.096  0.6327  0.1311 -0.2650
  848MOL0     C14354   4.678   4.466   1.151 -0.5515 -0.0676 -0.4302
  848MOL0     C14355   4.810   4.540   1.122 -0.2465 -0.3418 -0.8937
  848MOL0     C14356   4.930   4.468   1.199 -0.0030 -0.2370  0.0549
  848MOL0     C14357   5.059   4.510   1.127  0.2546  0.7767  0.0446
  848MOL0     C14358   5.096   4.658   1.135 -0.5289  0.9258 -1.0283
  848MOL0     C14359   5.100   4.722   1.274  0.1598 -0.3635 -1.0010
  848MOL0     C14360   5.142   4.877   1.251  0.5134 -0.1982  0.4775
  848MOL0     C14361   5.184   4.951   1.381  0.8617  0.0298  0.1703
  848MOL0     N14362   5.087   4.946   1.501  0.2220  0.1096 -0.3824
  848MOL0     C14363   4.958   4.962   1.473  0.0319  0.5139  0.1897
  848MOL0     C14364   4.900   4.911   1.578  0.1612 -0.2397  0.2247
  848MOL0     C14365   4.751   4.885   1.581  0.2637  0.0219  0.1327
  848MOL0     C14366   4.722   4.762   1.500 -0.1105  0.3334 -0.3838
  848MOL0     C14367   4.570   4.731   1.507  0.1293  0.5405  0.1584
  848MOL0     C14368   4.488   4.826   1.424  0.3263 -0.3371  0.1643
  848MOL0     O14369   4.363   4.760   1.395 -0.0293 -0.9965 -0.1685
  848MOL0     C14370   4.258   4.802   1.459  0.3132 -0.1276 -0.2391
  848MOL0     C14371   4.147   4.725   1.433  0.8339 -0.5874  0.3350
  848MOL0     C14372   4.019   4.744   1.490  0.1106  0.6499  0.2779
  848MOL0     C14373   3.913   4.643   1.449 -0.0750 -0.2910  0.4156
  848MOL0     C14374   4.008   4.846   1.588  0.0149  0.3931 -0.9506
  848MOL0     C14375   3.886   4.864   1.666  0.3006 -0.7006  0.2733
  848MOL0     O14376   3.886   4.970   1.746 -0.1727  0.1874  0.6440
  848MOL0     C14377   3.766   5.004   1.801 -0.7636  0.3396 -0.0846
  848MOL0     C14378   3.692   5.103   1.744 -0.1112 -0.4378 -0.0935
  848MOL0     C14379   3.568   5.147   1.794 -0.0669  0.0843  1.5008
  848MOL0     C14380   3.518   5.072   1.900 -0.3392  0.3423 -0.3825
  848MOL0     O14381   3.402   5.112   1.964 -0.2438  0.0992 -0.3329
  848MOL0     C14382   3.290   5.156   1.883  0.2554  0.5816 -0.1266
  848MOL0     C14383   3.161   5.176   1.962  0.1425 -0.4089 -0.0510
  848MOL0     C14384   3.054   5.237   1.878 -0.1893  0.0631 -0.7439
  848MOL0     C14385   2.927   5.236   1.973  0.2965  0.0646 -0.3274
  848MOL0     C14386   2.803   5.277   1.881  0.2599  0.5095 -0.4594
  848MOL0     C14387   2.662   5.236   1.959  0.8681  0.5643  0.1849
  848MOL0     C14388   2.538   5.299   1.896 -0.0691  0.4702 -0.4962
  848MOL0     C14389   2.436   5.319   2.009 -1.1066  0.0240  0.6942
  848MOL0    Cl14390   2.410   5.169   2.096 -0.0033 -0.4010 -0.4399
  848MOL0     C14391   3.588   4.968   1.963 -0.0563  0.4668  0.2326
  848MOL0     C14392   3.712   4.934   1.913  0.2736 -0.6101  0.3173
  848MOL0     O14393   3.784   4.803   1.642 -0.3224  0.6235 -0.0799
  848MOL0     C14394   4.120   4.930   1.609  0.3247 -0.3688  0.5545
  848MOL0     C14395   4.239   4.916   1.537  0.9084  0.0709 -0.1532
  848MOL0     N14396   4.995   4.877   1.675 -0.2463  0.0533  0.2271
  848MOL0     N14397   5.110   4.901   1.621  0.2843  0.1670  0.5249
  848MOL0     C14398   4.411   4.369   1.165 -0.4805  0.7616  0.3404
  848MOL0     C14399   4.282   4.343   1.208 -0.3173 -0.3781  0.3961
  848MOL0     C14400   3.853   4.289   1.298 -0.0529  0.4139  0.9035
  848MOL0     C14401   3.785   4.274   1.419  0.0181  0.0635  0.9063
  848MOL0     C14402   3.652   4.222   1.416 -0.3171  0.1965  0.0287
  848MOL0     C14403   3.586   4.197   1.291 -0.5567  0.3311 -0.3363
  848MOL0     O14404   3.458   4.164   1.284 -0.0909  0.0962  0.4366
  848MOL0     C14405   3.377   4.125   1.395  0.5071  0.4004 -0.5104
  848MOL0     C14406   3.319   4.246   1.468  0.1774 -0.3921  0.2618
  848MOL0     C14407   3.301   4.211   1.611  0.2464  0.6097 -0.9612
  848MOL0     C14408   3.153   4.167   1.637 -0.7094  0.3181  0.2412
  848MOL0     C14409   3.066   4.284   1.659 -0.4962  0.4371  0.3149
  848MOL0     C14410   2.993   4.368   1.709 -0.1616 -0.9081 -0.1268
  848MOL0     C14411   3.669   4.199   1.171 -0.3298 -0.2641 -0.2340
  848MOL0     C14412   3.796   4.247   1.174 -0.3479 -0.3840 -0.8512
  848MOL0     H14413   4.124   4.616   1.086  0.8770  0.3660  0.1040
  848MOL0     H14414   4.373   4.679   1.069  0.7904  0.0347  0.2587
  848MOL0     H14415   4.668   4.454   1.260 -3.9457 -3.4434 -0.9383
  848MOL0     H14416   4.691   4.369   1.103  2.0118 -0.2477  0.4645
  848MOL0     H14417   4.827   4.553   1.015 -0.0615  1.8624 -0.6513
  848MOL0     H14418   4.804   4.642   1.162  2.4968 -0.5385  0.2980
  848MOL0     H14419   4.930   4.496   1.304 -2.1619 -0.6355  0.2019
  848MOL0     H14420   4.916   4.360   1.185 -4.6541  0.2271 -0.4005
  848MOL0     H14421   5.139   4.458   1.182  1.6958  0.7602 -1.9590
  848MOL0     H14422   5.054   4.462   1.029 -3.3469 -0.0194  0.4683
  848MOL0     H14423   5.199   4.666   1.098 -0.2876 -1.7804 -1.1364
  848MOL0     H14424   5.033   4.711   1.063 -0.8022 -0.2811 -1.7127
  848MOL0     H14425   5.001   4.705   1.318  0.1825  1.1267 -0.3234
  848MOL0     H14426   5.178   4.672   1.332 -1.5012  1.5519  3.3532
  848MOL0     H14427   5.225   4.883   1.181 -1.6043  0.5684 -2.1440
  848MOL0     H14428   5.054   4.925   1.206  1.9575 -2.3228 -5.5456
  848MOL0     H14429   5.212   5.055   1.363 -0.5553  0.3513 -0.3074
  848MOL0     H14430   5.275   4.903   1.418  2.3477  0.2028 -2.9463
  848MOL0     H14431   4.925   4.998   1.376  0.9718 -1.5494 -0.9560
  848MOL0     H14432   4.717   4.870   1.684 -0.7085 -2.1611 -0.4290
  848MOL0     H14433   4.701   4.974   1.542 -1.3596 -1.2290 -0.7693
  848MOL0     H14434   4.779   4.677   1.540  0.3150  0.2864 -1.0717
  848MOL0     H14435   4.746   4.779   1.395 -1.0249 -0.7324 -0.7871
  848MOL0     H14436   4.540   4.742   1.611  0.3382 -0.8840  0.3878
  848MOL0     H14437   4.573   4.627   1.474  2.9238 -0.1512  2.2026
  848MOL0     H14438   4.545   4.831   1.330  0.3296  0.5999  0.2016
  848MOL0     H14439   4.493   4.928   1.462  1.5981 -0.6403  0.8661
  848MOL0     H14440   4.160   4.644   1.363 -3.3342  0.7758 -2.4044
  848MOL0     H14441   3.890   4.582   1.537  2.8893 -2.0177  0.1394
  848MOL0     H14442   3.820   4.685   1.409 -0.6107 -1.8262 -0.0392
  848MOL0     H14443   3.960   4.575   1.377 -0.8443 -0.6030  0.2020
  848MOL0     H14444   3.736   5.149   1.656 -1.6824  0.8203 -0.2811
  848MOL0     H14445   3.512   5.234   1.760  0.3130  0.3996  1.6698
  848MOL0     H14446   3.318   5.251   1.838 -0.8571  1.8170  1.6434
  848MOL0     H14447   3.263   5.086   1.803 -1.0754  1.5234 -0.5347
  848MOL0     H14448   3.125   5.077   1.991 -1.0493 -0.1467 -0.5688
  848MOL0     H14449   3.190   5.233   2.051 -0.0164  0.9292 -0.8346
  848MOL0     H14450   3.043   5.192   1.780 -0.8187 -0.8745 -0.2542
  848MOL0     H14451   3.089   5.340   1.865  1.0699  0.3326  3.1592
  848MOL0     H14452   2.909   5.134   2.010  0.4447 -0.1088 -0.7202
  848MOL0     H14453   2.943   5.308   2.053 -1.2255 -0.1347  0.1798
  848MOL0     H14454   2.810   5.230   1.782  0.7146  0.5550 -0.4533
  848MOL0     H14455   2.811   5.385   1.865 -0.8794  0.6753 -0.0247
  848MOL0     H14456   2.645   5.129   1.943  1.2698  0.8618 -2.9899
  848MOL0     H14457   2.662   5.266   2.064 -0.2297  0.4523  0.2330
  848MOL0     H14458   2.504   5.224   1.824  2.5071  0.9884 -2.4325
  848MOL0     H14459   2.557   5.394   1.844 -0.4894  1.4415  1.0591
  848MOL0     H14460   2.346   5.356   1.960 -0.0574  2.1661  0.2525
  848MOL0     H14461   2.471   5.393   2.081 -0.2775 -1.3488  1.7680
  848MOL0     H14462   3.551   4.918   2.052 -0.6233  1.5182  0.5978
  848MOL0     H14463   3.771   4.856   1.960  3.8969  2.1919  0.8536
  848MOL0     H14464   4.117   5.011   1.681 -2.8422  0.1958 -0.0356
  848MOL0     H14465   4.313   4.996   1.542  0.2485  0.7102 -0.4302
  848MOL0     H14466   4.495   4.301   1.174  0.1970  1.2552 -1.5513
  848MOL0     H14467   4.284   4.243   1.252 -0.3744 -0.8087 -0.5585
  848MOL0     H14468   3.834   4.289   1.515 -1.5187  0.9621  1.5787
  848MOL0     H14469   3.603   4.216   1.513 -3.1634  3.0505 -1.0550
  848MOL0     H14470   3.289   4.070   1.361  0.6554 -0.2769  0.1683
  848MOL0     H14471   3.431   4.058   1.463  1.6165 -0.6589 -2.3621
  848MOL0     H14472   3.220   4.277   1.436 -0.8699 -0.4849  3.1225
  848MOL0     H14473   3.392   4.327   1.463  0.8270 -0.9708  0.1331
  848MOL0     H14474   3.346   4.281   1.683  0.9848 -2.6010  1.9767
  848MOL0     H14475   3.366   4.128   1.642 -0.3885  0.5410  0.2755
  848MOL0     H14476   3.129   4.111   1.727 -0.5449  0.0402  0.1115
  848MOL0     H14477   3.125   4.103   1.553  1.3188 -0.1026 -0.1658
  848MOL0     H14478   2.943   4.452   1.753  0.1600 -0.6703 -0.2096
  848MOL0     H14479   3.631   4.170   1.074  1.4859  1.0757 -1.4038
  848MOL0     H14480   3.853   4.258   1.082  2.3121  0.5889  0.8198
  849MOL0     O14481   6.746   3.786   9.475  0.0972  0.1992  0.4687
  849MOL0     C14482   6.775   3.749   9.362 -1.0602  0.2505  0.6784
  849MOL0     O14483   6.698   3.660   9.276 -0.1668 -1.0035  0.0857
  849MOL0     C14484   6.591   3.602   9.329  0.3716 -0.8728 -0.6145
  849MOL0     C14485   6.458   3.655   9.325  0.6263 -0.2315 -0.0588
  849MOL0     C14486   6.343   3.581   9.376 -0.7385 -0.6905  0.7648
  849MOL0     C14487   6.371   3.456   9.429  0.9858 -0.5803 -0.3082
  849MOL0     O14488   6.261   3.382   9.471 -0.3769  0.2525 -0.7272
  849MOL0     C14489   6.269   3.242   9.507  0.1990  0.4496  0.2053
  849MOL0     C14490   6.140   3.197   9.557  1.1189 -0.3677  0.1103
  849MOL0     C14491   6.034   3.214   9.444  0.0146 -0.3653  0.8828
  849MOL0     C14492   5.900   3.161   9.497  0.4247 -0.3231 -0.1600
  849MOL0     C14493   5.787   3.148   9.390 -0.4879  0.5409  0.1437
  849MOL0     C14494   5.714   3.279   9.356  0.4815  0.1029  0.4364
  849MOL0     C14495   5.783   3.383   9.261  0.3351  0.4610 -0.4028
  849MOL0     C14496   5.833   3.514   9.308  0.5452  0.7724  0.6074
  849MOL0     N14497   5.720   3.611   9.328  0.0740 -0.1823  0.2717
  849MOL0     C14498   5.648   3.682   9.233 -0.1079 -0.0336  0.3158
  849MOL0     C14499   5.558   3.756   9.309 -0.7714  0.9113  0.2933
  849MOL0     C14500   5.459   3.833   9.233 -0.0502 -0.1589 -0.5328
  849MOL0     C14501   5.313   3.821   9.293  0.5742 -0.1130  0.0270
  849MOL0     C14502   5.270   3.917   9.400 -0.6823  0.3797  0.8025
  849MOL0     C14503   5.114   3.915   9.411  0.0880  0.2931 -0.3414
  849MOL0     O14504   5.074   3.792   9.463  0.8770  0.8659 -0.6113
  849MOL0     C14505   4.941   3.773   9.486 -0.5253  0.4137  0.1755
  849MOL0     C14506   4.844   3.853   9.430  0.4831  0.1069  0.0923
  849MOL0     C14507   4.707   3.825   9.447  0.6892 -0.1325 -0.0502
  849MOL0     C14508   4.616   3.914   9.366 -0.1357 -0.0208 -0.7209
  849MOL0     C14509   4.663   3.707   9.522 -0.0161  0.3600  0.6705
  849MOL0     C14510   4.517   3.667   9.553 -0.7013 -0.0542  0.1611
  849MOL0     O14511   4.495   3.543   9.583  0.7706  0.3212 -0.0604
  849MOL0     C14512   4.384   3.515   9.660  0.5381 -0.2515 -0.5849
  849MOL0     C14513   4.369   3.570   9.786  0.1345  0.2127 -0.3055
  849MOL0     C14514   4.244   3.551   9.853  1.2776  0.0888 -0.4966
  849MOL0     C14515   4.137   3.475   9.799 -0.5085  0.2884  0.3675
  849MOL0     O14516   4.009   3.448   9.852  0.0274 -0.2904 -0.3271
  849MOL0     C14517   3.983   3.524   9.968 -0.1515  0.3653 -0.3739
  849MOL0     C14518   3.833   3.503  10.000 -0.1832 -0.6277  0.5543
  849MOL0     C14519   3.804   3.597  10.120 -0.9309  0.3287 -0.8453
  849MOL0     C14520   3.651   3.603  10.132 -0.0105 -0.5447 -0.8560
  849MOL0     C14521   3.623   3.688  10.253  0.1253 -0.6683  0.3327
  849MOL0     C14522   3.483   3.674  10.309  0.5641 -0.2934  0.3061
  849MOL0     C14523   3.364   3.712  10.213 -0.4267 -0.3598 -1.3052
  849MOL0     C14524   3.239   3.732  10.281  0.4638  0.1239 -0.2237
  849MOL0    Cl14525   3.191   3.589  10.386 -0.2099  0.3852 -0.1559
  849MOL0     C14526   4.158   3.418   9.677 -0.4554 -0.4500  0.0376
  849MOL0     C14527   4.278   3.437   9.611  0.7401  0.6999 -0.2100
  849MOL0     O14528   4.437   3.762   9.563 -0.5982  0.2562  0.6532
  849MOL0     C14529   4.760   3.624   9.564 -0.5261  0.5575  0.4967
  849MOL0     C14530   4.896   3.662   9.548  0.6618 -0.3880 -0.1264
  849MOL0     N14531   5.572   3.734   9.438  0.0381  0.2095 -0.7910
  849MOL0     N14532   5.672   3.648   9.450  0.5132 -0.7097 -0.0341
  849MOL0     C14533   6.505   3.409   9.444  0.4276 -0.2176 -0.1452
  849MOL0     C14534   6.615   3.479   9.391  1.0157 -0.1120 -2.2190
  849MOL0     C14535   6.909   3.779   9.312 -0.1410 -0.4378  1.0793
  849MOL0     C14536   6.951   3.741   9.188 -0.2489  0.1257 -0.4921
  849MOL0     C14537   7.074   3.773   9.134 -0.7577  0.5916 -0.5905
  849MOL0     C14538   7.171   3.828   9.222 -0.0250 -1.0456 -0.9474
  849MOL0     O14539   7.296   3.874   9.181  0.2269  0.0490 -0.5697
  849MOL0     C14540   7.363   3.786   9.097  0.3959 -0.2385 -0.2562
  849MOL0     C14541   7.514   3.794   9.109 -0.3187  1.7775 -1.0525
  849MOL0     C14542   7.587   3.684   9.015 -0.2238 -0.4275 -0.4330
  849MOL0     C14543   7.607   3.551   9.079  0.1723 -0.0538  0.3483
  849MOL0     C14544   7.670   3.452   8.994 -0.7580 -0.1485  1.1973
  849MOL0     C14545   7.722   3.365   8.931  0.4286 -0.7230  0.1711
  849MOL0     C14546   7.132   3.849   9.358  0.4424  0.5575 -0.9004
  849MOL0     C14547   7.002   3.826   9.396 -0.4535  0.4468  0.0048
  849MOL0     H14548   6.445   3.751   9.276  0.5701 -0.4316 -0.4375
  849MOL0     H14549   6.241   3.615   9.364 -0.8351 -1.3967 -0.5767
  849MOL0     H14550   6.295   3.199   9.410  0.2912  3.5128 -1.2454
  849MOL0     H14551   6.350   3.215   9.575 -0.4334 -0.1940  0.7229
  849MOL0     H14552   6.142   3.094   9.595 -0.9339 -0.5071 -0.0544
  849MOL0     H14553   6.094   3.243   9.645  0.4356 -0.7166 -0.0559
  849MOL0     H14554   6.020   3.319   9.420  0.6499 -0.1336  1.4785
  849MOL0     H14555   6.062   3.155   9.356 -1.6753 -2.5879  1.7346
  849MOL0     H14556   5.922   3.066   9.546  2.2712  0.0640 -0.1575
  849MOL0     H14557   5.858   3.230   9.571 -2.7684 -0.5016 -1.6317
  849MOL0     H14558   5.833   3.104   9.301 -0.0982 -0.0028  0.6034
  849MOL0     H14559   5.708   3.084   9.430 -2.1403  2.6871  0.4848
  849MOL0     H14560   5.614   3.254   9.320  1.6673 -0.3585 -2.8803
  849MOL0     H14561   5.689   3.316   9.456  2.7815 -0.4312  1.2884
  849MOL0     H14562   5.875   3.332   9.230 -0.1958 -0.0790 -1.1312
  849MOL0     H14563   5.714   3.410   9.182 -1.7524  1.6693  1.6983
  849MOL0     H14564   5.896   3.565   9.235  0.8087  1.3270  1.2095
  849MOL0     H14565   5.897   3.512   9.397  3.1868  2.6458 -1.1005
  849MOL0     H14566   5.664   3.675   9.126 -3.2963 -1.2744 -0.2067
  849MOL0     H14567   5.492   3.937   9.231 -1.2158  0.2129 -2.3412
  849MOL0     H14568   5.450   3.789   9.133 -2.9161 -0.9501 -0.0208
  849MOL0     H14569   5.300   3.717   9.325  2.1362 -1.3226 -2.8764
  849MOL0     H14570   5.248   3.832   9.206 -2.2524  0.6144  2.0759
  849MOL0     H14571   5.318   4.007   9.361  3.4582 -1.3545  1.2820
  849MOL0     H14572   5.318   3.890   9.494  1.5296 -2.7302 -0.9850
  849MOL0     H14573   5.079   3.931   9.308 -0.1180 -0.0275 -0.3233
  849MOL0     H14574   5.079   3.994   9.477  0.8946 -0.6687  1.2902
  849MOL0     H14575   4.865   3.939   9.368  0.5931 -1.2738 -1.8943
  849MOL0     H14576   4.664   4.008   9.339  1.6113  0.3385  2.9548
  849MOL0     H14577   4.597   3.863   9.272 -1.8665  0.2585 -0.5614
  849MOL0     H14578   4.525   3.945   9.419  1.1229  1.2340  0.7967
  849MOL0     H14579   4.445   3.631   9.832  1.0412  0.5381 -2.1427
  849MOL0     H14580   4.217   3.598   9.947 -1.6740  0.6423 -1.4834
  849MOL0     H14581   4.039   3.478  10.050  0.1078 -1.1361 -1.3420
  849MOL0     H14582   3.994   3.630   9.943 -1.3446  0.3507 -1.0563
  849MOL0     H14583   3.782   3.535   9.908 -1.9111  0.6690  1.9023
  849MOL0     H14584   3.814   3.396  10.014 -0.7996 -0.7548 -1.0400
  849MOL0     H14585   3.853   3.693  10.101  0.5778 -0.5412 -1.5326
  849MOL0     H14586   3.858   3.549  10.202 -0.1290  2.9763  0.2878
  849MOL0     H14587   3.614   3.654  10.043 -0.7033 -0.8226 -0.7396
  849MOL0     H14588   3.591   3.512  10.145 -0.2889 -0.2721 -0.1987
  849MOL0     H14589   3.637   3.793  10.228  2.2210 -0.2230  2.9282
  849MOL0     H14590   3.696   3.666  10.331 -1.7974 -0.4230  2.3165
  849MOL0     H14591   3.466   3.572  10.343 -0.0203 -0.6526 -0.9829
  849MOL0     H14592   3.463   3.737  10.396 -4.2737 -1.5413  0.3576
  849MOL0     H14593   3.351   3.633  10.138 -1.2683  1.1538 -2.8231
  849MOL0     H14594   3.385   3.805  10.160 -0.5953  0.4171 -0.0628
  849MOL0     H14595   3.161   3.740  10.205  1.9713 -3.1521 -2.3682
  849MOL0     H14596   3.244   3.816  10.351  2.5229  0.1832 -0.3672
  849MOL0     H14597   4.073   3.374   9.626 -1.5735 -0.1077  1.5370
  849MOL0     H14598   4.293   3.407   9.508 -0.1016  1.2084 -0.4943
  849MOL0     H14599   4.744   3.536   9.625  0.9780 -0.1815 -0.1175
  849MOL0     H14600   4.974   3.604   9.597  0.4910  0.8013  1.6700
  849MOL0     H14601   6.532   3.310   9.479  1.1201 -0.3725 -1.0558
  849MOL0     H14602   6.708   3.424   9.398  1.5990  0.9247 -1.5315
  849MOL0     H14603   6.884   3.684   9.125  1.7567 -0.3965 -2.3061
  849MOL0     H14604   7.106   3.754   9.031  0.2195 -0.2991 -0.1509
  849MOL0     H14605   7.342   3.682   9.126 -0.9009  0.8328  3.1773
  849MOL0     H14606   7.325   3.806   8.997  0.6928  1.8982  0.0042
  849MOL0     H14607   7.534   3.772   9.214 -0.9458  0.0900 -1.2456
  849MOL0     H14608   7.546   3.896   9.085 -0.1432  1.5324 -1.8895
  849MOL0     H14609   7.686   3.726   8.994 -1.1300  0.9004 -2.4430
  849MOL0     H14610   7.548   3.677   8.913  1.3847 -0.3394 -1.0951
  849MOL0     H14611   7.508   3.513   9.109  0.2598 -0.9292 -0.4461
  849MOL0     H14612   7.669   3.570   9.167 -1.0426  1.8765  0.8471
  849MOL0     H14613   7.765   3.296   8.862  0.6572 -0.4224  0.0126
  849MOL0     H14614   7.199   3.892   9.431 -1.7094 -1.3166  2.4452
  849MOL0     H14615   6.980   3.852   9.499  1.5500 -1.4665  0.9936
  850MOL0     O14616   6.850   2.465   4.315  0.0032  0.2162  0.8835
  850MOL0     C14617   6.867   2.349   4.276 -0.7351 -0.1615  0.1999
  850MOL0     O14618   6.980   2.264   4.316  0.1567 -0.5532  0.0295
  850MOL0     C14619   7.060   2.289   4.423 -0.6736  0.9185 -0.3522
  850MOL0     C14620   7.142   2.184   4.478 -0.0181  0.8435  0.4292
  850MOL0     C14621   7.234   2.201   4.581 -0.5664 -0.0278  0.4587
  850MOL0     C14622   7.260   2.328   4.633  0.8298 -0.7163 -0.0422
  850MOL0     O14623   7.369   2.354   4.719 -0.2091  0.4233 -0.5324
  850MOL0     C14624   7.361   2.469   4.800 -0.9873 -0.0039  0.1233
  850MOL0     C14625   7.483   2.465   4.893  1.1657  0.1340 -0.3206
  850MOL0     C14626   7.616   2.428   4.816 -0.4133 -0.7663 -0.3978
  850MOL0     C14627   7.737   2.458   4.905 -0.8491 -0.5000 -0.5071
  850MOL0     C14628   7.872   2.433   4.824 -0.9053 -0.5855  0.0626
  850MOL0     C14629   7.996   2.485   4.896  0.5676  0.2630  0.5701
  850MOL0     C14630   8.024   2.406   5.022 -0.1259  0.1034  0.2066
  850MOL0     C14631   8.161   2.447   5.086  0.3565  0.2589 -0.2044
  850MOL0     N14632   8.275   2.429   4.991  0.8192 -0.3048 -0.2389
  850MOL0     C14633   8.322   2.313   4.944 -0.9059  0.2275 -0.5524
  850MOL0     C14634   8.440   2.346   4.892 -0.4565  0.6285  0.0018
  850MOL0     C14635   8.536   2.238   4.848  0.7460  0.9941 -0.0290
  850MOL0     C14636   8.524   2.198   4.701  0.7173  0.2193  0.2366
  850MOL0     C14637   8.517   2.310   4.586 -0.3978 -0.4778  0.0015
  850MOL0     C14638   8.653   2.379   4.558  0.2392  0.5759 -0.3948
  850MOL0     O14639   8.749   2.278   4.525  0.9352  0.7290 -0.0557
  850MOL0     C14640   8.882   2.305   4.523  0.4072 -0.5044  0.6714
  850MOL0     C14641   8.936   2.416   4.579 -0.2689 -1.5075  0.0290
  850MOL0     C14642   9.075   2.429   4.594  0.2071  0.4383 -0.0704
  850MOL0     C14643   9.130   2.559   4.641  0.1637  0.2311 -0.1483
  850MOL0     C14644   9.161   2.319   4.562 -0.2781 -0.0402  0.6515
  850MOL0     C14645   9.310   2.316   4.588 -0.1137 -0.6906  0.1374
  850MOL0     O14646   9.359   2.192   4.591 -0.0020 -0.4936  0.5725
  850MOL0     C14647   9.489   2.188   4.640 -1.1303 -0.7754 -0.4548
  850MOL0     C14648   9.600   2.243   4.578  0.2959 -0.1375  0.0938
  850MOL0     C14649   9.729   2.216   4.621 -0.1588 -0.0986  0.8874
  850MOL0     C14650   9.759   2.135   4.720  0.1678 -0.7320  0.6611
  850MOL0     O14651   9.884   2.140   4.771 -0.4182  0.7922 -0.3022
  850MOL0     C14652   9.907   2.081   4.899 -0.2372  0.1372 -0.3503
  850MOL0     C14653  10.045   2.126   4.953  0.3625 -0.0472  1.0693
  850MOL0     C14654  10.165   2.113   4.867 -0.0794 -0.5247 -0.2636
  850MOL0     C14655  10.295   2.149   4.945  0.2909 -0.6513 -0.0909
  850MOL0     C14656  10.342   2.037   5.029  0.1836  0.8656 -0.3592
  850MOL0     C14657  10.466   2.061   5.117 -0.5080  1.0498  0.5127
  850MOL0     C14658  10.512   1.928   5.177  1.3246 -0.6248  0.1622
  850MOL0     C14659  10.633   1.953   5.271  0.3163  0.4865 -0.3615
  850MOL0    Cl14660  10.719   1.810   5.332 -0.1176  0.0918 -0.1053
  850MOL0     C14661   9.650   2.063   4.777 -0.4558 -0.2371 -0.6108
  850MOL0     C14662   9.517   2.092   4.739 -0.2470  0.1919  1.0973
  850MOL0     O14663   9.380   2.419   4.589  0.6098 -0.5189  0.4099
  850MOL0     C14664   9.098   2.207   4.510 -0.2893  0.1843 -0.5027
  850MOL0     C14665   8.967   2.198   4.498 -0.1460 -0.5578  0.2194
  850MOL0     N14666   8.465   2.483   4.902  0.1619 -0.2306  0.8746
  850MOL0     N14667   8.360   2.534   4.961 -0.0802 -0.5886 -0.0489
  850MOL0     C14668   7.173   2.431   4.581  0.1776 -0.1661 -0.1582
  850MOL0     C14669   7.073   2.412   4.487 -0.4774 -0.1288 -0.5150
  850MOL0     C14670   6.768   2.294   4.181 -0.0467  0.4024  0.5546
  850MOL0     C14671   6.793   2.180   4.107 -0.5157  1.2507 -0.6638
  850MOL0     C14672   6.690   2.139   4.011  0.2240 -0.4642  0.5885
  850MOL0     C14673   6.573   2.204   4.000  0.3391  0.2921 -0.0478
  850MOL0     O14674   6.465   2.159   3.925  0.4981  0.1516  0.4393
  850MOL0     C14675   6.467   2.048   3.838 -0.4722  0.6744 -0.7121
  850MOL0     C14676   6.316   2.014   3.816  0.2435  0.8178  0.7865
  850MOL0     C14677   6.237   1.995   3.953  0.3064 -0.7252  0.1678
  850MOL0     C14678   6.099   1.926   3.938  0.0389 -1.5934  0.2545
  850MOL0     C14679   5.997   1.987   3.848 -0.3027  0.1034 -0.0046
  850MOL0     C14680   5.908   2.045   3.783  0.0113 -0.6583  0.4904
  850MOL0     C14681   6.548   2.317   4.078  0.6258 -0.5298 -0.6189
  850MOL0     C14682   6.646   2.361   4.166  1.1432 -0.0926 -0.4342
  850MOL0     H14683   7.131   2.081   4.445  2.3281 -1.0156  4.6120
  850MOL0     H14684   7.303   2.121   4.608 -0.7630 -0.1974  0.4589
  850MOL0     H14685   7.372   2.555   4.734  1.5223 -1.3180 -1.3435
  850MOL0     H14686   7.266   2.483   4.852 -1.3569  1.0176 -0.7955
  850MOL0     H14687   7.496   2.561   4.944  1.4113  1.0835 -2.0970
  850MOL0     H14688   7.459   2.388   4.967 -2.7024  0.4160 -1.0917
  850MOL0     H14689   7.616   2.325   4.781  0.4899 -0.8638 -0.1406
  850MOL0     H14690   7.642   2.484   4.726  2.2796 -0.9513  0.1772
  850MOL0     H14691   7.748   2.564   4.933  1.0928 -0.3160 -1.8088
  850MOL0     H14692   7.735   2.391   4.992 -0.3153 -0.6296 -0.5933
  850MOL0     H14693   7.874   2.330   4.789 -3.4159  0.3401 -3.4388
  850MOL0     H14694   7.868   2.496   4.734 -2.9107 -0.3549  0.2485
  850MOL0     H14695   8.074   2.484   4.819 -0.3712  0.1371 -0.4095
  850MOL0     H14696   7.976   2.588   4.929  0.3724  0.9508 -1.5117
  850MOL0     H14697   7.946   2.407   5.099  1.7288 -0.2232  2.2041
  850MOL0     H14698   8.026   2.304   4.981  2.1639  0.6137 -1.1226
  850MOL0     H14699   8.164   2.380   5.172  0.7090 -1.2476 -1.3286
  850MOL0     H14700   8.163   2.550   5.123  1.0649  1.0616 -2.3041
  850MOL0     H14701   8.302   2.208   4.957 -0.1859  0.1340 -0.1503
  850MOL0     H14702   8.635   2.278   4.872  0.7873  1.4458 -0.9276
  850MOL0     H14703   8.530   2.150   4.913  0.5937  0.3162 -0.9560
  850MOL0     H14704   8.426   2.150   4.698 -0.1959  2.0154  0.2348
  850MOL0     H14705   8.605   2.131   4.669  1.0808  0.9840 -0.4862
  850MOL0     H14706   8.450   2.391   4.615  0.2115  0.3000 -0.7358
  850MOL0     H14707   8.480   2.271   4.490  0.1458 -2.0291  0.3880
  850MOL0     H14708   8.692   2.440   4.639 -3.5392 -1.1080  3.0255
  850MOL0     H14709   8.651   2.447   4.472  4.9686  2.4175  0.6792
  850MOL0     H14710   8.879   2.502   4.613  0.8283 -0.3277 -0.9808
  850MOL0     H14711   9.194   2.537   4.728 -0.6407  0.2123  0.4497
  850MOL0     H14712   9.188   2.614   4.567  2.6815  2.0038  2.8805
  850MOL0     H14713   9.047   2.618   4.681  1.3433  1.6139  0.3516
  850MOL0     H14714   9.579   2.306   4.493  0.5708  0.9137  0.7834
  850MOL0     H14715   9.800   2.281   4.571  0.3929 -0.7554  0.8122
  850MOL0     H14716   9.824   2.102   4.968 -0.0526 -0.0783 -0.0583
  850MOL0     H14717   9.921   1.973   4.889  0.7904  0.1592  0.5666
  850MOL0     H14718  10.037   2.231   4.985  4.6923  0.9464 -0.4315
  850MOL0     H14719  10.070   2.062   5.038  0.6141 -1.2690  0.1060
  850MOL0     H14720  10.147   2.189   4.791 -0.8526 -1.1212 -0.6940
  850MOL0     H14721  10.182   2.019   4.813  2.6425 -0.4979  0.4280
  850MOL0     H14722  10.366   2.185   4.869 -0.3271  2.5156  0.6945
  850MOL0     H14723  10.271   2.237   5.004 -0.9907 -0.7960 -0.3741
  850MOL0     H14724  10.355   1.950   4.965 -3.9246  0.0136 -0.3168
  850MOL0     H14725  10.271   2.010   5.108  0.6163  0.4064 -0.1187
  850MOL0     H14726  10.544   2.097   5.048 -0.6957  0.0589 -0.2311
  850MOL0     H14727  10.442   2.129   5.200 -0.6722  3.2612 -1.2445
  850MOL0     H14728  10.549   1.859   5.101  0.2623 -0.8909 -0.1150
  850MOL0     H14729  10.428   1.880   5.226  0.3193  1.0533  0.1562
  850MOL0     H14730  10.591   2.007   5.356 -1.6917  1.0302 -1.6366
  850MOL0     H14731  10.695   2.025   5.216  0.3332 -0.4375 -1.5759
  850MOL0     H14732   9.662   1.989   4.856  0.3323  0.5748  0.0476
  850MOL0     H14733   9.443   2.020   4.773  2.9313 -4.2408 -0.4488
  850MOL0     H14734   9.164   2.125   4.482  1.2860  0.1348  2.8067
  850MOL0     H14735   8.923   2.106   4.461 -0.7355  0.9261 -3.1599
  850MOL0     H14736   7.209   2.525   4.623  0.6963 -0.3166 -0.2598
  850MOL0     H14737   7.015   2.497   4.451  0.8365 -0.1881 -2.9860
  850MOL0     H14738   6.889   2.129   4.114  0.4958  3.2284  2.0123
  850MOL0     H14739   6.710   2.047   3.957  1.8756  1.1393 -1.7865
  850MOL0     H14740   6.521   2.066   3.744 -1.7770 -0.8654 -1.7996
  850MOL0     H14741   6.513   1.961   3.887 -0.9777  1.3134  0.9591
  850MOL0     H14742   6.306   1.926   3.751 -1.5684  2.1297 -0.8666
  850MOL0     H14743   6.261   2.094   3.764 -2.2119 -1.6354 -0.7073
  850MOL0     H14744   6.223   2.098   3.988 -1.1560  0.6865 -3.9603
  850MOL0     H14745   6.291   1.933   4.025 -1.0429 -0.8822  1.0952
  850MOL0     H14746   6.049   1.929   4.035  1.9533 -2.9264  1.3440
  850MOL0     H14747   6.116   1.821   3.912 -3.7429 -2.1738 -0.3989
  850MOL0     H14748   5.841   2.087   3.711 -1.0687 -0.1059  1.7763
  850MOL0     H14749   6.456   2.373   4.060  0.0754 -1.0100  0.6080
  850MOL0     H14750   6.623   2.449   4.225 -0.2985 -2.3774  2.7360
  851MOL0     O14751   2.379   5.512  10.860 -0.2325 -0.2005 -0.1095
  851MOL0     C14752   2.408   5.414  10.798 -0.0266 -0.2729  1.0790
  851MOL0     O14753   2.327   5.310  10.761  0.1013 -0.7319  0.2878
  851MOL0     C14754   2.192   5.306  10.777 -0.6653 -0.1058 -0.5272
  851MOL0     C14755   2.144   5.179  10.776  0.4740  0.6191  0.1165
  851MOL0     C14756   2.011   5.158  10.814  0.2133  0.1428 -0.1411
  851MOL0     C14757   1.921   5.268  10.835  0.1591 -0.4766  0.9861
  851MOL0     O14758   1.789   5.262  10.866  0.0887  0.3844  0.2377
  851MOL0     C14759   1.718   5.135  10.848  0.0027 -1.0448  0.1106
  851MOL0     C14760   1.561   5.157  10.854 -0.0465 -0.5502  0.5958
  851MOL0     C14761   1.493   5.211  10.984  0.2505  0.1991  0.7950
  851MOL0     C14762   1.337   5.185  10.985 -0.8587  0.2469 -0.0571
  851MOL0     C14763   1.301   5.065  11.078  0.2991 -0.7951 -0.1886
  851MOL0     C14764   1.168   5.001  11.040  1.2499  0.2908 -0.6651
  851MOL0     C14765   1.054   5.106  11.016  0.7022 -0.1294 -0.0010
  851MOL0     C14766   1.015   5.197  11.142  0.6022 -0.0192  0.1750
  851MOL0     N14767   0.882   5.260  11.127 -0.5239  0.5860  0.0770
  851MOL0     C14768   0.812   5.303  11.012 -0.4918  0.6158 -0.1063
  851MOL0     C14769   0.695   5.344  11.058  1.1155  0.3523  0.5864
  851MOL0     C14770   0.584   5.399  10.979 -0.4688 -0.5551  0.4600
  851MOL0     C14771   0.615   5.471  10.841 -1.0138 -0.3914  0.6121
  851MOL0     C14772   0.618   5.375  10.728 -0.6122 -1.1535  0.9718
  851MOL0     C14773   0.647   5.439  10.597 -0.5883  0.4080  0.5060
  851MOL0     O14774   0.540   5.525  10.556  0.0532 -0.0622  0.0193
  851MOL0     C14775   0.525   5.563  10.428 -0.2764 -0.3753 -0.3544
  851MOL0     C14776   0.476   5.693  10.420 -0.4580 -0.2367  0.2137
  851MOL0     C14777   0.446   5.737  10.284 -0.6773  0.5506 -0.5556
  851MOL0     C14778   0.374   5.871  10.263  0.3112 -0.3878  0.3954
  851MOL0     C14779   0.474   5.660  10.169 -0.0351 -0.8338  0.1577
  851MOL0     C14780   0.443   5.703  10.032 -0.0258  0.0779  0.8663
  851MOL0     O14781   0.541   5.689   9.940  0.0899 -0.6778  0.5069
  851MOL0     C14782   0.544   5.740   9.818 -0.1540 -0.1983 -0.0143
  851MOL0     C14783   0.478   5.858   9.782 -0.2059  0.5507  0.6996
  851MOL0     C14784   0.501   5.904   9.652  0.0161  0.7181 -0.4242
  851MOL0     C14785   0.586   5.839   9.562  0.3774  0.0478 -0.0559
  851MOL0     O14786   0.621   5.887   9.439  0.1268  0.2689  0.2777
  851MOL0     C14787   0.524   5.976   9.382  0.4317 -0.4483 -0.8738
  851MOL0     C14788   0.582   6.023   9.251 -0.4482  0.6229 -0.1449
  851MOL0     C14789   0.496   6.137   9.196 -0.2878 -0.2495  0.7459
  851MOL0     C14790   0.503   6.267   9.272 -0.1957 -0.1142 -0.2761
  851MOL0     C14791   0.428   6.374   9.182  0.6640 -0.3421 -0.5830
  851MOL0     C14792   0.276   6.344   9.188 -0.4397 -0.1468 -0.9480
  851MOL0     C14793   0.201   6.449   9.099 -0.2247 -0.3792 -1.1238
  851MOL0     C14794   0.062   6.473   9.146 -0.3211 -0.1410  0.3256
  851MOL0    Cl14795  -0.019   6.593   9.046  0.2700  0.0627  0.1025
  851MOL0     C14796   0.640   5.715   9.602 -0.4315 -0.1979  0.5939
  851MOL0     C14797   0.604   5.661   9.721 -0.7968  0.3471 -0.2456
  851MOL0     O14798   0.341   5.756  10.009  0.0136  0.4386  0.1681
  851MOL0     C14799   0.527   5.533  10.194  0.0641  0.4398  0.2594
  851MOL0     C14800   0.545   5.480  10.318 -0.6137 -0.3360 -0.9874
  851MOL0     N14801   0.684   5.315  11.196 -0.3227 -0.0255 -0.1184
  851MOL0     N14802   0.793   5.267  11.229  0.4113  0.5812 -1.0623
  851MOL0     C14803   1.974   5.391  10.834  0.1792  0.1314 -0.3896
  851MOL0     C14804   2.106   5.413  10.805 -0.3752 -0.1642  0.0281
  851MOL0     C14805   2.543   5.400  10.740  0.2496 -0.0619 -0.0133
  851MOL0     C14806   2.644   5.493  10.776 -0.0185 -0.0574 -0.1457
  851MOL0     C14807   2.763   5.485  10.712 -0.5367  0.7833  0.4780
  851MOL0     C14808   2.793   5.395  10.612  0.4091  0.5779  0.8458
  851MOL0     O14809   2.906   5.404  10.532  0.0602  0.3716  0.0116
  851MOL0     C14810   3.028   5.473  10.567  0.1124 -0.5632 -0.0301
  851MOL0     C14811   3.147   5.408  10.502 -1.2156 -0.1832 -0.2014
  851MOL0     C14812   3.186   5.263  10.556 -0.1444 -0.9110  0.1637
  851MOL0     C14813   3.276   5.257  10.681 -0.2988 -0.4717 -0.1484
  851MOL0     C14814   3.413   5.267  10.644  0.1632  0.0173 -0.4172
  851MOL0     C14815   3.527   5.280  10.608 -0.1795  0.7177  0.6666
  851MOL0     C14816   2.697   5.293  10.584  0.7933 -0.5043  1.1342
  851MOL0     C14817   2.577   5.295  10.651  0.0144 -0.5263 -0.5921
  851MOL0     H14818   2.213   5.103  10.741  0.2575  0.9754 -1.1601
  851MOL0     H14819   1.971   5.057  10.805 -3.0383  1.2842  0.0654
  851MOL0     H14820   1.745   5.100  10.748 -0.2349  1.3777 -0.8884
  851MOL0     H14821   1.749   5.071  10.931 -1.6168  0.8119  2.2654
  851MOL0     H14822   1.545   5.216  10.764 -0.3975 -2.1761 -0.4458
  851MOL0     H14823   1.517   5.058  10.836 -0.0621 -0.1804 -1.6672
  851MOL0     H14824   1.547   5.169  11.070 -0.2493 -2.4605 -0.1115
  851MOL0     H14825   1.503   5.320  10.979 -2.3609  0.4518 -0.2402
  851MOL0     H14826   1.284   5.269  11.031 -1.4775 -1.6442  3.0416
  851MOL0     H14827   1.309   5.154  10.884  3.2477  0.1104 -1.3560
  851MOL0     H14828   1.380   4.989  11.073  0.0328 -0.9918 -2.7553
  851MOL0     H14829   1.296   5.109  11.178 -1.4548 -0.1927 -0.5177
  851MOL0     H14830   1.181   4.936  10.952 -0.3273  1.7148 -2.0348
  851MOL0     H14831   1.121   4.937  11.114 -2.1122  3.8781  0.6486
  851MOL0     H14832   1.076   5.186  10.944  1.2650 -0.0441  0.2595
  851MOL0     H14833   0.969   5.047  10.980  0.8438  0.4877 -1.3972
  851MOL0     H14834   1.094   5.271  11.159  2.5400 -1.6537 -1.2235
  851MOL0     H14835   1.003   5.139  11.234 -1.3368 -1.6455 -1.0245
  851MOL0     H14836   0.846   5.302  10.909  3.8059  1.6267  1.0993
  851MOL0     H14837   0.504   5.326  10.969 -0.7152 -0.4887  1.7598
  851MOL0     H14838   0.548   5.483  11.039 -2.4187  0.9008 -2.5002
  851MOL0     H14839   0.701   5.539  10.841 -0.9967 -0.2460 -3.1572
  851MOL0     H14840   0.530   5.539  10.828  0.7055  1.3179 -3.0106
  851MOL0     H14841   0.519   5.330  10.722 -1.9423  1.4712  1.4177
  851MOL0     H14842   0.693   5.297  10.740 -0.0610 -0.7233  0.4095
  851MOL0     H14843   0.663   5.359  10.525 -1.7181 -0.0480  0.7385
  851MOL0     H14844   0.738   5.498  10.604 -1.2902  1.5270  0.5559
  851MOL0     H14845   0.449   5.751  10.507  0.0681  2.5317 -1.3687
  851MOL0     H14846   0.408   5.940  10.341  1.6155  1.2830 -1.5493
  851MOL0     H14847   0.418   5.919  10.175 -1.2697 -2.9181 -1.9615
  851MOL0     H14848   0.266   5.862  10.248  0.0705  2.9367 -0.6653
  851MOL0     H14849   0.420   5.914   9.854 -0.5231 -0.2619  1.0864
  851MOL0     H14850   0.450   5.997   9.630 -0.7945  0.2277 -0.6329
  851MOL0     H14851   0.427   5.926   9.375  2.0114 -3.5089 -3.5652
  851MOL0     H14852   0.509   6.053   9.458 -4.3328 -3.5740  1.8803
  851MOL0     H14853   0.673   6.074   9.282  0.2100 -0.6018  0.0125
  851MOL0     H14854   0.605   5.933   9.193  2.0923  0.1251  1.4841
  851MOL0     H14855   0.392   6.104   9.189 -0.7770  1.0302  1.6644
  851MOL0     H14856   0.530   6.150   9.093 -1.4358 -2.2410  0.0611
  851MOL0     H14857   0.443   6.262   9.363 -0.0258  2.2757  0.0219
  851MOL0     H14858   0.607   6.301   9.275 -0.3373  0.6416 -2.1507
  851MOL0     H14859   0.465   6.377   9.079  1.8277  0.1460 -0.1658
  851MOL0     H14860   0.452   6.474   9.219 -3.6313  0.4974  0.4487
  851MOL0     H14861   0.252   6.249   9.139 -0.9936 -0.4738 -0.0655
  851MOL0     H14862   0.237   6.331   9.289 -0.2756  0.7800 -0.7572
  851MOL0     H14863   0.195   6.410   8.997 -1.5002 -1.1193 -0.7980
  851MOL0     H14864   0.255   6.544   9.096  0.9593 -1.0348 -1.1582
  851MOL0     H14865   0.059   6.493   9.253 -0.5308  0.4307  0.2173
  851MOL0     H14866   0.005   6.380   9.139  0.6318 -0.6447 -1.2501
  851MOL0     H14867   0.695   5.655   9.530 -1.4058 -1.8130  1.1504
  851MOL0     H14868   0.631   5.559   9.743  1.4589  0.3302 -2.6416
  851MOL0     H14869   0.552   5.462  10.116 -1.4994 -0.8201  0.8604
  851MOL0     H14870   0.582   5.379  10.330  0.9879  0.0900 -1.9858
  851MOL0     H14871   1.907   5.472  10.859  1.0559  1.2700 -1.6017
  851MOL0     H14872   2.144   5.514  10.813 -0.8433 -0.1147  2.1367
  851MOL0     H14873   2.629   5.567  10.854 -1.0979 -1.1628  0.7262
  851MOL0     H14874   2.840   5.560  10.723 -1.3886  1.9453 -1.0889
  851MOL0     H14875   3.025   5.579  10.540  0.2557 -0.9813 -1.8397
  851MOL0     H14876   3.046   5.471  10.675 -1.4098 -1.5722  0.2385
  851MOL0     H14877   3.239   5.464  10.521 -0.6229 -1.7224  1.8226
  851MOL0     H14878   3.129   5.416  10.395  0.0014  0.2282 -0.3871
  851MOL0     H14879   3.231   5.207  10.474 -2.5834 -1.5028 -0.8902
  851MOL0     H14880   3.097   5.202  10.576  1.0537 -2.8870 -0.2612
  851MOL0     H14881   3.262   5.156  10.721  2.7924 -0.3110  1.6460
  851MOL0     H14882   3.253   5.324  10.764 -1.1055 -2.1430  1.0297
  851MOL0     H14883   3.631   5.279  10.580 -0.1796 -0.4562  0.6306
  851MOL0     H14884   2.728   5.227  10.504  3.7085  3.2669 -1.2241
  851MOL0     H14885   2.504   5.218  10.627  1.3421 -2.7899  2.0698
  852MOL0     O14886   5.683   4.149   7.321 -0.7883  0.6237 -0.2047
  852MOL0     C14887   5.725   4.083   7.227  0.1163 -0.0600 -0.3263
  852MOL0     O14888   5.708   3.955   7.195  0.1775 -0.2285 -0.2572
  852MOL0     C14889   5.613   3.879   7.270  0.3776  0.3556 -0.5409
  852MOL0     C14890   5.484   3.924   7.279 -1.0792 -0.2078 -0.8956
  852MOL0     C14891   5.387   3.838   7.342  0.0323  0.1644  0.3761
  852MOL0     C14892   5.428   3.713   7.403 -0.7083  0.8589 -0.1390
  852MOL0     O14893   5.348   3.620   7.464 -0.1520  0.5091  0.5791
  852MOL0     C14894   5.208   3.653   7.485 -0.8675 -0.5927  1.0677
  852MOL0     C14895   5.110   3.543   7.526 -0.0494 -0.3730  0.5639
  852MOL0     C14896   5.080   3.453   7.412 -0.0301  0.2896 -0.1056
  852MOL0     C14897   4.980   3.354   7.470  0.3251 -0.7653  0.3636
  852MOL0     C14898   4.934   3.258   7.363 -0.7204  0.7523 -0.7184
  852MOL0     C14899   4.846   3.144   7.424 -0.3860  0.2164  0.2268
  852MOL0     C14900   4.710   3.188   7.465  0.4506 -0.5869 -0.1047
  852MOL0     C14901   4.612   3.075   7.487 -0.1963  0.4271 -0.2584
  852MOL0     N14902   4.616   3.023   7.627  0.2036  0.3874  0.2468
  852MOL0     C14903   4.707   2.928   7.671 -0.3311  0.5064 -0.2841
  852MOL0     C14904   4.649   2.871   7.775 -0.1893  0.7095 -0.2446
  852MOL0     C14905   4.692   2.743   7.841  0.4669 -0.0141 -0.5247
  852MOL0     C14906   4.650   2.614   7.759  0.5678  0.0918  0.0377
  852MOL0     C14907   4.504   2.591   7.764  0.3288 -0.4997  0.9386
  852MOL0     C14908   4.454   2.462   7.684 -0.2477 -0.6286  0.1031
  852MOL0     O14909   4.315   2.439   7.698  0.2488  0.6903  0.1884
  852MOL0     C14910   4.266   2.318   7.657 -0.1906  0.1752  0.6476
  852MOL0     C14911   4.149   2.289   7.723  0.2164  0.6990  0.1882
  852MOL0     C14912   4.082   2.162   7.697 -0.0252 -0.8285 -0.7500
  852MOL0     C14913   3.955   2.140   7.768  0.5088  0.5584  0.0191
  852MOL0     C14914   4.132   2.075   7.596  0.4789  0.2358 -0.6614
  852MOL0     C14915   4.064   1.953   7.554 -0.0223  0.0147  0.2342
  852MOL0     O14916   4.119   1.892   7.443 -0.1742  0.4571  1.1346
  852MOL0     C14917   4.067   1.768   7.402  0.0351  0.4212  0.7025
  852MOL0     C14918   4.125   1.645   7.438 -0.1569 -0.0630 -0.0416
  852MOL0     C14919   4.088   1.524   7.386  0.2205  0.0160 -0.4183
  852MOL0     C14920   3.978   1.516   7.294 -0.2159  0.1786  0.5681
  852MOL0     O14921   3.936   1.393   7.239 -0.8264 -0.8866  0.5409
  852MOL0     C14922   3.796   1.373   7.234 -0.0677 -0.6897  0.3598
  852MOL0     C14923   3.781   1.226   7.258  0.0290  0.1330  0.2063
  852MOL0     C14924   3.641   1.169   7.241 -0.2091  0.0390 -0.0605
  852MOL0     C14925   3.602   1.132   7.098  0.3138  0.6077 -0.4358
  852MOL0     C14926   3.457   1.088   7.084  0.4485  0.6694  0.0504
  852MOL0     C14927   3.404   1.039   6.945  0.0763 -0.0963  0.0069
  852MOL0     C14928   3.356   1.158   6.843 -0.1819  0.1539  0.1233
  852MOL0     C14929   3.367   1.105   6.695 -0.7115 -1.1495 -0.5418
  852MOL0    Cl14930   3.259   0.965   6.672  0.1997 -0.2713 -0.0298
  852MOL0     C14931   3.921   1.637   7.262 -0.9062  0.5860  0.6324
  852MOL0     C14932   3.959   1.762   7.315 -1.0970 -0.6414 -0.1486
  852MOL0     O14933   3.984   1.899   7.627  0.3785  0.1861 -0.0895
  852MOL0     C14934   4.247   2.112   7.533 -0.5394  0.4824  0.6485
  852MOL0     C14935   4.319   2.233   7.554 -0.2158 -0.8547 -0.9074
  852MOL0     N14936   4.530   2.931   7.801 -0.0510 -0.1063 -0.2777
  852MOL0     N14937   4.513   3.021   7.708 -0.4147 -0.0110  0.1264
  852MOL0     C14938   5.564   3.676   7.407 -0.7297 -0.2642  0.1811
  852MOL0     C14939   5.650   3.755   7.326 -0.4384  0.4663  0.2253
  852MOL0     C14940   5.820   4.161   7.144 -0.1836  0.1739  0.4012
  852MOL0     C14941   5.869   4.287   7.178  0.4654  1.0210 -0.5034
  852MOL0     C14942   5.978   4.340   7.109  0.2653 -0.0148  0.5226
  852MOL0     C14943   6.023   4.292   6.983  0.5944 -0.0221 -0.6646
  852MOL0     O14944   6.117   4.350   6.905  0.0590 -0.0689 -0.3696
  852MOL0     C14945   6.173   4.479   6.941 -0.7611 -0.7887  0.2135
  852MOL0     C14946   6.290   4.530   6.862  0.2615  0.0928 -0.6370
  852MOL0     C14947   6.415   4.443   6.868 -0.6675 -1.1956  0.1869
  852MOL0     C14948   6.541   4.520   6.818  0.2422  0.3309 -0.9323
  852MOL0     C14949   6.530   4.565   6.680 -0.0268  0.4353  0.1736
  852MOL0     C14950   6.539   4.608   6.569  0.7398 -0.1018 -0.5220
  852MOL0     C14951   5.966   4.169   6.947 -1.0302 -0.0209  0.3841
  852MOL0     C14952   5.868   4.107   7.021  0.5821 -0.2381 -0.6554
  852MOL0     H14953   5.459   4.027   7.253 -1.7523  0.2167  1.2307
  852MOL0     H14954   5.285   3.873   7.352 -0.6235 -2.0849  2.2830
  852MOL0     H14955   5.192   3.735   7.556 -1.8709 -0.4066  0.6448
  852MOL0     H14956   5.170   3.678   7.385 -2.2336 -3.6039  0.7139
  852MOL0     H14957   5.160   3.485   7.603  1.9588 -0.3544 -0.6540
  852MOL0     H14958   5.018   3.585   7.568  0.1083 -0.2889  0.8242
  852MOL0     H14959   5.033   3.508   7.330  1.8494  0.4624 -1.1264
  852MOL0     H14960   5.166   3.391   7.386 -0.1694 -1.2477  2.7303
  852MOL0     H14961   5.035   3.304   7.551  2.3093  0.7463  0.0308
  852MOL0     H14962   4.895   3.414   7.503 -0.8122 -0.5331 -2.7266
  852MOL0     H14963   4.879   3.304   7.282 -2.8327 -1.0783 -0.4256
  852MOL0     H14964   5.019   3.203   7.321 -0.8155 -1.0620  1.2769
  852MOL0     H14965   4.829   3.062   7.354 -1.0229 -3.0841  3.8807
  852MOL0     H14966   4.899   3.107   7.513 -1.4808  1.1077  1.2920
  852MOL0     H14967   4.729   3.241   7.558  0.3994 -1.3931  0.3744
  852MOL0     H14968   4.670   3.259   7.392  1.2349  1.6322  1.5106
  852MOL0     H14969   4.624   2.994   7.414 -1.1774 -2.4078  2.4976
  852MOL0     H14970   4.505   3.098   7.492 -1.1846 -3.2575 -1.2501
  852MOL0     H14971   4.792   2.885   7.618 -1.5212  1.7278 -3.4457
  852MOL0     H14972   4.800   2.754   7.849  0.3624  1.3727 -0.7430
  852MOL0     H14973   4.642   2.748   7.938  0.1130 -0.1640 -0.6975
  852MOL0     H14974   4.700   2.536   7.817 -0.7353  0.3055  1.5143
  852MOL0     H14975   4.688   2.613   7.656  0.1217 -1.6131 -0.1413
  852MOL0     H14976   4.447   2.673   7.720 -0.0519 -1.2121  0.0759
  852MOL0     H14977   4.462   2.586   7.866 -1.6745 -2.1203  0.1159
  852MOL0     H14978   4.501   2.372   7.724 -1.7467 -1.1125  0.8812
  852MOL0     H14979   4.482   2.476   7.580 -0.7068  0.4709  0.1060
  852MOL0     H14980   4.115   2.347   7.809  1.3942  0.1413  1.0614
  852MOL0     H14981   3.869   2.149   7.701 -0.5358 -1.3566  1.0364
  852MOL0     H14982   3.960   2.039   7.810 -0.1049 -0.3205 -1.9069
  852MOL0     H14983   3.941   2.213   7.848  2.2044  2.2071 -1.0914
  852MOL0     H14984   4.210   1.658   7.504 -0.2317 -2.7740  0.7261
  852MOL0     H14985   4.137   1.433   7.420  2.0187 -0.0223 -2.8073
  852MOL0     H14986   3.738   1.419   7.314  0.6505 -0.2300  0.6165
  852MOL0     H14987   3.764   1.387   7.130 -0.2876 -3.0457  0.0357
  852MOL0     H14988   3.844   1.168   7.189 -1.1063 -3.5017  1.9543
  852MOL0     H14989   3.809   1.219   7.363  0.2987  0.4126  0.1539
  852MOL0     H14990   3.567   1.245   7.269  1.8593  2.7565 -1.5959
  852MOL0     H14991   3.635   1.084   7.310 -0.3169  0.8425  0.9442
  852MOL0     H14992   3.611   1.214   7.025 -1.8124 -0.2919 -1.8242
  852MOL0     H14993   3.666   1.047   7.071 -2.5328 -1.6850 -0.4399
  852MOL0     H14994   3.381   1.158   7.120 -0.8624 -0.7828  0.2032
  852MOL0     H14995   3.447   1.007   7.157 -2.7176  0.8269 -0.0916
  852MOL0     H14996   3.484   0.980   6.899  0.2903 -0.3401  0.6764
  852MOL0     H14997   3.323   0.968   6.962  1.1345 -0.8102  2.3664
  852MOL0     H14998   3.424   1.244   6.846  1.8794 -1.4078  0.2627
  852MOL0     H14999   3.256   1.197   6.864 -2.1398 -3.1976 -2.1304
  852MOL0     H15000   3.472   1.085   6.671  0.5173  1.8767  1.6647
  852MOL0     H15001   3.342   1.187   6.628 -0.6625 -0.7396 -0.0659
  852MOL0     H15002   3.847   1.637   7.183  0.2207  0.4592 -0.4413
  852MOL0     H15003   3.916   1.855   7.277  0.3416  0.2883  0.4399
  852MOL0     H15004   4.297   2.043   7.465 -0.5212 -0.0631  1.2064
  852MOL0     H15005   4.412   2.255   7.502  0.8524 -0.5929  1.0205
  852MOL0     H15006   5.584   3.577   7.448 -2.6853 -0.6502  0.3191
  852MOL0     H15007   5.752   3.722   7.308 -0.6370  0.7534 -1.5505
  852MOL0     H15008   5.836   4.330   7.271 -1.3344  0.1377 -0.6992
  852MOL0     H15009   6.031   4.423   7.155  0.4521  0.1089  0.0833
  852MOL0     H15010   6.090   4.550   6.934 -0.6721 -0.6804  0.2525
  852MOL0     H15011   6.200   4.469   7.047  2.6000  1.4549 -0.2859
  852MOL0     H15012   6.306   4.632   6.898  0.3774  0.3213 -1.3226
  852MOL0     H15013   6.267   4.547   6.756 -1.5516  1.0977 -0.1222
  852MOL0     H15014   6.399   4.355   6.806 -1.1331 -1.0240  0.0565
  852MOL0     H15015   6.435   4.419   6.973  0.4407  1.2653  0.6185
  852MOL0     H15016   6.616   4.441   6.832 -1.4252 -0.9566  1.5505
  852MOL0     H15017   6.563   4.608   6.879  0.1446 -0.1712 -0.1477
  852MOL0     H15018   6.537   4.641   6.467 -0.9695 -1.8543 -1.1241
  852MOL0     H15019   6.003   4.132   6.852 -0.2306 -2.7385  1.6704
  852MOL0     H15020   5.848   4.007   6.987  2.2986 -0.0936 -2.2273
  853MOL0     O15021   6.261   7.735   2.139  0.2692  0.2630 -0.4017
  853MOL0     C15022   6.360   7.746   2.212  0.1920 -0.6679 -0.0867
  853MOL0     O15023   6.356   7.747   2.348 -0.4511  1.0521 -0.5385
  853MOL0     C15024   6.238   7.740   2.415  0.3328 -0.0914  0.0681
  853MOL0     C15025   6.180   7.847   2.459  0.4527 -0.8285 -0.6330
  853MOL0     C15026   6.048   7.843   2.521 -0.0605 -0.8791 -0.5854
  853MOL0     C15027   5.986   7.725   2.545 -0.1343 -0.0374  0.5264
  853MOL0     O15028   5.869   7.713   2.629 -0.6748  0.6002 -0.4164
  853MOL0     C15029   5.792   7.827   2.669  0.4560  0.2479 -0.1754
  853MOL0     C15030   5.699   7.776   2.775  0.4336  0.3106 -0.8200
  853MOL0     C15031   5.592   7.678   2.731 -0.1567  1.1581  0.8339
  853MOL0     C15032   5.503   7.624   2.840  0.5284 -0.7463  0.9703
  853MOL0     C15033   5.389   7.532   2.792 -0.3604 -1.5086 -0.5963
  853MOL0     C15034   5.276   7.496   2.893 -0.1573  0.9898  0.2524
  853MOL0     C15035   5.333   7.458   3.034  0.2818 -0.5883 -0.0580
  853MOL0     C15036   5.226   7.414   3.133 -0.4099 -0.0817 -0.6784
  853MOL0     N15037   5.170   7.283   3.095 -0.1523  0.3957  0.5563
  853MOL0     C15038   5.077   7.258   2.999 -0.7104 -0.0982 -0.1364
  853MOL0     C15039   5.058   7.124   3.012 -0.2711  0.5507  0.0872
  853MOL0     C15040   4.954   7.052   2.934  0.2963  0.1491  0.0110
  853MOL0     C15041   4.906   6.920   2.986 -0.0611  0.6979  0.2418
  853MOL0     C15042   4.808   6.931   3.099 -0.3062 -0.5467  0.3427
  853MOL0     C15043   4.760   6.796   3.146 -0.1267  0.0849 -0.0445
  853MOL0     O15044   4.639   6.810   3.225  0.2787 -0.8527  0.0252
  853MOL0     C15045   4.582   6.700   3.284 -0.6346  0.5477 -0.2778
  853MOL0     C15046   4.616   6.568   3.258  0.4875  0.3926 -0.1922
  853MOL0     C15047   4.553   6.455   3.319  0.6704  0.5170 -0.5232
  853MOL0     C15048   4.605   6.312   3.294  0.4065  0.2264  0.1646
  853MOL0     C15049   4.440   6.475   3.408 -0.7240  0.1749  0.1165
  853MOL0     C15050   4.365   6.366   3.484  0.3925  0.4478  0.1486
  853MOL0     O15051   4.245   6.401   3.543 -0.3490  0.0605  0.3829
  853MOL0     C15052   4.151   6.307   3.580 -0.4807  0.7163 -0.1676
  853MOL0     C15053   4.156   6.164   3.553  0.8823  1.0740 -0.0148
  853MOL0     C15054   4.042   6.083   3.582  1.0934  0.2829 -1.0344
  853MOL0     C15055   3.927   6.134   3.638 -1.3967  0.2999 -0.5048
  853MOL0     O15056   3.811   6.069   3.663  0.0200 -0.4139  0.1704
  853MOL0     C15057   3.799   5.933   3.658  0.4946  0.4226  0.5068
  853MOL0     C15058   3.653   5.881   3.663  0.1739 -0.2867  0.5083
  853MOL0     C15059   3.577   5.944   3.548 -0.6026 -0.4357 -0.4961
  853MOL0     C15060   3.446   5.875   3.516 -0.7128  0.2680 -0.1148
  853MOL0     C15061   3.335   5.866   3.632  0.5485 -1.0523 -0.5194
  853MOL0     C15062   3.207   5.789   3.589 -0.3376  0.4448 -0.0664
  853MOL0     C15063   3.110   5.754   3.700  0.0830  0.1386  0.5734
  853MOL0     C15064   3.153   5.647   3.790 -0.0853  0.3763 -0.1344
  853MOL0    Cl15065   3.027   5.623   3.911 -0.2393 -0.3978 -0.6068
  853MOL0     C15066   3.928   6.271   3.663 -1.0839 -0.6745 -0.7987
  853MOL0     C15067   4.037   6.352   3.631  1.4714 -0.7872  0.4850
  853MOL0     O15068   4.422   6.260   3.510 -0.6717 -0.0109 -0.6823
  853MOL0     C15069   4.410   6.607   3.430 -0.0732  0.1008 -0.3619
  853MOL0     C15070   4.477   6.717   3.376 -1.2428  0.0248 -0.3024
  853MOL0     N15071   5.146   7.074   3.105 -0.2984 -0.2667 -0.8771
  853MOL0     N15072   5.215   7.172   3.153 -0.2444 -0.9956  0.5854
  853MOL0     C15073   6.051   7.609   2.507  0.4829 -0.5844  0.1557
  853MOL0     C15074   6.172   7.616   2.438 -0.1594  0.0311 -0.6553
  853MOL0     C15075   6.491   7.767   2.157 -0.1967  0.0193 -0.1225
  853MOL0     C15076   6.510   7.768   2.015 -0.1196 -0.1074  0.3310
  853MOL0     C15077   6.643   7.777   1.960 -0.9640  0.1500  0.2727
  853MOL0     C15078   6.761   7.769   2.049  0.5280 -0.0363  0.5593
  853MOL0     O15079   6.887   7.771   1.988  0.3445 -0.3719  0.0364
  853MOL0     C15080   7.003   7.734   2.065 -0.0436  0.4668  1.0687
  853MOL0     C15081   7.079   7.851   2.130  0.6332  0.6924  0.3624
  853MOL0     C15082   7.203   7.803   2.206 -0.1561  0.4457  0.6375
  853MOL0     C15083   7.171   7.727   2.337 -0.2699 -0.0421 -0.0217
  853MOL0     C15084   7.293   7.707   2.418 -0.9958 -0.8084  0.4722
  853MOL0     C15085   7.396   7.688   2.484 -0.0907  0.2976 -0.1773
  853MOL0     C15086   6.740   7.779   2.180  0.3076 -0.2732 -1.2092
  853MOL0     C15087   6.612   7.762   2.236 -0.1413  0.8508  0.1928
  853MOL0     H15088   6.236   7.940   2.449 -1.4897  0.7520  1.8416
  853MOL0     H15089   6.003   7.938   2.546  0.0061 -0.8725 -0.4898
  853MOL0     H15090   5.861   7.896   2.719  0.9640 -1.0493  0.9891
  853MOL0     H15091   5.746   7.882   2.587 -3.1367 -1.8398  0.2574
  853MOL0     H15092   5.765   7.738   2.853  0.4968  0.7332 -0.6656
  853MOL0     H15093   5.634   7.847   2.827 -0.5068 -2.2566  1.7347
  853MOL0     H15094   5.523   7.722   2.657  0.3768 -2.0445 -1.8165
  853MOL0     H15095   5.630   7.590   2.679  1.1143  1.5992  0.9807
  853MOL0     H15096   5.568   7.568   2.909  1.2089 -0.7054  0.3789
  853MOL0     H15097   5.455   7.706   2.894  3.4772 -1.4370  5.1820
  853MOL0     H15098   5.331   7.578   2.711 -2.0350 -2.3309  0.1016
  853MOL0     H15099   5.439   7.439   2.762  0.1839 -1.1835 -0.7146
  853MOL0     H15100   5.215   7.585   2.907 -1.4205  0.3499 -0.9247
  853MOL0     H15101   5.221   7.416   2.843  0.3799  0.8585 -0.1381
  853MOL0     H15102   5.416   7.387   3.032  0.4893 -0.5934  2.9985
  853MOL0     H15103   5.372   7.551   3.077 -2.2638  1.0681 -1.0569
  853MOL0     H15104   5.158   7.499   3.136 -0.3286 -0.0074 -0.9002
  853MOL0     H15105   5.266   7.400   3.234 -1.1449  0.1415 -0.3491
  853MOL0     H15106   5.027   7.328   2.932 -0.8216 -0.4325 -0.4041
  853MOL0     H15107   4.865   7.112   2.912 -0.3101  0.2016  2.2901
  853MOL0     H15108   5.005   7.024   2.841 -2.6802  0.0086 -1.7030
  853MOL0     H15109   4.996   6.876   3.029 -0.0912  1.5306  1.1897
  853MOL0     H15110   4.873   6.860   2.901  0.8004  0.8475 -0.2131
  853MOL0     H15111   4.725   6.990   3.059  1.1116  1.0176 -0.3873
  853MOL0     H15112   4.860   6.979   3.182 -1.0871 -1.7611  1.5781
  853MOL0     H15113   4.831   6.731   3.197  0.0517  1.9370  2.2143
  853MOL0     H15114   4.727   6.744   3.055 -0.2738  0.2632 -0.0948
  853MOL0     H15115   4.701   6.554   3.192 -1.1833  5.1781 -3.9646
  853MOL0     H15116   4.651   6.315   3.195 -2.7018  1.4414 -1.4021
  853MOL0     H15117   4.673   6.295   3.379  3.3861  0.9369 -1.9235
  853MOL0     H15118   4.525   6.237   3.291  0.4790  0.1963 -1.5183
  853MOL0     H15119   4.238   6.103   3.517 -1.0694 -1.2239 -0.8605
  853MOL0     H15120   4.039   5.977   3.559 -1.5905  0.6048 -2.6103
  853MOL0     H15121   3.849   5.903   3.565  0.5451 -1.5372  1.1163
  853MOL0     H15122   3.849   5.873   3.735 -0.1629 -0.8601 -0.0342
  853MOL0     H15123   3.651   5.772   3.655  3.0208 -0.3834  0.0930
  853MOL0     H15124   3.618   5.911   3.762 -2.7139  0.2796 -0.5749
  853MOL0     H15125   3.639   5.931   3.459 -0.6276 -1.7724 -0.3418
  853MOL0     H15126   3.566   6.049   3.576  2.6875 -0.5899  1.9805
  853MOL0     H15127   3.420   5.931   3.426  2.1282 -1.2126 -2.0464
  853MOL0     H15128   3.477   5.773   3.489 -2.4795  0.1678 -2.0167
  853MOL0     H15129   3.311   5.967   3.665 -0.9952 -0.9069 -2.0065
  853MOL0     H15130   3.382   5.815   3.717  0.4938 -2.3094 -1.2166
  853MOL0     H15131   3.152   5.848   3.515  0.8009  0.3653 -1.0023
  853MOL0     H15132   3.229   5.702   3.526  0.2816  1.2022 -0.9141
  853MOL0     H15133   3.014   5.721   3.660  0.2887  2.5376 -2.2155
  853MOL0     H15134   3.101   5.843   3.763  2.4577 -0.9385  2.6002
  853MOL0     H15135   3.248   5.671   3.838  0.2757  0.5049 -0.9039
  853MOL0     H15136   3.175   5.553   3.737  1.8690  1.7866 -1.9912
  853MOL0     H15137   3.836   6.310   3.704 -2.3809 -2.2124 -2.0954
  853MOL0     H15138   4.035   6.458   3.652  2.1402 -1.3649  4.0556
  853MOL0     H15139   4.327   6.627   3.496 -1.6535  2.3868 -2.8483
  853MOL0     H15140   4.455   6.823   3.391  0.9227  0.3353  1.2218
  853MOL0     H15141   5.994   7.518   2.523  0.3514 -0.7437 -1.0831
  853MOL0     H15142   6.232   7.527   2.423 -0.0120 -0.4286  2.2660
  853MOL0     H15143   6.424   7.759   1.949  0.0236 -0.4602  0.1886
  853MOL0     H15144   6.657   7.768   1.852  0.1425 -2.9278  0.5605
  853MOL0     H15145   6.970   7.663   2.141  0.7354 -0.9741  0.0900
  853MOL0     H15146   7.068   7.685   1.992 -1.8212  1.4138 -1.2498
  853MOL0     H15147   7.017   7.903   2.204  2.8557  0.5974  2.4032
  853MOL0     H15148   7.112   7.913   2.046 -0.6426  0.2721 -0.4835
  853MOL0     H15149   7.271   7.883   2.238 -1.1749  1.4829  0.2959
  853MOL0     H15150   7.253   7.735   2.136 -0.2347 -0.8381  1.7921
  853MOL0     H15151   7.135   7.629   2.304  0.6095 -0.4553  0.2195
  853MOL0     H15152   7.099   7.779   2.401  0.6662  2.5802 -0.9573
  853MOL0     H15153   7.490   7.666   2.529 -0.0520  1.0735  0.1318
  853MOL0     H15154   6.824   7.783   2.249  0.8412 -2.2385 -1.6763
  853MOL0     H15155   6.602   7.759   2.344 -2.1860  2.4198  0.1057
  854MOL0     O15156  10.278   3.709   8.526 -0.0081 -0.3772 -0.6947
  854MOL0     C15157  10.325   3.673   8.634  1.1478 -0.0541 -0.9052
  854MOL0     O15158  10.249   3.601   8.722  0.4918 -0.2333  0.0954
  854MOL0     C15159  10.113   3.573   8.686 -0.2948 -0.2512  0.6284
  854MOL0     C15160  10.079   3.437   8.697  0.8949 -0.3222  0.0432
  854MOL0     C15161   9.957   3.393   8.649 -0.1639 -0.2181  0.1339
  854MOL0     C15162   9.866   3.484   8.579  0.0958  0.3336  0.4020
  854MOL0     O15163   9.764   3.425   8.501  0.1205 -0.5785  0.2472
  854MOL0     C15164   9.758   3.467   8.361 -1.1487  0.0663 -0.0836
  854MOL0     C15165   9.664   3.578   8.331 -0.0039 -0.5517 -0.2083
  854MOL0     C15166   9.588   3.564   8.196  0.0803 -1.1266 -0.6261
  854MOL0     C15167   9.478   3.465   8.203 -0.3704  0.0689 -1.1088
  854MOL0     C15168   9.385   3.477   8.079  0.0993  0.0503  0.0599
  854MOL0     C15169   9.272   3.383   8.094  0.1941  0.2477 -0.8786
  854MOL0     C15170   9.161   3.410   7.992  0.0159  0.1499  0.4939
  854MOL0     C15171   9.037   3.306   7.990 -1.1479 -0.1863 -0.1266
  854MOL0     N15172   8.926   3.342   7.900  0.5964 -0.5106 -0.6566
  854MOL0     C15173   8.912   3.296   7.772  0.1364  0.4118 -0.5120
  854MOL0     C15174   8.794   3.343   7.730 -0.2601 -0.1323 -0.4300
  854MOL0     C15175   8.735   3.306   7.598 -0.6806  0.3154 -0.6162
  854MOL0     C15176   8.593   3.257   7.625  0.3122 -0.5884  0.4050
  854MOL0     C15177   8.523   3.240   7.489 -0.0974 -0.6892 -0.3744
  854MOL0     C15178   8.370   3.248   7.494 -0.4355 -0.0484  0.7099
  854MOL0     O15179   8.341   3.245   7.360 -0.7491  0.0309  0.0787
  854MOL0     C15180   8.217   3.281   7.327  0.7547 -0.3072 -0.4684
  854MOL0     C15181   8.198   3.283   7.196 -0.8580  1.1226  0.9152
  854MOL0     C15182   8.074   3.299   7.141 -0.6508 -0.5328 -0.2094
  854MOL0     C15183   8.068   3.289   6.988 -0.3868 -0.0197 -0.2171
  854MOL0     C15184   7.964   3.322   7.223 -0.1341  0.2582 -0.5125
  854MOL0     C15185   7.837   3.352   7.161  0.1252  0.0940  0.1409
  854MOL0     O15186   7.747   3.255   7.142 -0.1648 -0.0341 -0.2704
  854MOL0     C15187   7.621   3.275   7.091 -0.5907 -0.6904 -0.3001
  854MOL0     C15188   7.564   3.188   7.002 -0.0153 -0.4192  0.0491
  854MOL0     C15189   7.434   3.207   6.956  0.3772 -0.5473 -0.1754
  854MOL0     C15190   7.350   3.308   6.999  0.4734  0.0188 -0.2483
  854MOL0     O15191   7.228   3.319   6.944  0.3076  0.4453  0.0905
  854MOL0     C15192   7.137   3.425   6.989  0.1330 -0.6747 -0.1329
  854MOL0     C15193   7.054   3.481   6.875 -0.8180 -0.8451  0.6192
  854MOL0     C15194   6.964   3.374   6.805 -0.2189 -0.6697  0.1850
  854MOL0     C15195   6.865   3.456   6.717  0.3610  0.2068  0.6438
  854MOL0     C15196   6.765   3.352   6.654 -0.1318  0.4806 -0.2794
  854MOL0     C15197   6.665   3.402   6.557 -0.7112 -0.5681  0.0078
  854MOL0     C15198   6.618   3.293   6.457  0.1582  0.1342 -0.8254
  854MOL0     C15199   6.504   3.338   6.353 -0.8022 -0.0623  0.7029
  854MOL0    Cl15200   6.359   3.365   6.446  0.0077  0.1366  0.0749
  854MOL0     C15201   7.400   3.397   7.099  0.1350  0.8562  0.8050
  854MOL0     C15202   7.538   3.373   7.146  1.0694 -0.2619 -0.3956
  854MOL0     O15203   7.821   3.473   7.137 -0.1057 -0.3156  0.0093
  854MOL0     C15204   7.981   3.325   7.360  0.2439  0.2706 -0.0531
  854MOL0     C15205   8.107   3.297   7.413  0.5106 -0.8582  0.2184
  854MOL0     N15206   8.736   3.411   7.838 -0.8911 -0.3008  0.2774
  854MOL0     N15207   8.821   3.423   7.927  0.0587 -0.0607  0.6105
  854MOL0     C15208   9.895   3.624   8.579 -0.7275 -0.3241  0.4489
  854MOL0     C15209  10.011   3.665   8.644  0.1298 -0.3328 -0.6909
  854MOL0     C15210  10.467   3.677   8.666  0.7585 -0.3351  0.2816
  854MOL0     C15211  10.521   3.621   8.784  0.9978  0.3583 -0.0407
  854MOL0     C15212  10.644   3.651   8.818  0.0959 -0.4764 -0.1392
  854MOL0     C15213  10.730   3.723   8.734 -0.0371  0.3651  0.0928
  854MOL0     O15214  10.854   3.748   8.789 -0.7145 -0.1222  0.0048
  854MOL0     C15215  10.961   3.729   8.698 -0.5321  0.2270 -0.1416
  854MOL0     C15216  10.997   3.857   8.616 -0.3072  0.4044 -0.0660
  854MOL0     C15217  11.019   3.975   8.705 -0.0557 -0.4611  0.1269
  854MOL0     C15218  11.070   4.097   8.619 -0.4511 -0.2374  0.3305
  854MOL0     C15219  11.086   4.208   8.715 -0.5936  0.7021  0.8035
  854MOL0     C15220  11.120   4.292   8.798  0.2006  0.6378 -0.2554
  854MOL0     C15221  10.683   3.763   8.609  1.0861 -0.0607 -0.8976
  854MOL0     C15222  10.549   3.743   8.576 -1.2002  0.9204 -0.0083
  854MOL0     H15223  10.144   3.370   8.753  3.6972  1.4030 -0.9676
  854MOL0     H15224   9.936   3.286   8.654  2.8123 -0.9816 -1.3383
  854MOL0     H15225   9.858   3.498   8.328 -0.4241 -0.7256  1.3056
  854MOL0     H15226   9.740   3.370   8.313  0.0237 -1.2921  2.0808
  854MOL0     H15227   9.586   3.587   8.408  1.0936  3.4151  0.6194
  854MOL0     H15228   9.707   3.678   8.331 -0.2749 -0.3138 -3.8435
  854MOL0     H15229   9.531   3.656   8.178  0.0809 -0.7739  1.0537
  854MOL0     H15230   9.657   3.548   8.113  1.6993 -1.6171  0.7638
  854MOL0     H15231   9.516   3.366   8.232 -0.6309  0.6911  1.7042
  854MOL0     H15232   9.418   3.497   8.289  1.3647  3.9477 -1.1536
  854MOL0     H15233   9.367   3.582   8.055  0.5398  0.2588  0.5989
  854MOL0     H15234   9.458   3.448   8.002  2.6116  0.1317  2.2530
  854MOL0     H15235   9.310   3.281   8.083  0.5991  0.2658  0.2307
  854MOL0     H15236   9.242   3.387   8.199  0.0028  1.3926 -0.9707
  854MOL0     H15237   9.121   3.511   7.995 -2.0683 -0.6299  0.3592
  854MOL0     H15238   9.207   3.389   7.895  0.5982 -0.5276  0.9002
  854MOL0     H15239   8.995   3.308   8.091 -0.3200  3.7376  0.2862
  854MOL0     H15240   9.081   3.212   7.955 -0.0655 -0.7436  2.5126
  854MOL0     H15241   8.971   3.219   7.723 -0.8239 -0.1692 -0.7898
  854MOL0     H15242   8.740   3.394   7.533  0.8835  0.2824 -0.5668
  854MOL0     H15243   8.799   3.231   7.552 -2.6071 -1.0021 -1.2825
  854MOL0     H15244   8.538   3.331   7.684 -2.3853 -2.1707  0.0329
  854MOL0     H15245   8.606   3.164   7.680  2.3849  0.8076  2.4320
  854MOL0     H15246   8.556   3.146   7.443 -0.8714 -0.2607 -1.8610
  854MOL0     H15247   8.553   3.325   7.427  2.0556 -1.4236 -0.4541
  854MOL0     H15248   8.357   3.344   7.545  3.2934  0.3049  1.2524
  854MOL0     H15249   8.321   3.175   7.559 -2.5986  1.7345  1.1736
  854MOL0     H15250   8.280   3.258   7.129 -0.9924  2.3228  0.2668
  854MOL0     H15251   8.156   3.321   6.932  1.7709 -1.5151  2.0450
  854MOL0     H15252   8.061   3.182   6.968 -0.2500 -1.3285  5.1997
  854MOL0     H15253   7.977   3.339   6.954 -1.6602 -2.3560 -0.4444
  854MOL0     H15254   7.628   3.108   6.966 -0.6230 -0.4514 -1.0023
  854MOL0     H15255   7.396   3.139   6.880 -0.2151 -0.7459  0.2900
  854MOL0     H15256   7.076   3.374   7.065  3.0635 -1.3162  1.9897
  854MOL0     H15257   7.179   3.509   7.045 -0.7641 -1.3763  1.6839
  854MOL0     H15258   6.991   3.560   6.918  0.2159 -0.1720  0.9382
  854MOL0     H15259   7.130   3.513   6.803 -1.7244 -2.1676 -1.0013
  854MOL0     H15260   6.907   3.323   6.883  0.4250 -1.3557  0.2182
  854MOL0     H15261   7.026   3.311   6.740  1.4348  1.3319 -0.2994
  854MOL0     H15262   6.806   3.523   6.780 -0.5320  0.8626 -0.8379
  854MOL0     H15263   6.912   3.501   6.629  0.7761 -1.1924  0.1223
  854MOL0     H15264   6.719   3.309   6.744  2.5324 -1.6501  0.2210
  854MOL0     H15265   6.823   3.278   6.599 -1.4758 -1.4161  0.7287
  854MOL0     H15266   6.585   3.445   6.618  1.6175  1.3970  1.8756
  854MOL0     H15267   6.708   3.480   6.493 -0.1242 -1.3388 -0.5595
  854MOL0     H15268   6.599   3.198   6.509 -3.0851  0.4386 -1.2534
  854MOL0     H15269   6.709   3.279   6.398 -0.0822 -0.1511 -1.1391
  854MOL0     H15270   6.496   3.258   6.278 -1.0987 -1.1438  1.8548
  854MOL0     H15271   6.521   3.434   6.304 -1.0709 -1.1540 -1.6870
  854MOL0     H15272   7.344   3.482   7.137 -2.6190 -0.0209 -1.0439
  854MOL0     H15273   7.574   3.444   7.220  0.2392  0.4501 -0.6619
  854MOL0     H15274   7.895   3.333   7.426 -1.1763 -1.5284 -1.5921
  854MOL0     H15275   8.114   3.304   7.521 -1.6222  1.3998  0.2788
  854MOL0     H15276   9.829   3.696   8.532  1.4825  1.3212 -0.2867
  854MOL0     H15277  10.034   3.771   8.652 -0.4593 -0.3502  2.5431
  854MOL0     H15278  10.459   3.561   8.851 -1.6661 -0.0204 -2.6294
  854MOL0     H15279  10.680   3.616   8.915 -2.4563  0.2990  1.1974
  854MOL0     H15280  11.047   3.695   8.758 -1.7583 -1.2284  0.8780
  854MOL0     H15281  10.946   3.654   8.620 -2.0166 -0.1034  0.4398
  854MOL0     H15282  10.942   3.881   8.525  0.0136 -0.0787 -0.3906
  854MOL0     H15283  11.095   3.839   8.571 -1.0013  1.7346 -2.2521
  854MOL0     H15284  11.088   3.962   8.789  0.1751 -2.3652 -0.3294
  854MOL0     H15285  10.919   3.998   8.744  0.1319  0.5305  0.0414
  854MOL0     H15286  10.993   4.129   8.549 -1.0881 -0.8915  0.7248
  854MOL0     H15287  11.159   4.089   8.555 -0.1798  2.5016  0.2051
  854MOL0     H15288  11.132   4.362   8.878 -0.8309 -2.8897  3.3006
  854MOL0     H15289  10.749   3.828   8.553 -1.2413  2.4164 -0.9726
  854MOL0     H15290  10.525   3.784   8.478  0.9698  0.3227 -0.8317
  855MOL0     O15291   1.328   1.937   5.602 -0.0832  0.1931 -0.1492
  855MOL0     C15292   1.397   2.003   5.522  0.5345 -0.2212  0.4831
  855MOL0     O15293   1.363   2.121   5.466 -0.3481  0.2986  0.5303
  855MOL0     C15294   1.234   2.163   5.466 -0.6764 -0.6690  0.1910
  855MOL0     C15295   1.202   2.286   5.531  0.1796 -0.1327  0.4450
  855MOL0     C15296   1.070   2.332   5.537  0.9151 -0.6115  0.5705
  855MOL0     C15297   0.964   2.256   5.473  0.4483 -0.6944 -0.0947
  855MOL0     O15298   0.840   2.313   5.482  1.1207  0.0299 -0.0056
  855MOL0     C15299   0.731   2.259   5.404 -0.3255 -0.3439 -0.1729
  855MOL0     C15300   0.673   2.143   5.500  0.4626 -0.6438  0.3930
  855MOL0     C15301   0.552   2.081   5.434 -0.3468  0.2009 -0.2075
  855MOL0     C15302   0.519   1.949   5.498 -1.2912 -0.5182  0.3404
  855MOL0     C15303   0.380   1.896   5.471  0.8507  0.6511 -0.0419
  855MOL0     C15304   0.358   1.871   5.322 -0.6395 -0.4044 -0.0603
  855MOL0     C15305   0.219   1.803   5.301 -0.7717 -0.3683 -0.0445
  855MOL0     C15306   0.092   1.874   5.345  0.5528  0.1916 -0.6014
  855MOL0     N15307  -0.034   1.817   5.301 -0.5259 -0.4020  0.5666
  855MOL0     C15308  -0.114   1.894   5.222  0.8906  0.9452  0.7084
  855MOL0     C15309  -0.219   1.811   5.193 -0.6394 -0.6608  1.1449
  855MOL0     C15310  -0.339   1.847   5.102 -0.1462  0.1149 -0.0708
  855MOL0     C15311  -0.301   1.860   4.956 -0.6927 -0.1720  0.3222
  855MOL0     C15312  -0.409   1.938   4.882 -0.0973  0.1589  0.4310
  855MOL0     C15313  -0.538   1.865   4.852 -0.0980 -0.6516  0.1537
  855MOL0     O15314  -0.637   1.948   4.800 -0.0041  0.3091 -0.4827
  855MOL0     C15315  -0.760   1.892   4.751 -0.4262 -0.0500  0.3550
  855MOL0     C15316  -0.793   1.754   4.766 -0.3230  0.1310 -0.3596
  855MOL0     C15317  -0.905   1.699   4.708  0.3364 -1.2457 -1.0779
  855MOL0     C15318  -0.945   1.554   4.733  0.3515 -0.4849 -0.0343
  855MOL0     C15319  -0.986   1.780   4.623  0.2441 -0.2203 -0.4450
  855MOL0     C15320  -1.108   1.741   4.545  0.5514  0.2001 -0.5033
  855MOL0     O15321  -1.200   1.841   4.515 -0.7135 -0.1718 -0.3389
  855MOL0     C15322  -1.310   1.839   4.435  0.9320  0.7225  0.3919
  855MOL0     C15323  -1.352   1.727   4.355  0.1141  0.5602 -0.4865
  855MOL0     C15324  -1.475   1.729   4.284  0.0231  0.0160  0.7325
  855MOL0     C15325  -1.566   1.841   4.288 -0.8503  0.1302 -0.0422
  855MOL0     O15326  -1.681   1.845   4.209 -0.4191  0.3724 -0.2525
  855MOL0     C15327  -1.701   1.743   4.107 -0.4271 -0.5219  0.3932
  855MOL0     C15328  -1.813   1.794   4.016  0.4766 -0.1048  0.8159
  855MOL0     C15329  -1.949   1.743   4.062 -0.6534  0.3376  0.1731
  855MOL0     C15330  -2.046   1.757   3.938 -0.0425  0.1091  0.8340
  855MOL0     C15331  -2.189   1.717   3.969  1.3909  0.1124  0.3316
  855MOL0     C15332  -2.285   1.722   3.843 -0.7511 -0.2463 -0.3489
  855MOL0     C15333  -2.260   1.609   3.749  0.0769  0.1860  0.8654
  855MOL0     C15334  -2.343   1.633   3.622  0.2284 -1.1206  0.3666
  855MOL0    Cl15335  -2.331   1.489   3.513 -0.3963 -0.1631 -0.5669
  855MOL0     C15336  -1.524   1.951   4.367  0.9913  0.6911  0.5293
  855MOL0     C15337  -1.403   1.951   4.438  0.2493  0.7366 -0.2106
  855MOL0     O15338  -1.110   1.623   4.517  0.0500 -0.0472  0.9907
  855MOL0     C15339  -0.949   1.913   4.611  1.4547 -0.0773  0.1538
  855MOL0     C15340  -0.846   1.969   4.682  0.2751 -0.3639  0.2713
  855MOL0     N15341  -0.205   1.683   5.250  0.4498  0.5157  0.4410
  855MOL0     N15342  -0.097   1.691   5.328  0.2667 -0.3895  0.1403
  855MOL0     C15343   0.994   2.143   5.416  0.7252  0.6108 -0.0209
  855MOL0     C15344   1.122   2.097   5.408  0.1820  0.6639 -0.3905
  855MOL0     C15345   1.531   1.962   5.488 -0.5836  0.5573 -0.2070
  855MOL0     C15346   1.578   1.834   5.534 -1.1833 -0.2427 -0.0531
  855MOL0     C15347   1.698   1.789   5.488 -1.1067 -0.6714 -0.4609
  855MOL0     C15348   1.783   1.871   5.407  0.4163 -0.4918  0.2149
  855MOL0     O15349   1.909   1.834   5.368  0.0487  0.6599  0.7200
  855MOL0     C15350   2.009   1.808   5.461  0.2115  0.2838 -0.3188
  855MOL0     C15351   2.013   1.899   5.592 -0.7833  0.1375  0.1646
  855MOL0     C15352   2.058   2.043   5.549 -0.0375  0.3407 -0.2369
  855MOL0     C15353   2.175   2.064   5.462 -0.5569  0.4138 -1.1665
  855MOL0     C15354   2.299   2.014   5.517  0.1233  0.6596 -0.5067
  855MOL0     C15355   2.393   1.965   5.570  0.0758 -0.6133 -0.9816
  855MOL0     C15356   1.738   1.998   5.366 -0.0817 -0.3277  0.0442
  855MOL0     C15357   1.616   2.038   5.402  1.2278 -1.1759  0.2018
  855MOL0     H15358   1.281   2.338   5.583 -0.3353  0.4521  0.6552
  855MOL0     H15359   1.048   2.431   5.577 -0.5788 -0.4681 -0.5486
  855MOL0     H15360   0.642   2.322   5.398 -0.6520 -0.8776 -1.2226
  855MOL0     H15361   0.748   2.234   5.299 -2.0154 -0.2630 -0.4901
  855MOL0     H15362   0.747   2.063   5.506  0.3573 -0.8084 -0.3342
  855MOL0     H15363   0.641   2.179   5.598 -2.0272 -0.4089 -0.4429
  855MOL0     H15364   0.466   2.149   5.444 -0.8712 -0.7201  2.0943
  855MOL0     H15365   0.571   2.055   5.330 -1.1306 -1.2742  0.0022
  855MOL0     H15366   0.594   1.884   5.452  0.0563  2.7703 -2.5526
  855MOL0     H15367   0.546   1.963   5.604  0.3815  0.6828 -0.2028
  855MOL0     H15368   0.365   1.803   5.527  2.9035 -0.2427 -0.8813
  855MOL0     H15369   0.306   1.964   5.515 -0.7247 -1.1671  0.2518
  855MOL0     H15370   0.364   1.970   5.275 -2.4108  0.8996  2.2832
  855MOL0     H15371   0.431   1.799   5.284  0.0804  0.5397 -0.5065
  855MOL0     H15372   0.217   1.778   5.194 -1.1703  2.7968 -0.8673
  855MOL0     H15373   0.222   1.701   5.341  0.3681 -1.5028 -2.7347
  855MOL0     H15374   0.104   1.976   5.310  0.5704  0.4223  0.0618
  855MOL0     H15375   0.069   1.875   5.452 -4.0929  1.0498 -1.3949
  855MOL0     H15376  -0.091   1.996   5.193  2.1744  0.1196 -1.3892
  855MOL0     H15377  -0.415   1.773   5.128  0.8339 -0.9510 -0.1658
  855MOL0     H15378  -0.385   1.933   5.152 -2.1379 -1.4382  0.9235
  855MOL0     H15379  -0.284   1.762   4.911 -0.4907  0.4857 -1.0991
  855MOL0     H15380  -0.210   1.921   4.962 -0.1310 -1.0439  1.1656
  855MOL0     H15381  -0.367   1.966   4.785  0.5180  1.6718  1.1133
  855MOL0     H15382  -0.431   2.031   4.934  1.2291  0.3923  0.6145
  855MOL0     H15383  -0.578   1.820   4.944  1.4364 -5.5457 -1.2611
  855MOL0     H15384  -0.514   1.789   4.777 -0.7692 -2.2340  1.4661
  855MOL0     H15385  -0.728   1.689   4.824 -1.1342 -0.8220 -0.4975
  855MOL0     H15386  -0.925   1.500   4.639  1.0977  1.3382 -0.9744
  855MOL0     H15387  -0.884   1.513   4.814  1.4386 -0.3757 -0.7676
  855MOL0     H15388  -1.053   1.553   4.750  0.0448  2.9728 -1.1068
  855MOL0     H15389  -1.289   1.641   4.335 -0.3443  0.3768 -1.1716
  855MOL0     H15390  -1.501   1.643   4.223 -0.4045  0.5460  0.1462
  855MOL0     H15391  -1.607   1.735   4.051 -0.7244  1.2600 -0.4562
  855MOL0     H15392  -1.723   1.643   4.145 -0.4294 -1.3485 -1.6547
  855MOL0     H15393  -1.810   1.903   4.002  1.5579 -0.2750 -0.4426
  855MOL0     H15394  -1.805   1.763   3.911  1.9038 -1.8275  1.3968
  855MOL0     H15395  -1.983   1.808   4.144 -1.1359  2.1186 -1.3788
  855MOL0     H15396  -1.941   1.641   4.101  1.2098  1.0407  1.8388
  855MOL0     H15397  -2.039   1.859   3.901  1.0418  0.2086  1.2632
  855MOL0     H15398  -2.012   1.699   3.851 -0.5978  1.8742 -0.6089
  855MOL0     H15399  -2.227   1.776   4.052 -1.7611 -0.2411 -0.7400
  855MOL0     H15400  -2.195   1.615   4.008  1.0805 -0.1216 -0.3147
  855MOL0     H15401  -2.391   1.717   3.870 -0.4447 -2.1281  0.7207
  855MOL0     H15402  -2.257   1.803   3.775  1.9267 -1.1355 -0.4478
  855MOL0     H15403  -2.279   1.509   3.790  0.8922 -0.2486  0.2261
  855MOL0     H15404  -2.154   1.610   3.722  0.2228  0.4922  1.4291
  855MOL0     H15405  -2.304   1.723   3.572 -0.7560  0.6777  2.6638
  855MOL0     H15406  -2.447   1.659   3.644  0.0657 -0.6337 -0.8805
  855MOL0     H15407  -1.582   2.042   4.355  2.2904  1.4925  0.0146
  855MOL0     H15408  -1.371   2.040   4.491 -1.2869  2.7221 -2.3782
  855MOL0     H15409  -1.001   1.975   4.539  2.1642  0.9880  0.5488
  855MOL0     H15410  -0.830   2.074   4.660 -0.6840 -0.1149  0.7458
  855MOL0     H15411   0.926   2.092   5.348 -0.9149 -3.4747  4.1386
  855MOL0     H15412   1.148   2.011   5.348  0.1127  0.5703 -0.2864
  855MOL0     H15413   1.516   1.765   5.591  0.4329 -2.0741 -0.4291
  855MOL0     H15414   1.727   1.687   5.507 -1.5983 -1.4183 -3.2389
  855MOL0     H15415   2.006   1.702   5.487  3.0465 -0.4386 -2.4820
  855MOL0     H15416   2.106   1.813   5.411  0.8965  1.1207  1.0200
  855MOL0     H15417   2.087   1.865   5.665  0.3774  0.5316 -0.7961
  855MOL0     H15418   1.912   1.901   5.635 -0.9238 -0.3346 -0.1374
  855MOL0     H15419   2.076   2.101   5.640  1.5050  2.4311 -1.7831
  855MOL0     H15420   1.984   2.099   5.493  1.6602  1.6660 -1.2372
  855MOL0     H15421   2.181   2.173   5.460 -2.2305  0.6463  1.7101
  855MOL0     H15422   2.151   2.036   5.359  1.7296  0.2288 -1.7144
  855MOL0     H15423   2.486   1.922   5.601 -0.5559 -2.6905 -1.8060
  855MOL0     H15424   1.796   2.058   5.297 -0.0831  0.9388  1.1127
  855MOL0     H15425   1.579   2.132   5.363 -1.0376 -1.8645  0.5227
  856MOL0     O15426   2.102   6.121   6.643 -0.4940  0.4230 -0.3608
  856MOL0     C15427   2.186   6.190   6.578  0.0539  0.0548 -0.0698
  856MOL0     O15428   2.150   6.304   6.501 -0.2218 -0.4740 -0.4569
  856MOL0     C15429   2.023   6.342   6.513  0.2470  0.3275  0.4952
  856MOL0     C15430   1.936   6.341   6.399  0.3031  0.5206 -0.3816
  856MOL0     C15431   1.804   6.381   6.404 -0.2021 -0.0422 -0.1397
  856MOL0     C15432   1.744   6.429   6.517  0.1615 -0.3264 -0.1989
  856MOL0     O15433   1.611   6.472   6.518 -0.5052 -0.0381 -0.1739
  856MOL0     C15434   1.554   6.507   6.392  0.1111  0.3843 -0.4089
  856MOL0     C15435   1.418   6.583   6.411  0.2239  0.5817  0.5090
  856MOL0     C15436   1.321   6.484   6.484  0.7672 -0.4905 -0.2740
  856MOL0     C15437   1.177   6.537   6.483  0.7896  0.3643  0.6262
  856MOL0     C15438   1.074   6.421   6.517  0.3635  0.2679 -0.1365
  856MOL0     C15439   0.924   6.469   6.513 -0.4992 -0.7203 -0.2859
  856MOL0     C15440   0.816   6.366   6.556  0.3077  0.4591  0.1636
  856MOL0     C15441   0.675   6.400   6.510 -0.0779 -0.2338  0.0242
  856MOL0     N15442   0.583   6.288   6.532  0.2666  0.7681  0.2011
  856MOL0     C15443   0.588   6.155   6.485 -0.1245 -0.0083  0.4070
  856MOL0     C15444   0.480   6.100   6.544  0.2175  0.3049 -0.1244
  856MOL0     C15445   0.426   5.957   6.531 -0.7698  0.4310  0.1151
  856MOL0     C15446   0.316   5.956   6.421  0.8645  1.4923  0.0262
  856MOL0     C15447   0.221   5.838   6.440  0.1681 -0.2336  0.6373
  856MOL0     C15448   0.108   5.848   6.349 -0.9338 -0.5169  0.1329
  856MOL0     O15449   0.024   5.964   6.370 -0.1467 -0.2699  0.0161
  856MOL0     C15450  -0.114   5.940   6.368 -0.0923  0.3307  0.7400
  856MOL0     C15451  -0.197   6.041   6.419  0.4156 -0.2354 -0.0732
  856MOL0     C15452  -0.332   6.046   6.393  0.2322  0.5955 -1.4044
  856MOL0     C15453  -0.399   6.177   6.426  0.2483 -0.3679 -0.2779
  856MOL0     C15454  -0.408   5.931   6.341  0.3351 -1.1198 -0.2531
  856MOL0     C15455  -0.554   5.922   6.320  0.0817 -1.8413 -0.1492
  856MOL0     O15456  -0.601   5.831   6.236 -0.2590  0.0936  0.5711
  856MOL0     C15457  -0.735   5.806   6.223  0.1387  0.1787  0.2274
  856MOL0     C15458  -0.757   5.676   6.167  0.1570 -0.1445 -0.1122
  856MOL0     C15459  -0.889   5.631   6.139  0.1859  0.1478  0.4073
  856MOL0     C15460  -1.002   5.708   6.169  0.3771 -0.2802 -0.1565
  856MOL0     O15461  -1.121   5.657   6.126  0.0840  0.6843 -0.2893
  856MOL0     C15462  -1.237   5.735   6.125  0.5000  0.2955  1.0878
  856MOL0     C15463  -1.333   5.678   6.019  0.2618  0.5699 -0.0659
  856MOL0     C15464  -1.480   5.684   6.050  0.5621  0.6283 -0.6019
  856MOL0     C15465  -1.563   5.624   5.935 -0.2062  0.8108  0.1069
  856MOL0     C15466  -1.711   5.606   5.969  0.7206 -0.3927  0.6283
  856MOL0     C15467  -1.786   5.517   5.866 -0.0317  2.2060 -0.9584
  856MOL0     C15468  -1.941   5.531   5.875 -0.0834 -0.3208  0.1015
  856MOL0     C15469  -2.012   5.420   5.960 -0.7718 -1.4415  0.3793
  856MOL0    Cl15470  -1.957   5.433   6.136 -0.0735  0.0594 -0.0235
  856MOL0     C15471  -0.976   5.830   6.240 -0.0766 -0.2551 -0.2923
  856MOL0     C15472  -0.847   5.882   6.267 -0.3456  0.9542  0.2293
  856MOL0     O15473  -0.619   6.003   6.381 -0.1013  0.6349  0.1254
  856MOL0     C15474  -0.327   5.833   6.294  0.3172  0.9313 -0.2582
  856MOL0     C15475  -0.186   5.836   6.312 -0.4124  0.3664  0.1673
  856MOL0     N15476   0.427   6.192   6.630 -0.0340 -0.0890 -0.4738
  856MOL0     N15477   0.479   6.305   6.617  1.2358 -0.0699 -0.4753
  856MOL0     C15478   1.824   6.433   6.634 -0.1988  0.6248 -1.1100
  856MOL0     C15479   1.962   6.395   6.630  0.0219 -0.0982  0.3375
  856MOL0     C15480   2.329   6.156   6.574 -1.1124 -1.3302 -0.5095
  856MOL0     C15481   2.382   6.093   6.685 -0.5921  0.7275  0.4212
  856MOL0     C15482   2.522   6.075   6.696  0.2810 -0.4587  0.2943
  856MOL0     C15483   2.611   6.122   6.594  0.5564 -0.2505  0.5059
  856MOL0     O15484   2.748   6.109   6.585 -0.8779  0.2751 -0.4771
  856MOL0     C15485   2.807   6.007   6.667 -0.1512  0.3707 -0.3250
  856MOL0     C15486   2.955   5.994   6.661 -0.6985  0.5886 -0.1217
  856MOL0     C15487   3.024   6.129   6.691 -0.2672  0.5685  0.4796
  856MOL0     C15488   3.177   6.124   6.669 -1.0756 -0.0914  0.7098
  856MOL0     C15489   3.228   6.024   6.761 -0.4667 -0.3686 -0.3536
  856MOL0     C15490   3.263   5.961   6.865 -0.2515 -1.2732 -0.7556
  856MOL0     C15491   2.550   6.178   6.480 -0.4158  0.3009 -0.0279
  856MOL0     C15492   2.411   6.210   6.472 -0.7942  0.5035  0.3453
  856MOL0     H15493   1.973   6.304   6.304  0.8726  2.7813 -1.1120
  856MOL0     H15494   1.755   6.352   6.311  0.0434 -3.2437  0.6172
  856MOL0     H15495   1.627   6.564   6.332  3.1611 -3.2509 -0.5399
  856MOL0     H15496   1.527   6.421   6.331 -0.8972  1.2446 -1.2279
  856MOL0     H15497   1.440   6.664   6.481 -1.3171  0.5175  1.0868
  856MOL0     H15498   1.391   6.612   6.309  0.5901  0.2717  0.3179
  856MOL0     H15499   1.342   6.381   6.454  4.5714 -0.1721  0.7993
  856MOL0     H15500   1.357   6.493   6.587  0.6703  2.1239 -0.4002
  856MOL0     H15501   1.155   6.620   6.551  0.7616  1.2058 -0.3914
  856MOL0     H15502   1.149   6.569   6.383 -0.2717 -0.6798  0.5560
  856MOL0     H15503   1.083   6.353   6.431  0.7805 -0.0724  0.1721
  856MOL0     H15504   1.103   6.368   6.608 -0.8283 -2.4402 -1.2330
  856MOL0     H15505   0.927   6.550   6.586  1.5187 -1.1623  0.1790
  856MOL0     H15506   0.898   6.524   6.422 -0.8512  2.1359  1.4368
  856MOL0     H15507   0.845   6.268   6.517  1.2688 -1.1465  4.3550
  856MOL0     H15508   0.829   6.364   6.665 -0.4652 -0.5392  0.2581
  856MOL0     H15509   0.668   6.440   6.408 -0.9448  0.9386  0.5265
  856MOL0     H15510   0.645   6.485   6.571 -0.5963  0.7337 -1.5333
  856MOL0     H15511   0.665   6.121   6.416 -1.1288  2.0873 -1.8719
  856MOL0     H15512   0.506   5.885   6.511 -0.3129  1.1705 -0.7824
  856MOL0     H15513   0.393   5.934   6.633  0.7771  2.4293  1.1473
  856MOL0     H15514   0.360   5.946   6.321  0.8197 -3.8353  0.2471
  856MOL0     H15515   0.262   6.051   6.427 -2.1924 -0.1526  0.8151
  856MOL0     H15516   0.184   5.839   6.543  0.1445 -3.5485  0.7841
  856MOL0     H15517   0.273   5.742   6.435  0.6695 -0.0849  2.3670
  856MOL0     H15518   0.053   5.755   6.367 -1.3315 -0.0026  1.7073
  856MOL0     H15519   0.145   5.838   6.246  0.4276 -0.5633  0.6007
  856MOL0     H15520  -0.158   6.130   6.467  0.0778 -0.4405  0.5992
  856MOL0     H15521  -0.466   6.162   6.512 -0.5994 -1.6550 -1.1269
  856MOL0     H15522  -0.324   6.247   6.464  1.1811 -1.9970  1.0793
  856MOL0     H15523  -0.459   6.202   6.339 -0.7576 -1.6093  0.0147
  856MOL0     H15524  -0.676   5.615   6.130  0.2469 -1.0242  1.4239
  856MOL0     H15525  -0.906   5.533   6.096  2.5801 -1.3786  2.5943
  856MOL0     H15526  -1.286   5.721   6.222  1.4002  2.6190  1.9604
  856MOL0     H15527  -1.225   5.844   6.124 -0.8306  0.4592  0.5123
  856MOL0     H15528  -1.312   5.716   5.919  0.8928 -1.5279 -0.7826
  856MOL0     H15529  -1.327   5.569   6.010 -0.9585  0.4482  0.3854
  856MOL0     H15530  -1.514   5.787   6.066  0.6839  0.3182  1.9582
  856MOL0     H15531  -1.502   5.640   6.147 -1.2459  1.5531 -0.5396
  856MOL0     H15532  -1.538   5.687   5.849 -1.2107 -1.1109 -1.7011
  856MOL0     H15533  -1.525   5.529   5.896 -0.5044  1.0598 -0.8122
  856MOL0     H15534  -1.760   5.704   5.963 -1.5393 -1.5632 -2.1790
  856MOL0     H15535  -1.734   5.576   6.071  0.0941  2.1214  1.3099
  856MOL0     H15536  -1.738   5.529   5.768  0.7124 -3.1927 -1.5334
  856MOL0     H15537  -1.761   5.413   5.890 -0.9090  2.0070 -0.9038
  856MOL0     H15538  -1.983   5.520   5.775 -2.3441  1.1913  0.7997
  856MOL0     H15539  -1.962   5.633   5.907  0.2226  0.5790 -2.3701
  856MOL0     H15540  -1.993   5.320   5.922 -0.5389 -0.6367 -1.7890
  856MOL0     H15541  -2.120   5.435   5.947 -0.7837 -0.8947  1.0483
  856MOL0     H15542  -1.059   5.891   6.272  0.0269 -1.2226  2.0674
  856MOL0     H15543  -0.832   5.982   6.305  1.4325  1.1889 -0.9583
  856MOL0     H15544  -0.361   5.745   6.240 -0.0958  2.9678 -3.5711
  856MOL0     H15545  -0.136   5.747   6.275 -0.9144  0.1891 -0.1008
  856MOL0     H15546   1.784   6.473   6.727 -0.2612  0.5114 -1.0875
  856MOL0     H15547   2.026   6.396   6.718 -0.5435 -3.4179  0.9199
  856MOL0     H15548   2.314   6.064   6.764 -1.1235  1.7654  0.3664
  856MOL0     H15549   2.544   6.019   6.786 -2.7820 -0.0506  1.4317
  856MOL0     H15550   2.781   6.043   6.766  0.0949 -1.0597  0.2754
  856MOL0     H15551   2.759   5.909   6.660 -1.1466  0.8309 -0.0857
  856MOL0     H15552   2.987   5.965   6.560 -3.2404 -2.8874 -0.1173
  856MOL0     H15553   2.979   5.918   6.735 -1.2230 -0.5792 -1.1043
  856MOL0     H15554   3.017   6.164   6.795 -1.9447 -0.7811  0.8625
  856MOL0     H15555   2.987   6.198   6.614  0.4246 -2.9472 -3.3463
  856MOL0     H15556   3.218   6.224   6.681 -1.1502  0.0076  0.1575
  856MOL0     H15557   3.204   6.090   6.569  0.9243 -0.6197  1.3872
  856MOL0     H15558   3.286   5.900   6.951  2.3342 -0.0150 -0.4547
  856MOL0     H15559   2.613   6.211   6.398 -0.8782 -1.9932 -1.3674
  856MOL0     H15560   2.380   6.258   6.379  1.0553  2.2440  0.5451
  857MOL0     O15561   9.362   3.563   3.286  0.2012 -0.6203  0.7148
  857MOL0     C15562   9.424   3.494   3.367  0.5704 -0.1805  0.4739
  857MOL0     O15563   9.369   3.411   3.465  0.2042  0.9079  0.2742
  857MOL0     C15564   9.230   3.403   3.483 -0.1339 -0.1389 -0.0346
  857MOL0     C15565   9.162   3.526   3.510  0.7373  0.8091  0.2082
  857MOL0     C15566   9.025   3.522   3.511  0.3850  0.3480 -0.0012
  857MOL0     C15567   8.949   3.398   3.510  1.1846  0.5603 -0.3162
  857MOL0     O15568   8.810   3.401   3.511 -0.3348  0.2938 -0.6104
  857MOL0     C15569   8.752   3.326   3.618  0.0186  0.3859  0.2707
  857MOL0     C15570   8.617   3.278   3.570  0.7529  0.2106 -0.0883
  857MOL0     C15571   8.512   3.387   3.541 -0.5994  0.5186  0.2138
  857MOL0     C15572   8.373   3.349   3.586 -0.7456 -0.4471 -0.5657
  857MOL0     C15573   8.369   3.354   3.737  0.1406 -0.2962 -0.1029
  857MOL0     C15574   8.225   3.352   3.781  0.8001 -0.4928  0.5488
  857MOL0     C15575   8.204   3.351   3.927  0.1537  0.3550  0.3132
  857MOL0     C15576   8.099   3.437   3.980  0.6338 -0.4485 -0.3486
  857MOL0     N15577   7.964   3.397   3.952  0.2953  0.5229 -0.4197
  857MOL0     C15578   7.884   3.331   4.043 -0.3669  0.4453  0.4260
  857MOL0     C15579   7.760   3.334   3.991 -0.3032 -0.8193 -0.3125
  857MOL0     C15580   7.635   3.282   4.045 -0.4248 -0.0474 -0.0396
  857MOL0     C15581   7.510   3.378   4.051 -0.2249  0.0084 -0.9109
  857MOL0     C15582   7.385   3.303   4.092 -0.1893 -0.5446  0.5097
  857MOL0     C15583   7.262   3.397   4.128  0.3534  0.4706  1.1375
  857MOL0     O15584   7.148   3.305   4.123  0.8574  0.5028  0.2162
  857MOL0     C15585   7.024   3.349   4.160 -0.5416 -0.6239 -0.0047
  857MOL0     C15586   6.988   3.487   4.195  0.2265 -0.5935 -0.4952
  857MOL0     C15587   6.856   3.519   4.240 -0.4603  0.1364  0.7659
  857MOL0     C15588   6.831   3.664   4.249  0.2941  0.5035 -0.6897
  857MOL0     C15589   6.760   3.420   4.250  0.3758  0.2732 -0.6348
  857MOL0     C15590   6.614   3.442   4.276  0.2629  1.1521 -0.0353
  857MOL0     O15591   6.532   3.331   4.248  0.3561  0.5185  0.1016
  857MOL0     C15592   6.408   3.323   4.318 -0.4410 -0.0975  0.0629
  857MOL0     C15593   6.303   3.254   4.261 -0.6565 -0.2906  0.5681
  857MOL0     C15594   6.192   3.218   4.341 -0.7352  0.3450 -0.7519
  857MOL0     C15595   6.178   3.253   4.472  0.3007 -0.5779  0.1612
  857MOL0     O15596   6.075   3.203   4.547 -0.1760  1.3274 -0.3040
  857MOL0     C15597   5.959   3.280   4.576  0.6909 -0.2145  0.5970
  857MOL0     C15598   5.860   3.277   4.452  0.0185 -0.7228 -0.1827
  857MOL0     C15599   5.722   3.352   4.473 -0.1838  0.7997 -0.9548
  857MOL0     C15600   5.633   3.311   4.356  0.2117 -0.2031 -0.3020
  857MOL0     C15601   5.495   3.368   4.373 -0.7597 -0.6340  0.7252
  857MOL0     C15602   5.422   3.322   4.501 -0.8120 -0.4366 -0.8492
  857MOL0     C15603   5.272   3.359   4.500  1.1221 -0.0752  0.3857
  857MOL0     C15604   5.206   3.277   4.598 -0.1448  0.0328 -0.9943
  857MOL0    Cl15605   5.037   3.332   4.595  0.1514 -0.5665  0.1247
  857MOL0     C15606   6.284   3.323   4.532 -0.2982 -0.1833  0.4907
  857MOL0     C15607   6.399   3.357   4.460 -0.0078 -0.3390  0.9550
  857MOL0     O15608   6.575   3.548   4.325 -1.7553  0.0965  0.0652
  857MOL0     C15609   6.796   3.289   4.220 -0.1347  0.4367 -0.3183
  857MOL0     C15610   6.929   3.258   4.186  0.5400  0.4824 -0.3921
  857MOL0     N15611   7.771   3.413   3.878  0.7553  0.8104  0.5052
  857MOL0     N15612   7.893   3.440   3.846  0.0750 -0.3703  0.6525
  857MOL0     C15613   9.022   3.278   3.482  0.9321  0.2000  0.8594
  857MOL0     C15614   9.164   3.276   3.471 -0.0541 -0.3350  0.5137
  857MOL0     C15615   9.572   3.501   3.359 -0.2391 -0.1664  0.1536
  857MOL0     C15616   9.646   3.484   3.477  0.3768  0.3399 -0.2161
  857MOL0     C15617   9.792   3.472   3.470  0.7100 -0.1823 -0.3540
  857MOL0     C15618   9.849   3.508   3.344 -0.7225 -0.0691 -0.2325
  857MOL0     O15619   9.985   3.530   3.338  0.1097 -0.7741  0.0757
  857MOL0     C15620  10.016   3.668   3.353 -0.0867  1.2108  0.5396
  857MOL0     C15621  10.160   3.705   3.314 -0.2316 -0.4686 -0.1810
  857MOL0     C15622  10.188   3.683   3.167  0.4445  0.2570 -0.6496
  857MOL0     C15623  10.300   3.760   3.105  0.1559  0.2109  0.4464
  857MOL0     C15624  10.419   3.717   3.178  0.5270  0.1149 -0.2206
  857MOL0     C15625  10.524   3.683   3.233 -0.1825 -0.4544  0.6793
  857MOL0     C15626   9.775   3.528   3.230  0.2270  0.2068 -0.2991
  857MOL0     C15627   9.634   3.523   3.232 -0.5124 -0.7896  0.5368
  857MOL0     H15628   9.212   3.621   3.518  3.3290 -0.4973  0.4726
  857MOL0     H15629   8.964   3.608   3.534  2.8442  1.4152  3.3713
  857MOL0     H15630   8.812   3.241   3.651 -0.4115 -0.5677 -1.3112
  857MOL0     H15631   8.739   3.390   3.706 -0.1370  1.8016 -0.7387
  857MOL0     H15632   8.617   3.227   3.473  0.6054  0.9860 -0.5036
  857MOL0     H15633   8.589   3.202   3.644  3.3593 -0.7221  0.0420
  857MOL0     H15634   8.549   3.473   3.597  0.1281  1.8820 -2.2245
  857MOL0     H15635   8.508   3.407   3.433  1.2440  1.6842  0.3217
  857MOL0     H15636   8.294   3.414   3.547  0.4915  0.9016 -0.8925
  857MOL0     H15637   8.349   3.248   3.549  1.9944 -1.9920  1.5433
  857MOL0     H15638   8.420   3.267   3.779  1.5735  1.3001  1.6229
  857MOL0     H15639   8.411   3.449   3.770 -1.0077  0.0437  0.4499
  857MOL0     H15640   8.179   3.441   3.737 -0.6037 -1.3577  0.2022
  857MOL0     H15641   8.172   3.272   3.727 -0.6857  1.5409 -1.1798
  857MOL0     H15642   8.189   3.247   3.958 -1.1615  0.3967 -0.1114
  857MOL0     H15643   8.301   3.388   3.962 -0.1614  2.8929 -1.2927
  857MOL0     H15644   8.112   3.541   3.948 -0.5874 -0.3391 -0.5387
  857MOL0     H15645   8.110   3.445   4.088  2.0556 -3.6371 -0.1435
  857MOL0     H15646   7.911   3.279   4.135  1.4640  1.9983  0.8525
  857MOL0     H15647   7.604   3.198   3.983  2.3310 -1.7522  0.7031
  857MOL0     H15648   7.659   3.239   4.143  1.3508 -1.0447 -0.8605
  857MOL0     H15649   7.491   3.415   3.950  1.7447  2.5753 -0.4781
  857MOL0     H15650   7.535   3.469   4.108  0.6683 -2.0395  2.2468
  857MOL0     H15651   7.416   3.245   4.179  2.3372 -3.1109 -1.9282
  857MOL0     H15652   7.351   3.240   4.010 -1.6108  2.5430 -1.4769
  857MOL0     H15653   7.253   3.479   4.057 -0.5238 -0.3185  0.2973
  857MOL0     H15654   7.276   3.426   4.232  3.1453 -1.5163  1.4285
  857MOL0     H15655   7.061   3.565   4.173  0.7295 -0.2906  1.8968
  857MOL0     H15656   6.781   3.685   4.344  3.4073 -0.1762  1.2531
  857MOL0     H15657   6.920   3.729   4.249 -1.3868  2.9598 -0.3240
  857MOL0     H15658   6.770   3.687   4.161  2.3851 -0.2148 -2.4061
  857MOL0     H15659   6.301   3.225   4.157 -0.2830  1.2018  0.1248
  857MOL0     H15660   6.118   3.146   4.310  0.4387 -0.3475 -2.0562
  857MOL0     H15661   5.899   3.234   4.655 -1.4882  0.7965 -0.3691
  857MOL0     H15662   5.987   3.381   4.608 -0.7902  1.1086 -1.8944
  857MOL0     H15663   5.905   3.322   4.363 -1.3198  1.6149  0.2411
  857MOL0     H15664   5.840   3.176   4.415 -0.0109  0.2692 -3.0711
  857MOL0     H15665   5.742   3.459   4.471 -0.3650  0.8288 -1.8397
  857MOL0     H15666   5.678   3.328   4.570  1.3727  1.5017 -0.0486
  857MOL0     H15667   5.681   3.359   4.270 -1.3792  3.5640  0.7129
  857MOL0     H15668   5.632   3.204   4.334  0.6027  0.0903 -1.8949
  857MOL0     H15669   5.435   3.345   4.285  1.0523  2.5477 -1.5518
  857MOL0     H15670   5.509   3.477   4.370 -0.5484 -0.6887 -0.7515
  857MOL0     H15671   5.443   3.215   4.494  0.0333 -0.4257  0.9390
  857MOL0     H15672   5.465   3.367   4.591  0.7776  0.8145 -2.1712
  857MOL0     H15673   5.217   3.335   4.408 -1.7996 -0.7430  2.1717
  857MOL0     H15674   5.245   3.463   4.521  1.5970  0.6862 -2.3696
  857MOL0     H15675   5.258   3.300   4.692  0.0609 -0.1668 -1.0583
  857MOL0     H15676   5.229   3.173   4.574  1.0387  0.2871 -1.0136
  857MOL0     H15677   6.272   3.328   4.639  3.4399 -0.3746  1.0329
  857MOL0     H15678   6.481   3.409   4.509 -0.3474 -1.4516  2.8403
  857MOL0     H15679   6.725   3.210   4.240  2.1036 -1.5257  0.3661
  857MOL0     H15680   6.941   3.151   4.174 -0.9914  0.0831  1.1442
  857MOL0     H15681   8.979   3.180   3.462 -0.5814  1.2007 -1.1458
  857MOL0     H15682   9.229   3.194   3.445  1.9854  1.3364  0.1125
  857MOL0     H15683   9.591   3.463   3.568  1.3592 -2.0408 -0.1086
  857MOL0     H15684   9.854   3.439   3.552 -0.8887  1.7213  1.7395
  857MOL0     H15685   9.944   3.727   3.296 -0.2907  0.8619  0.4346
  857MOL0     H15686   9.999   3.693   3.458  1.8594 -3.7641  2.3302
  857MOL0     H15687  10.238   3.651   3.369  0.2386  1.3502  1.0308
  857MOL0     H15688  10.175   3.809   3.345  0.2701 -0.8413  0.8770
  857MOL0     H15689  10.111   3.732   3.106  2.0524  2.4445 -1.0625
  857MOL0     H15690  10.196   3.576   3.149 -1.4391 -0.2308  1.0745
  857MOL0     H15691  10.285   3.868   3.118 -0.8704  0.0526  0.6568
  857MOL0     H15692  10.298   3.727   3.001 -1.9499 -0.1395  0.5570
  857MOL0     H15693  10.617   3.636   3.256 -0.9815 -2.1336  0.5872
  857MOL0     H15694   9.836   3.552   3.144  0.8788  1.3306  0.4537
  857MOL0     H15695   9.577   3.536   3.141  2.7720 -0.4180 -1.6311
  858MOL0     O15696   9.687   8.844   3.317  0.2449 -0.7656  0.2974
  858MOL0     C15697   9.715   8.755   3.237 -0.3174 -0.1518  0.7323
  858MOL0     O15698   9.759   8.788   3.115  0.2367 -0.4194 -0.3242
  858MOL0     C15699   9.771   8.914   3.077 -0.0017  0.1797  0.1186
  858MOL0     C15700   9.688   8.970   2.968  0.8520  0.2766 -0.3769
  858MOL0     C15701   9.712   9.105   2.925  0.6749 -0.3890  0.0156
  858MOL0     C15702   9.807   9.187   2.989  0.4994  0.6595 -0.5250
  858MOL0     O15703   9.843   9.312   2.969  0.4941  0.0554  0.8948
  858MOL0     C15704   9.760   9.399   2.884 -0.7041 -0.3979  0.3111
  858MOL0     C15705   9.622   9.421   2.949 -0.5475 -1.1592 -0.7168
  858MOL0     C15706   9.508   9.446   2.852 -1.1175  0.2039  0.2991
  858MOL0     C15707   9.538   9.572   2.763  0.3888  0.3913  0.2218
  858MOL0     C15708   9.428   9.584   2.647  0.5576 -0.3989 -0.8335
  858MOL0     C15709   9.283   9.603   2.708 -0.4900  0.5430 -0.7824
  858MOL0     C15710   9.172   9.606   2.598 -0.0573  0.0135 -0.5203
  858MOL0     C15711   9.175   9.483   2.517  0.3885  0.2480  0.2214
  858MOL0     N15712   9.050   9.459   2.437  0.2684 -0.0785 -0.5003
  858MOL0     C15713   8.960   9.556   2.406 -0.1319 -0.4314 -0.1315
  858MOL0     C15714   8.862   9.497   2.334 -0.3922  0.3293  0.1373
  858MOL0     C15715   8.758   9.574   2.251  0.7590  0.3582 -0.0120
  858MOL0     C15716   8.670   9.667   2.321  0.6245  0.4489  0.0205
  858MOL0     C15717   8.565   9.598   2.409 -0.2892  0.5671 -0.4816
  858MOL0     C15718   8.596   9.470   2.488  0.3647 -0.0378 -0.4129
  858MOL0     O15719   8.478   9.420   2.571  0.1808 -0.6441 -0.4726
  858MOL0     C15720   8.470   9.480   2.692  0.7206 -0.3771 -0.4045
  858MOL0     C15721   8.549   9.443   2.797  1.2942 -0.2555  0.3563
  858MOL0     C15722   8.549   9.518   2.922  0.7668  0.1695  0.2065
  858MOL0     C15723   8.626   9.449   3.024 -0.3299 -0.0971  0.7211
  858MOL0     C15724   8.470   9.634   2.940  0.4840  0.5505  1.0940
  858MOL0     C15725   8.476   9.731   3.057  0.1222 -0.0070 -0.2223
  858MOL0     O15726   8.583   9.712   3.141  0.2496  0.8702 -0.7703
  858MOL0     C15727   8.604   9.813   3.232 -0.3650  0.2894 -0.0292
  858MOL0     C15728   8.563   9.783   3.369 -0.1102  0.0690 -0.2813
  858MOL0     C15729   8.583   9.881   3.474 -0.4915  0.2647  0.0580
  858MOL0     C15730   8.639  10.008   3.441 -0.5882  0.1254  0.2988
  858MOL0     O15731   8.674  10.110   3.530 -0.7389 -0.5867  0.3069
  858MOL0     C15732   8.634  10.103   3.663 -0.8494  0.1658  0.6702
  858MOL0     C15733   8.497  10.172   3.681  0.4266 -0.3564  0.3171
  858MOL0     C15734   8.377  10.131   3.591  0.0072 -0.3752  0.6053
  858MOL0     C15735   8.247  10.181   3.649  0.9913  0.3501 -0.7909
  858MOL0     C15736   8.134  10.189   3.541  0.2146  0.3002 -0.5677
  858MOL0     C15737   7.990  10.190   3.598 -0.8315 -0.2372 -0.2417
  858MOL0     C15738   7.879  10.181   3.491 -0.2691 -0.4922  0.4804
  858MOL0     C15739   7.858  10.030   3.465  0.3893 -0.7504  0.8078
  858MOL0    Cl15740   7.708  10.026   3.370 -0.2240  0.0335  0.1786
  858MOL0     C15741   8.679  10.034   3.313  0.3826 -0.3841  0.5815
  858MOL0     C15742   8.656   9.941   3.210  1.1272 -0.4181 -0.6590
  858MOL0     O15743   8.387   9.818   3.060  0.4077 -0.4606  0.3249
  858MOL0     C15744   8.385   9.664   2.835  1.1635 -0.2963  0.4270
  858MOL0     C15745   8.377   9.583   2.716  0.0709 -0.6777 -0.3062
  858MOL0     N15746   8.889   9.363   2.342 -0.2888  0.4462 -0.7450
  858MOL0     N15747   9.005   9.336   2.397 -0.1002 -0.7046  0.4158
  858MOL0     C15748   9.887   9.135   3.091 -0.0867  0.2697 -0.6501
  858MOL0     C15749   9.873   8.999   3.124  0.2060  0.7210  0.1345
  858MOL0     C15750   9.706   8.608   3.277 -0.1081 -0.0742 -0.1325
  858MOL0     C15751   9.767   8.514   3.194  0.3120 -0.1508 -0.1048
  858MOL0     C15752   9.745   8.378   3.224  0.0079 -0.2154 -0.2561
  858MOL0     C15753   9.680   8.342   3.339 -0.4663  0.5368 -0.2538
  858MOL0     O15754   9.662   8.211   3.376  0.7527 -0.2359  0.1633
  858MOL0     C15755   9.727   8.108   3.300  1.0922  0.4801  1.2879
  858MOL0     C15756   9.878   8.096   3.325  0.2564 -0.0495 -0.1207
  858MOL0     C15757   9.951   7.969   3.271 -0.1063  0.9871  0.8100
  858MOL0     C15758   9.957   7.855   3.372  0.3148  0.6319  0.4891
  858MOL0     C15759  10.024   7.749   3.296 -0.6756  0.5803 -0.1490
  858MOL0     C15760  10.082   7.660   3.232  0.1080 -0.7646 -1.9640
  858MOL0     C15761   9.636   8.440   3.425  1.2328  1.0966 -1.0428
  858MOL0     C15762   9.641   8.570   3.397  0.4053 -0.1902  0.6722
  858MOL0     H15763   9.608   8.902   2.942  1.2025  0.3692 -1.7349
  858MOL0     H15764   9.652   9.130   2.838  0.2806 -2.2640 -0.3000
  858MOL0     H15765   9.819   9.490   2.872  1.8411 -1.9761 -0.0729
  858MOL0     H15766   9.750   9.354   2.785 -0.7589  2.6996 -1.2053
  858MOL0     H15767   9.592   9.341   3.017 -0.2462 -0.1716  0.6245
  858MOL0     H15768   9.628   9.509   3.014  1.8196 -0.2038 -2.0892
  858MOL0     H15769   9.507   9.365   2.779 -1.4090  0.4397  0.0346
  858MOL0     H15770   9.411   9.441   2.903 -1.3568 -2.6440 -0.2693
  858MOL0     H15771   9.532   9.662   2.826 -0.0938  0.5128  0.0093
  858MOL0     H15772   9.640   9.561   2.725 -0.1698 -0.8571 -1.0098
  858MOL0     H15773   9.455   9.670   2.586  0.8817  0.1795  0.0956
  858MOL0     H15774   9.429   9.493   2.587 -3.0565  0.8254 -3.0543
  858MOL0     H15775   9.261   9.517   2.772  2.3839 -1.0275 -1.7080
  858MOL0     H15776   9.271   9.690   2.773  0.4328  1.4846 -1.8054
  858MOL0     H15777   9.075   9.605   2.648  0.9089 -2.4909  1.5151
  858MOL0     H15778   9.178   9.693   2.532  2.2034  0.3636  0.0638
  858MOL0     H15779   9.215   9.398   2.573  2.1474 -0.7440 -2.3585
  858MOL0     H15780   9.254   9.496   2.443  0.9073  2.2171  1.0663
  858MOL0     H15781   8.964   9.660   2.437 -1.8067 -0.0880 -0.9209
  858MOL0     H15782   8.803   9.633   2.171  0.8925 -0.3320 -0.4538
  858MOL0     H15783   8.706   9.503   2.186 -2.3497  2.7980 -0.4549
  858MOL0     H15784   8.619   9.741   2.259  1.6154 -0.1877 -1.6163
  858MOL0     H15785   8.732   9.724   2.391  0.2383  0.3170  0.4737
  858MOL0     H15786   8.484   9.570   2.341 -1.0413  0.2534  0.5270
  858MOL0     H15787   8.529   9.678   2.474 -1.5171  1.5349 -2.2606
  858MOL0     H15788   8.688   9.480   2.545  0.9403  1.5454 -1.5662
  858MOL0     H15789   8.603   9.397   2.407 -0.1923  1.1503 -1.5613
  858MOL0     H15790   8.603   9.349   2.787  2.3283  0.3666 -0.0701
  858MOL0     H15791   8.639   9.342   3.005  1.3753  0.2117 -0.0695
  858MOL0     H15792   8.725   9.494   3.039 -0.2877 -0.3238  1.1370
  858MOL0     H15793   8.572   9.445   3.119 -1.4849 -2.1778  0.0311
  858MOL0     H15794   8.512   9.690   3.391  0.1685  0.2403  1.2001
  858MOL0     H15795   8.556   9.856   3.576  0.5242  1.0429  0.5477
  858MOL0     H15796   8.629  10.000   3.701 -0.5119  0.1399  0.6515
  858MOL0     H15797   8.717  10.145   3.721  0.5309 -0.9031 -0.4481
  858MOL0     H15798   8.475  10.143   3.784 -0.6198  2.8288  1.1145
  858MOL0     H15799   8.499  10.281   3.681  2.1590 -0.3573 -1.1476
  858MOL0     H15800   8.362  10.023   3.581 -0.9158 -0.2180  0.2044
  858MOL0     H15801   8.393  10.166   3.488 -1.2156 -1.9572 -0.1770
  858MOL0     H15802   8.214  10.111   3.726  4.0624 -0.5656 -0.1664
  858MOL0     H15803   8.264  10.284   3.680 -1.4407  1.0968 -1.7246
  858MOL0     H15804   8.154  10.093   3.492  1.9741  0.2415  0.1710
  858MOL0     H15805   8.153  10.280   3.483 -2.6260  1.6284  0.4396
  858MOL0     H15806   7.976  10.107   3.668  1.5696  0.9033  1.7533
  858MOL0     H15807   7.988  10.279   3.662  0.1037 -0.6531  0.4036
  858MOL0     H15808   7.889  10.250   3.407  3.3703 -1.2599  0.1048
  858MOL0     H15809   7.792  10.225   3.542  1.0816  2.2764  0.5568
  858MOL0     H15810   7.833   9.979   3.558 -2.0152  1.6436  1.5972
  858MOL0     H15811   7.934   9.977   3.407 -0.4764  0.6470 -1.7742
  858MOL0     H15812   8.726  10.129   3.294  0.7519 -0.3805  1.4575
  858MOL0     H15813   8.677   9.958   3.105  2.6467 -2.2933 -0.7087
  858MOL0     H15814   8.326   9.754   2.851  0.2551 -0.9700  0.9807
  858MOL0     H15815   8.316   9.602   2.629 -0.4772 -1.7701 -0.1739
  858MOL0     H15816   9.964   9.200   3.130  0.4626 -1.1881  0.7864
  858MOL0     H15817   9.941   8.973   3.205  2.3782  1.9070 -1.2341
  858MOL0     H15818   9.815   8.532   3.099  0.6404  0.0053  0.0898
  858MOL0     H15819   9.786   8.307   3.153  2.8687  1.1671 -0.1678
  858MOL0     H15820   9.676   8.015   3.325  3.8964 -1.2849  0.8586
  858MOL0     H15821   9.700   8.118   3.194 -5.6050 -1.1384  2.3867
  858MOL0     H15822   9.894   8.110   3.432  0.6214  1.0906 -0.3052
  858MOL0     H15823   9.924   8.180   3.272 -2.9838  1.1020 -1.3418
  858MOL0     H15824  10.050   8.002   3.238 -0.8462  2.0049 -0.5228
  858MOL0     H15825   9.904   7.944   3.175 -0.9075  1.2231  1.1340
  858MOL0     H15826   9.854   7.831   3.400 -0.0378 -0.1479 -1.3447
  858MOL0     H15827  10.000   7.891   3.466 -2.3725  0.2516  1.9416
  858MOL0     H15828  10.144   7.587   3.183  0.5666 -2.1077  0.4220
  858MOL0     H15829   9.610   8.405   3.524  3.9953 -0.3418 -0.7296
  858MOL0     H15830   9.605   8.642   3.470  0.5199  0.1412  0.4045
  859MOL0     O15831  10.065   7.437   0.069 -0.5328 -0.4851  0.1718
  859MOL0     C15832  10.076   7.540   0.134  0.5486  0.5033  0.2298
  859MOL0     O15833  10.198   7.604   0.163 -0.1158  0.2260 -0.4911
  859MOL0     C15834  10.316   7.537   0.144 -0.2014 -0.5928 -0.1981
  859MOL0     C15835  10.356   7.433   0.226  0.9891 -0.3214  0.0022
  859MOL0     C15836  10.471   7.363   0.204  0.8873  0.0654  0.0160
  859MOL0     C15837  10.565   7.404   0.106 -0.1318 -0.0930  0.1239
  859MOL0     O15838  10.682   7.346   0.089  0.3358 -0.1377 -0.4291
  859MOL0     C15839  10.714   7.229   0.164 -0.0396 -0.2634  1.0151
  859MOL0     C15840  10.857   7.181   0.135 -0.0765  0.0297  0.1963
  859MOL0     C15841  10.895   7.164  -0.009  0.2591 -0.2889  0.1417
  859MOL0     C15842  10.800   7.074  -0.093  0.3048  0.0910  0.0941
  859MOL0     C15843  10.842   7.079  -0.242  1.5048 -0.2124 -0.1363
  859MOL0     C15844  10.745   6.996  -0.332 -0.5448 -0.5845 -0.1482
  859MOL0     C15845  10.775   6.995  -0.486 -0.2123 -0.0088 -0.1563
  859MOL0     C15846  10.897   6.888  -0.523 -0.1303  0.8448 -0.0623
  859MOL0     N15847  10.931   6.902  -0.671 -0.6339 -0.5063  0.1984
  859MOL0     C15848  10.857   6.876  -0.784 -0.6874  0.1168  0.1432
  859MOL0     C15849  10.935   6.904  -0.887  0.0225  0.5152  1.0153
  859MOL0     C15850  10.904   6.875  -1.031  0.2207 -1.2978  0.3029
  859MOL0     C15851  10.986   6.757  -1.087 -0.2015  0.0071  0.2527
  859MOL0     C15852  10.959   6.614  -1.022  0.0819 -0.4366 -0.3947
  859MOL0     C15853  10.801   6.572  -1.009 -0.6041 -0.0171  0.2590
  859MOL0     O15854  10.735   6.567  -1.138  1.0417  0.0971 -0.1651
  859MOL0     C15855  10.591   6.561  -1.138  0.1363 -0.2770  0.0670
  859MOL0     C15856  10.507   6.564  -1.023 -0.5836  1.1834  0.5865
  859MOL0     C15857  10.365   6.555  -1.033  0.0826  0.1120 -0.5459
  859MOL0     C15858  10.299   6.561  -0.886 -0.1090 -0.4551  1.1876
  859MOL0     C15859  10.297   6.538  -1.159 -0.3959  0.4730  0.6188
  859MOL0     C15860  10.152   6.520  -1.176  0.7994 -0.1667 -0.2917
  859MOL0     O15861  10.090   6.508  -1.298  0.5339 -0.0431 -0.3811
  859MOL0     C15862   9.950   6.499  -1.309 -0.8348  0.5522  0.5154
  859MOL0     C15863   9.859   6.556  -1.218 -0.1637  0.7152  0.0376
  859MOL0     C15864   9.723   6.533  -1.249  0.0912  0.0227  0.9602
  859MOL0     C15865   9.682   6.459  -1.359  0.2242 -0.8081 -0.2088
  859MOL0     O15866   9.546   6.449  -1.367  0.4368  0.2740 -0.5442
  859MOL0     C15867   9.489   6.393  -1.483  1.1023  0.5443  0.3129
  859MOL0     C15868   9.345   6.438  -1.476  0.2375 -0.2045 -0.7479
  859MOL0     C15869   9.254   6.387  -1.581 -0.0181  1.0496 -0.8930
  859MOL0     C15870   9.113   6.422  -1.553  1.3793  0.7159 -0.5305
  859MOL0     C15871   9.023   6.389  -1.669 -0.2249 -0.8734 -0.1193
  859MOL0     C15872   8.880   6.422  -1.629 -0.6217  0.6404 -0.1606
  859MOL0     C15873   8.784   6.369  -1.744 -0.1178  0.0565 -0.0509
  859MOL0     C15874   8.648   6.328  -1.692 -0.6163  0.7077  0.4838
  859MOL0    Cl15875   8.540   6.455  -1.629 -0.2667  0.3026 -0.0216
  859MOL0     C15876   9.777   6.400  -1.447  1.1224 -0.1125  0.5889
  859MOL0     C15877   9.913   6.428  -1.415  0.3084  0.6435  0.5225
  859MOL0     O15878  10.095   6.498  -1.067 -0.6289 -0.4503  0.6166
  859MOL0     C15879  10.378   6.549  -1.273  0.5817 -0.1268  0.1103
  859MOL0     C15880  10.524   6.560  -1.260 -0.5286 -0.5786  0.2136
  859MOL0     N15881  11.052   6.951  -0.836 -0.2437 -1.1191  0.2978
  859MOL0     N15882  11.049   6.952  -0.713 -0.1986 -0.0099  0.1419
  859MOL0     C15883  10.530   7.502   0.017  0.3407  0.3753  0.8773
  859MOL0     C15884  10.404   7.575   0.049 -1.3623  1.1360  0.3412
  859MOL0     C15885   9.950   7.600   0.188  0.8966 -0.4381 -0.1803
  859MOL0     C15886   9.835   7.530   0.186 -0.0170  0.5057  0.3663
  859MOL0     C15887   9.711   7.594   0.220 -0.2413 -0.2000 -0.3232
  859MOL0     C15888   9.708   7.721   0.272 -0.5007  0.2307  0.9735
  859MOL0     O15889   9.579   7.758   0.305  0.8648  1.3339 -0.2305
  859MOL0     C15890   9.565   7.885   0.367  1.1370  0.1037 -0.6869
  859MOL0     C15891   9.425   7.924   0.404 -0.7470  0.0902 -0.3790
  859MOL0     C15892   9.352   7.841   0.516  0.1296  0.5821  0.0794
  859MOL0     C15893   9.301   7.703   0.487  0.6568  0.3039 -0.2776
  859MOL0     C15894   9.195   7.667   0.585 -0.0626  0.7917 -0.0926
  859MOL0     C15895   9.115   7.642   0.670  0.2833 -0.4749  0.6618
  859MOL0     C15896   9.829   7.801   0.276  1.1165  1.0901  0.4124
  859MOL0     C15897   9.950   7.739   0.240 -0.1011 -0.2635 -0.3774
  859MOL0     H15898  10.286   7.393   0.300  0.9289 -1.3129 -0.5719
  859MOL0     H15899  10.502   7.276   0.262  2.3076  1.5371  1.5604
  859MOL0     H15900  10.706   7.256   0.270 -1.0131  3.9268  0.0325
  859MOL0     H15901  10.653   7.143   0.136  0.3537 -0.1221 -0.3612
  859MOL0     H15902  10.938   7.234   0.186  0.3869 -0.2543 -0.2439
  859MOL0     H15903  10.863   7.081   0.179  0.3142  1.0251  2.5760
  859MOL0     H15904  10.901   7.263  -0.057 -1.7270 -1.7433 -3.4852
  859MOL0     H15905  10.994   7.123  -0.027 -0.2909 -0.3866 -3.6433
  859MOL0     H15906  10.815   6.974  -0.052 -3.0232  0.0684  1.5647
  859MOL0     H15907  10.695   7.095  -0.072  0.3055 -1.3915  1.7775
  859MOL0     H15908  10.841   7.180  -0.286  0.1245 -0.3444 -0.4427
  859MOL0     H15909  10.945   7.043  -0.253  0.8699 -2.2623  0.2689
  859MOL0     H15910  10.741   6.892  -0.299 -1.7336 -0.8433 -1.0223
  859MOL0     H15911  10.646   7.040  -0.316 -0.6791 -0.3845 -1.4575
  859MOL0     H15912  10.678   6.971  -0.532 -1.0280  0.7626  1.1029
  859MOL0     H15913  10.803   7.094  -0.525  0.7622 -0.4782 -0.6931
  859MOL0     H15914  10.854   6.789  -0.507 -2.9029  2.0476  0.4347
  859MOL0     H15915  10.986   6.907  -0.463 -1.1624  1.4770  1.3025
  859MOL0     H15916  10.754   6.842  -0.787 -0.3783 -0.7967 -1.0048
  859MOL0     H15917  10.795   6.880  -1.039  0.2880  1.0496  0.1549
  859MOL0     H15918  10.933   6.965  -1.087  0.3507 -2.1791 -1.1117
  859MOL0     H15919  11.093   6.777  -1.090 -0.2296  0.0595 -1.9515
  859MOL0     H15920  10.965   6.741  -1.193  0.9970 -1.3081  0.1854
  859MOL0     H15921  11.006   6.603  -0.924 -1.6141 -3.2847  0.2180
  859MOL0     H15922  11.014   6.540  -1.082  1.1217 -1.0819  1.2726
  859MOL0     H15923  10.751   6.650  -0.951  1.0999  3.1126 -2.1058
  859MOL0     H15924  10.791   6.481  -0.950  3.1520 -0.8358 -0.0983
  859MOL0     H15925  10.552   6.572  -0.925  1.8092 -1.7597 -0.1083
  859MOL0     H15926  10.373   6.581  -0.808 -0.9426  1.4910  1.5385
  859MOL0     H15927  10.229   6.645  -0.886 -3.3227 -2.8396 -1.7256
  859MOL0     H15928  10.248   6.465  -0.871  1.5732 -2.2482 -2.8482
  859MOL0     H15929   9.882   6.634  -1.146 -2.5266  0.7343  0.8344
  859MOL0     H15930   9.643   6.583  -1.195  1.1065  2.1666  0.5716
  859MOL0     H15931   9.528   6.429  -1.579  0.8452 -1.0003 -0.4010
  859MOL0     H15932   9.484   6.284  -1.479 -1.8616  0.5378 -1.2754
  859MOL0     H15933   9.295   6.421  -1.380  0.4588  0.8808 -0.4253
  859MOL0     H15934   9.353   6.547  -1.482 -2.1313  0.1565  1.0027
  859MOL0     H15935   9.258   6.278  -1.589 -0.6975  0.9456  0.0478
  859MOL0     H15936   9.284   6.423  -1.680  1.0971 -0.0548 -0.9902
  859MOL0     H15937   9.072   6.366  -1.468  0.8142 -2.6594 -2.8439
  859MOL0     H15938   9.110   6.531  -1.543 -0.8059  0.6140  0.2783
  859MOL0     H15939   9.034   6.282  -1.689  3.8662 -0.7677  0.6636
  859MOL0     H15940   9.041   6.448  -1.760 -2.7006  1.4478  0.7661
  859MOL0     H15941   8.852   6.370  -1.537 -2.8799 -0.7994 -1.5391
  859MOL0     H15942   8.873   6.527  -1.602 -3.1658  0.3781  0.5417
  859MOL0     H15943   8.821   6.280  -1.795 -0.9029 -0.6174  0.5407
  859MOL0     H15944   8.773   6.450  -1.817  1.0797 -0.7707 -1.1830
  859MOL0     H15945   8.661   6.241  -1.627  3.2585 -1.3300 -2.5722
  859MOL0     H15946   8.599   6.294  -1.783 -0.2011 -1.1830  0.9263
  859MOL0     H15947   9.759   6.347  -1.540 -0.1609  0.6237  0.3955
  859MOL0     H15948   9.987   6.389  -1.485 -1.7846 -3.5328  0.3176
  859MOL0     H15949  10.339   6.561  -1.373  0.5161  2.8599  0.3975
  859MOL0     H15950  10.583   6.563  -1.352 -0.5934 -1.9606  0.1021
  859MOL0     H15951  10.592   7.531  -0.067 -2.0639 -1.2859 -1.6523
  859MOL0     H15952  10.381   7.670   0.001 -0.1978  2.6808  2.6477
  859MOL0     H15953   9.836   7.423   0.165  1.6309  0.6630 -0.5214
  859MOL0     H15954   9.618   7.539   0.213  0.6371 -1.6405 -1.1556
  859MOL0     H15955   9.625   7.898   0.458  0.9422  2.3146 -0.8211
  859MOL0     H15956   9.604   7.959   0.297 -0.7293 -1.5877 -3.7134
  859MOL0     H15957   9.363   7.931   0.315  3.1527  0.0074 -3.3929
  859MOL0     H15958   9.434   8.027   0.441 -1.4821  0.2734 -0.6960
  859MOL0     H15959   9.270   7.903   0.552  0.3834  0.2857  1.2112
  859MOL0     H15960   9.424   7.830   0.598 -1.4576 -0.2287  1.4253
  859MOL0     H15961   9.379   7.628   0.477  1.5981  0.9839  1.6405
  859MOL0     H15962   9.258   7.717   0.387 -0.3791 -1.3220 -0.0845
  859MOL0     H15963   9.038   7.625   0.742  1.7020  0.2777  2.4290
  859MOL0     H15964   9.815   7.899   0.322 -2.2746  0.3553  1.2309
  859MOL0     H15965  10.043   7.796   0.249 -0.7232  0.6302  0.7315
  860MOL0     O15966   0.264   0.503   4.990 -0.1077 -0.3018  0.0436
  860MOL0     C15967   0.336   0.461   4.903 -0.7895  0.9136  0.4637
  860MOL0     O15968   0.309   0.453   4.776  0.2704 -0.0817 -0.0010
  860MOL0     C15969   0.195   0.508   4.733  0.1886 -0.0220  0.3038
  860MOL0     C15970   0.138   0.462   4.612 -0.6917 -0.7717 -0.1784
  860MOL0     C15971   0.030   0.527   4.561  0.4695  0.0665 -0.6424
  860MOL0     C15972  -0.019   0.653   4.608  1.0756 -0.4959  0.2578
  860MOL0     O15973  -0.138   0.703   4.552  0.0868 -0.8508 -0.2471
  860MOL0     C15974  -0.160   0.847   4.586 -0.1247  0.6165 -0.6103
  860MOL0     C15975  -0.268   0.876   4.696 -0.0167  0.4862  0.0241
  860MOL0     C15976  -0.394   0.803   4.684  0.1200 -0.1747 -0.8347
  860MOL0     C15977  -0.459   0.833   4.543 -0.9787  0.0572 -0.5718
  860MOL0     C15978  -0.614   0.799   4.537  0.0478  0.2514  0.5627
  860MOL0     C15979  -0.689   0.848   4.425  0.0507  0.8530 -0.5681
  860MOL0     C15980  -0.841   0.833   4.442 -0.7384 -0.3351 -0.3821
  860MOL0     C15981  -0.903   0.905   4.330 -0.5514 -0.0267 -0.0890
  860MOL0     N15982  -1.048   0.921   4.351 -0.6065  0.0449  0.2445
  860MOL0     C15983  -1.108   0.977   4.461  0.2496  0.1832  0.2872
  860MOL0     C15984  -1.234   1.003   4.426  0.1938  0.1615  0.3758
  860MOL0     C15985  -1.333   1.058   4.517 -0.2052 -0.2381 -0.0267
  860MOL0     C15986  -1.484   1.039   4.470 -0.2201  0.4833 -0.7792
  860MOL0     C15987  -1.532   1.110   4.338  0.2721  0.0505  0.0897
  860MOL0     C15988  -1.474   1.255   4.320  0.1520  0.4631 -0.0201
  860MOL0     O15989  -1.500   1.303   4.189  0.1957  0.2485 -0.6016
  860MOL0     C15990  -1.634   1.321   4.149 -0.0641 -0.0138 -0.2589
  860MOL0     C15991  -1.742   1.350   4.230 -0.1724  0.6409  0.1108
  860MOL0     C15992  -1.875   1.359   4.188  0.7138 -0.4009  0.3134
  860MOL0     C15993  -1.987   1.404   4.281 -0.0983 -0.2012 -1.4034
  860MOL0     C15994  -1.901   1.317   4.052  0.7440  0.0217 -0.1550
  860MOL0     C15995  -2.037   1.291   3.995 -0.0311  0.3699 -0.7825
  860MOL0     O15996  -2.107   1.200   4.076  1.1390  0.1084  0.4333
  860MOL0     C15997  -2.241   1.168   4.036  0.6261  0.6192 -0.3054
  860MOL0     C15998  -2.274   1.039   3.985  0.0229  0.1125  0.1791
  860MOL0     C15999  -2.399   1.022   3.924 -0.2576  0.1983  0.4535
  860MOL0     C16000  -2.500   1.112   3.928 -0.8985  0.3646 -0.0628
  860MOL0     O16001  -2.619   1.098   3.874  0.2770  0.1711 -0.0144
  860MOL0     C16002  -2.654   0.971   3.807  0.0401 -0.8074  0.1202
  860MOL0     C16003  -2.797   0.974   3.742  0.4130 -0.7033 -1.3869
  860MOL0     C16004  -2.831   0.850   3.661 -0.6125 -0.0837  0.4571
  860MOL0     C16005  -2.962   0.861   3.590  0.4986 -0.2117  0.2676
  860MOL0     C16006  -3.020   0.736   3.537 -0.7702 -0.5534 -0.0937
  860MOL0     C16007  -3.144   0.774   3.443  0.3765  0.1674  0.9730
  860MOL0     C16008  -3.246   0.872   3.511 -0.3095  0.3075  0.4146
  860MOL0     C16009  -3.374   0.865   3.441  0.2916  1.0603  0.3617
  860MOL0    Cl16010  -3.453   0.716   3.507 -0.2775 -0.1296  0.1748
  860MOL0     C16011  -2.464   1.233   3.978 -0.0730  0.3094 -0.5326
  860MOL0     C16012  -2.339   1.269   4.034  0.7022 -0.4066 -0.3650
  860MOL0     O16013  -2.083   1.359   3.899 -0.2038 -0.0061  0.4218
  860MOL0     C16014  -1.793   1.297   3.965  0.0612  0.4561 -0.6307
  860MOL0     C16015  -1.662   1.293   4.020 -0.5213  0.0677 -0.3833
  860MOL0     N16016  -1.253   0.965   4.298 -0.2485 -0.5277  1.5147
  860MOL0     N16017  -1.141   0.907   4.255 -0.6733  0.0500  0.3742
  860MOL0     C16018   0.042   0.703   4.726  0.8596 -0.0254 -0.2125
  860MOL0     C16019   0.155   0.638   4.784  0.3996  0.2937 -0.5631
  860MOL0     C16020   0.476   0.424   4.932  0.0426 -0.0650  0.5005
  860MOL0     C16021   0.569   0.405   4.820  0.6314 -0.2291 -0.2166
  860MOL0     C16022   0.699   0.381   4.850  1.1210 -0.1670  0.5281
  860MOL0     C16023   0.747   0.398   4.981  0.4319  0.3189 -1.6097
  860MOL0     O16024   0.880   0.368   5.001 -0.3967 -0.1322  0.8928
  860MOL0     C16025   0.949   0.361   5.128  1.2762  0.2268 -0.1777
  860MOL0     C16026   1.090   0.340   5.084 -0.4885 -0.3124 -0.3155
  860MOL0     C16027   1.192   0.356   5.200  0.0840 -0.6615 -0.7069
  860MOL0     C16028   1.306   0.250   5.210  0.2034 -0.1928 -0.7200
  860MOL0     C16029   1.368   0.235   5.073 -0.2849 -0.1241  1.0195
  860MOL0     C16030   1.415   0.228   4.958  0.3934  0.4515  0.0605
  860MOL0     C16031   0.659   0.419   5.091 -0.3337  0.0188 -0.6220
  860MOL0     C16032   0.527   0.431   5.060 -0.1458  0.3385 -0.7215
  860MOL0     H16033   0.177   0.369   4.572  1.7564 -1.7999  3.9054
  860MOL0     H16034  -0.005   0.477   4.471 -0.3756  0.0238 -0.2981
  860MOL0     H16035  -0.071   0.902   4.618  0.6554 -1.5329  1.2253
  860MOL0     H16036  -0.193   0.889   4.491 -2.6888 -0.5448 -0.3166
  860MOL0     H16037  -0.228   0.861   4.797 -0.4860 -2.5817 -0.1413
  860MOL0     H16038  -0.285   0.984   4.697  0.1942  0.5361 -1.0035
  860MOL0     H16039  -0.378   0.695   4.676 -0.2973 -0.1807 -1.7939
  860MOL0     H16040  -0.465   0.826   4.764  0.4687  1.3382 -0.9422
  860MOL0     H16041  -0.451   0.941   4.531 -0.4776  0.2372  1.1230
  860MOL0     H16042  -0.405   0.779   4.465 -1.6971  0.2927 -1.2355
  860MOL0     H16043  -0.631   0.692   4.553 -0.5160  0.7137  3.7675
  860MOL0     H16044  -0.654   0.847   4.627  0.8757 -0.2626  1.2171
  860MOL0     H16045  -0.665   0.952   4.405  0.9239  1.1799  1.8465
  860MOL0     H16046  -0.676   0.777   4.342 -2.7115 -2.4678  1.5571
  860MOL0     H16047  -0.872   0.729   4.429 -1.7002  0.0461 -1.3453
  860MOL0     H16048  -0.853   0.871   4.544 -0.0606 -0.8746 -0.0952
  860MOL0     H16049  -0.876   0.863   4.233  1.0540 -1.0734  0.7644
  860MOL0     H16050  -0.868   1.008   4.331 -0.8099  0.0616  1.2795
  860MOL0     H16051  -1.054   0.998   4.553 -0.0135  1.6206  0.1386
  860MOL0     H16052  -1.325   1.004   4.612  2.3543  1.5383  0.8716
  860MOL0     H16053  -1.314   1.165   4.527  1.5968 -0.2646 -2.1777
  860MOL0     H16054  -1.550   1.078   4.548 -0.7692  0.2684 -1.1281
  860MOL0     H16055  -1.506   0.932   4.468 -2.2262  0.6985  2.3811
  860MOL0     H16056  -1.641   1.113   4.330  0.2863  2.4597 -0.0071
  860MOL0     H16057  -1.495   1.053   4.253  0.0494 -0.7444  0.5222
  860MOL0     H16058  -1.366   1.256   4.337 -0.1055  0.3034  1.9408
  860MOL0     H16059  -1.515   1.320   4.398 -0.9610  0.4350 -0.5574
  860MOL0     H16060  -1.714   1.347   4.335  1.0946 -0.0721 -0.2267
  860MOL0     H16061  -2.080   1.420   4.225 -0.6952 -1.4769 -0.8103
  860MOL0     H16062  -2.011   1.329   4.356 -1.9065  0.3520 -1.3800
  860MOL0     H16063  -1.962   1.493   4.339 -2.8719  0.1535 -0.5887
  860MOL0     H16064  -2.197   0.962   3.982 -1.1882 -1.1194 -0.5949
  860MOL0     H16065  -2.411   0.926   3.873 -1.1196 -0.6393  2.1618
  860MOL0     H16066  -2.586   0.938   3.728  0.6735  1.5258 -0.3812
  860MOL0     H16067  -2.658   0.902   3.892  1.3350  1.6944  2.3762
  860MOL0     H16068  -2.872   0.989   3.820  1.8644 -0.9276  0.1331
  860MOL0     H16069  -2.802   1.067   3.685 -0.1176  1.6053  2.1231
  860MOL0     H16070  -2.824   0.768   3.734 -1.0152  0.3275  0.9657
  860MOL0     H16071  -2.752   0.831   3.588 -2.1898  0.6319 -1.5395
  860MOL0     H16072  -3.030   0.899   3.667 -0.4290 -0.1407 -0.5620
  860MOL0     H16073  -2.954   0.941   3.516  0.8651 -1.1868 -0.7734
  860MOL0     H16074  -3.056   0.673   3.619  1.2985  1.8280  2.9001
  860MOL0     H16075  -2.949   0.678   3.478 -0.8431 -1.2534  0.4983
  860MOL0     H16076  -3.098   0.820   3.355 -1.8671 -1.6129 -1.2716
  860MOL0     H16077  -3.191   0.680   3.413  0.8893  0.2897 -0.2910
  860MOL0     H16078  -3.200   0.971   3.506  1.5121 -0.3214  2.7435
  860MOL0     H16079  -3.259   0.842   3.615 -1.0390 -1.0266 -0.0444
  860MOL0     H16080  -3.365   0.863   3.332 -0.7739 -0.7753  0.2631
  860MOL0     H16081  -3.432   0.952   3.470  1.0572  2.0246 -0.8739
  860MOL0     H16082  -2.544   1.307   3.976  0.1980  0.5969 -1.7733
  860MOL0     H16083  -2.313   1.368   4.071  0.2207 -0.7926  1.1139
  860MOL0     H16084  -1.813   1.272   3.862 -1.5522 -0.5693 -0.1192
  860MOL0     H16085  -1.583   1.260   3.953 -0.7664 -0.5403 -0.3829
  860MOL0     H16086   0.002   0.792   4.774 -2.3898 -1.1834 -0.4774
  860MOL0     H16087   0.189   0.685   4.876  1.4992  1.6577 -1.6145
  860MOL0     H16088   0.544   0.420   4.716 -2.9732  0.3426  0.5866
  860MOL0     H16089   0.773   0.352   4.776 -3.0743 -2.2854 -3.2725
  860MOL0     H16090   0.944   0.456   5.182  0.1439 -0.6574  1.3568
  860MOL0     H16091   0.922   0.267   5.176  0.6644 -1.1321 -2.9796
  860MOL0     H16092   1.105   0.422   5.014  3.1710  0.8069  1.5135
  860MOL0     H16093   1.100   0.240   5.040  0.6159  0.9381 -3.1399
  860MOL0     H16094   1.136   0.372   5.292  2.5552  2.6289  0.4182
  860MOL0     H16095   1.244   0.450   5.179 -0.9453 -0.1420 -0.9619
  860MOL0     H16096   1.251   0.161   5.243 -0.3920  0.5114  0.2534
  860MOL0     H16097   1.392   0.274   5.273  0.6894 -0.7325 -1.1745
  860MOL0     H16098   1.463   0.223   4.862  1.1363  1.4751  0.3560
  860MOL0     H16099   0.707   0.420   5.188  0.7656  1.6101 -1.1267
  860MOL0     H16100   0.455   0.445   5.141 -1.6725 -0.9432 -1.7915
  861MOL0     O16101   4.310   6.843   3.652 -0.2937 -0.1806  0.2702
  861MOL0     C16102   4.301   6.961   3.675  0.5378 -0.0039 -0.7816
  861MOL0     O16103   4.403   7.051   3.650 -0.8768  0.0758 -0.8533
  861MOL0     C16104   4.534   6.997   3.628 -0.3647 -0.9978  0.3392
  861MOL0     C16105   4.605   6.923   3.723  0.7661 -0.7665 -0.5187
  861MOL0     C16106   4.735   6.877   3.696 -0.8186  0.5871  0.2831
  861MOL0     C16107   4.795   6.920   3.574 -0.5872  0.0359 -0.2533
  861MOL0     O16108   4.928   6.891   3.545  0.0263 -0.3325 -0.0102
  861MOL0     C16109   5.038   6.940   3.630  0.1035 -0.3350 -0.0908
  861MOL0     C16110   5.074   7.083   3.598 -0.1822  0.2569 -0.5756
  861MOL0     C16111   5.080   7.119   3.447 -0.1301 -0.5063  0.2148
  861MOL0     C16112   5.063   7.275   3.447  0.3954  0.8803  0.3871
  861MOL0     C16113   4.913   7.311   3.425  0.8217  0.3323  0.2949
  861MOL0     C16114   4.900   7.455   3.402 -0.3653 -0.2381 -0.2037
  861MOL0     C16115   4.750   7.489   3.384 -0.4170 -0.4931  0.7109
  861MOL0     C16116   4.678   7.531   3.506  0.0458 -0.5598 -0.2943
  861MOL0     N16117   4.538   7.484   3.508  0.2529  0.3057 -0.1481
  861MOL0     C16118   4.444   7.546   3.587 -0.1395  0.2720 -0.3534
  861MOL0     C16119   4.326   7.486   3.575 -0.6639  0.9928 -0.0933
  861MOL0     C16120   4.210   7.514   3.640  0.6689 -0.0563 -0.2427
  861MOL0     C16121   4.112   7.593   3.543 -0.0325 -0.6201 -0.3938
  861MOL0     C16122   3.977   7.608   3.596 -0.6666  0.5605  0.4744
  861MOL0     C16123   3.878   7.669   3.498 -0.8968 -0.1339 -0.0248
  861MOL0     O16124   3.788   7.742   3.581 -0.4359 -0.2921 -0.3695
  861MOL0     C16125   3.667   7.681   3.622 -0.8987 -0.0275  0.0612
  861MOL0     C16126   3.575   7.770   3.672 -0.2620  0.1902  0.0411
  861MOL0     C16127   3.463   7.727   3.738 -0.2511  0.0290  0.6632
  861MOL0     C16128   3.381   7.838   3.802  0.1452 -1.2516  0.2572
  861MOL0     C16129   3.435   7.590   3.742 -0.0423  0.5071  0.4692
  861MOL0     C16130   3.311   7.533   3.805  1.0006  0.1014  0.1063
  861MOL0     O16131   3.292   7.394   3.775  0.1354  0.5800 -0.1346
  861MOL0     C16132   3.201   7.324   3.853  0.3187  0.1975 -0.5516
  861MOL0     C16133   3.123   7.228   3.791  0.2573  0.5067 -0.2627
  861MOL0     C16134   3.039   7.143   3.869 -0.3812 -0.6399  0.0994
  861MOL0     C16135   3.029   7.150   4.007 -0.5419 -0.3153 -1.4813
  861MOL0     O16136   2.935   7.093   4.085  0.1135  0.0795 -0.4813
  861MOL0     C16137   2.881   6.965   4.053  0.5749 -1.5566  0.0403
  861MOL0     C16138   2.737   6.978   4.006 -1.1122  0.6917 -0.5168
  861MOL0     C16139   2.660   7.090   4.075 -0.3214  0.0988 -0.7246
  861MOL0     C16140   2.530   7.115   3.998  0.1269  0.0012 -0.2139
  861MOL0     C16141   2.419   7.000   4.015  0.0215 -0.7314 -0.2062
  861MOL0     C16142   2.279   7.066   4.016  0.2407  0.2167  0.2306
  861MOL0     C16143   2.258   7.143   3.884 -0.1961 -0.9741 -0.9343
  861MOL0     C16144   2.111   7.177   3.862 -0.1109  0.1851 -0.8089
  861MOL0    Cl16145   2.029   7.026   3.798  0.0892  0.0438  0.1819
  861MOL0     C16146   3.104   7.250   4.071 -0.4143  0.0689 -0.3053
  861MOL0     C16147   3.195   7.329   3.993  0.8067  0.0891 -0.1508
  861MOL0     O16148   3.246   7.601   3.879  0.5529 -0.8107  0.3255
  861MOL0     C16149   3.526   7.491   3.687 -0.2123  0.6486  0.2737
  861MOL0     C16150   3.644   7.542   3.629 -0.3799 -0.0125 -0.3814
  861MOL0     N16151   4.352   7.373   3.489 -0.7172 -0.5645  0.2895
  861MOL0     N16152   4.480   7.372   3.453 -0.0341 -0.8152 -0.2719
  861MOL0     C16153   4.733   6.995   3.477 -0.6000 -0.4592 -0.2991
  861MOL0     C16154   4.597   7.034   3.507 -0.6368  0.6117  0.2002
  861MOL0     C16155   4.166   7.018   3.717  0.8319  0.1927 -1.3306
  861MOL0     C16156   4.150   7.145   3.756  0.0489 -0.1315 -0.0287
  861MOL0     C16157   4.023   7.196   3.782  0.1596  0.0970 -0.4820
  861MOL0     C16158   3.909   7.124   3.772  0.0741 -0.2553  0.0000
  861MOL0     O16159   3.791   7.194   3.763 -0.0398  0.4268  0.0637
  861MOL0     C16160   3.662   7.116   3.778 -0.3652 -0.2562 -0.7598
  861MOL0     C16161   3.645   7.035   3.914  0.0593  0.1314 -0.2873
  861MOL0     C16162   3.623   7.130   4.034 -0.6841  0.1165  0.1595
  861MOL0     C16163   3.480   7.178   4.040  0.2545 -0.0908 -0.1067
  861MOL0     C16164   3.382   7.063   4.042 -0.4077 -0.2624 -0.2774
  861MOL0     C16165   3.322   6.963   4.038  0.2751 -0.1597  0.1241
  861MOL0     C16166   3.920   6.984   3.745 -0.8896 -0.6224  0.0322
  861MOL0     C16167   4.049   6.933   3.717 -0.3125 -0.2746 -0.4193
  861MOL0     H16168   4.558   6.902   3.818 -0.8756  1.1427 -0.8391
  861MOL0     H16169   4.796   6.814   3.760 -0.4982  2.3785  1.7961
  861MOL0     H16170   5.011   6.935   3.736 -0.3192 -1.7739 -0.2416
  861MOL0     H16171   5.130   6.883   3.618 -0.0333 -0.6066  0.1389
  861MOL0     H16172   4.986   7.145   3.619 -2.0156 -0.9210 -3.9169
  861MOL0     H16173   5.161   7.123   3.650  0.4464 -0.4203 -1.0840
  861MOL0     H16174   5.175   7.080   3.408  0.0362 -0.2948  0.4036
  861MOL0     H16175   5.003   7.073   3.385  0.9034  0.4737 -1.9190
  861MOL0     H16176   5.109   7.325   3.532  0.4904  0.7306  0.4240
  861MOL0     H16177   5.119   7.308   3.358  2.0726 -0.8504  0.7451
  861MOL0     H16178   4.872   7.251   3.343 -2.4878  3.1915 -0.3926
  861MOL0     H16179   4.859   7.284   3.516  0.7854 -0.4544  0.0467
  861MOL0     H16180   4.940   7.496   3.495  0.4410 -0.8705 -0.2624
  861MOL0     H16181   4.954   7.500   3.317 -0.1941  0.4812  0.2744
  861MOL0     H16182   4.751   7.574   3.315  0.6963 -0.2121  1.0516
  861MOL0     H16183   4.699   7.408   3.332 -0.1836  0.5359 -1.1850
  861MOL0     H16184   4.677   7.639   3.523 -0.9133 -0.5672 -0.2185
  861MOL0     H16185   4.725   7.488   3.595 -0.3017  0.4293  0.3884
  861MOL0     H16186   4.457   7.618   3.667 -4.7411  0.7001  0.2549
  861MOL0     H16187   4.159   7.426   3.681 -2.7019  1.6524 -0.3962
  861MOL0     H16188   4.252   7.562   3.729  1.0683 -3.1075  1.3667
  861MOL0     H16189   4.106   7.550   3.443  0.9290 -0.0632 -0.7122
  861MOL0     H16190   4.156   7.693   3.530 -2.2903  0.7394  1.5908
  861MOL0     H16191   3.986   7.665   3.689 -0.5369 -0.6715  1.2438
  861MOL0     H16192   3.943   7.514   3.642  2.6272 -0.1376  1.7304
  861MOL0     H16193   3.839   7.582   3.443  3.3897 -2.6634  0.5264
  861MOL0     H16194   3.926   7.738   3.428 -1.7643  1.6570  1.0773
  861MOL0     H16195   3.594   7.877   3.668 -3.2325  0.8271  0.3964
  861MOL0     H16196   3.406   7.940   3.771  0.4575 -1.3017  0.3412
  861MOL0     H16197   3.279   7.821   3.766  0.0325 -0.0075 -0.0550
  861MOL0     H16198   3.380   7.853   3.910 -2.1367  1.7943 -0.0513
  861MOL0     H16199   3.144   7.209   3.686  1.7461  2.1994 -0.3071
  861MOL0     H16200   2.978   7.066   3.824  0.8256 -1.1444 -0.7302
  861MOL0     H16201   2.939   6.918   3.972  0.3899 -0.3830 -0.7986
  861MOL0     H16202   2.887   6.901   4.141  0.6235 -0.0400  1.1613
  861MOL0     H16203   2.749   6.997   3.899  1.1660 -1.3463 -0.6870
  861MOL0     H16204   2.686   6.882   4.016  0.5966 -0.0377  2.1444
  861MOL0     H16205   2.716   7.184   4.072 -0.1835  0.1520  1.4607
  861MOL0     H16206   2.638   7.058   4.178 -1.4248  1.2999 -0.5510
  861MOL0     H16207   2.477   7.201   4.040 -0.4609  0.0919 -1.1018
  861MOL0     H16208   2.537   7.142   3.892 -0.1312 -0.4648 -0.3514
  861MOL0     H16209   2.430   6.938   4.105 -0.9925 -2.4324 -1.1927
  861MOL0     H16210   2.431   6.934   3.928  0.6584  3.7402 -3.8858
  861MOL0     H16211   2.201   6.989   4.023 -0.5127  0.9851  0.3448
  861MOL0     H16212   2.274   7.142   4.094 -1.2562  0.9896 -0.5841
  861MOL0     H16213   2.301   7.095   3.796 -2.2924  0.5382 -2.8976
  861MOL0     H16214   2.317   7.235   3.894 -0.3398 -0.9162 -0.5910
  861MOL0     H16215   2.105   7.257   3.788  0.1009 -0.5977 -1.6862
  861MOL0     H16216   2.063   7.203   3.957 -2.8909 -0.8221 -1.8440
  861MOL0     H16217   3.094   7.258   4.179 -1.2609 -2.3949 -0.1402
  861MOL0     H16218   3.258   7.400   4.046 -0.7867  0.6752  1.0339
  861MOL0     H16219   3.515   7.384   3.699  0.5141  0.0397 -3.3771
  861MOL0     H16220   3.714   7.467   3.595  0.3540  0.5938 -0.2318
  861MOL0     H16221   4.780   7.017   3.382 -0.7626 -2.0245 -0.7656
  861MOL0     H16222   4.543   7.082   3.425 -0.7066 -2.3163 -1.6159
  861MOL0     H16223   4.238   7.207   3.769 -1.1956  1.7010  0.1242
  861MOL0     H16224   4.011   7.302   3.801  0.6000  0.1061 -0.2388
  861MOL0     H16225   3.583   7.191   3.771 -0.8767 -0.7131  0.0446
  861MOL0     H16226   3.648   7.064   3.683 -0.2119  0.4987 -1.2051
  861MOL0     H16227   3.733   6.974   3.936 -1.5516 -1.8029  1.1045
  861MOL0     H16228   3.563   6.964   3.900  0.6717 -0.6665  0.0901
  861MOL0     H16229   3.687   7.216   4.011  1.6030 -2.0042 -1.9373
  861MOL0     H16230   3.651   7.084   4.129  2.1062 -0.9041 -1.0675
  861MOL0     H16231   3.457   7.251   3.961 -1.9147  1.3961  1.7661
  861MOL0     H16232   3.476   7.230   4.136 -0.0607 -0.2665 -0.0235
  861MOL0     H16233   3.267   6.871   4.038  2.8851 -1.8870 -1.6547
  861MOL0     H16234   3.837   6.915   3.738 -1.6388  0.1399  1.1485
  861MOL0     H16235   4.064   6.829   3.688 -1.2463  0.1486 -2.6521
  862MOL0     O16236  10.582   7.149   6.194 -0.2974  0.8383  0.4257
  862MOL0     C16237  10.583   7.255   6.127 -0.3782 -0.8391  0.0745
  862MOL0     O16238  10.478   7.322   6.086  0.1294  0.2656  0.1757
  862MOL0     C16239  10.353   7.255   6.093  0.2748 -0.7460  0.3379
  862MOL0     C16240  10.260   7.295   6.193 -0.2763 -0.4639 -0.7045
  862MOL0     C16241  10.137   7.240   6.214 -0.1553  0.0782  0.5604
  862MOL0     C16242  10.097   7.136   6.135 -0.7983 -0.0305 -0.4043
  862MOL0     O16243   9.974   7.093   6.161  0.7073 -0.0215 -0.6817
  862MOL0     C16244   9.955   6.953   6.137 -0.1098  0.3542 -0.2065
  862MOL0     C16245   9.824   6.905   6.204 -0.6013 -0.3418  0.2037
  862MOL0     C16246   9.869   6.884   6.348  0.1462  0.5817  0.3472
  862MOL0     C16247   9.746   6.861   6.439  0.2970 -1.3869 -0.4228
  862MOL0     C16248   9.776   6.878   6.592 -0.3328  0.1560  0.1122
  862MOL0     C16249   9.868   6.765   6.643 -0.4885  0.3092 -0.4851
  862MOL0     C16250   9.899   6.766   6.796  0.2064 -0.3860 -0.7819
  862MOL0     C16251   9.949   6.626   6.843 -0.2027 -0.5932  0.4326
  862MOL0     N16252   9.839   6.525   6.836 -0.1413 -0.6234  0.6712
  862MOL0     C16253   9.734   6.516   6.919 -0.5525 -0.5843  0.1462
  862MOL0     C16254   9.675   6.403   6.882 -0.6446 -0.2829  0.1564
  862MOL0     C16255   9.557   6.342   6.957 -0.0260  1.0743  0.1642
  862MOL0     C16256   9.420   6.405   6.911 -0.2562  0.9950 -0.5305
  862MOL0     C16257   9.314   6.360   7.003  0.9739  0.5566 -0.1966
  862MOL0     C16258   9.182   6.344   6.927  0.6190  1.1230  0.1260
  862MOL0     O16259   9.188   6.217   6.851  0.2142  0.2512  0.9396
  862MOL0     C16260   9.091   6.188   6.754 -1.1677 -0.6733 -0.0180
  862MOL0     C16261   8.953   6.215   6.762 -0.7020 -1.0018  0.1383
  862MOL0     C16262   8.865   6.202   6.653 -0.3645 -0.0335  0.4147
  862MOL0     C16263   8.727   6.247   6.685  1.4963 -0.2846 -1.1198
  862MOL0     C16264   8.913   6.145   6.531  0.2160  1.1537 -0.2186
  862MOL0     C16265   8.826   6.137   6.414  0.1445  0.0287  0.0671
  862MOL0     O16266   8.883   6.088   6.307 -0.4824  1.0564  0.1826
  862MOL0     C16267   8.804   6.054   6.201 -0.3710 -0.1636  0.1932
  862MOL0     C16268   8.692   5.982   6.211  1.0605  0.2670 -0.8507
  862MOL0     C16269   8.609   5.960   6.095 -0.2766  0.5169  0.2656
  862MOL0     C16270   8.648   6.006   5.967  0.2315 -0.3596 -0.1655
  862MOL0     O16271   8.570   6.005   5.855 -0.2222 -0.1808  0.3669
  862MOL0     C16272   8.434   6.048   5.866  0.1083  0.1460 -0.7816
  862MOL0     C16273   8.425   6.198   5.828 -0.3606 -0.0739  1.0808
  862MOL0     C16274   8.297   6.232   5.753 -0.2876  0.3504 -0.1354
  862MOL0     C16275   8.306   6.365   5.688  0.2502  0.0299 -0.5799
  862MOL0     C16276   8.327   6.476   5.794  0.1522 -0.0486 -0.2798
  862MOL0     C16277   8.296   6.616   5.733 -0.0603  0.0217 -0.8873
  862MOL0     C16278   8.316   6.714   5.842 -0.7375  0.4679 -0.5816
  862MOL0     C16279   8.295   6.861   5.807  0.0135 -0.2017  0.4674
  862MOL0    Cl16280   8.168   6.885   5.693 -0.0809 -0.1785  0.2352
  862MOL0     C16281   8.771   6.076   5.954 -0.0397  0.9177 -0.3876
  862MOL0     C16282   8.844   6.102   6.073 -0.1683 -0.9178 -0.5016
  862MOL0     O16283   8.708   6.182   6.421 -0.1646 -0.2354 -0.3070
  862MOL0     C16284   9.049   6.101   6.526 -0.5006 -0.1178  0.3034
  862MOL0     C16285   9.132   6.125   6.634 -0.6449 -0.1423  0.8165
  862MOL0     N16286   9.755   6.344   6.781  0.1267  0.2479 -0.4248
  862MOL0     N16287   9.858   6.420   6.756 -0.1327  0.8397  0.2045
  862MOL0     C16288  10.185   7.087   6.037  0.1585  0.1007 -0.1203
  862MOL0     C16289  10.311   7.146   6.012 -0.0427  0.0229 -0.3085
  862MOL0     C16290  10.719   7.318   6.113  0.6647  0.2901 -0.6323
  862MOL0     C16291  10.736   7.458   6.075  0.3452 -0.4586  0.0525
  862MOL0     C16292  10.863   7.513   6.058 -0.0475 -0.5164 -0.9587
  862MOL0     C16293  10.974   7.430   6.089 -0.0963 -0.3464  0.5604
  862MOL0     O16294  11.094   7.483   6.061 -0.4388  0.4480 -0.3360
  862MOL0     C16295  11.201   7.413   6.009 -0.6308  0.5007  0.1322
  862MOL0     C16296  11.261   7.500   5.904 -0.3436  0.1087  0.2268
  862MOL0     C16297  11.175   7.499   5.772 -0.1635 -0.5358 -0.5289
  862MOL0     C16298  11.241   7.575   5.653 -0.3362 -0.2722 -0.0164
  862MOL0     C16299  11.363   7.509   5.600 -0.7081 -0.0893 -0.5844
  862MOL0     C16300  11.465   7.451   5.556  1.0841  0.2135 -0.6505
  862MOL0     C16301  10.956   7.293   6.105 -0.1086 -0.4690 -0.1240
  862MOL0     C16302  10.831   7.235   6.109 -0.2696  0.4236 -0.6417
  862MOL0     H16303  10.292   7.383   6.247 -0.4793  0.5694 -2.2138
  862MOL0     H16304  10.075   7.271   6.296  0.5599  1.0099  0.7693
  862MOL0     H16305   9.945   6.929   6.031  0.9798 -1.5323  0.0875
  862MOL0     H16306  10.033   6.889   6.177 -1.1887 -0.6155  0.4007
  862MOL0     H16307   9.762   6.995   6.193  2.3007  1.9467  1.1975
  862MOL0     H16308   9.784   6.816   6.155 -2.9991  0.7855 -0.0496
  862MOL0     H16309   9.937   6.798   6.358  0.8325  0.8228 -1.7260
  862MOL0     H16310   9.928   6.971   6.378 -0.3604  1.9368 -2.3756
  862MOL0     H16311   9.671   6.934   6.405  1.2239 -0.9322 -1.5191
  862MOL0     H16312   9.704   6.761   6.434 -2.0032 -0.5899  1.0609
  862MOL0     H16313   9.816   6.978   6.607  0.0471 -0.2441  2.0186
  862MOL0     H16314   9.679   6.861   6.640 -1.1243 -0.6881 -1.6952
  862MOL0     H16315   9.824   6.671   6.610 -2.7093  1.6002 -1.3684
  862MOL0     H16316   9.966   6.776   6.596 -0.6365 -1.7238 -1.3776
  862MOL0     H16317   9.971   6.847   6.814  1.1078 -1.3649  0.1186
  862MOL0     H16318   9.811   6.793   6.854 -0.9720 -5.4961  0.3005
  862MOL0     H16319   9.988   6.634   6.945 -0.4005  1.0430  0.4069
  862MOL0     H16320  10.038   6.599   6.785 -0.5581 -1.1853  0.1535
  862MOL0     H16321   9.700   6.581   7.000  0.6582 -0.6391  0.7186
  862MOL0     H16322   9.547   6.236   6.933  0.3705  1.4864 -2.1450
  862MOL0     H16323   9.592   6.349   7.060  4.7054  0.0844 -1.1558
  862MOL0     H16324   9.404   6.367   6.810  1.6254  1.3946 -1.0027
  862MOL0     H16325   9.431   6.514   6.909 -0.9828  1.0926  0.2688
  862MOL0     H16326   9.312   6.443   7.075 -2.3264  1.3647 -1.0348
  862MOL0     H16327   9.338   6.262   7.045 -0.8874  0.1716  0.0591
  862MOL0     H16328   9.173   6.425   6.854  2.5691 -1.0411 -2.7227
  862MOL0     H16329   9.103   6.334   7.003  1.0200 -0.5383  0.3482
  862MOL0     H16330   8.910   6.257   6.852  0.2138  1.7310 -0.6101
  862MOL0     H16331   8.704   6.339   6.631  0.9520  1.9072  2.4804
  862MOL0     H16332   8.656   6.167   6.662  1.2677 -0.6966  0.7903
  862MOL0     H16333   8.702   6.252   6.792  1.0301 -2.9760 -1.0342
  862MOL0     H16334   8.670   5.937   6.307  2.1169  2.2473  0.3700
  862MOL0     H16335   8.514   5.908   6.105  1.3836 -3.1881 -1.3859
  862MOL0     H16336   8.371   5.980   5.808  1.6629 -1.1698 -0.9985
  862MOL0     H16337   8.398   6.050   5.969  0.6416 -1.8359 -0.5151
  862MOL0     H16338   8.447   6.260   5.916 -3.2889  0.0173  1.8497
  862MOL0     H16339   8.505   6.225   5.759  1.8793 -0.2848  3.4199
  862MOL0     H16340   8.206   6.228   5.814 -0.5598  0.3542 -0.5340
  862MOL0     H16341   8.277   6.148   5.686 -1.4487  1.3048 -1.0460
  862MOL0     H16342   8.389   6.367   5.616 -0.8082 -0.4064 -1.8714
  862MOL0     H16343   8.215   6.389   5.633  0.2367 -1.5883 -1.3297
  862MOL0     H16344   8.422   6.461   5.848 -0.6069 -1.5600  0.6909
  862MOL0     H16345   8.253   6.463   5.873 -1.6494 -0.3298 -1.9604
  862MOL0     H16346   8.359   6.644   5.648 -0.6414  1.5983 -0.8132
  862MOL0     H16347   8.191   6.624   5.703 -0.2786  1.3839  0.1628
  862MOL0     H16348   8.405   6.700   5.903 -2.6654  0.4457  2.4480
  862MOL0     H16349   8.237   6.697   5.916  0.2615  0.4049  0.4999
  862MOL0     H16350   8.385   6.903   5.761 -2.0124  1.8115 -1.9700
  862MOL0     H16351   8.278   6.922   5.896  0.0783 -0.2525  0.5153
  862MOL0     H16352   8.809   6.123   5.863 -1.1877  0.2435 -1.2523
  862MOL0     H16353   8.924   6.176   6.076 -2.0617  1.2017  1.0858
  862MOL0     H16354   9.093   6.060   6.436  0.1303 -2.8359  1.7271
  862MOL0     H16355   9.238   6.106   6.616 -0.6031  0.9095 -0.1618
  862MOL0     H16356  10.161   7.003   5.972  0.7286 -0.6104  0.5670
  862MOL0     H16357  10.359   7.100   5.927 -1.2706 -1.5040 -0.2127
  862MOL0     H16358  10.650   7.524   6.075  0.9603  0.3556 -0.2964
  862MOL0     H16359  10.886   7.619   6.049  1.1474 -0.7189 -0.5680
  862MOL0     H16360  11.273   7.389   6.088 -1.9840  2.5468  2.1094
  862MOL0     H16361  11.174   7.327   5.947 -2.3366  0.8902  0.2874
  862MOL0     H16362  11.360   7.471   5.869  0.7302  2.9343  0.6639
  862MOL0     H16363  11.276   7.600   5.946  0.4080  0.9374 -1.8618
  862MOL0     H16364  11.085   7.554   5.804  0.6382 -0.5386  1.9651
  862MOL0     H16365  11.146   7.397   5.745  1.2870 -0.5612 -2.1028
  862MOL0     H16366  11.266   7.677   5.685 -1.8511  1.2230 -3.1547
  862MOL0     H16367  11.170   7.578   5.570 -0.2386 -0.1129 -0.0947
  862MOL0     H16368  11.552   7.402   5.517  0.6492  0.2830 -1.7566
  862MOL0     H16369  11.041   7.227   6.120  0.7070  0.7286  0.6675
  862MOL0     H16370  10.831   7.127   6.119 -0.7151  0.4592 -0.1687
  863MOL0     O16371   8.029  10.624   8.572 -0.5665  0.1633  0.3888
  863MOL0     C16372   8.025  10.518   8.508  0.6946 -0.8414  0.3141
  863MOL0     O16373   7.931  10.474   8.421 -0.6726 -0.1756 -0.3833
  863MOL0     C16374   7.818  10.545   8.405  1.3929 -0.1115  0.3268
  863MOL0     C16375   7.719  10.556   8.499  0.5866  0.2920 -0.3331
  863MOL0     C16376   7.607  10.635   8.476 -0.0605  0.4225  0.0029
  863MOL0     C16377   7.583  10.698   8.348 -0.1862  0.1661  0.3520
  863MOL0     O16378   7.475  10.771   8.308  0.7113 -0.8064 -0.1460
  863MOL0     C16379   7.354  10.707   8.345 -0.3344 -0.8371 -0.1366
  863MOL0     C16380   7.245  10.762   8.251 -0.0473 -0.7222 -0.0843
  863MOL0     C16381   7.123  10.679   8.273 -0.4155  0.0057 -0.1826
  863MOL0     C16382   7.003  10.732   8.194 -0.7874  0.9509  0.0848
  863MOL0     C16383   6.880  10.644   8.206  0.2673 -0.0373 -0.3377
  863MOL0     C16384   6.752  10.726   8.179  0.4525 -0.0275  0.3115
  863MOL0     C16385   6.632  10.627   8.152  0.6045  0.6932  0.6424
  863MOL0     C16386   6.565  10.561   8.268  0.2350  0.4617  0.1976
  863MOL0     N16387   6.418  10.538   8.248  0.0053 -0.7377  0.2441
  863MOL0     C16388   6.363  10.453   8.152 -0.0630 -0.5659  0.0574
  863MOL0     C16389   6.230  10.457   8.179  0.0440 -0.5338  0.2229
  863MOL0     C16390   6.140  10.373   8.096  0.5461  0.0235  0.5971
  863MOL0     C16391   6.131  10.226   8.153  0.5851  0.0522 -0.3783
  863MOL0     C16392   6.098  10.236   8.303 -0.1334  0.2282 -0.2797
  863MOL0     C16393   5.961  10.304   8.343  0.1471 -1.2149 -0.2482
  863MOL0     O16394   5.856  10.259   8.255  0.4167  0.0890  0.3556
  863MOL0     C16395   5.730  10.276   8.295  0.2538 -0.2221 -0.0530
  863MOL0     C16396   5.684  10.368   8.392 -0.6032  0.1572 -0.5329
  863MOL0     C16397   5.552  10.363   8.436 -0.3978 -0.1438 -0.5269
  863MOL0     C16398   5.506  10.466   8.546  0.1014  1.2497 -0.8966
  863MOL0     C16399   5.455  10.267   8.388  0.7635 -1.3895  0.0133
  863MOL0     C16400   5.311  10.256   8.433 -0.9610  0.4049  0.1576
  863MOL0     O16401   5.279  10.251   8.559  0.2569  0.2336 -0.1568
  863MOL0     C16402   5.154  10.227   8.612  0.5125 -0.1481 -0.0790
  863MOL0     C16403   5.095  10.104   8.602 -0.3822  0.8758  0.8233
  863MOL0     C16404   4.981  10.061   8.661  0.0963 -0.3022 -0.2669
  863MOL0     C16405   4.912  10.160   8.731 -0.0432 -0.6924 -0.9093
  863MOL0     O16406   4.806  10.105   8.798  0.0889 -0.0341 -0.0894
  863MOL0     C16407   4.689  10.190   8.815 -0.3323  0.6236 -0.2603
  863MOL0     C16408   4.571  10.106   8.842  0.2399 -0.2483  0.6258
  863MOL0     C16409   4.518  10.023   8.725  0.5845  1.1249  0.4686
  863MOL0     C16410   4.383   9.957   8.766  0.1203  0.1249  0.1893
  863MOL0     C16411   4.306   9.899   8.651 -0.0476  0.3722 -0.9729
  863MOL0     C16412   4.184   9.821   8.698 -1.1534 -0.5637  0.2126
  863MOL0     C16413   4.081   9.797   8.579  0.3417 -0.3726  0.0248
  863MOL0     C16414   3.956   9.725   8.644  0.2105 -0.4533  0.5920
  863MOL0    Cl16415   3.830   9.697   8.520  0.2025  0.3287 -0.3351
  863MOL0     C16416   4.963  10.294   8.734  0.0086  0.6120  0.3315
  863MOL0     C16417   5.084  10.327   8.676  0.4443  0.0080  0.3028
  863MOL0     O16418   5.233  10.244   8.349 -0.2424 -0.2410  0.1930
  863MOL0     C16419   5.499  10.196   8.281  0.0241  0.0976  0.2901
  863MOL0     C16420   5.633  10.190   8.238  0.1184  0.7078  0.5120
  863MOL0     N16421   6.196  10.547   8.275 -0.1075 -0.2286  0.3077
  863MOL0     N16422   6.314  10.591   8.317  0.6291 -0.1232 -0.2918
  863MOL0     C16423   7.686  10.689   8.251 -0.0074  0.6748 -0.1397
  863MOL0     C16424   7.796  10.615   8.283  0.1700  0.2856 -0.1084
  863MOL0     C16425   8.147  10.430   8.519  0.3022 -0.1576 -0.2390
  863MOL0     C16426   8.158  10.304   8.458  0.5802 -0.6411  0.8050
  863MOL0     C16427   8.270  10.220   8.467  0.9623 -0.3874 -0.2177
  863MOL0     C16428   8.375  10.255   8.549 -0.5946 -0.7205 -0.8460
  863MOL0     O16429   8.483  10.177   8.584 -0.2940  0.0034 -0.2341
  863MOL0     C16430   8.471  10.034   8.550 -1.2300 -0.1070  0.3779
  863MOL0     C16431   8.422   9.949   8.666 -0.1021  0.0426 -0.0469
  863MOL0     C16432   8.411   9.802   8.640 -0.2301  0.3845  0.2601
  863MOL0     C16433   8.313   9.753   8.533  0.8120  0.0668 -0.0825
  863MOL0     C16434   8.178   9.784   8.585  0.4664  1.2302  0.4468
  863MOL0     C16435   8.067   9.827   8.622 -0.6639 -0.2985 -0.1791
  863MOL0     C16436   8.373  10.383   8.604  0.4388 -0.1321 -0.6517
  863MOL0     C16437   8.261  10.470   8.590  0.6004 -0.1477  0.2529
  863MOL0     H16438   7.725  10.502   8.593  0.9580  0.8418 -0.0342
  863MOL0     H16439   7.521  10.651   8.540 -2.3526 -1.2737 -2.4225
  863MOL0     H16440   7.354  10.597   8.349  0.1143 -0.8224  0.4949
  863MOL0     H16441   7.317  10.750   8.439 -0.7453  1.5438 -1.3092
  863MOL0     H16442   7.222  10.867   8.269 -0.7940 -0.4368 -2.3628
  863MOL0     H16443   7.283  10.758   8.148 -0.4170 -1.4366 -0.1942
  863MOL0     H16444   7.141  10.572   8.254 -0.7494 -0.4423  1.7997
  863MOL0     H16445   7.102  10.678   8.380  2.1453 -0.7620  0.3848
  863MOL0     H16446   6.972  10.824   8.244  1.3246  0.3813  2.6992
  863MOL0     H16447   7.014  10.744   8.086 -1.5300 -0.1559 -0.1371
  863MOL0     H16448   6.883  10.561   8.136  0.5193 -1.3268  1.1531
  863MOL0     H16449   6.873  10.596   8.304 -1.9929 -0.5533 -0.7002
  863MOL0     H16450   6.731  10.788   8.267 -2.3254 -0.5107  0.0800
  863MOL0     H16451   6.778  10.791   8.095  0.9976 -1.3725 -0.6000
  863MOL0     H16452   6.546  10.678   8.107 -1.6998 -1.5034  2.3009
  863MOL0     H16453   6.658  10.541   8.089 -1.5161  0.4269  0.0597
  863MOL0     H16454   6.584  10.621   8.358  1.1905 -0.2457  0.4751
  863MOL0     H16455   6.601  10.460   8.288 -1.0053  0.1428  0.9601
  863MOL0     H16456   6.416  10.385   8.085  1.6574 -1.2136  1.9961
  863MOL0     H16457   6.046  10.429   8.089 -1.1976 -2.8671 -1.3822
  863MOL0     H16458   6.184  10.355   7.998  1.6379 -1.4059  1.3136
  863MOL0     H16459   6.221  10.165   8.147  1.4250  0.8553  2.5074
  863MOL0     H16460   6.046  10.181   8.100  0.0967  0.4194  0.0757
  863MOL0     H16461   6.185  10.259   8.366  0.1434 -1.4085 -0.0247
  863MOL0     H16462   6.083  10.128   8.315  1.8456 -0.1832 -1.0547
  863MOL0     H16463   5.981  10.411   8.331 -0.2830 -0.9087  1.5087
  863MOL0     H16464   5.934  10.290   8.448 -0.5459  0.2252 -0.2182
  863MOL0     H16465   5.755  10.433   8.442  1.2525 -1.8462 -0.4143
  863MOL0     H16466   5.459  10.412   8.629  2.5487 -1.3620 -1.0695
  863MOL0     H16467   5.600  10.509   8.582 -0.5786  0.9260  1.4528
  863MOL0     H16468   5.440  10.542   8.504 -3.1408 -1.3179 -0.8853
  863MOL0     H16469   5.153  10.035   8.541  2.6911  2.2745  1.9293
  863MOL0     H16470   4.947   9.958   8.673  2.1026 -0.9694  0.0616
  863MOL0     H16471   4.705  10.250   8.904 -1.2428 -0.7665  0.8928
  863MOL0     H16472   4.676  10.261   8.732  2.6392  0.5971 -0.8694
  863MOL0     H16473   4.589  10.044   8.930 -1.8387 -0.2624  1.1059
  863MOL0     H16474   4.483  10.170   8.859 -1.3531 -2.5261  1.4889
  863MOL0     H16475   4.597   9.948   8.717 -0.8263 -0.5822  1.7353
  863MOL0     H16476   4.506  10.082   8.634  4.4417  0.0664 -0.9143
  863MOL0     H16477   4.408   9.871   8.828 -0.9252 -1.4349 -1.4430
  863MOL0     H16478   4.319  10.024   8.825 -2.2835  0.1566 -2.2316
  863MOL0     H16479   4.372   9.835   8.591  0.4886 -2.7075  2.4907
  863MOL0     H16480   4.269   9.982   8.591  0.6265  1.6305  0.2831
  863MOL0     H16481   4.221   9.727   8.739 -2.7517 -1.3565 -0.0655
  863MOL0     H16482   4.135   9.880   8.776 -0.3362  0.6580 -0.1840
  863MOL0     H16483   4.128   9.740   8.498  2.7867  0.9745  0.4031
  863MOL0     H16484   4.052   9.897   8.546 -0.6206 -0.4096  0.7089
  863MOL0     H16485   3.913   9.781   8.728 -0.5943  1.7803 -1.2103
  863MOL0     H16486   3.985   9.627   8.683 -1.4242 -1.0847  0.2712
  863MOL0     H16487   4.915  10.386   8.764  2.4034  2.1647 -0.3908
  863MOL0     H16488   5.126  10.427   8.681  2.4865 -0.8444  0.8752
  863MOL0     H16489   5.419  10.138   8.237 -1.1534  1.8779 -0.0538
  863MOL0     H16490   5.649  10.136   8.145 -1.3546 -0.8200  1.1027
  863MOL0     H16491   7.680  10.728   8.150  1.3701 -2.2113 -1.4499
  863MOL0     H16492   7.874  10.607   8.208 -0.9544  1.7055 -1.4895
  863MOL0     H16493   8.071  10.281   8.399 -0.6748  2.4966  1.2651
  863MOL0     H16494   8.247  10.129   8.413 -3.4332  0.4399 -0.1489
  863MOL0     H16495   8.419  10.019   8.455 -0.4551  1.4665 -0.3324
  863MOL0     H16496   8.573  10.004   8.524 -1.1321 -1.1169  1.8087
  863MOL0     H16497   8.324   9.984   8.699  0.2367 -0.5114  1.6398
  863MOL0     H16498   8.488   9.968   8.751  0.2467 -3.3200  0.5761
  863MOL0     H16499   8.378   9.756   8.734  0.4079  2.6146  1.6429
  863MOL0     H16500   8.514   9.768   8.626  0.2545  1.6744  0.6058
  863MOL0     H16501   8.329   9.645   8.522 -1.2583 -0.2971  0.0145
  863MOL0     H16502   8.330   9.794   8.433 -3.1402 -0.5974 -1.2230
  863MOL0     H16503   7.978   9.865   8.666 -1.6532 -1.5430 -1.0250
  863MOL0     H16504   8.433  10.395   8.693 -0.5707 -0.1725  0.0478
  863MOL0     H16505   8.262  10.556   8.656  0.4430 -1.5072  2.1117
  864MOL0     O16506   3.902   1.470   3.845  0.4665 -0.3554  0.1263
  864MOL0     C16507   3.952   1.410   3.934 -0.5692 -0.2409 -0.2805
  864MOL0     O16508   3.897   1.396   4.057 -0.0137 -0.0564 -0.3910
  864MOL0     C16509   3.794   1.484   4.088 -0.5941 -1.0103  0.3228
  864MOL0     C16510   3.833   1.618   4.109  0.4750 -0.9256  0.4306
  864MOL0     C16511   3.740   1.706   4.161 -0.7037 -0.7937 -0.2405
  864MOL0     C16512   3.605   1.669   4.196  0.6525 -0.8872 -0.5020
  864MOL0     O16513   3.509   1.747   4.268  0.2392  1.0368 -0.4976
  864MOL0     C16514   3.541   1.882   4.294 -0.7212 -0.4335  0.1840
  864MOL0     C16515   3.444   1.937   4.392  0.5551  0.0032 -0.5869
  864MOL0     C16516   3.441   2.089   4.413  0.2570 -0.5667  0.5073
  864MOL0     C16517   3.328   2.151   4.332 -0.1012 -0.4695 -0.1040
  864MOL0     C16518   3.243   2.260   4.409  0.4426  0.8242  0.1184
  864MOL0     C16519   3.133   2.324   4.325 -0.7871 -0.0548  0.6312
  864MOL0     C16520   3.041   2.419   4.411 -0.2155 -1.4770 -0.2969
  864MOL0     C16521   2.927   2.483   4.326 -0.4889 -0.7902  0.1197
  864MOL0     N16522   2.833   2.379   4.280 -1.1061  0.0609 -0.0645
  864MOL0     C16523   2.756   2.308   4.365  0.1598 -0.3904 -0.5711
  864MOL0     C16524   2.712   2.201   4.290  0.2025 -0.4803 -0.6191
  864MOL0     C16525   2.625   2.091   4.337 -0.4099  0.3405 -0.3461
  864MOL0     C16526   2.553   2.106   4.473  0.5474 -0.4948  0.0977
  864MOL0     C16527   2.470   1.983   4.511  1.2266  0.2649 -1.1099
  864MOL0     C16528   2.499   1.918   4.644  0.2495 -0.3298 -0.2107
  864MOL0     O16529   2.497   2.015   4.752 -0.2793  0.1727  0.1579
  864MOL0     C16530   2.376   2.049   4.804  0.2346  0.2193 -0.7036
  864MOL0     C16531   2.376   2.155   4.892 -0.0211 -0.3529 -0.0629
  864MOL0     C16532   2.258   2.188   4.968  0.4733 -0.3540  0.8049
  864MOL0     C16533   2.278   2.302   5.062 -0.3023  0.0529 -0.1302
  864MOL0     C16534   2.140   2.115   4.943 -0.7970 -0.1625 -0.6039
  864MOL0     C16535   2.011   2.146   5.026  1.2152  0.7855  0.9598
  864MOL0     O16536   1.907   2.070   4.988  0.9349 -0.6036  0.1629
  864MOL0     C16537   1.776   2.097   5.010  0.7372 -0.7366  0.6176
  864MOL0     C16538   1.684   2.004   4.956 -1.2837  0.0798  0.2703
  864MOL0     C16539   1.547   2.019   4.974 -0.2623  0.4406 -0.1675
  864MOL0     C16540   1.488   2.132   5.036 -0.8142 -0.4735  0.3203
  864MOL0     O16541   1.351   2.159   5.056 -0.3981 -0.1832 -0.1577
  864MOL0     C16542   1.252   2.056   5.020 -0.4326 -1.3463  0.2550
  864MOL0     C16543   1.104   2.106   5.021 -0.1141 -0.3802 -0.3916
  864MOL0     C16544   1.001   1.996   5.040  0.3069 -0.0200  0.1750
  864MOL0     C16545   0.863   2.040   4.992  0.1782 -0.1884 -0.0422
  864MOL0     C16546   0.767   1.924   5.033  0.4811 -0.0609 -0.2320
  864MOL0     C16547   0.627   1.946   4.993 -0.7956 -0.6758  0.0295
  864MOL0     C16548   0.603   1.961   4.838 -0.0580 -0.0354 -0.7348
  864MOL0     C16549   0.460   1.942   4.806  0.5482 -0.1073  0.2755
  864MOL0    Cl16550   0.361   2.090   4.842  0.5507 -0.2431  0.2785
  864MOL0     C16551   1.574   2.226   5.089 -0.4891 -0.1171  1.4284
  864MOL0     C16552   1.716   2.205   5.080  0.0029 -0.1904 -0.1266
  864MOL0     O16553   2.009   2.219   5.127 -0.2365 -0.5132 -0.3123
  864MOL0     C16554   2.141   2.012   4.843  0.2586 -0.4257  0.0975
  864MOL0     C16555   2.259   1.977   4.781  0.0758 -0.4528  0.5425
  864MOL0     N16556   2.767   2.210   4.168  0.0677 -0.3659  0.4543
  864MOL0     N16557   2.830   2.318   4.163  0.0291  0.1565 -0.4631
  864MOL0     C16558   3.567   1.542   4.161 -0.7024 -0.1663 -0.5918
  864MOL0     C16559   3.660   1.442   4.119 -0.7095 -0.3625  0.7216
  864MOL0     C16560   4.089   1.352   3.922 -0.2298  0.4867 -0.5189
  864MOL0     C16561   4.170   1.325   4.032 -0.0505  0.8651  0.6128
  864MOL0     C16562   4.295   1.277   4.019 -0.0282  0.4873  0.6245
  864MOL0     C16563   4.350   1.243   3.891 -0.3033  0.4185 -0.5265
  864MOL0     O16564   4.484   1.205   3.888  0.3899  0.3755  0.7919
  864MOL0     C16565   4.532   1.112   3.785  0.2510 -0.3637 -0.8731
  864MOL0     C16566   4.679   1.065   3.819  0.4333  1.1368  0.5601
  864MOL0     C16567   4.669   0.960   3.929 -0.4605 -0.7953 -0.7749
  864MOL0     C16568   4.800   0.892   3.950 -0.5261  0.1411  0.1353
  864MOL0     C16569   4.828   0.779   3.856  0.3028 -0.2179  1.1677
  864MOL0     C16570   4.823   0.682   3.779  0.8054 -0.5024 -0.0174
  864MOL0     C16571   4.272   1.278   3.777  0.1269 -0.9000 -0.2160
  864MOL0     C16572   4.143   1.329   3.792  0.7339 -0.2688 -0.2219
  864MOL0     H16573   3.935   1.650   4.095 -0.1148  1.0972  0.3503
  864MOL0     H16574   3.768   1.810   4.175 -0.1150 -0.6813 -2.0371
  864MOL0     H16575   3.642   1.894   4.335 -0.0064 -1.3219 -1.2016
  864MOL0     H16576   3.532   1.940   4.202  1.2842 -0.5375 -0.1260
  864MOL0     H16577   3.344   1.897   4.375 -0.1164  1.4901 -0.2392
  864MOL0     H16578   3.477   1.901   4.490  1.8340  2.9603  0.1806
  864MOL0     H16579   3.443   2.120   4.517 -2.8591  0.3246  0.4126
  864MOL0     H16580   3.535   2.133   4.378 -1.0988  0.3928 -2.2137
  864MOL0     H16581   3.380   2.190   4.243  1.8381  0.6964  1.4532
  864MOL0     H16582   3.264   2.078   4.281 -0.9663  0.5121 -0.4673
  864MOL0     H16583   3.204   2.218   4.501 -0.8876  4.1765  1.2554
  864MOL0     H16584   3.300   2.350   4.436 -3.2192  3.2959  0.3420
  864MOL0     H16585   3.174   2.367   4.232 -1.6419 -0.0506  0.2501
  864MOL0     H16586   3.068   2.242   4.294 -0.6994 -0.2945  1.0838
  864MOL0     H16587   2.992   2.374   4.498  0.2929 -1.5767 -0.0526
  864MOL0     H16588   3.101   2.502   4.450 -1.4342 -0.2154 -1.0568
  864MOL0     H16589   2.959   2.541   4.240  0.6055  1.8977  2.2097
  864MOL0     H16590   2.860   2.546   4.385 -2.0954 -1.1735 -1.1956
  864MOL0     H16591   2.745   2.323   4.472  0.3564 -1.6369 -0.3611
  864MOL0     H16592   2.552   2.066   4.260 -3.0478 -1.2538  2.4564
  864MOL0     H16593   2.701   2.014   4.352 -1.5666 -0.1663  4.1039
  864MOL0     H16594   2.486   2.192   4.483 -2.2642 -2.8121  3.4302
  864MOL0     H16595   2.630   2.119   4.549 -0.3441 -0.7983  1.0630
  864MOL0     H16596   2.454   1.907   4.434 -2.1659 -0.0401 -0.2289
  864MOL0     H16597   2.367   2.014   4.530  1.6260  0.7953  0.3724
  864MOL0     H16598   2.599   1.873   4.636  0.7867  0.5663  1.1289
  864MOL0     H16599   2.432   1.834   4.666  0.2009 -0.4243 -0.7096
  864MOL0     H16600   2.467   2.215   4.891  0.3207 -0.8657 -0.7965
  864MOL0     H16601   2.232   2.400   5.050  0.4923  0.9366  3.0322
  864MOL0     H16602   2.240   2.268   5.159 -2.2129  1.0416 -0.4848
  864MOL0     H16603   2.386   2.319   5.068 -0.2752 -0.1166 -0.1332
  864MOL0     H16604   1.718   1.910   4.913  1.2139  1.3479 -0.6956
  864MOL0     H16605   1.488   1.931   4.950  0.6404  0.2583 -1.8459
  864MOL0     H16606   1.279   2.008   4.926 -1.4899  0.0961 -0.8429
  864MOL0     H16607   1.259   1.983   5.102  2.1956 -1.4962 -0.0341
  864MOL0     H16608   1.089   2.182   5.098  0.8628 -0.1791 -0.3923
  864MOL0     H16609   1.081   2.142   4.920  1.9009 -0.6327 -0.9808
  864MOL0     H16610   0.992   1.971   5.146 -0.6479 -1.4181 -0.2110
  864MOL0     H16611   1.015   1.899   4.992 -2.7059 -1.8637  2.5956
  864MOL0     H16612   0.847   2.139   5.037  1.4462  0.2033 -0.3871
  864MOL0     H16613   0.862   2.046   4.883  0.8319  2.6191  0.0230
  864MOL0     H16614   0.765   1.905   5.141 -1.6480 -0.0151 -0.2322
  864MOL0     H16615   0.816   1.831   5.003  1.6516 -0.4531  2.5199
  864MOL0     H16616   0.559   1.871   5.036 -2.8370 -0.2787 -2.2735
  864MOL0     H16617   0.596   2.042   5.035  0.4770  0.8602 -2.3151
  864MOL0     H16618   0.677   1.893   4.794  2.1294  0.8113  1.4258
  864MOL0     H16619   0.627   2.061   4.801  0.6368 -0.6796 -2.1075
  864MOL0     H16620   0.420   1.855   4.859  0.7117  0.2743  1.0387
  864MOL0     H16621   0.461   1.925   4.698  1.1515  1.3552  0.0271
  864MOL0     H16622   1.531   2.320   5.123  0.4977  0.8975 -0.0061
  864MOL0     H16623   1.773   2.288   5.120 -1.9662  1.2724 -0.1921
  864MOL0     H16624   2.052   1.953   4.822 -0.4053  0.3389  0.6899
  864MOL0     H16625   2.257   1.893   4.713  4.0964 -1.9629  2.0126
  864MOL0     H16626   3.469   1.505   4.193  0.5054 -1.8405  1.4356
  864MOL0     H16627   3.627   1.339   4.109 -1.7017 -0.6049  4.7870
  864MOL0     H16628   4.135   1.352   4.131 -0.7923 -3.4677  1.7578
  864MOL0     H16629   4.355   1.248   4.106 -3.3263 -0.2788  2.8248
  864MOL0     H16630   4.472   1.022   3.773  0.0138 -0.4653  0.7911
  864MOL0     H16631   4.530   1.172   3.694  2.0333 -0.8313 -1.2612
  864MOL0     H16632   4.743   1.149   3.848  1.7565  0.1768  0.5314
  864MOL0     H16633   4.727   1.023   3.731 -0.8439  0.9233 -0.0574
  864MOL0     H16634   4.593   0.884   3.906 -0.9531 -0.9169  1.0639
  864MOL0     H16635   4.641   1.006   4.024  4.7523  1.0208  0.1794
  864MOL0     H16636   4.806   0.858   4.054  2.4080  0.1967  0.0682
  864MOL0     H16637   4.883   0.963   3.948 -0.3639 -0.0709 -1.1102
  864MOL0     H16638   4.808   0.594   3.720 -1.0931 -0.0760 -0.2468
  864MOL0     H16639   4.319   1.261   3.681  1.2886 -1.0139  0.3552
  864MOL0     H16640   4.078   1.342   3.707  0.1432  2.0334  0.4993
  865MOL0     O16641   0.738   6.428   7.472  0.0539 -0.3020  0.0572
  865MOL0     C16642   0.798   6.341   7.409  0.6009  0.2726 -0.3562
  865MOL0     O16643   0.741   6.217   7.379  0.5284 -0.3761  0.3453
  865MOL0     C16644   0.618   6.179   7.431  0.6855 -0.8632 -0.0507
  865MOL0     C16645   0.583   6.196   7.565  0.1749 -0.2021  0.2603
  865MOL0     C16646   0.464   6.142   7.608  0.1751 -0.0930 -0.2944
  865MOL0     C16647   0.366   6.084   7.521  0.3308 -1.0321 -0.0301
  865MOL0     O16648   0.248   6.025   7.548  0.1489 -0.1570  0.1978
  865MOL0     C16649   0.188   6.048   7.676  0.0819  0.1421 -0.8890
  865MOL0     C16650   0.131   6.193   7.671  1.2881 -0.9251 -0.6557
  865MOL0     C16651   0.026   6.224   7.558 -0.2794  0.5326  0.4750
  865MOL0     C16652  -0.088   6.125   7.564  0.2003 -0.0173 -0.1722
  865MOL0     C16653  -0.217   6.184   7.513  0.9639 -0.0769 -0.5413
  865MOL0     C16654  -0.234   6.185   7.360  1.2965  0.1106 -0.2832
  865MOL0     C16655  -0.320   6.302   7.310 -0.3834 -0.0906  0.1194
  865MOL0     C16656  -0.472   6.301   7.345  0.3191 -0.0821  0.0843
  865MOL0     N16657  -0.557   6.213   7.264 -0.0069  0.3326  0.0329
  865MOL0     C16658  -0.582   6.077   7.285 -0.7238 -0.2740  0.6683
  865MOL0     C16659  -0.689   6.051   7.200  0.7546 -0.0486  0.1523
  865MOL0     C16660  -0.767   5.920   7.185  0.1330 -0.8816 -0.1110
  865MOL0     C16661  -0.765   5.873   7.036  0.6373 -0.6380 -0.4117
  865MOL0     C16662  -0.848   5.745   7.013 -0.8372 -0.5374 -0.1713
  865MOL0     C16663  -0.984   5.780   6.954 -0.7789  0.8424  0.5162
  865MOL0     O16664  -1.077   5.673   6.963 -0.2279 -0.0411  0.1431
  865MOL0     C16665  -1.190   5.661   6.877  0.3101  0.1272  0.5399
  865MOL0     C16666  -1.212   5.742   6.759 -1.0056  0.2037 -0.1358
  865MOL0     C16667  -1.310   5.702   6.666  0.1753 -0.3758 -0.2627
  865MOL0     C16668  -1.335   5.792   6.544 -0.3432  0.1402 -0.5272
  865MOL0     C16669  -1.394   5.585   6.691 -0.1048  0.2542 -0.6311
  865MOL0     C16670  -1.496   5.525   6.602  0.0449 -0.1924  0.6493
  865MOL0     O16671  -1.562   5.414   6.648 -0.3928 -0.1000 -0.1335
  865MOL0     C16672  -1.663   5.365   6.567  0.1860  0.4080  0.8800
  865MOL0     C16673  -1.770   5.448   6.534  0.3129  0.1453 -0.0627
  865MOL0     C16674  -1.889   5.394   6.477 -0.1324 -0.3110 -0.4157
  865MOL0     C16675  -1.891   5.254   6.464 -0.3112 -0.1317  0.8736
  865MOL0     O16676  -2.011   5.208   6.408  0.2956  0.2462  0.0708
  865MOL0     C16677  -2.072   5.103   6.487 -0.0064  0.1252  0.3036
  865MOL0     C16678  -2.218   5.085   6.443  0.6656 -1.0626  0.1130
  865MOL0     C16679  -2.297   5.214   6.426 -0.2627  0.4615 -0.1634
  865MOL0     C16680  -2.448   5.181   6.393  0.4370  0.1881  0.3711
  865MOL0     C16681  -2.542   5.307   6.386  0.0695 -0.2824 -0.5648
  865MOL0     C16682  -2.509   5.375   6.254  0.0060 -0.0321  0.1460
  865MOL0     C16683  -2.589   5.505   6.252  0.1394  0.1368 -0.3945
  865MOL0     C16684  -2.567   5.599   6.128 -0.5798  0.3421  0.1475
  865MOL0    Cl16685  -2.658   5.525   5.994  0.0518 -0.0242 -0.1516
  865MOL0     C16686  -1.782   5.175   6.500 -0.3465  0.7377  0.1272
  865MOL0     C16687  -1.669   5.229   6.552  0.1477 -0.3497  0.5563
  865MOL0     O16688  -1.503   5.569   6.485 -0.5140  0.5933 -0.5884
  865MOL0     C16689  -1.371   5.518   6.816 -0.0672  0.0691  0.2450
  865MOL0     C16690  -1.274   5.557   6.911 -0.6231 -0.5367 -0.1541
  865MOL0     N16691  -0.730   6.168   7.131  0.5884  0.1676  0.0402
  865MOL0     N16692  -0.653   6.260   7.174  0.1875 -0.4401 -0.5919
  865MOL0     C16693   0.408   6.065   7.388  0.9350 -0.1341 -0.8066
  865MOL0     C16694   0.539   6.109   7.350 -0.0415  0.8884  0.6882
  865MOL0     C16695   0.943   6.356   7.374 -0.4792  0.5163  0.0879
  865MOL0     C16696   1.011   6.473   7.410 -0.6264 -0.2456  0.1998
  865MOL0     C16697   1.148   6.488   7.380  0.8831  0.1585  0.0457
  865MOL0     C16698   1.214   6.384   7.320 -1.2164 -0.1804 -0.1335
  865MOL0     O16699   1.341   6.409   7.283  0.0742 -0.5610  0.2719
  865MOL0     C16700   1.432   6.312   7.224  0.0120 -0.4849 -1.3127
  865MOL0     C16701   1.497   6.225   7.330 -0.1439  0.1852 -0.4268
  865MOL0     C16702   1.594   6.301   7.420 -0.3707  0.2235 -0.8761
  865MOL0     C16703   1.711   6.388   7.348  0.6074  0.4201  0.4867
  865MOL0     C16704   1.801   6.473   7.427 -0.5697  0.2973  0.1886
  865MOL0     C16705   1.864   6.548   7.498 -0.3212 -0.7925  0.1644
  865MOL0     C16706   1.145   6.266   7.286 -0.3468 -0.5790 -0.9128
  865MOL0     C16707   1.012   6.252   7.312  1.1964  0.6238 -0.7307
  865MOL0     H16708   0.661   6.237   7.628  1.6241  2.8633 -3.1877
  865MOL0     H16709   0.445   6.154   7.714 -0.5035  1.2430 -0.5505
  865MOL0     H16710   0.110   5.970   7.672  2.2880 -2.3110  0.6754
  865MOL0     H16711   0.252   6.020   7.760 -2.4690 -0.7762  0.8685
  865MOL0     H16712   0.086   6.212   7.769 -0.3173  2.2976 -1.8679
  865MOL0     H16713   0.209   6.270   7.672  2.5079 -2.0265  2.7704
  865MOL0     H16714  -0.014   6.324   7.576 -0.5939  0.6870 -0.9394
  865MOL0     H16715   0.069   6.212   7.458 -0.1921 -0.6519  0.6462
  865MOL0     H16716  -0.064   6.036   7.505 -0.9524 -1.0815  0.9154
  865MOL0     H16717  -0.105   6.093   7.667  1.4423 -0.5111 -0.0970
  865MOL0     H16718  -0.306   6.135   7.555 -0.6921  2.3195 -1.0953
  865MOL0     H16719  -0.223   6.287   7.549 -1.3158 -0.4023  0.2128
  865MOL0     H16720  -0.136   6.182   7.311  1.6254 -0.9842  0.3988
  865MOL0     H16721  -0.284   6.092   7.332  1.4917 -0.2448  0.5250
  865MOL0     H16722  -0.271   6.397   7.334 -1.2839  0.5728 -0.5920
  865MOL0     H16723  -0.316   6.307   7.200 -3.7768 -1.5905 -0.1880
  865MOL0     H16724  -0.510   6.403   7.335  2.0838  0.7984  1.6832
  865MOL0     H16725  -0.487   6.282   7.452 -0.4342 -2.2051 -0.3445
  865MOL0     H16726  -0.518   6.012   7.344 -1.0558 -1.6587 -0.4449
  865MOL0     H16727  -0.722   5.839   7.242  3.9364 -0.1750 -1.8129
  865MOL0     H16728  -0.872   5.938   7.212  0.2519 -2.1858  1.3322
  865MOL0     H16729  -0.661   5.855   7.006  0.0722  0.9306 -3.8077
  865MOL0     H16730  -0.801   5.959   6.978 -2.1904 -0.9106  0.7750
  865MOL0     H16731  -0.868   5.686   7.104 -1.0948 -0.7220 -0.3458
  865MOL0     H16732  -0.789   5.684   6.945  0.9369  2.0263 -1.0812
  865MOL0     H16733  -0.966   5.827   6.856 -1.2855  0.4612  0.2363
  865MOL0     H16734  -1.030   5.863   7.008 -2.3112  0.1998  0.2522
  865MOL0     H16735  -1.148   5.825   6.731  1.9409 -1.9418 -0.2890
  865MOL0     H16736  -1.284   5.887   6.561  4.0996 -1.9269 -0.9111
  865MOL0     H16737  -1.294   5.751   6.451  2.4390  1.2690  0.0978
  865MOL0     H16738  -1.443   5.802   6.534 -0.3150  4.1904  1.2549
  865MOL0     H16739  -1.752   5.553   6.553 -0.4220  0.1852  0.4666
  865MOL0     H16740  -1.966   5.460   6.439  0.7012  1.0511  0.1953
  865MOL0     H16741  -2.015   5.012   6.470 -1.3755 -0.4348 -1.6816
  865MOL0     H16742  -2.077   5.140   6.590  0.4483 -2.9897  1.5542
  865MOL0     H16743  -2.216   5.029   6.349 -3.7860 -1.0581 -0.2020
  865MOL0     H16744  -2.278   5.025   6.513  0.0580 -0.0640  0.4767
  865MOL0     H16745  -2.252   5.287   6.358  1.7080  1.6200  2.2147
  865MOL0     H16746  -2.307   5.263   6.523  1.7220  1.7537 -0.5656
  865MOL0     H16747  -2.447   5.134   6.294  1.2421  0.1194  0.4011
  865MOL0     H16748  -2.487   5.102   6.458 -2.1174 -0.3771 -1.6737
  865MOL0     H16749  -2.525   5.385   6.461  0.5016  0.6158 -1.5664
  865MOL0     H16750  -2.644   5.269   6.380  0.5514 -2.0455  1.1270
  865MOL0     H16751  -2.402   5.399   6.252  0.5742 -2.2812 -0.2473
  865MOL0     H16752  -2.520   5.313   6.164  1.2221  1.3466 -1.0190
  865MOL0     H16753  -2.575   5.576   6.334 -3.1049  2.2066 -1.4223
  865MOL0     H16754  -2.692   5.470   6.256  0.6953 -1.7506 -1.3475
  865MOL0     H16755  -2.462   5.616   6.105 -1.0792  0.9104 -1.8895
  865MOL0     H16756  -2.619   5.695   6.144 -2.5400 -0.7153  0.4614
  865MOL0     H16757  -1.782   5.067   6.505  3.1273  0.6701  1.9176
  865MOL0     H16758  -1.600   5.154   6.588 -0.2822 -2.8101 -3.2653
  865MOL0     H16759  -1.434   5.435   6.848  0.3246 -0.6784 -0.8577
  865MOL0     H16760  -1.264   5.513   7.009 -1.6786  0.6170  0.5049
  865MOL0     H16761   0.346   6.020   7.311 -1.2036 -2.0489  1.8310
  865MOL0     H16762   0.561   6.088   7.246 -0.8335  0.3671  0.6147
  865MOL0     H16763   0.952   6.547   7.463 -0.9982 -0.2327 -0.2258
  865MOL0     H16764   1.193   6.583   7.408 -0.5693  1.6372 -2.2903
  865MOL0     H16765   1.378   6.250   7.152 -0.1681 -3.0207  0.8551
  865MOL0     H16766   1.511   6.361   7.166  1.3043 -0.8607  0.1011
  865MOL0     H16767   1.547   6.139   7.283 -0.7914 -0.8710  0.7670
  865MOL0     H16768   1.421   6.175   7.390 -2.6364  1.5736 -2.2339
  865MOL0     H16769   1.645   6.225   7.480  0.3443  2.2343  1.2084
  865MOL0     H16770   1.531   6.365   7.482 -0.8894 -0.6777 -0.4594
  865MOL0     H16771   1.659   6.442   7.269 -1.4618  1.0927  2.2192
  865MOL0     H16772   1.767   6.309   7.297  0.8177  1.6872 -1.3106
  865MOL0     H16773   1.912   6.598   7.581  1.2303 -2.3297  0.2477
  865MOL0     H16774   1.197   6.182   7.242  1.4127  0.8429 -1.6860
  865MOL0     H16775   0.961   6.158   7.294 -1.4818  1.5441  1.2563
  866MOL0     O16776   4.571   2.921   9.983 -0.8734  0.3917  0.4639
  866MOL0     C16777   4.676   2.909  10.046  0.4786 -0.6429  0.1025
  866MOL0     O16778   4.679   2.903  10.185 -0.2617 -0.0701  0.0471
  866MOL0     C16779   4.564   2.942  10.255 -0.7381 -0.1261  0.2987
  866MOL0     C16780   4.563   3.051  10.335 -0.7650  0.1018  0.2611
  866MOL0     C16781   4.458   3.079  10.416 -0.1423  0.4768 -0.1003
  866MOL0     C16782   4.347   2.994  10.417 -0.4862 -0.3763  0.1187
  866MOL0     O16783   4.251   3.041  10.500 -0.7966 -0.4965  0.4624
  866MOL0     C16784   4.112   3.017  10.462 -0.5740  0.2357  0.1989
  866MOL0     C16785   4.038   3.087  10.583  0.5246 -1.0392  1.3095
  866MOL0     C16786   3.886   3.060  10.575  0.2174 -0.9084 -0.6097
  866MOL0     C16787   3.836   3.119  10.708  0.4750 -0.8969  0.5985
  866MOL0     C16788   3.688   3.119  10.697  0.5590 -0.0729 -0.0065
  866MOL0     C16789   3.624   3.103  10.835  0.2302 -0.2119  0.6000
  866MOL0     C16790   3.470   3.106  10.833 -0.1338 -0.2573  0.1110
  866MOL0     C16791   3.412   2.969  10.803  0.4789 -0.4093  0.0758
  866MOL0     N16792   3.262   2.964  10.826 -0.0436  0.5267  0.6850
  866MOL0     C16793   3.185   2.864  10.782  0.4574  0.2799 -0.4288
  866MOL0     C16794   3.064   2.888  10.833  0.1619 -0.2565 -0.0272
  866MOL0     C16795   2.934   2.812  10.809 -0.2537 -0.4581 -0.0322
  866MOL0     C16796   2.829   2.838  10.917  0.2114  0.4050  0.5395
  866MOL0     C16797   2.702   2.752  10.888  0.1145 -0.8329 -1.0391
  866MOL0     C16798   2.584   2.812  10.963  0.2054  0.9926  0.0835
  866MOL0     O16799   2.469   2.726  10.955 -0.2061 -0.3573  0.3041
  866MOL0     C16800   2.346   2.777  10.984 -0.2302  0.1968  0.0914
  866MOL0     C16801   2.323   2.912  10.996 -1.1167  0.2078 -0.1216
  866MOL0     C16802   2.183   2.959  11.007  0.0278 -0.6120 -0.0474
  866MOL0     C16803   2.152   3.107  11.023  0.0199  0.4482  1.2126
  866MOL0     C16804   2.075   2.863  11.027 -0.2832  0.3096 -0.3981
  866MOL0     C16805   1.934   2.894  11.028 -0.2663  0.8346 -0.3449
  866MOL0     O16806   1.844   2.807  11.093 -0.3298  0.4562  0.0522
  866MOL0     C16807   1.710   2.832  11.074 -0.8300  0.0199 -0.0800
  866MOL0     C16808   1.640   2.920  11.155 -0.2620 -0.1523  0.3918
  866MOL0     C16809   1.505   2.942  11.147 -0.0811  0.2629  0.0935
  866MOL0     C16810   1.428   2.878  11.051  0.3168  0.6178 -0.6316
  866MOL0     O16811   1.294   2.910  11.042  0.0310 -0.5816 -0.0722
  866MOL0     C16812   1.208   2.826  10.958  0.2223  0.4026 -0.2003
  866MOL0     C16813   1.067   2.872  10.978  0.6882  0.7799  0.6946
  866MOL0     C16814   0.983   2.784  10.883  0.3575 -0.6475  0.2822
  866MOL0     C16815   0.850   2.850  10.872  0.2906 -0.5448  0.0781
  866MOL0     C16816   0.761   2.782  10.766 -0.6019 -0.8479 -0.1774
  866MOL0     C16817   0.625   2.848  10.767 -0.1673  0.1396  0.0245
  866MOL0     C16818   0.524   2.771  10.679  0.4589  0.4827 -0.2435
  866MOL0     C16819   0.377   2.834  10.681  0.4206  0.8986 -0.7067
  866MOL0    Cl16820   0.404   2.999  10.607  0.3221 -0.4576 -0.5120
  866MOL0     C16821   1.496   2.785  10.967  1.1597 -0.4316 -0.5066
  866MOL0     C16822   1.634   2.771  10.980 -0.3575 -0.4405  0.0351
  866MOL0     O16823   1.897   2.995  10.971 -0.1532  0.1869 -0.6288
  866MOL0     C16824   2.108   2.727  11.018  0.1312  0.2171 -0.0924
  866MOL0     C16825   2.243   2.686  10.995  0.6122 -0.7031  0.1840
  866MOL0     N16826   3.072   3.003  10.917  0.2572 -0.4167  0.7628
  866MOL0     N16827   3.188   3.054  10.899  0.3999  0.0206  0.4327
  866MOL0     C16828   4.343   2.886  10.336  0.3154 -0.2261 -0.0853
  866MOL0     C16829   4.451   2.863  10.256 -0.5239  1.0029  0.3513
  866MOL0     C16830   4.801   2.887   9.969  0.8064 -0.0430  0.4959
  866MOL0     C16831   4.915   2.860  10.040  0.2312 -0.2499 -0.4632
  866MOL0     C16832   5.037   2.852   9.979 -0.8088 -0.3274  0.1876
  866MOL0     C16833   5.049   2.878   9.846 -0.3725  0.5971 -0.6271
  866MOL0     O16834   5.170   2.882   9.787 -0.2034 -0.3462 -0.3916
  866MOL0     C16835   5.184   2.940   9.655  0.2024 -0.2669 -0.2390
  866MOL0     C16836   5.328   2.972   9.634  0.1117  0.6132 -0.8864
  866MOL0     C16837   5.391   3.068   9.743 -1.0477  0.2375  0.0534
  866MOL0     C16838   5.323   3.203   9.740 -0.5418 -0.3159 -0.5065
  866MOL0     C16839   5.365   3.281   9.619  0.1222 -0.3604 -0.3410
  866MOL0     C16840   5.414   3.342   9.527  0.1636 -0.0777  0.2124
  866MOL0     C16841   4.934   2.904   9.773 -0.1369 -0.3820  0.3765
  866MOL0     C16842   4.807   2.909   9.829 -0.3821  0.7695  0.4635
  866MOL0     H16843   4.648   3.119  10.332 -0.0103 -0.8012  0.7284
  866MOL0     H16844   4.471   3.173  10.469  1.9483 -0.8017  1.8011
  866MOL0     H16845   4.095   3.047  10.359  0.0532 -4.2242 -1.4417
  866MOL0     H16846   4.106   2.908  10.457  1.1232  0.0802  0.7372
  866MOL0     H16847   4.086   3.049  10.673  0.8012 -1.4518  0.9908
  866MOL0     H16848   4.062   3.193  10.567 -3.2232 -0.2532 -0.1445
  866MOL0     H16849   3.841   3.112  10.490  1.4662  0.5670 -0.4186
  866MOL0     H16850   3.863   2.953  10.571  1.3192 -1.3251  2.0934
  866MOL0     H16851   3.870   3.060  10.794 -0.8778 -1.1280  0.9960
  866MOL0     H16852   3.873   3.220  10.728 -1.3423 -0.3804  1.5970
  866MOL0     H16853   3.647   3.211  10.654 -0.0120 -0.3482 -0.0701
  866MOL0     H16854   3.657   3.035  10.633  1.6984  0.4925 -1.3576
  866MOL0     H16855   3.659   3.020  10.898  2.3991  1.9225  2.4023
  866MOL0     H16856   3.660   3.192  10.887  0.9330 -0.2033  0.1058
  866MOL0     H16857   3.441   3.150  10.929  1.6166  3.5894 -0.9523
  866MOL0     H16858   3.432   3.177  10.759 -0.2380 -2.5186 -2.1548
  866MOL0     H16859   3.447   2.888  10.868 -2.0466 -2.8903 -1.4421
  866MOL0     H16860   3.424   2.940  10.698 -1.0385 -2.7813  0.4897
  866MOL0     H16861   3.211   2.774  10.727  3.0625 -1.8850  3.8002
  866MOL0     H16862   2.892   2.842  10.713 -0.4398  1.0184  0.4945
  866MOL0     H16863   2.956   2.705  10.798 -0.1241 -0.6193  1.6039
  866MOL0     H16864   2.802   2.944  10.915  2.0172  0.8957 -0.2479
  866MOL0     H16865   2.867   2.812  11.016  1.0453 -1.5188 -0.2467
  866MOL0     H16866   2.721   2.648  10.918  5.4289  0.9682  3.7142
  866MOL0     H16867   2.678   2.750  10.781 -4.5118 -0.8074 -0.2064
  866MOL0     H16868   2.575   2.908  10.911  2.2541  0.4745 -1.3053
  866MOL0     H16869   2.597   2.814  11.072  0.6444  2.5551  0.0247
  866MOL0     H16870   2.402   2.987  10.996 -0.4742 -0.3933 -2.5810
  866MOL0     H16871   2.096   3.129  11.114 -1.6516 -0.1121  0.3697
  866MOL0     H16872   2.243   3.165  11.008 -0.1240 -0.1773 -4.0073
  866MOL0     H16873   2.085   3.137  10.942  0.0559 -0.7330  0.7166
  866MOL0     H16874   1.702   2.981  11.221  2.2732  0.2811 -2.2174
  866MOL0     H16875   1.459   3.013  11.215  0.0665 -2.1796  2.9585
  866MOL0     H16876   1.234   2.836  10.852  1.4629 -1.5359 -0.1442
  866MOL0     H16877   1.219   2.719  10.980  0.6774  0.1761 -1.4347
  866MOL0     H16878   1.038   2.860  11.083 -0.6686  0.3737  0.2938
  866MOL0     H16879   1.048   2.977  10.954  1.8177  1.3725  2.2615
  866MOL0     H16880   0.965   2.685  10.925  0.2926 -1.3266 -1.2618
  866MOL0     H16881   1.019   2.772  10.780 -2.0253  1.2490 -0.8733
  866MOL0     H16882   0.798   2.841  10.968  0.8338 -1.1583  0.3199
  866MOL0     H16883   0.864   2.955  10.843 -2.3113 -0.8056 -2.6565
  866MOL0     H16884   0.747   2.678  10.797  0.8288 -1.5430 -1.6800
  866MOL0     H16885   0.809   2.777  10.667  1.4549 -3.0462  0.8224
  866MOL0     H16886   0.586   2.860  10.868 -2.6645 -0.1584 -0.8269
  866MOL0     H16887   0.629   2.948  10.724 -1.6413  0.6645  1.0277
  866MOL0     H16888   0.508   2.675  10.731 -0.9500  0.3628 -0.8428
  866MOL0     H16889   0.550   2.747  10.576  1.5476 -1.6331  0.4475
  866MOL0     H16890   0.326   2.840  10.778 -2.6237 -3.4662 -1.7490
  866MOL0     H16891   0.314   2.780  10.609  0.8486  1.4004 -1.4666
  866MOL0     H16892   1.449   2.731  10.885  1.1528 -1.2603  0.0313
  866MOL0     H16893   1.689   2.702  10.917  1.4361 -1.1459  2.2600
  866MOL0     H16894   2.031   2.652  11.029 -0.2640  0.7343  0.7541
  866MOL0     H16895   2.270   2.583  10.975  0.0108 -1.2643  2.0704
  866MOL0     H16896   4.259   2.817  10.341  0.6047 -0.5828 -0.0917
  866MOL0     H16897   4.459   2.783  10.184 -0.4160  0.5150  0.9033
  866MOL0     H16898   4.903   2.824  10.142 -1.4720  1.9763  0.1853
  866MOL0     H16899   5.123   2.822  10.038  0.0176  1.9766  0.2779
  866MOL0     H16900   5.144   2.866   9.586  2.5473 -2.1456  0.3032
  866MOL0     H16901   5.137   3.039   9.655  0.7566  0.1241  3.0345
  866MOL0     H16902   5.343   3.010   9.533  0.4986 -0.2021 -1.1411
  866MOL0     H16903   5.380   2.877   9.652 -0.9136  0.4543  1.6706
  866MOL0     H16904   5.498   3.072   9.720 -1.3605  0.5898 -1.4820
  866MOL0     H16905   5.383   3.026   9.843  1.0540  1.3662  0.7563
  866MOL0     H16906   5.346   3.255   9.834  0.4600  1.5204 -1.6913
  866MOL0     H16907   5.214   3.200   9.740 -0.5744  0.1493 -1.7107
  866MOL0     H16908   5.441   3.393   9.437 -0.3310 -0.6124 -0.2454
  866MOL0     H16909   4.939   2.921   9.666 -0.3858  1.7645  0.6780
  866MOL0     H16910   4.710   2.927   9.783 -0.9750  1.6631  1.9831
  867MOL0     O16911   9.085   1.196   9.208  0.3448 -0.1453 -0.2206
  867MOL0     C16912   9.153   1.222   9.110  0.0767  0.6695 -0.3727
  867MOL0     O16913   9.105   1.233   8.979  0.3676  0.4286  0.0968
  867MOL0     C16914   8.972   1.233   8.946 -0.2972 -0.3074  0.1062
  867MOL0     C16915   8.939   1.171   8.826 -0.8241 -0.5608 -0.9692
  867MOL0     C16916   8.804   1.167   8.779 -1.0032 -0.0979  0.1948
  867MOL0     C16917   8.724   1.261   8.838 -0.5749 -0.4109 -0.4864
  867MOL0     O16918   8.603   1.269   8.772  0.2854 -0.8160 -0.0969
  867MOL0     C16919   8.499   1.318   8.850  0.5976  0.2370 -0.3848
  867MOL0     C16920   8.359   1.279   8.794  0.1405  0.1137 -0.2117
  867MOL0     C16921   8.335   1.348   8.661 -0.5834  0.1005  0.3639
  867MOL0     C16922   8.228   1.279   8.573 -0.0703 -0.2690  0.6170
  867MOL0     C16923   8.086   1.311   8.615 -0.4455 -0.6342 -0.3470
  867MOL0     C16924   8.042   1.453   8.615  0.3595  0.6068 -0.5666
  867MOL0     C16925   8.088   1.543   8.496  0.4002  0.0385  1.6852
  867MOL0     C16926   8.056   1.482   8.359 -0.3441 -0.3314 -0.3123
  867MOL0     N16927   7.915   1.490   8.321  0.7429  0.0206  0.8835
  867MOL0     C16928   7.846   1.597   8.283 -1.1511 -0.0688  0.0517
  867MOL0     C16929   7.719   1.569   8.278  0.7087 -0.1868  0.9169
  867MOL0     C16930   7.597   1.643   8.238  1.0023 -0.4887 -0.2044
  867MOL0     C16931   7.600   1.675   8.093 -0.6892  0.5964 -0.2275
  867MOL0     C16932   7.472   1.723   8.042  0.8211 -0.5935 -0.3998
  867MOL0     C16933   7.478   1.762   7.901 -0.5587  0.7653  0.6258
  867MOL0     O16934   7.359   1.819   7.841  0.3711 -0.2909  0.2181
  867MOL0     C16935   7.262   1.739   7.791 -0.5797  0.2622  0.2548
  867MOL0     C16936   7.258   1.601   7.791 -0.0703  0.1126  0.6630
  867MOL0     C16937   7.150   1.526   7.751 -0.1440  0.1511  1.0396
  867MOL0     C16938   7.175   1.376   7.736 -0.6584 -0.2324 -0.8084
  867MOL0     C16939   7.023   1.588   7.723  0.2756  0.0500  0.6790
  867MOL0     C16940   6.903   1.532   7.686  0.6228  0.7058  0.0522
  867MOL0     O16941   6.801   1.611   7.651 -0.0425 -0.3470 -0.3414
  867MOL0     C16942   6.705   1.560   7.562  0.2149  0.2780 -0.4858
  867MOL0     C16943   6.736   1.472   7.458  0.0521  0.4818  1.2611
  867MOL0     C16944   6.631   1.436   7.369  0.5947 -0.8296  0.2797
  867MOL0     C16945   6.503   1.492   7.380  0.2418  1.1627 -0.5671
  867MOL0     O16946   6.398   1.462   7.295 -0.7472  0.1662 -0.4121
  867MOL0     C16947   6.413   1.387   7.183 -0.3670  0.2181 -0.0051
  867MOL0     C16948   6.289   1.380   7.104 -0.6931 -0.0841 -0.2345
  867MOL0     C16949   6.166   1.315   7.189 -0.4649 -0.3000  0.0545
  867MOL0     C16950   6.033   1.334   7.119 -0.1951 -0.1540  0.4346
  867MOL0     C16951   6.009   1.248   6.990  0.5209  0.1498  0.0400
  867MOL0     C16952   5.866   1.242   6.937 -0.8644  0.0079 -0.3598
  867MOL0     C16953   5.809   1.376   6.897 -0.0255 -0.2470  0.0815
  867MOL0     C16954   5.685   1.365   6.812  0.3261 -1.0296  0.4818
  867MOL0    Cl16955   5.558   1.268   6.893  0.0608 -0.0613  0.4179
  867MOL0     C16956   6.478   1.589   7.468  0.3597 -0.1183 -0.2462
  867MOL0     C16957   6.579   1.619   7.562  0.3087  0.0327  0.3703
  867MOL0     O16958   6.888   1.408   7.706 -0.0856 -0.1204 -0.4208
  867MOL0     C16959   7.034   1.726   7.702  0.7137 -1.1887  0.3451
  867MOL0     C16960   7.143   1.806   7.735  0.2204 -0.1072 -0.3106
  867MOL0     N16961   7.706   1.433   8.308  0.4276 -0.9175 -0.0073
  867MOL0     N16962   7.828   1.390   8.337 -0.1891  0.4338  0.0731
  867MOL0     C16963   8.762   1.336   8.952  0.4453  0.5542  0.5735
  867MOL0     C16964   8.888   1.322   9.012  0.5692  0.3182  0.2097
  867MOL0     C16965   9.302   1.238   9.111 -0.1638  0.3252 -0.5683
  867MOL0     C16966   9.374   1.253   8.995 -0.7582  0.8510  0.2731
  867MOL0     C16967   9.510   1.285   9.008  0.0202 -0.0299 -0.6073
  867MOL0     C16968   9.577   1.295   9.129  0.2504  0.0530 -0.0113
  867MOL0     O16969   9.713   1.319   9.142  0.5504 -0.4203  0.2890
  867MOL0     C16970   9.743   1.437   9.216 -0.7080  0.6473  0.2937
  867MOL0     C16971   9.879   1.498   9.165  0.1048 -0.6969  0.4492
  867MOL0     C16972   9.921   1.612   9.247 -0.5747 -0.8157 -0.4161
  867MOL0     C16973  10.026   1.571   9.349 -0.5496 -0.0703 -0.3026
  867MOL0     C16974   9.971   1.491   9.458 -0.6107  1.2329 -0.6914
  867MOL0     C16975   9.912   1.435   9.554 -0.0765  0.2501  0.3664
  867MOL0     C16976   9.501   1.275   9.249  0.0081  0.4875 -0.1663
  867MOL0     C16977   9.367   1.241   9.239 -0.0362 -0.7008  0.9526
  867MOL0     H16978   9.012   1.124   8.760  0.5741  0.2901 -0.0867
  867MOL0     H16979   8.757   1.104   8.705 -0.9965  0.3748 -0.2150
  867MOL0     H16980   8.505   1.276   8.950 -2.6166  0.0640 -0.1428
  867MOL0     H16981   8.515   1.423   8.879 -0.2495  0.1632  0.3964
  867MOL0     H16982   8.350   1.170   8.792  0.3577 -0.4116  6.0889
  867MOL0     H16983   8.280   1.323   8.856 -0.0813  2.3780 -1.9850
  867MOL0     H16984   8.303   1.449   8.689 -0.5863 -0.4121  2.4395
  867MOL0     H16985   8.425   1.362   8.602  0.3540 -0.2921  1.6429
  867MOL0     H16986   8.234   1.310   8.469 -1.5889  1.0036  0.8621
  867MOL0     H16987   8.253   1.173   8.567  1.2955  0.0062  1.1080
  867MOL0     H16988   8.021   1.249   8.552 -2.6722  1.8924 -0.7412
  867MOL0     H16989   8.065   1.285   8.719  1.5985 -0.3956  0.1636
  867MOL0     H16990   7.934   1.440   8.608  0.4620 -2.4058  1.3824
  867MOL0     H16991   8.073   1.503   8.708 -0.7349 -1.6161  1.0748
  867MOL0     H16992   8.042   1.642   8.505  2.2574  1.0240  0.9616
  867MOL0     H16993   8.196   1.560   8.502  0.8517 -2.5427  2.2868
  867MOL0     H16994   8.106   1.386   8.348  6.0299  2.4755 -0.2944
  867MOL0     H16995   8.107   1.549   8.288 -1.2100  2.6741  1.6971
  867MOL0     H16996   7.879   1.696   8.252 -0.9033 -0.3096 -0.4738
  867MOL0     H16997   7.510   1.579   8.250 -0.1614  1.2212  0.8964
  867MOL0     H16998   7.579   1.725   8.308 -2.2541 -0.3177 -1.0977
  867MOL0     H16999   7.632   1.582   8.045  1.0593 -0.5270  2.7786
  867MOL0     H17000   7.678   1.752   8.095 -0.9920  0.8951  0.4968
  867MOL0     H17001   7.429   1.802   8.104  0.7595 -0.4993 -0.5620
  867MOL0     H17002   7.396   1.645   8.051 -0.7720  0.9615  0.0233
  867MOL0     H17003   7.508   1.678   7.837 -0.2091  1.8219 -0.6516
  867MOL0     H17004   7.560   1.835   7.891  0.2998 -0.4394 -2.2198
  867MOL0     H17005   7.349   1.552   7.823  0.3989  0.6922  0.2287
  867MOL0     H17006   7.272   1.355   7.782 -0.9393 -0.5349 -0.3347
  867MOL0     H17007   7.102   1.304   7.775  0.7861 -3.0225 -2.9309
  867MOL0     H17008   7.191   1.350   7.631  0.6917  0.3038 -0.7535
  867MOL0     H17009   6.828   1.417   7.441 -1.5813 -1.5967 -1.6597
  867MOL0     H17010   6.643   1.362   7.290 -4.3881 -0.9180 -0.7480
  867MOL0     H17011   6.488   1.435   7.121  0.4096  0.7500  1.2974
  867MOL0     H17012   6.434   1.286   7.218 -2.5180 -1.7196 -3.7011
  867MOL0     H17013   6.280   1.484   7.069  2.8130 -0.4264 -2.7207
  867MOL0     H17014   6.312   1.327   7.011  0.0101  1.0850 -0.7495
  867MOL0     H17015   6.159   1.366   7.285  3.4453  1.9265 -0.6429
  867MOL0     H17016   6.181   1.209   7.214 -0.2895 -0.9023 -2.3818
  867MOL0     H17017   5.959   1.319   7.199  1.8785  0.0664  2.5159
  867MOL0     H17018   6.034   1.439   7.090 -0.8669 -0.3101 -0.1680
  867MOL0     H17019   6.048   1.148   7.012  2.4266  1.0765  1.1750
  867MOL0     H17020   6.072   1.280   6.906  0.3347  1.5133  0.3904
  867MOL0     H17021   5.873   1.170   6.855  1.3931 -0.3980  0.1086
  867MOL0     H17022   5.798   1.190   7.005 -0.3151 -0.6418 -0.2909
  867MOL0     H17023   5.885   1.429   6.839 -1.8115 -0.8110 -3.0150
  867MOL0     H17024   5.792   1.431   6.990 -1.2398  0.0634 -0.3041
  867MOL0     H17025   5.707   1.322   6.714 -2.2065 -0.0886 -0.5950
  867MOL0     H17026   5.638   1.462   6.791 -0.8575 -2.1122 -2.3783
  867MOL0     H17027   6.381   1.637   7.472 -0.3961 -1.4897 -1.2376
  867MOL0     H17028   6.558   1.700   7.631 -2.8334 -0.4407  0.0952
  867MOL0     H17029   6.939   1.777   7.691  1.1145  0.1044  2.3690
  867MOL0     H17030   7.138   1.913   7.722 -0.4672 -0.3358 -2.3029
  867MOL0     H17031   8.692   1.413   8.984  2.5349  2.2036  1.4056
  867MOL0     H17032   8.914   1.381   9.100 -2.3113  0.8964  0.7816
  867MOL0     H17033   9.335   1.253   8.894 -0.4967  1.5261  0.1712
  867MOL0     H17034   9.558   1.304   8.912  1.7713  2.4812  0.6603
  867MOL0     H17035   9.657   1.504   9.216 -1.5083 -0.3212 -1.2245
  867MOL0     H17036   9.753   1.404   9.320  0.5011 -1.2212 -0.3453
  867MOL0     H17037   9.858   1.525   9.061  1.0176  1.8323  0.8478
  867MOL0     H17038   9.957   1.421   9.171  0.5096 -0.7345 -3.1327
  867MOL0     H17039   9.832   1.643   9.302 -1.0793 -2.2864 -0.3712
  867MOL0     H17040   9.953   1.692   9.179 -2.4800 -1.0124 -1.6172
  867MOL0     H17041  10.080   1.651   9.399  0.4807 -1.4529  0.9074
  867MOL0     H17042  10.105   1.510   9.304 -1.7636 -2.4156  0.5499
  867MOL0     H17043   9.872   1.400   9.647  0.0119 -3.6238 -0.8653
  867MOL0     H17044   9.557   1.265   9.341 -3.3344 -3.6350  1.7635
  867MOL0     H17045   9.314   1.215   9.330 -2.5763  0.3261 -0.1322
  868MOL0     O17046   2.035   8.774   5.954  0.2220  0.3662  0.7634
  868MOL0     C17047   2.138   8.822   6.010  0.2447  1.1267 -0.1275
  868MOL0     O17048   2.147   8.941   6.078  0.9126 -0.1298  0.5654
  868MOL0     C17049   2.019   8.991   6.116  0.1915  0.5721  0.4339
  868MOL0     C17050   1.943   8.930   6.219 -0.7892 -0.0112  0.1873
  868MOL0     C17051   1.819   8.985   6.260 -0.8822  1.1682 -0.0452
  868MOL0     C17052   1.771   9.101   6.201  0.0409 -0.3960  0.1055
  868MOL0     O17053   1.661   9.168   6.249 -0.4312 -0.2569  0.3802
  868MOL0     C17054   1.553   9.079   6.287  0.7702 -0.3999  0.3568
  868MOL0     C17055   1.412   9.143   6.266 -0.0882  0.7252  0.3458
  868MOL0     C17056   1.371   9.222   6.399 -0.2103  0.0252  1.4425
  868MOL0     C17057   1.454   9.355   6.408  1.0727  0.7431 -0.0738
  868MOL0     C17058   1.418   9.444   6.534  0.1913 -0.1094  0.1252
  868MOL0     C17059   1.276   9.433   6.582  0.0408 -0.1029 -0.5186
  868MOL0     C17060   1.253   9.549   6.673 -0.1839  0.2394 -0.0569
  868MOL0     C17061   1.104   9.540   6.724  0.0080 -0.2598 -0.0373
  868MOL0     N17062   1.080   9.415   6.804 -1.0555 -0.4061  0.0537
  868MOL0     C17063   1.177   9.361   6.886  0.0789 -0.1548  0.0842
  868MOL0     C17064   1.117   9.241   6.923 -0.1277 -0.6172  0.6711
  868MOL0     C17065   1.194   9.128   7.002  0.5569 -0.6718 -0.4867
  868MOL0     C17066   1.332   9.094   6.944 -0.8875  0.0552 -0.6362
  868MOL0     C17067   1.325   9.005   6.819 -1.0152  0.2394  0.2180
  868MOL0     C17068   1.460   8.937   6.780 -0.7149  0.1706  0.7536
  868MOL0     O17069   1.536   9.050   6.733 -0.1137  0.7389 -0.5401
  868MOL0     C17070   1.666   9.029   6.696  0.0158  0.5781  0.9051
  868MOL0     C17071   1.719   9.140   6.633 -0.4259  0.8054  0.0970
  868MOL0     C17072   1.855   9.133   6.593  0.8940  0.5912 -0.5925
  868MOL0     C17073   1.895   9.257   6.517  0.9914 -0.2780  0.2763
  868MOL0     C17074   1.938   9.017   6.610 -0.3310 -0.3504  0.4367
  868MOL0     C17075   2.081   9.023   6.585 -0.4059  0.0781 -0.3136
  868MOL0     O17076   2.129   8.911   6.535  0.2249 -0.3926  0.4491
  868MOL0     C17077   2.254   8.908   6.465 -0.9928 -0.8104  0.5081
  868MOL0     C17078   2.316   8.784   6.440  0.1295 -0.0081 -0.7677
  868MOL0     C17079   2.444   8.773   6.382 -0.1782  0.5397  0.6526
  868MOL0     C17080   2.515   8.882   6.346 -0.4532  0.1684  0.1016
  868MOL0     O17081   2.641   8.853   6.290 -0.0513 -0.5792 -0.2047
  868MOL0     C17082   2.703   8.972   6.237 -0.5983  0.6782 -0.1742
  868MOL0     C17083   2.833   8.937   6.172  0.7157  0.5668 -0.0392
  868MOL0     C17084   2.936   8.899   6.275  0.4992  1.2665 -0.2106
  868MOL0     C17085   3.063   8.854   6.210 -0.8579  0.4571  1.1949
  868MOL0     C17086   3.179   8.846   6.309 -0.4411  0.1509 -0.5954
  868MOL0     C17087   3.310   8.808   6.253 -0.3396 -0.4679  0.7310
  868MOL0     C17088   3.320   8.655   6.216  0.5169  0.7550 -0.0122
  868MOL0     C17089   3.333   8.563   6.341 -0.8482 -0.4219  0.1943
  868MOL0    Cl17090   3.351   8.389   6.294 -0.0366  0.1402 -0.2853
  868MOL0     C17091   2.452   9.005   6.365  0.3172 -0.2475  0.0298
  868MOL0     C17092   2.328   9.018   6.414  0.7244  0.3516 -0.7618
  868MOL0     O17093   2.144   9.119   6.626 -0.7471  0.2533  0.4993
  868MOL0     C17094   1.881   8.903   6.659 -0.4516 -0.0362 -0.3914
  868MOL0     C17095   1.749   8.916   6.711  1.4455  0.3376  0.4038
  868MOL0     N17096   0.985   9.235   6.875  0.8700 -0.1156 -0.0217
  868MOL0     N17097   0.973   9.335   6.798  0.4577  0.6234  0.9285
  868MOL0     C17098   1.842   9.168   6.105  1.1688 -0.8028 -0.3922
  868MOL0     C17099   1.964   9.114   6.060  0.1383  0.1482  0.0864
  868MOL0     C17100   2.265   8.742   5.976  0.3880  0.2839  0.1865
  868MOL0     C17101   2.266   8.611   5.917 -0.1125 -0.6215  0.7754
  868MOL0     C17102   2.378   8.528   5.916 -0.4028 -0.0189 -0.7284
  868MOL0     C17103   2.499   8.583   5.967  0.1176 -0.7332 -0.7108
  868MOL0     O17104   2.612   8.503   5.971  0.2862  0.3244  0.6006
  868MOL0     C17105   2.733   8.558   5.913  0.5339 -0.4998  0.9324
  868MOL0     C17106   2.856   8.539   6.003 -0.1180 -0.2654  0.0553
  868MOL0     C17107   2.889   8.392   6.042  1.0040 -0.6647  0.3082
  868MOL0     C17108   3.019   8.385   6.102  0.0691 -0.0198  0.1978
  868MOL0     C17109   3.011   8.427   6.240 -0.6049 -0.5663  0.1423
  868MOL0     C17110   2.998   8.462   6.356  1.0585  0.3557 -0.1290
  868MOL0     C17111   2.501   8.712   6.022 -0.1474 -0.0426  0.6172
  868MOL0     C17112   2.383   8.782   6.042 -0.4120  0.5432  0.3186
  868MOL0     H17113   1.983   8.839   6.261  1.3502  1.5074  1.6684
  868MOL0     H17114   1.764   8.930   6.336  0.8267 -0.8304 -0.1687
  868MOL0     H17115   1.557   8.984   6.233  3.1432 -0.7004  0.9520
  868MOL0     H17116   1.552   9.044   6.391  0.4848  0.0342  0.5058
  868MOL0     H17117   1.410   9.206   6.177 -1.2357  1.5139  0.9051
  868MOL0     H17118   1.337   9.063   6.254  0.1022  0.6454 -0.3533
  868MOL0     H17119   1.264   9.245   6.402 -0.6075 -0.9724 -1.6654
  868MOL0     H17120   1.408   9.168   6.487  1.1110 -2.5471 -0.5599
  868MOL0     H17121   1.561   9.334   6.393  0.5163 -0.8501 -2.4894
  868MOL0     H17122   1.436   9.408   6.314 -1.1267 -2.9357 -1.9861
  868MOL0     H17123   1.492   9.411   6.607 -0.3500  1.2935  1.3589
  868MOL0     H17124   1.429   9.544   6.490 -2.5823 -0.6756 -2.1719
  868MOL0     H17125   1.209   9.438   6.496 -1.1639 -1.4784  0.2935
  868MOL0     H17126   1.251   9.335   6.623 -1.6003  1.4440  2.5277
  868MOL0     H17127   1.323   9.550   6.757  0.3434 -0.2381 -0.4863
  868MOL0     H17128   1.258   9.634   6.605 -2.1830 -0.0308 -0.6250
  868MOL0     H17129   1.041   9.529   6.635  0.1749 -1.8433  0.0143
  868MOL0     H17130   1.065   9.630   6.773 -1.3808 -0.3829 -0.8386
  868MOL0     H17131   1.271   9.400   6.925 -0.0477 -0.0594  0.2940
  868MOL0     H17132   1.194   9.174   7.101 -0.3215 -0.8436 -0.3946
  868MOL0     H17133   1.144   9.031   7.007 -0.8108  0.0426  0.6152
  868MOL0     H17134   1.385   9.043   7.025  2.0871  0.4941 -2.1855
  868MOL0     H17135   1.386   9.187   6.924 -4.4684  2.1169 -1.6692
  868MOL0     H17136   1.278   9.064   6.740 -0.7949  3.7841  2.5410
  868MOL0     H17137   1.251   8.931   6.851  0.0045 -0.7371  0.3832
  868MOL0     H17138   1.435   8.870   6.697 -0.5106 -3.4411  3.3793
  868MOL0     H17139   1.504   8.874   6.859  0.8700 -0.5208 -0.6213
  868MOL0     H17140   1.655   9.220   6.598 -1.6173 -0.1773 -0.0417
  868MOL0     H17141   1.979   9.237   6.450 -1.4653  1.2568 -3.5343
  868MOL0     H17142   1.808   9.277   6.455  1.0887 -1.2807 -0.1966
  868MOL0     H17143   1.927   9.335   6.587  1.0819  1.0524 -1.2068
  868MOL0     H17144   2.260   8.696   6.466  0.1943 -0.6063 -2.5137
  868MOL0     H17145   2.482   8.672   6.391 -0.0067  0.7777  3.4637
  868MOL0     H17146   2.643   9.019   6.158  0.7131 -0.8549 -2.1784
  868MOL0     H17147   2.723   9.039   6.322 -2.1089 -0.1667  0.9018
  868MOL0     H17148   2.817   8.862   6.094 -0.0376  0.0910  0.5585
  868MOL0     H17149   2.875   9.024   6.120  1.0456  0.9076  0.7873
  868MOL0     H17150   2.896   8.816   6.332  0.9257 -1.4837 -3.5924
  868MOL0     H17151   2.952   8.983   6.343  0.9979  1.0345 -0.0346
  868MOL0     H17152   3.040   8.761   6.156 -2.2337  2.1971 -1.3994
  868MOL0     H17153   3.092   8.931   6.139  2.5650 -1.1934  0.5944
  868MOL0     H17154   3.144   8.776   6.386 -0.3075 -1.1564 -1.6775
  868MOL0     H17155   3.196   8.947   6.346  0.0963 -0.5315  1.1541
  868MOL0     H17156   3.337   8.874   6.170  2.1125  1.7057  3.0903
  868MOL0     H17157   3.385   8.831   6.329 -0.5110  3.8990 -0.1881
  868MOL0     H17158   3.415   8.645   6.164 -0.5779  0.0803 -2.0053
  868MOL0     H17159   3.247   8.629   6.138  0.8730  2.7483 -1.0836
  868MOL0     H17160   3.238   8.559   6.395 -0.3843  1.9480  1.3006
  868MOL0     H17161   3.417   8.592   6.404 -0.7504 -0.1516 -0.0620
  868MOL0     H17162   2.512   9.093   6.344 -0.9579  0.5945 -0.2329
  868MOL0     H17163   2.278   9.114   6.423 -1.0751 -0.5452 -0.7358
  868MOL0     H17164   1.938   8.811   6.670 -0.1427  0.2717  0.7561
  868MOL0     H17165   1.695   8.835   6.758  0.5447  0.6524 -0.0684
  868MOL0     H17166   1.800   9.260   6.065 -1.7634 -2.1767 -0.7536
  868MOL0     H17167   2.031   9.161   5.988 -0.4632 -0.3387 -0.8154
  868MOL0     H17168   2.176   8.587   5.862  0.8546  1.3554 -1.8667
  868MOL0     H17169   2.381   8.430   5.869  1.5767 -0.7970  0.8338
  868MOL0     H17170   2.765   8.515   5.818  0.0005 -2.6561  1.6795
  868MOL0     H17171   2.727   8.664   5.886  3.1215 -0.8128 -1.2337
  868MOL0     H17172   2.849   8.607   6.089 -2.1244 -0.3553 -0.0008
  868MOL0     H17173   2.942   8.578   5.947 -0.6544  1.5816  0.4615
  868MOL0     H17174   2.896   8.326   5.955  1.7558 -1.6049  1.0587
  868MOL0     H17175   2.814   8.349   6.108  1.8368 -4.2312 -0.8418
  868MOL0     H17176   3.094   8.437   6.042 -2.1923  3.1811 -0.0766
  868MOL0     H17177   3.045   8.278   6.104 -1.3657 -0.3946 -0.1526
  868MOL0     H17178   2.987   8.493   6.458 -0.6526  1.3480 -0.5777
  868MOL0     H17179   2.591   8.755   6.064  2.0863 -0.6320 -3.1066
  868MOL0     H17180   2.386   8.872   6.103 -0.6410 -0.3920  1.7643
  869MOL0     O17181   0.734   3.383  10.867 -0.1096 -0.7007 -0.4855
  869MOL0     C17182   0.793   3.477  10.921  0.2550 -0.5860  0.2196
  869MOL0     O17183   0.744   3.606  10.924 -0.1617  0.5870  0.7483
  869MOL0     C17184   0.616   3.614  10.858  0.6168 -1.0649 -0.0510
  869MOL0     C17185   0.610   3.638  10.719  0.0646  0.8360 -0.6668
  869MOL0     C17186   0.493   3.661  10.666  0.7795  0.0773  0.5868
  869MOL0     C17187   0.369   3.673  10.736 -0.5717 -0.1982  0.0028
  869MOL0     O17188   0.257   3.726  10.679  0.2686 -0.2440 -0.2733
  869MOL0     C17189   0.243   3.709  10.538 -0.6049  0.2205  0.7819
  869MOL0     C17190   0.100   3.762  10.510  0.0505 -0.8324 -0.1458
  869MOL0     C17191   0.103   3.917  10.493  0.5960  0.3369 -0.3996
  869MOL0     C17192  -0.031   3.995  10.467  0.3444  0.3581 -0.5211
  869MOL0     C17193  -0.016   4.144  10.473  0.3013  0.3961  0.5633
  869MOL0     C17194  -0.146   4.203  10.437  0.4278 -0.3709 -0.5153
  869MOL0     C17195  -0.135   4.348  10.404 -0.1227 -0.5395 -0.5733
  869MOL0     C17196  -0.272   4.416  10.397 -0.1694 -0.1855 -0.0770
  869MOL0     N17197  -0.316   4.409  10.255 -0.2466 -0.0298  0.5334
  869MOL0     C17198  -0.363   4.518  10.186 -0.1083  0.3660  0.4757
  869MOL0     C17199  -0.414   4.477  10.074 -0.4343  0.0508 -0.4670
  869MOL0     C17200  -0.473   4.568   9.972  0.2249  0.8145 -0.0695
  869MOL0     C17201  -0.614   4.528   9.936  0.3285  0.1498 -0.0606
  869MOL0     C17202  -0.715   4.530  10.057 -0.5683  1.1064 -0.0898
  869MOL0     C17203  -0.843   4.451  10.042 -0.2069 -0.2297 -0.2222
  869MOL0     O17204  -0.904   4.476   9.914 -0.2791  0.2866  0.2076
  869MOL0     C17205  -0.994   4.388   9.867  0.0739 -0.2035  0.4674
  869MOL0     C17206  -1.026   4.396   9.733 -0.6547  0.6547  0.2405
  869MOL0     C17207  -1.124   4.313   9.674 -0.7701  0.0357  0.2215
  869MOL0     C17208  -1.170   4.328   9.530  0.6897 -0.6063  0.0454
  869MOL0     C17209  -1.185   4.214   9.757 -0.3161 -0.0540  0.0072
  869MOL0     C17210  -1.296   4.126   9.707 -0.2069 -0.7876 -0.4557
  869MOL0     O17211  -1.290   4.077   9.575 -0.0426  0.0147 -0.2762
  869MOL0     C17212  -1.368   3.976   9.530  0.5006 -0.4528  0.0786
  869MOL0     C17213  -1.427   3.878   9.613  0.0628 -0.6022 -0.4734
  869MOL0     C17214  -1.499   3.769   9.563  0.2609  0.0793  0.1894
  869MOL0     C17215  -1.499   3.744   9.428  0.3665  0.0059  1.0769
  869MOL0     O17216  -1.557   3.633   9.375 -0.2415 -0.2058  0.9133
  869MOL0     C17217  -1.695   3.603   9.410 -0.2909  0.2074  0.3332
  869MOL0     C17218  -1.735   3.473   9.345 -0.5567 -0.5074 -0.3743
  869MOL0     C17219  -1.711   3.473   9.195  0.6435  0.0042 -0.4982
  869MOL0     C17220  -1.777   3.587   9.112  0.2371 -0.2711  0.6874
  869MOL0     C17221  -1.931   3.600   9.122 -0.9666  0.1369 -0.2651
  869MOL0     C17222  -1.986   3.695   9.021  0.2488 -0.4723  0.9068
  869MOL0     C17223  -2.137   3.721   9.027  0.1083  1.6336  0.1350
  869MOL0     C17224  -2.200   3.744   8.892 -0.2379  0.1403 -1.3876
  869MOL0    Cl17225  -2.134   3.890   8.819  0.0412 -0.0977 -0.2451
  869MOL0     C17226  -1.421   3.830   9.348 -0.3380 -0.1044 -0.3283
  869MOL0     C17227  -1.368   3.951   9.393 -0.1759 -0.0968  0.2365
  869MOL0     O17228  -1.385   4.104   9.794 -0.8712 -0.5552  0.0898
  869MOL0     C17229  -1.155   4.207   9.900 -0.5068  0.1261  0.9584
  869MOL0     C17230  -1.054   4.289   9.951  0.6398  0.0561 -1.0668
  869MOL0     N17231  -0.412   4.336  10.073 -0.0357  0.0224  0.3794
  869MOL0     N17232  -0.351   4.300  10.178 -0.7593 -0.9180 -0.4557
  869MOL0     C17233   0.377   3.657  10.873  0.1845 -0.7521  0.1362
  869MOL0     C17234   0.499   3.627  10.937  0.1393  0.4595  0.8132
  869MOL0     C17235   0.929   3.442  10.973  0.6736 -1.1420  0.0476
  869MOL0     C17236   0.994   3.317  10.941  0.2066 -0.5979 -0.3230
  869MOL0     C17237   1.120   3.289  11.000 -0.7082 -0.0945  0.1568
  869MOL0     C17238   1.188   3.381  11.080  0.5831 -0.3361  0.7057
  869MOL0     O17239   1.322   3.367  11.119  0.1795  0.0868 -0.0961
  869MOL0     C17240   1.407   3.292  11.037 -0.0081  0.2196  0.3313
  869MOL0     C17241   1.544   3.356  11.047 -0.1643  0.4717  0.6272
  869MOL0     C17242   1.649   3.248  10.993  0.2046 -0.6064  0.1754
  869MOL0     C17243   1.770   3.325  10.938  1.1697 -0.0003 -0.0167
  869MOL0     C17244   1.762   3.340  10.795  0.7249 -0.5856 -0.1242
  869MOL0     C17245   1.747   3.361  10.676 -0.0734  0.3000 -0.3489
  869MOL0     C17246   1.118   3.490  11.123  0.2448 -0.6623  0.1178
  869MOL0     C17247   0.998   3.521  11.066  0.2250 -0.1358 -1.3009
  869MOL0     H17248   0.698   3.643  10.657  0.7823  1.3872  0.3600
  869MOL0     H17249   0.496   3.670  10.557 -1.9701 -0.4005  0.4043
  869MOL0     H17250   0.307   3.773  10.477  2.9302 -3.8518 -0.3046
  869MOL0     H17251   0.248   3.602  10.515 -1.4186  0.4689 -0.6594
  869MOL0     H17252   0.051   3.717  10.423  0.1514  0.9190 -1.1413
  869MOL0     H17253   0.034   3.744  10.595 -0.0599 -2.8937 -0.6029
  869MOL0     H17254   0.153   3.969  10.575  1.5733  3.9751 -3.0527
  869MOL0     H17255   0.164   3.949  10.408  2.2146  2.7826  1.5472
  869MOL0     H17256  -0.077   3.960  10.374  2.9674  2.1398 -2.6361
  869MOL0     H17257  -0.103   3.960  10.542  1.9724 -2.8877 -0.3043
  869MOL0     H17258   0.021   4.183  10.568  0.0698  1.4464  0.2423
  869MOL0     H17259   0.056   4.163  10.393  0.6456 -0.1714  0.7408
  869MOL0     H17260  -0.186   4.159  10.345 -1.2371  0.8277 -0.4188
  869MOL0     H17261  -0.217   4.176  10.516  0.5044 -0.3725 -0.4465
  869MOL0     H17262  -0.072   4.399  10.476  0.0611 -2.2786  0.5711
  869MOL0     H17263  -0.095   4.357  10.303  0.2983  0.9019 -0.2848
  869MOL0     H17264  -0.267   4.520  10.431  0.8725 -0.3333  0.2710
  869MOL0     H17265  -0.343   4.375  10.469  0.5622  1.3252  1.5979
  869MOL0     H17266  -0.340   4.622  10.208  0.2563  0.3125  0.3539
  869MOL0     H17267  -0.473   4.671  10.009 -0.7716  1.6007 -2.1416
  869MOL0     H17268  -0.410   4.565   9.883 -0.1548 -0.2331 -0.3166
  869MOL0     H17269  -0.605   4.428   9.892  0.7381  0.0364  0.2733
  869MOL0     H17270  -0.647   4.595   9.856 -0.7869 -1.6626 -1.1977
  869MOL0     H17271  -0.727   4.636  10.084 -2.6520  1.7827 -3.1155
  869MOL0     H17272  -0.657   4.478  10.134  1.5086  3.5950  0.1778
  869MOL0     H17273  -0.922   4.475  10.113 -1.7824 -1.6374 -1.3953
  869MOL0     H17274  -0.814   4.345  10.048  0.9226  0.0741 -0.0270
  869MOL0     H17275  -0.976   4.476   9.680 -0.8618 -0.3311 -1.5256
  869MOL0     H17276  -1.124   4.413   9.478  1.2787 -0.4862  0.7455
  869MOL0     H17277  -1.146   4.239   9.471  0.6844  0.8805 -2.3430
  869MOL0     H17278  -1.278   4.340   9.519  0.8584  2.3407  0.6128
  869MOL0     H17279  -1.415   3.890   9.720 -0.3078  0.0683 -0.5028
  869MOL0     H17280  -1.545   3.704   9.638 -1.2123 -0.3655 -1.0510
  869MOL0     H17281  -1.699   3.592   9.518 -1.4264 -0.0383  0.2784
  869MOL0     H17282  -1.769   3.679   9.385  0.7542  1.6116  1.3959
  869MOL0     H17283  -1.676   3.391   9.386 -1.9468 -0.9598  0.8000
  869MOL0     H17284  -1.840   3.457   9.372 -0.1105 -1.1539  1.0583
  869MOL0     H17285  -1.736   3.375   9.152 -1.7063 -1.1962  3.1148
  869MOL0     H17286  -1.607   3.494   9.170  0.7115  0.0885 -0.1510
  869MOL0     H17287  -1.728   3.683   9.131 -1.3249  0.7474 -0.1834
  869MOL0     H17288  -1.760   3.553   9.009 -0.4493 -2.5506  1.2894
  869MOL0     H17289  -1.956   3.627   9.225  0.0161 -0.7418  0.2235
  869MOL0     H17290  -1.971   3.499   9.107  2.4613 -1.4538  0.3384
  869MOL0     H17291  -1.944   3.795   9.031  1.3710 -0.5504 -2.0846
  869MOL0     H17292  -1.954   3.661   8.922  1.4795  1.3512  0.6462
  869MOL0     H17293  -2.169   3.798   9.098  0.2762  1.2272  0.6632
  869MOL0     H17294  -2.178   3.627   9.065  1.3330  0.7121 -0.7580
  869MOL0     H17295  -2.302   3.743   8.930  0.5292 -2.8375  1.0240
  869MOL0     H17296  -2.196   3.659   8.825  0.8319 -1.9308  1.1349
  869MOL0     H17297  -1.410   3.811   9.242 -0.9825  1.7130 -0.7530
  869MOL0     H17298  -1.322   4.016   9.319 -0.9859 -1.5277 -1.5986
  869MOL0     H17299  -1.205   4.145   9.974  2.4479 -3.3996  0.3031
  869MOL0     H17300  -1.025   4.280  10.055  2.1837  3.0972 -1.1271
  869MOL0     H17301   0.288   3.674  10.933  1.1598 -0.4253  1.5548
  869MOL0     H17302   0.510   3.619  11.045  4.9896  1.2779  0.6007
  869MOL0     H17303   0.948   3.249  10.871  1.1986 -1.3498 -0.2629
  869MOL0     H17304   1.176   3.198  10.980  0.6139  0.9118 -0.8394
  869MOL0     H17305   1.404   3.190  11.075  0.3065  1.0975  2.8848
  869MOL0     H17306   1.374   3.282  10.933  0.2518 -1.6460  0.3911
  869MOL0     H17307   1.575   3.381  11.149 -0.1518 -0.8755  0.9705
  869MOL0     H17308   1.548   3.448  10.989  1.6139 -0.0127 -0.0586
  869MOL0     H17309   1.610   3.165  10.934  1.7578 -2.3301  1.4860
  869MOL0     H17310   1.686   3.195  11.081 -0.6412 -3.2421 -0.9695
  869MOL0     H17311   1.852   3.257  10.966 -0.3552 -1.5226  0.9689
  869MOL0     H17312   1.777   3.417  10.996 -5.5360  0.9832  0.0659
  869MOL0     H17313   1.744   3.388  10.573  2.4445 -1.5020 -0.9913
  869MOL0     H17314   1.163   3.561  11.191 -1.1016  1.1205 -0.7641
  869MOL0     H17315   0.941   3.608  11.097  0.4254 -0.7294  0.8824
  870MOL0     O17316   2.686   5.502   2.762  0.4183 -0.3562 -0.1696
  870MOL0     C17317   2.719   5.613   2.810 -0.5281 -0.0540 -0.7131
  870MOL0     O17318   2.638   5.712   2.853  0.4997 -0.4084 -0.0999
  870MOL0     C17319   2.504   5.699   2.846 -0.5179 -0.0196  0.4259
  870MOL0     C17320   2.429   5.803   2.790 -0.4761 -0.5079  0.0019
  870MOL0     C17321   2.292   5.792   2.765  0.6040 -0.4475  0.1764
  870MOL0     C17322   2.222   5.673   2.798 -0.3689  0.3580  0.4715
  870MOL0     O17323   2.093   5.629   2.760  0.0657 -0.4283 -0.4317
  870MOL0     C17324   2.009   5.717   2.686  1.2878 -0.0042  0.4863
  870MOL0     C17325   1.896   5.650   2.608  0.2776  0.2116  0.0560
  870MOL0     C17326   1.800   5.555   2.687 -0.2151 -0.4885  0.7123
  870MOL0     C17327   1.721   5.635   2.797 -0.6902 -0.9338 -0.0052
  870MOL0     C17328   1.599   5.567   2.868 -0.2745 -0.0180  0.2848
  870MOL0     C17329   1.475   5.556   2.783  0.2376  0.4642 -0.3708
  870MOL0     C17330   1.368   5.501   2.868  1.1686 -0.4832  0.8220
  870MOL0     C17331   1.243   5.508   2.781 -0.5716  0.0770 -0.1735
  870MOL0     N17332   1.141   5.402   2.815  0.5149 -0.1415 -0.1603
  870MOL0     C17333   1.094   5.400   2.940  0.2200  0.1301 -0.3711
  870MOL0     C17334   1.019   5.291   2.939  0.4722 -0.5283  0.7528
  870MOL0     C17335   0.944   5.230   3.063  1.0031 -0.1060  0.4716
  870MOL0     C17336   0.801   5.197   3.032  0.0449  0.5558  0.0925
  870MOL0     C17337   0.729   5.151   3.156  0.6947  0.4155  0.2554
  870MOL0     C17338   0.587   5.110   3.143 -0.1490 -0.0794 -0.3616
  870MOL0     O17339   0.590   4.998   3.054  0.5610  1.0692  0.1392
  870MOL0     C17340   0.460   4.942   3.031 -0.0350 -0.0900  0.3217
  870MOL0     C17341   0.343   4.992   3.074 -0.4982  0.0838  0.1158
  870MOL0     C17342   0.219   4.916   3.067 -0.7681  0.1808 -0.7121
  870MOL0     C17343   0.093   4.983   3.114 -0.5124  0.2112 -0.6144
  870MOL0     C17344   0.220   4.790   3.010 -0.5895  0.2334 -0.7424
  870MOL0     C17345   0.109   4.695   3.017 -0.0058 -0.4448  0.0433
  870MOL0     O17346   0.090   4.621   2.908  0.0651  0.3973 -0.3540
  870MOL0     C17347  -0.033   4.555   2.911 -0.3795 -0.2696  1.1582
  870MOL0     C17348  -0.037   4.424   2.960 -0.1087 -0.7243  0.7580
  870MOL0     C17349  -0.159   4.347   2.953 -0.4214 -0.6718  0.0494
  870MOL0     C17350  -0.271   4.409   2.898 -0.3751 -0.6728 -0.0873
  870MOL0     O17351  -0.389   4.344   2.901 -0.1267  0.3008 -0.9276
  870MOL0     C17352  -0.413   4.208   2.860 -0.2085 -0.2946  0.5980
  870MOL0     C17353  -0.478   4.134   2.969 -0.5443 -0.7840 -0.1682
  870MOL0     C17354  -0.493   3.987   2.932  0.0223  0.7457 -0.3205
  870MOL0     C17355  -0.613   3.953   2.846 -0.1068  0.3941  0.5985
  870MOL0     C17356  -0.618   3.806   2.785  0.3411 -0.3561 -0.4579
  870MOL0     C17357  -0.512   3.774   2.686  0.1354 -0.2396  0.1972
  870MOL0     C17358  -0.518   3.852   2.558  0.0780 -0.6623 -0.3314
  870MOL0     C17359  -0.400   3.812   2.463 -0.7939  0.7526 -0.2738
  870MOL0    Cl17360  -0.406   3.653   2.382 -0.0483 -0.0694  0.4991
  870MOL0     C17361  -0.261   4.541   2.848 -0.5533 -0.2588  0.7194
  870MOL0     C17362  -0.139   4.615   2.852  0.3706 -0.4694 -0.3755
  870MOL0     O17363   0.041   4.695   3.115  0.7978 -0.5908  0.1967
  870MOL0     C17364   0.340   4.742   2.955 -0.8368  0.6317  0.0106
  870MOL0     C17365   0.457   4.818   2.960 -0.2189 -0.2253 -0.4271
  870MOL0     N17366   1.019   5.235   2.812  0.2100  0.4542  0.2543
  870MOL0     N17367   1.103   5.301   2.741  0.3474 -0.3255  0.8007
  870MOL0     C17368   2.301   5.567   2.856 -0.3585 -0.6959 -0.4990
  870MOL0     C17369   2.435   5.583   2.880 -0.3285  0.8689 -0.2821
  870MOL0     C17370   2.868   5.641   2.823 -0.4756  0.2979 -0.2612
  870MOL0     C17371   2.959   5.536   2.834  0.3825 -0.5792 -0.4948
  870MOL0     C17372   3.102   5.548   2.850  0.2362 -0.8425  0.5937
  870MOL0     C17373   3.153   5.680   2.869  0.0560 -0.1070  0.0796
  870MOL0     O17374   3.284   5.704   2.907 -0.0249 -0.6805 -0.2591
  870MOL0     C17375   3.380   5.597   2.910 -0.0977  0.5886 -0.7650
  870MOL0     C17376   3.502   5.670   2.977 -0.0536  0.2028  0.6954
  870MOL0     C17377   3.628   5.578   3.003  0.0374 -0.5704  0.9324
  870MOL0     C17378   3.703   5.559   2.870 -0.2599  0.8200 -0.1302
  870MOL0     C17379   3.840   5.505   2.887 -1.0967 -0.1079  0.7076
  870MOL0     C17380   3.959   5.477   2.906  0.0017 -0.5715  0.4277
  870MOL0     C17381   3.060   5.784   2.865 -0.0823 -0.0638  0.3376
  870MOL0     C17382   2.926   5.764   2.835  0.1854  0.8373 -0.1634
  870MOL0     H17383   2.488   5.886   2.752  0.2663 -0.1520  1.8233
  870MOL0     H17384   2.248   5.885   2.731 -0.2488  0.1851  2.8070
  870MOL0     H17385   1.964   5.781   2.763 -0.4360  0.1662 -0.6105
  870MOL0     H17386   2.055   5.781   2.610  1.4350  1.1229  1.4875
  870MOL0     H17387   1.834   5.729   2.565  0.9568  1.0811  0.6511
  870MOL0     H17388   1.941   5.582   2.536 -1.2132 -1.3884  0.5414
  870MOL0     H17389   1.738   5.500   2.616 -1.7869 -1.2805  2.6078
  870MOL0     H17390   1.854   5.473   2.734  0.0005 -1.1327 -0.6170
  870MOL0     H17391   1.784   5.666   2.881  0.8253 -0.6071 -1.2121
  870MOL0     H17392   1.682   5.727   2.753 -1.9283 -2.3710 -2.0805
  870MOL0     H17393   1.632   5.465   2.890  1.3043  0.0932 -1.3613
  870MOL0     H17394   1.568   5.617   2.961 -0.2098  1.3351 -0.4089
  870MOL0     H17395   1.443   5.654   2.748  0.0133 -0.4127 -2.7839
  870MOL0     H17396   1.491   5.497   2.692 -1.0495  1.5321 -1.3348
  870MOL0     H17397   1.384   5.400   2.908  1.0094 -0.4617  0.9414
  870MOL0     H17398   1.351   5.568   2.953  1.5146  1.0307 -0.2587
  870MOL0     H17399   1.269   5.514   2.675 -2.1220  1.0077 -0.5337
  870MOL0     H17400   1.200   5.608   2.788 -0.6579 -0.0764  2.2477
  870MOL0     H17401   1.131   5.462   3.021  2.0318  0.0982 -1.1152
  870MOL0     H17402   1.000   5.147   3.107  1.9036  0.7934  1.0472
  870MOL0     H17403   0.933   5.304   3.143  0.0059  1.9274 -1.4400
  870MOL0     H17404   0.800   5.117   2.957 -1.2523 -1.5228  2.1745
  870MOL0     H17405   0.751   5.284   2.990  0.6390  0.3514 -1.0979
  870MOL0     H17406   0.745   5.239   3.219  3.3874  1.9731 -2.3527
  870MOL0     H17407   0.783   5.067   3.200  0.1169 -0.2306 -0.2456
  870MOL0     H17408   0.525   5.191   3.104  1.8623  1.5545 -0.3529
  870MOL0     H17409   0.551   5.081   3.242  1.3081  1.3968  0.6534
  870MOL0     H17410   0.343   5.091   3.120  0.1702 -0.5601  1.5630
  870MOL0     H17411   0.118   5.088   3.134 -1.5061  0.1411  1.2023
  870MOL0     H17412   0.016   4.970   3.037 -0.9532 -0.0217 -0.1423
  870MOL0     H17413   0.065   4.941   3.211 -0.9173  1.7793 -0.0200
  870MOL0     H17414   0.052   4.378   3.000  0.8616  0.7073  0.3128
  870MOL0     H17415  -0.165   4.247   2.996 -2.0340 -1.8981 -2.7272
  870MOL0     H17416  -0.481   4.217   2.775 -0.5330  2.2123  1.0444
  870MOL0     H17417  -0.318   4.161   2.833  0.5504  1.6618 -0.2781
  870MOL0     H17418  -0.401   4.134   3.047 -0.1530 -3.8274 -0.4520
  870MOL0     H17419  -0.569   4.187   2.997 -0.8200 -1.4431  0.1846
  870MOL0     H17420  -0.506   3.924   3.020 -1.9239  1.9118  0.3012
  870MOL0     H17421  -0.406   3.950   2.878 -2.1927  1.0144 -4.4999
  870MOL0     H17422  -0.709   3.972   2.895 -0.6839  1.8477 -0.9931
  870MOL0     H17423  -0.601   4.025   2.765 -0.0398  2.0245  2.0046
  870MOL0     H17424  -0.716   3.792   2.737 -0.7939  0.8337  1.3924
  870MOL0     H17425  -0.615   3.739   2.870  0.7088  0.4023  0.1369
  870MOL0     H17426  -0.413   3.788   2.729  0.4792 -0.4354 -0.5136
  870MOL0     H17427  -0.513   3.668   2.660  1.0167  0.0527 -1.1669
  870MOL0     H17428  -0.487   3.953   2.586  2.1344 -0.3246 -3.3969
  870MOL0     H17429  -0.618   3.852   2.513 -0.1272  2.0037 -0.0830
  870MOL0     H17430  -0.298   3.814   2.503 -1.0535  2.0900  0.4045
  870MOL0     H17431  -0.408   3.890   2.386  0.6973  0.4189 -0.7969
  870MOL0     H17432  -0.355   4.575   2.804  0.8493  1.9915 -0.7547
  870MOL0     H17433  -0.130   4.712   2.806 -1.2856 -0.6192 -1.0977
  870MOL0     H17434   0.345   4.641   2.916  1.9714  0.3793  0.8218
  870MOL0     H17435   0.546   4.766   2.927 -0.0725 -0.1018 -0.2269
  870MOL0     H17436   2.252   5.474   2.882  1.5012 -1.1414  1.7759
  870MOL0     H17437   2.493   5.505   2.929  1.9045  2.7796  0.2844
  870MOL0     H17438   2.917   5.437   2.821 -1.9063 -0.5304  4.3586
  870MOL0     H17439   3.166   5.461   2.862  0.1489 -1.3363 -1.8704
  870MOL0     H17440   3.344   5.510   2.966  1.0213  0.3778 -0.3453
  870MOL0     H17441   3.413   5.561   2.813  1.8107 -0.3137  0.1667
  870MOL0     H17442   3.468   5.696   3.078  0.4228  0.4177  0.8032
  870MOL0     H17443   3.540   5.759   2.927  0.3192 -0.0365  0.5452
  870MOL0     H17444   3.595   5.488   3.057 -4.3338 -0.5119 -1.1689
  870MOL0     H17445   3.690   5.630   3.076  4.2424 -2.1684 -1.1682
  870MOL0     H17446   3.704   5.654   2.817  1.3939  1.4163  0.8783
  870MOL0     H17447   3.654   5.489   2.801 -0.7467  1.4768 -0.4552
  870MOL0     H17448   4.062   5.450   2.918  1.8247  4.8618 -0.4956
  870MOL0     H17449   3.088   5.887   2.883 -0.1695  0.2414 -1.1270
  870MOL0     H17450   2.873   5.858   2.823  0.6933  1.2692  0.8953
  871MOL0     O17451   5.615   5.741  10.840 -0.1713  0.0342  0.8300
  871MOL0     C17452   5.655   5.843  10.900  0.4598 -0.5143 -1.0921
  871MOL0     O17453   5.569   5.947  10.954 -0.0898  0.5305  0.5030
  871MOL0     C17454   5.426   5.945  10.950  0.0774 -0.1784 -0.3994
  871MOL0     C17455   5.358   5.819  10.964  0.1187 -0.1459  0.3642
  871MOL0     C17456   5.218   5.820  10.975  0.2286 -0.1451 -0.3565
  871MOL0     C17457   5.148   5.943  10.963  0.4920  0.6483 -0.3883
  871MOL0     O17458   5.008   5.947  10.974  0.2704  0.3842  0.6250
  871MOL0     C17459   4.928   5.828  10.989  0.4660  0.0923 -0.7296
  871MOL0     C17460   4.777   5.869  10.994  0.0901 -0.0367 -0.9002
  871MOL0     C17461   4.760   5.976  11.107  0.2767 -0.6649 -0.2447
  871MOL0     C17462   4.620   5.980  11.167 -0.3562 -0.4090  0.9880
  871MOL0     C17463   4.624   6.055  11.303 -0.3085 -0.6672  0.3960
  871MOL0     C17464   4.508   6.019  11.393 -0.3806  0.2468  0.1953
  871MOL0     C17465   4.384   6.083  11.337  1.0903 -0.0186  0.1211
  871MOL0     C17466   4.246   6.039  11.407 -0.2746  0.1848  0.5515
  871MOL0     N17467   4.259   6.028  11.558  0.2287 -0.2782  0.1425
  871MOL0     C17468   4.219   5.921  11.631 -0.8937  1.2628 -0.0146
  871MOL0     C17469   4.242   5.956  11.757  0.0658  0.1105 -0.0183
  871MOL0     C17470   4.180   5.886  11.877  0.0168 -0.3291  0.0919
  871MOL0     C17471   4.027   5.926  11.902 -0.3155 -0.3641 -0.2609
  871MOL0     C17472   3.970   5.888  12.039 -0.2692 -0.6211 -0.1578
  871MOL0     C17473   3.825   5.927  12.052  0.4276 -0.7259  0.7374
  871MOL0     O17474   3.785   5.949  12.183  0.1014 -0.5220 -0.2790
  871MOL0     C17475   3.655   5.960  12.224  0.2153  0.3982  0.0767
  871MOL0     C17476   3.550   5.959  12.129 -0.6729  0.5124  0.6911
  871MOL0     C17477   3.414   5.946  12.166 -0.6978 -0.0558  0.6012
  871MOL0     C17478   3.312   5.926  12.056  0.0199  0.2731  0.7294
  871MOL0     C17479   3.382   5.934  12.303  0.0786 -0.1167  0.3401
  871MOL0     C17480   3.250   5.905  12.363 -0.6815 -0.6991 -0.0941
  871MOL0     O17481   3.151   5.979  12.303 -0.1414 -0.2453 -0.1329
  871MOL0     C17482   3.020   5.946  12.343 -0.8799  0.1110  0.7620
  871MOL0     C17483   2.942   5.873  12.247  0.9873  0.0085 -0.4211
  871MOL0     C17484   2.800   5.849  12.269  0.7910  0.8777 -0.6863
  871MOL0     C17485   2.745   5.900  12.391  0.4477 -0.0556 -0.2759
  871MOL0     O17486   2.613   5.868  12.421 -0.2179 -0.1614  0.1459
  871MOL0     C17487   2.574   5.828  12.555  0.0694 -0.7996  0.0895
  871MOL0     C17488   2.457   5.738  12.566  0.9968  0.3692  0.1047
  871MOL0     C17489   2.330   5.813  12.541 -0.3657 -0.4507  0.2494
  871MOL0     C17490   2.218   5.765  12.640 -0.4420  0.9885 -0.7724
  871MOL0     C17491   2.077   5.826  12.627  0.4435  1.1226 -0.4307
  871MOL0     C17492   1.990   5.791  12.742  1.2039  0.3916 -0.2095
  871MOL0     C17493   1.842   5.833  12.736 -1.1270 -1.1366  0.9771
  871MOL0     C17494   1.824   5.983  12.747  0.3084 -0.1812 -0.1669
  871MOL0    Cl17495   1.770   6.055  12.601 -0.1446 -0.1942 -0.2097
  871MOL0     C17496   2.815   5.985  12.482  0.5108 -0.1262  0.2178
  871MOL0     C17497   2.950   6.006  12.453 -0.3275 -0.7811 -0.2220
  871MOL0     O17498   3.235   5.821  12.454  0.3621 -0.2912 -0.1570
  871MOL0     C17499   3.484   5.943  12.398  0.5180 -0.2850  0.1077
  871MOL0     C17500   3.611   5.959  12.353 -0.0271 -0.5827 -0.2814
  871MOL0     N17501   4.304   6.086  11.756  0.2267  0.5851 -0.4910
  871MOL0     N17502   4.319   6.120  11.639 -0.3342 -0.4087  0.2266
  871MOL0     C17503   5.216   6.058  10.947 -0.0987 -0.4365  1.1607
  871MOL0     C17504   5.355   6.064  10.948 -0.1156 -0.3777  0.5261
  871MOL0     C17505   5.795   5.889  10.894  0.5068  0.5680  0.7834
  871MOL0     C17506   5.893   5.789  10.872 -0.2613 -0.5763  0.1278
  871MOL0     C17507   6.034   5.822  10.866 -0.2640 -0.2442 -0.4792
  871MOL0     C17508   6.071   5.944  10.916 -0.1621  0.1829  0.0987
  871MOL0     O17509   6.202   5.971  10.945 -0.3506 -0.1416  0.1082
  871MOL0     C17510   6.263   6.093  10.901 -0.8248 -0.7535 -0.0167
  871MOL0     C17511   6.394   6.055  10.831  0.1161 -0.2589  0.3667
  871MOL0     C17512   6.366   6.003  10.688  0.3532 -0.4490 -0.8847
  871MOL0     C17513   6.496   6.006  10.615 -0.1018 -0.2196 -0.4085
  871MOL0     C17514   6.470   5.956  10.477 -0.7897 -0.3237 -0.4902
  871MOL0     C17515   6.462   5.917  10.363 -0.5838  0.0577 -0.0692
  871MOL0     C17516   5.974   6.038  10.965  0.2478  0.4030  0.5803
  871MOL0     C17517   5.841   6.010  10.937  0.0678  0.9732  0.2781
  871MOL0     H17518   5.406   5.726  10.991  0.3194  0.1570  1.0804
  871MOL0     H17519   5.163   5.727  10.987  0.7736 -0.4281 -0.0146
  871MOL0     H17520   4.944   5.754  10.911 -2.4350 -3.4629  1.7129
  871MOL0     H17521   4.954   5.780  11.084 -1.9560  3.1802  1.7392
  871MOL0     H17522   4.764   5.921  10.898  0.1786 -0.7087 -1.2806
  871MOL0     H17523   4.704   5.788  10.996 -0.6811  0.6185 -1.6781
  871MOL0     H17524   4.831   5.965  11.190 -3.6089 -0.1761  3.4749
  871MOL0     H17525   4.791   6.068  11.057  0.0490  0.5339  1.7286
  871MOL0     H17526   4.557   6.030  11.094 -0.9530 -2.3405  0.1070
  871MOL0     H17527   4.571   5.883  11.174 -1.6884  0.0196 -1.4763
  871MOL0     H17528   4.718   6.034  11.356  0.5952  1.5478 -0.2309
  871MOL0     H17529   4.630   6.163  11.287  0.7382 -0.6147  1.0395
  871MOL0     H17530   4.506   5.910  11.404 -1.5301  0.1828 -0.4159
  871MOL0     H17531   4.529   6.065  11.490 -1.4574  0.1741  0.4837
  871MOL0     H17532   4.394   6.191  11.350 -1.2938  0.2305  0.3427
  871MOL0     H17533   4.370   6.045  11.235  1.7055  1.3866 -0.5121
  871MOL0     H17534   4.207   5.947  11.363 -0.8420  0.0112  1.3992
  871MOL0     H17535   4.179   6.120  11.376  1.1418  0.9720 -0.6028
  871MOL0     H17536   4.165   5.836  11.592  3.4821 -2.3884  1.0407
  871MOL0     H17537   4.199   5.779  11.878 -0.5535 -0.5519  4.0637
  871MOL0     H17538   4.235   5.927  11.962 -0.1412  0.2682 -0.0870
  871MOL0     H17539   3.973   5.871  11.824  1.4938 -2.4082 -0.1612
  871MOL0     H17540   4.026   6.035  11.895  0.7867 -0.3298 -0.0740
  871MOL0     H17541   4.025   5.949  12.111 -0.9323  0.2380 -0.3664
  871MOL0     H17542   3.982   5.780  12.051 -0.5201 -0.6245  0.0737
  871MOL0     H17543   3.761   5.856  11.999 -0.4948  1.3761 -1.1310
  871MOL0     H17544   3.805   6.020  11.999 -1.5020 -0.5292  1.7090
  871MOL0     H17545   3.564   5.950  12.022 -2.0121 -3.8139  0.6759
  871MOL0     H17546   3.292   6.019  12.003 -1.8304 -0.1881  0.5444
  871MOL0     H17547   3.343   5.848  11.985  1.6404  1.2705  0.2869
  871MOL0     H17548   3.220   5.883  12.097 -0.2627  1.2432  1.1214
  871MOL0     H17549   2.979   5.850  12.148  2.1563  3.2354 -0.8315
  871MOL0     H17550   2.731   5.795  12.205  0.1462 -0.5410  1.1064
  871MOL0     H17551   2.652   5.772  12.607 -1.6827 -2.2492  1.2902
  871MOL0     H17552   2.550   5.913  12.619  1.4187  0.1731 -0.6501
  871MOL0     H17553   2.450   5.650  12.502  1.0796  1.7189 -1.8558
  871MOL0     H17554   2.474   5.688  12.661 -0.2859 -0.8703 -0.2920
  871MOL0     H17555   2.295   5.794  12.439 -2.7348  0.6105  0.7823
  871MOL0     H17556   2.354   5.919  12.558  1.9326 -1.0740  1.2559
  871MOL0     H17557   2.212   5.656  12.641  1.9086  0.7273 -2.9720
  871MOL0     H17558   2.256   5.792  12.739 -0.5558 -3.4403  0.6673
  871MOL0     H17559   2.039   5.789  12.531 -0.3187  1.1747 -0.1507
  871MOL0     H17560   2.089   5.934  12.614  0.6379  0.9394 -1.9769
  871MOL0     H17561   1.986   5.682  12.754 -1.8079  0.4447 -0.1187
  871MOL0     H17562   2.034   5.843  12.828 -0.3995 -0.1165  0.9565
  871MOL0     H17563   1.801   5.791  12.828 -2.4858  1.4609  1.6685
  871MOL0     H17564   1.791   5.785  12.652  4.2822 -3.2577 -1.5911
  871MOL0     H17565   1.911   6.036  12.786  2.5772 -3.2694 -0.6902
  871MOL0     H17566   1.742   5.990  12.820  0.6825  0.5150  0.2007
  871MOL0     H17567   2.762   6.017  12.571 -0.7414 -1.2824 -0.0726
  871MOL0     H17568   3.018   6.068  12.510  1.3908 -1.1687 -1.7346
  871MOL0     H17569   3.465   5.942  12.505  1.6661 -2.5360  0.3603
  871MOL0     H17570   3.690   5.967  12.427  0.2986  0.1632 -0.6976
  871MOL0     H17571   5.167   6.153  10.926 -0.0949 -1.2122 -3.2610
  871MOL0     H17572   5.410   6.154  10.921 -0.8712 -0.8225 -3.0095
  871MOL0     H17573   5.863   5.685  10.868  1.4000 -1.1609  1.5178
  871MOL0     H17574   6.106   5.746  10.838  2.5074  0.5759  3.5681
  871MOL0     H17575   6.191   6.150  10.842 -0.3165 -0.8382 -0.7275
  871MOL0     H17576   6.281   6.146  10.995  0.3398 -0.8015 -0.1960
  871MOL0     H17577   6.455   5.982  10.884 -1.2304 -0.9913  0.9769
  871MOL0     H17578   6.448   6.150  10.828 -0.2576 -0.0533 -0.0780
  871MOL0     H17579   6.287   6.067  10.650  0.4771  0.5375  0.4419
  871MOL0     H17580   6.327   5.901  10.692 -0.4180 -0.2308 -2.4805
  871MOL0     H17581   6.567   5.943  10.669  1.5011  0.9406 -1.0655
  871MOL0     H17582   6.537   6.107  10.605 -0.6589  0.2343  1.4274
  871MOL0     H17583   6.458   5.872  10.266 -1.9178 -0.3661  0.1599
  871MOL0     H17584   6.014   6.131  11.006  2.2517 -1.5338  3.4175
  871MOL0     H17585   5.775   6.094  10.959 -1.5736  0.0506 -0.9216
  872MOL0     O17586   8.957   8.575   2.688 -0.2784  0.2533  0.0900
  872MOL0     C17587   8.992   8.692   2.657 -0.8405  1.6015 -0.5292
  872MOL0     O17588   9.083   8.764   2.733 -0.4388  0.0227 -0.3472
  872MOL0     C17589   9.132   8.714   2.855 -0.4816 -0.2397  0.1462
  872MOL0     C17590   9.172   8.813   2.954 -0.0934 -0.1279  0.1359
  872MOL0     C17591   9.231   8.775   3.081  0.0111 -1.6487 -0.1983
  872MOL0     C17592   9.244   8.638   3.105 -0.2431 -0.1680  0.1239
  872MOL0     O17593   9.301   8.587   3.221  0.2603  0.1678 -0.5256
  872MOL0     C17594   9.268   8.635   3.352  0.1959 -0.4310 -0.1668
  872MOL0     C17595   9.166   8.558   3.425  0.0845  0.7024 -0.8777
  872MOL0     C17596   9.208   8.417   3.467  0.0912  0.4237  0.1731
  872MOL0     C17597   9.075   8.353   3.525 -0.3563 -1.1517  0.4840
  872MOL0     C17598   9.089   8.223   3.597  0.4127  0.6388  0.0477
  872MOL0     C17599   8.958   8.150   3.613  0.4035  0.0855  0.8165
  872MOL0     C17600   8.978   8.038   3.725 -0.5541 -0.7281 -0.2096
  872MOL0     C17601   9.061   7.936   3.666  0.0001  0.0127  0.6418
  872MOL0     N17602   9.000   7.871   3.548  0.3274 -0.2851  0.3756
  872MOL0     C17603   8.872   7.821   3.540 -0.7018  0.7175  0.5261
  872MOL0     C17604   8.859   7.801   3.402 -0.0749  0.2778 -0.1436
  872MOL0     C17605   8.730   7.751   3.340  1.3655 -0.4039  0.1213
  872MOL0     C17606   8.691   7.824   3.205  0.1809  0.4092  0.4966
  872MOL0     C17607   8.563   7.759   3.155  0.1560 -0.6658  0.1884
  872MOL0     C17608   8.496   7.869   3.067 -0.1940 -0.4716 -0.3363
  872MOL0     O17609   8.377   7.805   3.023 -0.2015  0.5751  0.0941
  872MOL0     C17610   8.256   7.799   3.089  0.5908  0.0796 -0.6980
  872MOL0     C17611   8.153   7.743   3.018  0.0012  0.7929  0.6682
  872MOL0     C17612   8.030   7.722   3.073  0.0758 -0.0509 -0.4901
  872MOL0     C17613   7.928   7.662   2.984 -0.0681  0.5302  0.0196
  872MOL0     C17614   7.994   7.782   3.204 -0.5954  0.3518  0.0973
  872MOL0     C17615   7.858   7.771   3.266 -0.0244 -0.4406  0.1984
  872MOL0     O17616   7.849   7.829   3.386  1.0105  0.0961 -0.5532
  872MOL0     C17617   7.721   7.832   3.442  0.2902 -0.5971 -0.0007
  872MOL0     C17618   7.610   7.899   3.384  0.7370  0.0159  0.2208
  872MOL0     C17619   7.483   7.897   3.444 -0.7373 -0.7871  0.3640
  872MOL0     C17620   7.469   7.841   3.577 -0.0712 -0.1206 -0.4311
  872MOL0     O17621   7.362   7.854   3.659 -0.2887  0.9545  0.4239
  872MOL0     C17622   7.236   7.792   3.610 -0.0960  0.6361  0.1856
  872MOL0     C17623   7.121   7.828   3.697 -0.1435  0.5306  0.5463
  872MOL0     C17624   7.008   7.737   3.650  0.2161  0.0595  0.5524
  872MOL0     C17625   6.870   7.801   3.684 -0.6125 -0.3366  0.3713
  872MOL0     C17626   6.750   7.727   3.625 -0.0711  0.0339 -0.1832
  872MOL0     C17627   6.614   7.788   3.665  0.0166 -0.6499 -0.2580
  872MOL0     C17628   6.504   7.689   3.626  0.4504 -0.3457  0.2688
  872MOL0     C17629   6.362   7.709   3.685  0.0545 -0.1732  0.2825
  872MOL0    Cl17630   6.269   7.851   3.613  0.3096  0.0168 -0.1579
  872MOL0     C17631   7.586   7.801   3.645  0.4143 -0.0492 -0.4717
  872MOL0     C17632   7.708   7.792   3.575 -0.2498  0.1528 -0.3640
  872MOL0     O17633   7.760   7.737   3.195  0.3009  0.4768 -0.0950
  872MOL0     C17634   8.100   7.839   3.268 -0.2592 -0.0181 -0.2022
  872MOL0     C17635   8.232   7.855   3.215 -0.0314  0.0573  0.4365
  872MOL0     N17636   8.980   7.832   3.336  0.4827 -0.5709 -0.6141
  872MOL0     N17637   9.060   7.871   3.427 -0.0800 -0.8274 -0.0741
  872MOL0     C17638   9.227   8.547   3.007  1.2424 -0.2581 -0.2291
  872MOL0     C17639   9.165   8.580   2.883  0.1912  0.3206 -0.8154
  872MOL0     C17640   8.946   8.746   2.526 -0.0212  0.3202  0.4098
  872MOL0     C17641   8.864   8.683   2.441 -0.2721 -0.1540  0.4585
  872MOL0     C17642   8.834   8.737   2.318  0.0214 -0.1133  0.2054
  872MOL0     C17643   8.881   8.867   2.286 -0.8050 -0.0777 -0.1828
  872MOL0     O17644   8.834   8.918   2.160 -0.0656 -0.4543  0.0148
  872MOL0     C17645   8.811   9.057   2.152  0.0050 -0.1610 -0.4387
  872MOL0     C17646   8.689   9.095   2.245  0.0641 -0.4844  0.3649
  872MOL0     C17647   8.559   9.039   2.196 -0.0454  0.4393  0.2997
  872MOL0     C17648   8.432   9.051   2.279 -0.5336 -0.3599  0.2176
  872MOL0     C17649   8.387   9.189   2.293  0.4255 -0.6472  0.4229
  872MOL0     C17650   8.351   9.305   2.289 -0.4066  0.1999  1.0268
  872MOL0     C17651   8.966   8.935   2.371  0.3227  0.0155  0.1895
  872MOL0     C17652   8.993   8.876   2.492  0.8667  0.3644 -0.6826
  872MOL0     H17653   9.153   8.918   2.936  0.9629  0.3529  1.5917
  872MOL0     H17654   9.257   8.847   3.159 -1.9064 -1.8823  0.7213
  872MOL0     H17655   9.364   8.655   3.401  1.2013 -2.9874 -0.9166
  872MOL0     H17656   9.221   8.734   3.348 -0.6587 -0.8386 -0.5601
  872MOL0     H17657   9.149   8.603   3.523  1.4380 -1.1152  0.2560
  872MOL0     H17658   9.076   8.556   3.363  0.6723  1.2430 -1.7860
  872MOL0     H17659   9.258   8.343   3.404 -0.1519 -3.8409  4.4454
  872MOL0     H17660   9.272   8.426   3.555 -0.1357  2.4182  0.1875
  872MOL0     H17661   9.024   8.427   3.588  0.2637 -1.1551  0.9973
  872MOL0     H17662   9.002   8.338   3.445 -1.1534 -3.9688  1.5865
  872MOL0     H17663   9.156   8.159   3.538  0.3947 -2.2581  2.8776
  872MOL0     H17664   9.147   8.233   3.690 -0.5629  0.5351  0.6786
  872MOL0     H17665   8.875   8.215   3.644 -1.6929 -2.6406  1.2823
  872MOL0     H17666   8.933   8.120   3.511 -2.4070  4.0780  0.0776
  872MOL0     H17667   9.028   8.074   3.814 -2.3761  1.1163  0.1474
  872MOL0     H17668   8.877   8.003   3.751 -0.6526 -1.6731 -1.7043
  872MOL0     H17669   9.068   7.858   3.743 -1.3732 -0.6452  0.1399
  872MOL0     H17670   9.160   7.978   3.648  2.7975 -4.7950  2.8638
  872MOL0     H17671   8.799   7.797   3.617 -0.0618 -3.7429  0.0186
  872MOL0     H17672   8.750   7.644   3.324  1.1058 -0.4757  0.2678
  872MOL0     H17673   8.647   7.770   3.409  1.7053  1.7896 -0.0077
  872MOL0     H17674   8.774   7.817   3.135  2.0762 -1.7404  2.7635
  872MOL0     H17675   8.678   7.928   3.238  1.1470  0.3428  1.1347
  872MOL0     H17676   8.495   7.721   3.231  1.4333 -2.4574  0.4868
  872MOL0     H17677   8.584   7.669   3.096 -0.8054  0.8445 -2.6765
  872MOL0     H17678   8.549   7.904   2.978  1.8564 -0.0696  0.9669
  872MOL0     H17679   8.481   7.956   3.131 -0.7063 -0.4017 -0.5498
  872MOL0     H17680   8.176   7.708   2.917  1.0288  1.9806  0.4719
  872MOL0     H17681   7.874   7.742   2.934  2.3105  1.2972 -1.4729
  872MOL0     H17682   7.981   7.609   2.904  0.5634 -1.8423  1.8973
  872MOL0     H17683   7.860   7.590   3.029  0.9038 -0.5150 -0.1255
  872MOL0     H17684   7.625   7.942   3.285 -1.2132  2.1154  0.7421
  872MOL0     H17685   7.405   7.953   3.393 -0.1751 -2.5639 -2.6862
  872MOL0     H17686   7.213   7.811   3.505  0.1871  0.3361  0.0685
  872MOL0     H17687   7.242   7.684   3.627  1.4118  0.8600  1.2553
  872MOL0     H17688   7.150   7.802   3.799 -1.1702  0.8491  0.9348
  872MOL0     H17689   7.107   7.936   3.706 -1.4838  0.2878  1.7816
  872MOL0     H17690   7.020   7.635   3.689  1.9135 -0.9815 -2.3873
  872MOL0     H17691   7.012   7.706   3.545  0.8182 -4.7638  1.7295
  872MOL0     H17692   6.858   7.801   3.793 -1.0635  0.3772  0.3217
  872MOL0     H17693   6.872   7.904   3.648 -0.0484 -0.5360 -0.1928
  872MOL0     H17694   6.767   7.626   3.664 -2.8274 -0.8195 -0.9606
  872MOL0     H17695   6.760   7.712   3.517  0.0865 -2.2196  0.0994
  872MOL0     H17696   6.610   7.816   3.771 -4.4509  2.8563 -1.0536
  872MOL0     H17697   6.615   7.879   3.604  0.6542 -0.7432 -0.3941
  872MOL0     H17698   6.539   7.585   3.636 -1.7197 -1.2616 -0.8956
  872MOL0     H17699   6.484   7.711   3.520 -1.9719  2.5120  1.1888
  872MOL0     H17700   6.375   7.712   3.794 -1.4799 -1.9059  0.5475
  872MOL0     H17701   6.304   7.618   3.670  1.9151 -1.1416 -1.6495
  872MOL0     H17702   7.574   7.760   3.745  2.3093 -0.9938 -0.5820
  872MOL0     H17703   7.789   7.738   3.623 -1.3913 -1.0584  0.2904
  872MOL0     H17704   8.086   7.879   3.368 -1.9867 -0.8856 -0.0491
  872MOL0     H17705   8.305   7.905   3.278 -0.0500 -0.9349  1.2656
  872MOL0     H17706   9.224   8.439   3.013 -0.5727 -0.7547 -5.1004
  872MOL0     H17707   9.154   8.513   2.798 -2.6716  2.1666 -2.0971
  872MOL0     H17708   8.826   8.584   2.465 -2.6285  0.5581 -0.1236
  872MOL0     H17709   8.772   8.675   2.254  0.4207 -1.8187  1.3982
  872MOL0     H17710   8.904   9.105   2.183  0.3186 -1.0197 -0.0181
  872MOL0     H17711   8.791   9.097   2.052  0.4663  3.6479  0.8385
  872MOL0     H17712   8.691   9.204   2.251  2.5797 -0.3819 -1.0246
  872MOL0     H17713   8.710   9.060   2.346  0.5334 -0.7745  0.1735
  872MOL0     H17714   8.573   8.932   2.179 -1.2950  0.0740  1.3457
  872MOL0     H17715   8.527   9.094   2.107  0.3313  2.3719  1.3158
  872MOL0     H17716   8.453   9.026   2.383 -3.3515  1.0707  1.2438
  872MOL0     H17717   8.351   8.982   2.253 -2.3391  2.0116 -0.8189
  872MOL0     H17718   8.327   9.408   2.271  1.1400  0.3041 -0.6651
  872MOL0     H17719   8.995   9.037   2.351 -1.2825  0.7249  1.2860
  872MOL0     H17720   9.041   8.939   2.566  0.0736 -1.6334  1.6685
  873MOL0     O17721   0.071   0.125   3.928  0.4154 -0.0136 -1.0515
  873MOL0     C17722   0.107   0.132   3.810  0.4709  0.5369 -0.0395
  873MOL0     O17723   0.032   0.180   3.710 -0.1386 -0.4019 -0.2668
  873MOL0     C17724  -0.048   0.286   3.737 -0.6621  0.4401 -0.5361
  873MOL0     C17725  -0.179   0.278   3.689  0.2878  0.8054 -0.7860
  873MOL0     C17726  -0.276   0.388   3.703 -0.1997 -0.2144 -0.0720
  873MOL0     C17727  -0.242   0.501   3.768  0.1737 -0.8008 -0.4843
  873MOL0     O17728  -0.318   0.614   3.786  0.1281  0.4553 -0.3889
  873MOL0     C17729  -0.449   0.599   3.849  0.0303  0.2297  0.3073
  873MOL0     C17730  -0.553   0.669   3.766  1.2088 -0.3118  0.5851
  873MOL0     C17731  -0.700   0.637   3.820  0.0463 -0.1799 -1.1038
  873MOL0     C17732  -0.753   0.493   3.791  0.1135  0.3149 -0.4728
  873MOL0     C17733  -0.899   0.482   3.814 -0.1552 -0.7081  0.1598
  873MOL0     C17734  -0.951   0.345   3.782 -0.4477 -0.2901  0.5030
  873MOL0     C17735  -1.100   0.332   3.828  0.0245 -0.0086 -0.5343
  873MOL0     C17736  -1.197   0.429   3.752  0.0858  0.3902  0.4460
  873MOL0     N17737  -1.341   0.393   3.778 -0.2057  0.1282  0.2776
  873MOL0     C17738  -1.411   0.301   3.697 -0.4218 -0.1330 -0.2266
  873MOL0     C17739  -1.532   0.287   3.764  0.2707  0.7637 -0.4681
  873MOL0     C17740  -1.636   0.190   3.709  0.7452  0.8620 -0.6912
  873MOL0     C17741  -1.762   0.207   3.778  0.3446 -0.1382  0.3187
  873MOL0     C17742  -1.833   0.330   3.740  0.9814 -0.0361 -0.0126
  873MOL0     C17743  -1.970   0.314   3.805 -0.3678  0.9106 -0.2339
  873MOL0     O17744  -2.062   0.247   3.722 -0.1396 -0.4350  0.3980
  873MOL0     C17745  -2.186   0.222   3.767  0.5663 -0.7557  0.0561
  873MOL0     C17746  -2.284   0.180   3.673  1.0738 -0.0822 -0.0804
  873MOL0     C17747  -2.421   0.141   3.723  0.2084  0.0813  0.3461
  873MOL0     C17748  -2.499   0.091   3.605 -0.7397  0.4736  0.5422
  873MOL0     C17749  -2.448   0.132   3.860  0.2960  0.4592  0.1151
  873MOL0     C17750  -2.576   0.079   3.912 -0.1984  1.0215  1.1859
  873MOL0     O17751  -2.572   0.059   4.053 -0.3448 -0.0980 -0.0570
  873MOL0     C17752  -2.668  -0.018   4.120 -0.4670  0.2328  0.1238
  873MOL0     C17753  -2.639  -0.133   4.194 -0.6439  0.0738 -0.3623
  873MOL0     C17754  -2.743  -0.208   4.251  0.6807 -0.2617 -0.0318
  873MOL0     C17755  -2.879  -0.165   4.240  1.0247  0.0902 -0.0199
  873MOL0     O17756  -2.986  -0.247   4.276 -0.2558 -0.7004 -0.5297
  873MOL0     C17757  -2.972  -0.371   4.338 -0.1838  0.2339 -0.5391
  873MOL0     C17758  -3.105  -0.438   4.363  0.6076 -0.8351  0.2800
  873MOL0     C17759  -3.181  -0.366   4.479  0.4098  0.6947  0.6992
  873MOL0     C17760  -3.330  -0.391   4.485 -0.7553 -0.1245 -0.1361
  873MOL0     C17761  -3.410  -0.287   4.566 -0.7084  0.2860 -0.9285
  873MOL0     C17762  -3.534  -0.365   4.606  0.3979  0.6750 -0.9798
  873MOL0     C17763  -3.611  -0.278   4.707  0.2656 -0.8801 -0.3208
  873MOL0     C17764  -3.752  -0.333   4.754 -0.8783  0.3109 -0.0398
  873MOL0    Cl17765  -3.862  -0.328   4.622 -0.2300  0.3583 -0.0649
  873MOL0     C17766  -2.903  -0.048   4.178 -0.1333  0.6707  0.3282
  873MOL0     C17767  -2.801   0.029   4.114  0.3274  0.3522 -0.6670
  873MOL0     O17768  -2.672   0.058   3.841  0.0166 -0.2883  0.0492
  873MOL0     C17769  -2.357   0.186   3.946 -0.5406 -0.0961 -0.6577
  873MOL0     C17770  -2.234   0.236   3.901  1.3148 -0.3440  0.1092
  873MOL0     N17771  -1.534   0.365   3.879 -1.0202  0.7215 -1.1201
  873MOL0     N17772  -1.415   0.421   3.891  0.5905 -0.0439 -0.4747
  873MOL0     C17773  -0.108   0.514   3.813  0.1706  0.0585 -0.4013
  873MOL0     C17774  -0.013   0.414   3.798  0.0737  0.1550 -0.5374
  873MOL0     C17775   0.231   0.056   3.773 -0.2804 -0.4067 -0.0394
  873MOL0     C17776   0.303   0.095   3.654 -0.5299 -0.0419  0.6271
  873MOL0     C17777   0.424   0.028   3.631 -0.2616  0.2594  0.0819
  873MOL0     C17778   0.474  -0.079   3.703  0.0535  0.5794 -0.0298
  873MOL0     O17779   0.591  -0.148   3.680 -0.3378 -0.1392  0.6468
  873MOL0     C17780   0.703  -0.064   3.641 -0.1220 -1.2237 -0.6445
  873MOL0     C17781   0.769   0.037   3.736  0.3465  0.2196  0.2349
  873MOL0     C17782   0.773  -0.016   3.883 -0.7471 -0.4161  0.3891
  873MOL0     C17783   0.834   0.090   3.977  0.7332  0.1092  0.3098
  873MOL0     C17784   0.740   0.199   4.025 -0.1154  0.2834  0.3960
  873MOL0     C17785   0.663   0.287   4.071  0.0130 -0.6999 -0.3024
  873MOL0     C17786   0.399  -0.115   3.812  0.7566  0.0747 -0.7608
  873MOL0     C17787   0.277  -0.052   3.849 -0.0270 -0.3215 -0.0608
  873MOL0     H17788  -0.212   0.184   3.646 -0.2717  0.4123  0.4510
  873MOL0     H17789  -0.375   0.369   3.663  0.1237 -2.3830  0.0693
  873MOL0     H17790  -0.490   0.497   3.850 -0.2697  0.2226 -2.6343
  873MOL0     H17791  -0.439   0.651   3.944 -1.2596  1.3486 -0.1343
  873MOL0     H17792  -0.544   0.778   3.763 -0.9641 -0.1053 -0.3126
  873MOL0     H17793  -0.548   0.630   3.663  2.2458 -0.7555  0.7948
  873MOL0     H17794  -0.709   0.656   3.927 -1.3189  1.1107 -1.4071
  873MOL0     H17795  -0.762   0.711   3.769 -2.4841 -0.2432  1.6077
  873MOL0     H17796  -0.730   0.472   3.686 -0.0930  1.0770 -0.6737
  873MOL0     H17797  -0.697   0.421   3.850  1.3860 -0.6382 -2.7061
  873MOL0     H17798  -0.916   0.491   3.922 -1.6655 -2.9942  0.1682
  873MOL0     H17799  -0.962   0.560   3.770 -2.1607 -0.6294  2.8987
  873MOL0     H17800  -0.945   0.316   3.677 -0.0419  1.4615  0.0138
  873MOL0     H17801  -0.899   0.271   3.844  1.1223 -0.8950 -1.4297
  873MOL0     H17802  -1.125   0.225   3.824  0.9175 -0.3676  1.7295
  873MOL0     H17803  -1.115   0.360   3.933  0.9428  1.2763 -0.7273
  873MOL0     H17804  -1.178   0.432   3.644 -1.0806  2.5627  0.2462
  873MOL0     H17805  -1.187   0.530   3.794 -1.6338  0.3337  1.0758
  873MOL0     H17806  -1.384   0.263   3.599  1.2445 -0.3884  0.2895
  873MOL0     H17807  -1.649   0.200   3.601 -0.5431  2.1094 -0.4629
  873MOL0     H17808  -1.607   0.086   3.720  0.8497  1.0174  0.7876
  873MOL0     H17809  -1.737   0.198   3.884  0.5899 -2.8740  0.1104
  873MOL0     H17810  -1.834   0.127   3.759 -2.5924  2.0127  1.6966
  873MOL0     H17811  -1.838   0.335   3.631  3.4243 -2.6797 -0.3864
  873MOL0     H17812  -1.794   0.419   3.789  0.7804  0.8280 -1.3817
  873MOL0     H17813  -2.025   0.407   3.824 -2.1853 -0.1976  0.2085
  873MOL0     H17814  -1.960   0.261   3.900  2.7927 -1.2653 -1.5955
  873MOL0     H17815  -2.265   0.171   3.566 -2.7438 -2.5453 -0.7419
  873MOL0     H17816  -2.503  -0.018   3.615 -0.3092  0.4734  0.7275
  873MOL0     H17817  -2.596   0.141   3.594 -0.2125  1.0940 -1.7684
  873MOL0     H17818  -2.447   0.102   3.510  0.2744  2.5991  1.2777
  873MOL0     H17819  -2.539  -0.175   4.204 -1.0886 -1.0540 -0.4902
  873MOL0     H17820  -2.726  -0.305   4.297  1.5135  0.5035  1.3272
  873MOL0     H17821  -2.912  -0.427   4.267 -1.3603  1.2806 -2.4379
  873MOL0     H17822  -2.922  -0.364   4.435 -1.4701 -5.5480  0.9468
  873MOL0     H17823  -3.159  -0.429   4.269  2.1421  0.9763 -0.4946
  873MOL0     H17824  -3.098  -0.546   4.379 -1.4850 -1.1987 -0.8487
  873MOL0     H17825  -3.185  -0.260   4.454 -0.8321 -0.0311 -2.8790
  873MOL0     H17826  -3.135  -0.398   4.573 -1.6600 -0.1840  1.4792
  873MOL0     H17827  -3.368  -0.383   4.382 -1.2346  0.1550  0.0606
  873MOL0     H17828  -3.342  -0.493   4.522 -0.3904  0.3217  1.2783
  873MOL0     H17829  -3.422  -0.192   4.513  3.3682  0.9064 -1.0257
  873MOL0     H17830  -3.354  -0.258   4.656  2.4810 -2.2825 -1.8976
  873MOL0     H17831  -3.593  -0.400   4.521 -0.2654 -1.5977  0.3410
  873MOL0     H17832  -3.516  -0.456   4.663  1.4557 -0.9690 -3.7653
  873MOL0     H17833  -3.632  -0.178   4.670 -1.2839 -1.3883 -0.9422
  873MOL0     H17834  -3.548  -0.278   4.796 -1.4444 -3.7424  1.0401
  873MOL0     H17835  -3.785  -0.282   4.845 -1.2282 -0.4321  0.2673
  873MOL0     H17836  -3.746  -0.437   4.788  2.4518  0.6741  0.8272
  873MOL0     H17837  -3.007  -0.020   4.162 -0.6717 -1.2972  0.2112
  873MOL0     H17838  -2.828   0.116   4.056 -2.7280  0.9481  1.4062
  873MOL0     H17839  -2.381   0.172   4.051 -0.7928 -1.6803 -0.8983
  873MOL0     H17840  -2.166   0.268   3.979  2.0593 -2.3547  0.3681
  873MOL0     H17841  -0.078   0.608   3.858  0.6141  0.3789 -1.3514
  873MOL0     H17842   0.089   0.437   3.827 -0.0321 -0.4171  0.3267
  873MOL0     H17843   0.268   0.170   3.585 -0.8902 -1.2615 -0.5623
  873MOL0     H17844   0.467   0.042   3.533 -1.6555  0.8147 -0.4766
  873MOL0     H17845   0.776  -0.143   3.625 -0.6227 -1.9751  0.6803
  873MOL0     H17846   0.681  -0.000   3.554 -1.3887  1.0564  1.2381
  873MOL0     H17847   0.717   0.133   3.736 -0.9077 -0.4080 -1.2804
  873MOL0     H17848   0.871   0.056   3.700  0.2140 -1.4940 -1.1723
  873MOL0     H17849   0.846  -0.097   3.891  1.3056  1.2878  0.1293
  873MOL0     H17850   0.681  -0.060   3.919 -0.4717 -0.0897  1.5307
  873MOL0     H17851   0.922   0.135   3.931 -1.0978  1.9922 -1.5592
  873MOL0     H17852   0.879   0.042   4.065  0.8379  1.4700  1.0199
  873MOL0     H17853   0.592   0.353   4.117  0.6472  1.1503 -1.8694
  873MOL0     H17854   0.427  -0.201   3.873 -3.2265 -1.3319 -0.6122
  873MOL0     H17855   0.212  -0.077   3.932  2.0633 -0.3292  1.6615
  874MOL0     O17856   3.731   1.654   1.481 -0.1857  1.0798  0.3889
  874MOL0     C17857   3.781   1.555   1.529  0.7961 -0.6895  0.4721
  874MOL0     O17858   3.714   1.441   1.563 -0.3191  0.1823  0.0305
  874MOL0     C17859   3.581   1.447   1.606 -0.1945 -0.9762 -0.1754
  874MOL0     C17860   3.527   1.557   1.673 -0.5394  0.0434 -0.4429
  874MOL0     C17861   3.397   1.554   1.710 -0.5212  0.4299 -0.6983
  874MOL0     C17862   3.313   1.445   1.702 -0.3082  0.1764  0.1924
  874MOL0     O17863   3.182   1.444   1.748 -0.3052 -0.5773  0.0839
  874MOL0     C17864   3.089   1.338   1.730  0.3058  0.2474 -0.0270
  874MOL0     C17865   2.951   1.366   1.794 -0.1744 -0.2279 -0.2069
  874MOL0     C17866   2.865   1.477   1.725 -0.4965 -0.1150  0.1455
  874MOL0     C17867   2.728   1.488   1.786 -0.8214  0.4679  0.0726
  874MOL0     C17868   2.626   1.397   1.721  0.4026  0.3417  0.4443
  874MOL0     C17869   2.483   1.397   1.787 -0.0550  0.7908  0.3281
  874MOL0     C17870   2.405   1.519   1.760 -0.8820 -0.3493 -0.8331
  874MOL0     C17871   2.259   1.505   1.814  0.0071  0.7747 -0.1179
  874MOL0     N17872   2.180   1.424   1.724 -0.7381  0.0743  0.7120
  874MOL0     C17873   2.157   1.290   1.725  0.4720  0.1366  0.1647
  874MOL0     C17874   2.059   1.270   1.636  0.2071 -0.1345  0.1451
  874MOL0     C17875   2.003   1.131   1.613 -0.3959 -0.5367 -0.4816
  874MOL0     C17876   2.117   1.027   1.594  0.3233 -0.4350  0.5005
  874MOL0     C17877   2.224   1.069   1.492  1.1874 -0.1009 -0.2656
  874MOL0     C17878   2.271   0.944   1.422  0.3315  0.0475  0.3332
  874MOL0     O17879   2.369   0.989   1.324 -0.4230 -0.0629  0.3603
  874MOL0     C17880   2.500   1.009   1.367  0.0499 -0.8556 -0.3348
  874MOL0     C17881   2.552   0.982   1.496 -0.0843 -0.0054 -0.8832
  874MOL0     C17882   2.689   1.016   1.537  0.0738 -1.2105  0.1024
  874MOL0     C17883   2.715   0.987   1.676  0.8643 -0.5157 -0.3658
  874MOL0     C17884   2.785   1.064   1.443 -0.5434 -0.4575 -0.1914
  874MOL0     C17885   2.925   1.070   1.464  0.1150  0.1658 -0.0410
  874MOL0     O17886   3.004   1.079   1.348 -0.6719  0.5126 -0.4007
  874MOL0     C17887   3.136   1.082   1.364 -0.0517  0.1313  0.5939
  874MOL0     C17888   3.205   1.174   1.288 -0.2146 -0.1385  0.6781
  874MOL0     C17889   3.346   1.168   1.278 -0.8491  0.6788  0.4436
  874MOL0     C17890   3.415   1.074   1.351  0.0612 -0.2460 -0.1672
  874MOL0     O17891   3.550   1.073   1.368  0.0300 -0.4286  0.1830
  874MOL0     C17892   3.631   1.142   1.275  0.4072 -0.3658  0.4030
  874MOL0     C17893   3.774   1.131   1.322  0.6227  0.4905  0.7159
  874MOL0     C17894   3.828   0.990   1.322  0.1293 -0.4514 -0.3216
  874MOL0     C17895   3.972   0.968   1.341 -0.2591  0.6038 -1.1575
  874MOL0     C17896   4.059   1.048   1.252 -0.7455  0.2192  0.0366
  874MOL0     C17897   4.117   1.177   1.327  0.0031  0.3049  0.3931
  874MOL0     C17898   4.204   1.260   1.236 -0.0488  0.0251  0.7605
  874MOL0     C17899   4.266   1.373   1.330  0.1962 -1.0903  0.6710
  874MOL0    Cl17900   4.347   1.481   1.219  0.1853 -0.0630 -0.0306
  874MOL0     C17901   3.351   0.976   1.428  0.0404  0.1412  0.0837
  874MOL0     C17902   3.207   0.980   1.428  0.3764  0.4736 -0.8420
  874MOL0     O17903   2.961   1.092   1.579  0.0244  0.3849 -0.3154
  874MOL0     C17904   2.727   1.096   1.316 -0.4229  0.2501  0.8773
  874MOL0     C17905   2.592   1.069   1.280  0.2051  0.2217  0.0219
  874MOL0     N17906   2.025   1.387   1.583  0.2075 -0.7315 -0.3593
  874MOL0     N17907   2.095   1.477   1.634 -0.1616 -0.7547  0.4977
  874MOL0     C17908   3.366   1.331   1.634  0.7678  0.4627 -0.3412
  874MOL0     C17909   3.504   1.331   1.600  0.7518 -0.6826 -0.4084
  874MOL0     C17910   3.923   1.568   1.559  0.3029  0.1792 -0.1830
  874MOL0     C17911   4.000   1.672   1.509 -0.1501  0.4106 -0.5322
  874MOL0     C17912   4.138   1.681   1.536  0.1268 -0.7032 -0.4846
  874MOL0     C17913   4.200   1.582   1.609 -1.1006 -0.1605 -0.2850
  874MOL0     O17914   4.330   1.624   1.639  0.2271  0.4735 -1.0742
  874MOL0     C17915   4.403   1.543   1.726 -0.1523  0.0033 -0.9707
  874MOL0     C17916   4.545   1.578   1.733 -0.0216  0.7250  0.1462
  874MOL0     C17917   4.623   1.506   1.624  0.2042 -0.0390 -0.6664
  874MOL0     C17918   4.775   1.513   1.624 -0.0328 -0.2567 -0.2251
  874MOL0     C17919   4.830   1.465   1.748 -0.2091 -0.6669  0.1321
  874MOL0     C17920   4.883   1.446   1.849 -0.6017 -0.0208  0.4034
  874MOL0     C17921   4.127   1.466   1.653 -1.7207 -0.4914 -0.3095
  874MOL0     C17922   3.986   1.470   1.637 -0.0833  0.0978  0.4234
  874MOL0     H17923   3.587   1.645   1.695  0.5811 -0.5551 -1.0034
  874MOL0     H17924   3.357   1.644   1.755  0.7014 -0.3099  2.0828
  874MOL0     H17925   3.068   1.316   1.625 -0.0608 -2.0690  0.4724
  874MOL0     H17926   3.131   1.246   1.771 -0.5860  0.3221  1.1247
  874MOL0     H17927   2.894   1.273   1.801  0.2433 -0.5000 -0.3619
  874MOL0     H17928   2.973   1.393   1.897 -0.1002 -1.8216  0.2185
  874MOL0     H17929   2.924   1.569   1.733 -3.1163  1.8024 -0.8879
  874MOL0     H17930   2.842   1.467   1.618 -3.3740  1.4494  0.4937
  874MOL0     H17931   2.738   1.472   1.894  1.4328 -2.1892 -0.3808
  874MOL0     H17932   2.693   1.587   1.757  2.3068  1.5344 -0.4394
  874MOL0     H17933   2.615   1.423   1.615  1.0975 -1.1194 -0.0106
  874MOL0     H17934   2.668   1.296   1.714 -1.3152 -0.3173 -1.2318
  874MOL0     H17935   2.420   1.312   1.758 -1.0322  0.7273  2.4348
  874MOL0     H17936   2.486   1.401   1.896 -0.8069  1.6268  0.3315
  874MOL0     H17937   2.458   1.595   1.818  0.2985 -0.7501 -1.3578
  874MOL0     H17938   2.404   1.537   1.652  2.5006 -4.5411 -1.8310
  874MOL0     H17939   2.208   1.599   1.835  0.4217  0.8682  0.5104
  874MOL0     H17940   2.255   1.448   1.908  1.1573  2.0501  0.7406
  874MOL0     H17941   2.201   1.215   1.789  0.0340  0.4949  0.8963
  874MOL0     H17942   1.930   1.106   1.691  0.4007  1.4438  0.9705
  874MOL0     H17943   1.949   1.143   1.518  0.9858  1.9205 -1.0486
  874MOL0     H17944   2.063   0.940   1.555 -0.7561  1.9166 -3.9536
  874MOL0     H17945   2.166   0.990   1.684  0.9003 -0.6391  0.1054
  874MOL0     H17946   2.307   1.125   1.537  0.5412 -0.3082  1.2366
  874MOL0     H17947   2.184   1.127   1.408  1.8788  1.0065  0.1392
  874MOL0     H17948   2.198   0.891   1.361 -1.4557  0.7395  1.7587
  874MOL0     H17949   2.304   0.865   1.490  1.5228  1.3281  1.3061
  874MOL0     H17950   2.477   0.947   1.566  1.4186 -4.5184 -1.1875
  874MOL0     H17951   2.730   1.076   1.737 -1.5755  0.5266 -1.1573
  874MOL0     H17952   2.631   0.925   1.710  0.9991  0.5993  2.2197
  874MOL0     H17953   2.807   0.929   1.680  2.8117  2.4392  0.5182
  874MOL0     H17954   3.163   1.255   1.230  3.3000  0.5525 -1.1478
  874MOL0     H17955   3.385   1.255   1.226 -0.0011  0.8557  1.3633
  874MOL0     H17956   3.611   1.089   1.181 -1.1546  2.5915 -1.0468
  874MOL0     H17957   3.610   1.249   1.275  0.7666 -0.2897 -0.6944
  874MOL0     H17958   3.829   1.190   1.249  0.3239 -2.2605 -1.9237
  874MOL0     H17959   3.789   1.170   1.423  0.5639 -0.9062  1.2954
  874MOL0     H17960   3.806   0.945   1.224 -0.7296 -0.6513 -0.0530
  874MOL0     H17961   3.777   0.925   1.394  0.3184 -0.7124 -0.4226
  874MOL0     H17962   3.998   0.993   1.444  0.0414  2.8290 -1.7389
  874MOL0     H17963   3.984   0.861   1.319 -2.2647  0.3951 -1.3756
  874MOL0     H17964   4.005   1.089   1.166 -1.3172  1.8328  1.1218
  874MOL0     H17965   4.140   0.988   1.210 -1.2029  0.0712 -0.6490
  874MOL0     H17966   4.029   1.233   1.360 -0.6119  0.2890 -1.1219
  874MOL0     H17967   4.180   1.140   1.408 -1.0654  3.0823  2.6540
  874MOL0     H17968   4.149   1.299   1.151  0.2084  0.2912  0.7163
  874MOL0     H17969   4.284   1.194   1.200  1.1727 -0.3102  3.7275
  874MOL0     H17970   4.323   1.317   1.405  0.7233  0.3847  1.4181
  874MOL0     H17971   4.180   1.424   1.373 -0.4943 -2.8453  1.4527
  874MOL0     H17972   3.408   0.910   1.493  0.5172  0.5835  0.1251
  874MOL0     H17973   3.143   0.905   1.472  1.2239 -1.3254 -2.5149
  874MOL0     H17974   2.797   1.122   1.237 -2.4356 -0.1431 -1.1397
  874MOL0     H17975   2.542   1.085   1.185 -1.2458  0.5357  0.8193
  874MOL0     H17976   3.294   1.254   1.608 -0.6421  0.9348  1.9562
  874MOL0     H17977   3.553   1.243   1.559 -0.2277 -1.9825  1.0852
  874MOL0     H17978   3.945   1.743   1.448  0.5694 -0.6597 -2.5384
  874MOL0     H17979   4.198   1.769   1.514 -0.9448  1.1211  3.0478
  874MOL0     H17980   4.370   1.555   1.830  0.3158  2.0821 -1.0081
  874MOL0     H17981   4.395   1.437   1.702  2.0673 -1.0889  2.3921
  874MOL0     H17982   4.576   1.540   1.831 -0.6263  2.5098  1.0654
  874MOL0     H17983   4.557   1.685   1.718 -1.5010  0.8953  0.0367
  874MOL0     H17984   4.574   1.533   1.530 -0.0758 -0.0696 -0.5316
  874MOL0     H17985   4.614   1.398   1.639  2.3084 -0.0873  0.6612
  874MOL0     H17986   4.794   1.620   1.618  0.1387 -0.2575  0.2810
  874MOL0     H17987   4.821   1.465   1.537 -3.2687 -1.3564 -1.5030
  874MOL0     H17988   4.912   1.413   1.947  1.2606  1.9722  0.5924
  874MOL0     H17989   4.177   1.383   1.703 -2.3247 -1.9113 -1.9581
  874MOL0     H17990   3.941   1.380   1.679 -0.7024  0.1815 -0.0595
  875MOL0     O17991  11.127   7.392   3.586  0.2059 -0.0743  0.2321
  875MOL0     C17992  11.151   7.300   3.506  0.4106  0.5356 -0.9199
  875MOL0     O17993  11.072   7.193   3.479 -0.1515 -0.9747 -0.0831
  875MOL0     C17994  10.949   7.181   3.540  0.0280 -0.3974  0.5450
  875MOL0     C17995  10.855   7.285   3.543 -0.3740  0.5764 -0.5369
  875MOL0     C17996  10.738   7.262   3.604 -0.0002 -0.4058 -0.2306
  875MOL0     C17997  10.701   7.138   3.652  0.7746 -0.5029 -0.4055
  875MOL0     O17998  10.588   7.121   3.729 -0.4723  0.0544 -0.3284
  875MOL0     C17999  10.461   7.169   3.694  0.4311 -0.1935 -0.3083
  875MOL0     C18000  10.412   7.299   3.767 -0.6537 -0.5572  0.2633
  875MOL0     C18001  10.293   7.362   3.680 -0.3076  0.8898 -0.7921
  875MOL0     C18002  10.222   7.468   3.753  0.1671 -0.5711 -0.1761
  875MOL0     C18003  10.114   7.540   3.674  0.4041  0.0068  0.5961
  875MOL0     C18004  10.005   7.437   3.623 -0.3277  0.8404  0.2388
  875MOL0     C18005   9.871   7.491   3.575  0.1295 -0.7358  0.4969
  875MOL0     C18006   9.778   7.517   3.694 -0.1998  0.6958 -0.1049
  875MOL0     N18007   9.747   7.390   3.769 -1.2109 -0.4570  0.5300
  875MOL0     C18008   9.672   7.283   3.735 -0.0369  0.2630  0.0773
  875MOL0     C18009   9.677   7.195   3.835 -0.4336 -0.1993 -0.1900
  875MOL0     C18010   9.619   7.055   3.845  0.4166 -0.7107  0.0548
  875MOL0     C18011   9.467   7.057   3.880  0.1048  0.6077 -0.9117
  875MOL0     C18012   9.376   7.070   3.766 -0.5249  0.0299 -0.8145
  875MOL0     C18013   9.235   7.042   3.821 -0.4213 -0.6153  0.2583
  875MOL0     O18014   9.140   7.058   3.711 -0.0795 -0.3236  0.1575
  875MOL0     C18015   9.012   7.010   3.721 -0.4463  0.1363 -0.3641
  875MOL0     C18016   8.929   7.022   3.610  0.4493  0.1564 -1.1891
  875MOL0     C18017   8.803   6.955   3.595 -0.4733 -0.2637  0.1076
  875MOL0     C18018   8.748   6.964   3.459  0.1161 -0.1945 -0.6138
  875MOL0     C18019   8.755   6.895   3.717 -0.0626  0.3847  0.3074
  875MOL0     C18020   8.632   6.819   3.731  0.9363  0.3873  0.0130
  875MOL0     O18021   8.588   6.768   3.857  0.0834  0.3131 -0.3003
  875MOL0     C18022   8.485   6.683   3.871  0.3367  0.3394  0.4686
  875MOL0     C18023   8.412   6.701   3.989 -0.0894 -0.2406  0.2976
  875MOL0     C18024   8.302   6.624   4.005 -0.6990 -0.5597  0.0331
  875MOL0     C18025   8.251   6.532   3.909  0.5801 -0.0829 -0.8407
  875MOL0     O18026   8.136   6.461   3.935  0.2910 -0.2912  0.6660
  875MOL0     C18027   8.023   6.544   3.966 -0.0839 -0.7174  0.5820
  875MOL0     C18028   7.902   6.448   3.943  0.2230 -0.3878 -0.1242
  875MOL0     C18029   7.761   6.504   3.914 -0.0817 -0.4213  0.2704
  875MOL0     C18030   7.674   6.398   3.842 -0.3261  0.1041 -1.1637
  875MOL0     C18031   7.527   6.448   3.840  0.0194  0.6566 -0.4002
  875MOL0     C18032   7.445   6.349   3.747 -0.0795 -0.4138 -0.0610
  875MOL0     C18033   7.300   6.386   3.747  1.3935  0.1338  0.1620
  875MOL0     C18034   7.233   6.383   3.883  0.3241  0.7847 -0.1899
  875MOL0    Cl18035   7.068   6.450   3.862  0.4739  0.1766 -0.1054
  875MOL0     C18036   8.326   6.514   3.793  0.3907 -1.4109  0.1948
  875MOL0     C18037   8.440   6.587   3.777 -0.2215  0.3024  0.7670
  875MOL0     O18038   8.570   6.797   3.625 -0.0323 -0.8073 -0.4698
  875MOL0     C18039   8.835   6.890   3.833  0.4710 -0.1921 -0.3882
  875MOL0     C18040   8.959   6.948   3.840 -0.1652 -0.1477 -0.3927
  875MOL0     N18041   9.755   7.251   3.939 -1.4838  0.2379  0.8474
  875MOL0     N18042   9.799   7.367   3.895 -0.3365  0.4551  0.7426
  875MOL0     C18043  10.784   7.026   3.633 -0.4249  0.4149 -0.1423
  875MOL0     C18044  10.918   7.049   3.586  0.0908 -0.2638 -0.7120
  875MOL0     C18045  11.284   7.302   3.442 -0.6799  0.1200 -0.9550
  875MOL0     C18046  11.316   7.214   3.341  0.3210 -0.2686 -0.6230
  875MOL0     C18047  11.444   7.204   3.281 -0.1562  0.2306 -0.2366
  875MOL0     C18048  11.543   7.290   3.317  0.3628 -0.1359  0.0954
  875MOL0     O18049  11.664   7.272   3.260 -0.6604 -0.1255 -0.3600
  875MOL0     C18050  11.773   7.352   3.303 -0.0217  0.6310 -0.1561
  875MOL0     C18051  11.902   7.277   3.298 -0.5203 -0.5721  0.5209
  875MOL0     C18052  11.957   7.250   3.157 -0.5474  0.4719  0.5704
  875MOL0     C18053  12.097   7.164   3.179  0.8932 -0.2881 -0.4180
  875MOL0     C18054  12.123   7.084   3.054 -0.3285  0.0738 -0.2288
  875MOL0     C18055  12.159   7.016   2.957 -0.0995  0.2923  0.5366
  875MOL0     C18056  11.510   7.393   3.406  0.3905  0.6850  0.0483
  875MOL0     C18057  11.387   7.390   3.482 -1.0693  0.6477  0.7300
  875MOL0     H18058  10.879   7.385   3.508 -1.0469  1.2047  0.7043
  875MOL0     H18059  10.676   7.350   3.618 -1.8062 -1.4362 -1.4221
  875MOL0     H18060  10.434   7.184   3.589 -3.9572  2.7496  0.9737
  875MOL0     H18061  10.382   7.097   3.717  1.2572 -1.8394 -2.3818
  875MOL0     H18062  10.372   7.264   3.862  0.2969 -1.3642  0.3837
  875MOL0     H18063  10.501   7.363   3.775  1.2071 -3.0049  0.1670
  875MOL0     H18064  10.334   7.405   3.588  2.0165  1.8453  0.5928
  875MOL0     H18065  10.220   7.284   3.656  1.5886 -0.8475 -1.2085
  875MOL0     H18066  10.176   7.424   3.842 -0.5233 -0.8109 -0.6482
  875MOL0     H18067  10.291   7.546   3.785 -0.5620 -0.9432  2.5329
  875MOL0     H18068  10.066   7.616   3.736  1.6509 -0.5224  2.3071
  875MOL0     H18069  10.164   7.583   3.587  1.2768 -3.5104 -0.8260
  875MOL0     H18070  10.051   7.384   3.540  1.7368  2.1584  0.4509
  875MOL0     H18071   9.990   7.365   3.704 -0.3837  0.7695  0.1651
  875MOL0     H18072   9.886   7.581   3.514 -2.0557 -0.8732 -0.3356
  875MOL0     H18073   9.841   7.413   3.505  0.6776 -0.2606 -0.2779
  875MOL0     H18074   9.684   7.552   3.650 -1.1169 -2.0976 -0.5764
  875MOL0     H18075   9.823   7.592   3.760  0.1069  0.2611  0.1844
  875MOL0     H18076   9.616   7.274   3.642 -0.7090  1.1390  0.3845
  875MOL0     H18077   9.644   7.000   3.755  0.3938 -1.1494  0.3109
  875MOL0     H18078   9.673   7.004   3.925  0.1424  0.2708  0.8899
  875MOL0     H18079   9.452   7.132   3.959 -1.6059 -2.1777  1.6246
  875MOL0     H18080   9.443   6.959   3.922  0.2157  1.6956  1.8894
  875MOL0     H18081   9.403   7.008   3.681  1.5026 -2.6276  1.5711
  875MOL0     H18082   9.389   7.172   3.727  2.3004  0.9283  2.0276
  875MOL0     H18083   9.204   7.108   3.903  1.5779 -1.5411  1.8528
  875MOL0     H18084   9.236   6.942   3.866 -1.1123 -1.4728 -1.5435
  875MOL0     H18085   8.984   7.070   3.529 -0.2257  2.4716 -0.3650
  875MOL0     H18086   8.835   7.000   3.402 -0.0098 -0.6987 -1.1287
  875MOL0     H18087   8.701   6.870   3.430  2.0423 -2.1055  2.0177
  875MOL0     H18088   8.672   7.043   3.455 -1.4885 -1.5302  1.7785
  875MOL0     H18089   8.460   6.760   4.066  1.3589 -0.5389 -0.3486
  875MOL0     H18090   8.270   6.621   4.108  0.0328  2.0937  0.4079
  875MOL0     H18091   8.010   6.583   4.067 -3.8895 -0.6946  0.2272
  875MOL0     H18092   8.024   6.630   3.899  3.2617 -0.3839  0.9198
  875MOL0     H18093   7.932   6.391   3.855  0.5826 -0.1850 -0.1339
  875MOL0     H18094   7.892   6.376   4.025 -2.5863  0.4542  0.3804
  875MOL0     H18095   7.770   6.588   3.844  3.7419  0.5451  1.6398
  875MOL0     H18096   7.721   6.539   4.009 -0.9567 -0.7694  0.0423
  875MOL0     H18097   7.711   6.386   3.740 -1.3155 -1.7293 -1.3321
  875MOL0     H18098   7.676   6.300   3.891 -3.0972  0.4075 -0.2799
  875MOL0     H18099   7.536   6.546   3.791 -1.0000  0.4291 -1.0917
  875MOL0     H18100   7.477   6.467   3.935 -1.5718  3.0786 -1.5951
  875MOL0     H18101   7.487   6.355   3.646  0.9198  0.1596  0.3788
  875MOL0     H18102   7.465   6.249   3.786  1.2819 -0.8712 -1.8036
  875MOL0     H18103   7.230   6.325   3.689  0.3996  0.1950  1.2594
  875MOL0     H18104   7.295   6.491   3.717  1.9751 -0.0349 -0.5410
  875MOL0     H18105   7.273   6.436   3.970  0.2834 -0.8317  0.8697
  875MOL0     H18106   7.227   6.279   3.918 -2.7167  1.0689  0.3781
  875MOL0     H18107   8.294   6.449   3.712  1.4293 -0.1705 -1.2682
  875MOL0     H18108   8.497   6.578   3.685  0.7398  1.0152  1.2595
  875MOL0     H18109   8.796   6.836   3.919  1.4059  1.5823  1.2553
  875MOL0     H18110   9.024   6.955   3.927  0.8359  1.6692 -1.2337
  875MOL0     H18111  10.760   6.931   3.678  2.6712 -0.5147 -0.1701
  875MOL0     H18112  10.997   6.975   3.581 -1.3956 -2.1410  1.2681
  875MOL0     H18113  11.240   7.151   3.296  0.1605 -0.9701  0.5851
  875MOL0     H18114  11.458   7.133   3.199  2.6993  1.5521 -1.0382
  875MOL0     H18115  11.767   7.453   3.261  3.8712  0.3839 -1.7881
  875MOL0     H18116  11.758   7.370   3.409 -2.9013  1.4317 -0.6286
  875MOL0     H18117  11.888   7.183   3.352 -0.2417 -0.8316  0.1502
  875MOL0     H18118  11.975   7.336   3.354  1.4084 -0.6043 -1.7683
  875MOL0     H18119  11.989   7.339   3.101  0.5382 -0.6823 -0.7194
  875MOL0     H18120  11.879   7.202   3.097 -0.9875 -1.1305  2.3455
  875MOL0     H18121  12.081   7.100   3.266  0.5299  1.8002  1.1266
  875MOL0     H18122  12.179   7.227   3.215 -1.2557  1.6842  1.3544
  875MOL0     H18123  12.191   6.961   2.871 -2.7243  1.3579 -1.2534
  875MOL0     H18124  11.577   7.474   3.435 -3.4771  4.4188 -0.4306
  875MOL0     H18125  11.378   7.453   3.569 -0.1506 -0.1112  1.3945
  876MOL0     O18126   5.889   9.683   8.413 -0.0545 -0.3080  0.3207
  876MOL0     C18127   5.864   9.802   8.424 -0.5485  0.8163  0.1871
  876MOL0     O18128   5.942   9.902   8.380 -0.7274  0.2157 -0.2270
  876MOL0     C18129   6.078   9.866   8.368 -0.1237 -0.2162 -0.2937
  876MOL0     C18130   6.148   9.886   8.248  0.1596  0.7310  0.0067
  876MOL0     C18131   6.286   9.857   8.239  0.8239  0.0098 -0.1022
  876MOL0     C18132   6.350   9.794   8.348 -0.7178  0.0180  0.4079
  876MOL0     O18133   6.484   9.754   8.349 -0.3579  0.2310 -0.0025
  876MOL0     C18134   6.526   9.657   8.246  0.2575 -0.1635  0.0634
  876MOL0     C18135   6.610   9.543   8.296 -0.8193  0.7325 -0.7436
  876MOL0     C18136   6.620   9.429   8.194  0.3751 -0.4040  0.3645
  876MOL0     C18137   6.739   9.453   8.106  0.0757  0.0236  0.3658
  876MOL0     C18138   6.843   9.342   8.125  0.4861  0.0054  0.2014
  876MOL0     C18139   6.920   9.350   8.252 -0.9890  0.2181 -0.1172
  876MOL0     C18140   7.057   9.279   8.250  0.4142  0.3157 -0.3794
  876MOL0     C18141   7.101   9.234   8.384 -0.3319 -0.0706 -0.1560
  876MOL0     N18142   7.032   9.125   8.445  0.1332  0.1016 -0.7172
  876MOL0     C18143   6.948   9.121   8.555  1.0780 -0.1162 -0.2551
  876MOL0     C18144   6.926   8.994   8.592 -0.9261 -0.9515  0.3567
  876MOL0     C18145   6.840   8.944   8.709 -0.3216  0.6742 -0.4651
  876MOL0     C18146   6.695   8.902   8.681 -0.0751  0.1501  0.5120
  876MOL0     C18147   6.682   8.774   8.596  0.0148 -0.4354 -0.3476
  876MOL0     C18148   6.551   8.760   8.527 -0.0040 -0.2151 -0.4031
  876MOL0     O18149   6.442   8.777   8.622  0.6835 -0.1522 -0.3725
  876MOL0     C18150   6.319   8.727   8.602  0.0870 -0.0514 -0.2056
  876MOL0     C18151   6.289   8.595   8.582 -0.1538 -0.7870  0.4649
  876MOL0     C18152   6.157   8.567   8.542 -0.1676  0.0399 -1.4322
  876MOL0     C18153   6.127   8.414   8.543  0.3483  0.3350  0.0999
  876MOL0     C18154   6.057   8.662   8.532  0.3957  0.6354 -0.8460
  876MOL0     C18155   5.912   8.636   8.505  0.3311  0.4491  0.0203
  876MOL0     O18156   5.814   8.732   8.538 -0.6477  0.8576  0.1658
  876MOL0     C18157   5.685   8.692   8.542 -0.1137  0.5121  0.2841
  876MOL0     C18158   5.616   8.706   8.663 -0.4077  0.6345  0.0177
  876MOL0     C18159   5.485   8.659   8.673 -0.1604 -0.1148  0.4659
  876MOL0     C18160   5.418   8.605   8.561 -0.8850  0.3134 -0.2580
  876MOL0     O18161   5.290   8.570   8.582 -0.2081 -0.6459  0.9959
  876MOL0     C18162   5.227   8.484   8.483 -0.0943  0.2265 -0.1104
  876MOL0     C18163   5.107   8.410   8.545 -1.4765 -0.5587 -0.4978
  876MOL0     C18164   4.998   8.364   8.463 -0.0982  0.3360  0.3427
  876MOL0     C18165   4.905   8.478   8.439  0.1091 -0.5271  0.3221
  876MOL0     C18166   4.805   8.441   8.328 -0.9162  0.5020  0.0661
  876MOL0     C18167   4.710   8.321   8.368  0.0680 -0.2825  0.4311
  876MOL0     C18168   4.611   8.298   8.246 -0.7761  0.1552 -0.1685
  876MOL0     C18169   4.493   8.208   8.282  1.1202  0.0564  0.4062
  876MOL0    Cl18170   4.406   8.168   8.136 -0.3399  0.0853 -0.3373
  876MOL0     C18171   5.486   8.596   8.438  0.0339 -1.3557 -0.4892
  876MOL0     C18172   5.616   8.642   8.425  0.2547 -0.0912 -0.2799
  876MOL0     O18173   5.886   8.531   8.456  0.9678  1.1549 -0.2918
  876MOL0     C18174   6.089   8.800   8.552 -0.0553  0.9140 -0.7576
  876MOL0     C18175   6.219   8.829   8.586  0.5498  0.6487 -0.7186
  876MOL0     N18176   7.004   8.920   8.499 -0.3395  0.0372  0.8579
  876MOL0     N18177   7.068   9.002   8.421  0.5436  0.8976 -0.8062
  876MOL0     C18178   6.286   9.771   8.468 -0.0435 -0.5643  0.2883
  876MOL0     C18179   6.150   9.806   8.478  0.0030  0.0810 -0.0150
  876MOL0     C18180   5.738   9.828   8.496 -0.5717 -0.1562  0.1792
  876MOL0     C18181   5.674   9.951   8.491  0.1920  0.1220  0.5023
  876MOL0     C18182   5.551   9.979   8.549 -0.4339 -0.4236  0.0624
  876MOL0     C18183   5.487   9.880   8.622  0.5753  0.6081  0.0781
  876MOL0     O18184   5.364   9.892   8.679 -0.9217  0.0155 -0.4449
  876MOL0     C18185   5.358   9.859   8.822  0.2942  0.7235 -0.4477
  876MOL0     C18186   5.208   9.805   8.842  0.7081 -0.6752  0.5716
  876MOL0     C18187   5.187   9.761   8.981  0.5767 -0.0294 -0.0780
  876MOL0     C18188   5.046   9.692   8.984 -0.4791  0.2920 -0.3938
  876MOL0     C18189   4.934   9.779   8.950  0.0278  0.8395  0.4316
  876MOL0     C18190   4.828   9.830   8.933 -0.0337 -0.6357 -0.0278
  876MOL0     C18191   5.550   9.753   8.628  0.0944  0.2329  0.9178
  876MOL0     C18192   5.677   9.728   8.571  0.5947 -0.3347  0.7735
  876MOL0     H18193   6.095   9.935   8.167 -0.1132  0.6961  0.1629
  876MOL0     H18194   6.352   9.886   8.158  0.8813  2.0987  0.6046
  876MOL0     H18195   6.440   9.612   8.195  2.5333 -2.9890 -1.4998
  876MOL0     H18196   6.565   9.717   8.163 -1.6563  0.1779 -0.6429
  876MOL0     H18197   6.705   9.586   8.327 -1.3236  0.8793  0.6804
  876MOL0     H18198   6.556   9.507   8.384 -0.7484  2.4310  0.0323
  876MOL0     H18199   6.634   9.334   8.245  0.8898 -0.6041 -0.1284
  876MOL0     H18200   6.535   9.415   8.126  0.9818 -0.2199 -0.4557
  876MOL0     H18201   6.697   9.455   8.005 -0.5533 -2.2923  0.5208
  876MOL0     H18202   6.783   9.550   8.132 -0.4146  0.1128  0.8713
  876MOL0     H18203   6.803   9.243   8.103  0.6784 -0.4832  1.9308
  876MOL0     H18204   6.913   9.355   8.041 -3.4164 -0.4525 -3.4451
  876MOL0     H18205   6.918   9.453   8.290 -0.7513  0.0086  0.4792
  876MOL0     H18206   6.857   9.292   8.320  2.7596 -3.4282  0.6882
  876MOL0     H18207   7.050   9.184   8.197 -0.0720 -0.1715  0.5322
  876MOL0     H18208   7.130   9.348   8.207  1.2462  1.3417  2.4405
  876MOL0     H18209   7.113   9.320   8.452  6.2725  0.9063 -1.8728
  876MOL0     H18210   7.205   9.204   8.370 -0.1109  1.8039 -3.6978
  876MOL0     H18211   6.911   9.208   8.609  1.2417  0.9111 -1.7245
  876MOL0     H18212   6.891   8.863   8.761 -0.0946  2.2430  1.8602
  876MOL0     H18213   6.842   9.027   8.779  0.2828  0.5153 -0.2877
  876MOL0     H18214   6.652   8.990   8.631 -0.0827  0.3209  0.8179
  876MOL0     H18215   6.646   8.881   8.776 -0.9657  0.2066  0.0845
  876MOL0     H18216   6.713   8.684   8.649  0.7722  0.4016  0.6553
  876MOL0     H18217   6.757   8.778   8.517  1.2881  1.1999  0.8927
  876MOL0     H18218   6.550   8.659   8.486  1.2281 -1.3548  2.2250
  876MOL0     H18219   6.535   8.832   8.446  2.2678 -1.3719 -2.0038
  876MOL0     H18220   6.372   8.526   8.588 -0.5347 -1.2825  0.0919
  876MOL0     H18221   6.055   8.377   8.616  1.4005 -1.1634  0.4324
  876MOL0     H18222   6.103   8.386   8.440  2.3954 -1.8215  0.1081
  876MOL0     H18223   6.223   8.363   8.560  0.4441 -0.8403 -3.2256
  876MOL0     H18224   5.660   8.734   8.758 -1.3821 -0.2886  0.7728
  876MOL0     H18225   5.433   8.657   8.767  1.1377  1.1170  1.2543
  876MOL0     H18226   5.183   8.545   8.404 -5.1404  0.2851  2.3564
  876MOL0     H18227   5.293   8.410   8.437 -1.5974 -1.2033 -0.0453
  876MOL0     H18228   5.144   8.320   8.596 -0.0452 -0.6645 -1.6573
  876MOL0     H18229   5.057   8.476   8.616  2.4879  2.7329 -0.4275
  876MOL0     H18230   4.947   8.280   8.511  1.4257 -0.5892  0.3873
  876MOL0     H18231   5.048   8.335   8.370  1.2273  2.0085  0.4841
  876MOL0     H18232   4.850   8.498   8.532 -0.5828  0.1721 -0.2289
  876MOL0     H18233   4.959   8.568   8.409 -0.6225 -0.1271  0.1982
  876MOL0     H18234   4.856   8.398   8.242  0.2480  0.8248  0.5669
  876MOL0     H18235   4.744   8.528   8.301 -1.0515  0.4711  0.2675
  876MOL0     H18236   4.762   8.232   8.404  1.3634  1.1719  2.3514
  876MOL0     H18237   4.644   8.346   8.451 -0.9671  0.4594 -0.5886
  876MOL0     H18238   4.673   8.261   8.163 -0.0958  0.9559 -0.0378
  876MOL0     H18239   4.553   8.381   8.204 -2.2695 -1.2912 -1.0515
  876MOL0     H18240   4.431   8.251   8.361  2.2827 -0.1873  1.4817
  876MOL0     H18241   4.528   8.119   8.335  1.4199 -0.2477 -0.2775
  876MOL0     H18242   5.424   8.551   8.361 -0.6755 -3.0889  1.0009
  876MOL0     H18243   5.671   8.644   8.331 -0.8967 -1.0503 -1.0112
  876MOL0     H18244   6.019   8.883   8.552 -0.1603  0.8312 -1.5909
  876MOL0     H18245   6.245   8.933   8.598 -1.1319  0.9392  0.8667
  876MOL0     H18246   6.350   9.732   8.546 -0.6278  1.8969  2.1256
  876MOL0     H18247   6.093   9.784   8.567 -2.3895  0.5614 -1.3577
  876MOL0     H18248   5.718  10.035   8.438 -0.0083  2.9494  4.3407
  876MOL0     H18249   5.506  10.078   8.544 -0.1502  0.0081  3.3981
  876MOL0     H18250   5.422   9.773   8.843  2.3783  1.5768 -2.7395
  876MOL0     H18251   5.375   9.938   8.896 -0.2094  0.5651 -0.1581
  876MOL0     H18252   5.188   9.737   8.758  1.8174  4.1672 -4.1503
  876MOL0     H18253   5.134   9.880   8.812  0.1768 -1.3946  0.0299
  876MOL0     H18254   5.189   9.851   9.043 -1.1211 -2.3177  3.6517
  876MOL0     H18255   5.263   9.690   9.015 -0.5674 -0.4250  1.7821
  876MOL0     H18256   5.023   9.655   9.084 -2.6951  3.3444  0.3561
  876MOL0     H18257   5.067   9.612   8.912  0.4407 -1.1141  1.3458
  876MOL0     H18258   4.733   9.870   8.907 -0.6650 -0.2735  2.5405
  876MOL0     H18259   5.495   9.665   8.661  0.0689 -0.8718 -1.8254
  876MOL0     H18260   5.720   9.629   8.586 -1.2286 -1.2326  0.4574
  877MOL0     O18261   3.263   0.012   5.118 -0.3632  0.1836 -0.0746
  877MOL0     C18262   3.267   0.098   5.194  0.3636  0.6075 -0.4283
  877MOL0     O18263   3.179   0.206   5.200 -0.2851  0.1630  0.5172
  877MOL0     C18264   3.054   0.201   5.141 -0.9026  0.2333  0.3968
  877MOL0     C18265   3.004   0.326   5.109  0.6138 -0.1849  0.3388
  877MOL0     C18266   2.877   0.335   5.046 -0.3703 -0.3658 -1.5342
  877MOL0     C18267   2.797   0.227   5.033 -0.4768  0.6695  0.5726
  877MOL0     O18268   2.675   0.244   4.988 -0.1584  0.6745  0.4319
  877MOL0     C18269   2.620   0.142   4.899  0.8134  0.4780  0.2230
  877MOL0     C18270   2.472   0.194   4.862 -0.5852  0.2395 -0.2331
  877MOL0     C18271   2.405   0.114   4.752 -0.8220  0.6753 -0.5723
  877MOL0     C18272   2.256   0.150   4.727 -0.4292 -0.1446 -0.6678
  877MOL0     C18273   2.239   0.285   4.663 -0.1484 -0.5101  0.0234
  877MOL0     C18274   2.103   0.295   4.601  0.0912 -0.9021  0.1057
  877MOL0     C18275   2.084   0.392   4.484 -0.4222  0.1236 -1.1237
  877MOL0     C18276   2.128   0.538   4.532 -0.2477  0.1721  0.3665
  877MOL0     N18277   2.056   0.581   4.650  0.4097  1.5989 -0.0465
  877MOL0     C18278   1.931   0.635   4.655  0.0167 -0.7898  0.6419
  877MOL0     C18279   1.900   0.650   4.790  0.5721  0.0904  0.4482
  877MOL0     C18280   1.764   0.668   4.846  0.6495 -0.6847  0.2004
  877MOL0     C18281   1.735   0.544   4.937 -0.0742  0.2261 -0.1393
  877MOL0     C18282   1.620   0.567   5.027 -0.6443  0.1275 -0.9173
  877MOL0     C18283   1.491   0.557   4.958  0.6776 -0.0993 -0.1613
  877MOL0     O18284   1.467   0.674   4.871  0.3123  0.0030 -0.0397
  877MOL0     C18285   1.349   0.685   4.803 -0.5556  0.8854 -0.1673
  877MOL0     C18286   1.244   0.590   4.791 -0.1580  0.1712 -0.7789
  877MOL0     C18287   1.140   0.605   4.699 -0.1609 -0.4233 -0.5840
  877MOL0     C18288   1.052   0.488   4.680  0.3908  0.2311 -0.5495
  877MOL0     C18289   1.130   0.732   4.633  0.6502 -0.6604  0.2130
  877MOL0     C18290   1.027   0.764   4.522 -0.1483 -0.0669 -0.5165
  877MOL0     O18291   0.986   0.894   4.513  0.0154 -0.0791  0.3683
  877MOL0     C18292   0.888   0.918   4.416  0.0238 -0.5576  0.1262
  877MOL0     C18293   0.924   0.931   4.279 -0.5582 -0.2311 -0.2307
  877MOL0     C18294   0.816   0.949   4.190  0.1585 -0.0120  0.5685
  877MOL0     C18295   0.686   0.973   4.232  0.4418 -0.1309  0.7605
  877MOL0     O18296   0.596   1.008   4.134  0.2527 -0.0506 -0.6167
  877MOL0     C18297   0.510   1.120   4.157  0.8650 -0.8692  0.6742
  877MOL0     C18298   0.360   1.079   4.173  0.2029 -0.6154  0.1393
  877MOL0     C18299   0.301   1.008   4.053 -0.4698 -0.9241 -0.2274
  877MOL0     C18300   0.147   0.995   4.043  0.0501  0.4737 -0.0791
  877MOL0     C18301   0.097   0.951   3.911  0.4802  0.2884 -0.0202
  877MOL0     C18302  -0.059   0.974   3.916 -0.2824 -0.4230  0.7359
  877MOL0     C18303  -0.130   0.907   3.797 -0.8429 -1.0358  0.3463
  877MOL0     C18304  -0.274   0.959   3.776 -1.1067  0.3774 -0.3641
  877MOL0    Cl18305  -0.319   0.906   3.613 -0.5727  0.2984  0.1891
  877MOL0     C18306   0.657   0.968   4.365  0.6902 -1.2505  0.2320
  877MOL0     C18307   0.751   0.941   4.457 -0.7292  0.1037  0.0046
  877MOL0     O18308   0.983   0.667   4.460 -0.0794 -0.4255  0.1330
  877MOL0     C18309   1.223   0.836   4.662 -0.2303  0.0272  0.0448
  877MOL0     C18310   1.334   0.801   4.737  0.4951  0.0144 -0.1095
  877MOL0     N18311   2.012   0.622   4.862  0.2394  0.7414 -0.1104
  877MOL0     N18312   2.097   0.587   4.777 -0.5876  0.3104  0.6049
  877MOL0     C18313   2.846   0.096   5.073 -0.2182 -0.1591 -0.6383
  877MOL0     C18314   2.976   0.088   5.124  0.7820  0.2398  0.0528
  877MOL0     C18315   3.384   0.096   5.283  0.2893 -0.7733  0.6999
  877MOL0     C18316   3.397   0.194   5.384 -0.9131 -1.1582 -0.7948
  877MOL0     C18317   3.520   0.209   5.446  0.4357 -0.9948  0.9961
  877MOL0     C18318   3.631   0.130   5.418  0.4884  0.3034 -0.0746
  877MOL0     O18319   3.760   0.137   5.470 -0.1072 -0.1695 -0.1341
  877MOL0     C18320   3.793   0.239   5.569  0.7383  0.4157  0.1381
  877MOL0     C18321   3.798   0.380   5.510  0.6100  0.3764  0.2589
  877MOL0     C18322   3.946   0.418   5.491 -0.0153  0.5763 -0.5401
  877MOL0     C18323   3.994   0.367   5.353  0.2459  0.2137  0.3846
  877MOL0     C18324   4.144   0.350   5.342 -0.0355  0.9512 -0.1419
  877MOL0     C18325   4.264   0.335   5.310  0.4374 -0.1135 -0.2513
  877MOL0     C18326   3.612   0.022   5.332  0.7059 -0.9049 -0.8581
  877MOL0     C18327   3.491   0.005   5.264  0.3877  0.2465 -0.0853
  877MOL0     H18328   3.066   0.415   5.121  1.6634 -0.7197 -0.9114
  877MOL0     H18329   2.843   0.436   5.024  1.2268  0.8076  0.9015
  877MOL0     H18330   2.684   0.124   4.813 -1.4328  0.6170 -1.5600
  877MOL0     H18331   2.615   0.053   4.963  1.6139  0.7401  0.6702
  877MOL0     H18332   2.426   0.204   4.960  0.9963  1.6425  0.4178
  877MOL0     H18333   2.479   0.297   4.824 -1.7722  0.5836  0.4535
  877MOL0     H18334   2.472   0.095   4.668  0.3672  0.3636  0.4229
  877MOL0     H18335   2.400   0.014   4.796 -0.6169  0.9648  0.1362
  877MOL0     H18336   2.228   0.074   4.653  0.8074 -2.5152  1.1756
  877MOL0     H18337   2.197   0.133   4.818 -0.1127  1.6219 -0.0963
  877MOL0     H18338   2.248   0.363   4.740  2.7674  1.0655 -1.7229
  877MOL0     H18339   2.317   0.296   4.588  0.9655 -1.0627  1.0657
  877MOL0     H18340   2.076   0.194   4.566  1.1097 -0.6621 -1.4686
  877MOL0     H18341   2.035   0.332   4.678 -0.9877 -0.7352 -0.8874
  877MOL0     H18342   2.130   0.363   4.390  1.4689  0.8064 -0.4635
  877MOL0     H18343   1.976   0.388   4.466 -0.6234  0.0239  0.0088
  877MOL0     H18344   2.128   0.606   4.446  2.5954  1.2975  1.1343
  877MOL0     H18345   2.232   0.538   4.565 -0.5236  2.5271  1.4532
  877MOL0     H18346   1.869   0.648   4.567 -0.6529 -0.2655  1.1744
  877MOL0     H18347   1.757   0.758   4.908  1.2356 -0.7693  0.3930
  877MOL0     H18348   1.695   0.680   4.762  0.6164  1.9529  0.4939
  877MOL0     H18349   1.826   0.518   4.991 -0.1803 -1.7546 -0.8375
  877MOL0     H18350   1.706   0.458   4.876  0.0526 -0.4355  0.7146
  877MOL0     H18351   1.623   0.658   5.087 -2.6895  0.7101 -1.6051
  877MOL0     H18352   1.622   0.485   5.099 -0.7127  0.4800 -0.5142
  877MOL0     H18353   1.418   0.561   5.040 -0.5890  3.0974 -1.2588
  877MOL0     H18354   1.476   0.473   4.890 -1.2418  2.1577 -2.7502
  877MOL0     H18355   1.258   0.495   4.841  0.1496  1.1755  1.1733
  877MOL0     H18356   1.095   0.422   4.604  0.5304  0.4955 -0.7012
  877MOL0     H18357   1.039   0.424   4.767  1.0791  0.1785 -0.4806
  877MOL0     H18358   0.950   0.511   4.648 -0.1517 -0.1403  0.8566
  877MOL0     H18359   1.024   0.917   4.240 -0.5815 -1.8594  0.1790
  877MOL0     H18360   0.829   0.959   4.082  1.8056 -1.6017  0.5556
  877MOL0     H18361   0.546   1.182   4.239 -0.2806 -1.6827  1.8354
  877MOL0     H18362   0.519   1.183   4.068  0.3458  0.8106  1.7570
  877MOL0     H18363   0.342   1.016   4.261 -1.3495  0.4810  0.6366
  877MOL0     H18364   0.303   1.172   4.184 -2.0377 -1.2826 -3.8926
  877MOL0     H18365   0.335   0.904   4.042 -2.9452 -1.8383  0.0545
  877MOL0     H18366   0.329   1.065   3.964 -1.2464 -1.4335 -0.8151
  877MOL0     H18367   0.106   0.919   4.110  0.3677 -2.1709 -2.6434
  877MOL0     H18368   0.122   1.099   4.063 -2.3655 -0.0999  0.2154
  877MOL0     H18369   0.111   0.843   3.909 -2.1302 -0.1434 -2.0443
  877MOL0     H18370   0.148   0.992   3.823 -0.7772  1.9811 -0.0203
  877MOL0     H18371  -0.099   0.938   4.011 -1.1190 -0.8903  0.2228
  877MOL0     H18372  -0.075   1.081   3.904 -1.3713 -0.7361 -0.9758
  877MOL0     H18373  -0.145   0.800   3.816  0.2565 -1.1702  0.5429
  877MOL0     H18374  -0.070   0.911   3.705 -0.9500 -1.7990  0.2355
  877MOL0     H18375  -0.277   1.068   3.786  0.2079  0.5879 -1.7493
  877MOL0     H18376  -0.348   0.916   3.844 -1.6833  0.8965 -0.6549
  877MOL0     H18377   0.560   0.986   4.409  1.4046 -1.1300  1.8047
  877MOL0     H18378   0.710   0.941   4.557 -0.9958 -2.5591 -0.0303
  877MOL0     H18379   1.222   0.931   4.609 -3.1887 -0.5406 -1.1261
  877MOL0     H18380   1.419   0.869   4.737  1.4654 -1.1373 -1.6676
  877MOL0     H18381   2.806  -0.004   5.055  0.2932 -1.0555  2.5435
  877MOL0     H18382   3.017  -0.005   5.161  0.9222  0.0484 -0.5610
  877MOL0     H18383   3.319   0.268   5.392 -0.3467 -0.6804  0.4988
  877MOL0     H18384   3.541   0.298   5.504 -1.3350 -1.3785  2.3056
  877MOL0     H18385   3.716   0.222   5.645 -1.3074 -0.7253 -2.0519
  877MOL0     H18386   3.881   0.208   5.626  0.3120  1.4202  1.4035
  877MOL0     H18387   3.759   0.450   5.585 -2.8573  0.1828 -1.1843
  877MOL0     H18388   3.733   0.389   5.422 -0.7325 -2.3325  0.8633
  877MOL0     H18389   4.017   0.376   5.563  0.7045 -1.3367 -2.2648
  877MOL0     H18390   3.966   0.525   5.493  0.2057  0.5394  1.4898
  877MOL0     H18391   3.968   0.440   5.276 -0.5952  0.2956  0.7365
  877MOL0     H18392   3.951   0.270   5.325  0.8695 -0.0477  0.3077
  877MOL0     H18393   4.361   0.307   5.275  0.8555 -2.5476  2.4471
  877MOL0     H18394   3.698  -0.043   5.328  1.7647  0.3023  0.9641
  877MOL0     H18395   3.493  -0.071   5.187 -1.4823  0.8592 -0.8028
  878MOL0     O18396  11.156   9.372   2.253 -0.0722 -0.8339 -0.6110
  878MOL0     C18397  11.201   9.318   2.355 -0.9292  0.8743  0.1368
  878MOL0     O18398  11.132   9.293   2.470 -0.4333 -0.3396 -0.5856
  878MOL0     C18399  11.006   9.334   2.477  0.5166  0.0911  0.4649
  878MOL0     C18400  10.906   9.228   2.461 -0.2405 -0.6070  0.2080
  878MOL0     C18401  10.765   9.265   2.461 -0.1128 -0.0974  0.1663
  878MOL0     C18402  10.732   9.393   2.516  1.4981 -1.0220  0.0433
  878MOL0     O18403  10.601   9.414   2.538  0.1987 -0.5640  0.1335
  878MOL0     C18404  10.545   9.548   2.525  1.1188 -0.2137  0.2399
  878MOL0     C18405  10.392   9.528   2.500  0.1820  0.1303 -0.5415
  878MOL0     C18406  10.330   9.668   2.526  0.2673  0.6759 -0.6639
  878MOL0     C18407  10.180   9.657   2.575  0.4846 -0.3847  0.3737
  878MOL0     C18408  10.139   9.803   2.623  0.0336  0.0552  1.1411
  878MOL0     C18409   9.987   9.814   2.632  0.3425  0.0840 -0.5890
  878MOL0     C18410   9.920   9.720   2.747 -0.5803  0.3388  0.3982
  878MOL0     C18411   9.910   9.798   2.882  0.1807  0.0419 -0.0621
  878MOL0     N18412   9.770   9.857   2.895 -1.0875 -0.1750  0.2198
  878MOL0     C18413   9.696   9.877   3.004 -0.9384 -0.2028 -0.2716
  878MOL0     C18414   9.597   9.961   2.966  0.1708  0.5137 -0.4158
  878MOL0     C18415   9.485  10.030   3.048  0.0037  0.5624 -0.4575
  878MOL0     C18416   9.368   9.935   3.042  0.8703  0.2383  0.2827
  878MOL0     C18417   9.257   9.961   3.153 -0.4037  0.2582  0.0711
  878MOL0     C18418   9.185  10.097   3.129  0.3944 -0.1171  0.2973
  878MOL0     O18419   9.127  10.079   2.997  0.0893  0.2493 -0.4980
  878MOL0     C18420   9.016  10.149   2.970 -0.5757 -0.3971  0.1909
  878MOL0     C18421   8.970  10.267   3.038  0.0513 -0.2972  0.3573
  878MOL0     C18422   8.857  10.341   3.007 -0.0648  0.1913  0.0353
  878MOL0     C18423   8.851  10.482   3.057  0.3218 -0.6588 -0.4395
  878MOL0     C18424   8.769  10.293   2.908  0.9029  0.1752 -0.5928
  878MOL0     C18425   8.634  10.353   2.873 -0.2853 -0.6145  0.5277
  878MOL0     O18426   8.565  10.307   2.767  0.4149  0.1929 -0.1156
  878MOL0     C18427   8.433  10.339   2.753 -0.2910 -0.0072  0.0927
  878MOL0     C18428   8.372  10.463   2.717 -0.8169 -0.1070  1.4439
  878MOL0     C18429   8.242  10.466   2.678  0.4627 -0.2868  0.6057
  878MOL0     C18430   8.162  10.357   2.698 -0.4114 -0.4367 -0.5431
  878MOL0     O18431   8.030  10.374   2.667 -0.8425  0.5797 -0.4061
  878MOL0     C18432   7.946  10.255   2.656  0.1525 -0.6465 -0.2721
  878MOL0     C18433   7.810  10.311   2.612  0.3046 -0.4275 -0.1792
  878MOL0     C18434   7.750  10.387   2.736 -1.0334 -0.2315  0.6079
  878MOL0     C18435   7.609  10.418   2.710  0.3430 -0.0477 -0.2342
  878MOL0     C18436   7.540  10.502   2.809  0.1400 -0.0366 -0.4210
  878MOL0     C18437   7.387  10.521   2.787  0.3892 -0.7350  0.0463
  878MOL0     C18438   7.334  10.619   2.890 -0.4854 -0.3256 -1.2807
  878MOL0     C18439   7.196  10.679   2.855  0.4652  0.0262 -0.1055
  878MOL0    Cl18440   7.090  10.557   2.795  0.5710 -0.0164 -0.7634
  878MOL0     C18441   8.213  10.237   2.741 -1.0163 -0.6018 -0.5840
  878MOL0     C18442   8.346  10.220   2.769 -0.0143  0.0551 -0.0219
  878MOL0     O18443   8.595  10.439   2.945 -0.7315 -0.2308 -0.4844
  878MOL0     C18444   8.805  10.168   2.840 -0.2012 -0.3579 -0.0620
  878MOL0     C18445   8.935  10.100   2.869 -0.4860 -0.1248  0.1152
  878MOL0     N18446   9.621   9.989   2.836  0.3847 -0.5733  0.6611
  878MOL0     N18447   9.737   9.941   2.792 -0.2095 -0.1443  0.0749
  878MOL0     C18448  10.827   9.495   2.526  0.1558  0.1634  0.0281
  878MOL0     C18449  10.962   9.465   2.504  0.1568 -0.1153  0.3275
  878MOL0     C18450  11.347   9.301   2.369 -0.7348 -0.4119 -0.2879
  878MOL0     C18451  11.405   9.231   2.474  0.5004 -0.5972 -0.1061
  878MOL0     C18452  11.545   9.228   2.488  0.3985  0.9401  0.2447
  878MOL0     C18453  11.633   9.291   2.393 -0.1543  0.2105  0.0581
  878MOL0     O18454  11.770   9.275   2.394 -0.5775 -0.5998  0.3828
  878MOL0     C18455  11.833   9.242   2.515  1.3123 -0.0239  0.5260
  878MOL0     C18456  11.984   9.249   2.494  0.0365  0.2939  0.0175
  878MOL0     C18457  12.063   9.248   2.620  0.0691  0.5561 -0.0877
  878MOL0     C18458  12.081   9.112   2.689  0.2677 -0.5669 -0.4784
  878MOL0     C18459  12.145   9.010   2.600  1.0754 -0.5210  0.6434
  878MOL0     C18460  12.185   8.926   2.516  0.0868  0.0587  0.4851
  878MOL0     C18461  11.572   9.368   2.294 -0.5040  0.4413  0.2229
  878MOL0     C18462  11.434   9.366   2.274  0.2317  0.1375 -0.5439
  878MOL0     H18463  10.921   9.125   2.431  0.2617 -0.6980  0.7478
  878MOL0     H18464  10.690   9.194   2.426 -1.0254 -0.3206  2.3796
  878MOL0     H18465  10.572   9.616   2.606  1.1458  0.3912 -0.2618
  878MOL0     H18466  10.585   9.595   2.434  0.4240  0.4450  0.2622
  878MOL0     H18467  10.375   9.498   2.396  1.0114  2.2878 -1.3591
  878MOL0     H18468  10.358   9.447   2.564  1.2958 -3.9829 -4.5563
  878MOL0     H18469  10.385   9.727   2.600  1.7694  0.6940 -1.7509
  878MOL0     H18470  10.349   9.732   2.439  3.3954  1.5681  0.5548
  878MOL0     H18471  10.126   9.625   2.486  1.8845 -1.8115 -0.0133
  878MOL0     H18472  10.163   9.585   2.655 -1.6616 -4.1041 -3.0640
  878MOL0     H18473  10.189   9.819   2.719 -2.3740 -2.4352  2.9481
  878MOL0     H18474  10.180   9.878   2.555  0.2922 -0.0321  1.1989
  878MOL0     H18475   9.964   9.916   2.666 -2.2858 -0.6206 -0.1004
  878MOL0     H18476   9.946   9.788   2.534 -0.7790  0.0058 -0.1133
  878MOL0     H18477   9.818   9.695   2.716 -1.0876  0.7794  1.6531
  878MOL0     H18478   9.977   9.629   2.765 -2.7675 -1.4950 -1.3424
  878MOL0     H18479   9.979   9.879   2.909 -0.5728  0.6732  0.0149
  878MOL0     H18480   9.919   9.718   2.956 -2.2179 -1.8202 -1.6223
  878MOL0     H18481   9.721   9.840   3.104  0.2731  2.6084  0.5695
  878MOL0     H18482   9.510  10.041   3.154 -0.9516  1.8475 -0.3428
  878MOL0     H18483   9.460  10.128   3.008  0.3189  2.1803  2.9527
  878MOL0     H18484   9.404   9.833   3.058 -0.2875  0.0160  1.7718
  878MOL0     H18485   9.327   9.946   2.941 -0.9221  1.4621  1.0755
  878MOL0     H18486   9.305   9.971   3.250 -1.5665 -1.1718  0.8283
  878MOL0     H18487   9.189   9.876   3.144  1.2324 -1.0119 -0.6731
  878MOL0     H18488   9.254  10.182   3.129 -1.2708  1.2824 -0.5103
  878MOL0     H18489   9.119  10.111   3.214 -0.2727 -0.5056 -0.1501
  878MOL0     H18490   9.042  10.311   3.106  2.3120 -2.3020 -0.5968
  878MOL0     H18491   8.794  10.486   3.150 -1.7586 -0.5368 -1.6681
  878MOL0     H18492   8.952  10.521   3.074  0.8344 -0.8241 -2.7684
  878MOL0     H18493   8.819  10.552   2.980  2.0118  0.7141  0.0282
  878MOL0     H18494   8.429  10.553   2.698 -1.8258  1.0187  3.3485
  878MOL0     H18495   8.201  10.552   2.626 -0.6352 -1.3257 -0.2700
  878MOL0     H18496   7.984  10.183   2.583 -1.0540  0.4906 -2.0766
  878MOL0     H18497   7.937  10.200   2.751  1.4709 -3.7521 -1.8158
  878MOL0     H18498   7.820  10.385   2.532 -0.8293  1.4247  1.3079
  878MOL0     H18499   7.744  10.228   2.587 -1.0508  0.6594 -0.3768
  878MOL0     H18500   7.799  10.484   2.748  0.5461 -0.7096 -1.4029
  878MOL0     H18501   7.754  10.335   2.832  0.5609 -0.9355  0.1825
  878MOL0     H18502   7.606  10.456   2.607  1.1676 -0.7645 -0.5365
  878MOL0     H18503   7.546  10.329   2.718 -2.0633  1.6210  0.5185
  878MOL0     H18504   7.584  10.602   2.805  0.9198 -0.3988 -3.5757
  878MOL0     H18505   7.554  10.465   2.912 -1.4134  1.3505  0.3323
  878MOL0     H18506   7.360  10.575   2.696  2.0781  0.0229 -0.0359
  878MOL0     H18507   7.332  10.426   2.792  1.3450 -1.2697  0.7119
  878MOL0     H18508   7.398  10.707   2.902  0.2051 -1.0641  1.3232
  878MOL0     H18509   7.324  10.587   2.995  0.3035  0.1661 -1.0420
  878MOL0     H18510   7.212  10.750   2.773 -2.1614 -0.9882 -1.6261
  878MOL0     H18511   7.142  10.731   2.935  2.1639 -0.5492  1.4834
  878MOL0     H18512   8.144  10.154   2.748 -2.8959  0.9677  0.5553
  878MOL0     H18513   8.385  10.124   2.801 -0.5111 -1.4471 -3.4350
  878MOL0     H18514   8.749  10.125   2.758  0.2096  2.3563 -1.8892
  878MOL0     H18515   8.958  10.010   2.813  0.9568 -0.7073  1.5826
  878MOL0     H18516  10.805   9.599   2.549  0.9757  0.2382  0.5280
  878MOL0     H18517  11.034   9.547   2.500 -0.5662  0.4760 -2.6518
  878MOL0     H18518  11.334   9.186   2.543  0.9069  0.4273  1.0368
  878MOL0     H18519  11.579   9.165   2.569  0.3532 -1.6229 -1.6063
  878MOL0     H18520  11.800   9.303   2.600 -0.2590  0.4937 -0.4018
  878MOL0     H18521  11.801   9.138   2.527  0.3765 -0.3447 -3.5015
  878MOL0     H18522  12.012   9.345   2.451  2.1397 -0.7683 -1.1171
  878MOL0     H18523  12.018   9.171   2.425 -1.8089 -1.3674  0.8572
  878MOL0     H18524  12.011   9.321   2.682  3.6919  1.9644  1.5817
  878MOL0     H18525  12.167   9.278   2.602  0.8034 -1.9977 -0.5743
  878MOL0     H18526  11.983   9.078   2.726 -0.8913 -0.7755 -3.4558
  878MOL0     H18527  12.155   9.124   2.768  2.6380  2.3396 -2.9322
  878MOL0     H18528  12.220   8.847   2.452  0.9782  1.9917 -1.5907
  878MOL0     H18529  11.637   9.423   2.227 -1.6379  2.8164  0.9628
  878MOL0     H18530  11.404   9.417   2.182 -2.0904 -0.2537 -0.0746
  879MOL0     O18531  10.781  11.130  10.399 -0.4886 -0.5124 -0.1187
  879MOL0     C18532  10.838  11.230  10.338 -0.5717  0.3687 -0.6389
  879MOL0     O18533  10.804  11.271  10.217  0.6792 -0.2864 -0.0020
  879MOL0     C18534  10.691  11.224  10.165  0.1586  0.1657 -0.2328
  879MOL0     C18535  10.681  11.181  10.035 -0.1035 -0.1202 -0.0737
  879MOL0     C18536  10.565  11.138   9.966  0.2733  0.5248  0.1918
  879MOL0     C18537  10.452  11.132  10.031  0.0618 -0.1897 -0.0530
  879MOL0     O18538  10.341  11.091   9.953  0.5524 -0.8755  0.5700
  879MOL0     C18539  10.325  10.954   9.928 -0.4810 -1.8263  0.4147
  879MOL0     C18540  10.264  10.883  10.043  0.5582  0.3763  0.3374
  879MOL0     C18541  10.130  10.809  10.010 -0.3379 -0.1362 -0.4514
  879MOL0     C18542  10.033  10.795  10.137 -1.7130 -1.1766  0.2866
  879MOL0     C18543   9.897  10.739  10.100  0.0574  0.5714  0.1509
  879MOL0     C18544   9.789  10.776  10.198 -0.0883  0.2387  0.0347
  879MOL0     C18545   9.656  10.698  10.180  0.0705 -0.0809  0.3878
  879MOL0     C18546   9.569  10.743  10.057  0.3643  0.3922 -0.5223
  879MOL0     N18547   9.437  10.679  10.040  0.5382 -0.9197 -0.1469
  879MOL0     C18548   9.423  10.552  10.008  0.4500  0.2205 -0.3058
  879MOL0     C18549   9.292  10.521  10.030 -0.3785  0.7217 -0.2743
  879MOL0     C18550   9.211  10.392  10.029  0.3033  0.2986 -0.6117
  879MOL0     C18551   9.225  10.295  10.146  0.3226 -1.3078  0.4591
  879MOL0     C18552   9.130  10.342  10.268 -0.7924 -0.3191  0.4022
  879MOL0     C18553   9.180  10.466  10.341 -0.3208 -0.4226 -0.2054
  879MOL0     O18554   9.170  10.447  10.477  0.0484 -0.1975 -0.2051
  879MOL0     C18555   9.045  10.459  10.534 -0.6199  0.2113  0.3401
  879MOL0     C18556   9.039  10.415  10.663 -0.0338  0.8097 -0.3626
  879MOL0     C18557   8.927  10.420  10.738  0.7294 -0.2319  0.6702
  879MOL0     C18558   8.946  10.383  10.882  0.6181  0.3475 -0.5189
  879MOL0     C18559   8.801  10.453  10.680  0.0786 -0.2650  0.8863
  879MOL0     C18560   8.675  10.471  10.745  0.6045  0.2259  0.2264
  879MOL0     O18561   8.556  10.492  10.666 -0.0789 -0.2284  0.5222
  879MOL0     C18562   8.443  10.441  10.716  0.1213 -0.1890 -0.2320
  879MOL0     C18563   8.338  10.526  10.722 -0.2341 -1.0808 -0.1312
  879MOL0     C18564   8.222  10.491  10.789  0.2269  0.3019 -0.6724
  879MOL0     C18565   8.213  10.358  10.857  0.6214 -0.0956  0.4697
  879MOL0     O18566   8.108  10.302  10.927  0.3132 -0.1062 -0.1578
  879MOL0     C18567   7.996  10.387  10.967 -0.3208  0.4893 -0.1388
  879MOL0     C18568   7.857  10.313  10.954 -0.7095 -0.5025  0.1851
  879MOL0     C18569   7.746  10.422  10.977  0.1635  0.1560 -0.7697
  879MOL0     C18570   7.598  10.359  10.980  0.5097 -0.6915 -0.5939
  879MOL0     C18571   7.499  10.476  10.971 -0.2434  0.1874  0.2102
  879MOL0     C18572   7.354  10.427  10.958 -0.2488  0.2015 -0.6466
  879MOL0     C18573   7.249  10.539  10.967  0.4193  0.7841  0.0007
  879MOL0     C18574   7.120  10.469  11.020  0.4328 -1.0232 -0.5781
  879MOL0    Cl18575   6.988  10.588  11.006  0.2829  0.3724 -0.1468
  879MOL0     C18576   8.318  10.268  10.838  0.3555 -0.4860  0.7350
  879MOL0     C18577   8.438  10.312  10.780  0.2470 -0.6360  0.4820
  879MOL0     O18578   8.674  10.480  10.869  0.1501 -0.4096  0.6787
  879MOL0     C18579   8.810  10.498  10.544 -0.2329  0.0200  0.7713
  879MOL0     C18580   8.927  10.492  10.468  0.1370  1.1349  0.0661
  879MOL0     N18581   9.236  10.642  10.068  0.5494 -0.1391 -0.9095
  879MOL0     N18582   9.324  10.737  10.072  0.5455 -0.3737 -0.6814
  879MOL0     C18583  10.453  11.174  10.167  0.1201  0.8028 -1.0366
  879MOL0     C18584  10.570  11.221  10.233 -0.2563  0.1260  0.1798
  879MOL0     C18585  10.958  11.278  10.405 -0.8962 -0.5901 -0.3321
  879MOL0     C18586  10.956  11.273  10.553 -0.3134 -0.3267  0.2968
  879MOL0     C18587  11.075  11.308  10.613 -0.3889 -0.6430 -0.4062
  879MOL0     C18588  11.185  11.359  10.550 -0.8537  0.1024 -0.2017
  879MOL0     O18589  11.282  11.411  10.630 -0.1713 -0.5796  0.0530
  879MOL0     C18590  11.405  11.463  10.567 -0.3597  0.1476  0.0204
  879MOL0     C18591  11.502  11.495  10.684 -0.1342 -0.1289  0.8487
  879MOL0     C18592  11.628  11.559  10.631  0.2846 -0.2367  0.5919
  879MOL0     C18593  11.697  11.632  10.745  0.2338  0.3160 -0.7305
  879MOL0     C18594  11.656  11.779  10.738 -0.7726 -0.1216 -0.6330
  879MOL0     C18595  11.638  11.901  10.753  0.1616 -0.4006 -0.5211
  879MOL0     C18596  11.180  11.381  10.411  0.3450 -1.1541 -0.2719
  879MOL0     C18597  11.068  11.339  10.338  0.4863 -0.0419  0.5363
  879MOL0     H18598  10.777  11.174   9.985  0.2637  0.1432  0.5877
  879MOL0     H18599  10.574  11.109   9.861  0.3432 -1.9270  0.8097
  879MOL0     H18600  10.259  10.940   9.842  3.2436 -0.6209 -2.9416
  879MOL0     H18601  10.423  10.916   9.900  0.6958 -0.5524  2.4905
  879MOL0     H18602  10.333  10.813  10.091 -0.3445 -1.1785 -0.5356
  879MOL0     H18603  10.238  10.958  10.118 -2.7283 -0.0566 -0.2361
  879MOL0     H18604  10.071  10.849   9.927 -0.6098  1.3070  0.4088
  879MOL0     H18605  10.155  10.707   9.980 -0.9334 -0.5693  0.4685
  879MOL0     H18606  10.079  10.734  10.215 -1.7833 -1.1582  0.3417
  879MOL0     H18607  10.012  10.892  10.184 -0.4980 -0.9304  0.3329
  879MOL0     H18608   9.866  10.784  10.005  0.4694  1.0972  0.2570
  879MOL0     H18609   9.911  10.632  10.082  0.3100  0.3541  1.5221
  879MOL0     H18610   9.830  10.759  10.298  1.0916  0.3732 -0.4013
  879MOL0     H18611   9.766  10.882  10.185 -2.8095 -0.3042 -0.0343
  879MOL0     H18612   9.675  10.591  10.181 -1.7532 -0.4449  2.4829
  879MOL0     H18613   9.591  10.716  10.266 -1.8861  0.6928 -1.1838
  879MOL0     H18614   9.625  10.717   9.967 -0.1091 -0.2335 -0.6435
  879MOL0     H18615   9.558  10.851  10.071  2.7457  0.5626  0.4712
  879MOL0     H18616   9.505  10.484   9.988 -0.8745 -1.3421 -0.6614
  879MOL0     H18617   9.107  10.423  10.017 -0.0760 -1.1588 -1.3338
  879MOL0     H18618   9.236  10.332   9.941 -0.0618  0.2635 -0.6920
  879MOL0     H18619   9.331  10.285  10.171  0.0449 -2.6812  1.1979
  879MOL0     H18620   9.205  10.189  10.126  1.1611 -1.3758 -0.0719
  879MOL0     H18621   9.134  10.265  10.345  2.4469  0.3718  1.1041
  879MOL0     H18622   9.029  10.361  10.231  0.4799  2.1872 -2.2042
  879MOL0     H18623   9.128  10.558  10.310 -0.7256 -0.0747  1.4079
  879MOL0     H18624   9.284  10.488  10.316 -0.0560 -2.4966 -1.1270
  879MOL0     H18625   9.127  10.381  10.717 -1.6667  0.2863  2.0717
  879MOL0     H18626   8.865  10.315  10.910  0.6048  0.7326  0.4103
  879MOL0     H18627   9.046  10.344  10.903  0.2090  0.3532  1.6001
  879MOL0     H18628   8.939  10.476  10.939  1.5556  1.1941 -1.6971
  879MOL0     H18629   8.335  10.627  10.682 -0.3660 -0.7227  0.7646
  879MOL0     H18630   8.152  10.572  10.802  0.6902  0.3618  1.9706
  879MOL0     H18631   8.012  10.429  11.067  2.4624 -1.2032  0.2209
  879MOL0     H18632   7.984  10.469  10.896  0.1218 -0.1637 -0.9687
  879MOL0     H18633   7.841  10.268  10.856  0.6704 -3.1290  1.0767
  879MOL0     H18634   7.848  10.227  11.021 -2.6134 -0.3793  0.1612
  879MOL0     H18635   7.746  10.491  10.892 -1.9626 -0.4109 -1.2970
  879MOL0     H18636   7.765  10.488  11.061  0.8426  1.5212 -1.9452
  879MOL0     H18637   7.587  10.297  10.890  0.9000  0.5023 -1.4887
  879MOL0     H18638   7.581  10.292  11.065 -1.0092 -2.1694 -1.9747
  879MOL0     H18639   7.515  10.538  10.882 -2.3998  0.3839 -0.1162
  879MOL0     H18640   7.497  10.536  11.062 -4.2680  0.0548  0.4139
  879MOL0     H18641   7.351  10.364  10.868  0.0591 -2.2817  0.9849
  879MOL0     H18642   7.338  10.360  11.042 -0.7373  1.8369  0.6257
  879MOL0     H18643   7.241  10.583  10.867  2.1572  3.8386  1.0675
  879MOL0     H18644   7.271  10.610  11.047 -1.6804  0.4163  0.9853
  879MOL0     H18645   7.135  10.438  11.124 -1.1696 -2.4492 -0.7224
  879MOL0     H18646   7.103  10.380  10.958 -0.4399 -2.4089  1.5251
  879MOL0     H18647   8.305  10.165  10.872  0.6620 -1.4220 -1.7695
  879MOL0     H18648   8.517  10.238  10.773 -1.4766 -2.4877 -0.3375
  879MOL0     H18649   8.722  10.534  10.492  0.5335  0.7835 -0.0258
  879MOL0     H18650   8.924  10.510  10.361  1.7026 -0.6998 -0.3383
  879MOL0     H18651  10.361  11.196  10.220 -0.4095  0.5777 -1.8432
  879MOL0     H18652  10.558  11.261  10.333 -2.8545  1.8456 -0.6985
  879MOL0     H18653  10.884  11.220  10.615  1.3130 -2.7812  0.2192
  879MOL0     H18654  11.089  11.310  10.720 -1.0752 -0.8135 -0.3046
  879MOL0     H18655  11.450  11.390  10.498  2.6583 -0.5918  2.5409
  879MOL0     H18656  11.383  11.550  10.505 -1.8975 -0.0334  0.2677
  879MOL0     H18657  11.527  11.410  10.748 -1.0928  0.0112  1.4311
  879MOL0     H18658  11.448  11.569  10.743  1.0501  2.4266 -1.0940
  879MOL0     H18659  11.622  11.631  10.548  3.2620  4.0472  3.5999
  879MOL0     H18660  11.694  11.481  10.593 -2.5050 -2.3369 -0.1912
  879MOL0     H18661  11.806  11.631  10.734  0.3442 -2.8370 -0.2448
  879MOL0     H18662  11.660  11.579  10.832  0.2912 -0.9729 -1.4670
  879MOL0     H18663  11.623  12.004  10.777 -0.5774 -1.1896  3.1112
  879MOL0     H18664  11.262  11.438  10.367  0.5883 -0.9247  0.4569
  879MOL0     H18665  11.054  11.365  10.233 -1.4493  1.1931  1.0407
  880MOL0     O18666   7.225   1.564   0.470  0.1667  0.3977 -0.7420
  880MOL0     C18667   7.196   1.680   0.483 -0.0931  0.5696  0.3647
  880MOL0     O18668   7.071   1.733   0.505  0.0775  0.4678  0.3310
  880MOL0     C18669   6.959   1.658   0.473 -0.0847 -0.6471 -0.4040
  880MOL0     C18670   6.852   1.666   0.564  0.8912  0.2949 -0.4909
  880MOL0     C18671   6.742   1.588   0.541 -0.0415 -0.3065 -0.5424
  880MOL0     C18672   6.731   1.495   0.436 -0.1775  0.2299  1.8956
  880MOL0     O18673   6.618   1.421   0.409 -0.2797 -0.5459  0.0096
  880MOL0     C18674   6.504   1.499   0.380  1.2303 -0.3671  0.2994
  880MOL0     C18675   6.415   1.418   0.278  0.6517 -0.7557 -0.0935
  880MOL0     C18676   6.349   1.516   0.176  0.8179  0.1452 -1.2804
  880MOL0     C18677   6.196   1.502   0.178  0.1057  0.4875 -0.2971
  880MOL0     C18678   6.127   1.552   0.053  0.0327  0.6722 -0.0544
  880MOL0     C18679   5.987   1.542   0.075 -0.4136 -0.5437  0.8151
  880MOL0     C18680   5.908   1.630  -0.027  1.0888 -0.0038 -0.5202
  880MOL0     C18681   5.760   1.615   0.012 -0.3645 -1.0650 -0.2095
  880MOL0     N18682   5.702   1.501  -0.053 -0.3213  0.6270 -0.0102
  880MOL0     C18683   5.712   1.367  -0.010 -0.6403 -0.6735 -0.7107
  880MOL0     C18684   5.660   1.289  -0.115 -0.1792 -0.4884 -0.8015
  880MOL0     C18685   5.652   1.141  -0.137 -0.5353 -0.0747  0.2098
  880MOL0     C18686   5.513   1.088  -0.096 -0.5748 -0.2037 -0.4320
  880MOL0     C18687   5.527   1.064   0.055  0.9445  0.1385 -0.1945
  880MOL0     C18688   5.405   0.995   0.113 -0.5503 -0.5410  0.1803
  880MOL0     O18689   5.446   0.926   0.233  0.0100 -0.7223 -0.1440
  880MOL0     C18690   5.365   0.844   0.297  0.9578  0.2311  0.6936
  880MOL0     C18691   5.422   0.774   0.407  0.2763  0.2629  0.1131
  880MOL0     C18692   5.345   0.676   0.474 -0.5259 -0.0089 -1.6930
  880MOL0     C18693   5.432   0.605   0.571  0.9143  0.5626 -0.1828
  880MOL0     C18694   5.214   0.655   0.446  0.4181  0.8427  0.4022
  880MOL0     C18695   5.124   0.559   0.520 -0.8198  1.1966 -0.5216
  880MOL0     O18696   5.005   0.529   0.462  0.6729  0.0183 -0.3267
  880MOL0     C18697   4.900   0.475   0.533 -0.3025 -0.4508  0.1593
  880MOL0     C18698   4.847   0.539   0.645  0.1285  1.0284 -0.2496
  880MOL0     C18699   4.761   0.470   0.724 -0.1965  0.3851  0.3754
  880MOL0     C18700   4.719   0.340   0.683 -0.3929 -0.2481  0.4376
  880MOL0     O18701   4.643   0.269   0.776  0.4995 -0.6855  0.0743
  880MOL0     C18702   4.609   0.132   0.747  0.8593 -0.6661 -0.8406
  880MOL0     C18703   4.462   0.117   0.695  0.0884 -0.7610 -0.7894
  880MOL0     C18704   4.365   0.169   0.803  0.3080 -0.6808  0.7690
  880MOL0     C18705   4.335   0.047   0.891 -0.9427 -0.6853  0.7383
  880MOL0     C18706   4.273   0.099   1.024 -0.5326  0.2057  0.1717
  880MOL0     C18707   4.226  -0.011   1.126  0.7332 -0.5990 -0.0524
  880MOL0     C18708   4.329  -0.094   1.207  0.3325 -0.2989  0.6579
  880MOL0     C18709   4.274  -0.185   1.312 -0.0374 -0.0669 -0.2840
  880MOL0    Cl18710   4.207  -0.107   1.458 -0.0139  0.1796 -0.1120
  880MOL0     C18711   4.753   0.291   0.553 -0.7360 -0.2106 -0.2488
  880MOL0     C18712   4.856   0.355   0.482 -0.2730 -0.0665  0.5423
  880MOL0     O18713   5.168   0.503   0.623  0.2207  0.2056  1.0268
  880MOL0     C18714   5.150   0.733   0.343 -0.4156 -0.2476  0.0254
  880MOL0     C18715   5.230   0.825   0.272  0.4331  0.2517  0.5333
  880MOL0     N18716   5.622   1.374  -0.219  0.0560  0.1937  0.2822
  880MOL0     N18717   5.656   1.499  -0.183  0.3353 -0.1269  0.0090
  880MOL0     C18718   6.836   1.486   0.344 -0.1673 -0.5433  0.3922
  880MOL0     C18719   6.951   1.569   0.360  0.3073  0.0426 -0.3614
  880MOL0     C18720   7.307   1.776   0.487 -0.6416 -1.2642 -0.8548
  880MOL0     C18721   7.275   1.912   0.471  0.1618  1.2106 -0.2796
  880MOL0     C18722   7.373   2.005   0.460  0.1337  0.0309 -0.6944
  880MOL0     C18723   7.508   1.969   0.477  0.8049  0.3786  0.8362
  880MOL0     O18724   7.600   2.079   0.476  1.3555  0.8452  0.4667
  880MOL0     C18725   7.730   2.053   0.523  0.3339  0.5995  0.2826
  880MOL0     C18726   7.809   2.189   0.488  1.1581  0.9969  0.2991
  880MOL0     C18727   7.963   2.180   0.492 -0.4807  0.7870 -0.5530
  880MOL0     C18728   8.040   2.072   0.413  0.8951  0.4719 -0.5452
  880MOL0     C18729   8.004   2.096   0.272  0.1624 -0.3802  0.0626
  880MOL0     C18730   7.992   2.113   0.152 -0.1472 -0.8418  0.0346
  880MOL0     C18731   7.539   1.825   0.489 -0.4010 -0.3369 -0.4385
  880MOL0     C18732   7.442   1.726   0.496  0.2682 -0.6266 -0.7331
  880MOL0     H18733   6.851   1.723   0.656 -2.3129 -0.1549 -0.1153
  880MOL0     H18734   6.660   1.593   0.612  2.1686 -0.4150  2.1722
  880MOL0     H18735   6.438   1.527   0.463 -0.7027  0.5675 -1.4741
  880MOL0     H18736   6.543   1.589   0.332 -1.3023 -0.1945 -1.6134
  880MOL0     H18737   6.465   1.342   0.218 -2.4690 -2.1052 -1.2013
  880MOL0     H18738   6.336   1.370   0.337 -0.7425 -0.3863 -1.5867
  880MOL0     H18739   6.386   1.619   0.185  1.6913 -0.2097 -0.6756
  880MOL0     H18740   6.366   1.476   0.075 -0.8791 -0.8559 -1.2030
  880MOL0     H18741   6.164   1.397   0.182  0.4171  0.3812 -0.5539
  880MOL0     H18742   6.163   1.548   0.272  0.0504  0.6506 -0.3952
  880MOL0     H18743   6.156   1.657   0.040  2.5461  0.1103  0.3861
  880MOL0     H18744   6.157   1.508  -0.043  1.1129  4.0729 -1.4290
  880MOL0     H18745   5.954   1.439   0.060 -1.5269 -0.0019 -0.5816
  880MOL0     H18746   5.965   1.591   0.171  0.3457  1.2281  0.1325
  880MOL0     H18747   5.941   1.733  -0.008  0.4376 -0.0495  0.9730
  880MOL0     H18748   5.925   1.604  -0.132  2.1048  0.4339 -0.4724
  880MOL0     H18749   5.708   1.709  -0.009  0.3060 -0.2451  1.5817
  880MOL0     H18750   5.757   1.607   0.121  0.4439  0.6478 -0.0215
  880MOL0     H18751   5.749   1.332   0.086 -0.7103  0.2038 -0.3553
  880MOL0     H18752   5.659   1.118  -0.243 -2.3135  3.3338 -0.8026
  880MOL0     H18753   5.734   1.084  -0.093  0.1592  1.0379  0.4158
  880MOL0     H18754   5.494   0.998  -0.156  1.7038  0.3809 -2.1959
  880MOL0     H18755   5.436   1.160  -0.123 -0.3234  0.0334 -0.5234
  880MOL0     H18756   5.537   1.160   0.106 -1.2216 -0.3148  1.2061
  880MOL0     H18757   5.607   0.994   0.077 -0.3912 -0.9267  1.5900
  880MOL0     H18758   5.361   0.927   0.039 -0.2261 -0.7810  0.2048
  880MOL0     H18759   5.336   1.076   0.137  1.7247  1.5173  0.1700
  880MOL0     H18760   5.527   0.794   0.424  0.9049  0.3254 -3.1144
  880MOL0     H18761   5.411   0.632   0.675  0.7297  1.2283 -0.3864
  880MOL0     H18762   5.425   0.496   0.558  2.2292  0.1698  1.8865
  880MOL0     H18763   5.540   0.623   0.567  1.2523 -1.2192  0.0487
  880MOL0     H18764   4.874   0.640   0.676  0.3394  0.7943  0.3350
  880MOL0     H18765   4.738   0.515   0.820 -3.4243  3.6140 -1.6639
  880MOL0     H18766   4.691   0.092   0.686  0.7869 -1.8738 -0.1571
  880MOL0     H18767   4.614   0.077   0.841 -0.3558  0.2624 -0.2068
  880MOL0     H18768   4.449   0.175   0.603 -0.8621 -1.4759 -1.1147
  880MOL0     H18769   4.430   0.014   0.677  0.8452 -0.4157 -5.0556
  880MOL0     H18770   4.282   0.206   0.742  1.5802 -1.1841 -1.3491
  880MOL0     H18771   4.404   0.248   0.868 -1.5555  0.4408  0.5995
  880MOL0     H18772   4.252  -0.009   0.846 -2.9041  1.9250  0.8083
  880MOL0     H18773   4.421  -0.016   0.916 -1.1752 -1.3428 -0.0870
  880MOL0     H18774   4.193   0.166   0.989 -1.1272  0.1554  1.3739
  880MOL0     H18775   4.335   0.178   1.068  0.7037  1.0267 -2.7864
  880MOL0     H18776   4.158   0.045   1.191  0.1883  0.8149 -1.7790
  880MOL0     H18777   4.175  -0.084   1.061  1.2986  0.6499 -1.9768
  880MOL0     H18778   4.388  -0.015   1.254 -3.1364  2.2653  1.0703
  880MOL0     H18779   4.403  -0.149   1.147  1.4091 -1.7316  3.1554
  880MOL0     H18780   4.347  -0.258   1.347 -0.8376 -1.5398 -1.5463
  880MOL0     H18781   4.193  -0.242   1.265 -1.7641 -1.7778  4.2540
  880MOL0     H18782   4.726   0.190   0.526 -1.5583 -0.4209  1.2373
  880MOL0     H18783   4.900   0.320   0.390 -2.8100 -1.7380 -0.1350
  880MOL0     H18784   5.045   0.725   0.316  0.0758  0.6825 -2.4361
  880MOL0     H18785   5.174   0.876   0.194 -1.1430 -0.9784  0.8173
  880MOL0     H18786   6.834   1.409   0.267 -1.3706  0.5285 -0.6935
  880MOL0     H18787   7.044   1.547   0.308  2.5808 -1.4848  3.8850
  880MOL0     H18788   7.171   1.944   0.479 -1.7457 -4.2801  3.0754
  880MOL0     H18789   7.330   2.104   0.447  0.8296  0.0577 -3.5960
  880MOL0     H18790   7.736   2.038   0.631  3.8233  1.5137  0.3605
  880MOL0     H18791   7.776   1.965   0.477 -2.1936 -1.0829  0.7855
  880MOL0     H18792   7.778   2.259   0.566  0.3799 -0.3318  1.2237
  880MOL0     H18793   7.776   2.224   0.390 -2.4106 -1.0182  0.5973
  880MOL0     H18794   7.989   2.159   0.596 -2.6609  0.9668  0.0738
  880MOL0     H18795   8.002   2.282   0.483  4.7871 -0.8310  0.1439
  880MOL0     H18796   8.013   1.972   0.446  0.5880  1.6323  3.2294
  880MOL0     H18797   8.148   2.078   0.433  0.5099 -1.1165  2.5220
  880MOL0     H18798   7.977   2.113   0.046 -1.8788 -2.4675  0.2289
  880MOL0     H18799   7.643   1.795   0.487  0.0921  0.9592  1.9984
  880MOL0     H18800   7.459   1.619   0.497 -1.4987 -0.9428  0.6490
  881MOL0     O18801   6.952   7.834  10.156 -0.5238  0.3720 -0.3041
  881MOL0     C18802   6.968   7.846  10.275  0.2981  0.4463 -1.1726
  881MOL0     O18803   6.872   7.822  10.379  0.4121 -0.8220 -0.0880
  881MOL0     C18804   6.746   7.807  10.334  0.2674 -0.4774 -0.8860
  881MOL0     C18805   6.674   7.895  10.255 -0.3092  0.2886 -0.4669
  881MOL0     C18806   6.534   7.887  10.232 -0.5760  0.1984  0.1982
  881MOL0     C18807   6.466   7.777  10.296 -0.6396 -0.7766  0.3762
  881MOL0     O18808   6.332   7.749  10.280  0.0010  0.6250  0.0590
  881MOL0     C18809   6.234   7.833  10.212 -0.8386  0.0213 -0.2083
  881MOL0     C18810   6.089   7.784  10.252 -0.7398  0.5842  0.4657
  881MOL0     C18811   5.981   7.884  10.193  0.0126  0.9060  0.4482
  881MOL0     C18812   5.848   7.867  10.276 -0.4050 -0.0211 -0.1103
  881MOL0     C18813   5.729   7.926  10.204 -0.2544  0.0708  0.3040
  881MOL0     C18814   5.664   7.836  10.088  0.2248 -0.2609  0.0613
  881MOL0     C18815   5.572   7.920   9.997  0.0301  0.4226  0.2267
  881MOL0     C18816   5.637   7.990   9.885  0.2857  0.2345 -0.2635
  881MOL0     N18817   5.538   8.065   9.807  0.3154  0.3685 -0.5044
  881MOL0     C18818   5.477   8.009   9.701  0.9438  0.6082  0.3219
  881MOL0     C18819   5.416   8.117   9.641 -0.4726 -0.1921  0.8734
  881MOL0     C18820   5.361   8.093   9.501 -1.0992  0.0625 -0.2219
  881MOL0     C18821   5.222   8.162   9.483  0.1743 -0.0502  0.5039
  881MOL0     C18822   5.177   8.112   9.344  0.1449  0.2443 -0.1647
  881MOL0     C18823   5.053   8.182   9.295 -0.2515  0.8133  0.0866
  881MOL0     O18824   5.033   8.152   9.154 -0.1408 -0.5575 -0.0159
  881MOL0     C18825   4.916   8.080   9.126  0.7339 -0.1211 -0.0384
  881MOL0     C18826   4.916   7.972   9.052  0.3265  1.0177  0.5064
  881MOL0     C18827   4.793   7.902   9.010 -0.6660 -0.1752 -0.8015
  881MOL0     C18828   4.801   7.784   8.936  0.0114  0.3489  0.1133
  881MOL0     C18829   4.672   7.942   9.059  0.8065  0.6446 -1.0579
  881MOL0     C18830   4.540   7.892   9.011 -0.4408  0.2716 -1.2905
  881MOL0     O18831   4.435   7.914   9.096 -0.5221 -0.8856 -0.3645
  881MOL0     C18832   4.313   7.893   9.046  0.0441 -0.8908  0.1292
  881MOL0     C18833   4.251   8.010   9.009  0.2458 -0.3874 -0.4966
  881MOL0     C18834   4.125   8.005   8.958 -0.2707  0.3036  0.6486
  881MOL0     C18835   4.065   7.878   8.946  0.1018 -0.5820  0.2357
  881MOL0     O18836   3.948   7.866   8.878  0.5701  0.5550 -0.0322
  881MOL0     C18837   3.841   7.955   8.907  0.7081 -0.4596 -0.8104
  881MOL0     C18838   3.818   7.963   9.064 -0.0548 -0.2232 -0.3245
  881MOL0     C18839   3.671   7.991   9.085  0.2572  0.3812 -0.2789
  881MOL0     C18840   3.620   8.126   9.037 -0.0395 -0.1059 -0.6069
  881MOL0     C18841   3.502   8.161   9.124  0.2594 -0.8781 -0.3186
  881MOL0     C18842   3.469   8.309   9.086  0.6604 -0.1268 -0.0475
  881MOL0     C18843   3.340   8.360   9.143  0.2870 -0.3142 -0.1850
  881MOL0     C18844   3.199   8.326   9.079  0.1599  0.6251 -0.7977
  881MOL0    Cl18845   3.169   8.403   8.916  0.0668  0.0405 -0.2595
  881MOL0     C18846   4.119   7.765   8.998 -0.2956 -0.2006  0.7123
  881MOL0     C18847   4.247   7.767   9.049 -0.7588  0.4814  0.6156
  881MOL0     O18848   4.529   7.870   8.893 -0.6473  0.1258  0.5574
  881MOL0     C18849   4.675   8.052   9.153 -0.1483  0.5463  0.4491
  881MOL0     C18850   4.792   8.117   9.172  0.0356 -0.7801 -0.1331
  881MOL0     N18851   5.436   8.231   9.722 -0.2471  0.6004  0.0333
  881MOL0     N18852   5.508   8.199   9.822  0.2273 -0.0266 -0.0529
  881MOL0     C18853   6.537   7.700  10.391  0.6811 -0.5257  0.3009
  881MOL0     C18854   6.678   7.719  10.413 -0.0571  0.3279  0.4977
  881MOL0     C18855   7.100   7.887  10.327 -0.0703 -1.0564 -0.2113
  881MOL0     C18856   7.215   7.900  10.244  0.3714  0.5098 -0.1440
  881MOL0     C18857   7.337   7.948  10.293  0.7068  0.4919 -0.2391
  881MOL0     C18858   7.344   7.982  10.429 -0.3496 -0.4472  0.3753
  881MOL0     O18859   7.461   8.022  10.485  0.1215  0.5652 -0.4393
  881MOL0     C18860   7.545   8.116  10.422 -0.6679 -0.0947  0.3085
  881MOL0     C18861   7.659   8.174  10.521 -0.6323 -0.6782  1.0888
  881MOL0     C18862   7.761   8.063  10.509  0.5066  0.3995 -0.1430
  881MOL0     C18863   7.895   8.091  10.585  0.5487  0.3601 -0.2856
  881MOL0     C18864   7.885   8.113  10.734 -0.3649 -0.4202 -0.9652
  881MOL0     C18865   7.875   8.128  10.858  0.6400 -0.2642 -0.3941
  881MOL0     C18866   7.242   7.962  10.514  0.2077 -0.1419 -0.2552
  881MOL0     C18867   7.118   7.918  10.466 -0.2253 -0.1397  0.4642
  881MOL0     H18868   6.716   7.982  10.207  2.1529 -0.3951  0.2840
  881MOL0     H18869   6.489   7.958  10.164 -1.7450  1.2025  1.9435
  881MOL0     H18870   6.240   7.937  10.243 -0.5818 -0.3726  1.0998
  881MOL0     H18871   6.249   7.831  10.103 -1.2808 -0.7552 -0.2660
  881MOL0     H18872   6.073   7.679  10.229  2.2407 -0.5034  2.7031
  881MOL0     H18873   6.088   7.788  10.361 -1.3857  3.1561  0.4400
  881MOL0     H18874   6.021   7.986  10.201  0.0069  0.8130  1.7982
  881MOL0     H18875   5.961   7.859  10.088  1.0192 -1.3538  0.7305
  881MOL0     H18876   5.820   7.761  10.285 -2.0233  0.2224 -1.5673
  881MOL0     H18877   5.869   7.922  10.368  2.6078  3.1089 -2.3961
  881MOL0     H18878   5.646   7.949  10.272 -3.3402  0.1562 -3.1620
  881MOL0     H18879   5.778   8.019  10.175  1.7307  0.1638  3.4427
  881MOL0     H18880   5.748   7.800  10.028 -1.2226 -1.3118 -1.4292
  881MOL0     H18881   5.608   7.753  10.133 -1.9308  1.3594  0.5226
  881MOL0     H18882   5.506   7.851   9.943  1.2573  1.1585 -2.3586
  881MOL0     H18883   5.513   8.001  10.040 -0.0728  1.7525 -2.2352
  881MOL0     H18884   5.677   7.917   9.814 -0.2051  0.5218 -0.8372
  881MOL0     H18885   5.723   8.051   9.918  0.3844  0.7854 -1.4813
  881MOL0     H18886   5.486   7.908   9.661  0.0692  1.0394 -1.0426
  881MOL0     H18887   5.446   8.132   9.444  0.1439  1.3348  2.3269
  881MOL0     H18888   5.374   7.989   9.470 -0.6401  1.2494 -4.6903
  881MOL0     H18889   5.232   8.270   9.471 -0.7887 -0.0634 -0.5107
  881MOL0     H18890   5.156   8.144   9.568  1.2448 -1.5520  1.0694
  881MOL0     H18891   5.165   8.003   9.348 -0.1734  0.2756 -0.1824
  881MOL0     H18892   5.247   8.136   9.264  1.4964 -2.7679 -0.0394
  881MOL0     H18893   5.058   8.289   9.316 -1.4310  1.1239 -1.0795
  881MOL0     H18894   4.972   8.148   9.361 -1.7642  3.2172 -0.4324
  881MOL0     H18895   5.017   7.937   9.033  1.2343  3.1995  0.9847
  881MOL0     H18896   4.802   7.798   8.828  0.4709  1.0763  0.2028
  881MOL0     H18897   4.891   7.728   8.962  0.9499  1.6214 -0.3140
  881MOL0     H18898   4.712   7.726   8.964  1.3782 -0.9787  1.9517
  881MOL0     H18899   4.310   8.100   9.015  1.7910 -1.3904 -0.1013
  881MOL0     H18900   4.079   8.086   8.902 -0.6588  0.4095  1.1192
  881MOL0     H18901   3.863   8.058   8.878  1.4013  0.2423  1.9300
  881MOL0     H18902   3.757   7.923   8.844  1.1591  3.5962 -3.8968
  881MOL0     H18903   3.851   7.870   9.111  1.1825  1.1231  1.5853
  881MOL0     H18904   3.874   8.047   9.106 -2.0459  0.7671  0.4647
  881MOL0     H18905   3.652   7.986   9.193 -2.2290 -0.7892 -0.6876
  881MOL0     H18906   3.607   7.917   9.035  1.6218  1.2047 -3.4558
  881MOL0     H18907   3.702   8.197   9.050  0.7186 -0.9227 -0.7628
  881MOL0     H18908   3.598   8.134   8.930  0.3871 -0.1361 -0.6991
  881MOL0     H18909   3.504   8.145   9.233 -1.2529  2.2804  0.3063
  881MOL0     H18910   3.419   8.101   9.087  0.2068 -0.6989 -0.4941
  881MOL0     H18911   3.542   8.379   9.129 -0.0491  1.4247 -1.2635
  881MOL0     H18912   3.467   8.320   8.977  3.1259 -3.5589 -0.5994
  881MOL0     H18913   3.341   8.468   9.123 -1.5905  0.0309  1.2993
  881MOL0     H18914   3.333   8.347   9.252  2.5664 -0.1391  0.0459
  881MOL0     H18915   3.124   8.359   9.152  1.9012 -3.0272  3.0647
  881MOL0     H18916   3.191   8.217   9.067  2.1802  0.3980 -0.3916
  881MOL0     H18917   4.068   7.674   8.968  1.2606 -0.8223 -0.1941
  881MOL0     H18918   4.289   7.680   9.097  1.5092  1.4936  0.5679
  881MOL0     H18919   4.583   8.094   9.191  0.6904  1.6007  1.4039
  881MOL0     H18920   4.792   8.213   9.224 -1.7244  0.0979 -1.6224
  881MOL0     H18921   6.467   7.636  10.445  2.7589 -0.6627  3.0213
  881MOL0     H18922   6.733   7.671  10.493  0.0569  0.0919  0.2795
  881MOL0     H18923   7.210   7.876  10.139 -2.6392 -2.2937  0.4815
  881MOL0     H18924   7.420   7.953  10.223  1.2560  2.2301  0.4737
  881MOL0     H18925   7.582   8.074  10.328  0.0265  1.6867 -0.2620
  881MOL0     H18926   7.498   8.214  10.408  3.5964  2.2568  0.5584
  881MOL0     H18927   7.631   8.200  10.624  1.2037 -1.3732  1.8239
  881MOL0     H18928   7.690   8.267  10.473 -3.1394 -1.4710 -2.4222
  881MOL0     H18929   7.793   8.056  10.405  2.0875  2.4882  0.1381
  881MOL0     H18930   7.697   7.979  10.537 -1.6042  2.2981  1.1036
  881MOL0     H18931   7.940   8.178  10.535  1.6915  0.1189  0.2821
  881MOL0     H18932   7.975   8.018  10.568  1.5492  1.3484  0.0871
  881MOL0     H18933   7.875   8.153  10.962  0.5569 -0.6709 -0.2967
  881MOL0     H18934   7.274   7.971  10.617  0.7159 -1.3176 -0.2958
  881MOL0     H18935   7.039   7.920  10.541 -1.0851  0.9677 -0.4246
  882MOL0     O18936   9.862   6.766   4.612  0.4156 -0.4866 -0.1694
  882MOL0     C18937   9.896   6.874   4.667 -0.0978  1.1651  0.5628
  882MOL0     O18938   9.814   6.981   4.683 -0.2126 -0.4941 -0.3255
  882MOL0     C18939   9.681   6.953   4.677 -0.7431  0.0738  0.0669
  882MOL0     C18940   9.626   6.902   4.801 -0.1057  0.6276  0.9858
  882MOL0     C18941   9.480   6.894   4.811 -0.9345  0.3632  0.2584
  882MOL0     C18942   9.399   6.930   4.701  0.2004 -0.1531  1.5740
  882MOL0     O18943   9.267   6.907   4.691  1.1009 -0.5604 -0.5095
  882MOL0     C18944   9.193   6.860   4.807 -0.8673  0.0056 -0.9345
  882MOL0     C18945   9.050   6.806   4.773 -0.7087 -0.9963  0.3086
  882MOL0     C18946   8.987   6.741   4.897  0.6936  0.0422 -0.4866
  882MOL0     C18947   9.054   6.606   4.930  0.3133  0.2844  0.2193
  882MOL0     C18948   9.016   6.560   5.067  0.2782  0.1723  0.2943
  882MOL0     C18949   9.084   6.424   5.106  0.7620 -0.3713  0.1713
  882MOL0     C18950   9.222   6.445   5.173 -0.3743 -0.1803  0.1812
  882MOL0     C18951   9.210   6.463   5.325  0.6806 -0.2016  0.9912
  882MOL0     N18952   9.178   6.339   5.399  0.4063 -0.6850 -0.1261
  882MOL0     C18953   9.264   6.235   5.415  0.1875  0.4262  0.5257
  882MOL0     C18954   9.196   6.146   5.493  0.4870 -0.7406  0.4153
  882MOL0     C18955   9.265   6.034   5.555  0.0353  0.3952  0.0451
  882MOL0     C18956   9.227   5.907   5.492 -0.4138 -0.2359 -0.7129
  882MOL0     C18957   9.279   5.788   5.568  0.2935  0.5631 -0.3147
  882MOL0     C18958   9.434   5.781   5.576 -1.0661 -0.8729  0.5893
  882MOL0     O18959   9.480   5.835   5.697 -0.3477 -0.0442 -0.1513
  882MOL0     C18960   9.612   5.875   5.704  0.2151 -0.7731 -0.1199
  882MOL0     C18961   9.709   5.875   5.601 -0.3235  0.0266 -0.2114
  882MOL0     C18962   9.835   5.926   5.610  0.3898 -0.0581  0.1249
  882MOL0     C18963   9.922   5.911   5.488  0.4621  0.3614 -0.1002
  882MOL0     C18964   9.875   5.983   5.732  0.2621 -0.0684  0.0783
  882MOL0     C18965  10.008   6.037   5.753 -0.3456  0.5909 -0.0891
  882MOL0     O18966  10.066   6.000   5.867 -0.0571 -0.2481  0.4074
  882MOL0     C18967  10.185   6.071   5.901 -0.0518  0.1220 -0.0526
  882MOL0     C18968  10.190   6.212   5.898  0.0827  0.8057 -0.6490
  882MOL0     C18969  10.303   6.287   5.930 -0.3051  0.5692  0.5277
  882MOL0     C18970  10.417   6.216   5.979  0.1102 -0.9363  0.4680
  882MOL0     O18971  10.521   6.302   6.008  0.2879 -0.5186 -0.3930
  882MOL0     C18972  10.653   6.252   5.998 -0.4036 -0.7410  0.0294
  882MOL0     C18973  10.758   6.354   6.038 -0.4656  0.9450  0.3131
  882MOL0     C18974  10.897   6.288   6.028 -0.0850 -0.5851 -0.5586
  882MOL0     C18975  11.006   6.398   6.061 -0.0957  0.0424 -0.0693
  882MOL0     C18976  11.133   6.329   6.099  0.7455  0.3141 -0.1937
  882MOL0     C18977  11.177   6.221   5.994 -0.4235 -0.3390  0.0648
  882MOL0     C18978  11.314   6.177   6.033  0.2856  0.2214  0.6131
  882MOL0     C18979  11.353   6.044   5.952  1.5520 -2.1337 -0.1534
  882MOL0    Cl18980  11.502   5.983   6.019 -0.3854  0.2719 -0.4235
  882MOL0     C18981  10.418   6.076   5.993  0.7532  0.6422 -0.2662
  882MOL0     C18982  10.301   6.009   5.957 -0.5948 -0.1810  1.0718
  882MOL0     O18983  10.055   6.103   5.662  0.3060 -0.7665 -0.6794
  882MOL0     C18984   9.786   5.986   5.837  0.3648  0.8985  0.0563
  882MOL0     C18985   9.659   5.929   5.828 -0.0885  0.9488 -0.5518
  882MOL0     N18986   9.071   6.196   5.523 -0.1134 -0.3439 -0.1172
  882MOL0     N18987   9.056   6.305   5.454  0.4460 -1.0532  0.3300
  882MOL0     C18988   9.463   6.990   4.588 -0.6108  1.1509  0.2596
  882MOL0     C18989   9.598   6.995   4.577 -0.5705  0.1663  0.5363
  882MOL0     C18990  10.028   6.879   4.724 -0.2509 -0.4597 -0.1636
  882MOL0     C18991  10.118   6.777   4.701  0.0542 -0.0223  0.1919
  882MOL0     C18992  10.236   6.785   4.772  0.0690  1.1206 -0.4182
  882MOL0     C18993  10.273   6.899   4.851 -0.0527  0.0452  0.2826
  882MOL0     O18994  10.389   6.922   4.913  0.4028 -0.0990 -0.7070
  882MOL0     C18995  10.492   6.827   4.896  1.0494 -0.9763 -0.6514
  882MOL0     C18996  10.564   6.840   4.762 -0.0574 -0.5692  0.7309
  882MOL0     C18997  10.625   6.707   4.724 -0.2009 -0.4164  0.3521
  882MOL0     C18998  10.680   6.698   4.580  0.1057  0.5484 -0.6373
  882MOL0     C18999  10.576   6.716   4.485 -0.6497 -1.1965  0.3905
  882MOL0     C19000  10.478   6.741   4.427  0.2210  0.2356 -0.2478
  882MOL0     C19001  10.180   7.005   4.859  0.0543 -0.0462 -0.2716
  882MOL0     C19002  10.062   6.998   4.796  0.0432 -0.1501  0.1285
  882MOL0     H19003   9.689   6.864   4.881  1.0934 -0.1239 -0.2919
  882MOL0     H19004   9.441   6.859   4.905  1.2015 -3.7021 -0.1507
  882MOL0     H19005   9.252   6.785   4.861 -2.5417 -1.0735 -0.5395
  882MOL0     H19006   9.193   6.935   4.887 -2.2819 -0.3768 -0.5437
  882MOL0     H19007   8.979   6.881   4.737  0.1432 -0.1281  0.4231
  882MOL0     H19008   9.058   6.734   4.690  2.6794 -1.4232  0.8736
  882MOL0     H19009   9.014   6.807   4.980  2.7737 -4.1985  2.6042
  882MOL0     H19010   8.878   6.742   4.894  0.5224 -2.9457  0.8286
  882MOL0     H19011   9.023   6.536   4.853 -0.6722  1.3536 -0.3885
  882MOL0     H19012   9.163   6.607   4.936  0.2534  1.7767  4.7805
  882MOL0     H19013   9.044   6.634   5.142 -0.1482  0.0143  0.6115
  882MOL0     H19014   8.908   6.547   5.072  0.4929 -1.7008  0.8456
  882MOL0     H19015   9.019   6.376   5.180 -2.0272 -0.2625 -2.0222
  882MOL0     H19016   9.084   6.346   5.029  3.4075 -1.5232  1.2032
  882MOL0     H19017   9.281   6.353   5.176 -1.9699 -1.2981 -0.8349
  882MOL0     H19018   9.287   6.518   5.124  0.4441 -0.1271  1.3017
  882MOL0     H19019   9.138   6.544   5.340  3.8080  2.6639  1.5973
  882MOL0     H19020   9.304   6.494   5.369  1.0233 -0.2496  0.3121
  882MOL0     H19021   9.369   6.223   5.388 -0.2835 -1.8635 -0.4451
  882MOL0     H19022   9.372   6.054   5.546  0.0983 -0.8344 -3.1420
  882MOL0     H19023   9.228   6.028   5.658 -1.7733  1.6599 -0.4866
  882MOL0     H19024   9.257   5.909   5.387 -0.4270  1.4479 -0.7129
  882MOL0     H19025   9.119   5.902   5.504 -0.5614  0.7559 -1.4935
  882MOL0     H19026   9.238   5.701   5.516  0.9304 -0.4585  0.8520
  882MOL0     H19027   9.236   5.803   5.667  0.8299 -0.5162  0.0923
  882MOL0     H19028   9.479   5.831   5.490 -1.2372 -0.5902  0.6632
  882MOL0     H19029   9.457   5.674   5.580 -0.5107 -0.7284  3.6855
  882MOL0     H19030   9.674   5.836   5.505 -1.7672  0.1270  0.2539
  882MOL0     H19031  10.029   5.921   5.509  0.7332 -0.6548 -0.9229
  882MOL0     H19032   9.913   5.808   5.455 -0.4868 -0.1230  1.5361
  882MOL0     H19033   9.893   5.976   5.405 -0.2290  0.1941  0.0034
  882MOL0     H19034  10.100   6.265   5.868 -1.0536 -1.5883 -1.6960
  882MOL0     H19035  10.318   6.392   5.908 -0.4082  0.4556 -0.0904
  882MOL0     H19036  10.661   6.155   6.049 -2.6464 -0.2376  1.4834
  882MOL0     H19037  10.679   6.223   5.896 -0.3576 -2.8155  0.5880
  882MOL0     H19038  10.746   6.441   5.972  1.2809 -0.6561 -2.2834
  882MOL0     H19039  10.731   6.385   6.139 -0.8565  1.7755 -0.0376
  882MOL0     H19040  10.921   6.242   5.932 -0.4088 -0.9487 -0.4625
  882MOL0     H19041  10.895   6.210   6.105 -1.6414  0.7977  0.8788
  882MOL0     H19042  11.019   6.457   5.970 -1.6893 -1.1679 -1.1358
  882MOL0     H19043  10.982   6.463   6.145 -1.5030 -0.8099  0.2178
  882MOL0     H19044  11.112   6.285   6.197  1.3756  0.5392  0.0487
  882MOL0     H19045  11.213   6.403   6.110  1.0439 -0.3452  3.6264
  882MOL0     H19046  11.107   6.137   6.000 -2.2458  0.8660 -2.4643
  882MOL0     H19047  11.175   6.257   5.891 -1.2900  3.6580  1.2916
  882MOL0     H19048  11.316   6.159   6.141  0.8011 -0.0671  0.5605
  882MOL0     H19049  11.386   6.253   6.003 -2.1261  1.0201 -3.8686
  882MOL0     H19050  11.349   6.063   5.844  1.0904  2.5487  0.4929
  882MOL0     H19051  11.273   5.972   5.972  0.2774 -0.6030  0.4004
  882MOL0     H19052  10.497   6.022   6.042  0.3847 -1.9580 -2.3321
  882MOL0     H19053  10.295   5.900   5.962  1.6760 -0.3263  1.6029
  882MOL0     H19054   9.809   6.056   5.917 -1.7158  0.9838  0.6371
  882MOL0     H19055   9.594   5.936   5.914  0.9931  3.6335  0.1442
  882MOL0     H19056   9.404   7.026   4.504  0.4957 -1.4520 -1.7816
  882MOL0     H19057   9.642   7.048   4.494 -0.2250  1.8306  1.7462
  882MOL0     H19058  10.085   6.685   4.652 -2.1764  1.5061 -1.3422
  882MOL0     H19059  10.311   6.708   4.762 -2.4488 -1.3477 -1.7308
  882MOL0     H19060  10.572   6.850   4.968 -0.4559  2.0466  0.2444
  882MOL0     H19061  10.458   6.724   4.907  1.4711 -1.0136  0.4557
  882MOL0     H19062  10.632   6.925   4.760 -0.2168 -0.4446 -1.5404
  882MOL0     H19063  10.499   6.878   4.684  0.6350  1.9527  1.2930
  882MOL0     H19064  10.546   6.632   4.729  0.5560 -1.4907 -2.2088
  882MOL0     H19065  10.700   6.672   4.796  1.4182 -0.5489 -1.3331
  882MOL0     H19066  10.717   6.596   4.572 -0.7831 -0.2541  3.2706
  882MOL0     H19067  10.758   6.774   4.571 -1.4906  2.2042 -1.0239
  882MOL0     H19068  10.384   6.751   4.377  1.2774 -2.5012 -3.1105
  882MOL0     H19069  10.203   7.099   4.909  0.3112 -1.1879  1.8681
  882MOL0     H19070   9.994   7.082   4.810 -0.5891 -0.9879  2.5373
  883MOL0     O19071   6.036   9.548   3.670 -0.3700  0.5931  0.3710
  883MOL0     C19072   6.111   9.477   3.608 -0.3799  0.6137 -0.2117
  883MOL0     O19073   6.064   9.383   3.509  0.2432  0.4233 -0.6612
  883MOL0     C19074   5.933   9.377   3.493  0.3789 -0.1003 -0.3781
  883MOL0     C19075   5.861   9.486   3.441 -0.2301  0.2618 -0.4793
  883MOL0     C19076   5.721   9.460   3.428 -0.1781 -0.5421 -0.5381
  883MOL0     C19077   5.656   9.339   3.461 -0.1902 -0.6050  0.2228
  883MOL0     O19078   5.520   9.314   3.458  0.9483  0.1805 -0.5504
  883MOL0     C19079   5.428   9.420   3.402 -0.3211 -0.5132 -0.0640
  883MOL0     C19080   5.283   9.376   3.417  0.0290  0.0797  0.2207
  883MOL0     C19081   5.178   9.460   3.340  0.4666  0.8721  0.6496
  883MOL0     C19082   5.047   9.379   3.314  0.2648  0.3627  0.2195
  883MOL0     C19083   4.916   9.454   3.325  0.2847  1.2581  0.2198
  883MOL0     C19084   4.808   9.342   3.312  0.0779  0.0381 -0.2172
  883MOL0     C19085   4.669   9.394   3.350  0.1069  0.1719  0.2374
  883MOL0     C19086   4.632   9.520   3.269 -0.0029 -0.9152 -0.5605
  883MOL0     N19087   4.496   9.561   3.297 -0.2183  0.4299  0.4790
  883MOL0     C19088   4.462   9.590   3.421  0.8537 -0.0236 -0.4035
  883MOL0     C19089   4.343   9.661   3.416 -0.8172  1.0255  0.5109
  883MOL0     C19090   4.256   9.719   3.528  0.4031 -0.6748 -0.4593
  883MOL0     C19091   4.105   9.703   3.477  0.3714 -0.5765 -0.8906
  883MOL0     C19092   4.007   9.744   3.590  0.1765  0.0281 -0.9567
  883MOL0     C19093   3.863   9.724   3.540  0.3194 -0.3355 -0.4991
  883MOL0     O19094   3.782   9.765   3.648  0.2632 -0.0778  0.0001
  883MOL0     C19095   3.727   9.893   3.654  0.2229 -0.1528 -0.0150
  883MOL0     C19096   3.635   9.920   3.749  0.5791 -0.2021 -0.2279
  883MOL0     C19097   3.575  10.045   3.767  0.1435 -0.0380 -0.2947
  883MOL0     C19098   3.474  10.066   3.877  0.0898 -0.4050  0.2536
  883MOL0     C19099   3.610  10.154   3.677 -0.2551  0.4062  0.5590
  883MOL0     C19100   3.537  10.287   3.684 -0.9342 -0.2738  1.1842
  883MOL0     O19101   3.591  10.383   3.606  0.2853 -0.0199 -0.6180
  883MOL0     C19102   3.503  10.488   3.567 -0.2920  0.3778 -0.8138
  883MOL0     C19103   3.444  10.573   3.665 -0.5188  0.4701 -0.5668
  883MOL0     C19104   3.381  10.696   3.629 -0.2013 -0.0302 -0.7569
  883MOL0     C19105   3.355  10.710   3.497  0.1598  0.8124  0.3466
  883MOL0     O19106   3.280  10.828   3.472  0.9113 -0.1202 -0.3730
  883MOL0     C19107   3.173  10.816   3.381 -0.6991  0.5871  0.1002
  883MOL0     C19108   3.063  10.897   3.433 -0.0218 -0.2437  0.6891
  883MOL0     C19109   3.081  11.043   3.441  0.5196 -0.3229 -0.1357
  883MOL0     C19110   2.949  11.117   3.482  0.7018 -0.7375  0.0166
  883MOL0     C19111   2.975  11.262   3.529 -0.2210 -0.3463 -0.4053
  883MOL0     C19112   2.846  11.327   3.597 -0.4924 -0.2570 -0.9727
  883MOL0     C19113   2.884  11.469   3.641  0.3184  0.0446  0.1518
  883MOL0     C19114   2.759  11.511   3.721  0.9384  0.7855  0.2931
  883MOL0    Cl19115   2.602  11.544   3.625 -0.3226 -0.1982  0.1482
  883MOL0     C19116   3.402  10.625   3.394  0.6740  0.4431  0.5525
  883MOL0     C19117   3.478  10.510   3.430  0.4537  0.5419 -0.2888
  883MOL0     O19118   3.433  10.299   3.739 -0.3073  0.6235 -0.0626
  883MOL0     C19119   3.703  10.122   3.581 -0.5346 -0.0260  0.4183
  883MOL0     C19120   3.756   9.993   3.561  0.0490  0.1892  0.7694
  883MOL0     N19121   4.314   9.663   3.277  0.1189  0.2709  0.1364
  883MOL0     N19122   4.410   9.610   3.208 -0.3211  1.0075  0.1057
  883MOL0     C19123   5.742   9.239   3.501  0.8454 -0.1849 -0.3682
  883MOL0     C19124   5.875   9.252   3.515 -0.3497 -0.3935 -0.3703
  883MOL0     C19125   6.258   9.475   3.641  0.7512 -0.5771 -0.3473
  883MOL0     C19126   6.314   9.560   3.744 -0.0446 -0.6571 -0.5630
  883MOL0     C19127   6.448   9.556   3.776  0.0074  0.2133 -0.5687
  883MOL0     C19128   6.533   9.472   3.702  0.5702 -0.3366 -0.5915
  883MOL0     O19129   6.665   9.471   3.709  0.1694 -0.1608 -0.0012
  883MOL0     C19130   6.743   9.592   3.733  0.5075 -0.1750 -0.3330
  883MOL0     C19131   6.886   9.595   3.667  0.7206 -0.1095  0.5582
  883MOL0     C19132   6.997   9.507   3.730 -0.7139  0.8373 -0.7562
  883MOL0     C19133   7.134   9.512   3.652 -0.6585 -0.0793  0.4563
  883MOL0     C19134   7.243   9.454   3.719  0.5422  0.1530 -0.2444
  883MOL0     C19135   7.340   9.422   3.788  0.1418  0.0071  0.3412
  883MOL0     C19136   6.478   9.392   3.601  1.1715  0.0600 -0.3017
  883MOL0     C19137   6.341   9.388   3.567 -0.3798 -0.9217 -0.7927
  883MOL0     H19138   5.913   9.577   3.412  3.0703 -1.8484 -1.8108
  883MOL0     H19139   5.655   9.540   3.396  0.7654  2.0200  3.3282
  883MOL0     H19140   5.445   9.516   3.452  0.5342 -0.0508 -1.2125
  883MOL0     H19141   5.440   9.427   3.294 -0.7457 -0.0527 -0.0811
  883MOL0     H19142   5.276   9.273   3.379 -0.1387  0.4651 -0.8325
  883MOL0     H19143   5.264   9.372   3.524  1.4624 -1.1566  0.4545
  883MOL0     H19144   5.151   9.554   3.389 -2.3404 -0.3928  1.7127
  883MOL0     H19145   5.225   9.470   3.241  3.3140 -4.3943  1.0781
  883MOL0     H19146   5.053   9.321   3.221 -0.4235  4.3150 -2.4990
  883MOL0     H19147   5.042   9.305   3.394  0.3993  0.4746  0.3312
  883MOL0     H19148   4.913   9.513   3.417  1.9561 -0.3165  1.3948
  883MOL0     H19149   4.908   9.519   3.237  0.6405  0.9597 -0.0392
  883MOL0     H19150   4.802   9.299   3.211  0.9756  0.2399 -0.3640
  883MOL0     H19151   4.828   9.255   3.376  0.4185 -0.0301 -0.4105
  883MOL0     H19152   4.596   9.317   3.327 -2.2381  1.9261  1.4208
  883MOL0     H19153   4.661   9.419   3.456  0.0851 -1.7992  0.7449
  883MOL0     H19154   4.643   9.506   3.161  0.8800  0.0120 -0.6091
  883MOL0     H19155   4.700   9.596   3.310  0.1557 -2.3103  2.0146
  883MOL0     H19156   4.508   9.571   3.518 -0.2731  0.7665  0.3103
  883MOL0     H19157   4.279   9.673   3.624 -0.8400 -0.7562 -0.1771
  883MOL0     H19158   4.279   9.825   3.537  0.3886 -0.7341  0.3325
  883MOL0     H19159   4.089   9.598   3.451  1.5882 -0.4588 -2.2728
  883MOL0     H19160   4.080   9.774   3.398 -1.3903  1.2240  1.1264
  883MOL0     H19161   4.011   9.848   3.623 -1.9924 -0.3583  0.8046
  883MOL0     H19162   4.036   9.696   3.684  2.4552 -0.5957 -1.8978
  883MOL0     H19163   3.840   9.618   3.523  1.8274 -0.8129  0.2520
  883MOL0     H19164   3.845   9.768   3.441 -0.5701 -1.3214 -0.7974
  883MOL0     H19165   3.608   9.834   3.809  0.2326 -0.7236 -1.1254
  883MOL0     H19166   3.469   9.974   3.937 -0.2904  0.9680  2.4264
  883MOL0     H19167   3.502  10.149   3.942 -1.4226  2.1290 -2.1172
  883MOL0     H19168   3.376  10.081   3.830  0.5212 -0.9713 -0.8451
  883MOL0     H19169   3.455  10.555   3.771 -0.6326 -1.9181 -0.9058
  883MOL0     H19170   3.333  10.765   3.697 -3.3920  0.1457 -2.9232
  883MOL0     H19171   3.210  10.852   3.285  2.5611 -0.4667  0.8220
  883MOL0     H19172   3.149  10.710   3.367  1.0871  0.4064 -2.0653
  883MOL0     H19173   2.968  10.875   3.383  0.0306  1.1922 -0.0916
  883MOL0     H19174   3.053  10.867   3.538  1.4751 -0.4207  0.8038
  883MOL0     H19175   3.113  11.086   3.345  2.0792 -0.9006  0.0937
  883MOL0     H19176   3.160  11.065   3.514 -1.4639  0.0202  2.0271
  883MOL0     H19177   2.878  11.111   3.399  1.0515 -1.3279 -0.2488
  883MOL0     H19178   2.913  11.056   3.565  2.2400 -1.5281  0.1394
  883MOL0     H19179   2.999  11.327   3.445 -2.7713  0.0752 -0.9000
  883MOL0     H19180   3.063  11.255   3.594 -0.7104  1.4797  0.5545
  883MOL0     H19181   2.761  11.337   3.529 -0.7736  2.1224 -0.3636
  883MOL0     H19182   2.823  11.260   3.680 -2.6639 -2.0515 -2.8942
  883MOL0     H19183   2.912  11.536   3.559  0.7097  0.3663  0.5453
  883MOL0     H19184   2.965  11.458   3.714 -0.6353  3.4778  1.9541
  883MOL0     H19185   2.783  11.607   3.767 -0.0147  1.6117 -0.8831
  883MOL0     H19186   2.734  11.442   3.802  1.6364 -0.2392 -0.3319
  883MOL0     H19187   3.372  10.653   3.294 -0.5769  4.5037  1.8496
  883MOL0     H19188   3.521  10.447   3.353 -0.0015 -0.6588  0.4036
  883MOL0     H19189   3.729  10.197   3.507 -2.0015 -0.0391 -0.1501
  883MOL0     H19190   3.821   9.967   3.478 -0.5023 -3.2397  1.2911
  883MOL0     H19191   5.694   9.145   3.526 -0.8572  1.1407  1.8107
  883MOL0     H19192   5.932   9.166   3.548  2.4934  1.0170 -1.2177
  883MOL0     H19193   6.255   9.629   3.804 -0.6828 -2.5032  1.0248
  883MOL0     H19194   6.494   9.625   3.847  0.6988  0.3600 -1.1496
  883MOL0     H19195   6.685   9.677   3.694  1.4343 -0.1548 -1.7501
  883MOL0     H19196   6.748   9.593   3.843 -1.5457 -0.5098 -0.2037
  883MOL0     H19197   6.919   9.699   3.676  1.1566 -0.1555 -0.3252
  883MOL0     H19198   6.874   9.572   3.561  0.3527  1.4363  0.2411
  883MOL0     H19199   6.966   9.402   3.725  1.8224  0.0797 -2.8372
  883MOL0     H19200   7.003   9.532   3.836 -0.3961  0.2538 -0.6372
  883MOL0     H19201   7.164   9.617   3.647 -2.9391  0.6526  1.1266
  883MOL0     H19202   7.129   9.470   3.551  1.0831  0.1680  0.2366
  883MOL0     H19203   7.427   9.411   3.849  0.4915 -0.5663 -0.2526
  883MOL0     H19204   6.547   9.322   3.554  1.4907  1.6144 -2.2438
  883MOL0     H19205   6.308   9.334   3.480 -2.0144  1.6608 -1.9172
  884MOL0     O19206  10.938   7.021   9.264  0.8609  0.3872  0.4033
  884MOL0     C19207  11.022   6.935   9.254 -0.1380 -0.6950 -0.0111
  884MOL0     O19208  10.998   6.806   9.234  0.4471  0.0091  0.3721
  884MOL0     C19209  10.871   6.753   9.193 -0.7537 -0.7339 -1.0520
  884MOL0     C19210  10.863   6.702   9.068 -0.0730  0.5130  0.0695
  884MOL0     C19211  10.747   6.652   9.014 -0.7207 -0.3711  0.4191
  884MOL0     C19212  10.628   6.657   9.096  0.1268  0.2626 -0.3554
  884MOL0     O19213  10.498   6.628   9.061  0.9514 -0.9049 -0.0327
  884MOL0     C19214  10.483   6.612   8.915  0.3641 -0.3130 -0.2760
  884MOL0     C19215  10.346   6.580   8.896 -0.0343 -0.6688  0.2643
  884MOL0     C19216  10.303   6.605   8.739 -0.3246  0.2463 -0.4543
  884MOL0     C19217  10.394   6.539   8.636 -0.2033 -0.5550  0.0937
  884MOL0     C19218  10.347   6.586   8.498 -0.3217  0.3893  0.9746
  884MOL0     C19219  10.423   6.506   8.383 -0.9915 -0.3375 -0.3055
  884MOL0     C19220  10.409   6.578   8.251  0.2531 -0.4020  0.4569
  884MOL0     C19221  10.271   6.589   8.200 -0.3549 -0.2661 -0.0853
  884MOL0     N19222  10.282   6.619   8.050  1.0196  0.3610  0.0221
  884MOL0     C19223  10.263   6.733   7.975 -0.2110 -0.1080  1.0594
  884MOL0     C19224  10.255   6.689   7.843 -0.2300  0.6935  0.5782
  884MOL0     C19225  10.251   6.751   7.706 -0.6728 -0.3393 -0.1549
  884MOL0     C19226  10.120   6.824   7.668 -1.0974 -0.0231 -0.0749
  884MOL0     C19227  10.118   6.884   7.528  0.1888 -0.3089  0.5610
  884MOL0     C19228   9.971   6.888   7.461 -0.1328 -0.0847 -0.4071
  884MOL0     O19229   9.864   6.936   7.547  0.2749  0.0809  0.2694
  884MOL0     C19230   9.752   6.986   7.480 -0.1598  0.3481  0.4267
  884MOL0     C19231   9.656   7.054   7.557  1.1774 -0.3757  0.0963
  884MOL0     C19232   9.528   7.093   7.491  0.0659 -0.1914 -0.7875
  884MOL0     C19233   9.421   7.169   7.576 -0.3866  0.3638  0.0272
  884MOL0     C19234   9.507   7.061   7.355 -0.3589 -0.4665 -0.2761
  884MOL0     C19235   9.388   7.096   7.279  0.7325 -0.0798  0.4599
  884MOL0     O19236   9.400   7.136   7.154  0.5136  0.3920  0.2725
  884MOL0     C19237   9.297   7.184   7.074 -0.2099 -0.5531  0.3017
  884MOL0     C19238   9.319   7.190   6.938 -1.0502 -0.5025 -0.5322
  884MOL0     C19239   9.214   7.226   6.857  0.2647 -0.1054 -0.4408
  884MOL0     C19240   9.091   7.265   6.909  0.7719 -0.2208  0.9772
  884MOL0     O19241   8.978   7.287   6.832  0.3313 -0.2013 -0.5146
  884MOL0     C19242   8.998   7.325   6.703 -0.3325  1.0298  0.9797
  884MOL0     C19243   8.863   7.337   6.631 -0.0776  0.1220 -0.3389
  884MOL0     C19244   8.763   7.224   6.647  0.2822 -0.7992  1.0028
  884MOL0     C19245   8.630   7.263   6.574 -0.9155 -0.4697  0.6262
  884MOL0     C19246   8.534   7.152   6.539 -0.7347 -1.0143  0.5733
  884MOL0     C19247   8.582   7.070   6.416 -1.1143  0.3272 -1.7117
  884MOL0     C19248   8.488   6.958   6.371  0.1720 -0.4124 -0.0818
  884MOL0     C19249   8.346   7.005   6.381 -0.6145  0.6596 -0.0412
  884MOL0    Cl19250   8.247   6.888   6.289 -0.0784 -0.1994 -0.2318
  884MOL0     C19251   9.080   7.286   7.049 -0.8845  0.3519  0.2404
  884MOL0     C19252   9.184   7.239   7.132  1.1357  1.0546  0.3230
  884MOL0     O19253   9.284   7.059   7.327 -0.2308 -0.1402  1.1647
  884MOL0     C19254   9.608   7.001   7.284 -0.7795  0.3311  0.5060
  884MOL0     C19255   9.734   6.966   7.342 -0.4251 -0.0529  0.4329
  884MOL0     N19256  10.265   6.547   7.850  1.0113  0.0087  0.0044
  884MOL0     N19257  10.296   6.518   7.973  0.3448  0.4629 -0.1065
  884MOL0     C19258  10.641   6.694   9.227 -0.0830 -0.6694  0.8233
  884MOL0     C19259  10.761   6.741   9.269 -0.1052 -1.1293  0.8794
  884MOL0     C19260  11.162   6.979   9.272  0.8248 -0.4915 -0.6645
  884MOL0     C19261  11.253   6.884   9.326 -0.1994 -0.6688 -0.1111
  884MOL0     C19262  11.383   6.920   9.320  0.0826  0.0289 -0.3204
  884MOL0     C19263  11.426   7.047   9.274  0.2675  0.7779 -1.0671
  884MOL0     O19264  11.557   7.059   9.291 -0.6040 -0.2841 -0.2532
  884MOL0     C19265  11.610   7.190   9.271 -1.0538 -0.8421 -0.9598
  884MOL0     C19266  11.733   7.191   9.358 -0.2184 -0.2347 -1.1836
  884MOL0     C19267  11.816   7.322   9.356  0.6654  0.1123 -0.1109
  884MOL0     C19268  11.905   7.343   9.483 -0.2183  0.2939  0.1337
  884MOL0     C19269  12.019   7.424   9.444  0.4821 -0.9230  1.0674
  884MOL0     C19270  12.107   7.486   9.411  0.7950 -0.3558  0.5420
  884MOL0     C19271  11.336   7.136   9.218  0.0691 -0.3909  0.2096
  884MOL0     C19272  11.206   7.098   9.224 -0.1136 -0.2995  0.3022
  884MOL0     H19273  10.952   6.711   9.006  0.0611  1.4790  0.3856
  884MOL0     H19274  10.740   6.633   8.908  0.1475  1.2868  0.0248
  884MOL0     H19275  10.506   6.709   8.870  2.2767 -0.9611 -0.7983
  884MOL0     H19276  10.546   6.533   8.872 -2.0917 -2.3510 -0.3955
  884MOL0     H19277  10.329   6.477   8.929 -0.4842 -0.5369  0.4572
  884MOL0     H19278  10.279   6.642   8.958  0.3888  2.6332 -2.2929
  884MOL0     H19279  10.198   6.578   8.719  0.0246 -0.1919 -1.8170
  884MOL0     H19280  10.315   6.711   8.712  2.0083  0.1455  0.0374
  884MOL0     H19281  10.498   6.569   8.649 -0.3953  1.8993 -2.8700
  884MOL0     H19282  10.386   6.430   8.643  1.6175 -0.7799 -0.8633
  884MOL0     H19283  10.239   6.576   8.489 -0.0522 -0.7107 -4.2568
  884MOL0     H19284  10.356   6.693   8.476  0.8367  0.1821  0.3004
  884MOL0     H19285  10.527   6.515   8.417 -0.5706 -0.5762 -1.5027
  884MOL0     H19286  10.409   6.398   8.388  1.0084 -0.5873  2.6435
  884MOL0     H19287  10.447   6.680   8.257  2.2371 -1.0680  0.1050
  884MOL0     H19288  10.475   6.523   8.183  0.5342 -1.8911  1.8699
  884MOL0     H19289  10.214   6.672   8.242 -0.1793  0.9514 -2.1076
  884MOL0     H19290  10.207   6.501   8.209 -3.2373  1.7289  0.2194
  884MOL0     H19291  10.265   6.834   8.015  0.3744  0.1202  0.4909
  884MOL0     H19292  10.330   6.826   7.715 -1.4198  0.3748  0.5756
  884MOL0     H19293  10.281   6.679   7.629 -3.8007 -1.1194 -0.8029
  884MOL0     H19294  10.105   6.905   7.740 -0.5641  3.3385 -3.4341
  884MOL0     H19295  10.043   6.746   7.669  0.2623 -1.4362 -0.8772
  884MOL0     H19296  10.175   6.812   7.468  0.5646 -0.8888  1.5936
  884MOL0     H19297  10.167   6.982   7.529 -0.9740  0.2862  1.5187
  884MOL0     H19298   9.939   6.789   7.427 -1.6121  0.0184  0.5671
  884MOL0     H19299   9.984   6.951   7.373 -1.0050  0.7349  0.0403
  884MOL0     H19300   9.663   7.072   7.663 -0.9161  0.7035  0.1164
  884MOL0     H19301   9.457   7.219   7.666  1.2349 -0.6489 -0.0237
  884MOL0     H19302   9.370   7.241   7.512 -2.0297 -1.0174 -0.3093
  884MOL0     H19303   9.351   7.090   7.607  1.0280 -1.2924 -0.8552
  884MOL0     H19304   9.419   7.157   6.911  0.4785 -0.2877  4.0027
  884MOL0     H19305   9.227   7.217   6.750 -2.1675  0.4295 -0.8482
  884MOL0     H19306   9.054   7.419   6.705  2.2183 -0.2496 -2.0252
  884MOL0     H19307   9.058   7.258   6.640 -1.8739  0.3077  0.2474
  884MOL0     H19308   8.806   7.417   6.680 -2.4939 -0.8454 -1.4094
  884MOL0     H19309   8.875   7.358   6.524  2.0846  2.3114  0.2396
  884MOL0     H19310   8.742   7.190   6.749 -5.6818 -1.1867  0.0205
  884MOL0     H19311   8.799   7.134   6.597 -2.1252 -1.4326  0.2597
  884MOL0     H19312   8.589   7.323   6.656 -0.3641  2.6088 -1.1984
  884MOL0     H19313   8.647   7.325   6.485 -0.4537 -1.2447  0.1657
  884MOL0     H19314   8.436   7.196   6.519 -1.2631 -2.0346  0.8454
  884MOL0     H19315   8.528   7.092   6.630  0.0820  0.9506  1.9950
  884MOL0     H19316   8.607   7.140   6.335  1.7216 -0.6235 -1.7932
  884MOL0     H19317   8.674   7.017   6.445 -1.7936  1.0301  2.3619
  884MOL0     H19318   8.496   6.876   6.443  0.4642 -0.3970 -0.0976
  884MOL0     H19319   8.513   6.932   6.268  0.3643  0.6616 -0.3131
  884MOL0     H19320   8.336   7.109   6.347 -1.6702  1.5289  2.6678
  884MOL0     H19321   8.307   7.007   6.483 -2.5604  1.7985 -0.7579
  884MOL0     H19322   8.982   7.306   7.091 -1.8046 -0.8080 -1.2674
  884MOL0     H19323   9.170   7.248   7.240  0.6836 -0.7209  0.4516
  884MOL0     H19324   9.581   6.972   7.182 -3.2797  2.4336  0.4827
  884MOL0     H19325   9.808   6.915   7.282 -1.4988 -0.3385 -0.6963
  884MOL0     H19326  10.556   6.711   9.292  1.3981  3.5466  2.0030
  884MOL0     H19327  10.773   6.784   9.368 -0.2371  1.0964 -0.0185
  884MOL0     H19328  11.227   6.785   9.360  3.1095 -1.7389 -0.3848
  884MOL0     H19329  11.447   6.845   9.366 -0.6873 -0.8176 -0.5991
  884MOL0     H19330  11.635   7.228   9.172  0.5810  1.9146  0.4066
  884MOL0     H19331  11.538   7.263   9.311  1.1318  0.3840  0.9749
  884MOL0     H19332  11.792   7.100   9.346  0.9958  0.0825  1.5252
  884MOL0     H19333  11.686   7.178   9.456  0.1819  1.4935 -0.7223
  884MOL0     H19334  11.744   7.403   9.354  1.7961  1.1344 -0.9034
  884MOL0     H19335  11.872   7.327   9.262 -0.7685  3.8090 -0.9148
  884MOL0     H19336  11.946   7.252   9.527  0.6628  0.8219  0.4322
  884MOL0     H19337  11.850   7.392   9.564  1.6355  1.1184  0.9668
  884MOL0     H19338  12.196   7.542   9.388  1.0137 -1.4204 -1.4149
  884MOL0     H19339  11.363   7.226   9.164  1.0713  0.9626  2.7923
  884MOL0     H19340  11.127   7.155   9.178 -2.0402 -0.7349  2.8492
  885MOL0     O19341   7.408  11.277  10.329 -0.3972 -0.0645  0.0115
  885MOL0     C19342   7.396  11.182  10.252  0.3431  0.0490 -0.5301
  885MOL0     O19343   7.282  11.143  10.189  0.3848 -0.7044  0.0643
  885MOL0     C19344   7.160  11.202  10.208 -0.0962  0.5966  0.8705
  885MOL0     C19345   7.139  11.341  10.208 -0.8193 -0.0165  0.8543
  885MOL0     C19346   7.009  11.388  10.241 -0.6219 -0.6442 -1.1696
  885MOL0     C19347   6.906  11.301  10.262  0.0052  0.2306 -0.7217
  885MOL0     O19348   6.780  11.343  10.302  0.3516  0.2176 -0.1952
  885MOL0     C19349   6.748  11.484  10.288  0.0639 -0.1442  0.6526
  885MOL0     C19350   6.603  11.511  10.351 -0.6436  0.0063  1.1420
  885MOL0     C19351   6.500  11.420  10.277 -0.1228 -0.0265  0.2243
  885MOL0     C19352   6.353  11.454  10.313  0.7493  0.5504  0.6429
  885MOL0     C19353   6.285  11.541  10.213 -0.4028 -0.0115  0.0207
  885MOL0     C19354   6.127  11.504  10.218  0.1602 -0.2564  0.6114
  885MOL0     C19355   6.036  11.601  10.133  0.0446 -0.2588  0.3012
  885MOL0     C19356   6.025  11.743  10.197 -0.4003  0.0293  0.1684
  885MOL0     N19357   5.977  11.847  10.103 -0.0058  0.0683  0.3435
  885MOL0     C19358   5.855  11.844  10.044  0.3668 -0.1282 -0.1195
  885MOL0     C19359   5.840  11.973   9.999  0.9780  0.6549  0.6603
  885MOL0     C19360   5.725  12.008   9.922 -0.1001  0.1714 -0.0882
  885MOL0     C19361   5.641  12.108   9.992 -0.2542 -0.1762 -0.1853
  885MOL0     C19362   5.514  12.120   9.912  1.1425 -0.9184 -1.3339
  885MOL0     C19363   5.418  12.228   9.968 -0.2317 -0.3230 -0.2652
  885MOL0     O19364   5.368  12.203  10.101 -0.2732  0.0960 -0.1832
  885MOL0     C19365   5.238  12.228  10.120 -0.0346 -0.6550 -0.4500
  885MOL0     C19366   5.198  12.357  10.126 -0.4969  0.2390 -0.7552
  885MOL0     C19367   5.069  12.394  10.124 -0.0133 -1.1651  1.3987
  885MOL0     C19368   5.040  12.547  10.108  0.1125  0.9432  0.5847
  885MOL0     C19369   4.964  12.305  10.138  0.0620  0.9432 -0.3107
  885MOL0     C19370   4.817  12.341  10.147 -1.1453  0.6123  0.5737
  885MOL0     O19371   4.775  12.470  10.167  0.0638  0.1430  0.1361
  885MOL0     C19372   4.645  12.500  10.151  0.2537  0.0010  0.2898
  885MOL0     C19373   4.579  12.499  10.025  0.3294  0.8992 -0.0895
  885MOL0     C19374   4.439  12.501  10.011 -0.6281  0.4006 -0.3112
  885MOL0     C19375   4.359  12.518  10.124  0.7897  0.8818  0.7437
  885MOL0     O19376   4.218  12.523  10.113  0.6047 -0.3468 -0.3580
  885MOL0     C19377   4.157  12.537   9.986 -0.0363  0.3505  0.2250
  885MOL0     C19378   4.008  12.566  10.008  0.1735  0.6925 -0.1304
  885MOL0     C19379   3.934  12.574   9.890  0.6850  0.1473  0.1790
  885MOL0     C19380   3.783  12.595   9.916 -0.2295  0.2540  0.3703
  885MOL0     C19381   3.716  12.468   9.977 -0.2551  0.2956  0.4138
  885MOL0     C19382   3.567  12.508   9.994  0.0647 -0.3122 -0.6267
  885MOL0     C19383   3.478  12.406  10.073  0.1992  0.0178 -0.6921
  885MOL0     C19384   3.339  12.465  10.096 -0.6471  0.0805  0.0630
  885MOL0    Cl19385   3.228  12.368  10.195  0.2883 -0.4266  0.1426
  885MOL0     C19386   4.423  12.523  10.247  0.3815 -0.1037  0.5491
  885MOL0     C19387   4.565  12.515  10.269  0.1318  0.2927 -0.3056
  885MOL0     O19388   4.740  12.250  10.131 -1.1259 -0.1510 -0.0594
  885MOL0     C19389   5.012  12.169  10.126  0.5086  0.2121 -1.3728
  885MOL0     C19390   5.141  12.133  10.120 -0.8074 -0.0276 -0.8963
  885MOL0     N19391   5.949  12.054  10.043 -0.0874  0.5997  0.3973
  885MOL0     N19392   6.026  11.976  10.107 -0.1604 -0.0304  0.1134
  885MOL0     C19393   6.921  11.168  10.246 -0.1747  0.5908  0.2137
  885MOL0     C19394   7.043  11.124  10.211  0.9681  0.4938  0.1317
  885MOL0     C19395   7.514  11.109  10.210 -0.5184 -0.2060  0.0850
  885MOL0     C19396   7.643  11.160  10.258  0.1844 -0.2018 -0.5271
  885MOL0     C19397   7.760  11.105  10.215 -0.6470  0.1925 -0.5005
  885MOL0     C19398   7.758  10.997  10.126 -0.6559  0.3358  0.8135
  885MOL0     O19399   7.867  10.919  10.101  0.1844 -0.2904 -0.4336
  885MOL0     C19400   7.995  10.982  10.129  0.3653 -0.0187 -0.3574
  885MOL0     C19401   8.110  10.930  10.048  0.7978 -0.2046  0.1740
  885MOL0     C19402   8.237  11.007  10.080  0.3619 -0.4155  0.5230
  885MOL0     C19403   8.343  10.923  10.007  0.6393 -0.5782 -0.0430
  885MOL0     C19404   8.480  10.969  10.015 -1.2068  0.7509 -1.0717
  885MOL0     C19405   8.598  11.002  10.021 -0.1063 -0.0441  0.0248
  885MOL0     C19406   7.632  10.939  10.085 -0.4876  0.2099 -0.7012
  885MOL0     C19407   7.511  10.995  10.139 -0.1121  0.2553 -0.1989
  885MOL0     H19408   7.206  11.417  10.170 -0.2356 -0.4656  0.9800
  885MOL0     H19409   7.000  11.495  10.257 -0.4564 -1.0264  2.4107
  885MOL0     H19410   6.823  11.546  10.338  3.1361 -2.8212 -0.2758
  885MOL0     H19411   6.751  11.516  10.183  0.4052  3.5063  1.6641
  885MOL0     H19412   6.598  11.505  10.460 -0.1560  0.6177  1.1989
  885MOL0     H19413   6.578  11.615  10.330 -1.6647 -0.6482 -1.1986
  885MOL0     H19414   6.517  11.425  10.169  1.0251  1.4968  0.4442
  885MOL0     H19415   6.515  11.319  10.316 -3.3042 -1.1388 -1.0561
  885MOL0     H19416   6.303  11.357  10.304  1.9712  0.0415 -1.0181
  885MOL0     H19417   6.348  11.488  10.417 -1.1132 -1.1300  1.1785
  885MOL0     H19418   6.318  11.641  10.243  2.5553 -1.8528  3.8860
  885MOL0     H19419   6.324  11.529  10.111 -1.6762  1.5733 -0.7065
  885MOL0     H19420   6.119  11.401  10.184 -1.9415 -1.1925  3.4841
  885MOL0     H19421   6.085  11.507  10.319  0.6349 -1.8256  0.8741
  885MOL0     H19422   6.087  11.611  10.037  0.7803  0.2005  0.7414
  885MOL0     H19423   5.933  11.569  10.112 -0.8572  2.3842  0.4353
  885MOL0     H19424   6.124  11.761  10.240  0.6752 -0.3245 -2.0176
  885MOL0     H19425   5.958  11.732  10.283 -0.4603  0.4454  0.1746
  885MOL0     H19426   5.801  11.753  10.023  0.8597 -0.7175  1.0707
  885MOL0     H19427   5.765  12.050   9.829  0.4551 -1.7767 -0.7958
  885MOL0     H19428   5.677  11.915   9.891  1.8033 -0.0367 -2.7223
  885MOL0     H19429   5.702  12.198  10.004 -3.5376  2.3644 -0.9551
  885MOL0     H19430   5.609  12.076  10.092 -1.4672  1.4424 -0.0076
  885MOL0     H19431   5.454  12.029   9.923 -0.9910  0.6814  2.0486
  885MOL0     H19432   5.539  12.145   9.809 -1.2316  1.1265 -1.4925
  885MOL0     H19433   5.328  12.256   9.912 -1.1512  0.8193  1.6830
  885MOL0     H19434   5.484  12.315   9.964 -0.4198 -0.1533  0.2865
  885MOL0     H19435   5.275  12.434  10.125 -0.0330 -0.2223 -1.6141
  885MOL0     H19436   4.968  12.562  10.027 -0.6988 -0.2856  1.0490
  885MOL0     H19437   5.007  12.585  10.205 -3.6074 -2.9930  1.1928
  885MOL0     H19438   5.135  12.594  10.082 -1.4144  3.3603 -0.9474
  885MOL0     H19439   4.635  12.479   9.935  0.3584  0.6745 -0.0221
  885MOL0     H19440   4.407  12.493   9.907  1.3120  0.8655 -0.9843
  885MOL0     H19441   4.205  12.621   9.936  3.8520 -0.9869  1.3410
  885MOL0     H19442   4.164  12.445   9.926  0.3020  0.5688 -0.0736
  885MOL0     H19443   3.969  12.489  10.074 -1.1563 -1.9461 -3.6540
  885MOL0     H19444   3.994  12.659  10.062 -4.4114  0.0455  0.1945
  885MOL0     H19445   3.961  12.486   9.831  2.1182  0.0626  0.9152
  885MOL0     H19446   3.977  12.659   9.837  7.9939 -2.2866  1.1216
  885MOL0     H19447   3.762  12.675   9.988  2.6426  0.8608  0.6402
  885MOL0     H19448   3.732  12.631   9.826 -0.6288  1.2294  0.9716
  885MOL0     H19449   3.766  12.449  10.073  2.5671  1.3044 -0.7677
  885MOL0     H19450   3.722  12.382   9.910  2.5484  0.0006  0.9302
  885MOL0     H19451   3.551  12.600  10.052  2.6661 -1.6180  2.4809
  885MOL0     H19452   3.523  12.526   9.896  0.2052 -0.1445 -0.6609
  885MOL0     H19453   3.533  12.377  10.163 -0.6042  1.0270  0.1659
  885MOL0     H19454   3.469  12.310  10.022 -1.4024  0.3671 -1.1211
  885MOL0     H19455   3.294  12.475   9.997 -1.5531  2.6667  0.6385
  885MOL0     H19456   3.346  12.566  10.138 -1.0729  0.2367 -0.2321
  885MOL0     H19457   4.362  12.550  10.332  0.0266  0.3540  0.1540
  885MOL0     H19458   4.591  12.520  10.374  1.2041 -3.4099 -0.2340
  885MOL0     H19459   4.941  12.087  10.120  0.7264 -0.2322  1.0841
  885MOL0     H19460   5.166  12.027  10.112 -1.1372 -0.4914  2.6362
  885MOL0     H19461   6.838  11.098  10.238  2.4217 -2.6120 -1.4113
  885MOL0     H19462   7.059  11.017  10.199  1.2992  0.4392  0.9455
  885MOL0     H19463   7.658  11.244  10.326  4.3810 -0.0057 -1.4193
  885MOL0     H19464   7.850  11.155  10.249 -0.8858 -0.6285  1.4595
  885MOL0     H19465   7.990  11.091  10.122 -1.6589 -0.1583 -2.6521
  885MOL0     H19466   8.015  10.953  10.233 -1.9279  1.6577  0.6366
  885MOL0     H19467   8.096  10.939   9.940  1.3093  1.5618  0.2182
  885MOL0     H19468   8.128  10.825  10.071  1.5973 -0.8589 -2.9419
  885MOL0     H19469   8.242  11.001  10.189 -1.4133  1.0847  0.7367
  885MOL0     H19470   8.235  11.110  10.045 -1.1812 -0.1169  1.4076
  885MOL0     H19471   8.328  10.930   9.899  0.2142  0.8861  0.0823
  885MOL0     H19472   8.350  10.816  10.027  2.0703 -1.3091 -3.6152
  885MOL0     H19473   8.704  11.022  10.016 -0.1747 -0.0409 -2.4784
  885MOL0     H19474   7.623  10.856  10.015  1.2406 -2.1309  1.6600
  885MOL0     H19475   7.418  10.941  10.127  0.8936 -1.8593  0.9039
  886MOL0     O19476   3.384   6.629   6.799  0.4399 -0.4106 -0.0737
  886MOL0     C19477   3.382   6.508   6.806 -0.4673  0.2572 -0.6393
  886MOL0     O19478   3.272   6.423   6.811 -0.0128  0.3435 -0.8834
  886MOL0     C19479   3.149   6.474   6.833  0.0274 -0.0134 -0.1405
  886MOL0     C19480   3.125   6.545   6.953 -0.5531 -0.5572  0.2534
  886MOL0     C19481   2.996   6.577   6.993 -0.1396  0.2115 -0.3141
  886MOL0     C19482   2.892   6.541   6.905 -0.5281  0.3208  0.8585
  886MOL0     O19483   2.765   6.578   6.943  0.1900 -0.4349 -0.6819
  886MOL0     C19484   2.687   6.470   6.988  0.2201  0.2914  0.2417
  886MOL0     C19485   2.615   6.379   6.883  0.6929  0.5912  0.5873
  886MOL0     C19486   2.505   6.452   6.795  0.0861 -0.6948 -0.7188
  886MOL0     C19487   2.372   6.490   6.883 -0.9108 -0.0207 -0.7669
  886MOL0     C19488   2.311   6.606   6.801  0.2745  0.0021 -1.0616
  886MOL0     C19489   2.182   6.638   6.871  0.3138 -0.2252 -0.4225
  886MOL0     C19490   2.203   6.695   7.005 -0.0367  0.5488 -0.2835
  886MOL0     C19491   2.086   6.771   7.066 -0.2259  0.5008  0.7772
  886MOL0     N19492   1.953   6.714   7.039 -1.0932 -0.2881  0.1054
  886MOL0     C19493   1.829   6.785   7.038 -0.6841 -0.1168 -0.1350
  886MOL0     C19494   1.730   6.686   7.014 -0.1388  0.2680  0.1041
  886MOL0     C19495   1.578   6.711   7.011  0.0686 -0.3264  0.5423
  886MOL0     C19496   1.531   6.755   7.147 -0.1250 -0.9000 -0.8604
  886MOL0     C19497   1.374   6.747   7.145  0.3228  0.4245  0.1705
  886MOL0     C19498   1.312   6.810   7.264 -0.7273 -0.0395  0.0548
  886MOL0     O19499   1.162   6.817   7.242 -0.3813 -0.1007  0.2013
  886MOL0     C19500   1.082   6.822   7.351 -0.6386 -0.6211 -0.3916
  886MOL0     C19501   1.122   6.842   7.487 -0.3708 -0.7811  0.4707
  886MOL0     C19502   1.033   6.832   7.607 -0.3998  0.2650  0.2627
  886MOL0     C19503   1.093   6.846   7.746 -0.3344  0.4210  0.6062
  886MOL0     C19504   0.894   6.829   7.576 -0.8267  0.5289  0.8831
  886MOL0     C19505   0.788   6.848   7.672 -0.1475  0.1074 -0.3917
  886MOL0     O19506   0.669   6.889   7.624 -0.7360  0.1150  0.5908
  886MOL0     C19507   0.551   6.884   7.695  1.1909  0.2238 -0.6613
  886MOL0     C19508   0.535   6.860   7.833  0.1062  0.0787  0.5363
  886MOL0     C19509   0.405   6.850   7.884  0.2562  0.2027  0.5702
  886MOL0     C19510   0.296   6.889   7.804 -0.1798  0.5290  0.4417
  886MOL0     O19511   0.166   6.890   7.855  0.0358  0.2004  0.0042
  886MOL0     C19512   0.059   6.862   7.758  0.1060 -0.2239 -0.0765
  886MOL0     C19513  -0.077   6.855   7.824  0.2006 -0.4309  0.3597
  886MOL0     C19514  -0.118   6.994   7.879  0.6178 -0.2817 -0.7715
  886MOL0     C19515  -0.276   6.986   7.921 -0.0474  0.6217  0.2928
  886MOL0     C19516  -0.314   7.098   8.018  0.2185 -0.1519  0.3854
  886MOL0     C19517  -0.282   7.076   8.157 -0.8565 -0.3495  0.0774
  886MOL0     C19518  -0.341   7.189   8.242 -0.2234 -0.4209  0.2231
  886MOL0     C19519  -0.302   7.140   8.380  0.1243 -0.5860 -0.1355
  886MOL0    Cl19520  -0.129   7.180   8.412 -0.4579 -0.0453 -0.1526
  886MOL0     C19521   0.319   6.934   7.679 -0.1558 -0.1891  0.4474
  886MOL0     C19522   0.440   6.919   7.611  0.0524  0.5414 -0.3431
  886MOL0     O19523   0.815   6.826   7.789  0.7111  0.3556 -0.2769
  886MOL0     C19524   0.855   6.815   7.443  0.7337 -0.6357  0.4412
  886MOL0     C19525   0.947   6.816   7.334  0.0790  0.1728  0.1693
  886MOL0     N19526   1.790   6.562   6.994  0.3049 -0.0296 -0.5537
  886MOL0     N19527   1.916   6.582   7.009 -0.3877 -0.4981  0.0480
  886MOL0     C19528   2.918   6.475   6.784  0.7481 -0.4045 -0.2569
  886MOL0     C19529   3.049   6.449   6.747  0.6198 -0.0042  0.3416
  886MOL0     C19530   3.516   6.446   6.789 -0.2457  0.4107 -0.0547
  886MOL0     C19531   3.545   6.310   6.835 -0.5002 -0.9847 -0.4416
  886MOL0     C19532   3.677   6.257   6.829  0.6619  0.0618 -0.0068
  886MOL0     C19533   3.784   6.339   6.792 -0.5627 -0.0665  0.9962
  886MOL0     O19534   3.909   6.284   6.814 -0.5442 -0.4027  0.2198
  886MOL0     C19535   4.001   6.310   6.713 -0.8664  0.1660 -0.2344
  886MOL0     C19536   4.115   6.204   6.717  0.0105  0.0702  0.2620
  886MOL0     C19537   4.188   6.175   6.859 -0.0850 -0.0686 -0.1314
  886MOL0     C19538   4.202   6.284   6.960 -0.7224  0.0236  0.1738
  886MOL0     C19539   4.304   6.383   6.912  0.2297  0.6927  0.4947
  886MOL0     C19540   4.388   6.466   6.891  0.2626  0.7624  0.1490
  886MOL0     C19541   3.757   6.471   6.742  0.0397  0.1084  0.3135
  886MOL0     C19542   3.627   6.517   6.737  0.8653 -0.0145  0.9836
  886MOL0     H19543   3.197   6.581   7.026 -0.2200  1.6238 -1.0750
  886MOL0     H19544   2.976   6.641   7.077  0.7641  3.1439 -2.1755
  886MOL0     H19545   2.754   6.406   7.047  1.2607  1.3666  0.2582
  886MOL0     H19546   2.613   6.510   7.058 -0.4476 -0.1081 -0.2271
  886MOL0     H19547   2.687   6.330   6.818 -1.5591 -3.0669  0.5309
  886MOL0     H19548   2.569   6.291   6.929 -1.7932  1.1604 -0.6326
  886MOL0     H19549   2.559   6.537   6.753  0.0767 -1.2068 -1.7986
  886MOL0     H19550   2.464   6.400   6.708 -1.6221 -1.0024  0.2145
  886MOL0     H19551   2.302   6.406   6.885  2.5414 -3.2036  1.8516
  886MOL0     H19552   2.403   6.511   6.986 -0.3992 -3.9109  0.0201
  886MOL0     H19553   2.385   6.687   6.804  0.8718 -0.5424 -0.7877
  886MOL0     H19554   2.301   6.574   6.697  1.0423  0.6916 -1.3668
  886MOL0     H19555   2.125   6.717   6.820 -0.6147  1.6768  3.2412
  886MOL0     H19556   2.117   6.549   6.877 -0.6447  0.3405 -1.7526
  886MOL0     H19557   2.230   6.614   7.074 -0.5371 -0.6400 -1.4658
  886MOL0     H19558   2.286   6.766   6.994  0.8204 -0.5976 -1.4255
  886MOL0     H19559   2.087   6.868   7.016  0.3304 -0.2687 -0.7718
  886MOL0     H19560   2.097   6.781   7.174 -0.1695 -0.5686  0.8823
  886MOL0     H19561   1.817   6.891   7.058 -4.6734 -0.4219 -0.2268
  886MOL0     H19562   1.561   6.789   6.936  1.2266 -2.4963 -2.1524
  886MOL0     H19563   1.521   6.626   6.971 -0.9450  1.5081 -2.2432
  886MOL0     H19564   1.567   6.856   7.168  0.5853 -1.6593  1.9882
  886MOL0     H19565   1.572   6.680   7.216  0.5366  1.1187  1.0432
  886MOL0     H19566   1.348   6.641   7.149 -2.5721  1.0663  0.2688
  886MOL0     H19567   1.335   6.798   7.056  3.8832 -0.5155 -2.1449
  886MOL0     H19568   1.350   6.913   7.267  0.5755 -0.4335  4.3891
  886MOL0     H19569   1.338   6.759   7.357  1.6933  1.8622  0.5264
  886MOL0     H19570   1.220   6.883   7.507 -0.9132  0.4749  0.6991
  886MOL0     H19571   1.038   6.910   7.816 -0.9151 -1.4802  1.9590
  886MOL0     H19572   1.103   6.743   7.780  1.9860 -0.5645 -2.5584
  886MOL0     H19573   1.194   6.888   7.744  0.0757 -0.5397 -0.6397
  886MOL0     H19574   0.616   6.838   7.902  0.8432 -4.7730 -1.4872
  886MOL0     H19575   0.385   6.819   7.986 -0.1667 -1.7938 -0.0743
  886MOL0     H19576   0.054   6.955   7.701  0.4698 -1.0216 -1.4626
  886MOL0     H19577   0.079   6.780   7.688 -0.1665 -0.2290 -0.1492
  886MOL0     H19578  -0.154   6.811   7.760  0.0963 -0.2286  0.3431
  886MOL0     H19579  -0.083   6.787   7.910  0.9540 -1.7432 -0.6108
  886MOL0     H19580  -0.106   7.076   7.808 -2.3998 -0.5904 -1.7573
  886MOL0     H19581  -0.064   7.017   7.971 -2.3119 -0.8378  1.2401
  886MOL0     H19582  -0.325   6.999   7.825  4.4161 -1.6297 -2.6483
  886MOL0     H19583  -0.310   6.891   7.965 -2.5811  1.1590 -0.3436
  886MOL0     H19584  -0.420   7.110   7.992  0.2643  0.7628  0.5740
  886MOL0     H19585  -0.273   7.195   7.988 -0.4090  0.9977  3.0333
  886MOL0     H19586  -0.312   6.974   8.179 -0.8846 -0.4333 -0.3334
  886MOL0     H19587  -0.173   7.083   8.163 -0.7750 -2.4711  2.5384
  886MOL0     H19588  -0.449   7.192   8.223 -0.7811 -2.6463  2.5178
  886MOL0     H19589  -0.280   7.277   8.221  1.3837 -1.7298 -0.8752
  886MOL0     H19590  -0.322   7.032   8.382  2.7098 -1.1561  2.8201
  886MOL0     H19591  -0.352   7.187   8.466  1.7981  0.7876  0.1422
  886MOL0     H19592   0.239   6.971   7.615  0.1029 -0.1641  0.1376
  886MOL0     H19593   0.446   6.956   7.509  1.3112  1.4568  0.0331
  886MOL0     H19594   0.749   6.805   7.425  0.7102  1.0258 -0.5465
  886MOL0     H19595   0.917   6.795   7.232  0.5210  3.4258 -0.7188
  886MOL0     H19596   2.839   6.448   6.713  0.6703 -1.6401  0.2702
  886MOL0     H19597   3.065   6.390   6.658 -1.2715 -1.2546  0.7647
  886MOL0     H19598   3.459   6.261   6.879 -5.0055  4.9163 -1.3182
  886MOL0     H19599   3.696   6.154   6.856  2.6763 -0.3596 -2.6054
  886MOL0     H19600   3.946   6.281   6.623 -0.0110 -1.3747 -0.2905
  886MOL0     H19601   4.034   6.415   6.718 -1.7038  0.4048  0.5784
  886MOL0     H19602   4.199   6.233   6.653 -0.2846  0.8724  0.2128
  886MOL0     H19603   4.056   6.119   6.682  0.6831 -0.0203 -0.7041
  886MOL0     H19604   4.285   6.134   6.830  0.0315  0.6079 -0.7320
  886MOL0     H19605   4.143   6.087   6.907  0.1651 -1.7386 -2.7777
  886MOL0     H19606   4.224   6.243   7.059 -0.9240  0.0188  0.2170
  886MOL0     H19607   4.113   6.344   6.981  1.0584  3.0596 -0.3429
  886MOL0     H19608   4.457   6.539   6.853  0.7573  1.6586  2.5897
  886MOL0     H19609   3.848   6.516   6.704 -0.6456 -1.4416 -3.7414
  886MOL0     H19610   3.616   6.623   6.718  0.0345 -0.1971  0.3980
  887MOL0     O19611   4.963   0.404   7.720 -0.1780  0.2801  0.4738
  887MOL0     C19612   4.926   0.375   7.838  0.8666 -0.5601  0.0034
  887MOL0     O19613   4.807   0.335   7.872  0.0075  0.4191 -0.1243
  887MOL0     C19614   4.707   0.303   7.786 -0.3513  0.5511  1.0345
  887MOL0     C19615   4.577   0.311   7.836 -0.1373  0.2833  0.4408
  887MOL0     C19616   4.462   0.273   7.765  0.2591  0.4752  0.1347
  887MOL0     C19617   4.484   0.222   7.637 -0.4735  0.0321 -0.0328
  887MOL0     O19618   4.369   0.191   7.569 -0.6129 -0.7564 -0.1737
  887MOL0     C19619   4.378   0.102   7.450 -0.5837  0.3747  0.1378
  887MOL0     C19620   4.239   0.031   7.432 -0.6528 -0.2609 -0.2033
  887MOL0     C19621   4.241  -0.047   7.301 -0.1514  0.0619 -0.6925
  887MOL0     C19622   4.099  -0.111   7.286 -0.6797  0.2073 -0.0840
  887MOL0     C19623   4.064  -0.145   7.147 -0.3862 -0.1035 -0.0539
  887MOL0     C19624   3.913  -0.190   7.139  0.1251  0.1333 -0.9491
  887MOL0     C19625   3.876  -0.213   6.994 -0.5698  0.0365  0.4188
  887MOL0     C19626   3.728  -0.228   6.980  0.1332 -0.3868 -0.6134
  887MOL0     N19627   3.683  -0.248   6.843  0.1196 -0.2781  0.6401
  887MOL0     C19628   3.688  -0.141   6.758 -0.0659 -0.8119 -1.1597
  887MOL0     C19629   3.679  -0.197   6.637 -0.8057  0.1418  0.7710
  887MOL0     C19630   3.685  -0.124   6.508 -0.2274 -0.6029 -0.0177
  887MOL0     C19631   3.816  -0.059   6.493 -0.6164  0.6070  0.3804
  887MOL0     C19632   3.830   0.009   6.355  0.3487  0.1901 -0.1940
  887MOL0     C19633   3.958   0.082   6.347  0.0995  0.8858 -0.0828
  887MOL0     O19634   3.973   0.138   6.219 -0.6393 -0.1819 -0.0753
  887MOL0     C19635   4.070   0.238   6.208  0.7422  0.1236 -0.0397
  887MOL0     C19636   4.045   0.371   6.241  0.7973 -0.8510 -0.2536
  887MOL0     C19637   4.142   0.471   6.242  0.4253 -0.2923  0.1589
  887MOL0     C19638   4.100   0.605   6.283 -0.1119  0.4414 -0.7772
  887MOL0     C19639   4.276   0.436   6.182 -0.3443 -0.0655 -0.0008
  887MOL0     C19640   4.391   0.533   6.177 -0.1874  0.3065 -0.4909
  887MOL0     O19641   4.382   0.649   6.241 -0.8373  0.0821 -0.8871
  887MOL0     C19642   4.456   0.762   6.218 -0.9353  0.4380 -0.2566
  887MOL0     C19643   4.427   0.867   6.308  0.0593  0.2860  0.0167
  887MOL0     C19644   4.495   0.991   6.315 -0.0995  0.1331 -0.5585
  887MOL0     C19645   4.596   1.010   6.226 -0.4127  0.0748 -0.2677
  887MOL0     O19646   4.661   1.130   6.234 -0.1524 -0.2655 -0.3109
  887MOL0     C19647   4.798   1.131   6.195 -1.0122  0.0860  0.0634
  887MOL0     C19648   4.840   1.278   6.185  0.1946  0.1035 -0.7459
  887MOL0     C19649   4.959   1.288   6.095 -0.7008 -0.0318  0.4514
  887MOL0     C19650   5.012   1.431   6.061  0.6044 -0.5135 -0.6088
  887MOL0     C19651   5.150   1.445   6.004 -0.4170  0.5538  0.1109
  887MOL0     C19652   5.172   1.347   5.885  0.7989 -0.4980 -0.4127
  887MOL0     C19653   5.302   1.389   5.810 -0.4377  0.2177 -0.9250
  887MOL0     C19654   5.384   1.265   5.771 -0.6106 -0.2865  0.5544
  887MOL0    Cl19655   5.543   1.319   5.707 -0.0353 -0.2403  0.7138
  887MOL0     C19656   4.632   0.908   6.131 -0.2763 -0.2173  0.0745
  887MOL0     C19657   4.566   0.785   6.129 -0.0078  0.1110 -0.3498
  887MOL0     O19658   4.490   0.496   6.110  0.6106 -1.0691 -0.1608
  887MOL0     C19659   4.292   0.303   6.133 -0.0954 -0.2146 -0.2574
  887MOL0     C19660   4.189   0.206   6.149  0.0633  0.6314  0.1410
  887MOL0     N19661   3.701  -0.333   6.648 -0.1633  0.1589  0.0219
  887MOL0     N19662   3.709  -0.362   6.772 -0.3593  0.2594 -0.1476
  887MOL0     C19663   4.608   0.211   7.581 -1.0927 -0.8335 -0.3405
  887MOL0     C19664   4.719   0.260   7.651 -0.3306 -0.1062 -0.0876
  887MOL0     C19665   5.030   0.404   7.930  0.3409  0.2358  0.0484
  887MOL0     C19666   5.163   0.432   7.895  0.1526  0.2171  0.6517
  887MOL0     C19667   5.259   0.457   8.001  0.2325 -0.1815 -0.0168
  887MOL0     C19668   5.234   0.436   8.131  0.4497 -0.2439 -0.7895
  887MOL0     O19669   5.342   0.468   8.215  0.2644 -0.9368 -0.5326
  887MOL0     C19670   5.316   0.447   8.353 -0.3430  0.0621  0.0558
  887MOL0     C19671   5.266   0.566   8.432  0.2450  0.4202 -0.6987
  887MOL0     C19672   5.346   0.698   8.412 -0.4869 -0.6295 -0.2441
  887MOL0     C19673   5.317   0.782   8.538  0.3109 -0.4603  0.4358
  887MOL0     C19674   5.364   0.920   8.515 -1.4530  0.7242 -0.8387
  887MOL0     C19675   5.407   1.033   8.491  0.2410  0.1519 -0.3742
  887MOL0     C19676   5.102   0.403   8.171 -0.6245 -0.0062  1.1831
  887MOL0     C19677   5.005   0.386   8.072 -0.0479  0.3821 -0.5867
  887MOL0     H19678   4.570   0.344   7.940 -1.4828  1.5274  0.0024
  887MOL0     H19679   4.361   0.269   7.805 -0.3651  0.4849 -1.4047
  887MOL0     H19680   4.417   0.165   7.370  1.3871 -1.2458 -0.2546
  887MOL0     H19681   4.449   0.019   7.458  1.5859  1.8274 -2.4907
  887MOL0     H19682   4.213  -0.030   7.519  0.0798  0.2008  0.3543
  887MOL0     H19683   4.163   0.110   7.432  3.2425  3.9171  1.1747
  887MOL0     H19684   4.265   0.022   7.220 -0.8725  1.8581  0.5685
  887MOL0     H19685   4.308  -0.134   7.303 -3.2229 -2.5470  2.0370
  887MOL0     H19686   4.095  -0.204   7.344  2.7971  0.0369  0.0467
  887MOL0     H19687   4.018  -0.048   7.323 -0.7044  1.4175 -2.0410
  887MOL0     H19688   4.071  -0.060   7.079 -3.3711 -0.8570 -1.4661
  887MOL0     H19689   4.121  -0.234   7.119 -1.2341 -0.5548 -0.3997
  887MOL0     H19690   3.912  -0.287   7.189 -2.1767  1.9719  2.9902
  887MOL0     H19691   3.841  -0.125   7.188  0.4183 -0.8007  0.8141
  887MOL0     H19692   3.906  -0.122   6.940 -1.1849  0.3551  0.5990
  887MOL0     H19693   3.927  -0.298   6.949 -2.7165 -0.7691 -0.6792
  887MOL0     H19694   3.686  -0.140   7.029 -0.9991 -1.4922  0.4896
  887MOL0     H19695   3.688  -0.306   7.046 -0.9293  1.8523  1.5576
  887MOL0     H19696   3.692  -0.037   6.789  1.7013 -0.6842 -1.7044
  887MOL0     H19697   3.645  -0.182   6.425 -0.4765 -1.2773  0.5653
  887MOL0     H19698   3.612  -0.043   6.517 -0.2790 -0.5843 -0.5874
  887MOL0     H19699   3.890  -0.139   6.488 -0.8432  0.4547 -0.6460
  887MOL0     H19700   3.832   0.011   6.576 -0.2007  0.6990  0.2231
  887MOL0     H19701   3.745   0.076   6.341 -1.0643 -1.0348  1.9043
  887MOL0     H19702   3.825  -0.071   6.281  0.6858 -2.3008  2.2718
  887MOL0     H19703   4.036   0.007   6.362 -1.6761 -1.3217 -1.2380
  887MOL0     H19704   3.961   0.169   6.412  0.3175  0.1226  0.9423
  887MOL0     H19705   3.950   0.396   6.287  2.6664 -2.6506  5.3889
  887MOL0     H19706   4.131   0.670   6.201 -0.6489  0.2963 -1.1030
  887MOL0     H19707   3.992   0.617   6.302  0.2626 -0.0938  2.2332
  887MOL0     H19708   4.153   0.642   6.371  1.4427 -0.6395 -1.2183
  887MOL0     H19709   4.344   0.835   6.370  0.7480 -0.4384  0.5740
  887MOL0     H19710   4.479   1.075   6.382  2.2856 -0.3998  0.7833
  887MOL0     H19711   4.849   1.069   6.270  0.4316  1.5381  0.3250
  887MOL0     H19712   4.811   1.081   6.099 -3.2562  0.6964 -0.6331
  887MOL0     H19713   4.761   1.342   6.145 -0.9183  1.1537  2.7474
  887MOL0     H19714   4.876   1.317   6.281  1.8418 -2.3060 -0.2728
  887MOL0     H19715   4.927   1.243   6.001  0.6683 -1.3466  0.5829
  887MOL0     H19716   5.042   1.226   6.130 -2.0942 -1.8204  0.7725
  887MOL0     H19717   4.945   1.481   5.991 -0.6380 -2.3755 -0.8181
  887MOL0     H19718   5.023   1.483   6.157 -1.4557  1.2339 -1.2532
  887MOL0     H19719   5.226   1.417   6.078  2.1636  0.0344 -2.5032
  887MOL0     H19720   5.170   1.544   5.962  1.7344  0.2817  0.3576
  887MOL0     H19721   5.174   1.245   5.924 -3.5167 -0.0788  1.5094
  887MOL0     H19722   5.090   1.349   5.813  1.9510 -4.3632 -2.0483
  887MOL0     H19723   5.365   1.449   5.876 -1.9799 -2.1809  3.0512
  887MOL0     H19724   5.281   1.455   5.725 -2.8007  2.3490  1.1496
  887MOL0     H19725   5.323   1.196   5.712 -1.2889  0.2876  0.5719
  887MOL0     H19726   5.398   1.204   5.861 -1.9031 -4.2070 -1.6382
  887MOL0     H19727   4.717   0.909   6.063 -1.2731  0.3685 -1.1963
  887MOL0     H19728   4.592   0.710   6.055  1.5663  1.6133 -1.3854
  887MOL0     H19729   4.378   0.275   6.073 -1.1525 -1.5023 -1.2417
  887MOL0     H19730   4.196   0.103   6.117  0.6954  0.5990  0.3598
  887MOL0     H19731   4.631   0.174   7.481 -0.0772 -1.9809  0.2863
  887MOL0     H19732   4.817   0.264   7.605 -0.3971  0.8931 -0.1732
  887MOL0     H19733   5.195   0.446   7.792 -0.9377  2.6626  0.5800
  887MOL0     H19734   5.355   0.497   7.971 -0.5308  2.4949  0.8673
  887MOL0     H19735   5.255   0.357   8.369 -0.4561 -0.0073 -0.7242
  887MOL0     H19736   5.417   0.426   8.389 -0.2381 -0.5934 -0.6043
  887MOL0     H19737   5.274   0.536   8.537 -2.0528 -2.0900 -1.1495
  887MOL0     H19738   5.160   0.573   8.405  0.2709 -1.1538 -1.2602
  887MOL0     H19739   5.322   0.758   8.324  0.9104  0.7792  0.2938
  887MOL0     H19740   5.454   0.682   8.405 -0.5977 -2.0963  0.8140
  887MOL0     H19741   5.368   0.750   8.629  1.9327  2.5857  0.7126
  887MOL0     H19742   5.209   0.781   8.558  0.3416 -3.3754  0.8906
  887MOL0     H19743   5.436   1.134   8.474 -0.1501 -0.0928 -2.8361
  887MOL0     H19744   5.076   0.380   8.274 -2.4518  1.1805  1.0382
  887MOL0     H19745   4.905   0.359   8.106  1.0342 -1.3477  1.4888
  888MOL0     O19746   7.966   7.924   2.749  0.4489  0.3810 -0.5115
  888MOL0     C19747   7.949   7.815   2.686 -0.3987 -0.4053  0.7403
  888MOL0     O19748   7.829   7.766   2.646  0.6274 -0.4060 -0.3080
  888MOL0     C19749   7.713   7.838   2.682  0.6522  0.8919  0.3727
  888MOL0     C19750   7.673   7.953   2.610  0.0993  0.4282 -0.2484
  888MOL0     C19751   7.551   8.021   2.637 -0.3796  0.0196 -0.1054
  888MOL0     C19752   7.473   7.961   2.734  0.3523 -0.2941 -0.7597
  888MOL0     O19753   7.351   8.008   2.774  0.0826 -0.1554  0.7292
  888MOL0     C19754   7.274   8.047   2.654 -1.3380  1.0111 -0.0526
  888MOL0     C19755   7.135   8.001   2.670 -0.0374  0.7111 -0.2642
  888MOL0     C19756   7.065   8.089   2.775 -0.5290  0.2134  0.3721
  888MOL0     C19757   6.935   8.022   2.808  0.1724  0.5126 -0.0115
  888MOL0     C19758   6.876   8.069   2.938 -0.2827 -0.5886  0.3505
  888MOL0     C19759   6.791   8.192   2.913 -0.4114  0.6415  0.0307
  888MOL0     C19760   6.718   8.233   3.040  0.0113  1.2884  0.4140
  888MOL0     C19761   6.639   8.360   3.022 -0.7226  0.6445 -0.0586
  888MOL0     N19762   6.587   8.396   3.152 -0.0137 -0.7207 -0.2961
  888MOL0     C19763   6.478   8.351   3.228  0.3183  1.0870 -1.0261
  888MOL0     C19764   6.482   8.432   3.339 -0.2847  0.6068  0.2454
  888MOL0     C19765   6.410   8.393   3.464  0.3982 -0.1979 -0.1468
  888MOL0     C19766   6.461   8.267   3.534 -0.8802  0.0724  0.4269
  888MOL0     C19767   6.455   8.267   3.687  0.3399  0.9451  0.1762
  888MOL0     C19768   6.320   8.248   3.751  0.4493  0.2318 -0.1919
  888MOL0     O19769   6.236   8.350   3.706 -0.1726 -0.4168  0.0971
  888MOL0     C19770   6.109   8.356   3.748  0.2754 -0.0103 -0.8083
  888MOL0     C19771   6.060   8.286   3.862  0.1619  0.6451  0.0302
  888MOL0     C19772   5.920   8.287   3.904 -0.5147 -0.1118 -1.5072
  888MOL0     C19773   5.882   8.196   4.017 -0.4900 -0.3367  0.2612
  888MOL0     C19774   5.831   8.353   3.822  0.1606  0.6388 -0.1493
  888MOL0     C19775   5.691   8.371   3.850  0.2015  0.0108 -0.3775
  888MOL0     O19776   5.607   8.364   3.741  0.4675 -0.2944 -0.7360
  888MOL0     C19777   5.474   8.381   3.776  0.8653  0.7525  0.4028
  888MOL0     C19778   5.415   8.504   3.744  0.0593 -0.3211 -0.2746
  888MOL0     C19779   5.278   8.530   3.771  0.2972  0.4905 -0.1957
  888MOL0     C19780   5.196   8.424   3.818 -0.6251  0.6470 -0.4165
  888MOL0     O19781   5.066   8.443   3.820  0.5495 -0.6258 -0.0480
  888MOL0     C19782   5.013   8.531   3.924 -0.3213  0.1363 -0.3417
  888MOL0     C19783   4.868   8.547   3.908 -0.3151  0.0188  0.3219
  888MOL0     C19784   4.788   8.440   3.987 -0.1882  0.2910 -0.6531
  888MOL0     C19785   4.646   8.490   4.015 -1.6008  0.2131 -0.3343
  888MOL0     C19786   4.551   8.410   4.105  0.1508  0.0588 -0.6806
  888MOL0     C19787   4.599   8.410   4.249 -0.0793  0.5225  0.1674
  888MOL0     C19788   4.553   8.526   4.325 -0.7851 -1.1036  0.5223
  888MOL0     C19789   4.410   8.531   4.379  0.1578 -1.3322 -0.4418
  888MOL0    Cl19790   4.355   8.682   4.471  0.3331  0.2322  0.0443
  888MOL0     C19791   5.253   8.296   3.841  0.2146  0.3965 -0.1774
  888MOL0     C19792   5.387   8.276   3.820 -0.5313  0.2450 -0.3623
  888MOL0     O19793   5.644   8.393   3.966  0.5912  0.1352 -0.7596
  888MOL0     C19794   5.880   8.417   3.703 -0.3063 -0.4734 -0.3755
  888MOL0     C19795   6.014   8.418   3.676 -0.7834  0.5186 -0.2917
  888MOL0     N19796   6.579   8.529   3.323  0.0720  0.5020 -1.1526
  888MOL0     N19797   6.643   8.507   3.213 -0.9101  0.6153 -0.3620
  888MOL0     C19798   7.508   7.841   2.798  0.5623  0.3310  0.8287
  888MOL0     C19799   7.634   7.778   2.778  0.0237  0.2779 -0.0816
  888MOL0     C19800   8.071   7.733   2.650  0.3445 -0.4434 -0.2403
  888MOL0     C19801   8.200   7.798   2.651 -0.4221  0.8828 -0.1187
  888MOL0     C19802   8.311   7.714   2.624 -0.0525  0.2462 -0.9940
  888MOL0     C19803   8.297   7.576   2.594 -0.7940  0.0485 -1.0327
  888MOL0     O19804   8.403   7.490   2.557  0.5964  0.4310  0.4712
  888MOL0     C19805   8.514   7.544   2.485 -0.4000 -0.1242 -0.3470
  888MOL0     C19806   8.572   7.438   2.385 -0.1523 -0.1720  0.2208
  888MOL0     C19807   8.472   7.358   2.304 -0.0324 -0.6883  0.7233
  888MOL0     C19808   8.340   7.441   2.265 -1.2777 -0.5869 -0.2217
  888MOL0     C19809   8.266   7.373   2.157 -0.8543 -0.3479 -0.8244
  888MOL0     C19810   8.190   7.321   2.083  1.0707  0.2531  0.0162
  888MOL0     C19811   8.167   7.520   2.602  0.5630 -0.0481  0.3013
  888MOL0     C19812   8.056   7.598   2.619  0.1613  0.0383 -0.1311
  888MOL0     H19813   7.742   7.995   2.537  1.2684 -0.6850  0.1766
  888MOL0     H19814   7.530   8.109   2.576 -2.0687  2.6822  3.8884
  888MOL0     H19815   7.270   8.156   2.645  0.0051  1.0156 -0.9102
  888MOL0     H19816   7.317   8.001   2.565 -0.4415 -0.7216  1.2054
  888MOL0     H19817   7.070   8.008   2.582 -0.1144 -1.7913 -0.4791
  888MOL0     H19818   7.128   7.899   2.709  1.2886  0.8077  0.2740
  888MOL0     H19819   7.116   8.107   2.869 -2.0349  1.5958  0.9805
  888MOL0     H19820   7.056   8.190   2.732 -2.9272  0.3457  1.0364
  888MOL0     H19821   6.869   8.029   2.721 -1.8465  2.4848  1.5524
  888MOL0     H19822   6.950   7.916   2.830  0.2844  0.7053  0.8922
  888MOL0     H19823   6.819   7.992   2.990 -0.1536  1.1299  3.2430
  888MOL0     H19824   6.960   8.087   3.005  1.7154 -2.4482 -1.4561
  888MOL0     H19825   6.851   8.273   2.871 -2.9308  2.3445 -0.5076
  888MOL0     H19826   6.713   8.168   2.841  0.9142  0.6398 -1.4530
  888MOL0     H19827   6.645   8.159   3.072 -0.5495  2.0543  0.9287
  888MOL0     H19828   6.791   8.241   3.122 -1.3967 -1.3187  2.0497
  888MOL0     H19829   6.561   8.334   2.950  0.3818 -3.1338 -0.0947
  888MOL0     H19830   6.710   8.434   2.985 -1.7087  1.9272  0.5246
  888MOL0     H19831   6.419   8.260   3.219  0.1188  1.1534 -0.4425
  888MOL0     H19832   6.421   8.474   3.537  0.3345 -1.2429  1.0608
  888MOL0     H19833   6.308   8.376   3.430  0.5658 -0.9427 -0.2921
  888MOL0     H19834   6.565   8.263   3.500 -1.7722  2.2495 -3.0690
  888MOL0     H19835   6.415   8.177   3.492 -0.4002  0.5785 -1.2710
  888MOL0     H19836   6.498   8.356   3.734 -0.6933  1.6299 -0.1498
  888MOL0     H19837   6.518   8.186   3.725 -0.0810  1.5935  2.4491
  888MOL0     H19838   6.335   8.254   3.859 -0.0499  1.4993 -0.1642
  888MOL0     H19839   6.279   8.159   3.702  0.0510 -0.1720  0.8582
  888MOL0     H19840   6.131   8.239   3.929 -0.2418  1.1960  0.8727
  888MOL0     H19841   5.774   8.178   4.016 -0.8808  1.7048  1.1133
  888MOL0     H19842   5.936   8.101   4.014  0.0383 -0.0889  1.3819
  888MOL0     H19843   5.912   8.247   4.109  2.1317  1.2152 -1.3383
  888MOL0     H19844   5.479   8.582   3.704 -1.5498  1.1016 -0.1652
  888MOL0     H19845   5.234   8.624   3.739 -2.9076  0.0603  2.4030
  888MOL0     H19846   5.031   8.488   4.022  2.2390 -1.1567 -1.2911
  888MOL0     H19847   5.063   8.628   3.932  0.6318 -0.4651  1.4110
  888MOL0     H19848   4.862   8.646   3.954  1.6764  0.1091  0.4780
  888MOL0     H19849   4.838   8.543   3.803 -0.5352  3.2427  0.1653
  888MOL0     H19850   4.839   8.435   4.084 -0.8508  4.2520  0.0756
  888MOL0     H19851   4.793   8.342   3.939  0.3337 -0.4410  0.8217
  888MOL0     H19852   4.648   8.596   4.042  0.5687  0.1671 -0.1108
  888MOL0     H19853   4.589   8.495   3.921 -1.0061  3.0740 -0.6619
  888MOL0     H19854   4.553   8.309   4.062  0.0223  0.1142 -0.8140
  888MOL0     H19855   4.448   8.446   4.104 -0.1258 -0.6696  0.0998
  888MOL0     H19856   4.570   8.318   4.302  0.0200  1.8830  2.7841
  888MOL0     H19857   4.707   8.408   4.266 -0.2629  1.0041  1.5571
  888MOL0     H19858   4.581   8.618   4.273  1.7887  0.6954  4.6074
  888MOL0     H19859   4.615   8.524   4.415 -1.4458  2.0802  1.1726
  888MOL0     H19860   4.394   8.443   4.442  0.0903  0.1990  1.7610
  888MOL0     H19861   4.338   8.514   4.299 -0.2476 -1.1009 -0.1270
  888MOL0     H19862   5.191   8.213   3.872 -0.5380 -0.3771 -3.4405
  888MOL0     H19863   5.438   8.186   3.853 -0.0166  1.3362  2.0485
  888MOL0     H19864   5.815   8.468   3.633 -0.8139 -1.0952 -0.3705
  888MOL0     H19865   6.045   8.486   3.597 -1.3956  0.0306 -0.9581
  888MOL0     H19866   7.433   7.794   2.860 -2.0168 -0.2463 -2.4113
  888MOL0     H19867   7.668   7.690   2.831  0.2653  1.0348  1.0449
  888MOL0     H19868   8.204   7.903   2.676 -4.1976  1.1952 -0.2909
  888MOL0     H19869   8.412   7.755   2.615  0.1473  0.4668  1.6284
  888MOL0     H19870   8.467   7.627   2.432  1.0185  0.5641 -0.5709
  888MOL0     H19871   8.600   7.578   2.543  1.0909  0.9415 -3.0075
  888MOL0     H19872   8.622   7.360   2.442 -0.3733 -0.4852 -0.0126
  888MOL0     H19873   8.649   7.489   2.326  0.3022 -0.6706  0.3817
  888MOL0     H19874   8.428   7.273   2.358  0.2939 -0.2986  1.6197
  888MOL0     H19875   8.531   7.330   2.217 -0.3600 -1.4553  0.7397
  888MOL0     H19876   8.368   7.535   2.217 -2.8417  1.3710  2.4253
  888MOL0     H19877   8.284   7.464   2.356 -1.9069 -1.2906 -0.4199
  888MOL0     H19878   8.106   7.279   2.031 -0.7994 -2.5301  4.6436
  888MOL0     H19879   8.158   7.412   2.590  1.4153 -0.0507 -0.3857
  888MOL0     H19880   7.962   7.548   2.639 -0.9579  1.8491 -0.6758
  889MOL0     O19881   5.661   6.705   9.194  0.3298  0.5269  0.0951
  889MOL0     C19882   5.767   6.731   9.247  1.2411  0.2069 -0.1584
  889MOL0     O19883   5.768   6.783   9.369  0.5719 -1.5732  0.4144
  889MOL0     C19884   5.646   6.780   9.444 -0.4692 -0.0828 -0.2533
  889MOL0     C19885   5.634   6.693   9.553  0.2040  0.3357  0.2269
  889MOL0     C19886   5.513   6.671   9.618  0.3744  0.1366 -0.0016
  889MOL0     C19887   5.405   6.752   9.582 -0.1227 -0.0146 -0.8393
  889MOL0     O19888   5.283   6.743   9.651  0.3771  0.5964  0.0851
  889MOL0     C19889   5.176   6.832   9.636 -0.0663 -0.1700  0.4123
  889MOL0     C19890   5.056   6.801   9.724 -0.9258 -0.7098  0.4972
  889MOL0     C19891   4.915   6.852   9.672  0.9860  0.2088 -0.9133
  889MOL0     C19892   4.875   6.985   9.733 -0.0601 -0.2332 -0.1836
  889MOL0     C19893   4.723   7.003   9.737  0.6589 -0.6925  0.1697
  889MOL0     C19894   4.654   6.932   9.857 -0.5187  0.1492 -0.1790
  889MOL0     C19895   4.503   6.971   9.862 -0.5996 -1.3498  0.5739
  889MOL0     C19896   4.431   6.914   9.983  0.4482 -0.3675 -0.6278
  889MOL0     N19897   4.281   6.942   9.989 -0.1072 -0.3115 -0.1919
  889MOL0     C19898   4.236   7.072  10.007  0.2307 -0.3386  0.2850
  889MOL0     C19899   4.101   7.056  10.018  0.3122 -0.5566 -0.1770
  889MOL0     C19900   3.996   7.168  10.040 -0.2827  0.8944  0.0740
  889MOL0     C19901   3.865   7.120   9.989 -0.7961  0.0507 -0.3255
  889MOL0     C19902   3.758   7.232  10.015  0.1245  0.4127  0.3637
  889MOL0     C19903   3.614   7.192   9.991  0.3334  0.6006  0.4510
  889MOL0     O19904   3.592   7.183   9.851 -0.1716 -0.1698 -0.8185
  889MOL0     C19905   3.489   7.108   9.809 -0.1976  0.2895  0.3226
  889MOL0     C19906   3.483   7.082   9.673  0.5300 -0.6070  0.5791
  889MOL0     C19907   3.369   7.015   9.608  1.0582  0.0011 -0.1782
  889MOL0     C19908   3.367   7.005   9.456 -0.2555  0.4037 -0.5553
  889MOL0     C19909   3.264   6.961   9.685 -0.4890 -0.1182  0.1973
  889MOL0     C19910   3.149   6.879   9.637  0.7079  0.9878 -0.2683
  889MOL0     O19911   3.074   6.809   9.734 -0.0513  0.4816 -0.5162
  889MOL0     C19912   2.969   6.736   9.684  0.6121 -0.0819  0.5582
  889MOL0     C19913   2.982   6.607   9.620  0.3361 -0.6400 -0.4014
  889MOL0     C19914   2.873   6.541   9.562 -0.5729 -0.4105 -0.2724
  889MOL0     C19915   2.746   6.586   9.587 -0.0666  0.8233  0.2044
  889MOL0     O19916   2.633   6.508   9.542  0.2351 -0.1801 -0.1331
  889MOL0     C19917   2.653   6.377   9.476 -0.2252  0.3529  0.2118
  889MOL0     C19918   2.524   6.301   9.460 -0.8832  0.1580 -0.4092
  889MOL0     C19919   2.408   6.392   9.401 -0.0844 -0.4219 -1.0241
  889MOL0     C19920   2.279   6.314   9.388 -0.3887 -0.5413 -0.4305
  889MOL0     C19921   2.160   6.392   9.343 -0.5792 -0.4201 -0.0006
  889MOL0     C19922   2.034   6.320   9.320  0.1220  0.3884 -0.2626
  889MOL0     C19923   1.941   6.399   9.230 -0.1260  0.7093  0.1992
  889MOL0     C19924   1.799   6.354   9.233  0.2436  0.8642  0.0059
  889MOL0    Cl19925   1.774   6.175   9.226  0.4969 -0.5512  0.2265
  889MOL0     C19926   2.732   6.714   9.651 -0.8475 -1.1779  0.1416
  889MOL0     C19927   2.841   6.786   9.702  0.6169  1.4753  0.9231
  889MOL0     O19928   3.124   6.882   9.514  0.8338  0.4090  0.2210
  889MOL0     C19929   3.280   6.979   9.830  0.5374  0.8160  0.1118
  889MOL0     C19930   3.383   7.061   9.889 -0.1042  0.0060 -0.0192
  889MOL0     N19931   4.070   6.922   9.987 -0.1199 -0.2957  0.0703
  889MOL0     N19932   4.176   6.857   9.977  0.1257  0.1512 -0.3169
  889MOL0     C19933   5.422   6.847   9.488  0.0402 -1.1580  0.9990
  889MOL0     C19934   5.536   6.863   9.416  0.1916  0.5218 -0.0036
  889MOL0     C19935   5.894   6.702   9.185  0.3118  0.1581  0.5467
  889MOL0     C19936   5.889   6.647   9.054 -0.1478  0.1901  0.3521
  889MOL0     C19937   6.006   6.648   8.975 -0.3204  0.1418 -0.2627
  889MOL0     C19938   6.128   6.703   9.028  0.4184 -1.0061  0.2255
  889MOL0     O19939   6.242   6.723   8.958 -0.2761 -0.1477 -0.3184
  889MOL0     C19940   6.267   6.679   8.823 -0.0307  0.9430  0.1131
  889MOL0     C19941   6.406   6.722   8.780 -0.2241 -0.1911  0.6016
  889MOL0     C19942   6.405   6.694   8.634 -0.1943  0.0095  0.6061
  889MOL0     C19943   6.545   6.680   8.587  0.3578  1.0185  0.9513
  889MOL0     C19944   6.637   6.786   8.622  0.2126  0.0091  0.1039
  889MOL0     C19945   6.716   6.872   8.663  0.0448 -0.7561  0.2804
  889MOL0     C19946   6.129   6.752   9.159  0.3119 -0.2382 -0.7004
  889MOL0     C19947   6.010   6.759   9.232 -0.2031 -0.5673 -0.0867
  889MOL0     H19948   5.722   6.634   9.576 -0.7920 -0.8685  1.0666
  889MOL0     H19949   5.498   6.592   9.690 -0.5893 -0.0126 -0.3511
  889MOL0     H19950   5.211   6.931   9.668  0.3067 -0.1506 -0.0352
  889MOL0     H19951   5.147   6.852   9.533  3.3647  0.4594 -0.5737
  889MOL0     H19952   5.041   6.693   9.719 -0.1665 -0.9101  2.1569
  889MOL0     H19953   5.075   6.827   9.828 -0.3787  0.6194  0.0881
  889MOL0     H19954   4.912   6.855   9.562 -1.0413 -1.2288 -0.9500
  889MOL0     H19955   4.840   6.775   9.692  1.6709  0.3366  2.7508
  889MOL0     H19956   4.910   6.996   9.836 -0.5793 -0.2706 -0.0044
  889MOL0     H19957   4.928   7.070   9.687 -0.1452 -0.4369 -0.6648
  889MOL0     H19958   4.707   7.111   9.746 -1.3017 -0.4403 -3.8122
  889MOL0     H19959   4.673   6.976   9.643  1.6008 -2.3507  0.1131
  889MOL0     H19960   4.663   6.823   9.848 -2.8565 -0.0101 -1.1365
  889MOL0     H19961   4.711   6.953   9.948  0.1726 -0.8564 -0.3633
  889MOL0     H19962   4.510   7.081   9.866  2.2469 -1.4806  3.3617
  889MOL0     H19963   4.450   6.942   9.771 -1.7202  0.5105  0.5789
  889MOL0     H19964   4.477   6.948  10.077  0.5352 -1.5916 -0.2022
  889MOL0     H19965   4.436   6.804   9.987 -1.3195 -0.4976  3.1255
  889MOL0     H19966   4.293   7.163  10.022 -0.5965  0.6408 -1.9976
  889MOL0     H19967   3.996   7.184  10.149  0.8291  0.7427  0.1084
  889MOL0     H19968   4.022   7.262   9.990 -1.2904  0.9712 -0.3325
  889MOL0     H19969   3.844   7.026  10.040 -0.2574 -0.7129 -1.4526
  889MOL0     H19970   3.866   7.085   9.885 -0.0878  0.2907 -0.4026
  889MOL0     H19971   3.783   7.323   9.961 -2.8166 -0.8672 -3.6482
  889MOL0     H19972   3.754   7.261  10.121 -0.3245 -2.0032  1.0743
  889MOL0     H19973   3.554   7.267  10.043  1.4591 -0.3644  3.3306
  889MOL0     H19974   3.598   7.093  10.033  1.5349 -2.0130 -4.4336
  889MOL0     H19975   3.553   7.120   9.599 -0.0602 -2.4715 -1.0149
  889MOL0     H19976   3.384   6.903   9.418 -1.2489  0.1735 -0.4095
  889MOL0     H19977   3.284   7.059   9.409 -1.6300 -0.6861  0.5136
  889MOL0     H19978   3.454   7.056   9.416 -2.5156  1.3580 -4.8706
  889MOL0     H19979   3.078   6.561   9.600  0.0139 -1.3845 -0.2596
  889MOL0     H19980   2.893   6.446   9.513 -1.5097 -0.7755  0.0393
  889MOL0     H19981   2.683   6.406   9.375 -4.4997  4.6089 -0.1931
  889MOL0     H19982   2.724   6.311   9.526 -1.2135 -0.4184  0.6284
  889MOL0     H19983   2.542   6.217   9.392  0.0055 -1.5838  1.8480
  889MOL0     H19984   2.491   6.264   9.557 -0.7886  2.6037  0.6240
  889MOL0     H19985   2.443   6.436   9.308 -2.0908 -0.1632 -1.7158
  889MOL0     H19986   2.389   6.479   9.465  0.9171  0.0313 -1.3319
  889MOL0     H19987   2.309   6.240   9.314 -0.0723  1.1710 -2.0887
  889MOL0     H19988   2.248   6.258   9.477  0.1404  1.2379  0.9239
  889MOL0     H19989   2.196   6.450   9.257  0.1917  0.5075  0.9049
  889MOL0     H19990   2.136   6.460   9.426 -0.1510 -3.5263  2.8542
  889MOL0     H19991   2.047   6.221   9.274  0.8088 -1.4010  3.4585
  889MOL0     H19992   1.974   6.302   9.409  0.5535  0.3768  0.0285
  889MOL0     H19993   1.966   6.383   9.125  1.3266 -0.8976  0.7320
  889MOL0     H19994   1.956   6.505   9.250  0.3197  0.1426  3.5333
  889MOL0     H19995   1.755   6.396   9.142  1.2049  2.7038  0.3393
  889MOL0     H19996   1.753   6.396   9.323  1.1940 -2.4137  2.1550
  889MOL0     H19997   2.632   6.750   9.670 -0.8636 -0.6988 -0.8092
  889MOL0     H19998   2.809   6.872   9.761 -2.3511 -0.5721  2.5087
  889MOL0     H19999   3.203   6.943   9.898  1.7147  1.0546  1.6122
  889MOL0     H20000   3.380   7.079   9.996 -0.1000 -3.3163  0.6530
  889MOL0     H20001   5.344   6.906   9.441  0.8847  0.3828  1.4429
  889MOL0     H20002   5.558   6.936   9.338 -1.9656  0.6808 -0.5029
  889MOL0     H20003   5.789   6.631   9.014 -0.5580 -2.2865  2.1579
  889MOL0     H20004   6.004   6.615   8.872  0.6956 -1.9492  0.3247
  889MOL0     H20005   6.271   6.571   8.807  2.5860  0.9736  0.1648
  889MOL0     H20006   6.196   6.720   8.751  1.6499  0.8465 -1.6635
  889MOL0     H20007   6.484   6.662   8.830  1.5849  1.5472  0.0031
  889MOL0     H20008   6.413   6.828   8.807  1.9944 -0.0443 -0.3028
  889MOL0     H20009   6.348   6.768   8.578  3.1691  0.5882 -2.3676
  889MOL0     H20010   6.352   6.600   8.612  0.1973  0.6982 -4.4684
  889MOL0     H20011   6.534   6.656   8.480 -0.7656 -2.5188  1.7387
  889MOL0     H20012   6.593   6.596   8.637  1.1644  0.8597 -0.0333
  889MOL0     H20013   6.768   6.948   8.718 -1.2125  1.6529 -1.6781
  889MOL0     H20014   6.222   6.793   9.197 -0.4318  0.1661  0.7233
  889MOL0     H20015   6.009   6.807   9.329  0.7897 -2.8793  1.1674
  890MOL0     O20016   2.133   3.162   9.823 -0.2120 -1.2638  0.5344
  890MOL0     C20017   2.089   3.274   9.851 -0.5765 -0.1464 -0.4803
  890MOL0     O20018   1.964   3.302   9.857  0.5976 -0.1146  0.6196
  890MOL0     C20019   1.858   3.215   9.849 -0.0080 -0.0624  0.5420
  890MOL0     C20020   1.735   3.272   9.848 -0.3208  0.2669  0.3887
  890MOL0     C20021   1.621   3.194   9.874 -0.1524  0.1898  0.2250
  890MOL0     C20022   1.625   3.054   9.883 -0.3588  0.2745  0.5366
  890MOL0     O20023   1.512   2.984   9.905 -0.2157  0.6074 -0.5134
  890MOL0     C20024   1.408   2.980   9.806  0.2516 -0.5664 -0.3287
  890MOL0     C20025   1.406   2.854   9.719 -0.1436  0.2949  0.8720
  890MOL0     C20026   1.296   2.857   9.599 -0.4224 -0.8668 -0.5468
  890MOL0     C20027   1.345   2.938   9.477 -0.3365  0.6852 -0.2749
  890MOL0     C20028   1.233   2.928   9.370  0.1968  0.0570  0.8295
  890MOL0     C20029   1.217   2.794   9.296 -0.1875 -0.4684 -0.5636
  890MOL0     C20030   1.092   2.784   9.204 -0.2245  0.1133  0.0912
  890MOL0     C20031   0.965   2.780   9.282  0.8367 -0.2134  0.4374
  890MOL0     N20032   0.844   2.751   9.196  0.2253 -0.2841  0.4240
  890MOL0     C20033   0.752   2.647   9.219 -0.9109 -0.1792 -0.0297
  890MOL0     C20034   0.677   2.638   9.103  0.1180 -0.3614 -0.1497
  890MOL0     C20035   0.564   2.543   9.072 -0.4219  0.8245  0.4090
  890MOL0     C20036   0.433   2.617   9.086 -0.1369  0.2113 -0.8466
  890MOL0     C20037   0.316   2.538   9.030 -0.4344  0.1373  0.2161
  890MOL0     C20038   0.180   2.595   9.052  0.8633  0.6993 -0.1581
  890MOL0     O20039   0.093   2.498   9.002  0.8302  0.0374 -0.1381
  890MOL0     C20040  -0.030   2.499   9.076  0.3001 -0.1855  1.0268
  890MOL0     C20041  -0.029   2.449   9.204  0.4898 -0.7924  0.3483
  890MOL0     C20042  -0.142   2.463   9.285  0.0754 -0.0400 -0.1486
  890MOL0     C20043  -0.136   2.402   9.426 -0.3033  0.1381  0.2554
  890MOL0     C20044  -0.262   2.510   9.221 -0.1227 -0.4382  0.7068
  890MOL0     C20045  -0.396   2.518   9.290  0.6597  0.0351 -0.4039
  890MOL0     O20046  -0.408   2.466   9.415 -0.4398 -0.5843  0.2615
  890MOL0     C20047  -0.523   2.414   9.458 -0.0674  0.4139  0.9355
  890MOL0     C20048  -0.583   2.459   9.573  0.4699  0.4834  0.1803
  890MOL0     C20049  -0.713   2.416   9.618  0.0439 -0.6702  0.0967
  890MOL0     C20050  -0.784   2.322   9.548 -0.5308 -0.3067 -1.1109
  890MOL0     O20051  -0.909   2.279   9.587  0.4161  0.1027 -0.1409
  890MOL0     C20052  -1.002   2.259   9.482  0.8021  0.3756  0.9156
  890MOL0     C20053  -1.146   2.270   9.545 -0.8933  0.6493  0.3066
  890MOL0     C20054  -1.267   2.213   9.467  0.7473  0.4528  0.1248
  890MOL0     C20055  -1.395   2.202   9.553  0.3418  0.0504 -0.1537
  890MOL0     C20056  -1.532   2.181   9.473 -0.0633 -0.3756 -1.0312
  890MOL0     C20057  -1.609   2.055   9.522 -0.2156 -0.1440 -0.2980
  890MOL0     C20058  -1.543   1.926   9.492 -0.4707  0.5319 -0.5618
  890MOL0     C20059  -1.631   1.806   9.530  0.2017 -0.2425  0.0248
  890MOL0    Cl20060  -1.761   1.785   9.402 -0.3274  0.6083  0.3403
  890MOL0     C20061  -0.723   2.279   9.429  0.2129 -0.0819  0.2380
  890MOL0     C20062  -0.604   2.320   9.384  0.3039 -0.1849 -0.4892
  890MOL0     O20063  -0.489   2.561   9.219  0.4099 -0.1663 -0.1580
  890MOL0     C20064  -0.257   2.557   9.087 -0.8258  0.6048  0.2826
  890MOL0     C20065  -0.139   2.560   9.016  1.1562  0.2391  0.2914
  890MOL0     N20066   0.723   2.742   9.016  0.2013 -0.5136  0.4985
  890MOL0     N20067   0.827   2.799   9.068  0.9658 -0.6486  0.7332
  890MOL0     C20068   1.750   2.990   9.875  0.0845  0.7094  0.2615
  890MOL0     C20069   1.860   3.073   9.859 -1.0328  1.2626  0.2360
  890MOL0     C20070   2.194   3.380   9.866 -1.5775  0.4543  0.6178
  890MOL0     C20071   2.158   3.511   9.898  0.6007 -0.8723  0.2354
  890MOL0     C20072   2.250   3.616   9.899 -0.0273 -0.6007 -1.1794
  890MOL0     C20073   2.384   3.601   9.859 -0.4331 -0.6846  0.0250
  890MOL0     O20074   2.475   3.703   9.874 -0.2841 -0.1086  0.0533
  890MOL0     C20075   2.594   3.704   9.791 -0.3472  0.1434  0.3405
  890MOL0     C20076   2.712   3.643   9.858 -0.0627 -0.3753  0.4299
  890MOL0     C20077   2.843   3.713   9.824  0.0375  0.2643 -0.1922
  890MOL0     C20078   2.851   3.783   9.690 -0.1226  0.0590 -0.7211
  890MOL0     C20079   2.985   3.780   9.634 -0.2488  0.0957 -0.3756
  890MOL0     C20080   3.098   3.771   9.598 -0.0126  1.2980  0.3797
  890MOL0     C20081   2.422   3.472   9.817  0.9725 -0.5478 -0.9618
  890MOL0     C20082   2.329   3.365   9.822  0.2267  0.6660 -0.6599
  890MOL0     H20083   1.731   3.380   9.835 -2.4794  0.4966  2.3380
  890MOL0     H20084   1.520   3.233   9.884 -0.3447  0.1352 -1.2585
  890MOL0     H20085   1.318   2.987   9.868 -0.1611 -0.6790 -0.9063
  890MOL0     H20086   1.415   3.063   9.735  1.7996 -1.4967 -1.3499
  890MOL0     H20087   1.507   2.833   9.681 -1.0017 -1.0220 -0.8450
  890MOL0     H20088   1.381   2.769   9.783 -0.2269 -1.7196 -1.6389
  890MOL0     H20089   1.267   2.758   9.564 -1.2607  0.0388 -2.6171
  890MOL0     H20090   1.207   2.899   9.646  0.5084 -2.1942  2.6134
  890MOL0     H20091   1.357   3.042   9.508 -0.4786  0.6811 -0.2061
  890MOL0     H20092   1.439   2.904   9.432 -0.6454  2.0200 -2.0469
  890MOL0     H20093   1.136   2.964   9.405 -0.4553 -0.8411 -0.0069
  890MOL0     H20094   1.272   2.997   9.294 -1.0701 -2.0625 -1.9173
  890MOL0     H20095   1.306   2.788   9.233  0.2387 -0.4048  0.0226
  890MOL0     H20096   1.218   2.711   9.366 -1.5981 -1.7276 -1.9591
  890MOL0     H20097   1.094   2.871   9.137 -0.0025 -2.0102 -2.9082
  890MOL0     H20098   1.102   2.690   9.147 -0.5577 -1.5836  2.6658
  890MOL0     H20099   0.942   2.874   9.334 -1.5024  0.8745 -2.2892
  890MOL0     H20100   0.968   2.704   9.360  1.2881 -2.1022 -1.3259
  890MOL0     H20101   0.746   2.587   9.309  1.4267 -1.8413 -0.8664
  890MOL0     H20102   0.568   2.509   8.968  1.0815  0.1276  0.6620
  890MOL0     H20103   0.573   2.455   9.137  1.8739  0.5112 -0.2370
  890MOL0     H20104   0.435   2.720   9.048  3.2183  2.1495  3.7072
  890MOL0     H20105   0.410   2.625   9.192  1.6397 -1.1885 -0.3179
  890MOL0     H20106   0.319   2.440   9.078 -0.8323  0.3710  0.7201
  890MOL0     H20107   0.315   2.526   8.921  1.6649 -0.9650  0.2764
  890MOL0     H20108   0.169   2.696   9.011  0.8392  1.5075  1.7272
  890MOL0     H20109   0.176   2.605   9.161  1.0553 -0.9749  0.0179
  890MOL0     H20110   0.063   2.408   9.246  1.1524  0.5233  0.2442
  890MOL0     H20111  -0.171   2.461   9.512 -1.1919 -3.0298  2.2535
  890MOL0     H20112  -0.185   2.305   9.434  0.3037 -0.0347  3.6686
  890MOL0     H20113  -0.029   2.388   9.449 -0.4309 -0.2060  0.6552
  890MOL0     H20114  -0.531   2.530   9.637  0.5315  0.6900 -0.0972
  890MOL0     H20115  -0.764   2.449   9.708 -3.2825  0.6117 -2.0539
  890MOL0     H20116  -0.973   2.331   9.405  2.2620 -1.3597 -0.2362
  890MOL0     H20117  -1.003   2.156   9.447  1.5411  0.1195  1.6181
  890MOL0     H20118  -1.144   2.218   9.641  2.3607  1.3222  0.7403
  890MOL0     H20119  -1.158   2.377   9.564 -3.3924  0.4192  0.3083
  890MOL0     H20120  -1.249   2.111   9.431 -0.8010 -0.4025  1.6252
  890MOL0     H20121  -1.285   2.277   9.380  2.3731  0.8654  0.0672
  890MOL0     H20122  -1.376   2.122   9.625 -1.7740  0.1144  0.5496
  890MOL0     H20123  -1.395   2.296   9.608  2.6204  1.1141 -1.8202
  890MOL0     H20124  -1.517   2.180   9.364 -0.2446 -0.2347 -1.0566
  890MOL0     H20125  -1.601   2.262   9.496 -2.3105 -2.1656 -1.1604
  890MOL0     H20126  -1.635   2.066   9.628 -1.2633  1.5687 -0.6880
  890MOL0     H20127  -1.699   2.046   9.461  0.9367 -1.4706 -1.8991
  890MOL0     H20128  -1.443   1.915   9.536 -2.1665 -2.8641  3.0615
  890MOL0     H20129  -1.533   1.917   9.384 -1.5325 -2.2556 -0.5218
  890MOL0     H20130  -1.673   1.821   9.630  1.7540  1.8411  0.4317
  890MOL0     H20131  -1.569   1.716   9.537  0.2824 -0.2195 -0.3866
  890MOL0     H20132  -0.774   2.206   9.368  0.6526 -0.1032 -0.1095
  890MOL0     H20133  -0.578   2.291   9.283 -0.4790 -0.2863 -0.6667
  890MOL0     H20134  -0.339   2.608   9.037 -0.5877  1.5175  0.8105
  890MOL0     H20135  -0.137   2.615   8.922 -1.6373 -0.2696 -0.1658
  890MOL0     H20136   1.762   2.882   9.873 -2.9377  0.3034 -0.5537
  890MOL0     H20137   1.952   3.016   9.867 -1.0533  1.0405 -0.9029
  890MOL0     H20138   2.062   3.533   9.942  0.6672  0.8623 -0.4159
  890MOL0     H20139   2.214   3.714   9.928  0.3965 -0.4278 -1.2325
  890MOL0     H20140   2.574   3.658   9.693  3.0992 -1.2557  0.1345
  890MOL0     H20141   2.606   3.812   9.787  0.4357  0.0799  0.7331
  890MOL0     H20142   2.725   3.540   9.822 -0.5318 -0.4559  0.4906
  890MOL0     H20143   2.702   3.626   9.965  3.1164  2.3488  1.3409
  890MOL0     H20144   2.910   3.627   9.815  1.7753  1.4809  0.6337
  890MOL0     H20145   2.885   3.774   9.904  1.7944  2.1379 -2.3810
  890MOL0     H20146   2.827   3.889   9.703  2.1016  0.4855  0.3839
  890MOL0     H20147   2.778   3.739   9.622  0.4319 -2.8370  0.3888
  890MOL0     H20148   3.192   3.757   9.550 -0.5219 -0.1678 -0.2556
  890MOL0     H20149   2.521   3.454   9.776 -1.0456 -1.8607 -5.9413
  890MOL0     H20150   2.374   3.271   9.795 -0.5378  0.3945 -1.0023
  891MOL0     O20151   8.922   3.427   3.883 -0.0746  0.1668 -0.5108
  891MOL0     C20152   8.974   3.482   3.976  0.2571  0.1123 -0.1419
  891MOL0     O20153   8.920   3.533   4.086  0.0109 -0.4559  0.2222
  891MOL0     C20154   8.782   3.513   4.107 -0.4776 -0.1272  0.7737
  891MOL0     C20155   8.694   3.564   4.010  0.2550  0.0195  0.8621
  891MOL0     C20156   8.555   3.556   4.038  0.2023 -0.7702  0.0494
  891MOL0     C20157   8.506   3.507   4.158  0.3138 -0.3202 -0.3526
  891MOL0     O20158   8.364   3.506   4.174 -0.6595 -0.4463  0.5900
  891MOL0     C20159   8.332   3.568   4.293  0.0467  0.2146 -1.0647
  891MOL0     C20160   8.188   3.615   4.279  0.4364  0.0606 -0.3724
  891MOL0     C20161   8.147   3.719   4.379  0.1914  0.2495 -0.4795
  891MOL0     C20162   7.992   3.711   4.391 -0.9792 -0.3946  0.2053
  891MOL0     C20163   7.931   3.742   4.258  0.9281  0.2459  1.0291
  891MOL0     C20164   7.777   3.736   4.269 -0.2603  0.9162  0.0951
  891MOL0     C20165   7.710   3.845   4.353  0.7054 -0.0610 -0.1661
  891MOL0     C20166   7.566   3.887   4.295  0.9474 -0.0455  0.1130
  891MOL0     N20167   7.463   3.782   4.321  0.0186 -0.5563 -0.7050
  891MOL0     C20168   7.420   3.738   4.447 -0.4176  0.0730  0.0260
  891MOL0     C20169   7.310   3.660   4.426 -0.9266  0.3695  0.8307
  891MOL0     C20170   7.233   3.593   4.532  0.3012 -0.3449 -0.2565
  891MOL0     C20171   7.091   3.632   4.524 -0.7855  0.5896  0.3190
  891MOL0     C20172   7.013   3.592   4.645  0.5949  0.3882 -0.0223
  891MOL0     C20173   6.869   3.616   4.641  0.5333  0.1058  0.3465
  891MOL0     O20174   6.802   3.575   4.758 -1.4333 -0.8898 -0.8317
  891MOL0     C20175   6.664   3.584   4.769 -0.2102  0.1809 -0.4970
  891MOL0     C20176   6.578   3.656   4.678  0.7509  0.4853 -0.2898
  891MOL0     C20177   6.432   3.650   4.700 -0.4278 -0.3350  0.3275
  891MOL0     C20178   6.341   3.720   4.602 -0.1485 -1.2330 -1.1322
  891MOL0     C20179   6.382   3.581   4.810 -0.1618 -0.2594  0.2672
  891MOL0     C20180   6.234   3.560   4.830 -0.9953 -0.2043  0.2011
  891MOL0     O20181   6.140   3.644   4.777 -1.2041 -0.0203  0.0515
  891MOL0     C20182   6.000   3.644   4.790  0.7979 -0.3579 -0.2509
  891MOL0     C20183   5.925   3.554   4.872 -0.1402  0.1759  0.3895
  891MOL0     C20184   5.790   3.554   4.871 -0.0206 -0.4545  0.0219
  891MOL0     C20185   5.715   3.630   4.786 -0.5919 -0.6549 -0.1466
  891MOL0     O20186   5.579   3.625   4.809 -0.0334  0.1973 -0.1219
  891MOL0     C20187   5.492   3.673   4.701  0.0467 -0.3563 -0.3208
  891MOL0     C20188   5.348   3.631   4.724 -0.2513  0.0424 -0.2828
  891MOL0     C20189   5.288   3.663   4.865  0.0112  0.8464 -0.1469
  891MOL0     C20190   5.137   3.626   4.867 -0.2023 -0.0136 -0.3598
  891MOL0     C20191   5.072   3.639   5.004 -0.2581  0.4094  0.7982
  891MOL0     C20192   4.919   3.637   4.996 -0.6551 -0.7179  0.5028
  891MOL0     C20193   4.864   3.649   5.137  1.3674  0.6464 -0.5810
  891MOL0     C20194   4.721   3.636   5.130  0.2155  0.7329  0.1575
  891MOL0    Cl20195   4.650   3.669   5.300 -0.2052 -0.4156 -0.2067
  891MOL0     C20196   5.788   3.726   4.709  0.4777 -0.0657 -0.1134
  891MOL0     C20197   5.930   3.730   4.710  0.6515  0.4624  0.1248
  891MOL0     O20198   6.208   3.462   4.895 -0.4502 -0.6777 -0.2020
  891MOL0     C20199   6.472   3.525   4.906  0.9939  0.0125 -0.2285
  891MOL0     C20200   6.609   3.524   4.883 -0.2953  0.7128 -0.0588
  891MOL0     N20201   7.275   3.676   4.291  0.9617  0.2661  0.3174
  891MOL0     N20202   7.370   3.736   4.234 -0.7805 -0.7765 -0.6354
  891MOL0     C20203   8.597   3.460   4.251  0.3761  0.4246  0.9581
  891MOL0     C20204   8.732   3.460   4.226 -0.0598  0.2492  0.9194
  891MOL0     C20205   9.111   3.522   3.963  0.5187  0.7474 -0.9345
  891MOL0     C20206   9.186   3.473   3.851  0.4466 -0.2500  0.5940
  891MOL0     C20207   9.320   3.512   3.829  0.2648 -0.1008  0.2274
  891MOL0     C20208   9.386   3.591   3.919 -0.3107 -0.3410 -0.1478
  891MOL0     O20209   9.524   3.612   3.900  0.5177 -0.2632  0.5351
  891MOL0     C20210   9.572   3.744   3.942  0.6838  0.2139 -0.8437
  891MOL0     C20211   9.689   3.790   3.859  0.7640 -0.4934  0.5092
  891MOL0     C20212   9.806   3.684   3.834 -0.1779  0.1552 -0.1109
  891MOL0     C20213   9.926   3.748   3.753  0.7787  0.7077  0.0291
  891MOL0     C20214  10.038   3.658   3.731 -0.3548  0.3529 -0.0750
  891MOL0     C20215  10.134   3.587   3.712  0.3262  0.5988 -0.3596
  891MOL0     C20216   9.320   3.641   4.036  1.4068  0.1350  0.0561
  891MOL0     C20217   9.187   3.605   4.053 -0.3303 -0.6150  0.6628
  891MOL0     H20218   8.735   3.616   3.924 -1.3804 -2.0178 -1.2697
  891MOL0     H20219   8.480   3.600   3.972 -2.2097 -2.2777  1.6089
  891MOL0     H20220   8.348   3.498   4.375 -1.3182 -0.6284 -1.4968
  891MOL0     H20221   8.392   3.658   4.310  0.9195 -0.7386  1.2390
  891MOL0     H20222   8.192   3.648   4.175  3.2485 -3.1253 -1.4704
  891MOL0     H20223   8.115   3.534   4.288  1.1611 -0.5627  0.0136
  891MOL0     H20224   8.180   3.695   4.481 -0.3222  1.6787  0.0412
  891MOL0     H20225   8.189   3.816   4.351 -1.9794  2.0339  1.9454
  891MOL0     H20226   7.959   3.617   4.436  3.6523 -1.7928  1.1312
  891MOL0     H20227   7.962   3.791   4.459 -0.6389  0.6925 -0.8786
  891MOL0     H20228   7.963   3.842   4.228  1.8599 -0.0966  0.8505
  891MOL0     H20229   7.964   3.671   4.182  2.2377  1.2543  0.6222
  891MOL0     H20230   7.735   3.737   4.168  0.3238 -0.5190 -0.1843
  891MOL0     H20231   7.764   3.641   4.321  2.7345  0.9505  1.0979
  891MOL0     H20232   7.696   3.807   4.455 -2.1015  1.1525 -0.0212
  891MOL0     H20233   7.771   3.935   4.341  1.4716 -0.7924 -2.2461
  891MOL0     H20234   7.572   3.903   4.187 -2.0232 -0.3215 -0.1736
  891MOL0     H20235   7.514   3.974   4.335  0.5847 -0.1113 -0.2057
  891MOL0     H20236   7.470   3.755   4.542 -2.5230 -0.8471  1.3697
  891MOL0     H20237   7.253   3.485   4.532 -0.0224 -0.4607 -2.5936
  891MOL0     H20238   7.273   3.641   4.622 -1.3559  1.6124 -0.4999
  891MOL0     H20239   7.050   3.589   4.432 -0.1085 -0.3206  0.4320
  891MOL0     H20240   7.083   3.740   4.509  0.8972  0.7405  0.3632
  891MOL0     H20241   7.049   3.650   4.731  0.9001 -0.8394  0.6943
  891MOL0     H20242   7.037   3.487   4.664  2.4318  0.5325 -1.2903
  891MOL0     H20243   6.823   3.560   4.559  1.0980  1.4912 -0.9476
  891MOL0     H20244   6.845   3.719   4.615  0.8235  0.1707  0.3283
  891MOL0     H20245   6.625   3.718   4.602  0.6771  1.4364  0.4200
  891MOL0     H20246   6.291   3.806   4.646  1.7818 -0.5133 -0.2095
  891MOL0     H20247   6.400   3.742   4.512  1.5556 -1.5364 -0.1472
  891MOL0     H20248   6.260   3.658   4.564 -2.0180  2.0753 -2.9846
  891MOL0     H20249   5.979   3.489   4.939 -1.6885 -0.6254  0.9127
  891MOL0     H20250   5.735   3.489   4.939 -0.9803  1.4601  1.1388
  891MOL0     H20251   5.508   3.781   4.700 -0.6586 -0.2335  0.8348
  891MOL0     H20252   5.524   3.632   4.604 -1.0346 -1.1033 -0.3778
  891MOL0     H20253   5.289   3.690   4.653 -0.0499  1.4940  0.6948
  891MOL0     H20254   5.341   3.522   4.718  0.6623 -0.0823  0.6771
  891MOL0     H20255   5.303   3.769   4.885  0.4689  0.9005 -0.7674
  891MOL0     H20256   5.334   3.595   4.938 -0.1806 -1.9631 -2.4313
  891MOL0     H20257   5.081   3.693   4.801  0.3229  0.4256 -0.3645
  891MOL0     H20258   5.116   3.525   4.833 -1.0541  0.2269 -0.5542
  891MOL0     H20259   5.099   3.732   5.053 -0.4034 -0.3563  2.4049
  891MOL0     H20260   5.109   3.559   5.069  3.3915  0.9951 -0.3777
  891MOL0     H20261   4.894   3.723   4.934  0.3223 -0.9144 -0.1963
  891MOL0     H20262   4.886   3.548   4.941 -0.3880  0.6375 -1.9762
  891MOL0     H20263   4.890   3.753   5.160 -1.4762  1.9146 -2.4612
  891MOL0     H20264   4.898   3.578   5.213  1.1737 -0.1205 -1.1902
  891MOL0     H20265   4.680   3.542   5.091 -0.2340  1.2592 -0.6781
  891MOL0     H20266   4.682   3.717   5.068 -0.4514  2.9390  3.2504
  891MOL0     H20267   5.744   3.802   4.644  3.0601  0.6245 -1.1691
  891MOL0     H20268   5.974   3.805   4.645 -1.9385  2.5978  0.6199
  891MOL0     H20269   6.428   3.488   4.998  1.6155 -1.4774 -0.4912
  891MOL0     H20270   6.659   3.472   4.964 -1.4956 -0.5227 -0.0662
  891MOL0     H20271   8.545   3.419   4.337  0.5070 -2.2093 -0.1302
  891MOL0     H20272   8.808   3.435   4.300 -0.2811 -1.5154  0.5968
  891MOL0     H20273   9.142   3.408   3.776  2.9999 -1.4863  0.0860
  891MOL0     H20274   9.375   3.489   3.739 -2.7577  3.3006 -2.8472
  891MOL0     H20275   9.492   3.818   3.935 -0.2262 -0.5923  0.5254
  891MOL0     H20276   9.595   3.748   4.049  4.1069 -0.8365 -1.3980
  891MOL0     H20277   9.723   3.885   3.901 -0.9177 -0.1734  1.2566
  891MOL0     H20278   9.652   3.806   3.757 -0.1039 -1.6933  0.6200
  891MOL0     H20279   9.757   3.615   3.764  1.2865  1.8233 -3.0125
  891MOL0     H20280   9.824   3.643   3.933  0.0980  0.8004  0.1129
  891MOL0     H20281   9.976   3.826   3.811  2.0713  1.6252 -2.1899
  891MOL0     H20282   9.893   3.783   3.655  1.9800 -1.4368 -1.2108
  891MOL0     H20283  10.215   3.518   3.702  0.1225  0.4774 -1.2695
  891MOL0     H20284   9.369   3.706   4.107  1.0508 -0.2798  0.6849
  891MOL0     H20285   9.125   3.652   4.129 -3.9859  0.3543 -2.5957
  892MOL0     O20286   6.464   8.984   3.446  0.3095  0.5141 -0.0462
  892MOL0     C20287   6.520   9.017   3.547  0.7944 -0.1642  0.1797
  892MOL0     O20288   6.469   9.003   3.672  0.2817 -0.5317 -0.4934
  892MOL0     C20289   6.334   8.972   3.678 -0.0713  0.7654  1.0001
  892MOL0     C20290   6.300   8.840   3.689  0.3261  0.0643  0.7336
  892MOL0     C20291   6.160   8.810   3.709  0.0482 -0.1208 -0.2107
  892MOL0     C20292   6.061   8.908   3.728 -0.3647 -1.3853 -0.3631
  892MOL0     O20293   5.928   8.887   3.748 -0.2145  0.2075 -0.8273
  892MOL0     C20294   5.872   8.759   3.747  0.4675 -0.1679  0.0631
  892MOL0     C20295   5.729   8.765   3.785  0.1026  0.0573 -0.5504
  892MOL0     C20296   5.711   8.740   3.937  0.0995  0.2714 -0.8064
  892MOL0     C20297   5.569   8.756   3.984 -1.2354  0.2247  0.2553
  892MOL0     C20298   5.551   8.706   4.125  0.1140  0.5173  0.1925
  892MOL0     C20299   5.409   8.709   4.189  0.3868 -0.4756  0.0361
  892MOL0     C20300   5.301   8.614   4.141  0.8106  0.0760  0.7930
  892MOL0     C20301   5.319   8.468   4.173 -0.3294 -0.5941 -0.4596
  892MOL0     N20302   5.320   8.441   4.321  0.0534 -0.1921 -0.0460
  892MOL0     C20303   5.421   8.479   4.400  0.0003 -0.4529 -0.8163
  892MOL0     C20304   5.370   8.454   4.521  0.1553 -0.3653 -0.6591
  892MOL0     C20305   5.433   8.492   4.647 -0.0616  0.2412  0.0764
  892MOL0     C20306   5.458   8.649   4.649  0.0233  0.2660 -0.1756
  892MOL0     C20307   5.337   8.726   4.640 -0.2439 -0.6786 -0.2581
  892MOL0     C20308   5.240   8.701   4.748 -0.3330  0.7763  0.1865
  892MOL0     O20309   5.124   8.794   4.759  0.0458  0.5119 -0.0874
  892MOL0     C20310   5.029   8.796   4.661  0.5512  0.0781  0.2221
  892MOL0     C20311   5.016   8.699   4.551  0.0644  0.2731 -0.2123
  892MOL0     C20312   4.914   8.713   4.454 -0.6322  0.6886  0.3792
  892MOL0     C20313   4.915   8.611   4.339 -0.3417  0.3601 -0.3296
  892MOL0     C20314   4.817   8.820   4.464 -0.5710  0.2324  0.3018
  892MOL0     C20315   4.718   8.859   4.368  1.1189 -0.1798  0.3672
  892MOL0     O20316   4.613   8.933   4.422 -0.3860  0.0856  0.1021
  892MOL0     C20317   4.564   9.029   4.345  0.0170  0.1118  1.0203
  892MOL0     C20318   4.626   9.154   4.309  0.8530 -0.3621  0.1611
  892MOL0     C20319   4.545   9.249   4.245 -1.2597  0.6704 -0.4064
  892MOL0     C20320   4.429   9.215   4.176 -0.0939  0.4008 -0.2174
  892MOL0     O20321   4.373   9.310   4.086 -0.9599 -0.3773  0.4996
  892MOL0     C20322   4.407   9.448   4.107 -0.7577  0.2992  0.6305
  892MOL0     C20323   4.324   9.534   4.017 -0.0057  0.0047 -0.9025
  892MOL0     C20324   4.318   9.679   4.048 -1.0574 -1.0124 -0.6034
  892MOL0     C20325   4.269   9.769   3.933 -0.0455  0.0963 -0.7835
  892MOL0     C20326   4.286   9.923   3.965  0.2365 -0.6875 -0.9276
  892MOL0     C20327   4.205  10.007   3.881 -0.3423  0.0656 -0.2837
  892MOL0     C20328   4.055   9.996   3.935 -0.4845  0.1804  1.1773
  892MOL0     C20329   3.966  10.078   3.837 -0.1795  0.3576 -0.2742
  892MOL0    Cl20330   4.011  10.247   3.850  0.4811 -0.2712 -0.0159
  892MOL0     C20331   4.376   9.085   4.200 -0.0530 -0.2154  0.5265
  892MOL0     C20332   4.441   8.997   4.287  0.8548  0.2458 -0.2040
  892MOL0     O20333   4.735   8.839   4.249  0.9007 -0.5062 -0.4724
  892MOL0     C20334   4.826   8.900   4.580 -0.1447 -0.8339 -0.4391
  892MOL0     C20335   4.930   8.887   4.673  0.2034  0.4614 -0.1779
  892MOL0     N20336   5.238   8.394   4.516 -0.0853  0.0578  0.4317
  892MOL0     N20337   5.218   8.381   4.391 -0.5089 -0.0053 -0.5427
  892MOL0     C20338   6.107   9.040   3.713 -0.2695  0.9314  0.3095
  892MOL0     C20339   6.239   9.073   3.691  0.7832 -0.3804  0.0565
  892MOL0     C20340   6.665   9.055   3.530  0.5356  0.1497  0.0214
  892MOL0     C20341   6.731   9.032   3.409 -0.0269  0.0506 -1.1322
  892MOL0     C20342   6.862   9.072   3.391 -0.4016 -0.5124  0.2519
  892MOL0     C20343   6.937   9.126   3.500 -0.4929  0.6987 -0.2718
  892MOL0     O20344   7.073   9.146   3.474 -1.1557  0.7217 -0.0541
  892MOL0     C20345   7.184   9.139   3.579 -0.1983  0.6555  0.6116
  892MOL0     C20346   7.245   9.003   3.549 -0.4814 -0.5052  0.4689
  892MOL0     C20347   7.380   8.983   3.624 -0.4870 -0.0119  0.8381
  892MOL0     C20348   7.475   8.885   3.562 -0.8028 -0.0339  0.2190
  892MOL0     C20349   7.419   8.751   3.558 -0.6717  0.3867 -0.1054
  892MOL0     C20350   7.372   8.639   3.565  0.9990  0.4645  0.2359
  892MOL0     C20351   6.872   9.147   3.621 -0.1139 -0.8714  0.5478
  892MOL0     C20352   6.732   9.122   3.628  0.0119  0.8998 -0.6453
  892MOL0     H20353   6.372   8.762   3.668 -1.1697 -0.6165 -2.4774
  892MOL0     H20354   6.130   8.706   3.717  1.6387 -0.6171 -0.2176
  892MOL0     H20355   5.879   8.718   3.646 -3.1418 -1.0880  0.0453
  892MOL0     H20356   5.926   8.697   3.820 -0.5226  0.6928  1.5729
  892MOL0     H20357   5.704   8.868   3.760  2.2700  0.9520  0.6746
  892MOL0     H20358   5.664   8.700   3.726  0.8511 -1.4580  0.2299
  892MOL0     H20359   5.739   8.641   3.973 -0.1315  1.5366  3.3684
  892MOL0     H20360   5.775   8.814   3.985 -0.1010 -0.3772  0.4895
  892MOL0     H20361   5.544   8.863   3.983  0.7009  0.7712  2.6587
  892MOL0     H20362   5.498   8.705   3.918 -3.8773  0.5468  2.6130
  892MOL0     H20363   5.581   8.601   4.121  2.3595  1.0660  1.0590
  892MOL0     H20364   5.616   8.759   4.196 -1.9936  2.5090  0.7793
  892MOL0     H20365   5.414   8.705   4.298  0.2467 -2.4485 -0.0020
  892MOL0     H20366   5.364   8.809   4.177 -1.8735 -1.1440  2.1292
  892MOL0     H20367   5.198   8.640   4.165  0.7671  2.3583 -1.4748
  892MOL0     H20368   5.303   8.630   4.033 -1.9009 -1.7373  0.3701
  892MOL0     H20369   5.420   8.442   4.139  0.7124  2.2980  0.1130
  892MOL0     H20370   5.239   8.406   4.132 -0.1805 -1.1330  0.0429
  892MOL0     H20371   5.520   8.515   4.375  0.3771 -1.3946 -0.7028
  892MOL0     H20372   5.367   8.447   4.721  0.0946  0.0710  0.1139
  892MOL0     H20373   5.527   8.436   4.656  0.0143  0.4995  0.9635
  892MOL0     H20374   5.522   8.670   4.563 -3.0042 -0.1513 -2.7210
  892MOL0     H20375   5.504   8.686   4.741  1.0045 -1.3341  0.0284
  892MOL0     H20376   5.292   8.706   4.542  1.7433 -0.9969 -1.1515
  892MOL0     H20377   5.372   8.830   4.642 -0.8165 -0.4820 -0.2668
  892MOL0     H20378   5.305   8.707   4.836  3.0851 -1.3034 -1.9917
  892MOL0     H20379   5.202   8.600   4.729  1.0276  0.3942 -0.6544
  892MOL0     H20380   5.077   8.609   4.544  1.0861  0.8924  0.3777
  892MOL0     H20381   4.811   8.595   4.310 -1.5501  1.6432  2.8573
  892MOL0     H20382   4.975   8.650   4.256  2.6028 -1.9281  0.5600
  892MOL0     H20383   4.961   8.523   4.385 -4.2665 -1.9536 -0.3940
  892MOL0     H20384   4.729   9.170   4.341  1.0768 -1.1376 -0.1506
  892MOL0     H20385   4.591   9.346   4.234  1.2142 -0.5999 -2.1900
  892MOL0     H20386   4.392   9.478   4.211  3.5733  2.0998  0.9133
  892MOL0     H20387   4.513   9.463   4.085 -0.9324  1.1505  0.3307
  892MOL0     H20388   4.365   9.520   3.916  1.7587  0.5435 -0.3076
  892MOL0     H20389   4.222   9.495   4.020  0.0205 -0.1629 -1.9119
  892MOL0     H20390   4.417   9.714   4.079 -1.1963 -0.3107 -0.9337
  892MOL0     H20391   4.251   9.709   4.129  0.5524  2.0388 -0.2451
  892MOL0     H20392   4.331   9.751   3.845  1.8223  0.9260  0.2963
  892MOL0     H20393   4.164   9.747   3.909  0.3928 -1.3448 -1.5103
  892MOL0     H20394   4.391   9.940   3.938 -0.1938  1.2049 -1.5865
  892MOL0     H20395   4.280   9.957   4.069  1.6573 -0.2066 -0.9706
  892MOL0     H20396   4.239  10.111   3.879  1.1670 -0.4039 -2.7697
  892MOL0     H20397   4.200   9.970   3.778  0.9663  0.2661 -0.4294
  892MOL0     H20398   4.042  10.036   4.036  2.3914  0.7922  1.3985
  892MOL0     H20399   4.012   9.896   3.921  1.3272 -0.5256  0.3244
  892MOL0     H20400   3.858  10.072   3.854 -0.7211  2.3371 -2.5061
  892MOL0     H20401   3.983  10.045   3.733 -1.1368 -0.9946 -0.0330
  892MOL0     H20402   4.284   9.057   4.148  0.0406 -0.7394  0.6355
  892MOL0     H20403   4.398   8.897   4.296 -0.1012 -0.0734 -5.3489
  892MOL0     H20404   4.759   8.986   4.579  0.4602 -0.3260  0.6935
  892MOL0     H20405   4.941   8.964   4.750  0.0210 -0.3685  0.6974
  892MOL0     H20406   6.032   9.117   3.705 -0.1565  0.8218 -3.1922
  892MOL0     H20407   6.264   9.177   3.671  1.8673 -1.1665 -3.3938
  892MOL0     H20408   6.684   8.988   3.322 -2.4241 -0.1930  0.2046
  892MOL0     H20409   6.916   9.057   3.298  0.8945 -1.6433  1.1352
  892MOL0     H20410   7.254   9.222   3.566  2.9893 -1.9577 -0.2548
  892MOL0     H20411   7.139   9.147   3.678 -0.9193 -0.4830  0.3957
  892MOL0     H20412   7.262   9.005   3.441  1.1548  0.8702  0.7071
  892MOL0     H20413   7.176   8.921   3.569  0.1044 -0.5735  2.4493
  892MOL0     H20414   7.362   8.941   3.724 -0.2635  0.2054  0.9685
  892MOL0     H20415   7.429   9.079   3.641 -3.0428  1.0106  3.1602
  892MOL0     H20416   7.565   8.882   3.625  0.7443  1.2703 -1.7887
  892MOL0     H20417   7.511   8.907   3.461  1.8275  3.8687  1.7224
  892MOL0     H20418   7.324   8.543   3.571  1.7338  0.0165 -0.8452
  892MOL0     H20419   6.923   9.195   3.704  1.6225 -0.8722 -0.4716
  892MOL0     H20420   6.683   9.150   3.720  0.0192  0.9105 -0.6447
  893MOL0     O20421   7.351   5.648   8.787 -0.0277  0.4703  0.0797
  893MOL0     C20422   7.375   5.640   8.909 -0.0252 -0.3986  0.9175
  893MOL0     O20423   7.281   5.647   9.010  0.0428  0.1911 -0.1101
  893MOL0     C20424   7.150   5.646   8.961 -1.0922 -0.3520 -0.0891
  893MOL0     C20425   7.088   5.729   8.864 -0.0637 -0.6152  0.1275
  893MOL0     C20426   6.950   5.718   8.829 -0.2023 -0.5795 -0.6050
  893MOL0     C20427   6.875   5.617   8.891  0.8891 -0.6420  0.5022
  893MOL0     O20428   6.736   5.603   8.854 -0.5924 -0.2650  0.3131
  893MOL0     C20429   6.702   5.460   8.835  0.2209 -0.5397 -0.4451
  893MOL0     C20430   6.594   5.437   8.947 -0.5362  0.7150  0.4896
  893MOL0     C20431   6.471   5.527   8.939 -0.1313 -0.0670 -0.2049
  893MOL0     C20432   6.373   5.479   9.050  0.6574  0.4737 -0.6617
  893MOL0     C20433   6.248   5.560   9.061 -0.2631  0.0547 -0.1880
  893MOL0     C20434   6.143   5.494   9.153 -0.3548  1.0932 -0.9159
  893MOL0     C20435   6.001   5.554   9.133 -1.0772  0.1161  0.1995
  893MOL0     C20436   5.905   5.528   9.250  0.2414  0.3000 -0.5469
  893MOL0     N20437   5.883   5.383   9.262  0.7844 -0.5759  0.0612
  893MOL0     C20438   5.823   5.316   9.162  0.0759  0.6358  0.5951
  893MOL0     C20439   5.820   5.192   9.208 -0.2430 -0.1289 -0.2677
  893MOL0     C20440   5.766   5.075   9.132 -0.0854 -0.0727  0.2133
  893MOL0     C20441   5.621   5.097   9.096 -0.0215 -0.9882 -0.6696
  893MOL0     C20442   5.568   4.994   9.000 -0.0268 -0.4493  0.0678
  893MOL0     C20443   5.405   4.986   8.997  0.2698  0.6661  0.5467
  893MOL0     O20444   5.375   4.902   9.109 -0.3502  0.0215 -0.4729
  893MOL0     C20445   5.239   4.912   9.132 -0.7296  0.9964 -0.2420
  893MOL0     C20446   5.162   4.799   9.097 -0.4132 -1.3377  0.0901
  893MOL0     C20447   5.022   4.787   9.119 -0.5722  0.2415 -0.2233
  893MOL0     C20448   4.954   4.652   9.072 -0.4039  0.1466  0.1977
  893MOL0     C20449   4.953   4.885   9.195 -0.8959 -0.4213 -0.2928
  893MOL0     C20450   4.814   4.889   9.240 -0.3409  0.0409  0.0627
  893MOL0     O20451   4.754   4.768   9.258 -0.7248 -0.3425  0.4832
  893MOL0     C20452   4.630   4.747   9.305  0.4886 -0.4151 -0.5311
  893MOL0     C20453   4.545   4.664   9.228  0.3163  0.4890 -0.6800
  893MOL0     C20454   4.413   4.657   9.262 -0.0801 -0.1459  0.4689
  893MOL0     C20455   4.362   4.721   9.376  0.1685  0.2012 -0.3146
  893MOL0     O20456   4.225   4.705   9.393 -0.0694 -0.0731 -0.2733
  893MOL0     C20457   4.168   4.774   9.503  0.4234  0.4325 -0.1640
  893MOL0     C20458   4.026   4.732   9.502  1.5165 -0.4598 -1.4304
  893MOL0     C20459   3.923   4.828   9.440 -1.1487  0.0714 -0.2815
  893MOL0     C20460   3.783   4.797   9.494  0.0486  0.3040 -0.6059
  893MOL0     C20461   3.730   4.686   9.410 -0.1814  0.1980 -0.3170
  893MOL0     C20462   3.575   4.674   9.430  0.6186 -0.5116  0.3700
  893MOL0     C20463   3.524   4.550   9.362  0.8646 -0.6336  0.2336
  893MOL0     C20464   3.373   4.558   9.316 -0.8254  0.2854 -0.4824
  893MOL0    Cl20465   3.319   4.381   9.279 -0.3840  0.4333  0.7494
  893MOL0     C20466   4.442   4.798   9.459 -0.0270  0.0178  0.8796
  893MOL0     C20467   4.577   4.817   9.420 -0.4112  0.2217 -0.6413
  893MOL0     O20468   4.766   4.997   9.268  0.0054  0.5900  0.5769
  893MOL0     C20469   5.036   5.001   9.225 -0.8506 -0.4991 -0.3433
  893MOL0     C20470   5.172   5.015   9.195 -1.5426 -0.6854 -0.3550
  893MOL0     N20471   5.880   5.192   9.335 -0.2368 -0.1657  0.0285
  893MOL0     N20472   5.924   5.309   9.370  0.1489  0.0368  0.3751
  893MOL0     C20473   6.933   5.541   8.991  0.0520  0.2842 -0.6962
  893MOL0     C20474   7.072   5.555   9.028  1.3388 -0.7949  0.2563
  893MOL0     C20475   7.525   5.640   8.929  0.9817 -0.1718  0.4732
  893MOL0     C20476   7.563   5.686   9.054  0.2911  0.1874  0.7397
  893MOL0     C20477   7.695   5.698   9.087 -0.6655 -0.1786 -0.3148
  893MOL0     C20478   7.790   5.643   9.004  0.1503  0.5427 -0.2168
  893MOL0     O20479   7.929   5.654   9.022 -0.1529  0.6481 -0.0209
  893MOL0     C20480   7.971   5.720   9.133  0.1798  0.0439  0.4162
  893MOL0     C20481   8.112   5.748   9.128 -0.1202  0.8189  0.0230
  893MOL0     C20482   8.193   5.656   9.036  0.5692 -0.4753  0.1887
  893MOL0     C20483   8.345   5.689   9.068 -0.1908  0.1001  0.0054
  893MOL0     C20484   8.428   5.579   9.012  0.1050 -0.0998 -0.4845
  893MOL0     C20485   8.493   5.497   8.952  0.4079  0.4150 -0.5394
  893MOL0     C20486   7.755   5.602   8.873 -0.3595  0.2623 -0.6115
  893MOL0     C20487   7.622   5.607   8.832  0.3909 -0.1468  0.3032
  893MOL0     H20488   7.157   5.802   8.822  0.3990  0.5290  2.6345
  893MOL0     H20489   6.911   5.797   8.766 -0.5851  0.7832  1.2656
  893MOL0     H20490   6.645   5.443   8.743 -0.9292 -1.4945  0.4249
  893MOL0     H20491   6.789   5.394   8.840  0.5608 -0.1508 -1.0703
  893MOL0     H20492   6.554   5.335   8.950  2.6110 -0.5953  1.5296
  893MOL0     H20493   6.656   5.453   9.035 -2.1111  1.2429  1.5445
  893MOL0     H20494   6.502   5.630   8.958 -0.7892 -0.1565  1.6429
  893MOL0     H20495   6.427   5.509   8.841 -0.1611  1.1374 -0.4260
  893MOL0     H20496   6.351   5.373   9.033 -2.6035  0.6249  1.6780
  893MOL0     H20497   6.421   5.460   9.146 -1.5374 -1.4158  0.1374
  893MOL0     H20498   6.276   5.655   9.109 -0.0776  0.2050 -0.5840
  893MOL0     H20499   6.209   5.583   8.962  3.8243  1.7869 -1.6227
  893MOL0     H20500   6.131   5.387   9.133 -1.0934  0.9364  0.2610
  893MOL0     H20501   6.180   5.505   9.255 -1.8520 -1.9645  0.0620
  893MOL0     H20502   6.009   5.663   9.128 -0.2737  0.0568 -0.0281
  893MOL0     H20503   5.964   5.520   9.036 -0.2767 -0.0817 -0.0409
  893MOL0     H20504   5.801   5.559   9.236 -0.7601 -1.7918  1.5901
  893MOL0     H20505   5.940   5.578   9.341 -1.1624  0.6458 -0.1747
  893MOL0     H20506   5.775   5.352   9.072  0.0300  2.0925  1.1732
  893MOL0     H20507   5.823   5.069   9.038 -0.0644  3.1518 -0.1105
  893MOL0     H20508   5.773   4.983   9.190 -3.7212 -0.1840  0.6947
  893MOL0     H20509   5.604   5.196   9.053 -2.3369 -1.6312 -1.4004
  893MOL0     H20510   5.560   5.110   9.187  2.7327 -1.8272  1.4234
  893MOL0     H20511   5.617   4.899   9.024  1.9120  0.1970 -1.0372
  893MOL0     H20512   5.614   5.019   8.904 -0.6365  1.0945  0.1611
  893MOL0     H20513   5.370   4.941   8.903 -0.2303  1.8696  0.1383
  893MOL0     H20514   5.371   5.090   8.999 -0.9190  0.5310 -3.2312
  893MOL0     H20515   5.216   4.726   9.038  0.4815 -2.6459  2.3787
  893MOL0     H20516   4.909   4.596   9.154  1.3033 -0.6558  0.6340
  893MOL0     H20517   4.881   4.673   8.994  0.8487 -0.0156 -1.0572
  893MOL0     H20518   5.027   4.593   9.016 -0.2438  1.8521 -1.5047
  893MOL0     H20519   4.589   4.610   9.144 -1.1874 -1.9978  0.0367
  893MOL0     H20520   4.350   4.586   9.210 -0.8501  0.2123  0.8915
  893MOL0     H20521   4.209   4.738   9.598  1.5863  0.3662 -0.6632
  893MOL0     H20522   4.171   4.883   9.492 -1.1968  0.5150 -0.0465
  893MOL0     H20523   4.016   4.634   9.455 -4.5598 -0.8066 -0.2864
  893MOL0     H20524   3.999   4.725   9.608  0.0454 -0.5743 -1.7828
  893MOL0     H20525   3.938   4.840   9.333  0.5581 -2.0680 -0.3721
  893MOL0     H20526   3.945   4.922   9.491  1.4790 -0.8847  0.5491
  893MOL0     H20527   3.767   4.772   9.599  0.5015  2.3926  0.0252
  893MOL0     H20528   3.726   4.890   9.486 -0.9731 -0.1640  0.8521
  893MOL0     H20529   3.788   4.598   9.439 -1.4014 -1.0424 -1.5235
  893MOL0     H20530   3.752   4.705   9.305 -2.2175 -1.6104 -1.1598
  893MOL0     H20531   3.543   4.683   9.534 -0.1115  0.2371  0.0879
  893MOL0     H20532   3.523   4.757   9.383 -1.8929 -1.2681  1.6182
  893MOL0     H20533   3.531   4.475   9.441  1.3112  1.6176  2.4782
  893MOL0     H20534   3.585   4.517   9.278 -1.5433 -1.9945 -1.1196
  893MOL0     H20535   3.371   4.606   9.218  1.9705 -0.3473 -0.9377
  893MOL0     H20536   3.309   4.603   9.391 -0.2920 -2.2905  1.6948
  893MOL0     H20537   4.416   4.839   9.557  3.0726 -0.0871  1.8484
  893MOL0     H20538   4.635   4.891   9.474 -1.2386 -1.1963  2.4105
  893MOL0     H20539   5.004   5.095   9.269  1.9400  0.8148 -0.9156
  893MOL0     H20540   5.224   5.107   9.219 -1.4486 -0.5751 -0.9817
  893MOL0     H20541   6.887   5.459   9.045  3.4889 -1.1169  0.3562
  893MOL0     H20542   7.112   5.486   9.102  0.8714 -0.1274  1.1468
  893MOL0     H20543   7.482   5.701   9.125 -2.1105 -0.0495 -1.7874
  893MOL0     H20544   7.723   5.742   9.182 -0.2463 -1.1619  0.0285
  893MOL0     H20545   7.925   5.819   9.129 -1.5240 -0.7486 -1.0904
  893MOL0     H20546   7.935   5.665   9.220 -1.3124  0.9857  0.4289
  893MOL0     H20547   8.158   5.755   9.227 -0.3935 -0.2662  0.2368
  893MOL0     H20548   8.136   5.848   9.090  1.7400  0.1459 -0.7136
  893MOL0     H20549   8.177   5.699   8.938  1.9321 -0.6146 -0.1258
  893MOL0     H20550   8.166   5.552   9.055  0.7077 -0.5658 -0.1026
  893MOL0     H20551   8.365   5.700   9.175 -0.6304 -1.5907  0.2915
  893MOL0     H20552   8.363   5.783   9.014  1.6308 -1.5659 -2.5314
  893MOL0     H20553   8.554   5.430   8.894  0.4750 -0.4160  0.4663
  893MOL0     H20554   7.838   5.574   8.809 -0.0526 -0.6900  0.1710
  893MOL0     H20555   7.585   5.572   8.736  0.1136  1.6069 -0.2843
  894MOL0     O20556   2.320   0.194   1.802  1.0388 -0.6409  0.0249
  894MOL0     C20557   2.365   0.118   1.886  0.2542 -1.1549  0.6929
  894MOL0     O20558   2.315   0.111   2.015  0.6483  0.0565 -0.1991
  894MOL0     C20559   2.184   0.151   2.042  1.0831  0.1717 -0.3797
  894MOL0     C20560   2.071   0.141   1.966 -0.1647 -0.2824 -0.1304
  894MOL0     C20561   1.941   0.159   2.018 -0.7315 -0.1964  0.1141
  894MOL0     C20562   1.930   0.209   2.152 -0.5538  0.3491 -0.2514
  894MOL0     O20563   1.814   0.234   2.212 -0.2665 -0.0974  1.1265
  894MOL0     C20564   1.690   0.159   2.186  1.2739  0.5108  0.1947
  894MOL0     C20565   1.568   0.240   2.236 -0.0628  0.9011 -0.2026
  894MOL0     C20566   1.451   0.143   2.257 -0.8240 -0.3906  0.6788
  894MOL0     C20567   1.323   0.209   2.298  0.5418 -0.3558 -0.7842
  894MOL0     C20568   1.219   0.116   2.361 -0.3407 -0.1174 -1.4580
  894MOL0     C20569   1.082   0.175   2.388  0.2731 -0.7217  0.0174
  894MOL0     C20570   0.981   0.068   2.435 -0.7920  0.0992 -0.5701
  894MOL0     C20571   0.836   0.110   2.446  0.8974  0.0459  0.2682
  894MOL0     N20572   0.786   0.167   2.318  1.0152  0.3731  0.3903
  894MOL0     C20573   0.765   0.299   2.268  0.6402  0.0992 -0.0579
  894MOL0     C20574   0.703   0.288   2.146  0.1735  0.3502 -0.9128
  894MOL0     C20575   0.655   0.406   2.059 -0.4177 -0.0041  0.3339
  894MOL0     C20576   0.524   0.460   2.115 -0.2608 -0.4685 -0.3782
  894MOL0     C20577   0.406   0.413   2.031  0.2468  0.4381  0.6430
  894MOL0     C20578   0.274   0.460   2.090  0.2706 -0.3247  0.0387
  894MOL0     O20579   0.225   0.374   2.192  0.0987  0.3146 -0.2097
  894MOL0     C20580   0.085   0.399   2.212  0.0461 -0.6818  0.2076
  894MOL0     C20581   0.044   0.430   2.343  0.5341  0.1374  0.8221
  894MOL0     C20582  -0.091   0.432   2.375 -0.0726 -0.2108 -0.9453
  894MOL0     C20583  -0.111   0.433   2.528 -0.3578 -0.1508 -0.2196
  894MOL0     C20584  -0.190   0.411   2.269 -0.6983  1.2344  0.1238
  894MOL0     C20585  -0.339   0.422   2.293 -0.2272 -0.4540 -0.6981
  894MOL0     O20586  -0.424   0.410   2.182 -0.6798  0.0827  0.7271
  894MOL0     C20587  -0.565   0.433   2.177 -0.8583  0.0597 -0.1211
  894MOL0     C20588  -0.649   0.475   2.279  0.1927  0.2571  0.1279
  894MOL0     C20589  -0.784   0.485   2.267  0.0604 -0.3625 -0.4611
  894MOL0     C20590  -0.842   0.463   2.141 -1.0204 -0.1003  0.2767
  894MOL0     O20591  -0.981   0.467   2.131 -0.6659 -0.3179  0.0143
  894MOL0     C20592  -1.035   0.547   2.020 -0.8224 -0.4995 -0.6184
  894MOL0     C20593  -1.184   0.563   2.040  0.6861 -0.6810  0.7429
  894MOL0     C20594  -1.247   0.645   1.923  0.0673 -0.2338  0.1273
  894MOL0     C20595  -1.399   0.652   1.933 -0.4406  0.5905 -0.0493
  894MOL0     C20596  -1.464   0.731   1.820  0.0809  0.3628 -0.7417
  894MOL0     C20597  -1.617   0.717   1.813 -0.8046  0.6357 -0.3501
  894MOL0     C20598  -1.682   0.779   1.696 -0.2069  0.2657  0.8108
  894MOL0     C20599  -1.826   0.741   1.662  0.3556  0.1137 -0.2488
  894MOL0    Cl20600  -1.910   0.722   1.813  0.1025  0.0501  0.0321
  894MOL0     C20601  -0.755   0.436   2.029 -0.5438  0.2827  0.4235
  894MOL0     C20602  -0.623   0.417   2.047  0.0645  0.4541 -0.0683
  894MOL0     O20603  -0.372   0.420   2.413  0.2885  0.3618  0.2067
  894MOL0     C20604  -0.148   0.383   2.140 -0.9039 -0.3294  1.4453
  894MOL0     C20605  -0.009   0.388   2.113  0.3124  0.1700 -0.0345
  894MOL0     N20606   0.700   0.155   2.118 -0.2940 -1.5937  0.6016
  894MOL0     N20607   0.752   0.088   2.212 -0.2450 -0.3550 -0.4802
  894MOL0     C20608   2.045   0.223   2.232  0.4254  0.4541  0.4074
  894MOL0     C20609   2.167   0.193   2.178 -0.1930 -0.5681 -0.1819
  894MOL0     C20610   2.478   0.033   1.850  0.2298  0.1339 -0.6462
  894MOL0     C20611   2.518  -0.070   1.933 -0.4913  0.6297  0.2736
  894MOL0     C20612   2.634  -0.132   1.908 -0.2660 -0.6135 -0.1575
  894MOL0     C20613   2.697  -0.113   1.786  0.2367  0.6149  1.0401
  894MOL0     O20614   2.809  -0.185   1.739  0.1730  0.1641  0.1725
  894MOL0     C20615   2.863  -0.274   1.833  0.0747  0.1210 -0.0331
  894MOL0     C20616   2.994  -0.322   1.769 -0.1099  0.3139 -1.0142
  894MOL0     C20617   3.106  -0.217   1.752 -0.6046 -0.1968  0.3704
  894MOL0     C20618   3.235  -0.280   1.701  0.1332  0.5487  1.1443
  894MOL0     C20619   3.243  -0.290   1.555 -0.6100 -0.1964 -0.0799
  894MOL0     C20620   3.265  -0.296   1.434 -0.2357  0.8241  0.5110
  894MOL0     C20621   2.646  -0.011   1.699  0.5045  0.2957 -0.1955
  894MOL0     C20622   2.534   0.060   1.725 -0.6774  0.1155 -0.3100
  894MOL0     H20623   2.092   0.114   1.862 -0.0640  1.6048 -0.6296
  894MOL0     H20624   1.856   0.143   1.953 -0.4934 -2.4596  0.3027
  894MOL0     H20625   1.676   0.126   2.082  0.7476 -0.0557  0.4398
  894MOL0     H20626   1.686   0.068   2.246 -1.3311  1.5254  1.7366
  894MOL0     H20627   1.598   0.284   2.331 -0.5717  2.5632 -0.7771
  894MOL0     H20628   1.538   0.316   2.164 -2.1380  0.2423 -0.0815
  894MOL0     H20629   1.437   0.096   2.159 -2.9126  2.0151 -0.2626
  894MOL0     H20630   1.482   0.068   2.331 -1.9137  0.6673  2.2740
  894MOL0     H20631   1.357   0.282   2.373  0.3692  1.6197 -2.5382
  894MOL0     H20632   1.278   0.252   2.208 -2.1031 -1.9232 -0.3208
  894MOL0     H20633   1.208   0.039   2.284 -0.7988 -1.5337 -0.0335
  894MOL0     H20634   1.251   0.074   2.456 -2.3231 -0.5760 -0.9402
  894MOL0     H20635   1.094   0.251   2.466  0.0409  1.1276 -1.6617
  894MOL0     H20636   1.045   0.230   2.301  1.8427 -2.6142 -1.9394
  894MOL0     H20637   0.988  -0.015   2.363  0.3812 -1.9854  1.7904
  894MOL0     H20638   1.027   0.025   2.525 -0.0304 -2.1909 -1.9419
  894MOL0     H20639   0.812   0.172   2.532  0.6968  2.7232 -1.5915
  894MOL0     H20640   0.785   0.015   2.467 -0.5521  0.3501 -1.6006
  894MOL0     H20641   0.771   0.394   2.320 -0.5750  0.9475 -1.3936
  894MOL0     H20642   0.734   0.482   2.061 -1.1486  0.7834  2.5349
  894MOL0     H20643   0.648   0.369   1.957  2.6565 -1.1571  0.4391
  894MOL0     H20644   0.535   0.569   2.109  0.0355 -0.4934 -0.2844
  894MOL0     H20645   0.515   0.425   2.218  1.2906  0.0564 -0.0469
  894MOL0     H20646   0.407   0.306   2.007 -0.7368  0.5556  0.0266
  894MOL0     H20647   0.403   0.463   1.934 -1.2312 -0.6839  0.0680
  894MOL0     H20648   0.196   0.478   2.015 -0.7595  1.7642  1.5010
  894MOL0     H20649   0.296   0.560   2.129  0.5060 -0.8640  1.3517
  894MOL0     H20650   0.120   0.420   2.420 -1.0503  1.5163  2.6643
  894MOL0     H20651  -0.183   0.509   2.559  2.0429  1.7563  1.0650
  894MOL0     H20652  -0.149   0.336   2.562 -1.5787  0.0434 -0.9785
  894MOL0     H20653  -0.026   0.458   2.592 -0.4789 -1.1630  0.3620
  894MOL0     H20654  -0.595   0.508   2.367 -1.6681  0.6286  1.1852
  894MOL0     H20655  -0.850   0.514   2.347  2.9350  2.3330  1.1614
  894MOL0     H20656  -0.973   0.637   2.028 -1.0060 -0.5716  3.1162
  894MOL0     H20657  -1.020   0.497   1.924  4.1363  0.1051 -0.3986
  894MOL0     H20658  -1.230   0.464   2.049 -0.1054 -0.3158  0.7421
  894MOL0     H20659  -1.215   0.603   2.137 -2.8779 -0.1259 -0.4943
  894MOL0     H20660  -1.218   0.597   1.829 -3.9818  0.5298 -1.7183
  894MOL0     H20661  -1.214   0.749   1.922 -0.8552  0.0690  0.2142
  894MOL0     H20662  -1.428   0.547   1.927  2.2067 -0.2732  0.9267
  894MOL0     H20663  -1.432   0.692   2.029 -2.6122  0.1963 -0.5837
  894MOL0     H20664  -1.426   0.695   1.723 -0.0773  0.1456 -0.7238
  894MOL0     H20665  -1.440   0.836   1.833 -1.6938  0.5803  1.2309
  894MOL0     H20666  -1.644   0.612   1.822  1.9148 -0.1686 -0.5720
  894MOL0     H20667  -1.658   0.778   1.893 -2.4810 -0.0724 -0.6387
  894MOL0     H20668  -1.626   0.750   1.607 -0.1912  0.0040  0.9054
  894MOL0     H20669  -1.672   0.888   1.698  0.0301  0.3126 -1.0805
  894MOL0     H20670  -1.839   0.651   1.600 -1.0893  1.3142 -1.7818
  894MOL0     H20671  -1.872   0.820   1.602  1.4957 -0.1689 -1.5642
  894MOL0     H20672  -0.788   0.434   1.925 -2.2134 -0.2962  0.9144
  894MOL0     H20673  -0.547   0.399   1.971 -0.4074 -0.5407 -0.3238
  894MOL0     H20674  -0.211   0.364   2.054  1.6383 -0.3328 -0.5407
  894MOL0     H20675   0.016   0.383   2.007  0.9660 -1.8563  0.1801
  894MOL0     H20676   2.023   0.255   2.333  0.6848 -1.5626  1.1359
  894MOL0     H20677   2.252   0.176   2.243  0.7552 -1.5137 -1.6090
  894MOL0     H20678   2.462  -0.108   2.018 -0.4405 -0.0933 -0.0053
  894MOL0     H20679   2.666  -0.201   1.986 -3.6009  0.1339  2.0704
  894MOL0     H20680   2.877  -0.223   1.928 -1.5152 -1.1623  0.9386
  894MOL0     H20681   2.790  -0.352   1.853 -0.0643  0.8862  2.8752
  894MOL0     H20682   2.968  -0.384   1.683  0.8489 -3.9207  1.4189
  894MOL0     H20683   3.031  -0.390   1.847 -2.6751  1.2828  1.1925
  894MOL0     H20684   3.126  -0.169   1.847 -0.5521  0.1471  0.1859
  894MOL0     H20685   3.072  -0.139   1.683  0.5816  1.7479  1.9184
  894MOL0     H20686   3.244  -0.380   1.746  0.8087 -0.5712 -1.2804
  894MOL0     H20687   3.319  -0.218   1.732  1.8513 -0.4281 -1.2080
  894MOL0     H20688   3.275  -0.308   1.328 -1.6041  0.4900  0.3963
  894MOL0     H20689   2.708   0.014   1.613  1.3180 -0.0562  0.2698
  894MOL0     H20690   2.496   0.130   1.652 -1.1075 -0.8242 -1.0219
  895MOL0     O20691   2.975   2.224   1.386  0.4290 -0.0475  0.4426
  895MOL0     C20692   2.966   2.103   1.415  0.4739  0.2825 -0.2919
  895MOL0     O20693   2.856   2.032   1.430  0.0279 -0.3433  0.3602
  895MOL0     C20694   2.736   2.101   1.406 -0.4464  0.2526  0.5867
  895MOL0     C20695   2.672   2.153   1.516  0.3537  0.0771  0.4836
  895MOL0     C20696   2.549   2.213   1.506 -0.6552 -0.1142  0.2938
  895MOL0     C20697   2.480   2.228   1.377  0.0136 -0.3071 -0.1394
  895MOL0     O20698   2.361   2.295   1.357  0.2480  0.1546 -0.2320
  895MOL0     C20699   2.244   2.217   1.401 -1.0170 -1.3257  0.3176
  895MOL0     C20700   2.156   2.310   1.491 -0.3121 -0.0918  0.2472
  895MOL0     C20701   2.036   2.229   1.527  0.1337 -0.3218 -0.1154
  895MOL0     C20702   1.953   2.292   1.640  0.2854  0.4096 -0.1019
  895MOL0     C20703   1.866   2.405   1.600 -0.0596 -0.1026 -0.3370
  895MOL0     C20704   1.798   2.467   1.727  0.0613 -0.1888 -0.5944
  895MOL0     C20705   1.658   2.404   1.755 -0.2567 -0.3883 -0.0817
  895MOL0     C20706   1.557   2.461   1.650 -0.3311 -0.3987 -0.2055
  895MOL0     N20707   1.430   2.378   1.660 -0.5616 -0.1818  0.9515
  895MOL0     C20708   1.330   2.409   1.732  0.9877 -0.4679 -0.6906
  895MOL0     C20709   1.259   2.303   1.765  0.5280  0.0921  0.5229
  895MOL0     C20710   1.135   2.300   1.841  0.7061 -0.3048 -0.3338
  895MOL0     C20711   0.991   2.281   1.767 -0.3538 -0.3906 -0.2868
  895MOL0     C20712   0.986   2.139   1.731  0.1954 -0.7636 -0.2908
  895MOL0     C20713   0.838   2.107   1.699 -0.4763 -1.0664  0.0079
  895MOL0     O20714   0.832   1.999   1.610 -0.0635 -0.2331 -0.9438
  895MOL0     C20715   0.703   1.970   1.570  0.3260  0.0139 -0.6790
  895MOL0     C20716   0.610   1.932   1.672  0.0564 -0.0249  0.6142
  895MOL0     C20717   0.475   1.904   1.638  0.2781 -0.0284  0.4753
  895MOL0     C20718   0.398   1.854   1.759 -0.2395 -0.6403  0.1496
  895MOL0     C20719   0.430   1.938   1.508 -0.2388  0.7106  0.0916
  895MOL0     C20720   0.285   1.915   1.461  0.0643 -0.2763 -0.2953
  895MOL0     O20721   0.259   1.948   1.334 -0.2429 -0.7393 -0.5054
  895MOL0     C20722   0.136   1.930   1.273  0.3760 -0.2403  0.6814
  895MOL0     C20723   0.038   1.838   1.302  0.6705  0.1294  0.2190
  895MOL0     C20724  -0.083   1.838   1.229 -0.4757  0.9172 -0.3298
  895MOL0     C20725  -0.101   1.923   1.125  0.2616  0.0901  0.4877
  895MOL0     O20726  -0.226   1.919   1.075  0.2234  0.6415  0.4625
  895MOL0     C20727  -0.245   1.972   0.940 -0.3968 -0.3246 -0.3169
  895MOL0     C20728  -0.386   1.985   0.895 -0.6439 -0.1030  0.1530
  895MOL0     C20729  -0.383   2.027   0.748 -1.0168  0.4369 -1.1177
  895MOL0     C20730  -0.519   2.049   0.698  0.0388  0.4327  0.7541
  895MOL0     C20731  -0.505   2.104   0.558 -0.1088 -0.1782  0.1608
  895MOL0     C20732  -0.633   2.171   0.501 -0.1616  0.3922 -0.2748
  895MOL0     C20733  -0.620   2.162   0.345  0.5579 -0.2754 -0.0772
  895MOL0     C20734  -0.739   2.225   0.281 -0.0688  0.7012  0.4946
  895MOL0    Cl20735  -0.712   2.403   0.258  0.0031 -0.0643  0.2371
  895MOL0     C20736   0.005   1.998   1.080  0.3769 -0.6303  0.6038
  895MOL0     C20737   0.121   2.009   1.162 -0.1559 -0.4318  0.1188
  895MOL0     O20738   0.210   1.841   1.523 -0.3573 -0.6687  0.4039
  895MOL0     C20739   0.519   1.970   1.410 -0.2678  0.0173  0.0536
  895MOL0     C20740   0.655   1.986   1.441  0.0305 -0.1309  0.2616
  895MOL0     N20741   1.329   2.200   1.701 -0.3188 -0.5626 -0.1276
  895MOL0     N20742   1.429   2.247   1.628  0.3966 -0.5384  0.3208
  895MOL0     C20743   2.556   2.183   1.268 -0.2913  0.0365  0.2520
  895MOL0     C20744   2.681   2.116   1.274  1.2091  0.1004  1.0614
  895MOL0     C20745   3.096   2.037   1.444  0.3207  0.3800 -0.0730
  895MOL0     C20746   3.212   2.118   1.433 -0.3556  0.1143 -0.6603
  895MOL0     C20747   3.336   2.058   1.453  0.1014 -0.2486 -0.0900
  895MOL0     C20748   3.354   1.929   1.496 -0.1270  0.0407 -0.0889
  895MOL0     O20749   3.471   1.869   1.541  0.0425 -0.1242  0.2347
  895MOL0     C20750   3.589   1.948   1.554 -0.0530 -0.3968 -0.0766
  895MOL0     C20751   3.581   2.010   1.699 -0.2324 -1.2588 -0.3311
  895MOL0     C20752   3.709   2.087   1.740 -0.8235 -0.5094  0.8487
  895MOL0     C20753   3.739   2.204   1.638  0.0869  0.0582  0.6694
  895MOL0     C20754   3.638   2.305   1.619 -0.1907  0.3003  0.1088
  895MOL0     C20755   3.553   2.386   1.618  0.8168 -0.3937  0.8972
  895MOL0     C20756   3.245   1.843   1.497 -0.7297  0.2946 -0.3630
  895MOL0     C20757   3.117   1.897   1.475 -0.1637 -0.1684  0.3795
  895MOL0     H20758   2.715   2.162   1.616 -1.2283 -0.8363  1.2882
  895MOL0     H20759   2.495   2.258   1.589 -0.6891 -2.0730  1.3901
  895MOL0     H20760   2.192   2.192   1.308  3.1508  0.3884 -2.7717
  895MOL0     H20761   2.264   2.123   1.455 -2.7940 -1.4782  0.7610
  895MOL0     H20762   2.223   2.326   1.575  1.6183  1.7228 -1.5390
  895MOL0     H20763   2.121   2.405   1.448 -1.5098 -0.2923  0.7266
  895MOL0     H20764   1.991   2.194   1.433  2.6525 -0.0747 -1.5005
  895MOL0     H20765   2.085   2.146   1.579  2.7734  0.0107 -1.8841
  895MOL0     H20766   1.899   2.206   1.678 -1.7644  1.5545 -0.2921
  895MOL0     H20767   2.020   2.316   1.723 -0.4642  1.1029  0.3165
  895MOL0     H20768   1.926   2.484   1.554  1.4081  0.2632  2.0315
  895MOL0     H20769   1.794   2.360   1.531 -0.7983 -1.9526  1.5287
  895MOL0     H20770   1.858   2.450   1.817  1.0793 -0.3575 -1.2811
  895MOL0     H20771   1.792   2.576   1.712 -1.4448  0.1516  1.8615
  895MOL0     H20772   1.659   2.295   1.762 -0.8758 -0.2617  3.5153
  895MOL0     H20773   1.623   2.439   1.853  0.3023  2.5886 -0.8295
  895MOL0     H20774   1.589   2.441   1.547  0.3910 -5.0477  0.7082
  895MOL0     H20775   1.539   2.569   1.660 -5.7965 -1.0171 -0.2325
  895MOL0     H20776   1.313   2.509   1.768 -0.4022 -0.9758  0.1456
  895MOL0     H20777   1.161   2.231   1.922 -2.2012 -0.1117  0.9097
  895MOL0     H20778   1.110   2.390   1.898 -4.3100 -0.2367 -2.1393
  895MOL0     H20779   0.983   2.347   1.681 -4.2025  0.8388  0.8230
  895MOL0     H20780   0.910   2.312   1.833  0.4709  4.7850 -1.2144
  895MOL0     H20781   1.011   2.069   1.811  2.3026 -1.1258 -1.1918
  895MOL0     H20782   1.050   2.124   1.644 -0.0818  0.3351 -0.7001
  895MOL0     H20783   0.783   2.193   1.662 -0.3773 -0.6749  0.7576
  895MOL0     H20784   0.787   2.085   1.793 -2.2627  0.5057 -0.5435
  895MOL0     H20785   0.643   1.917   1.774 -0.5389 -0.7633  0.7028
  895MOL0     H20786   0.459   1.828   1.846 -3.5920 -0.8667  2.6398
  895MOL0     H20787   0.316   1.919   1.789 -0.3655  0.3860 -2.2327
  895MOL0     H20788   0.350   1.758   1.739 -0.9002 -0.1506 -0.6756
  895MOL0     H20789   0.034   1.754   1.371 -0.9649 -1.8934 -2.1343
  895MOL0     H20790  -0.160   1.764   1.245 -0.6767  0.4778 -2.8289
  895MOL0     H20791  -0.208   2.074   0.924 -0.6396  0.1768  2.0301
  895MOL0     H20792  -0.190   1.902   0.876 -0.9478 -1.4436  0.4134
  895MOL0     H20793  -0.441   1.895   0.923  1.4767 -0.9435  1.9260
  895MOL0     H20794  -0.434   2.066   0.949 -0.1102  1.1755 -1.2303
  895MOL0     H20795  -0.327   1.946   0.700  0.4519  0.5979  0.2653
  895MOL0     H20796  -0.326   2.119   0.736  0.0386 -0.2171 -1.2803
  895MOL0     H20797  -0.576   1.956   0.702 -2.1194  1.6812  0.3695
  895MOL0     H20798  -0.569   2.129   0.753  0.6432  1.5009 -0.1782
  895MOL0     H20799  -0.469   2.021   0.496  0.7139  0.5465 -0.3487
  895MOL0     H20800  -0.431   2.185   0.555 -0.6811  0.3522  0.3788
  895MOL0     H20801  -0.729   2.125   0.528  0.4996 -1.1812 -0.4654
  895MOL0     H20802  -0.642   2.275   0.533 -0.2589 -0.0077  1.0748
  895MOL0     H20803  -0.590   2.063   0.309  3.1185  0.8731 -1.4386
  895MOL0     H20804  -0.538   2.225   0.309  2.7381 -2.9955 -0.1874
  895MOL0     H20805  -0.829   2.195   0.335  0.6969  1.7702  2.4630
  895MOL0     H20806  -0.748   2.174   0.185  2.4472 -2.0284  1.5402
  895MOL0     H20807  -0.005   2.050   0.985 -0.4530 -0.7216  0.6301
  895MOL0     H20808   0.206   2.069   1.130 -1.0030  0.7898  0.0976
  895MOL0     H20809   0.482   2.001   1.313  0.2995  0.2357 -0.1007
  895MOL0     H20810   0.722   2.024   1.364  0.1789  2.3987  1.5317
  895MOL0     H20811   2.504   2.202   1.175 -2.6352  0.7174  1.6081
  895MOL0     H20812   2.715   2.068   1.183 -0.1073  0.7932  0.1689
  895MOL0     H20813   3.212   2.222   1.400 -1.1034 -0.0568 -1.2330
  895MOL0     H20814   3.422   2.121   1.433  0.1761 -0.2259  0.3015
  895MOL0     H20815   3.682   1.893   1.540 -0.0576 -0.4568  0.1252
  895MOL0     H20816   3.586   2.024   1.475  0.6981  0.7797  1.0008
  895MOL0     H20817   3.562   1.930   1.771 -2.4233  0.5415  1.2081
  895MOL0     H20818   3.493   2.073   1.712  0.9207  0.0820  1.4026
  895MOL0     H20819   3.796   2.022   1.751  0.2443  0.0656 -2.6613
  895MOL0     H20820   3.689   2.144   1.831  2.0012 -0.1419  1.3269
  895MOL0     H20821   3.766   2.174   1.536 -0.1905  0.2860  0.5250
  895MOL0     H20822   3.825   2.261   1.672 -0.8888  1.1361  1.4322
  895MOL0     H20823   3.480   2.463   1.604  1.2585 -0.2204 -0.6034
  895MOL0     H20824   3.258   1.736   1.507  3.1086  0.6117 -0.5680
  895MOL0     H20825   3.025   1.840   1.466 -1.2057  1.4657  0.3646
  896MOL0     O20826   2.936   7.182   1.795 -0.0866 -0.7855 -0.3568
  896MOL0     C20827   2.960   7.172   1.916  0.1973  0.3208 -0.9997
  896MOL0     O20828   2.866   7.131   2.012  1.0596  1.2313 -0.1604
  896MOL0     C20829   2.733   7.087   1.981  0.1178  0.0026 -0.6872
  896MOL0     C20830   2.694   6.972   2.052  0.7537  0.3104 -0.2241
  896MOL0     C20831   2.567   6.908   2.022 -0.5117 -0.7490 -0.2100
  896MOL0     C20832   2.487   6.953   1.920 -0.2098  0.7490 -0.0836
  896MOL0     O20833   2.368   6.891   1.915 -0.0571  0.2576 -0.4656
  896MOL0     C20834   2.271   6.939   1.821  0.9742 -0.0568  0.5300
  896MOL0     C20835   2.139   6.852   1.829  0.3892 -0.4030 -0.3772
  896MOL0     C20836   2.085   6.863   1.974  0.3599  0.3029 -0.6155
  896MOL0     C20837   1.954   6.941   1.984  0.4117 -0.0676  0.5054
  896MOL0     C20838   1.868   6.931   2.115 -0.1358 -0.9189  0.7370
  896MOL0     C20839   1.735   7.010   2.094  0.8224  0.1658 -0.4448
  896MOL0     C20840   1.622   6.971   2.194 -0.1747 -0.6792  0.9610
  896MOL0     C20841   1.669   6.960   2.343  0.9185  0.2357  0.1391
  896MOL0     N20842   1.583   6.917   2.447 -0.6248 -0.0859  0.1034
  896MOL0     C20843   1.607   6.934   2.581 -0.5528 -0.3296  1.0190
  896MOL0     C20844   1.506   6.874   2.636  0.1045 -0.4839 -0.1664
  896MOL0     C20845   1.471   6.863   2.786  0.2409 -0.6142  0.7562
  896MOL0     C20846   1.363   6.964   2.825  1.0226 -0.3315  0.1633
  896MOL0     C20847   1.213   6.944   2.776 -0.0857 -0.0861 -0.3782
  896MOL0     C20848   1.148   6.819   2.838  0.0214  0.9174  0.0028
  896MOL0     O20849   1.018   6.802   2.772  0.4074 -0.3565 -0.8361
  896MOL0     C20850   0.999   6.742   2.658 -0.0946  0.6556  0.1628
  896MOL0     C20851   1.100   6.717   2.567  0.3841  0.1333  0.9752
  896MOL0     C20852   1.074   6.661   2.443 -0.8336  1.1870  0.4274
  896MOL0     C20853   1.197   6.634   2.349  0.5201 -0.2871 -0.7188
  896MOL0     C20854   0.944   6.619   2.414 -1.0071 -0.0410  0.0716
  896MOL0     C20855   0.904   6.556   2.280 -0.3736  0.3190 -1.3015
  896MOL0     O20856   0.769   6.549   2.265 -0.9630 -0.0534  0.3750
  896MOL0     C20857   0.728   6.487   2.152  0.3597 -0.2125  0.0391
  896MOL0     C20858   0.731   6.349   2.128  0.6554  0.0837  0.8173
  896MOL0     C20859   0.693   6.299   2.003  0.1862 -0.0786 -0.1511
  896MOL0     C20860   0.629   6.383   1.912  0.9186 -0.4462  0.1923
  896MOL0     O20861   0.577   6.339   1.784 -0.1053 -0.0611 -0.3766
  896MOL0     C20862   0.521   6.211   1.778 -0.2402 -0.4712  0.1277
  896MOL0     C20863   0.483   6.183   1.632  0.5811 -0.2503 -0.5905
  896MOL0     C20864   0.394   6.055   1.620 -0.7495  0.4308  0.6832
  896MOL0     C20865   0.305   6.055   1.492 -0.3620 -0.8619 -0.2834
  896MOL0     C20866   0.224   5.930   1.497 -0.0036 -0.3637 -0.2314
  896MOL0     C20867   0.144   5.916   1.361  0.1620 -0.4284 -0.6410
  896MOL0     C20868   0.056   5.784   1.361  0.0006 -0.1723 -0.3485
  896MOL0     C20869  -0.084   5.783   1.289  0.5130  0.6026  0.3235
  896MOL0    Cl20870  -0.205   5.861   1.396 -0.1301 -0.4854  0.2030
  896MOL0     C20871   0.609   6.517   1.935 -0.9132 -0.4299  0.5438
  896MOL0     C20872   0.667   6.571   2.052  0.5002 -1.3752 -0.2540
  896MOL0     O20873   0.986   6.508   2.204 -0.4099  0.1709  0.9727
  896MOL0     C20874   0.840   6.627   2.508  1.5378 -0.1546 -0.1197
  896MOL0     C20875   0.867   6.696   2.630  0.0629  0.0856 -0.0365
  896MOL0     N20876   1.421   6.828   2.536 -0.3437  0.4254 -0.3958
  896MOL0     N20877   1.465   6.852   2.424 -0.3447 -0.4554  0.2820
  896MOL0     C20878   2.529   7.067   1.844  0.5295  1.2811  0.3524
  896MOL0     C20879   2.651   7.136   1.879 -0.0340 -0.5690 -0.2676
  896MOL0     C20880   3.094   7.196   1.968 -0.4583 -0.3938 -0.4446
  896MOL0     C20881   3.205   7.181   1.883 -0.7159  0.8295 -0.2265
  896MOL0     C20882   3.335   7.188   1.935  0.0764 -0.6250  0.0429
  896MOL0     C20883   3.356   7.216   2.078 -0.2952 -0.4715  0.2330
  896MOL0     O20884   3.479   7.234   2.137  0.0004  0.2742  0.2842
  896MOL0     C20885   3.590   7.225   2.042  0.3809 -0.1050  0.4481
  896MOL0     C20886   3.715   7.284   2.101 -0.4297  0.3227 -0.6668
  896MOL0     C20887   3.840   7.266   2.011  0.4654  0.3136 -0.4367
  896MOL0     C20888   3.974   7.325   2.069  1.1622 -0.8093 -0.5106
  896MOL0     C20889   3.967   7.473   2.048 -0.2600 -1.0919  0.3886
  896MOL0     C20890   3.970   7.584   2.006  0.1351  0.5762  0.1261
  896MOL0     C20891   3.242   7.229   2.155  0.3872  0.6499  0.2662
  896MOL0     C20892   3.112   7.215   2.105 -0.3911 -0.5893  0.2542
  896MOL0     H20893   2.752   6.923   2.130 -1.1668 -0.1287  0.9717
  896MOL0     H20894   2.523   6.831   2.085 -0.5617 -0.3209  0.2874
  896MOL0     H20895   2.255   7.044   1.845 -1.2891  0.6272 -3.1773
  896MOL0     H20896   2.315   6.938   1.720  0.5658  1.1223  0.3319
  896MOL0     H20897   2.070   6.885   1.751 -0.7494  0.2663  0.8767
  896MOL0     H20898   2.161   6.746   1.811 -1.7284 -0.9249 -0.0842
  896MOL0     H20899   2.066   6.763   2.015 -0.8105  0.1915 -1.3752
  896MOL0     H20900   2.160   6.912   2.035 -0.7688  1.9295 -0.4582
  896MOL0     H20901   1.980   7.043   1.953  0.4023 -0.5039 -1.0114
  896MOL0     H20902   1.892   6.907   1.901  2.6637  1.3071 -1.9154
  896MOL0     H20903   1.850   6.828   2.147  4.5199 -1.6204  1.7596
  896MOL0     H20904   1.919   6.976   2.201  2.8546 -1.1881 -0.7909
  896MOL0     H20905   1.741   7.116   2.122 -1.4019 -0.2388  1.9691
  896MOL0     H20906   1.707   7.013   1.989  0.8800 -0.8371 -0.5017
  896MOL0     H20907   1.546   7.048   2.179  0.6389 -0.2982 -1.7867
  896MOL0     H20908   1.587   6.871   2.167 -2.0517 -0.7977  3.4386
  896MOL0     H20909   1.711   7.056   2.375 -1.3271  1.4724 -0.4036
  896MOL0     H20910   1.753   6.890   2.350  1.5199  1.0301  1.2196
  896MOL0     H20911   1.685   6.994   2.627 -0.3538 -1.1139  1.7114
  896MOL0     H20912   1.445   6.758   2.803 -0.2212 -0.7204 -0.5087
  896MOL0     H20913   1.557   6.886   2.850  0.1071 -3.6750  2.1705
  896MOL0     H20914   1.405   7.058   2.787  0.4809  0.3041  1.1025
  896MOL0     H20915   1.361   6.962   2.934  0.8101 -1.0455  0.1535
  896MOL0     H20916   1.196   6.952   2.668 -2.1126 -2.8920 -0.3797
  896MOL0     H20917   1.149   7.023   2.816 -1.2872 -1.3445  0.2825
  896MOL0     H20918   1.139   6.824   2.947  1.2113  1.7785  0.0718
  896MOL0     H20919   1.210   6.731   2.816  0.8819  1.8605 -1.4966
  896MOL0     H20920   1.204   6.742   2.580  0.0588  2.2621 -0.0790
  896MOL0     H20921   1.290   6.654   2.402  0.3097 -0.6021 -0.2294
  896MOL0     H20922   1.199   6.527   2.326 -1.6953 -0.3528 -0.8318
  896MOL0     H20923   1.191   6.702   2.263  0.6053  1.2113  0.4198
  896MOL0     H20924   0.776   6.277   2.196 -1.8934 -0.9832  1.5042
  896MOL0     H20925   0.715   6.195   1.980 -3.6698 -0.9344 -0.6230
  896MOL0     H20926   0.584   6.129   1.814  3.8623  2.8510  1.3585
  896MOL0     H20927   0.437   6.203   1.848 -0.2520 -2.5640 -0.0656
  896MOL0     H20928   0.431   6.271   1.593  2.0620  0.7429 -0.3952
  896MOL0     H20929   0.577   6.162   1.581  0.8601  1.1745 -0.6878
  896MOL0     H20930   0.325   6.056   1.706 -1.3236 -1.7498  0.3009
  896MOL0     H20931   0.451   5.963   1.635  0.4329  0.8782 -0.7870
  896MOL0     H20932   0.237   6.140   1.484 -0.6524 -1.0139  0.5080
  896MOL0     H20933   0.366   6.058   1.401  1.4359  1.9270  0.8806
  896MOL0     H20934   0.147   5.940   1.574  0.6089 -0.5353  0.4164
  896MOL0     H20935   0.291   5.844   1.508 -2.4119 -2.2943  0.2014
  896MOL0     H20936   0.084   6.007   1.355  1.2002  0.4151  0.9769
  896MOL0     H20937   0.214   5.924   1.277 -0.8571  0.4566 -1.4469
  896MOL0     H20938   0.038   5.758   1.466 -2.2931  0.0009 -0.6369
  896MOL0     H20939   0.105   5.692   1.328  2.4213  0.0399  2.2439
  896MOL0     H20940  -0.123   5.682   1.275  0.8631  0.6109 -0.7942
  896MOL0     H20941  -0.071   5.830   1.191 -0.0231  0.7476  0.3217
  896MOL0     H20942   0.557   6.585   1.868  1.2696  0.1083 -0.7131
  896MOL0     H20943   0.663   6.679   2.065  1.8543 -1.3688  0.1698
  896MOL0     H20944   0.739   6.591   2.495  0.4150  2.2299  1.3906
  896MOL0     H20945   0.797   6.729   2.706  0.6037 -0.1862  0.5914
  896MOL0     H20946   2.473   7.115   1.764  0.6420  1.2690  0.2671
  896MOL0     H20947   2.667   7.223   1.816 -4.3265 -0.5759 -1.6807
  896MOL0     H20948   3.194   7.145   1.781 -1.4644 -1.3665  0.5678
  896MOL0     H20949   3.418   7.181   1.865  0.2667  0.4875  0.1343
  896MOL0     H20950   3.608   7.123   2.008 -0.8542 -0.8800  1.9755
  896MOL0     H20951   3.570   7.290   1.956 -2.2303 -2.8461 -1.1839
  896MOL0     H20952   3.734   7.245   2.201 -1.0596  0.8726 -0.3211
  896MOL0     H20953   3.702   7.393   2.105 -0.5415  0.2748  1.3499
  896MOL0     H20954   3.830   7.297   1.907  1.3068 -0.2325 -0.6827
  896MOL0     H20955   3.850   7.157   2.020  0.3364  0.2961 -0.4996
  896MOL0     H20956   4.060   7.277   2.021  2.1898  1.7358 -1.3607
  896MOL0     H20957   3.985   7.300   2.175  0.6005 -0.3151 -0.3295
  896MOL0     H20958   3.979   7.687   1.979 -1.3744  1.3226  2.2502
  896MOL0     H20959   3.252   7.242   2.263 -1.5476 -2.2570  0.9177
  896MOL0     H20960   3.030   7.213   2.177  0.5794 -0.4816  1.3871
  897MOL0     O20961  10.690   6.717   2.045  0.5277  0.3523  0.0623
  897MOL0     C20962  10.734   6.621   2.105 -1.1563 -0.5715  0.0867
  897MOL0     O20963  10.663   6.527   2.166  0.0432  0.2139 -0.5238
  897MOL0     C20964  10.530   6.531   2.146  0.3237 -0.2137 -0.2564
  897MOL0     C20965  10.470   6.464   2.041 -0.4062 -0.3627 -0.9678
  897MOL0     C20966  10.329   6.460   2.018 -0.3362  0.3674  0.0837
  897MOL0     C20967  10.247   6.532   2.099 -0.2914 -0.5439  0.3243
  897MOL0     O20968  10.113   6.506   2.067 -0.9346  0.0453  0.5462
  897MOL0     C20969  10.013   6.574   2.144 -0.2809 -0.9055 -1.1561
  897MOL0     C20970   9.880   6.537   2.091 -0.2366  1.3206  0.4430
  897MOL0     C20971   9.849   6.382   2.116  0.2594 -0.4606  0.7321
  897MOL0     C20972   9.704   6.362   2.121 -0.0854  0.7524 -0.0837
  897MOL0     C20973   9.639   6.425   2.242  0.7359 -0.3928 -0.0688
  897MOL0     C20974   9.485   6.417   2.236  0.6834  0.3368 -0.5866
  897MOL0     C20975   9.421   6.292   2.286 -0.7183 -0.4987  0.1617
  897MOL0     C20976   9.269   6.329   2.293 -0.8306 -0.3398 -0.1526
  897MOL0     N20977   9.210   6.227   2.382  0.7470  0.3636 -0.4857
  897MOL0     C20978   9.265   6.108   2.423  0.0793 -0.9696 -0.3481
  897MOL0     C20979   9.153   6.030   2.463 -0.4906 -0.4143 -0.0366
  897MOL0     C20980   9.174   5.887   2.512  0.6394  0.0185 -0.2817
  897MOL0     C20981   9.034   5.813   2.514 -1.0483 -0.0746  0.2725
  897MOL0     C20982   9.031   5.689   2.604  0.4804  0.5293  0.4762
  897MOL0     C20983   8.880   5.647   2.633 -0.8167  0.3048 -0.9810
  897MOL0     O20984   8.800   5.630   2.519 -0.2825  0.3939  0.0756
  897MOL0     C20985   8.675   5.573   2.511  1.0613 -0.1419  0.8553
  897MOL0     C20986   8.610   5.518   2.615 -0.3604 -0.1704 -0.7905
  897MOL0     C20987   8.475   5.463   2.611  0.1245  0.0126 -0.0602
  897MOL0     C20988   8.421   5.412   2.749 -0.5607  0.2731  0.5397
  897MOL0     C20989   8.399   5.474   2.486 -0.1370 -0.3993  0.1481
  897MOL0     C20990   8.261   5.424   2.472 -0.2052 -0.0720  0.4189
  897MOL0     O20991   8.192   5.499   2.381  0.8834  0.4712  0.4205
  897MOL0     C20992   8.058   5.491   2.354  0.2390  0.7125 -0.3305
  897MOL0     C20993   7.964   5.410   2.423  0.3918  0.0067 -0.1013
  897MOL0     C20994   7.828   5.429   2.393 -0.2806 -0.3806 -0.1111
  897MOL0     C20995   7.780   5.513   2.290 -0.8281  0.8992 -0.1940
  897MOL0     O20996   7.642   5.538   2.282 -0.2577 -0.4431 -0.0568
  897MOL0     C20997   7.586   5.659   2.231 -0.3651  0.0355 -0.1492
  897MOL0     C20998   7.582   5.770   2.333 -0.4611 -0.3047 -0.8175
  897MOL0     C20999   7.450   5.771   2.420 -0.0365 -0.3109  0.1269
  897MOL0     C21000   7.411   5.656   2.513  0.5221 -0.2867 -0.4525
  897MOL0     C21001   7.264   5.654   2.549 -0.3338 -0.3092 -0.0760
  897MOL0     C21002   7.217   5.780   2.634  0.6528  0.0210  0.6127
  897MOL0     C21003   7.075   5.760   2.698 -0.0953 -0.3224  0.0888
  897MOL0     C21004   6.966   5.794   2.604 -0.2177 -0.2210 -0.1408
  897MOL0    Cl21005   6.808   5.790   2.691 -0.1540  0.4805 -0.1289
  897MOL0     C21006   7.879   5.572   2.215  0.0059  0.4577  0.5036
  897MOL0     C21007   8.015   5.561   2.242  0.3467 -0.2366  0.0385
  897MOL0     O21008   8.223   5.321   2.525 -0.5081  0.4429 -0.6487
  897MOL0     C21009   8.468   5.538   2.378 -0.8676 -0.6671  0.2012
  897MOL0     C21010   8.603   5.583   2.391  0.7260  1.0586 -0.1970
  897MOL0     N21011   9.044   6.108   2.458 -0.3567 -0.5722 -0.0251
  897MOL0     N21012   9.076   6.226   2.406  0.6919 -0.5885  0.0417
  897MOL0     C21013  10.315   6.609   2.209  0.5330  0.5474  0.4157
  897MOL0     C21014  10.448   6.603   2.224  0.4413 -0.7110  0.7320
  897MOL0     C21015  10.875   6.604   2.113  0.1760  0.4340  0.1922
  897MOL0     C21016  10.930   6.493   2.178  0.6112  0.5085  0.4829
  897MOL0     C21017  11.065   6.482   2.184  1.0829 -0.3707  0.9944
  897MOL0     C21018  11.154   6.578   2.132  0.4110 -0.2032 -0.6902
  897MOL0     O21019  11.287   6.552   2.158  0.1673 -0.8936  0.3685
  897MOL0     C21020  11.358   6.496   2.055 -0.7103  0.6034 -0.2241
  897MOL0     C21021  11.463   6.400   2.116 -0.0922  0.7391  0.1319
  897MOL0     C21022  11.586   6.484   2.155 -0.5333 -0.1764 -0.1180
  897MOL0     C21023  11.702   6.402   2.219  0.4158  0.3161  0.3918
  897MOL0     C21024  11.741   6.468   2.346  0.5513  0.2049  1.0560
  897MOL0     C21025  11.766   6.536   2.432 -0.4126 -0.9171 -0.5825
  897MOL0     C21026  11.102   6.674   2.045  0.8380 -0.8772  0.2492
  897MOL0     C21027  10.961   6.689   2.042 -0.2326  0.2414  0.4800
  897MOL0     H21028  10.524   6.403   1.970 -1.2507 -2.0102 -0.2483
  897MOL0     H21029  10.289   6.406   1.933  3.3784 -1.2082 -0.8052
  897MOL0     H21030  10.022   6.547   2.249 -2.5404 -0.1833 -0.7222
  897MOL0     H21031  10.021   6.682   2.129 -1.5244 -0.7704 -0.9493
  897MOL0     H21032   9.802   6.596   2.142  1.2877  2.5140  1.4746
  897MOL0     H21033   9.864   6.556   1.984 -2.0761  2.4786  0.8824
  897MOL0     H21034   9.884   6.316   2.037 -2.8102 -1.6018  0.1873
  897MOL0     H21035   9.897   6.352   2.210  0.2020 -5.1567 -0.4857
  897MOL0     H21036   9.660   6.406   2.031 -0.8565 -1.4418 -0.8485
  897MOL0     H21037   9.684   6.255   2.124  3.1667  0.0345 -0.8739
  897MOL0     H21038   9.678   6.378   2.333 -0.7807 -0.5935  0.4967
  897MOL0     H21039   9.662   6.531   2.254 -1.4135  0.2246 -1.0381
  897MOL0     H21040   9.455   6.484   2.317  0.5739  0.0638 -0.3981
  897MOL0     H21041   9.442   6.456   2.143 -1.3417 -1.1869 -0.3471
  897MOL0     H21042   9.447   6.203   2.228 -0.1018  0.1648 -0.5826
  897MOL0     H21043   9.466   6.272   2.384  0.7203  0.7776 -0.2133
  897MOL0     H21044   9.230   6.309   2.193 -1.9971  1.4312 -0.0898
  897MOL0     H21045   9.243   6.433   2.316 -2.9738 -0.4024 -1.9332
  897MOL0     H21046   9.371   6.085   2.430  0.7658  2.1774  1.7870
  897MOL0     H21047   9.251   5.836   2.453 -1.1261  0.8628 -3.6012
  897MOL0     H21048   9.205   5.895   2.617 -1.6984  1.1729  0.3837
  897MOL0     H21049   8.988   5.788   2.418 -2.1257 -1.7925  1.1669
  897MOL0     H21050   8.972   5.888   2.564  1.9250  2.2625  0.7216
  897MOL0     H21051   9.081   5.703   2.699  1.0763  1.2254  0.0670
  897MOL0     H21052   9.077   5.606   2.550  0.5529  0.3396  0.8278
  897MOL0     H21053   8.837   5.732   2.687 -1.2186  2.3275 -4.2359
  897MOL0     H21054   8.891   5.563   2.702  0.2905  0.7843 -0.5377
  897MOL0     H21055   8.654   5.527   2.714 -1.2563  3.5715 -0.5978
  897MOL0     H21056   8.394   5.307   2.728  1.1011  0.1155 -1.1331
  897MOL0     H21057   8.499   5.425   2.824 -1.2157  1.2889  1.0635
  897MOL0     H21058   8.332   5.464   2.785  0.2575  0.9460  1.6264
  897MOL0     H21059   8.003   5.352   2.506  2.1077  1.4517  0.1512
  897MOL0     H21060   7.758   5.385   2.462 -1.5401  2.3886  0.5356
  897MOL0     H21061   7.635   5.694   2.140  0.9773 -0.8718  0.1906
  897MOL0     H21062   7.485   5.639   2.194 -0.6040  1.8459 -0.5587
  897MOL0     H21063   7.664   5.766   2.406 -2.2020 -1.0924  1.1832
  897MOL0     H21064   7.590   5.870   2.290  2.7699 -0.2368 -0.3044
  897MOL0     H21065   7.365   5.784   2.353  0.3990  0.5044 -0.2950
  897MOL0     H21066   7.444   5.865   2.475 -0.7225 -0.0314 -0.4061
  897MOL0     H21067   7.426   5.564   2.455 -3.3524 -1.3975  0.0597
  897MOL0     H21068   7.479   5.649   2.598 -0.8271 -2.9997  0.5259
  897MOL0     H21069   7.252   5.562   2.607  2.2487  0.6774  2.2283
  897MOL0     H21070   7.192   5.653   2.467 -0.8579  2.7229  0.2348
  897MOL0     H21071   7.280   5.800   2.721  0.9553  2.2044 -0.0524
  897MOL0     H21072   7.217   5.876   2.581  1.2702 -0.0108  0.5424
  897MOL0     H21073   7.071   5.831   2.781  0.2166  0.5347 -0.6146
  897MOL0     H21074   7.062   5.657   2.732 -0.7447 -1.8145 -4.0544
  897MOL0     H21075   6.970   5.719   2.524  0.3345  0.7466 -1.0398
  897MOL0     H21076   6.986   5.891   2.559 -0.6885 -0.6538 -1.3308
  897MOL0     H21077   7.832   5.626   2.133 -2.2228 -1.6356  0.2836
  897MOL0     H21078   8.084   5.615   2.178  1.1246 -1.8303 -0.5087
  897MOL0     H21079   8.407   5.554   2.290 -0.6167  2.5788  0.5049
  897MOL0     H21080   8.648   5.636   2.308  0.9316  1.8742  0.4194
  897MOL0     H21081  10.252   6.677   2.265 -0.1578  2.2593 -2.2567
  897MOL0     H21082  10.482   6.668   2.304 -1.2881 -0.1812  1.0939
  897MOL0     H21083  10.865   6.411   2.207  1.2745 -1.1367 -2.2875
  897MOL0     H21084  11.109   6.388   2.216  3.7313  0.0783 -0.9591
  897MOL0     H21085  11.284   6.442   1.994  0.1204 -0.1115 -0.6225
  897MOL0     H21086  11.416   6.571   2.000  0.0634  1.2217  1.3743
  897MOL0     H21087  11.492   6.331   2.037  2.1372  0.7055  0.9258
  897MOL0     H21088  11.421   6.353   2.206  0.3271 -0.0314 -0.0712
  897MOL0     H21089  11.563   6.571   2.216  3.4067  0.0545  1.3279
  897MOL0     H21090  11.618   6.515   2.055 -2.6298 -1.1070 -1.1499
  897MOL0     H21091  11.790   6.405   2.154  0.4138 -0.0873  0.3653
  897MOL0     H21092  11.668   6.300   2.241  1.8610  0.2907  2.8110
  897MOL0     H21093  11.797   6.603   2.510  0.3066 -3.2488  1.2325
  897MOL0     H21094  11.170   6.741   1.995  0.0728 -1.6612 -1.9594
  897MOL0     H21095  10.931   6.764   1.969  1.6524  0.7013  0.1207
  898MOL0     O21096   9.940   8.414   4.387 -0.6296  0.0809 -0.2768
  898MOL0     C21097   9.983   8.526   4.427 -0.3240  1.0052  0.1334
  898MOL0     O21098   9.909   8.640   4.417 -0.0571  0.1985 -0.6573
  898MOL0     C21099   9.779   8.652   4.379  0.4431  0.3277  0.7542
  898MOL0     C21100   9.713   8.562   4.290  0.6985  0.2230  0.5834
  898MOL0     C21101   9.583   8.578   4.243 -0.9453 -0.4466  0.5861
  898MOL0     C21102   9.508   8.688   4.283  0.1947 -0.3672  0.4483
  898MOL0     O21103   9.392   8.731   4.226  0.2001 -0.1322  1.1163
  898MOL0     C21104   9.293   8.638   4.173 -1.0184  0.0671  0.5840
  898MOL0     C21105   9.172   8.715   4.156  0.4428 -0.3146  0.3532
  898MOL0     C21106   9.086   8.761   4.277 -0.6535 -0.3490  0.1987
  898MOL0     C21107   8.961   8.817   4.212  0.1145  0.5149 -0.5928
  898MOL0     C21108   8.888   8.870   4.322 -0.4856 -0.1702  0.2703
  898MOL0     C21109   8.779   8.968   4.270 -0.3204  0.2607  0.0742
  898MOL0     C21110   8.649   8.945   4.358  0.4764 -0.4701 -0.0181
  898MOL0     C21111   8.553   9.063   4.308  0.0386 -0.1745  0.0331
  898MOL0     N21112   8.420   9.045   4.367  0.2314  0.2156 -0.3345
  898MOL0     C21113   8.401   9.061   4.508  1.0708 -1.1259 -0.7042
  898MOL0     C21114   8.269   9.021   4.532 -0.0360 -0.5900  0.9900
  898MOL0     C21115   8.195   9.042   4.665  0.0567  0.8333 -0.7721
  898MOL0     C21116   8.068   8.947   4.664  0.2645  0.3039  0.3317
  898MOL0     C21117   8.016   8.935   4.804 -0.3694  0.1502 -0.1049
  898MOL0     C21118   8.086   8.828   4.881  0.7776 -0.1340  1.0369
  898MOL0     O21119   8.007   8.802   4.998 -0.0394  0.0024  0.1519
  898MOL0     C21120   8.067   8.731   5.099  0.2491 -0.5282 -0.1634
  898MOL0     C21121   7.986   8.719   5.207  0.4868 -0.1770  0.3815
  898MOL0     C21122   8.020   8.638   5.312  0.0858 -0.8772 -0.5013
  898MOL0     C21123   7.917   8.632   5.411 -0.6049  0.3352 -0.0573
  898MOL0     C21124   8.142   8.569   5.317 -0.3572 -0.5348  0.7405
  898MOL0     C21125   8.180   8.465   5.419 -0.8174  0.2375 -0.7667
  898MOL0     O21126   8.307   8.419   5.402 -0.2561 -0.7168 -0.2325
  898MOL0     C21127   8.388   8.367   5.510  0.4960 -0.1605 -1.0096
  898MOL0     C21128   8.436   8.242   5.494  0.1449  0.3107  0.3837
  898MOL0     C21129   8.531   8.186   5.579  0.8130 -0.2819 -0.5642
  898MOL0     C21130   8.580   8.259   5.691 -0.0478 -0.9439 -0.3301
  898MOL0     O21131   8.662   8.210   5.792 -0.4671  0.2147 -0.0111
  898MOL0     C21132   8.738   8.098   5.744  0.2973  0.0914  1.2639
  898MOL0     C21133   8.842   8.081   5.847 -0.2576  1.0317 -0.6621
  898MOL0     C21134   8.947   7.988   5.791 -0.3935  0.3441  0.4965
  898MOL0     C21135   9.067   7.983   5.886  0.6842  0.3048  0.3628
  898MOL0     C21136   9.160   7.863   5.856  0.3567 -0.0382 -0.2304
  898MOL0     C21137   9.283   7.861   5.938 -0.6114 -0.5899  0.0185
  898MOL0     C21138   9.379   7.747   5.917 -0.7207  0.8345  0.0587
  898MOL0     C21139   9.520   7.761   5.970  0.2189 -0.4293 -0.6874
  898MOL0    Cl21140   9.600   7.614   5.927 -0.1616  0.6580 -0.3984
  898MOL0     C21141   8.513   8.384   5.711  0.2197  0.5036 -1.4345
  898MOL0     C21142   8.417   8.438   5.630 -0.0473  0.7341 -0.4559
  898MOL0     O21143   8.110   8.440   5.514 -0.6459  0.3033  0.1008
  898MOL0     C21144   8.222   8.586   5.207  0.4600 -0.3859  0.7737
  898MOL0     C21145   8.194   8.669   5.101 -0.0224  0.2995 -1.3562
  898MOL0     N21146   8.218   8.982   4.407 -0.7152  0.7317 -0.4013
  898MOL0     N21147   8.298   9.005   4.319 -0.3987 -0.3477 -0.8055
  898MOL0     C21148   9.570   8.783   4.357 -0.0600  0.6607 -0.9873
  898MOL0     C21149   9.699   8.764   4.408 -0.3090 -0.9832 -0.0113
  898MOL0     C21150  10.110   8.532   4.487 -0.5932 -0.8605 -0.7615
  898MOL0     C21151  10.190   8.415   4.508 -0.9936 -0.3083  0.1096
  898MOL0     C21152  10.316   8.429   4.565  0.2705  0.5931  0.1150
  898MOL0     C21153  10.362   8.545   4.613 -0.2307 -0.5715  0.3721
  898MOL0     O21154  10.484   8.535   4.680 -0.3073 -0.1706  0.1243
  898MOL0     C21155  10.601   8.558   4.597 -0.3748 -0.3195 -0.2031
  898MOL0     C21156  10.720   8.617   4.675 -1.1045  0.5970 -1.2072
  898MOL0     C21157  10.775   8.544   4.789  0.4645 -0.1899 -0.6948
  898MOL0     C21158  10.827   8.629   4.904 -0.0081  0.5356 -1.1620
  898MOL0     C21159  10.820   8.541   5.024 -0.4416 -0.0385  0.2986
  898MOL0     C21160  10.811   8.497   5.133 -0.9876 -0.2970 -0.3886
  898MOL0     C21161  10.291   8.659   4.591 -0.8092  0.4100 -1.0935
  898MOL0     C21162  10.166   8.654   4.532  0.2398 -0.5644  0.5785
  898MOL0     H21163   9.777   8.482   4.253 -0.7629 -2.7139  3.8018
  898MOL0     H21164   9.542   8.514   4.166 -2.0226  2.2648 -1.2719
  898MOL0     H21165   9.349   8.599   4.088 -1.4200  1.4472 -0.3390
  898MOL0     H21166   9.277   8.559   4.247 -0.0332 -1.9747 -1.2836
  898MOL0     H21167   9.173   8.789   4.075 -0.5585 -0.7386 -0.0637
  898MOL0     H21168   9.110   8.638   4.109  0.2389 -0.8843  1.5262
  898MOL0     H21169   9.057   8.680   4.344 -0.7887  0.0813  0.6704
  898MOL0     H21170   9.140   8.844   4.324  0.5400  0.7793 -2.8739
  898MOL0     H21171   8.988   8.900   4.145 -2.2874  1.7250 -0.1497
  898MOL0     H21172   8.894   8.750   4.157 -1.1492 -0.4909  2.0482
  898MOL0     H21173   8.843   8.789   4.381 -0.4606  0.4005  1.0996
  898MOL0     H21174   8.955   8.926   4.388 -0.6247 -0.2602  0.4921
  898MOL0     H21175   8.812   9.070   4.286 -2.0218  0.7839  0.4879
  898MOL0     H21176   8.752   8.960   4.164 -2.0054 -1.5350  0.5507
  898MOL0     H21177   8.597   8.850   4.340  1.3923 -1.1868  1.0051
  898MOL0     H21178   8.667   8.962   4.465  0.0663  1.7817 -0.2408
  898MOL0     H21179   8.552   9.060   4.198  2.1699 -0.5748 -0.0042
  898MOL0     H21180   8.597   9.154   4.350  4.6617 -2.5584  0.9422
  898MOL0     H21181   8.459   9.101   4.591 -1.1669  0.5950  0.1489
  898MOL0     H21182   8.268   9.021   4.743 -0.5769  0.7523 -0.1931
  898MOL0     H21183   8.168   9.148   4.665 -1.8073  0.3902 -0.6609
  898MOL0     H21184   8.108   8.850   4.631  0.0981  0.6465 -0.9382
  898MOL0     H21185   7.983   8.977   4.602 -1.7290 -2.0666  1.7252
  898MOL0     H21186   7.909   8.912   4.799 -0.6850  1.6815 -0.8509
  898MOL0     H21187   8.023   9.025   4.865  1.3874  1.1169 -1.6488
  898MOL0     H21188   8.188   8.857   4.909  1.1853  1.9089 -2.0359
  898MOL0     H21189   8.091   8.738   4.819  1.2666  0.3943  0.2872
  898MOL0     H21190   7.888   8.764   5.200  0.3398 -0.7572 -2.5273
  898MOL0     H21191   7.971   8.647   5.505  0.9527  1.1300 -1.0326
  898MOL0     H21192   7.851   8.718   5.399 -0.6515  0.2711 -0.2571
  898MOL0     H21193   7.860   8.541   5.389  1.2172 -0.2683 -2.8579
  898MOL0     H21194   8.397   8.191   5.406 -0.9005  2.3401 -0.4202
  898MOL0     H21195   8.570   8.088   5.553  3.5660  0.3691  0.7780
  898MOL0     H21196   8.668   8.014   5.747  0.2923  0.0926  1.1722
  898MOL0     H21197   8.785   8.111   5.646 -1.8550 -3.6469 -0.4799
  898MOL0     H21198   8.892   8.177   5.860  3.0262 -0.8249  1.5929
  898MOL0     H21199   8.806   8.053   5.946  2.1753  1.2097  0.3338
  898MOL0     H21200   8.966   8.028   5.691  0.7040  2.2648  1.4219
  898MOL0     H21201   8.897   7.892   5.771 -2.5122  1.6800 -1.0077
  898MOL0     H21202   9.122   8.077   5.883 -0.1576  0.8033 -1.3445
  898MOL0     H21203   9.030   7.970   5.988  0.3424 -0.7640  0.1168
  898MOL0     H21204   9.178   7.853   5.749 -1.8258  0.7022 -0.7254
  898MOL0     H21205   9.117   7.764   5.876  1.2248 -0.0911  1.5527
  898MOL0     H21206   9.331   7.959   5.926 -3.2853  0.7830 -0.2528
  898MOL0     H21207   9.250   7.845   6.041  2.7968 -2.8553  0.9431
  898MOL0     H21208   9.393   7.732   5.809  4.7361  0.8655  0.4585
  898MOL0     H21209   9.334   7.654   5.952 -0.2844  0.7286  0.3469
  898MOL0     H21210   9.525   7.751   6.078  1.2163 -1.9476 -0.8524
  898MOL0     H21211   9.570   7.852   5.937  0.2720 -0.1317  0.1886
  898MOL0     H21212   8.532   8.436   5.804  2.1350 -2.5553  0.0638
  898MOL0     H21213   8.388   8.542   5.640  1.5464  1.0551  1.4742
  898MOL0     H21214   8.312   8.526   5.194  0.0735 -0.4861 -2.2619
  898MOL0     H21215   8.263   8.677   5.018 -0.0460  1.2130 -1.2977
  898MOL0     H21216   9.514   8.869   4.392  0.1919 -0.3639  2.2845
  898MOL0     H21217   9.730   8.838   4.481  0.4747 -1.6916  0.3922
  898MOL0     H21218  10.146   8.323   4.470 -2.0977  0.3255 -0.1862
  898MOL0     H21219  10.379   8.341   4.571  0.1452  0.1497 -3.0131
  898MOL0     H21220  10.618   8.462   4.547 -0.8552 -0.7042  0.3666
  898MOL0     H21221  10.582   8.626   4.514  0.2156 -0.7727 -0.7191
  898MOL0     H21222  10.694   8.720   4.703  3.1398  1.8148 -1.1351
  898MOL0     H21223  10.805   8.627   4.607  2.1106  1.1595  2.5789
  898MOL0     H21224  10.864   8.491   4.753  0.4038  0.9698 -2.6714
  898MOL0     H21225  10.698   8.472   4.819 -0.5566  0.0501 -2.6065
  898MOL0     H21226  10.761   8.716   4.918  1.0212  1.6026 -2.5793
  898MOL0     H21227  10.931   8.657   4.887  0.1654  0.2712 -0.5562
  898MOL0     H21228  10.808   8.454   5.231 -0.4117 -2.4115 -1.2449
  898MOL0     H21229  10.329   8.756   4.620 -1.1987  0.7038 -1.5621
  898MOL0     H21230  10.110   8.746   4.515  0.4514 -0.5076  0.1811
  899MOL0     O21231   2.794   3.297   5.001 -0.1739 -0.0706  0.0058
  899MOL0     C21232   2.798   3.174   4.998 -0.4406 -0.0290 -0.4811
  899MOL0     O21233   2.685   3.100   4.970 -0.5858  0.7962 -0.4197
  899MOL0     C21234   2.580   3.164   4.923  0.7504  0.0586 -0.1547
  899MOL0     C21235   2.575   3.193   4.781 -0.1654  0.3762 -0.4521
  899MOL0     C21236   2.480   3.281   4.740  0.0552 -0.1237 -0.4340
  899MOL0     C21237   2.375   3.327   4.826 -0.1322 -0.6825 -0.0455
  899MOL0     O21238   2.267   3.408   4.787  0.4536  0.5933  0.8467
  899MOL0     C21239   2.195   3.370   4.676 -0.2156  0.4716  1.0557
  899MOL0     C21240   2.042   3.412   4.676 -0.2494  0.2598 -0.2173
  899MOL0     C21241   2.022   3.559   4.709  0.4147 -0.4749 -0.2342
  899MOL0     C21242   1.878   3.606   4.693 -0.5326  1.5447 -1.0759
  899MOL0     C21243   1.790   3.549   4.805  0.0351 -0.5870 -0.1509
  899MOL0     C21244   1.657   3.619   4.805 -0.2087 -0.0619  0.3346
  899MOL0     C21245   1.582   3.603   4.938  0.3950 -0.5756 -0.0075
  899MOL0     C21246   1.458   3.696   4.953  0.2794  0.3929  0.3762
  899MOL0     N21247   1.331   3.647   4.892 -0.8235  0.6263  0.0347
  899MOL0     C21248   1.239   3.560   4.955 -0.0669  0.1959 -0.3805
  899MOL0     C21249   1.163   3.516   4.851 -0.0016 -0.0381  0.3350
  899MOL0     C21250   1.066   3.403   4.853  0.3538  0.8175  0.1977
  899MOL0     C21251   1.141   3.269   4.848  0.8252 -0.7745  0.7152
  899MOL0     C21252   1.042   3.155   4.832  0.7876 -0.8984  0.0488
  899MOL0     C21253   0.972   3.156   4.697  0.4703  0.3192 -0.1858
  899MOL0     O21254   1.072   3.161   4.597 -0.4998 -0.3263 -0.3596
  899MOL0     C21255   1.151   3.050   4.559 -0.1629 -0.0933 -0.0302
  899MOL0     C21256   1.137   2.920   4.605  0.1153  0.6658  0.9949
  899MOL0     C21257   1.225   2.815   4.563  0.1582 -0.1337  0.2527
  899MOL0     C21258   1.204   2.684   4.622 -0.2868 -0.0070  0.2648
  899MOL0     C21259   1.326   2.844   4.471 -0.1667  0.2811 -0.2243
  899MOL0     C21260   1.426   2.739   4.426  0.3385  0.5989 -0.2526
  899MOL0     O21261   1.557   2.760   4.459  0.6502 -1.1109 -0.0429
  899MOL0     C21262   1.646   2.676   4.406 -0.2560 -0.5973 -0.3506
  899MOL0     C21263   1.675   2.553   4.454  0.2919 -0.4614  1.1596
  899MOL0     C21264   1.781   2.476   4.413  0.0917 -0.0665 -0.0876
  899MOL0     C21265   1.866   2.530   4.314  0.3347  0.9215 -0.1522
  899MOL0     O21266   1.981   2.465   4.263  0.4307  0.0549 -0.8306
  899MOL0     C21267   2.010   2.332   4.315 -0.3890 -0.6072  0.4405
  899MOL0     C21268   2.118   2.272   4.220  0.0992 -0.2710  0.4796
  899MOL0     C21269   2.233   2.365   4.187  0.5934  0.1043 -0.7876
  899MOL0     C21270   2.298   2.424   4.310  0.5040 -0.5467 -0.1899
  899MOL0     C21271   2.440   2.481   4.285  0.6953 -0.3460 -0.0284
  899MOL0     C21272   2.444   2.580   4.174 -0.1595  0.3507  0.6973
  899MOL0     C21273   2.592   2.625   4.151 -0.2233 -0.2591  0.6661
  899MOL0     C21274   2.622   2.681   4.008  0.9667  0.0714  0.5258
  899MOL0    Cl21275   2.546   2.844   3.964 -0.3417  0.2962  0.0145
  899MOL0     C21276   1.842   2.660   4.269  0.4377  0.2790 -0.0021
  899MOL0     C21277   1.736   2.734   4.314 -0.8093  0.0644 -0.0342
  899MOL0     O21278   1.390   2.644   4.354  0.5037  0.2993 -0.1965
  899MOL0     C21279   1.326   2.965   4.413  0.1167  0.1267  0.5245
  899MOL0     C21280   1.242   3.071   4.456 -0.9369  0.6097  0.0913
  899MOL0     N21281   1.195   3.585   4.734 -0.4807  0.1372 -0.4892
  899MOL0     N21282   1.294   3.663   4.759  0.7477  0.0634  0.6557
  899MOL0     C21283   2.387   3.307   4.960 -0.1988  0.9782  0.1323
  899MOL0     C21284   2.488   3.225   5.010  0.5343 -0.2620 -0.3541
  899MOL0     C21285   2.927   3.102   5.021  0.7619  0.1668  0.0895
  899MOL0     C21286   3.051   3.158   4.980  0.0838 -0.5037  0.9494
  899MOL0     C21287   3.171   3.090   5.018 -0.2680 -0.4542  0.3067
  899MOL0     C21288   3.172   2.970   5.077 -0.0579 -0.1132  0.2208
  899MOL0     O21289   3.286   2.883   5.090  0.4132  0.2617 -0.1531
  899MOL0     C21290   3.417   2.912   5.043 -0.4388  0.1096  0.0546
  899MOL0     C21291   3.510   2.856   5.134 -0.5312  0.1292  0.6937
  899MOL0     C21292   3.519   2.944   5.265  0.2032  0.1751  0.1541
  899MOL0     C21293   3.630   2.891   5.354  0.1358 -0.3373  0.0171
  899MOL0     C21294   3.633   2.748   5.352  0.6649  0.9657  0.4603
  899MOL0     C21295   3.632   2.626   5.345  0.0147  0.7828 -0.0297
  899MOL0     C21296   3.049   2.915   5.100  0.6988  0.7758 -0.7229
  899MOL0     C21297   2.924   2.974   5.080 -0.0094  0.1063 -1.3654
  899MOL0     H21298   2.647   3.171   4.703 -0.9252  0.6624 -1.2436
  899MOL0     H21299   2.470   3.313   4.637  2.6260  1.0130 -0.3999
  899MOL0     H21300   2.244   3.411   4.587 -1.4875  0.2448  0.2187
  899MOL0     H21301   2.208   3.262   4.667  1.0897  0.5667  1.6421
  899MOL0     H21302   2.003   3.400   4.574 -0.1384  1.1679 -0.3676
  899MOL0     H21303   1.981   3.349   4.741  2.1169 -0.1389  1.7699
  899MOL0     H21304   2.051   3.577   4.814  0.8398 -1.5167 -0.1564
  899MOL0     H21305   2.086   3.623   4.648  1.0527 -0.3801  0.5028
  899MOL0     H21306   1.877   3.715   4.699 -0.5075  1.4783  1.0897
  899MOL0     H21307   1.830   3.574   4.600  1.4602 -1.9882 -1.0879
  899MOL0     H21308   1.766   3.442   4.808 -1.2110 -0.3399 -0.5745
  899MOL0     H21309   1.836   3.575   4.901 -1.1968  0.0973  0.2759
  899MOL0     H21310   1.682   3.725   4.798 -1.1440  0.2635  1.4267
  899MOL0     H21311   1.603   3.591   4.714 -1.0860  0.7628  0.5755
  899MOL0     H21312   1.560   3.497   4.951 -1.0376 -0.7250 -2.7129
  899MOL0     H21313   1.655   3.629   5.015 -1.5783 -1.7023  2.3593
  899MOL0     H21314   1.492   3.792   4.912  0.7422  1.5566  3.2306
  899MOL0     H21315   1.447   3.702   5.062 -0.4209 -0.6573  0.3743
  899MOL0     H21316   1.243   3.505   5.049  0.6441  1.5583  0.4219
  899MOL0     H21317   0.993   3.411   4.935  2.5397  0.2034  2.3203
  899MOL0     H21318   1.011   3.414   4.759  1.2622 -2.4143 -0.8518
  899MOL0     H21319   1.190   3.251   4.944 -1.5083  0.9625  2.3450
  899MOL0     H21320   1.214   3.279   4.767  0.8556 -0.3977  0.7893
  899MOL0     H21321   0.965   3.158   4.909  0.1888 -0.4032 -0.5566
  899MOL0     H21322   1.083   3.061   4.870 -0.4598 -1.4492  0.0737
  899MOL0     H21323   0.910   3.245   4.689 -0.7641 -0.0126  3.8194
  899MOL0     H21324   0.904   3.072   4.679 -1.5983  2.2384 -1.9520
  899MOL0     H21325   1.064   2.898   4.682  1.3003 -1.1987  1.6770
  899MOL0     H21326   1.167   2.617   4.544 -1.9710  0.0442  0.9784
  899MOL0     H21327   1.296   2.646   4.667  0.9284  1.7578 -0.6259
  899MOL0     H21328   1.120   2.670   4.691 -2.2886 -3.7187 -2.5724
  899MOL0     H21329   1.608   2.522   4.534  0.4291  1.5138  2.1166
  899MOL0     H21330   1.795   2.374   4.448 -0.7833 -0.0262  0.4159
  899MOL0     H21331   2.042   2.350   4.418  2.0883  2.7824 -0.7462
  899MOL0     H21332   1.925   2.264   4.325 -1.6970  0.8666 -0.1210
  899MOL0     H21333   2.157   2.178   4.261  1.6215 -0.9647 -2.2799
  899MOL0     H21334   2.073   2.247   4.124 -2.0167 -0.2119  1.4046
  899MOL0     H21335   2.199   2.449   4.125 -2.7336 -0.3405  0.2060
  899MOL0     H21336   2.313   2.302   4.149 -0.2155 -0.3927 -1.7070
  899MOL0     H21337   2.233   2.509   4.331 -0.6121 -1.8853  2.1227
  899MOL0     H21338   2.288   2.355   4.394 -1.7524 -0.5438 -0.3969
  899MOL0     H21339   2.509   2.400   4.258 -2.3933 -2.6810 -1.5155
  899MOL0     H21340   2.472   2.526   4.379  1.3533  2.6744 -1.5775
  899MOL0     H21341   2.415   2.538   4.078  0.5269 -0.2761  0.7606
  899MOL0     H21342   2.377   2.663   4.198  0.0683  0.8846 -0.4573
  899MOL0     H21343   2.668   2.551   4.175 -0.4162 -0.3405  1.0280
  899MOL0     H21344   2.596   2.714   4.215  1.1108 -0.9868  1.6334
  899MOL0     H21345   2.607   2.608   3.928  2.8399  0.0216  0.1701
  899MOL0     H21346   2.729   2.696   4.024  1.8015 -3.3554 -0.8913
  899MOL0     H21347   1.913   2.698   4.196 -1.3662  0.1160 -1.9161
  899MOL0     H21348   1.739   2.836   4.277  0.8898 -0.6406 -2.0071
  899MOL0     H21349   1.399   2.988   4.337 -2.7345  1.6626 -1.9540
  899MOL0     H21350   1.268   3.170   4.417 -0.7995  0.6705  0.3378
  899MOL0     H21351   2.316   3.359   5.024  2.0992  1.0593  2.8040
  899MOL0     H21352   2.497   3.196   5.114 -1.6912  0.5989  0.1468
  899MOL0     H21353   3.045   3.254   4.931 -1.2861  0.2550  2.4936
  899MOL0     H21354   3.264   3.131   4.978 -1.6315 -0.6549 -3.4878
  899MOL0     H21355   3.427   2.869   4.944  2.3262 -0.6172  0.5803
  899MOL0     H21356   3.444   3.017   5.028  1.4283 -0.7245 -3.3156
  899MOL0     H21357   3.609   2.849   5.088 -0.8504 -0.6621  0.0936
  899MOL0     H21358   3.479   2.752   5.154 -1.3351  0.1503 -0.3448
  899MOL0     H21359   3.421   2.946   5.314 -0.0704 -0.3156 -0.3690
  899MOL0     H21360   3.545   3.047   5.238 -0.2949 -0.0957 -1.5094
  899MOL0     H21361   3.622   2.931   5.456 -1.7185 -1.4930  0.3813
  899MOL0     H21362   3.728   2.934   5.335  0.9717  0.3290  4.5154
  899MOL0     H21363   3.648   2.521   5.332 -1.8748  0.6001 -1.1917
  899MOL0     H21364   3.061   2.816   5.142  0.4215  0.8486 -0.4602
  899MOL0     H21365   2.836   2.922   5.118  0.3218  1.1798  1.0951
  900MOL0     O21366   3.100   1.413  11.190 -0.1321  0.1452 -0.1648
  900MOL0     C21367   3.099   1.394  11.067 -1.1822  0.7998  0.7355
  900MOL0     O21368   2.997   1.361  10.992  0.7040  0.0913  0.0789
  900MOL0     C21369   2.879   1.315  11.047  0.0929 -0.4048 -0.1606
  900MOL0     C21370   2.825   1.344  11.175  0.3328 -0.2801 -0.5970
  900MOL0     C21371   2.706   1.278  11.217 -0.3720 -0.6180  0.1979
  900MOL0     C21372   2.643   1.181  11.143 -0.2205  0.0924 -0.1861
  900MOL0     O21373   2.538   1.113  11.198  0.0613 -0.1429  0.9005
  900MOL0     C21374   2.426   1.193  11.231 -0.2243 -0.1890 -0.5645
  900MOL0     C21375   2.337   1.221  11.121  0.3411  0.1324  0.5098
  900MOL0     C21376   2.229   1.323  11.166 -0.3839 -1.0397  0.0979
  900MOL0     C21377   2.142   1.346  11.033  0.4104 -0.0455  0.4594
  900MOL0     C21378   2.070   1.483  11.043  0.1294 -0.3530 -0.9300
  900MOL0     C21379   1.977   1.494  10.922 -0.4124  0.2787  0.7740
  900MOL0     C21380   1.906   1.631  10.899 -0.3043  0.0666 -0.1885
  900MOL0     C21381   1.802   1.653  11.018 -0.4797  0.5924 -0.4480
  900MOL0     N21382   1.733   1.785  11.021  0.5657  0.2809 -0.0734
  900MOL0     C21383   1.646   1.825  11.118 -0.2858  0.2121 -0.4455
  900MOL0     C21384   1.594   1.940  11.073 -0.0174 -0.4289  0.2605
  900MOL0     C21385   1.470   2.025  11.124 -0.0779 -0.1023 -0.3542
  900MOL0     C21386   1.331   1.986  11.072  0.2392 -0.4915  0.2553
  900MOL0     C21387   1.215   2.063  11.129 -0.0148  0.4343  0.5213
  900MOL0     C21388   1.080   2.016  11.088  0.6984  0.8963 -0.6407
  900MOL0     O21389   0.974   2.102  11.128 -0.3785 -0.2398  0.0274
  900MOL0     C21390   0.847   2.045  11.137 -0.8389 -0.4624  0.3416
  900MOL0     C21391   0.745   2.095  11.057 -0.1068 -0.0967  0.2539
  900MOL0     C21392   0.629   2.028  11.041 -0.5839  0.4812  0.6044
  900MOL0     C21393   0.514   2.100  10.964 -0.2042 -0.6665  0.8823
  900MOL0     C21394   0.602   1.906  11.108  0.1295 -0.7660 -0.7000
  900MOL0     C21395   0.482   1.826  11.102  0.4695  0.6477  0.8493
  900MOL0     O21396   0.437   1.755  11.207 -0.2537  0.4193  0.2405
  900MOL0     C21397   0.303   1.724  11.203  0.5650  0.1690 -0.7821
  900MOL0     C21398   0.198   1.823  11.205 -0.1757  0.7343 -0.5036
  900MOL0     C21399   0.063   1.772  11.224 -0.3635  0.4228  0.0274
  900MOL0     C21400   0.035   1.637  11.225 -0.3103  0.2079 -0.3813
  900MOL0     O21401  -0.093   1.590  11.237  0.5526  0.6643 -0.7851
  900MOL0     C21402  -0.131   1.488  11.147 -0.1190 -0.1898  0.1989
  900MOL0     C21403  -0.275   1.450  11.187 -0.1116 -0.0471 -0.0839
  900MOL0     C21404  -0.347   1.386  11.069 -0.7460  0.6547 -0.4611
  900MOL0     C21405  -0.355   1.488  10.949 -0.2259 -0.1089 -0.0691
  900MOL0     C21406  -0.447   1.441  10.843  0.1082  0.1857 -0.1217
  900MOL0     C21407  -0.402   1.305  10.775  0.9172 -0.0895 -0.5759
  900MOL0     C21408  -0.275   1.322  10.708 -0.2847 -0.2078 -0.4046
  900MOL0     C21409  -0.252   1.180  10.643 -0.4180  0.2598  0.6205
  900MOL0    Cl21410  -0.243   1.035  10.752 -0.0884  0.0840 -0.1284
  900MOL0     C21411   0.141   1.545  11.241  1.1842 -0.2659  0.1346
  900MOL0     C21412   0.275   1.587  11.228  0.2278 -0.5562  0.6646
  900MOL0     O21413   0.426   1.829  10.990  0.4685  0.2438 -0.4459
  900MOL0     C21414   0.692   1.877  11.213  0.0966  0.8089 -0.2192
  900MOL0     C21415   0.820   1.934  11.219  0.2801 -0.1475 -1.1868
  900MOL0     N21416   1.654   1.972  10.952 -0.4167 -0.8864 -0.1844
  900MOL0     N21417   1.721   1.872  10.913  0.6650  0.9418  0.2217
  900MOL0     C21418   2.692   1.157  11.016 -0.2769 -0.5111  0.0299
  900MOL0     C21419   2.800   1.226  10.966  0.3749 -0.7624  0.6325
  900MOL0     C21420   3.234   1.412  10.992 -0.0040 -0.6868 -0.4577
  900MOL0     C21421   3.249   1.350  10.864 -0.2291  0.5727 -1.0548
  900MOL0     C21422   3.370   1.350  10.796 -0.0756  0.5235  0.4461
  900MOL0     C21423   3.476   1.412  10.855 -0.2366  0.0877 -0.2525
  900MOL0     O21424   3.600   1.417  10.810 -0.1575 -0.9251  0.6426
  900MOL0     C21425   3.649   1.302  10.729  0.7209  0.1774 -0.5916
  900MOL0     C21426   3.800   1.286  10.757  0.0217 -0.4368  0.1266
  900MOL0     C21427   3.855   1.149  10.735 -0.2490 -0.6030 -0.9282
  900MOL0     C21428   3.996   1.112  10.788  0.7636 -0.7481 -0.3637
  900MOL0     C21429   4.096   1.200  10.733 -0.0919 -0.2702  0.4227
  900MOL0     C21430   4.181   1.271  10.677  0.0622  0.4288  0.1879
  900MOL0     C21431   3.468   1.479  10.975 -0.4595  0.0311 -0.5929
  900MOL0     C21432   3.347   1.471  11.052 -0.1376  0.0275 -0.2486
  900MOL0     H21433   2.864   1.409  11.253  2.9205 -0.3216 -1.7437
  900MOL0     H21434   2.673   1.315  11.314  2.4751  2.2151  0.2408
  900MOL0     H21435   2.363   1.129  11.293  1.0814 -0.0166  1.0274
  900MOL0     H21436   2.446   1.288  11.282 -1.4949  0.3029 -0.9334
  900MOL0     H21437   2.397   1.264  11.039 -1.8154 -0.7180 -1.6128
  900MOL0     H21438   2.293   1.126  11.091  0.0368  0.2162  0.6877
  900MOL0     H21439   2.172   1.294  11.255 -2.6392 -0.3373 -1.0344
  900MOL0     H21440   2.276   1.417  11.196 -1.2619 -0.4413 -0.3421
  900MOL0     H21441   2.210   1.341  10.948 -1.1321 -4.2929 -0.7610
  900MOL0     H21442   2.069   1.265  11.025 -1.2358  1.4402 -0.1520
  900MOL0     H21443   2.021   1.487  11.141  2.1534 -1.8310  0.2047
  900MOL0     H21444   2.145   1.561  11.030 -0.2088 -0.0219 -0.9332
  900MOL0     H21445   2.041   1.483  10.835 -0.8538 -2.2040  0.6767
  900MOL0     H21446   1.908   1.409  10.922  0.5160 -0.4938  1.4628
  900MOL0     H21447   1.974   1.716  10.905 -0.6335  0.2267  2.3182
  900MOL0     H21448   1.851   1.636  10.804  0.8224  1.3814 -0.8060
  900MOL0     H21449   1.855   1.646  11.113 -0.2722  0.8917 -0.5389
  900MOL0     H21450   1.734   1.568  11.020  0.5130 -0.2103  1.2029
  900MOL0     H21451   1.622   1.779  11.213 -1.6542 -0.3314 -1.0128
  900MOL0     H21452   1.476   2.016  11.233  4.1447 -0.3372 -0.4649
  900MOL0     H21453   1.492   2.130  11.101  1.4822 -0.4874 -0.7420
  900MOL0     H21454   1.315   1.882  11.103  1.9988 -0.1245  2.6145
  900MOL0     H21455   1.330   1.997  10.963  0.0123 -1.2725  0.1736
  900MOL0     H21456   1.228   2.170  11.113  0.8261  0.6821  2.5887
  900MOL0     H21457   1.211   2.055  11.238 -2.8449  3.0539  0.7472
  900MOL0     H21458   1.056   1.921  11.137 -0.4326  1.8793  0.7912
  900MOL0     H21459   1.075   2.001  10.980 -1.3375  1.7475 -0.7168
  900MOL0     H21460   0.767   2.190  11.008 -0.4595  0.3481  0.9486
  900MOL0     H21461   0.430   2.087  11.033 -0.2158  2.3540  1.5467
  900MOL0     H21462   0.532   2.207  10.957 -1.1051 -0.5868 -0.5338
  900MOL0     H21463   0.493   2.056  10.866 -2.2797  0.0809  0.9588
  900MOL0     H21464   0.220   1.928  11.191 -0.5009  1.0470  1.1443
  900MOL0     H21465  -0.020   1.841  11.213 -0.4560  0.2145 -0.6041
  900MOL0     H21466  -0.108   1.523  11.046  0.9930 -0.1360  0.4589
  900MOL0     H21467  -0.065   1.402  11.158  3.1327  2.2014  1.0181
  900MOL0     H21468  -0.270   1.376  11.267  1.1248  0.2068  0.1008
  900MOL0     H21469  -0.330   1.534  11.231  0.9058  0.0482  1.0479
  900MOL0     H21470  -0.444   1.358  11.110  0.6244 -1.3020  1.7230
  900MOL0     H21471  -0.308   1.298  11.017 -0.9613  1.4608 -2.0726
  900MOL0     H21472  -0.384   1.583  10.995 -0.7232 -0.6556  0.7819
  900MOL0     H21473  -0.252   1.504  10.917 -0.4937  1.6622 -0.1193
  900MOL0     H21474  -0.453   1.517  10.766 -1.1319  1.2813  1.0222
  900MOL0     H21475  -0.547   1.421  10.882  0.8679 -0.1501  1.7648
  900MOL0     H21476  -0.398   1.230  10.855  0.7249 -0.0841 -0.5617
  900MOL0     H21477  -0.480   1.279  10.703  0.1242  0.2154  0.1499
  900MOL0     H21478  -0.188   1.326  10.774 -0.4776 -2.2104  0.0349
  900MOL0     H21479  -0.276   1.408  10.640 -0.0486  0.7349  0.7490
  900MOL0     H21480  -0.157   1.189  10.590 -2.1733  0.4355 -2.7667
  900MOL0     H21481  -0.332   1.172  10.568 -0.1109  1.5941  0.1124
  900MOL0     H21482   0.130   1.438  11.254 -1.3865 -0.6351 -3.4416
  900MOL0     H21483   0.352   1.511  11.237 -0.4670 -1.3429  0.1223
  900MOL0     H21484   0.663   1.792  11.275  1.4383  0.7918  0.4026
  900MOL0     H21485   0.895   1.890  11.284 -0.2082 -0.7401 -1.0188
  900MOL0     H21486   2.652   1.074  10.959 -2.3284 -0.0031  0.6282
  900MOL0     H21487   2.844   1.199  10.871  0.6571 -0.0625  0.5547
  900MOL0     H21488   3.173   1.301  10.804  0.9289  0.8576 -2.8304
  900MOL0     H21489   3.381   1.292  10.705 -0.5473  1.0057  0.0747
  900MOL0     H21490   3.599   1.213  10.768  0.5243  0.5634  0.0528
  900MOL0     H21491   3.631   1.308  10.621  0.2008 -0.8617 -0.5663
  900MOL0     H21492   3.830   1.313  10.859  1.2860 -0.1088 -0.3187
  900MOL0     H21493   3.843   1.361  10.690  0.5114  0.5376  1.4689
  900MOL0     H21494   3.844   1.134  10.627 -1.6998 -0.3786 -0.8311
  900MOL0     H21495   3.783   1.077  10.775 -0.2561 -0.8677 -1.4143
  900MOL0     H21496   4.021   1.007  10.768 -0.6285 -1.4067  1.1298
  900MOL0     H21497   3.998   1.112  10.897 -0.3006 -2.2556 -0.3081
  900MOL0     H21498   4.260   1.331  10.637  1.8435  0.2276  3.0660
  900MOL0     H21499   3.560   1.515  11.021 -1.1189 -1.4828  2.1396
  900MOL0     H21500   3.332   1.507  11.153 -3.6990  0.4475 -0.8007
  901MOL0     O21501   7.477   9.932   0.683  0.5457  0.3694 -0.4317
  901MOL0     C21502   7.565   9.953   0.768  0.0265 -0.1052  0.3803
  901MOL0     O21503   7.545   9.999   0.893 -0.2620 -0.8462 -0.6356
  901MOL0     C21504   7.420  10.031   0.934 -0.2127 -0.1266 -0.3788
  901MOL0     C21505   7.402  10.156   0.976 -0.2756 -0.8908  0.2597
  901MOL0     C21506   7.273  10.196   1.011 -0.3623 -0.2154 -0.8258
  901MOL0     C21507   7.161  10.112   1.018 -0.3362  0.2281  1.7907
  901MOL0     O21508   7.042  10.172   1.051  0.4442 -0.0023  0.3579
  901MOL0     C21509   6.917  10.109   1.025 -0.4632  0.1339  0.3258
  901MOL0     C21510   6.810  10.179   1.100  0.3769  0.6320 -0.7645
  901MOL0     C21511   6.673  10.111   1.089 -0.1274  0.6250  1.0304
  901MOL0     C21512   6.570  10.159   1.195  0.8550  0.6531  0.2294
  901MOL0     C21513   6.451  10.067   1.188 -0.4261 -0.2692  0.2922
  901MOL0     C21514   6.367  10.082   1.066  0.9302  0.0529 -0.0228
  901MOL0     C21515   6.267   9.955   1.047  0.1399  0.2766 -1.5235
  901MOL0     C21516   6.333   9.841   0.954 -0.1514  0.8568 -0.1957
  901MOL0     N21517   6.434   9.754   1.024  0.6369  0.0809 -0.5539
  901MOL0     C21518   6.411   9.669   1.125  0.3706  0.0602  0.9014
  901MOL0     C21519   6.523   9.605   1.152 -0.1891 -0.4911  0.0461
  901MOL0     C21520   6.564   9.504   1.256 -0.6628 -0.3383 -1.0229
  901MOL0     C21521   6.447   9.411   1.301  0.4974  0.2398  0.0818
  901MOL0     C21522   6.441   9.282   1.213 -0.2257 -0.3673 -1.7083
  901MOL0     C21523   6.323   9.197   1.233 -0.0782 -0.1599 -1.1524
  901MOL0     O21524   6.195   9.250   1.205  0.4072  0.3097  0.3773
  901MOL0     C21525   6.086   9.184   1.260 -0.2685  0.4915 -0.3765
  901MOL0     C21526   6.012   9.256   1.358 -0.3208 -0.0631  0.1448
  901MOL0     C21527   5.907   9.209   1.430 -0.0479  0.6710  0.8215
  901MOL0     C21528   5.852   9.285   1.544  0.2963 -0.3882  0.1177
  901MOL0     C21529   5.846   9.093   1.370  0.3915 -0.8880 -0.3927
  901MOL0     C21530   5.723   9.042   1.433  1.0620 -0.7203  0.0706
  901MOL0     O21531   5.716   9.041   1.570 -0.2849  0.4350  0.5909
  901MOL0     C21532   5.618   8.975   1.633  1.3645  0.3884 -0.3964
  901MOL0     C21533   5.652   8.908   1.753 -0.6540 -1.0575 -0.6278
  901MOL0     C21534   5.567   8.864   1.848 -0.5416 -0.0815  0.1264
  901MOL0     C21535   5.424   8.880   1.827  0.8481  0.4587  0.1057
  901MOL0     O21536   5.330   8.844   1.915  0.3234  0.6507 -0.3487
  901MOL0     C21537   5.370   8.770   2.036 -0.4827  0.3309  0.1967
  901MOL0     C21538   5.252   8.749   2.118 -0.1079  0.5781 -0.7921
  901MOL0     C21539   5.158   8.644   2.060  0.1226  0.0265 -0.1986
  901MOL0     C21540   5.033   8.626   2.153  0.2835  0.7711 -0.5279
  901MOL0     C21541   4.937   8.533   2.087  0.5400  0.4459 -0.1430
  901MOL0     C21542   4.817   8.491   2.174 -0.2289  0.3270 -0.6668
  901MOL0     C21543   4.866   8.391   2.290  0.0239 -0.5361  0.4614
  901MOL0     C21544   4.732   8.333   2.350  0.7057  0.2214 -0.3231
  901MOL0    Cl21545   4.596   8.449   2.393  0.4697  0.1199  0.2919
  901MOL0     C21546   5.376   8.941   1.705 -0.5203  0.0937  0.1696
  901MOL0     C21547   5.476   8.992   1.605  0.9138  0.1479 -0.1580
  901MOL0     O21548   5.652   8.981   1.361  0.4844 -0.2660  0.3295
  901MOL0     C21549   5.911   9.025   1.267  0.0457 -0.6292  0.2895
  901MOL0     C21550   6.036   9.066   1.210  0.1545 -0.3028 -0.2828
  901MOL0     N21551   6.612   9.645   1.057 -0.6448  0.1128  0.8890
  901MOL0     N21552   6.563   9.737   0.986  0.3969  0.2208  0.6290
  901MOL0     C21553   7.184   9.972   0.992 -0.1416  0.2487  0.8129
  901MOL0     C21554   7.311   9.938   0.941 -0.0548 -0.0588 -0.3534
  901MOL0     C21555   7.707   9.957   0.724  0.4302 -0.2752 -0.0718
  901MOL0     C21556   7.802  10.004   0.803  0.0723  0.4760  0.0947
  901MOL0     C21557   7.936  10.014   0.760  0.2234 -0.9796  0.8257
  901MOL0     C21558   7.976   9.975   0.631  0.0384 -0.3974 -0.5150
  901MOL0     O21559   8.112   9.969   0.612  0.2360  0.5770  0.2802
  901MOL0     C21560   8.163   9.908   0.495  0.1458  0.2182  0.3182
  901MOL0     C21561   8.223   9.775   0.537 -0.4740  0.7500 -0.8661
  901MOL0     C21562   8.341   9.783   0.636 -0.1688  0.7569 -0.1350
  901MOL0     C21563   8.481   9.809   0.576  0.0755 -0.0398  0.0443
  901MOL0     C21564   8.577   9.775   0.689 -0.2583  0.7240  0.0972
  901MOL0     C21565   8.656   9.776   0.786  0.7394  0.2511 -0.8956
  901MOL0     C21566   7.879   9.922   0.550 -0.0164  0.1871  0.7309
  901MOL0     C21567   7.745   9.923   0.595 -0.2326 -0.4735  0.2619
  901MOL0     H21568   7.487  10.221   0.995 -0.0125 -1.7619  2.3704
  901MOL0     H21569   7.261  10.300   1.041  0.7105 -0.5820  1.0709
  901MOL0     H21570   6.891  10.114   0.919  1.0046 -0.7327 -0.1141
  901MOL0     H21571   6.921  10.007   1.066  0.9244  0.5041  1.2051
  901MOL0     H21572   6.836  10.180   1.206 -1.2954  3.3746 -0.2690
  901MOL0     H21573   6.806  10.284   1.070 -0.5833  1.2035  1.2317
  901MOL0     H21574   6.639  10.139   0.989  3.4093 -1.0491 -0.8273
  901MOL0     H21575   6.685  10.002   1.097 -0.6051  0.6869  2.9178
  901MOL0     H21576   6.612  10.146   1.295  2.2917 -1.2084 -0.5511
  901MOL0     H21577   6.543  10.263   1.174  1.3699  0.5011 -1.2862
  901MOL0     H21578   6.484   9.962   1.193 -0.1041 -0.1535  0.6892
  901MOL0     H21579   6.387  10.083   1.276 -1.2769  1.0931 -0.5479
  901MOL0     H21580   6.299  10.166   1.076 -0.2229 -0.5602 -2.0220
  901MOL0     H21581   6.424  10.107   0.976  1.3548  2.2045  0.7967
  901MOL0     H21582   6.251   9.909   1.144  4.5208 -0.2779 -0.8597
  901MOL0     H21583   6.168   9.984   1.012 -2.2939 -1.0746  3.4569
  901MOL0     H21584   6.378   9.892   0.868  2.0280  1.9760  1.4905
  901MOL0     H21585   6.264   9.765   0.918 -1.0738  1.0416  1.1387
  901MOL0     H21586   6.318   9.670   1.180 -0.2460 -1.1046 -0.0810
  901MOL0     H21587   6.638   9.431   1.221  0.4823  0.5391 -0.5072
  901MOL0     H21588   6.610   9.560   1.338  0.4304  1.0734 -2.5382
  901MOL0     H21589   6.353   9.466   1.314  1.2423  1.6445 -0.3377
  901MOL0     H21590   6.476   9.366   1.397 -0.8553 -1.7922 -0.3955
  901MOL0     H21591   6.524   9.213   1.222  0.9035  1.2075  1.7073
  901MOL0     H21592   6.438   9.315   1.109 -2.6775  0.0209 -1.5798
  901MOL0     H21593   6.323   9.165   1.337 -1.3744 -1.4032 -1.5036
  901MOL0     H21594   6.347   9.108   1.175  3.5463  0.0318 -0.1685
  901MOL0     H21595   6.051   9.351   1.393  0.5657 -0.2307 -0.3645
  901MOL0     H21596   5.743   9.278   1.555  0.3036  0.8539  1.3048
  901MOL0     H21597   5.895   9.241   1.635  0.6763  0.1896  0.2247
  901MOL0     H21598   5.868   9.393   1.542 -1.7648 -0.0284  0.3807
  901MOL0     H21599   5.758   8.898   1.771 -1.2009 -2.4218  2.4756
  901MOL0     H21600   5.609   8.818   1.936  0.1573  0.0121 -0.1532
  901MOL0     H21601   5.422   8.677   2.013 -0.0382  1.2800 -3.1423
  901MOL0     H21602   5.433   8.827   2.104 -1.9146  2.3714 -0.0817
  901MOL0     H21603   5.283   8.704   2.213 -2.0360 -1.5962 -1.1051
  901MOL0     H21604   5.191   8.839   2.114 -1.3318 -0.1575  0.5786
  901MOL0     H21605   5.215   8.551   2.052  1.4969  0.8806 -0.8669
  901MOL0     H21606   5.131   8.681   1.960 -3.2611  4.3889  1.9929
  901MOL0     H21607   5.063   8.583   2.249 -1.7038 -0.3293 -0.3373
  901MOL0     H21608   4.992   8.725   2.175 -1.0065  0.3103 -0.7732
  901MOL0     H21609   4.980   8.444   2.040  0.2485 -0.0746  0.5521
  901MOL0     H21610   4.891   8.592   2.008 -1.4101 -1.9498 -0.9062
  901MOL0     H21611   4.773   8.579   2.223  0.1426  0.9025 -1.3426
  901MOL0     H21612   4.745   8.443   2.108  1.2678 -0.4597 -1.7732
  901MOL0     H21613   4.926   8.440   2.368  1.5096 -0.9922 -0.3570
  901MOL0     H21614   4.927   8.308   2.253  0.1066  0.1706 -1.0568
  901MOL0     H21615   4.742   8.263   2.434  1.8638  0.1308 -0.5196
  901MOL0     H21616   4.685   8.267   2.277  1.5197 -1.2402  0.4152
  901MOL0     H21617   5.272   8.942   1.674 -0.1065 -2.0199 -1.4593
  901MOL0     H21618   5.448   9.046   1.515  1.2747  0.2195 -0.2299
  901MOL0     H21619   5.862   8.936   1.227  0.4650 -0.9714  0.5207
  901MOL0     H21620   6.082   9.025   1.121  0.7271 -2.6410  1.0057
  901MOL0     H21621   7.100   9.904   1.005 -1.1545  1.2540 -0.3106
  901MOL0     H21622   7.321   9.832   0.918  0.1223 -0.6050  1.9328
  901MOL0     H21623   7.773  10.034   0.904 -3.0684 -1.2078 -0.1687
  901MOL0     H21624   8.017  10.042   0.826  1.9579 -2.6654 -0.4632
  901MOL0     H21625   8.102   9.900   0.405  1.4725 -1.2682 -0.4928
  901MOL0     H21626   8.247   9.970   0.463  2.8344 -1.7857  2.8901
  901MOL0     H21627   8.247   9.698   0.463 -1.2690 -0.9751  0.6029
  901MOL0     H21628   8.142   9.716   0.581  0.3397 -2.6618 -3.5367
  901MOL0     H21629   8.342   9.688   0.690 -4.6618 -0.3716 -1.6408
  901MOL0     H21630   8.320   9.862   0.708 -1.1334  1.0950 -0.7636
  901MOL0     H21631   8.490   9.909   0.533 -0.9002 -1.1838 -3.0457
  901MOL0     H21632   8.502   9.740   0.493 -0.1947  0.6350 -0.5875
  901MOL0     H21633   8.691   9.788   0.886  0.2089  0.9749 -0.7870
  901MOL0     H21634   7.896   9.878   0.452  1.3566  0.0394  1.0128
  901MOL0     H21635   7.668   9.891   0.525  0.4517  0.6668 -1.0759
  902MOL0     O21636   0.873   7.861   8.298 -0.2833  0.5993  0.1717
  902MOL0     C21637   0.953   7.851   8.391 -0.7278  0.1499  0.0063
  902MOL0     O21638   0.927   7.838   8.520 -0.1825 -0.2716  1.2684
  902MOL0     C21639   0.796   7.831   8.566  0.0101 -0.4651  0.7265
  902MOL0     C21640   0.781   7.898   8.685  0.6234 -0.3443 -0.3053
  902MOL0     C21641   0.665   7.904   8.751 -0.3043  0.1020  0.6119
  902MOL0     C21642   0.564   7.820   8.709 -0.1807  0.3179 -0.6075
  902MOL0     O21643   0.447   7.796   8.781 -0.0623  0.0187  0.4637
  902MOL0     C21644   0.378   7.908   8.836  0.3733 -0.7633  0.4561
  902MOL0     C21645   0.259   7.952   8.755  0.6278 -0.2899  0.9329
  902MOL0     C21646   0.163   7.839   8.731  0.0334 -0.0338 -0.2580
  902MOL0     C21647   0.027   7.902   8.677 -0.6479  0.2225 -0.5413
  902MOL0     C21648  -0.078   7.801   8.641  0.3078  0.4018  0.5029
  902MOL0     C21649  -0.192   7.877   8.567  0.0818  1.7233  0.0106
  902MOL0     C21650  -0.253   7.995   8.630  0.2506 -0.4933  0.4840
  902MOL0     C21651  -0.305   7.966   8.776  0.6360  0.3837  0.4992
  902MOL0     N21652  -0.340   8.092   8.831 -0.1565  0.1039 -0.8469
  902MOL0     C21653  -0.258   8.185   8.891 -0.5869  0.2885 -0.0570
  902MOL0     C21654  -0.343   8.277   8.930  0.5145 -0.3987 -0.0164
  902MOL0     C21655  -0.294   8.403   8.990  0.1356  0.3571 -0.4563
  902MOL0     C21656  -0.303   8.522   8.895 -0.1883 -0.7140  0.3173
  902MOL0     C21657  -0.249   8.638   8.969 -0.0234  0.1734 -0.0850
  902MOL0     C21658  -0.210   8.757   8.885 -0.5875 -0.2377 -0.4453
  902MOL0     O21659  -0.176   8.868   8.973 -0.7527 -0.1558  0.3219
  902MOL0     C21660  -0.045   8.878   9.004 -0.9229  1.0080 -0.3345
  902MOL0     C21661   0.063   8.887   8.908 -0.3432  0.1082  0.1198
  902MOL0     C21662   0.194   8.874   8.947 -0.1497  0.9512 -0.4847
  902MOL0     C21663   0.297   8.873   8.836 -0.5149  0.0055 -0.2547
  902MOL0     C21664   0.223   8.872   9.085  0.8679  0.1338 -0.2135
  902MOL0     C21665   0.359   8.881   9.142 -0.2188  0.1170  0.3033
  902MOL0     O21666   0.365   8.956   9.253  0.1286  0.2121 -0.1249
  902MOL0     C21667   0.489   9.002   9.302 -0.3673  0.9452  0.8509
  902MOL0     C21668   0.585   9.063   9.217 -0.5706  0.4167 -0.2309
  902MOL0     C21669   0.712   9.104   9.263 -0.2158  0.4756 -0.6101
  902MOL0     C21670   0.750   9.063   9.389  0.1700 -0.3396  0.1572
  902MOL0     O21671   0.875   9.096   9.425 -0.1659 -0.5014 -0.2516
  902MOL0     C21672   0.928   9.026   9.534 -0.4374  0.5560  0.3842
  902MOL0     C21673   1.068   9.068   9.556 -1.2614 -0.3663  0.1525
  902MOL0     C21674   1.141   8.988   9.659  0.3954 -0.1042 -0.4739
  902MOL0     C21675   1.281   9.034   9.675  0.4349 -0.9827  1.0608
  902MOL0     C21676   1.341   8.978   9.805 -0.5307 -0.6618  0.2101
  902MOL0     C21677   1.420   8.848   9.779  0.3145  0.0746 -0.3102
  902MOL0     C21678   1.458   8.791   9.914 -0.2174  0.1754 -0.9563
  902MOL0     C21679   1.569   8.679   9.893  0.0571 -0.5146 -0.0237
  902MOL0    Cl21680   1.500   8.530   9.829  0.3630 -0.1287 -0.1993
  902MOL0     C21681   0.657   8.997   9.476  0.5821  0.1629  0.6197
  902MOL0     C21682   0.530   8.957   9.423 -0.3742 -0.5846  0.0461
  902MOL0     O21683   0.454   8.826   9.089 -0.2622  0.0035  0.1971
  902MOL0     C21684   0.117   8.861   9.176  0.3731 -0.5176 -0.6533
  902MOL0     C21685  -0.011   8.860   9.133 -0.2760 -0.4272 -0.1461
  902MOL0     N21686  -0.468   8.239   8.901  0.1654 -0.0770  0.8545
  902MOL0     N21687  -0.471   8.127   8.843 -1.2516 -0.2544  0.5622
  902MOL0     C21688   0.581   7.744   8.596 -0.0424  0.7883 -0.0727
  902MOL0     C21689   0.692   7.751   8.520 -0.3865  0.8538  0.4980
  902MOL0     C21690   1.094   7.855   8.357 -1.1972  0.4970  0.2618
  902MOL0     C21691   1.198   7.838   8.460  0.1670  0.2615  0.1506
  902MOL0     C21692   1.336   7.847   8.440  0.2711  0.9038  0.4134
  902MOL0     C21693   1.382   7.873   8.311 -0.7443 -0.0398 -0.7698
  902MOL0     O21694   1.511   7.883   8.283 -0.3191  1.4014 -0.4390
  902MOL0     C21695   1.612   7.896   8.390 -0.3696 -0.5938  0.0675
  902MOL0     C21696   1.653   7.756   8.448 -0.2456 -0.1479 -0.4752
  902MOL0     C21697   1.777   7.766   8.542  0.1970 -0.0859 -0.1170
  902MOL0     C21698   1.756   7.851   8.668 -0.7467  0.5951  0.0875
  902MOL0     C21699   1.620   7.855   8.729 -0.0949 -0.5760 -0.0357
  902MOL0     C21700   1.519   7.877   8.786  0.1255  0.3847 -0.1688
  902MOL0     C21701   1.287   7.879   8.207  0.0510 -0.8304 -0.2013
  902MOL0     C21702   1.146   7.875   8.223 -0.5228 -0.2537  0.0980
  902MOL0     H21703   0.856   7.958   8.735  0.8243 -0.1460 -0.8446
  902MOL0     H21704   0.661   7.959   8.845 -0.2321  2.0043 -0.4524
  902MOL0     H21705   0.336   7.852   8.921  0.7485 -2.0765 -0.1954
  902MOL0     H21706   0.426   7.997   8.877 -1.6860  0.9179 -0.5860
  902MOL0     H21707   0.211   8.026   8.821  2.5786 -0.1598  2.3150
  902MOL0     H21708   0.284   7.998   8.659 -0.0098  0.4724  1.1184
  902MOL0     H21709   0.194   7.766   8.655 -1.3722  0.4103 -1.3189
  902MOL0     H21710   0.149   7.785   8.825 -1.5265 -0.3516 -0.6386
  902MOL0     H21711  -0.022   7.955   8.759  1.9139 -0.1180  1.3392
  902MOL0     H21712   0.047   7.968   8.593 -0.0326  2.6183  1.3683
  902MOL0     H21713  -0.038   7.729   8.569 -2.0372 -0.0539 -0.4445
  902MOL0     H21714  -0.106   7.747   8.732 -0.0069  0.0455  0.1973
  902MOL0     H21715  -0.153   7.907   8.469  1.3083  1.2310  0.3286
  902MOL0     H21716  -0.275   7.809   8.548  1.4055  0.2778 -0.8072
  902MOL0     H21717  -0.175   8.071   8.640 -0.5976  0.4976 -0.1993
  902MOL0     H21718  -0.331   8.047   8.575  1.3040  1.5450  0.8165
  902MOL0     H21719  -0.226   7.919   8.836  2.2274  1.6611 -0.4933
  902MOL0     H21720  -0.394   7.904   8.764  1.9656 -1.5338 -0.0056
  902MOL0     H21721  -0.149   8.183   8.886 -0.4670 -0.1927  1.8995
  902MOL0     H21722  -0.365   8.425   9.070 -0.6749 -2.1919 -0.3873
  902MOL0     H21723  -0.196   8.378   9.032  0.7219 -1.5070 -2.7086
  902MOL0     H21724  -0.406   8.538   8.860 -0.1017 -0.8667 -0.0169
  902MOL0     H21725  -0.237   8.516   8.808  0.7230  2.0336  0.7246
  902MOL0     H21726  -0.151   8.618   9.013 -0.8548  1.0549  2.3710
  902MOL0     H21727  -0.331   8.662   9.038 -2.0366 -0.5518 -2.0789
  902MOL0     H21728  -0.302   8.778   8.829 -0.4092  0.3557 -0.5233
  902MOL0     H21729  -0.126   8.742   8.817  2.5977 -0.5850  3.2551
  902MOL0     H21730   0.031   8.908   8.807  0.6123  0.2259 -0.1712
  902MOL0     H21731   0.251   8.902   8.741 -1.6281 -2.4982 -0.5762
  902MOL0     H21732   0.383   8.937   8.857 -1.1451  0.9825 -0.6121
  902MOL0     H21733   0.325   8.767   8.828  0.2508 -0.1112  2.7962
  902MOL0     H21734   0.570   9.091   9.114 -0.0506  1.0934 -0.1286
  902MOL0     H21735   0.783   9.152   9.196  0.0129 -0.8512 -1.3589
  902MOL0     H21736   0.869   9.042   9.625 -0.7101 -0.8031  0.4739
  902MOL0     H21737   0.940   8.918   9.517  2.2507  0.6636  1.0102
  902MOL0     H21738   1.127   9.058   9.464 -0.5363  0.7131  0.4782
  902MOL0     H21739   1.074   9.171   9.591 -0.3348 -0.4847  0.3732
  902MOL0     H21740   1.144   8.880   9.643  3.1752 -0.0091 -1.1377
  902MOL0     H21741   1.085   9.013   9.750  3.6896  1.5234  1.2865
  902MOL0     H21742   1.332   8.996   9.586  2.6091  1.0561  1.3304
  902MOL0     H21743   1.283   9.143   9.680 -2.3438 -0.7743 -0.1400
  902MOL0     H21744   1.266   8.969   9.884  1.1540 -1.1252  1.8386
  902MOL0     H21745   1.417   9.046   9.845 -2.0099  1.4537 -0.4270
  902MOL0     H21746   1.370   8.761   9.734  2.1157 -2.4223  2.2350
  902MOL0     H21747   1.511   8.865   9.721  1.8711 -1.0931  1.7116
  902MOL0     H21748   1.373   8.752   9.971 -0.3192  0.2044 -1.0886
  902MOL0     H21749   1.494   8.868   9.983  1.7758 -0.4682 -1.2095
  902MOL0     H21750   1.606   8.642   9.989 -0.7963 -1.5354 -0.0721
  902MOL0     H21751   1.662   8.710   9.845 -1.5527  1.6365 -1.9958
  902MOL0     H21752   0.684   8.972   9.578 -1.2658  1.0903  1.3905
  902MOL0     H21753   0.448   8.918   9.482 -0.5394  1.3231  1.1374
  902MOL0     H21754   0.136   8.853   9.282  1.1055 -0.4578 -0.7764
  902MOL0     H21755  -0.081   8.855   9.216  0.3182 -2.2455  0.2821
  902MOL0     H21756   0.509   7.669   8.564  2.5276 -1.6128 -0.5922
  902MOL0     H21757   0.715   7.691   8.433  5.1389  0.8139  1.5816
  902MOL0     H21758   1.157   7.827   8.560 -3.1904 -0.8349 -1.1924
  902MOL0     H21759   1.403   7.840   8.525 -2.1971  0.8880  2.5116
  902MOL0     H21760   1.700   7.955   8.363 -0.3672  2.1408  4.8323
  902MOL0     H21761   1.579   7.959   8.474 -0.5266  2.5694 -2.2066
  902MOL0     H21762   1.676   7.705   8.354  0.8079 -0.0672 -0.2785
  902MOL0     H21763   1.572   7.696   8.490  0.0020 -0.5478 -0.5652
  902MOL0     H21764   1.859   7.818   8.491 -0.4049  0.2175 -0.7840
  902MOL0     H21765   1.816   7.665   8.555 -0.7898 -0.2955  1.3909
  902MOL0     H21766   1.774   7.956   8.644 -2.5861  0.5612 -1.6714
  902MOL0     H21767   1.825   7.797   8.733 -0.4856 -1.6181 -1.8644
  902MOL0     H21768   1.422   7.872   8.831 -0.2375  1.8219 -0.7356
  902MOL0     H21769   1.331   7.882   8.108 -0.3042 -1.0748 -0.3693
  902MOL0     H21770   1.079   7.882   8.138  0.2392 -1.6405 -0.6474
  903MOL0     O21771   3.253   8.865  10.178  0.4829 -0.4382 -0.1714
  903MOL0     C21772   3.345   8.932  10.132 -0.6083 -0.8149  0.2471
  903MOL0     O21773   3.333   9.008  10.016  1.2529 -0.6526  0.0518
  903MOL0     C21774   3.226   8.993   9.924  0.5559 -0.2310  0.0639
  903MOL0     C21775   3.152   8.874   9.898  0.2160  0.1865 -0.5226
  903MOL0     C21776   3.050   8.881   9.801  0.3532 -0.3051  0.5581
  903MOL0     C21777   3.020   9.001   9.727 -0.2354  0.2481 -0.4326
  903MOL0     O21778   2.930   9.006   9.625 -0.6950  0.5884 -0.5665
  903MOL0     C21779   2.891   8.879   9.564  0.2183 -0.0746 -0.0350
  903MOL0     C21780   2.823   8.907   9.430  0.8313 -1.0909  0.0069
  903MOL0     C21781   2.770   8.786   9.355  0.5631  0.1725  0.1665
  903MOL0     C21782   2.628   8.761   9.392 -0.6487 -0.2680  0.6645
  903MOL0     C21783   2.571   8.652   9.300  0.2279  0.4199 -0.1854
  903MOL0     C21784   2.539   8.713   9.164 -0.1724 -0.7122  0.4771
  903MOL0     C21785   2.403   8.663   9.095 -0.8005  0.2444 -0.2866
  903MOL0     C21786   2.398   8.506   9.084  0.0065 -0.9372  0.4967
  903MOL0     N21787   2.276   8.453   9.025 -0.9051  0.8932  0.1125
  903MOL0     C21788   2.148   8.498   9.024  0.0281 -0.0728  0.0719
  903MOL0     C21789   2.084   8.407   8.942 -0.1584 -1.0633  0.1477
  903MOL0     C21790   1.933   8.421   8.912 -0.3535  0.1157 -1.2182
  903MOL0     C21791   1.898   8.338   8.788 -0.2439 -0.4854  0.4585
  903MOL0     C21792   1.765   8.264   8.794  0.1658 -0.3594  0.3018
  903MOL0     C21793   1.650   8.346   8.842  0.6713 -0.0916 -0.1265
  903MOL0     O21794   1.588   8.392   8.720  0.7672  0.2042 -0.5844
  903MOL0     C21795   1.453   8.402   8.710  1.1606  0.4408 -0.3155
  903MOL0     C21796   1.358   8.406   8.818 -0.9049  0.3842 -1.1203
  903MOL0     C21797   1.230   8.454   8.791 -0.4755  0.7140  0.6928
  903MOL0     C21798   1.150   8.494   8.915 -0.3103  0.7871  0.6638
  903MOL0     C21799   1.194   8.487   8.663  0.7522  0.0447 -0.2710
  903MOL0     C21800   1.049   8.514   8.637 -1.1159  0.1241  0.4321
  903MOL0     O21801   1.023   8.640   8.593 -0.0940 -0.4858 -0.3816
  903MOL0     C21802   0.896   8.675   8.542 -0.5057  0.4938 -0.5147
  903MOL0     C21803   0.871   8.810   8.562 -0.7920 -0.1718  0.1800
  903MOL0     C21804   0.743   8.870   8.528 -0.8917  0.0703 -0.2976
  903MOL0     C21805   0.638   8.789   8.479  0.0448  0.6283  0.1789
  903MOL0     O21806   0.521   8.849   8.429 -0.2285  0.7583  0.5615
  903MOL0     C21807   0.478   8.973   8.492 -0.0286  0.5918  0.1336
  903MOL0     C21808   0.335   9.013   8.470  0.6306  0.0711 -0.8189
  903MOL0     C21809   0.281   9.005   8.336 -0.2247  0.6345  0.2873
  903MOL0     C21810   0.360   9.080   8.236  0.7536  0.2451  0.3445
  903MOL0     C21811   0.259   9.116   8.127 -0.1459 -0.6911  0.2119
  903MOL0     C21812   0.341   9.172   8.009 -0.0102 -0.0578 -0.2300
  903MOL0     C21813   0.265   9.220   7.886  0.1797 -0.6439 -0.8104
  903MOL0     C21814   0.369   9.277   7.785  0.1938 -1.1122  0.4895
  903MOL0    Cl21815   0.465   9.161   7.694 -0.1737  0.2782 -0.5683
  903MOL0     C21816   0.669   8.655   8.448  0.7075  0.5511  0.6859
  903MOL0     C21817   0.799   8.598   8.477 -0.5072 -0.1364  0.2199
  903MOL0     O21818   0.967   8.433   8.664 -0.5372  0.6328  0.7307
  903MOL0     C21819   1.281   8.480   8.555 -0.7979  0.1954  0.2687
  903MOL0     C21820   1.414   8.447   8.580 -0.5492  0.7432  0.1127
  903MOL0     N21821   2.177   8.315   8.898 -0.5279  0.5061 -0.2009
  903MOL0     N21822   2.293   8.343   8.941  0.1547  0.3857 -0.2286
  903MOL0     C21823   3.104   9.107   9.752  0.5219  0.5722  0.1320
  903MOL0     C21824   3.202   9.111   9.844  0.5071  0.8005 -1.0523
  903MOL0     C21825   3.472   8.946  10.215  0.1264  0.3839 -0.0629
  903MOL0     C21826   3.576   9.034  10.185 -0.0346 -1.0961 -0.2746
  903MOL0     C21827   3.685   9.053  10.269  0.1445 -0.2142  0.1414
  903MOL0     C21828   3.694   8.970  10.380  0.5713  0.2391  0.2772
  903MOL0     O21829   3.789   8.984  10.474  0.0430 -0.0184  0.1719
  903MOL0     C21830   3.881   9.098  10.472  0.4465 -0.8812 -0.0594
  903MOL0     C21831   3.998   9.075  10.560 -0.5447 -0.3622 -0.7701
  903MOL0     C21832   3.959   9.018  10.702 -0.2791 -0.4882 -0.8098
  903MOL0     C21833   4.069   9.033  10.819 -0.0334  0.5261  0.3497
  903MOL0     C21834   4.202   8.981  10.792  0.8484  0.0685  1.1456
  903MOL0     C21835   4.310   8.923  10.776 -0.5908 -0.8855 -0.3107
  903MOL0     C21836   3.600   8.871  10.413 -0.1459  0.1561 -0.1933
  903MOL0     C21837   3.484   8.872  10.335 -0.2625 -0.2663  0.0921
  903MOL0     H21838   3.171   8.776   9.941  0.8732 -0.2864 -1.8358
  903MOL0     H21839   3.004   8.785   9.779  0.8883 -0.3594 -0.3346
  903MOL0     H21840   2.972   8.807   9.548  0.0449  0.0230 -1.4730
  903MOL0     H21841   2.819   8.833   9.633 -0.0807  1.4111  0.6830
  903MOL0     H21842   2.739   8.976   9.441 -0.8936 -2.1468 -4.4654
  903MOL0     H21843   2.901   8.950   9.367  0.9554 -1.3513 -0.0189
  903MOL0     H21844   2.792   8.801   9.248  0.0757 -0.6763 -0.0622
  903MOL0     H21845   2.825   8.698   9.389 -1.6066 -0.9918  0.7776
  903MOL0     H21846   2.622   8.736   9.498 -0.0646 -3.8910 -0.0194
  903MOL0     H21847   2.564   8.849   9.382  1.7407  1.4619 -0.2833
  903MOL0     H21848   2.629   8.560   9.292  2.8776  1.6807  2.4378
  903MOL0     H21849   2.477   8.615   9.343 -0.4968  0.7174 -1.4632
  903MOL0     H21850   2.533   8.822   9.162  1.3325 -0.6168  0.2785
  903MOL0     H21851   2.621   8.689   9.095  0.7578  0.6294  1.0829
  903MOL0     H21852   2.309   8.705   9.131 -1.4369 -0.8650 -0.6049
  903MOL0     H21853   2.407   8.712   8.997  0.2560  1.6960  0.4369
  903MOL0     H21854   2.392   8.465   9.186 -1.1217  0.9671  1.2603
  903MOL0     H21855   2.478   8.467   9.021 -3.8485 -3.7232 -3.2024
  903MOL0     H21856   2.106   8.587   9.070 -0.4427 -0.9075  1.3247
  903MOL0     H21857   1.869   8.373   8.987  0.0404 -1.8778 -2.0817
  903MOL0     H21858   1.912   8.527   8.899 -0.8376 -0.1445 -2.8375
  903MOL0     H21859   1.969   8.259   8.761  0.8442  1.1357 -1.6835
  903MOL0     H21860   1.913   8.406   8.704  1.0186 -0.9729  0.2672
  903MOL0     H21861   1.778   8.185   8.869  0.9816 -0.5745 -0.0562
  903MOL0     H21862   1.734   8.215   8.702 -1.9834  2.1493 -0.4166
  903MOL0     H21863   1.682   8.433   8.900 -0.1172 -1.7049  2.9223
  903MOL0     H21864   1.582   8.287   8.903  2.1620  0.3232  2.0721
  903MOL0     H21865   1.392   8.386   8.919  0.4725  3.8398 -0.7396
  903MOL0     H21866   1.211   8.468   9.002  2.2596  0.6806 -1.0512
  903MOL0     H21867   1.124   8.599   8.923  1.2326  1.0831  2.6569
  903MOL0     H21868   1.060   8.433   8.929  0.6654 -0.6555  0.9698
  903MOL0     H21869   0.947   8.874   8.604 -1.4041  2.4190 -2.3383
  903MOL0     H21870   0.737   8.975   8.556  1.6405  0.0051  0.7469
  903MOL0     H21871   0.489   8.951   8.598 -2.2869 -0.0497  0.2923
  903MOL0     H21872   0.537   9.056   8.453  1.1818  0.4016  1.4678
  903MOL0     H21873   0.281   8.949   8.541  1.7746  0.5161  0.4901
  903MOL0     H21874   0.317   9.114   8.506  3.4333  1.8592 -3.8693
  903MOL0     H21875   0.177   9.037   8.334 -0.4880 -0.1298  0.9977
  903MOL0     H21876   0.288   8.901   8.301 -0.1964  1.0818 -1.1009
  903MOL0     H21877   0.396   9.171   8.284  0.3584  1.0460 -0.8313
  903MOL0     H21878   0.448   9.026   8.200  1.4797  1.4236  0.2951
  903MOL0     H21879   0.185   9.186   8.165 -0.5372 -1.6565  1.2856
  903MOL0     H21880   0.217   9.024   8.083 -0.7056  0.0949 -0.9479
  903MOL0     H21881   0.397   9.262   8.036  0.7365  0.3081 -2.7270
  903MOL0     H21882   0.407   9.093   7.972 -1.7251 -0.7727 -2.0200
  903MOL0     H21883   0.198   9.306   7.891 -0.9597 -1.5849  1.0582
  903MOL0     H21884   0.209   9.134   7.848  0.2401 -2.2214  2.3766
  903MOL0     H21885   0.428   9.348   7.844 -1.3711 -0.2254  1.0495
  903MOL0     H21886   0.320   9.343   7.714 -0.9515  1.8055  3.6933
  903MOL0     H21887   0.586   8.601   8.403 -0.6293  0.3838  3.1268
  903MOL0     H21888   0.817   8.494   8.452  1.8024  0.3212 -0.2697
  903MOL0     H21889   1.245   8.515   8.458 -0.1950  2.9429  0.9360
  903MOL0     H21890   1.482   8.456   8.496 -0.8953 -0.3034 -0.3013
  903MOL0     H21891   3.082   9.194   9.691  3.2992 -0.1176 -2.1176
  903MOL0     H21892   3.265   9.199   9.855 -1.6113  2.7706 -3.3051
  903MOL0     H21893   3.560   9.094  10.096 -2.0126  0.2249  0.8934
  903MOL0     H21894   3.770   9.111  10.233  1.6680 -2.9562 -0.9342
  903MOL0     H21895   3.923   9.112  10.372 -0.3975  2.2634 -0.1094
  903MOL0     H21896   3.832   9.192  10.501  0.0729 -0.6037 -1.4941
  903MOL0     H21897   4.050   9.171  10.570  2.2981 -1.9588  1.7913
  903MOL0     H21898   4.071   9.009  10.511  0.4505 -0.3371  0.6259
  903MOL0     H21899   3.941   8.911  10.684 -2.2675 -0.6653  1.7096
  903MOL0     H21900   3.862   9.055  10.735 -0.8389 -3.2767  1.0372
  903MOL0     H21901   4.027   8.984  10.908 -1.2540 -2.7974 -1.8855
  903MOL0     H21902   4.089   9.139  10.840  1.4472  0.7653 -1.9460
  903MOL0     H21903   4.406   8.878  10.761 -0.3355 -0.2283 -0.6569
  903MOL0     H21904   3.616   8.809  10.500 -0.8212 -2.8184 -2.0548
  903MOL0     H21905   3.404   8.807  10.369  1.7790 -1.7143  2.4392
  904MOL0     O21906  10.606   3.035   7.637  0.2900 -0.3212  0.7632
  904MOL0     C21907  10.620   3.153   7.602 -0.2747 -0.7891 -0.1130
  904MOL0     O21908  10.544   3.228   7.515  0.2457  0.2116 -0.0159
  904MOL0     C21909  10.410   3.190   7.510 -0.5279 -0.2953  0.7133
  904MOL0     C21910  10.366   3.065   7.483  0.1749  1.1557  0.2383
  904MOL0     C21911  10.233   3.033   7.459  0.1842 -0.2310 -0.2393
  904MOL0     C21912  10.138   3.141   7.445  0.1481 -0.3474  0.6394
  904MOL0     O21913  10.008   3.124   7.417  1.4908 -0.2332 -0.3268
  904MOL0     C21914   9.990   3.056   7.296 -0.4644 -0.3961 -0.1822
  904MOL0     C21915   9.856   2.979   7.295 -0.1253 -0.5297  0.0149
  904MOL0     C21916   9.831   2.906   7.169 -0.1183  0.4342  0.4596
  904MOL0     C21917   9.800   3.002   7.051  0.1270  0.1019 -1.2029
  904MOL0     C21918   9.876   2.967   6.919 -0.3412 -0.1008  1.0126
  904MOL0     C21919   9.855   2.838   6.839  1.0646  0.5759 -0.0955
  904MOL0     C21920   9.721   2.821   6.779  0.3071 -0.0068  0.0874
  904MOL0     C21921   9.733   2.707   6.680 -0.3570  0.5366 -0.4030
  904MOL0     N21922   9.595   2.669   6.651  0.1457  0.1677  0.2687
  904MOL0     C21923   9.515   2.595   6.731 -0.1697  0.3644 -0.0065
  904MOL0     C21924   9.392   2.594   6.669 -0.1691  0.3017 -1.0481
  904MOL0     C21925   9.263   2.541   6.729  1.0368 -0.5231 -0.4101
  904MOL0     C21926   9.126   2.584   6.673  0.1948 -0.5169 -0.2137
  904MOL0     C21927   9.010   2.511   6.738 -0.2251 -0.0131  0.0748
  904MOL0     C21928   8.878   2.517   6.667 -0.3498 -0.3046 -0.3593
  904MOL0     O21929   8.781   2.444   6.749 -0.1653  0.5220  0.9622
  904MOL0     C21930   8.649   2.444   6.708 -0.0843  0.2244  0.6151
  904MOL0     C21931   8.547   2.456   6.802  0.1740 -0.0886 -0.4169
  904MOL0     C21932   8.410   2.467   6.780  0.3667 -0.4786  0.2803
  904MOL0     C21933   8.309   2.475   6.893  0.0838 -0.0317  0.5784
  904MOL0     C21934   8.378   2.460   6.636  0.0359 -0.0953  0.2235
  904MOL0     C21935   8.238   2.470   6.586  0.4444 -0.1492  0.0514
  904MOL0     O21936   8.224   2.483   6.450 -0.5751 -0.1322  0.4236
  904MOL0     C21937   8.098   2.503   6.396  0.6681 -0.2553 -0.3757
  904MOL0     C21938   8.064   2.456   6.262 -0.9540 -0.6051  0.3332
  904MOL0     C21939   7.951   2.502   6.195  0.6135  0.8862  0.1279
  904MOL0     C21940   7.859   2.583   6.253 -0.0228 -0.3543 -0.3507
  904MOL0     O21941   7.741   2.620   6.203  0.0328 -0.3115  0.0851
  904MOL0     C21942   7.676   2.532   6.111  0.2744  0.2801 -0.7130
  904MOL0     C21943   7.567   2.598   6.040 -0.0319  0.2464 -0.5162
  904MOL0     C21944   7.467   2.652   6.147  0.4323  0.1735 -0.1981
  904MOL0     C21945   7.345   2.710   6.081 -0.2576 -0.4883 -0.6632
  904MOL0     C21946   7.213   2.731   6.161  1.0385 -0.3279 -0.1641
  904MOL0     C21947   7.110   2.808   6.073  0.2813  0.1606 -1.0427
  904MOL0     C21948   7.076   2.735   5.945  0.5100 -0.4072  0.4701
  904MOL0     C21949   6.970   2.821   5.860  0.5877 -0.8106  0.5636
  904MOL0    Cl21950   7.035   2.983   5.822 -0.2602  0.4968 -0.0694
  904MOL0     C21951   7.889   2.636   6.380 -0.2743 -0.3393  0.1990
  904MOL0     C21952   8.001   2.594   6.446  0.5193 -0.7874  0.0310
  904MOL0     O21953   8.141   2.470   6.658  0.2847  0.6147 -0.5967
  904MOL0     C21954   8.479   2.439   6.540 -0.1311  0.0449  0.3440
  904MOL0     C21955   8.612   2.421   6.578 -0.3032  0.7422  0.2470
  904MOL0     N21956   9.399   2.672   6.552 -0.4730 -0.2206  0.2845
  904MOL0     N21957   9.521   2.711   6.546 -0.1890 -0.3856  0.6415
  904MOL0     C21958  10.182   3.273   7.472  0.0351  0.1602 -0.3730
  904MOL0     C21959  10.319   3.292   7.499  0.0232 -0.1178  0.8113
  904MOL0     C21960  10.729   3.234   7.665 -0.1697 -0.1911  0.6505
  904MOL0     C21961  10.715   3.371   7.693  0.4097  0.2824  0.5357
  904MOL0     C21962  10.824   3.441   7.758 -0.0812 -0.9284 -0.1388
  904MOL0     C21963  10.945   3.375   7.784  0.8693  0.5019 -1.3040
  904MOL0     O21964  11.047   3.447   7.842  0.3046  0.6742  0.4346
  904MOL0     C21965  11.141   3.484   7.741 -0.6224  0.5520 -0.2463
  904MOL0     C21966  11.232   3.591   7.808 -1.1305  0.3640 -0.4867
  904MOL0     C21967  11.328   3.536   7.921 -0.1598 -0.2056  0.2717
  904MOL0     C21968  11.435   3.642   7.959  0.3681 -0.8674 -0.1065
  904MOL0     C21969  11.540   3.655   7.853  1.0513  0.3678  0.1822
  904MOL0     C21970  11.608   3.669   7.752  0.2854  0.1696  0.6984
  904MOL0     C21971  10.951   3.240   7.773 -0.8839  0.0424  0.8620
  904MOL0     C21972  10.854   3.176   7.704  0.6346 -0.2052 -0.2087
  904MOL0     H21973  10.437   2.985   7.465 -2.8704 -1.2806 -1.9494
  904MOL0     H21974  10.211   2.927   7.449 -1.8145  0.2011 -1.0304
  904MOL0     H21975   9.993   3.126   7.212 -0.7453 -0.0290  0.1106
  904MOL0     H21976  10.076   2.994   7.269  0.1549  0.5306 -0.3855
  904MOL0     H21977   9.866   2.896   7.365  0.7965 -0.6900 -0.2955
  904MOL0     H21978   9.770   3.043   7.316  1.4064  1.7272 -0.2528
  904MOL0     H21979   9.913   2.837   7.144  0.9585  0.7236  2.9900
  904MOL0     H21980   9.746   2.838   7.183  0.6255 -1.1756 -2.0017
  904MOL0     H21981   9.695   2.985   7.025  0.8639 -1.9223 -3.2028
  904MOL0     H21982   9.809   3.105   7.087 -3.7361  0.1165  0.1869
  904MOL0     H21983   9.852   3.040   6.841 -0.2050 -0.5199  0.5806
  904MOL0     H21984   9.980   2.973   6.951 -0.2232 -0.0384  0.6152
  904MOL0     H21985   9.924   2.830   6.754 -0.7813 -0.4443 -1.5547
  904MOL0     H21986   9.871   2.754   6.907 -0.9538 -1.2340 -1.7246
  904MOL0     H21987   9.644   2.810   6.857 -0.1600 -1.8844 -0.5739
  904MOL0     H21988   9.699   2.915   6.727  2.3709  1.4534  1.6774
  904MOL0     H21989   9.782   2.619   6.723 -0.6828 -0.6001 -2.2533
  904MOL0     H21990   9.780   2.731   6.584 -2.2215 -0.6485 -1.6988
  904MOL0     H21991   9.548   2.551   6.825 -1.5292  0.8778  0.7327
  904MOL0     H21992   9.275   2.433   6.718  0.5444 -0.6051 -0.1646
  904MOL0     H21993   9.257   2.569   6.835 -3.0115  1.5873 -1.0003
  904MOL0     H21994   9.120   2.575   6.564  0.9416 -0.2993 -0.2859
  904MOL0     H21995   9.112   2.687   6.708 -3.0132 -1.0473  0.3509
  904MOL0     H21996   9.001   2.546   6.842  2.0904  0.3853  0.1924
  904MOL0     H21997   9.029   2.405   6.753 -0.3698  0.3098  3.3944
  904MOL0     H21998   8.895   2.473   6.568 -1.7635 -0.2948 -0.6335
  904MOL0     H21999   8.851   2.622   6.649 -1.3054 -0.6394 -0.9532
  904MOL0     H22000   8.567   2.470   6.908  1.3450  2.5333 -0.9093
  904MOL0     H22001   8.257   2.379   6.888 -0.2291  0.0660  1.6361
  904MOL0     H22002   8.358   2.491   6.990  1.7369  2.9041 -0.6062
  904MOL0     H22003   8.235   2.553   6.871 -1.5890 -1.8378 -0.5209
  904MOL0     H22004   8.141   2.394   6.217 -1.3289 -1.0322  0.2752
  904MOL0     H22005   7.938   2.461   6.095  1.6005 -1.8881  1.0382
  904MOL0     H22006   7.758   2.498   6.047  2.7027 -0.4541  2.5197
  904MOL0     H22007   7.638   2.445   6.166  0.0005  0.7955 -0.0692
  904MOL0     H22008   7.602   2.684   5.982 -1.7311  0.9285 -0.5841
  904MOL0     H22009   7.511   2.528   5.978 -0.6339  1.5404 -1.4747
  904MOL0     H22010   7.519   2.729   6.205  1.7734  0.2612 -1.4611
  904MOL0     H22011   7.432   2.577   6.218 -2.0495  2.5080  1.2156
  904MOL0     H22012   7.370   2.810   6.045 -0.6314 -0.8916 -2.1313
  904MOL0     H22013   7.332   2.651   5.989  1.4849 -1.4430 -0.3351
  904MOL0     H22014   7.229   2.789   6.252 -3.7061  0.4782  0.4239
  904MOL0     H22015   7.182   2.628   6.182  0.5372 -0.1856 -0.1871
  904MOL0     H22016   7.018   2.820   6.131  0.2563 -2.1721 -0.5064
  904MOL0     H22017   7.152   2.909   6.067 -1.8927  1.8126  4.5249
  904MOL0     H22018   7.038   2.637   5.977 -0.4668 -0.4260 -0.6925
  904MOL0     H22019   7.166   2.723   5.883 -0.7984  0.8266 -1.7840
  904MOL0     H22020   6.874   2.843   5.909 -0.3210  1.4442 -1.9587
  904MOL0     H22021   6.935   2.778   5.765  2.1303 -1.5712  0.3135
  904MOL0     H22022   7.822   2.707   6.427 -3.4745 -2.4239 -0.7870
  904MOL0     H22023   8.009   2.630   6.549  1.6999  1.8365 -0.8941
  904MOL0     H22024   8.458   2.424   6.435 -0.1988 -1.7091  0.5809
  904MOL0     H22025   8.681   2.389   6.500 -0.1005 -0.9792  1.0916
  904MOL0     H22026  10.113   3.355   7.459  0.4111  0.5598  0.0940
  904MOL0     H22027  10.335   3.398   7.521 -2.7223 -0.1454  3.7181
  904MOL0     H22028  10.619   3.417   7.674  0.5898  1.2565  1.8217
  904MOL0     H22029  10.823   3.548   7.771  3.1873 -0.8644  0.3955
  904MOL0     H22030  11.206   3.409   7.696  0.5406  0.2639  1.7603
  904MOL0     H22031  11.083   3.525   7.658 -2.1157 -2.3807 -0.7758
  904MOL0     H22032  11.178   3.684   7.830 -0.3206  0.4813  1.0829
  904MOL0     H22033  11.307   3.610   7.731  0.2371  0.1293  0.7550
  904MOL0     H22034  11.383   3.451   7.879  2.0277  1.5473 -0.6069
  904MOL0     H22035  11.260   3.516   8.005 -1.2379  3.7356  0.5141
  904MOL0     H22036  11.482   3.627   8.057 -1.5356  2.1613  1.4248
  904MOL0     H22037  11.394   3.741   7.983  1.6408 -0.0482 -1.1218
  904MOL0     H22038  11.665   3.664   7.661  2.8963 -0.0529  2.2340
  904MOL0     H22039  11.036   3.187   7.814 -0.2071  0.5813  0.1892
  904MOL0     H22040  10.865   3.075   7.665 -0.8832  0.4298 -2.5077
  905MOL0     O22041  11.036   9.201   1.228  0.0816 -0.4616 -0.2823
  905MOL0     C22042  11.073   9.251   1.331 -0.1755  0.2166 -0.5208
  905MOL0     O22043  10.994   9.327   1.421  0.3197  0.3710  1.2753
  905MOL0     C22044  10.861   9.361   1.388  0.2227 -0.1519  0.3523
  905MOL0     C22045  10.777   9.380   1.495  0.2244  0.1428  0.0516
  905MOL0     C22046  10.640   9.413   1.479  0.3943 -0.4076  0.0105
  905MOL0     C22047  10.586   9.440   1.356 -0.3310 -0.4422 -0.5055
  905MOL0     O22048  10.454   9.476   1.358 -0.3098  0.7888 -0.1461
  905MOL0     C22049  10.403   9.551   1.244 -0.4061  0.3843  0.0217
  905MOL0     C22050  10.257   9.593   1.252  0.3938 -0.4975 -0.0929
  905MOL0     C22051  10.163   9.473   1.243 -0.0195  0.0768 -0.5506
  905MOL0     C22052  10.032   9.534   1.293 -0.2300  0.3807  0.3137
  905MOL0     C22053   9.912   9.443   1.274 -0.3631 -0.0244 -0.3268
  905MOL0     C22054   9.883   9.408   1.129  0.4233  0.3392 -0.0898
  905MOL0     C22055   9.730   9.394   1.095  0.9112 -0.5780 -0.0541
  905MOL0     C22056   9.665   9.275   1.158  0.0749 -0.4219  0.5174
  905MOL0     N22057   9.549   9.225   1.075  0.0871 -0.7908 -0.0204
  905MOL0     C22058   9.413   9.243   1.100  0.5079 -0.8142  0.6442
  905MOL0     C22059   9.349   9.185   0.997  0.4324  0.2509  1.0624
  905MOL0     C22060   9.209   9.217   0.955  0.3227 -0.4019  0.9351
  905MOL0     C22061   9.108   9.161   1.048  0.5164  0.1033 -0.3020
  905MOL0     C22062   9.112   9.004   1.048  0.3561  0.1633 -0.4723
  905MOL0     C22063   9.046   8.952   0.921  0.0908 -0.0890 -0.2347
  905MOL0     O22064   8.917   9.003   0.895 -0.0762 -0.1145 -0.5571
  905MOL0     C22065   8.808   8.955   0.953 -1.1004  0.5667 -0.2779
  905MOL0     C22066   8.806   8.866   1.063  0.7747 -0.4398  0.2837
  905MOL0     C22067   8.684   8.823   1.114 -0.9689  0.2485  0.4355
  905MOL0     C22068   8.689   8.745   1.244  0.0951 -0.0176 -0.4715
  905MOL0     C22069   8.564   8.850   1.047 -0.2584 -0.5790  1.0164
  905MOL0     C22070   8.434   8.811   1.090  0.0691 -0.9731  1.3386
  905MOL0     O22071   8.328   8.896   1.116  0.5251 -0.0593  0.4832
  905MOL0     C22072   8.210   8.853   1.174 -1.5884  0.5018 -0.2870
  905MOL0     C22073   8.099   8.866   1.097 -0.2857  0.1875 -0.5070
  905MOL0     C22074   7.975   8.827   1.150 -0.8118  0.4133 -0.3194
  905MOL0     C22075   7.977   8.745   1.261 -0.3646 -0.2478  0.7721
  905MOL0     O22076   7.865   8.676   1.308 -0.7623 -0.5069 -0.0260
  905MOL0     C22077   7.847   8.554   1.237  0.2006 -0.0464 -0.1004
  905MOL0     C22078   7.740   8.581   1.136 -0.3355 -0.3395  1.2981
  905MOL0     C22079   7.613   8.646   1.203  0.4619 -0.4411  1.0803
  905MOL0     C22080   7.489   8.636   1.116 -0.0626  0.0839  0.1690
  905MOL0     C22081   7.357   8.667   1.196 -0.2326  0.5122  0.3737
  905MOL0     C22082   7.236   8.644   1.103 -0.4748  0.4529  0.6183
  905MOL0     C22083   7.229   8.749   0.985  0.7553 -0.4254 -0.8556
  905MOL0     C22084   7.087   8.757   0.937  0.7680 -0.3301  0.3460
  905MOL0    Cl22085   7.026   8.607   0.857  0.2874  0.6141 -0.4735
  905MOL0     C22086   8.097   8.738   1.339  0.5906  0.3610  0.8600
  905MOL0     C22087   8.212   8.802   1.304  0.0380  1.0977  0.1977
  905MOL0     O22088   8.433   8.693   1.098 -0.3879 -0.6228  0.5656
  905MOL0     C22089   8.575   8.945   0.936 -0.4430  0.1749 -0.6877
  905MOL0     C22090   8.699   8.999   0.892  0.1740 -0.1533 -0.0609
  905MOL0     N22091   9.446   9.131   0.918 -0.3001 -0.5863  0.0022
  905MOL0     N22092   9.563   9.155   0.962 -0.0979  0.0785 -0.2698
  905MOL0     C22093  10.673   9.422   1.242 -0.0560 -0.3482  0.2670
  905MOL0     C22094  10.806   9.388   1.255 -0.9462  0.0591 -0.5529
  905MOL0     C22095  11.211   9.216   1.361  0.2669 -1.0840 -0.7084
  905MOL0     C22096  11.261   9.246   1.490  0.4512  0.5282 -0.2510
  905MOL0     C22097  11.391   9.219   1.524 -0.0290  0.2936  0.3192
  905MOL0     C22098  11.479   9.162   1.432  0.2918  0.1005  0.1398
  905MOL0     O22099  11.611   9.121   1.457 -0.2165 -0.1212 -0.6203
  905MOL0     C22100  11.672   9.173   1.580 -0.2655  0.4951 -0.2223
  905MOL0     C22101  11.813   9.115   1.620  0.1737  0.3207  0.0357
  905MOL0     C22102  11.814   8.961   1.587  0.5270  0.0178 -0.1079
  905MOL0     C22103  11.955   8.903   1.600  0.1822  0.7288 -0.1248
  905MOL0     C22104  12.038   8.911   1.480 -0.5900  0.4706 -0.9422
  905MOL0     C22105  12.110   8.928   1.383 -0.3273 -0.2320 -0.4523
  905MOL0     C22106  11.428   9.119   1.299 -0.5262  0.1585 -1.2043
  905MOL0     C22107  11.299   9.154   1.270  0.4047  0.3303  0.4555
  905MOL0     H22108  10.814   9.361   1.595 -0.4398 -0.6670  0.1476
  905MOL0     H22109  10.576   9.435   1.563 -0.3358 -0.8261 -0.4281
  905MOL0     H22110  10.452   9.649   1.235 -0.8071  0.7424  1.4564
  905MOL0     H22111  10.402   9.512   1.142 -0.5675  4.2085 -1.5875
  905MOL0     H22112  10.243   9.640   1.350 -1.8994  1.7133 -1.3645
  905MOL0     H22113  10.246   9.674   1.179  2.7675  0.7638  0.8535
  905MOL0     H22114  10.158   9.431   1.142  3.7548  0.5952 -1.1026
  905MOL0     H22115  10.208   9.392   1.301  0.8686  1.4689  0.7963
  905MOL0     H22116  10.036   9.548   1.401  0.2914  0.1120  0.3293
  905MOL0     H22117  10.010   9.628   1.242  1.5434  1.7751  2.0121
  905MOL0     H22118   9.930   9.356   1.337  1.4919  1.3757  1.2257
  905MOL0     H22119   9.838   9.504   1.326 -0.7106 -1.3870  0.8069
  905MOL0     H22120   9.919   9.492   1.068 -2.4790  3.5252  2.2330
  905MOL0     H22121   9.939   9.320   1.094  2.2326  2.2767 -2.4927
  905MOL0     H22122   9.676   9.479   1.137 -0.6417  0.1887 -3.2492
  905MOL0     H22123   9.714   9.402   0.987 -0.4219  0.4570  0.1889
  905MOL0     H22124   9.634   9.307   1.258 -0.0037 -0.5903  0.5483
  905MOL0     H22125   9.737   9.191   1.160 -2.0357 -2.3249  1.8278
  905MOL0     H22126   9.368   9.307   1.175 -2.0275  0.0929 -1.4898
  905MOL0     H22127   9.194   9.323   0.931  1.5587 -0.3046  0.5274
  905MOL0     H22128   9.192   9.172   0.857 -1.9304  0.3936  0.9007
  905MOL0     H22129   9.015   9.203   1.008  0.6268 -0.9034 -1.7045
  905MOL0     H22130   9.126   9.180   1.154 -2.2768  0.0503  0.2597
  905MOL0     H22131   9.048   8.968   1.129  0.4429  0.6884 -0.1666
  905MOL0     H22132   9.213   8.962   1.061  0.3533  0.1190 -0.5902
  905MOL0     H22133   9.049   8.843   0.917  3.1501 -0.0315 -2.8864
  905MOL0     H22134   9.116   8.990   0.847  4.1189  0.2882  3.3956
  905MOL0     H22135   8.891   8.831   1.121  0.7106  1.7225  1.7985
  905MOL0     H22136   8.785   8.742   1.297  0.5024  1.1177 -1.1082
  905MOL0     H22137   8.620   8.796   1.312 -0.1255  0.2500 -0.8914
  905MOL0     H22138   8.652   8.644   1.228  0.5232 -0.3195  0.3658
  905MOL0     H22139   8.102   8.915   1.000 -0.3645 -0.8539 -1.0423
  905MOL0     H22140   7.878   8.828   1.102 -1.8419 -1.2835  1.5402
  905MOL0     H22141   7.942   8.516   1.199  1.8732  2.8995  0.7098
  905MOL0     H22142   7.794   8.486   1.305 -2.8211  2.1927 -0.0043
  905MOL0     H22143   7.787   8.647   1.062  3.8826 -4.1121  0.1595
  905MOL0     H22144   7.711   8.492   1.079  0.0881 -0.9203  1.9818
  905MOL0     H22145   7.633   8.753   1.197  0.4352 -0.4390  1.0205
  905MOL0     H22146   7.589   8.608   1.303 -0.0322 -2.9063  0.0851
  905MOL0     H22147   7.510   8.696   1.027  1.6393 -1.7433 -0.7295
  905MOL0     H22148   7.481   8.532   1.085  0.3630 -0.3725  1.5155
  905MOL0     H22149   7.378   8.772   1.217  0.8133  0.7996 -1.7907
  905MOL0     H22150   7.351   8.612   1.291 -1.9692 -1.0192 -0.5402
  905MOL0     H22151   7.246   8.549   1.050  0.7340  0.8094  0.1600
  905MOL0     H22152   7.142   8.650   1.158 -2.5180  3.6020 -2.7384
  905MOL0     H22153   7.310   8.726   0.916  0.8245  2.2621 -1.7715
  905MOL0     H22154   7.261   8.846   1.025  2.6901 -1.8881  1.5033
  905MOL0     H22155   7.073   8.843   0.870 -1.4703 -1.5072 -0.7933
  905MOL0     H22156   7.025   8.773   1.025 -1.2174  0.4096 -1.1077
  905MOL0     H22157   8.103   8.674   1.427  3.1570  0.6226  0.9598
  905MOL0     H22158   8.309   8.795   1.351  0.1298 -0.6327 -0.1787
  905MOL0     H22159   8.484   8.974   0.885 -1.7990  0.0715  1.5305
  905MOL0     H22160   8.718   9.074   0.817  1.1089  2.6446  2.7442
  905MOL0     H22161  10.627   9.427   1.144 -1.1845  0.3991  0.8110
  905MOL0     H22162  10.860   9.369   1.162 -1.7105  0.5160 -1.1001
  905MOL0     H22163  11.207   9.299   1.569  2.1795  0.3447  1.1202
  905MOL0     H22164  11.437   9.270   1.608 -1.0761  0.7246  0.6543
  905MOL0     H22165  11.695   9.280   1.567  0.0984  0.4995  0.4071
  905MOL0     H22166  11.607   9.149   1.664 -1.6417  1.6409 -0.9116
  905MOL0     H22167  11.820   9.148   1.724  0.1297 -1.0095  0.4800
  905MOL0     H22168  11.889   9.142   1.547 -0.0210 -2.2777 -1.2550
  905MOL0     H22169  11.780   8.943   1.485 -0.7893  0.6949  0.1970
  905MOL0     H22170  11.749   8.916   1.662  0.3073  0.4685 -0.0233
  905MOL0     H22171  11.940   8.800   1.632 -0.8953  0.7275 -0.6067
  905MOL0     H22172  12.019   8.941   1.681  1.1931  1.1308 -1.0746
  905MOL0     H22173  12.183   8.953   1.309  1.8253 -0.2559  1.5372
  905MOL0     H22174  11.485   9.052   1.235  0.8623 -0.1032  0.2654
  905MOL0     H22175  11.252   9.119   1.179 -1.0669  2.6408  0.2351
  906MOL0     O22176   2.240   0.972   0.193  0.4573 -0.7760 -0.2823
  906MOL0     C22177   2.276   1.084   0.219 -0.1949  0.8139 -0.9362
  906MOL0     O22178   2.202   1.197   0.234  0.0866  0.3642  0.4208
  906MOL0     C22179   2.063   1.197   0.253 -0.3611 -0.1158  1.1124
  906MOL0     C22180   2.002   1.314   0.206  0.7379 -0.3557  0.6503
  906MOL0     C22181   1.861   1.326   0.226 -0.0677 -0.4571 -0.1370
  906MOL0     C22182   1.786   1.219   0.277 -0.7258  0.3117 -1.5642
  906MOL0     O22183   1.651   1.228   0.304  0.4527 -0.4114 -0.1985
  906MOL0     C22184   1.597   1.353   0.338  0.4044 -0.4596 -0.0181
  906MOL0     C22185   1.454   1.342   0.350  0.6646 -0.0645 -0.6389
  906MOL0     C22186   1.399   1.485   0.350 -0.0126  0.4776 -0.6132
  906MOL0     C22187   1.265   1.506   0.265  0.3039 -0.6590 -0.1240
  906MOL0     C22188   1.192   1.614   0.336  0.0479  1.0188 -0.7439
  906MOL0     C22189   1.091   1.684   0.256  0.5593  0.2722  0.5429
  906MOL0     C22190   0.983   1.585   0.218  0.0851  0.8039 -1.1917
  906MOL0     C22191   0.875   1.655   0.138  0.6377 -0.3499  0.6569
  906MOL0     N22192   0.772   1.552   0.109  0.2571  0.0526  0.0124
  906MOL0     C22193   0.679   1.499   0.192 -0.1082  0.0544 -0.6578
  906MOL0     C22194   0.583   1.440   0.107 -0.8478  0.2459 -0.5197
  906MOL0     C22195   0.466   1.381   0.170  0.5469  0.1541 -0.0338
  906MOL0     C22196   0.408   1.269   0.073 -0.6287 -0.4558 -0.6177
  906MOL0     C22197   0.477   1.129   0.059 -0.1737 -0.6188  0.4222
  906MOL0     C22198   0.624   1.124   0.088  0.9190 -0.0747 -1.2803
  906MOL0     O22199   0.667   0.989   0.050  0.4164  0.1074  0.2132
  906MOL0     C22200   0.801   0.962   0.063 -0.1354  0.7725 -0.5899
  906MOL0     C22201   0.900   1.059   0.080 -0.7071 -1.1938 -0.4625
  906MOL0     C22202   1.032   1.016   0.096  1.2373  0.0803 -0.4975
  906MOL0     C22203   1.131   1.131   0.116 -0.3098  0.3211 -1.1206
  906MOL0     C22204   1.075   0.886   0.074  0.2070  0.6738 -1.0562
  906MOL0     C22205   1.208   0.832   0.103 -0.3788  0.2476  0.2901
  906MOL0     O22206   1.263   0.755   0.005  0.2682 -0.2029 -0.3055
  906MOL0     C22207   1.371   0.668   0.036  0.4907 -0.4226 -0.5418
  906MOL0     C22208   1.367   0.531   0.011 -0.2365  0.2483 -0.1873
  906MOL0     C22209   1.476   0.453   0.043  0.6654 -0.2117 -0.2554
  906MOL0     C22210   1.591   0.498   0.103 -0.6587 -0.3072 -0.4563
  906MOL0     O22211   1.685   0.402   0.131 -0.5429 -0.5555 -0.3606
  906MOL0     C22212   1.784   0.423   0.236  0.3240 -0.0357  0.5140
  906MOL0     C22213   1.740   0.339   0.364  0.3399  0.1874 -0.1559
  906MOL0     C22214   1.621   0.386   0.456 -0.8462  0.3774 -0.2309
  906MOL0     C22215   1.484   0.341   0.396  0.1602 -0.9091 -0.4533
  906MOL0     C22216   1.364   0.436   0.428  0.6933 -0.4365  0.3625
  906MOL0     C22217   1.244   0.385   0.348  0.2903 -0.1112  0.2262
  906MOL0     C22218   1.124   0.492   0.351  1.4505  0.5170  0.2992
  906MOL0     C22219   1.000   0.431   0.283  0.1656 -0.3146 -0.9894
  906MOL0    Cl22220   1.024   0.392   0.111  0.2718  0.0002 -0.0058
  906MOL0     C22221   1.604   0.635   0.130 -0.6652  0.5094 -0.1309
  906MOL0     C22222   1.496   0.719   0.088 -0.5339  0.0956  0.5352
  906MOL0     O22223   1.249   0.848   0.215 -0.1367  0.1310 -0.3923
  906MOL0     C22224   0.975   0.794   0.048 -0.1047 -0.8201 -0.6278
  906MOL0     C22225   0.841   0.830   0.047  0.3273  0.3576  0.4440
  906MOL0     N22226   0.617   1.449  -0.016 -0.6794  0.9439 -0.1557
  906MOL0     N22227   0.734   1.514  -0.018  0.3495  0.4279  0.6060
  906MOL0     C22228   1.849   1.098   0.322 -0.3093 -0.4278 -0.5390
  906MOL0     C22229   1.989   1.092   0.311 -0.1529 -0.1546  0.6895
  906MOL0     C22230   2.420   1.109   0.229 -0.3741 -0.2476  0.3223
  906MOL0     C22231   2.459   1.238   0.261 -0.5294 -0.0369  0.5123
  906MOL0     C22232   2.600   1.262   0.259  0.4276  0.1289  0.8150
  906MOL0     C22233   2.693   1.163   0.225 -0.6074 -0.1720  1.2984
  906MOL0     O22234   2.825   1.205   0.224  0.2055  0.0861  0.3592
  906MOL0     C22235   2.924   1.122   0.159  0.2754  1.0240 -0.0290
  906MOL0     C22236   3.062   1.169   0.214 -0.5745  0.7677 -0.0024
  906MOL0     C22237   3.083   1.321   0.187  0.5578  0.5554  0.2211
  906MOL0     C22238   3.212   1.355   0.253  0.2540 -0.8238 -0.5359
  906MOL0     C22239   3.318   1.356   0.153  1.7292 -0.4253 -0.0730
  906MOL0     C22240   3.409   1.338   0.074 -0.8283 -0.2763 -0.3269
  906MOL0     C22241   2.651   1.040   0.185  0.0025  0.4058  1.0521
  906MOL0     C22242   2.516   1.011   0.186  0.0780 -0.1166 -0.3958
  906MOL0     H22243   2.048   1.396   0.153  3.1314 -1.6707  0.5284
  906MOL0     H22244   1.817   1.423   0.205 -0.0163  0.3604  3.0930
  906MOL0     H22245   1.647   1.380   0.432  1.2402 -0.0165 -0.5813
  906MOL0     H22246   1.620   1.427   0.261 -0.1624 -1.2219 -0.9417
  906MOL0     H22247   1.411   1.283   0.269  0.8018  0.2332 -0.9353
  906MOL0     H22248   1.429   1.298   0.447 -1.1379  0.8220 -0.6601
  906MOL0     H22249   1.369   1.493   0.454  1.3031 -1.9619  0.0456
  906MOL0     H22250   1.480   1.558   0.339  0.8488  0.0217  2.0453
  906MOL0     H22251   1.275   1.530   0.159 -3.3472 -1.8100 -0.8566
  906MOL0     H22252   1.198   1.420   0.270 -1.1857  0.5493  1.8854
  906MOL0     H22253   1.146   1.562   0.420  0.7126  0.6674 -0.5910
  906MOL0     H22254   1.255   1.695   0.375 -4.1206  2.3937  4.2200
  906MOL0     H22255   1.052   1.767   0.316  1.9535  1.0951  0.3729
  906MOL0     H22256   1.148   1.723   0.171  0.1611  1.4722  0.8116
  906MOL0     H22257   1.029   1.511   0.151 -0.4814 -0.5183 -0.1712
  906MOL0     H22258   0.945   1.534   0.307  0.2210  0.4187 -1.3548
  906MOL0     H22259   0.909   1.700   0.045 -0.6466  1.9821  1.2210
  906MOL0     H22260   0.840   1.740   0.198 -1.1428 -0.7723  0.2843
  906MOL0     H22261   0.668   1.531   0.295  0.9321  3.3209 -1.4331
  906MOL0     H22262   0.486   1.318   0.257  2.1628 -2.1633 -1.9430
  906MOL0     H22263   0.399   1.466   0.183  0.0607  0.2300 -2.5163
  906MOL0     H22264   0.382   1.318  -0.021  3.3401  0.3910 -1.4510
  906MOL0     H22265   0.313   1.244   0.121 -0.5354  0.3295 -0.0058
  906MOL0     H22266   0.459   1.098  -0.045  0.7251  0.1471  0.0275
  906MOL0     H22267   0.414   1.054   0.108  1.3409 -0.9648  1.9158
  906MOL0     H22268   0.636   1.137   0.196 -0.8792 -4.8705 -0.2208
  906MOL0     H22269   0.671   1.208   0.036  2.0022  0.9918  1.2776
  906MOL0     H22270   0.873   1.164   0.075 -0.3034 -1.0134  0.7917
  906MOL0     H22271   1.095   1.202   0.191 -0.7782  1.4488 -2.3723
  906MOL0     H22272   1.224   1.092   0.159 -0.7526  0.6051  0.1441
  906MOL0     H22273   1.156   1.198   0.034  2.2579  1.7471  0.6664
  906MOL0     H22274   1.280   0.494  -0.044  1.5034 -1.3614 -2.0338
  906MOL0     H22275   1.471   0.347   0.020 -2.0352 -0.2346  0.1000
  906MOL0     H22276   1.879   0.381   0.201  0.0006  0.4141 -0.9900
  906MOL0     H22277   1.807   0.528   0.257  4.0159 -0.2317 -1.6378
  906MOL0     H22278   1.717   0.235   0.340  2.3408 -0.9662  2.4727
  906MOL0     H22279   1.829   0.329   0.427  0.6733  1.4793 -0.3941
  906MOL0     H22280   1.629   0.495   0.463 -1.9565  0.5528 -1.3245
  906MOL0     H22281   1.631   0.350   0.559 -0.8474  0.0515 -0.3460
  906MOL0     H22282   1.478   0.340   0.287 -0.4894 -1.5669 -0.4193
  906MOL0     H22283   1.451   0.239   0.415 -3.4255  0.2922  0.5789
  906MOL0     H22284   1.394   0.537   0.400  0.6586  1.1578  5.1632
  906MOL0     H22285   1.347   0.449   0.536  0.1147  1.0791  0.1101
  906MOL0     H22286   1.273   0.367   0.244  0.6080 -0.8417  0.4348
  906MOL0     H22287   1.214   0.287   0.384  0.3470  0.1586  1.0279
  906MOL0     H22288   1.158   0.590   0.316  4.4297  1.4918  4.9749
  906MOL0     H22289   1.089   0.513   0.453  2.6291  0.5082  0.7266
  906MOL0     H22290   0.916   0.500   0.293  1.2725  0.7762  1.9065
  906MOL0     H22291   0.975   0.340   0.338 -1.3842  0.0819 -0.9859
  906MOL0     H22292   1.685   0.670   0.192 -0.0376 -1.4069  0.2040
  906MOL0     H22293   1.509   0.827   0.087 -1.7656  0.2733 -1.0226
  906MOL0     H22294   0.996   0.689   0.035  1.0383 -0.7615  0.5670
  906MOL0     H22295   0.763   0.758   0.026  1.1281 -0.2533 -0.5667
  906MOL0     H22296   1.791   1.012   0.354  1.4039 -0.8044  1.8055
  906MOL0     H22297   2.041   1.001   0.343 -1.2762 -1.1788 -0.2927
  906MOL0     H22298   2.393   1.317   0.294 -1.6555 -1.7910  2.7561
  906MOL0     H22299   2.636   1.358   0.296 -2.6573  1.2280  1.2342
  906MOL0     H22300   2.904   1.015   0.169 -0.5925  1.3431  2.1359
  906MOL0     H22301   2.928   1.136   0.051  0.6673 -0.6825 -0.2683
  906MOL0     H22302   3.146   1.112   0.173  0.2753  2.0444 -0.0656
  906MOL0     H22303   3.056   1.143   0.320 -2.7742 -2.0355 -0.6828
  906MOL0     H22304   2.995   1.376   0.220  0.1172  0.5052 -0.8259
  906MOL0     H22305   3.088   1.332   0.078 -1.9992  5.4752  0.3422
  906MOL0     H22306   3.239   1.293   0.339  4.7334  0.8565 -0.4687
  906MOL0     H22307   3.192   1.453   0.296 -1.5010 -0.7466 -1.4316
  906MOL0     H22308   3.486   1.303   0.009 -1.6635 -1.9391 -0.4710
  906MOL0     H22309   2.721   0.957   0.179 -0.2123  0.2547  0.6285
  906MOL0     H22310   2.482   0.913   0.156  1.4041 -0.5255 -0.6308
  907MOL0     O22311  11.240   8.953   5.285 -0.1995 -0.2987  0.2316
  907MOL0     C22312  11.280   9.000   5.393 -0.4275  0.2855 -1.2315
  907MOL0     O22313  11.220   9.092   5.471 -0.6191  0.1452 -0.9111
  907MOL0     C22314  11.097   9.148   5.441  0.1790  0.2559  0.1429
  907MOL0     C22315  11.055   9.177   5.310 -0.3060  1.1386  0.6166
  907MOL0     C22316  10.943   9.250   5.281 -0.2288 -0.4919  0.2585
  907MOL0     C22317  10.867   9.303   5.390 -0.5999 -0.4913  0.4195
  907MOL0     O22318  10.750   9.376   5.367  0.2470  0.3627 -0.0173
  907MOL0     C22319  10.653   9.286   5.312  0.3880 -0.1109  0.1362
  907MOL0     C22320  10.532   9.365   5.292  0.9368 -0.2848 -0.7879
  907MOL0     C22321  10.470   9.414   5.429  0.1256 -0.9774  0.3858
  907MOL0     C22322  10.363   9.526   5.399 -0.3157  0.3413 -0.4564
  907MOL0     C22323  10.331   9.591   5.536 -0.0400 -0.3363  0.8100
  907MOL0     C22324  10.247   9.716   5.516  0.0111 -0.0475  1.0294
  907MOL0     C22325  10.215   9.779   5.646 -0.0996 -0.3433  0.4782
  907MOL0     C22326  10.106   9.722   5.736  0.2897  0.1442 -0.4733
  907MOL0     N22327   9.985   9.694   5.659 -0.8439  0.0234 -0.1600
  907MOL0     C22328   9.878   9.777   5.638  0.8995 -0.4989 -0.0492
  907MOL0     C22329   9.789   9.708   5.553  0.3083 -0.7314 -0.3029
  907MOL0     C22330   9.663   9.750   5.488  0.0911  0.0963  0.7069
  907MOL0     C22331   9.560   9.768   5.598  0.2960  0.3229 -0.3055
  907MOL0     C22332   9.441   9.854   5.547 -0.6301  0.8093 -0.0969
  907MOL0     C22333   9.300   9.794   5.586 -0.0061  0.3602  0.7419
  907MOL0     O22334   9.277   9.793   5.725 -0.0569 -0.7894  0.2874
  907MOL0     C22335   9.163   9.854   5.771  0.2549  1.0158  0.0714
  907MOL0     C22336   9.096   9.806   5.890  0.3719 -0.0568  0.0828
  907MOL0     C22337   8.978   9.864   5.941 -0.6536 -0.1938 -0.3018
  907MOL0     C22338   8.929   9.796   6.065 -0.1224  0.0188  0.2150
  907MOL0     C22339   8.904   9.961   5.863 -0.7086  0.3821  0.4067
  907MOL0     C22340   8.776  10.017   5.903  0.0975  0.7291 -0.1853
  907MOL0     O22341   8.723  10.108   5.820 -0.1919  0.0053  0.1324
  907MOL0     C22342   8.592  10.146   5.850 -0.3192  0.1659 -0.8068
  907MOL0     C22343   8.562  10.268   5.909 -0.1749  0.8849  0.2007
  907MOL0     C22344   8.428  10.299   5.908 -0.0116 -0.0125 -0.4026
  907MOL0     C22345   8.325  10.214   5.865  0.7193  0.2170  0.4329
  907MOL0     O22346   8.203  10.272   5.848 -0.9775  0.8746 -1.1300
  907MOL0     C22347   8.093  10.190   5.823  0.1709 -0.0336  0.0675
  907MOL0     C22348   7.975  10.278   5.855  0.2871  0.1531 -0.9396
  907MOL0     C22349   7.856  10.188   5.841  0.6275  0.8375  0.5727
  907MOL0     C22350   7.730  10.264   5.831  0.1035 -0.2704 -0.0346
  907MOL0     C22351   7.601  10.184   5.865 -0.3134  0.0368  0.5415
  907MOL0     C22352   7.465  10.256   5.834  0.2396 -0.6627 -0.2195
  907MOL0     C22353   7.355  10.181   5.907 -0.0612  0.8733  0.1641
  907MOL0     C22354   7.209  10.230   5.878 -1.6859 -0.5821  0.6112
  907MOL0    Cl22355   7.106  10.122   5.975  0.0701  0.0358  0.3777
  907MOL0     C22356   8.356  10.088   5.815 -0.2978  0.4208 -0.4772
  907MOL0     C22357   8.496  10.054   5.809 -0.7222 -0.0673  0.2293
  907MOL0     O22358   8.721   9.968   5.997 -0.3337  0.0321  1.1897
  907MOL0     C22359   8.971  10.016   5.750  0.3124 -0.0217 -1.4328
  907MOL0     C22360   9.103   9.965   5.710 -0.1360 -0.8649  0.3194
  907MOL0     N22361   9.837   9.581   5.536  0.8980 -0.0654 -0.0808
  907MOL0     N22362   9.951   9.575   5.594 -0.3125 -0.4645 -0.6391
  907MOL0     C22363  10.906   9.279   5.517 -0.2952 -0.6565 -0.6382
  907MOL0     C22364  11.023   9.201   5.544  0.2111 -0.4832 -0.3170
  907MOL0     C22365  11.413   8.953   5.433  0.4277 -0.1195 -0.7998
  907MOL0     C22366  11.504   8.878   5.349  0.1401  0.2499  0.5356
  907MOL0     C22367  11.636   8.850   5.384 -0.0658 -0.6711  0.1667
  907MOL0     C22368  11.686   8.908   5.499 -0.3393 -0.2453  0.5811
  907MOL0     O22369  11.811   8.884   5.542 -0.1061  0.0752 -1.1673
  907MOL0     C22370  11.903   8.976   5.489  0.6038  0.0617 -0.1918
  907MOL0     C22371  12.042   8.920   5.478  0.3563  0.1623 -0.1331
  907MOL0     C22372  12.060   8.803   5.381  0.2294 -0.9010 -0.8298
  907MOL0     C22373  12.204   8.764   5.350 -0.1507 -0.2534 -0.0239
  907MOL0     C22374  12.201   8.646   5.255 -0.8029 -0.6270  0.2919
  907MOL0     C22375  12.212   8.552   5.171 -1.0725 -0.0521  0.2643
  907MOL0     C22376  11.598   8.978   5.583  0.0136 -1.3148 -0.6019
  907MOL0     C22377  11.464   9.003   5.554 -0.5674  0.3029  0.0526
  907MOL0     H22378  11.103   9.151   5.216  0.0387  2.4505  0.4109
  907MOL0     H22379  10.914   9.271   5.179  1.1545 -1.1808 -0.3137
  907MOL0     H22380  10.684   9.254   5.212  1.5829  4.5171 -1.1885
  907MOL0     H22381  10.636   9.194   5.370  1.6861 -2.5239 -3.0093
  907MOL0     H22382  10.550   9.452   5.228 -1.7302 -0.4589 -1.8974
  907MOL0     H22383  10.462   9.301   5.237  2.5305 -0.7169 -2.4206
  907MOL0     H22384  10.427   9.335   5.491 -1.3901 -0.8071 -0.3868
  907MOL0     H22385  10.550   9.458   5.490  0.1345  0.5123 -0.6356
  907MOL0     H22386  10.396   9.600   5.326 -0.9878  0.7960 -0.3064
  907MOL0     H22387  10.268   9.481   5.367 -1.3869  0.2232  2.5455
  907MOL0     H22388  10.269   9.518   5.588 -1.6521  0.8822  0.6745
  907MOL0     H22389  10.420   9.616   5.594 -1.0372  0.9575  1.8216
  907MOL0     H22390  10.302   9.787   5.454 -1.2331  2.9556  3.0937
  907MOL0     H22391  10.153   9.689   5.465 -0.2957  0.4404  1.3172
  907MOL0     H22392  10.306   9.789   5.706  0.7718  2.6250 -1.1807
  907MOL0     H22393  10.182   9.878   5.615  0.4715 -1.0920 -2.8439
  907MOL0     H22394  10.085   9.797   5.813  1.2261  1.6122 -1.5922
  907MOL0     H22395  10.152   9.629   5.770  2.4093  1.8274  1.5257
  907MOL0     H22396   9.861   9.871   5.688 -1.8422 -1.5744  1.2830
  907MOL0     H22397   9.670   9.849   5.443 -0.9409  1.1635  2.7590
  907MOL0     H22398   9.645   9.683   5.403  1.1409  1.4996 -0.6783
  907MOL0     H22399   9.602   9.817   5.687  0.6301 -0.5029  0.0105
  907MOL0     H22400   9.535   9.665   5.627  0.6804  0.0001 -1.0951
  907MOL0     H22401   9.437   9.868   5.438  0.9704 -0.0496 -0.2968
  907MOL0     H22402   9.463   9.952   5.592 -0.9738  0.5958  0.5404
  907MOL0     H22403   9.311   9.688   5.560  1.5390  0.4978  0.6932
  907MOL0     H22404   9.226   9.837   5.518 -0.7785 -0.0492  1.3070
  907MOL0     H22405   9.134   9.715   5.935  2.6982  0.3255 -0.9050
  907MOL0     H22406   8.917   9.874   6.141  0.4246 -0.3406  0.6797
  907MOL0     H22407   8.841   9.736   6.039  0.3617  0.3424 -2.5287
  907MOL0     H22408   9.009   9.730   6.099  0.9052  0.8343 -0.5518
  907MOL0     H22409   8.645  10.336   5.930  0.1945  0.6862 -0.5845
  907MOL0     H22410   8.395  10.398   5.938  1.0519  0.8977 -2.1150
  907MOL0     H22411   8.094  10.155   5.719 -0.3787 -0.7256  0.2935
  907MOL0     H22412   8.100  10.104   5.890  2.2519  1.8250  2.4672
  907MOL0     H22413   7.972  10.323   5.955  1.9497 -1.8035  0.0815
  907MOL0     H22414   7.966  10.357   5.780  3.0724  0.3070 -1.2393
  907MOL0     H22415   7.843  10.119   5.925  1.2347 -1.0513 -0.8085
  907MOL0     H22416   7.866  10.123   5.753  1.5701  0.8345  0.6748
  907MOL0     H22417   7.746  10.348   5.900  2.5341 -0.3921 -0.3689
  907MOL0     H22418   7.741  10.306   5.731  3.7139 -0.8929 -0.0332
  907MOL0     H22419   7.612  10.167   5.973  2.0001  1.5246  0.6104
  907MOL0     H22420   7.596  10.085   5.818 -2.6799 -1.2630  3.2011
  907MOL0     H22421   7.467  10.354   5.883  1.3516 -1.1440  0.7499
  907MOL0     H22422   7.445  10.267   5.727 -2.4669 -0.0046  0.2645
  907MOL0     H22423   7.374  10.185   6.015 -0.0438 -0.3487  0.2224
  907MOL0     H22424   7.357  10.078   5.873  3.0445  1.3148 -1.2882
  907MOL0     H22425   7.196  10.216   5.771 -1.5842  0.2868  0.4791
  907MOL0     H22426   7.199  10.337   5.900  3.2384 -0.0207  1.2588
  907MOL0     H22427   8.281  10.030   5.762  0.3427  0.2105 -1.1848
  907MOL0     H22428   8.527   9.967   5.752 -2.0138 -1.0932  1.0511
  907MOL0     H22429   8.929  10.102   5.699  1.2608 -0.0515 -2.2969
  907MOL0     H22430   9.160  10.005   5.627 -1.2572  0.0868 -0.0240
  907MOL0     H22431  10.854   9.317   5.604 -0.4603  2.1385 -1.8471
  907MOL0     H22432  11.074   9.186   5.639  2.4856 -1.1332 -1.5568
  907MOL0     H22433  11.482   8.821   5.260  1.2559  1.4566 -0.5653
  907MOL0     H22434  11.703   8.793   5.319  1.5411  0.4445  0.7670
  907MOL0     H22435  11.873   9.011   5.390 -1.2504 -0.5147  0.1281
  907MOL0     H22436  11.918   9.063   5.553 -0.6520  1.2124 -1.4105
  907MOL0     H22437  12.074   8.884   5.577  1.2505 -1.7453 -1.0601
  907MOL0     H22438  12.101   9.003   5.439  0.8939 -0.3001 -0.3241
  907MOL0     H22439  12.005   8.827   5.290  0.5922 -0.3441 -0.9027
  907MOL0     H22440  12.007   8.718   5.426 -1.5543  0.7845  0.4264
  907MOL0     H22441  12.256   8.725   5.437  0.0667 -1.9695 -0.8900
  907MOL0     H22442  12.255   8.849   5.304  1.6351 -0.4851  1.3969
  907MOL0     H22443  12.227   8.472   5.101  1.6378  1.5977 -1.2305
  907MOL0     H22444  11.626   9.008   5.684  0.5191 -0.9175 -0.8567
  907MOL0     H22445  11.396   9.055   5.620 -0.5255 -0.0471  0.3777
  908MOL0     O22446   3.523   3.010   9.704  0.6521 -0.4169 -0.4205
  908MOL0     C22447   3.558   2.929   9.620  0.8067  0.4332 -0.4057
  908MOL0     O22448   3.474   2.846   9.549 -0.0650  0.3669 -0.3583
  908MOL0     C22449   3.339   2.851   9.580  0.1503  0.3946 -0.0025
  908MOL0     C22450   3.265   2.736   9.611  0.7839  0.1843  0.3066
  908MOL0     C22451   3.130   2.732   9.634  0.3385  0.1723 -0.0069
  908MOL0     C22452   3.061   2.848   9.611  0.0308  0.2193 -0.4213
  908MOL0     O22453   2.920   2.857   9.634  0.0157  0.1662 -0.7337
  908MOL0     C22454   2.867   2.804   9.758 -0.0829 -0.0294 -0.2809
  908MOL0     C22455   2.718   2.805   9.763  0.5501 -0.1006 -0.1672
  908MOL0     C22456   2.665   2.779   9.907 -0.0537 -0.4849 -0.1474
  908MOL0     C22457   2.676   2.626   9.952 -0.0364  0.5011 -0.1297
  908MOL0     C22458   2.635   2.611  10.096  0.1361  0.4839  0.2873
  908MOL0     C22459   2.661   2.465  10.142 -0.2398  0.4311  0.0756
  908MOL0     C22460   2.622   2.441  10.280 -0.0437  1.2464 -0.5814
  908MOL0     C22461   2.477   2.453  10.290  0.0593  0.5084 -0.0694
  908MOL0     N22462   2.433   2.391  10.415 -0.9796 -0.2961  0.3442
  908MOL0     C22463   2.458   2.440  10.546  0.3706  0.0942 -0.2854
  908MOL0     C22464   2.428   2.342  10.632  0.2407  0.3803 -0.7145
  908MOL0     C22465   2.453   2.332  10.778  0.5881 -0.4093 -0.5326
  908MOL0     C22466   2.589   2.384  10.820  0.4689  0.5094  1.0848
  908MOL0     C22467   2.635   2.343  10.955  0.2233  0.0980 -0.2923
  908MOL0     C22468   2.679   2.195  10.962 -0.3653 -0.1907 -0.3646
  908MOL0     O22469   2.576   2.098  10.989  0.2400  0.0990  0.5260
  908MOL0     C22470   2.527   2.094  11.115 -0.3338 -0.2084 -0.0864
  908MOL0     C22471   2.595   2.040  11.223 -0.3543  0.9415  0.7957
  908MOL0     C22472   2.528   2.027  11.344 -0.2282 -0.1952  0.2747
  908MOL0     C22473   2.612   2.002  11.476 -0.4055  0.3255  0.6937
  908MOL0     C22474   2.390   2.067  11.363 -0.0992 -0.4197  1.0936
  908MOL0     C22475   2.321   2.068  11.492  0.1786 -0.2210 -0.2527
  908MOL0     O22476   2.208   2.143  11.507  0.4451 -0.0708 -0.4747
  908MOL0     C22477   2.143   2.157  11.629  0.0386 -0.2828 -1.3837
  908MOL0     C22478   2.002   2.173  11.617 -0.9093  0.1389 -0.9144
  908MOL0     C22479   1.916   2.190  11.721  0.2754 -1.1027  0.5063
  908MOL0     C22480   1.963   2.192  11.848 -0.3818  0.4091  0.1699
  908MOL0     O22481   1.872   2.212  11.948 -0.6926  0.4617  0.2378
  908MOL0     C22482   1.919   2.185  12.077 -0.2793  0.2349  0.4405
  908MOL0     C22483   1.813   2.201  12.184  0.7724 -0.8193 -0.4599
  908MOL0     C22484   1.777   2.350  12.211  1.9456  0.1396  0.4894
  908MOL0     C22485   1.886   2.424  12.290 -0.2753  0.5469  0.2157
  908MOL0     C22486   1.842   2.558  12.342 -0.9781  0.0842  0.5164
  908MOL0     C22487   1.940   2.622  12.453 -0.9824 -0.3622  0.7857
  908MOL0     C22488   1.923   2.553  12.584  0.3834 -0.3232  0.1495
  908MOL0     C22489   1.795   2.606  12.654  0.8380  1.5008  0.2222
  908MOL0    Cl22490   1.849   2.748  12.765  0.0330 -0.4552  0.1066
  908MOL0     C22491   2.104   2.175  11.868 -0.9556 -0.0604 -0.3694
  908MOL0     C22492   2.193   2.161  11.753  0.2469  0.7212 -0.8234
  908MOL0     O22493   2.359   1.982  11.574  0.1062  0.1146  0.6220
  908MOL0     C22494   2.324   2.132  11.255 -0.3332  0.3158 -0.1311
  908MOL0     C22495   2.395   2.145  11.139 -0.6460  0.3637  0.2488
  908MOL0     N22496   2.383   2.235  10.559 -0.6844  0.2260 -0.8743
  908MOL0     N22497   2.387   2.264  10.427 -0.3230 -0.2752 -0.3605
  908MOL0     C22498   3.123   2.966   9.567 -1.1163 -0.2789  1.1068
  908MOL0     C22499   3.262   2.967   9.569  0.0519  0.2870 -0.3770
  908MOL0     C22500   3.700   2.935   9.576  0.3726  0.4352  0.3399
  908MOL0     C22501   3.753   2.857   9.472 -0.5259  0.4465  0.0462
  908MOL0     C22502   3.887   2.866   9.434  0.2382 -0.3809  0.2381
  908MOL0     C22503   3.977   2.957   9.495  0.6769 -0.2440 -0.1694
  908MOL0     O22504   4.110   2.969   9.476 -0.4570  0.1449 -0.1027
  908MOL0     C22505   4.165   2.854   9.411 -0.5993  0.4804  0.1415
  908MOL0     C22506   4.316   2.885   9.379  0.3600 -0.4813 -0.6376
  908MOL0     C22507   4.392   2.853   9.510  1.2270  0.0955  0.6692
  908MOL0     C22508   4.536   2.879   9.490  0.7412  0.7285 -0.6527
  908MOL0     C22509   4.561   3.021   9.499  0.0355 -0.3384  0.3476
  908MOL0     C22510   4.580   3.140   9.502 -0.0912 -0.2867  0.3324
  908MOL0     C22511   3.919   3.035   9.590 -0.7837  0.2759  0.3678
  908MOL0     C22512   3.790   3.023   9.632 -0.5257  0.1125  0.4138
  908MOL0     H22513   3.325   2.646   9.610 -2.2295 -2.0052 -1.8196
  908MOL0     H22514   3.085   2.637   9.662  2.3519 -0.7747  0.2451
  908MOL0     H22515   2.907   2.706   9.784  1.1851  1.0551  2.3404
  908MOL0     H22516   2.899   2.873   9.837 -1.0371  2.7078 -2.1280
  908MOL0     H22517   2.683   2.906   9.737  1.8121 -0.0246 -1.7365
  908MOL0     H22518   2.673   2.737   9.691 -4.3341  4.1676 -1.8482
  908MOL0     H22519   2.717   2.850   9.971 -1.5130 -1.4561  2.2430
  908MOL0     H22520   2.559   2.805   9.908  0.8025  3.7038 -1.4115
  908MOL0     H22521   2.613   2.563   9.889  1.7639 -0.5443 -0.9720
  908MOL0     H22522   2.777   2.585   9.940 -0.2081 -0.8247  2.3041
  908MOL0     H22523   2.702   2.675  10.154  1.2914  1.2379 -1.7620
  908MOL0     H22524   2.534   2.645  10.120 -0.4496 -1.3545  0.5640
  908MOL0     H22525   2.618   2.399  10.067 -0.8598  1.3600 -0.4118
  908MOL0     H22526   2.768   2.444  10.134  0.1615  1.9641  1.0624
  908MOL0     H22527   2.660   2.344  10.314 -0.9141  2.0493  3.1661
  908MOL0     H22528   2.669   2.513  10.348  0.8297 -0.3205  0.5475
  908MOL0     H22529   2.436   2.399  10.204  1.1976 -2.1956  0.9910
  908MOL0     H22530   2.439   2.555  10.299  0.3966  0.6588 -0.3695
  908MOL0     H22531   2.504   2.532  10.579  1.6987 -0.5989 -0.1422
  908MOL0     H22532   2.377   2.393  10.828 -0.7202  0.3284 -3.2258
  908MOL0     H22533   2.437   2.228  10.805 -0.7219 -0.2415 -0.6054
  908MOL0     H22534   2.584   2.492  10.805  2.9904  0.2406 -3.3601
  908MOL0     H22535   2.661   2.345  10.747 -2.7192 -2.2032 -0.8931
  908MOL0     H22536   2.562   2.364  11.033  0.2275  0.5614 -0.4055
  908MOL0     H22537   2.724   2.403  10.978  0.4199  0.3515 -1.6189
  908MOL0     H22538   2.762   2.187  11.032 -1.5502 -1.4811  0.9693
  908MOL0     H22539   2.725   2.170  10.866  1.4231  0.9023  0.1492
  908MOL0     H22540   2.699   2.008  11.215 -1.0368 -1.2596 -0.1201
  908MOL0     H22541   2.714   1.981  11.443 -1.1074 -1.6774 -0.4298
  908MOL0     H22542   2.606   2.091  11.538 -2.6276  0.1277  0.8308
  908MOL0     H22543   2.584   1.909  11.528  0.2163  1.3132  2.9334
  908MOL0     H22544   1.955   2.183  11.519  0.9204 -0.2474 -1.8639
  908MOL0     H22545   1.815   2.223  11.699  0.7488  0.8104  0.9476
  908MOL0     H22546   1.960   2.084  12.084  0.0772  0.3934  0.6552
  908MOL0     H22547   1.990   2.265  12.100 -0.6338  0.3323  1.2213
  908MOL0     H22548   1.725   2.149  12.144 -2.2610  0.6332  3.6078
  908MOL0     H22549   1.843   2.151  12.277 -0.6456  2.9485  2.3085
  908MOL0     H22550   1.679   2.351  12.258  0.9593  2.2103 -1.4557
  908MOL0     H22551   1.755   2.402  12.117 -1.7185 -1.0868  0.5272
  908MOL0     H22552   1.912   2.367  12.379  1.6067 -0.3378 -0.8332
  908MOL0     H22553   1.973   2.423  12.224 -0.6606 -0.0353 -0.2877
  908MOL0     H22554   1.738   2.550  12.372 -1.1375  0.0855 -0.0319
  908MOL0     H22555   1.836   2.634  12.264  2.2145 -0.7379 -0.6846
  908MOL0     H22556   2.044   2.603  12.424 -0.5762 -0.4868  2.2884
  908MOL0     H22557   1.928   2.731  12.455 -1.2912 -0.3165 -1.0959
  908MOL0     H22558   2.011   2.584  12.642 -0.7695 -0.0578  1.8093
  908MOL0     H22559   1.920   2.444  12.574 -3.0119 -0.3269 -0.0252
  908MOL0     H22560   1.762   2.524  12.718 -1.4027  0.4871 -2.0397
  908MOL0     H22561   1.714   2.628  12.583 -2.1648 -3.1817  1.8113
  908MOL0     H22562   2.143   2.163  11.968 -2.8249 -3.0163  0.1381
  908MOL0     H22563   2.300   2.148  11.765  0.4134  1.1964 -1.6855
  908MOL0     H22564   2.218   2.157  11.258 -0.0146  1.6977  3.2077
  908MOL0     H22565   2.348   2.186  11.050 -0.4402 -1.6684 -0.8858
  908MOL0     H22566   3.067   3.058   9.560 -0.4963 -0.0405 -1.4585
  908MOL0     H22567   3.311   3.063   9.558 -0.7805  0.6788 -0.7312
  908MOL0     H22568   3.689   2.780   9.429 -0.5410  0.3585  0.2230
  908MOL0     H22569   3.916   2.794   9.357 -0.5873  1.1546 -1.5966
  908MOL0     H22570   4.148   2.766   9.473 -0.3129  0.9184  0.8532
  908MOL0     H22571   4.125   2.841   9.310  0.2679 -2.2751  0.0819
  908MOL0     H22572   4.339   2.985   9.342  1.7006 -1.1353 -1.6605
  908MOL0     H22573   4.358   2.821   9.301  2.0098 -0.5196  0.2600
  908MOL0     H22574   4.380   2.751   9.546  0.5147  0.5304  1.7181
  908MOL0     H22575   4.346   2.923   9.581  1.5384  0.9072  0.0965
  908MOL0     H22576   4.574   2.839   9.396  0.9956 -1.0210  0.1571
  908MOL0     H22577   4.590   2.823   9.567 -1.2657 -3.1113 -1.8183
  908MOL0     H22578   4.600   3.245   9.499  0.0095 -0.1480  3.2881
  908MOL0     H22579   3.977   3.115   9.634  0.5994 -0.4697 -0.0333
  908MOL0     H22580   3.768   3.099   9.706  3.3448 -1.3653  3.4109
  909MOL0     O22581   4.085   8.360   6.507 -0.0681  0.3860 -0.1615
  909MOL0     C22582   4.143   8.323   6.607 -0.9237  0.4193 -0.0837
  909MOL0     O22583   4.153   8.199   6.663 -0.2482  0.5070  0.1590
  909MOL0     C22584   4.102   8.093   6.586 -0.5144 -0.8230 -0.0599
  909MOL0     C22585   4.154   8.061   6.454  0.9395 -0.6621  0.3094
  909MOL0     C22586   4.101   7.961   6.382  0.2853  1.4868  0.1561
  909MOL0     C22587   4.005   7.880   6.432  0.5824  0.6849 -0.6011
  909MOL0     O22588   3.951   7.780   6.364 -0.2709  0.0293  0.6441
  909MOL0     C22589   4.036   7.683   6.291  0.0291  0.2099  0.0349
  909MOL0     C22590   3.941   7.576   6.248  1.1193 -0.4819  0.3952
  909MOL0     C22591   3.873   7.514   6.362 -0.1845  0.3570  0.1756
  909MOL0     C22592   3.765   7.413   6.329 -0.3535  0.1727 -0.4813
  909MOL0     C22593   3.731   7.341   6.465 -0.1979 -0.3219  0.1201
  909MOL0     C22594   3.597   7.251   6.454  0.0397 -0.4608 -0.3147
  909MOL0     C22595   3.586   7.159   6.584  0.9713  1.8784  0.1854
  909MOL0     C22596   3.537   7.016   6.546 -0.9285  0.4261 -0.4881
  909MOL0     N22597   3.397   7.001   6.553 -0.4608  0.2282  0.5799
  909MOL0     C22598   3.332   6.915   6.642 -0.5517 -0.7961  0.3739
  909MOL0     C22599   3.201   6.923   6.597  0.2790 -0.1231 -0.1203
  909MOL0     C22600   3.082   6.850   6.665  0.1055 -0.5580 -0.1870
  909MOL0     C22601   3.105   6.872   6.819  0.0463 -0.2685  0.2607
  909MOL0     C22602   3.073   7.018   6.845 -0.6214 -0.0357  0.8766
  909MOL0     C22603   3.089   7.038   6.997 -0.6599  0.7342 -0.2439
  909MOL0     O22604   2.991   6.961   7.075 -0.5214 -0.8051 -0.3033
  909MOL0     C22605   2.859   6.983   7.072  0.2164  1.0347  0.7320
  909MOL0     C22606   2.781   6.886   7.140 -0.7668 -0.1302  0.6664
  909MOL0     C22607   2.648   6.899   7.167 -0.1590 -0.3195 -1.4232
  909MOL0     C22608   2.582   6.796   7.258 -0.1826  0.8324 -0.3084
  909MOL0     C22609   2.586   7.024   7.121 -0.9939  0.5904 -0.7308
  909MOL0     C22610   2.442   7.037   7.152  0.0266 -0.0006  0.2516
  909MOL0     O22611   2.421   7.063   7.282  0.2120  0.5111 -0.3613
  909MOL0     C22612   2.291   7.092   7.313  0.4962  0.3889  0.0889
  909MOL0     C22613   2.230   7.019   7.414  0.0941 -0.0135  0.7721
  909MOL0     C22614   2.094   7.033   7.439 -0.6126 -0.0428  0.4867
  909MOL0     C22615   2.021   7.138   7.386 -1.1567  0.5418 -0.3579
  909MOL0     O22616   1.889   7.159   7.434  0.2630  0.0529  0.3415
  909MOL0     C22617   1.803   7.201   7.329  0.1424 -0.0536  0.4200
  909MOL0     C22618   1.656   7.192   7.357  0.6573 -0.0753 -0.1769
  909MOL0     C22619   1.599   7.266   7.480 -0.1902  0.5056  0.2387
  909MOL0     C22620   1.447   7.248   7.496  0.2514  0.3539 -0.6754
  909MOL0     C22621   1.406   7.313   7.632 -0.2514  0.4095  0.2816
  909MOL0     C22622   1.249   7.288   7.664 -0.0976  0.5566 -0.7307
  909MOL0     C22623   1.157   7.376   7.577 -0.5534 -0.4866 -0.3202
  909MOL0     C22624   1.020   7.327   7.603  0.3854 -0.2406 -0.4110
  909MOL0    Cl22625   0.913   7.434   7.516 -0.1945  0.7391  0.0862
  909MOL0     C22626   2.089   7.223   7.295  0.8370  0.5571  0.5906
  909MOL0     C22627   2.214   7.189   7.250 -0.6666 -0.1227  0.4162
  909MOL0     O22628   2.364   7.043   7.056  0.0659  0.2903  0.3034
  909MOL0     C22629   2.664   7.122   7.050  1.7089 -0.2393 -0.5588
  909MOL0     C22630   2.798   7.102   7.039  0.1231  0.2530 -0.3239
  909MOL0     N22631   3.180   7.001   6.489 -0.4933 -0.2511 -0.3313
  909MOL0     N22632   3.302   7.030   6.458 -0.4147 -0.1271  0.2146
  909MOL0     C22633   3.939   7.913   6.557  0.0161 -0.0170  0.0806
  909MOL0     C22634   3.994   8.018   6.639 -0.4866  0.0045 -0.9090
  909MOL0     C22635   4.197   8.426   6.691 -0.0739 -0.4441 -0.4316
  909MOL0     C22636   4.306   8.393   6.779  0.1332  0.4446  0.1901
  909MOL0     C22637   4.349   8.486   6.876 -0.1263 -0.7730  0.4132
  909MOL0     C22638   4.293   8.620   6.878  0.2724  0.1916 -0.0651
  909MOL0     O22639   4.337   8.724   6.956 -0.0847 -0.4876  0.6115
  909MOL0     C22640   4.421   8.696   7.063 -0.2687  0.0560  0.7021
  909MOL0     C22641   4.475   8.831   7.117 -0.2932  0.2235 -0.1266
  909MOL0     C22642   4.555   8.814   7.250 -0.8191  1.1102 -0.7534
  909MOL0     C22643   4.615   8.941   7.298 -0.3381  1.3966  0.4412
  909MOL0     C22644   4.538   9.006   7.398  0.1173  0.3530  0.4478
  909MOL0     C22645   4.459   9.055   7.476  0.0636  0.3065 -0.8175
  909MOL0     C22646   4.182   8.645   6.795  0.0520  0.3512  0.3160
  909MOL0     C22647   4.140   8.555   6.695  0.2149  0.0800  0.0015
  909MOL0     H22648   4.231   8.127   6.415 -1.3020  2.0276  0.1162
  909MOL0     H22649   4.133   7.941   6.280 -1.6131  1.4256 -0.4586
  909MOL0     H22650   4.071   7.727   6.197 -1.5535 -1.5667 -1.4655
  909MOL0     H22651   4.117   7.641   6.351  0.0028 -1.5819 -1.1004
  909MOL0     H22652   3.857   7.612   6.190  0.1689 -1.0467  1.3761
  909MOL0     H22653   3.987   7.503   6.181  1.8105 -0.6797  1.0647
  909MOL0     H22654   3.948   7.459   6.420 -0.2912 -0.4985 -0.4895
  909MOL0     H22655   3.814   7.591   6.414 -1.1819  0.6299 -1.3089
  909MOL0     H22656   3.675   7.460   6.287 -0.5068 -0.7510 -1.2401
  909MOL0     H22657   3.796   7.342   6.252  2.3809 -1.0260  1.5829
  909MOL0     H22658   3.813   7.276   6.495  1.1797  2.1010  1.9608
  909MOL0     H22659   3.720   7.411   6.549  1.6300  2.4110 -1.7560
  909MOL0     H22660   3.504   7.307   6.446  0.5188  0.4969  0.5222
  909MOL0     H22661   3.607   7.191   6.363  2.6195 -0.1179 -0.3501
  909MOL0     H22662   3.683   7.138   6.630  0.0645 -1.6178  0.8168
  909MOL0     H22663   3.520   7.190   6.665  1.7213 -1.1234  2.0932
  909MOL0     H22664   3.576   6.941   6.616  0.1960  1.4818  0.0640
  909MOL0     H22665   3.570   6.981   6.448 -1.6309 -2.1485  0.1361
  909MOL0     H22666   3.374   6.856   6.723  0.6155 -1.4745 -0.6888
  909MOL0     H22667   2.987   6.889   6.627  0.2987 -0.6858 -0.8243
  909MOL0     H22668   3.084   6.742   6.650  0.8062 -0.3245 -2.1263
  909MOL0     H22669   3.206   6.840   6.845  0.1958  1.2644  1.7585
  909MOL0     H22670   3.039   6.807   6.878 -0.5619 -0.0042 -0.1184
  909MOL0     H22671   2.973   7.048   6.812  0.6119  1.5204 -1.8281
  909MOL0     H22672   3.145   7.082   6.792 -2.7925  1.5315 -0.3621
  909MOL0     H22673   3.087   7.143   7.027 -0.0220  1.1047 -1.4225
  909MOL0     H22674   3.189   7.008   7.030  0.3439  3.2927 -0.6680
  909MOL0     H22675   2.824   6.795   7.179  1.7257  1.6704  2.4165
  909MOL0     H22676   2.477   6.782   7.231 -0.0144  0.1760 -0.6464
  909MOL0     H22677   2.618   6.693   7.252  3.1693  1.9810 -2.2288
  909MOL0     H22678   2.591   6.827   7.362 -1.9822 -2.7159  1.0839
  909MOL0     H22679   2.282   6.940   7.467 -0.0238 -1.1286 -0.7150
  909MOL0     H22680   2.047   6.969   7.513  1.9864 -2.0238  0.5517
  909MOL0     H22681   1.828   7.304   7.302  0.5662 -0.7986 -2.2871
  909MOL0     H22682   1.823   7.144   7.238  3.2001  1.3880  0.0669
  909MOL0     H22683   1.602   7.219   7.266 -0.6580 -0.2679  0.5360
  909MOL0     H22684   1.641   7.086   7.377 -0.8257  0.3312  1.0329
  909MOL0     H22685   1.616   7.372   7.458  1.5640  0.2330  0.1292
  909MOL0     H22686   1.646   7.245   7.576 -2.1380  2.7438  1.7912
  909MOL0     H22687   1.383   7.300   7.425 -1.5840  0.3113  0.8888
  909MOL0     H22688   1.414   7.144   7.490 -0.7539  0.5620  0.7941
  909MOL0     H22689   1.420   7.421   7.626 -0.7463  0.4720  0.2006
  909MOL0     H22690   1.465   7.272   7.714 -2.2192 -0.2743  1.4188
  909MOL0     H22691   1.222   7.184   7.647 -1.7999  1.0457 -1.2082
  909MOL0     H22692   1.233   7.316   7.769 -1.7464  2.5227 -1.4312
  909MOL0     H22693   1.177   7.356   7.471 -0.0615  0.9009 -0.5051
  909MOL0     H22694   1.176   7.482   7.595  0.9759 -1.2397  3.4109
  909MOL0     H22695   1.003   7.342   7.710  2.8615  0.6343 -0.0645
  909MOL0     H22696   0.999   7.225   7.568 -2.8997  0.1049  0.2220
  909MOL0     H22697   2.038   7.310   7.254  0.1585 -1.3281 -2.8929
  909MOL0     H22698   2.258   7.245   7.167 -0.2611  0.5342  1.0579
  909MOL0     H22699   2.616   7.214   7.017  1.0637 -0.7442 -1.0585
  909MOL0     H22700   2.857   7.181   6.992  2.6642  0.1474  2.4197
  909MOL0     H22701   3.857   7.857   6.603  0.5302 -1.7229 -0.9803
  909MOL0     H22702   3.965   8.038   6.742  0.6310 -0.4065 -0.5008
  909MOL0     H22703   4.355   8.297   6.790 -2.6754 -1.0606  0.4183
  909MOL0     H22704   4.424   8.445   6.942  2.6160  2.2894 -0.5266
  909MOL0     H22705   4.373   8.635   7.141 -2.0697  0.2670 -0.2153
  909MOL0     H22706   4.514   8.641   7.041 -1.1081 -1.4084  0.6729
  909MOL0     H22707   4.390   8.900   7.124 -3.0005 -2.4916 -2.8520
  909MOL0     H22708   4.538   8.865   7.035 -1.2483  0.6900 -0.6774
  909MOL0     H22709   4.636   8.742   7.230  0.5108  1.9817  1.2453
  909MOL0     H22710   4.494   8.763   7.325  1.4506  1.5396  1.5101
  909MOL0     H22711   4.644   9.000   7.210  1.2089 -2.7619 -2.1712
  909MOL0     H22712   4.706   8.912   7.350 -1.4323 -3.1172  0.2425
  909MOL0     H22713   4.402   9.108   7.550 -0.0578 -0.2441 -0.5138
  909MOL0     H22714   4.139   8.744   6.801  0.4155  0.7954 -2.7541
  909MOL0     H22715   4.070   8.580   6.616  1.3264  0.4225 -0.9031
  910MOL0     O22716   6.705   1.314   5.403 -0.3549 -0.2012 -0.0836
  910MOL0     C22717   6.723   1.424   5.355  1.6341 -0.2754 -0.2893
  910MOL0     O22718   6.631   1.516   5.323  0.0805 -0.2070 -0.7700
  910MOL0     C22719   6.502   1.514   5.364  0.7651 -0.1756  0.1028
  910MOL0     C22720   6.399   1.542   5.276  0.1773  0.0581 -0.1464
  910MOL0     C22721   6.262   1.555   5.315  0.3538  0.7579 -1.1416
  910MOL0     C22722   6.236   1.534   5.450  0.3430  0.5207 -0.1585
  910MOL0     O22723   6.115   1.539   5.515 -0.0649 -0.2096 -0.3218
  910MOL0     C22724   6.004   1.502   5.442 -0.1389  0.3443  0.3087
  910MOL0     C22725   6.018   1.350   5.399  1.1502  0.5386 -0.0009
  910MOL0     C22726   5.891   1.293   5.334 -0.2132  0.0297  0.0983
  910MOL0     C22727   5.829   1.367   5.216  0.4780  0.7346  0.3778
  910MOL0     C22728   5.700   1.297   5.154  0.1465  1.3420 -0.3810
  910MOL0     C22729   5.631   1.391   5.058 -0.3854 -0.1309  0.4439
  910MOL0     C22730   5.720   1.419   4.942  0.1327  0.0249  0.0708
  910MOL0     C22731   5.634   1.474   4.830  0.6837 -0.5679  0.5074
  910MOL0     N22732   5.711   1.544   4.725  0.0614 -0.2716  0.2330
  910MOL0     C22733   5.811   1.482   4.657  0.3620  0.6101 -1.1442
  910MOL0     C22734   5.862   1.577   4.577  0.1968  0.5844  0.5392
  910MOL0     C22735   5.981   1.574   4.478 -0.1003  0.6716 -0.4334
  910MOL0     C22736   6.114   1.614   4.555 -0.1881 -0.2551 -0.4802
  910MOL0     C22737   6.170   1.512   4.660  0.6179  0.3467  0.1471
  910MOL0     C22738   6.319   1.509   4.701  0.0790  0.2553 -0.3154
  910MOL0     O22739   6.399   1.486   4.585  0.6685  0.3618 -0.4742
  910MOL0     C22740   6.535   1.469   4.609  0.9210 -0.9043 -0.1658
  910MOL0     C22741   6.596   1.500   4.732  0.4405  0.3529 -0.4803
  910MOL0     C22742   6.734   1.498   4.749 -0.7089 -0.0766  0.3964
  910MOL0     C22743   6.784   1.551   4.879  0.2836 -0.0686  0.1384
  910MOL0     C22744   6.821   1.460   4.638 -0.4486  1.1768 -0.8834
  910MOL0     C22745   6.970   1.460   4.637 -0.6643  0.5607 -0.1431
  910MOL0     O22746   7.015   1.468   4.508 -0.1694  0.5110 -0.3642
  910MOL0     C22747   7.148   1.469   4.469  0.5698 -0.1791  0.1371
  910MOL0     C22748   7.259   1.462   4.553  0.2234 -0.7057 -0.3208
  910MOL0     C22749   7.388   1.456   4.494 -0.2252 -0.1100 -0.1927
  910MOL0     C22750   7.410   1.458   4.350  0.1287  0.5235 -0.7298
  910MOL0     O22751   7.528   1.453   4.281 -0.2738  0.0721  0.0810
  910MOL0     C22752   7.643   1.405   4.347  0.9962  0.1214  0.1999
  910MOL0     C22753   7.762   1.445   4.262 -0.3888 -0.4833 -0.2748
  910MOL0     C22754   7.795   1.596   4.266 -0.6692 -0.3126 -0.3928
  910MOL0     C22755   7.922   1.618   4.177  0.3017 -0.0454 -0.9779
  910MOL0     C22756   8.001   1.749   4.207 -0.2963  0.4417 -0.2092
  910MOL0     C22757   8.105   1.740   4.325  1.1900  0.1074  0.8969
  910MOL0     C22758   8.177   1.880   4.354  0.5205 -0.0992 -0.8750
  910MOL0     C22759   8.246   1.891   4.486  0.2257  0.8826  0.6760
  910MOL0    Cl22760   8.426   1.905   4.459 -0.0075 -0.1322 -0.1689
  910MOL0     C22761   7.296   1.469   4.263  0.4048 -0.1008 -0.3064
  910MOL0     C22762   7.164   1.479   4.327  0.4632 -0.0602 -0.3105
  910MOL0     O22763   7.039   1.437   4.740 -0.5888 -0.0637  0.0320
  910MOL0     C22764   6.756   1.430   4.514 -0.2150  0.1834  0.3743
  910MOL0     C22765   6.620   1.443   4.503 -0.1354 -0.3191  0.2913
  910MOL0     N22766   5.787   1.690   4.604  0.0254 -0.4196  1.0262
  910MOL0     N22767   5.696   1.673   4.692  0.0426  0.3363  0.0725
  910MOL0     C22768   6.339   1.495   5.537  0.1409 -1.0279  0.0434
  910MOL0     C22769   6.467   1.482   5.491  0.0486  0.0003  0.8079
  910MOL0     C22770   6.861   1.472   5.321  0.2910  0.5463 -0.0855
  910MOL0     C22771   6.865   1.565   5.220  0.6178 -0.1973  0.8485
  910MOL0     C22772   6.980   1.609   5.159  0.5784 -0.6502  0.2293
  910MOL0     C22773   7.103   1.555   5.194  0.4253 -0.1123 -1.0793
  910MOL0     O22774   7.210   1.594   5.124 -0.0588 -0.2896 -0.1124
  910MOL0     C22775   7.336   1.537   5.148 -0.1466  0.1814  0.4270
  910MOL0     C22776   7.346   1.393   5.088  0.1656 -0.5929 -0.1957
  910MOL0     C22777   7.390   1.384   4.944 -0.9176 -0.2649  0.2201
  910MOL0     C22778   7.339   1.247   4.880 -0.1030 -0.4569  0.7765
  910MOL0     C22779   7.415   1.206   4.763 -0.8252  0.7696 -0.3052
  910MOL0     C22780   7.469   1.161   4.665 -0.0396 -0.2085  0.2936
  910MOL0     C22781   7.099   1.467   5.307  0.0698  0.1460 -0.5264
  910MOL0     C22782   6.984   1.432   5.376  0.2826  0.5596 -0.4315
  910MOL0     H22783   6.427   1.564   5.173 -1.1146 -0.2886 -0.5864
  910MOL0     H22784   6.186   1.566   5.239 -0.1853  0.0930 -0.7043
  910MOL0     H22785   5.915   1.511   5.505  0.0073 -1.5630  0.8544
  910MOL0     H22786   5.989   1.573   5.359 -1.7513 -1.5069 -1.0715
  910MOL0     H22787   6.106   1.339   5.335  1.1254  4.3150 -0.9206
  910MOL0     H22788   6.021   1.286   5.488 -2.3559  0.8906  0.5279
  910MOL0     H22789   5.924   1.195   5.298  0.4518  1.0319 -2.2287
  910MOL0     H22790   5.816   1.290   5.413 -1.0843  1.0458 -0.6502
  910MOL0     H22791   5.817   1.469   5.254 -0.8917  0.0760  1.8244
  910MOL0     H22792   5.908   1.370   5.140 -0.6291  0.7996 -0.7965
  910MOL0     H22793   5.728   1.207   5.098 -1.3127 -0.0827  1.0473
  910MOL0     H22794   5.634   1.249   5.227  2.7576 -1.2196  0.5279
  910MOL0     H22795   5.539   1.344   5.021 -1.1839  1.2493  0.6343
  910MOL0     H22796   5.603   1.485   5.106 -4.6086 -0.3100 -1.1835
  910MOL0     H22797   5.788   1.496   4.979 -1.2060  0.8620  0.8277
  910MOL0     H22798   5.776   1.330   4.909  0.9577 -0.9192  3.6253
  910MOL0     H22799   5.565   1.546   4.875  2.4376 -0.3585  3.0911
  910MOL0     H22800   5.584   1.393   4.776  0.9589 -0.4414  0.0628
  910MOL0     H22801   5.844   1.380   4.677 -1.4049 -0.0372 -1.3319
  910MOL0     H22802   5.997   1.472   4.443 -2.7088 -0.8907  2.4028
  910MOL0     H22803   5.965   1.642   4.394 -0.0574  0.4373 -0.6297
  910MOL0     H22804   6.088   1.706   4.608  2.2150 -0.5052  1.2753
  910MOL0     H22805   6.196   1.635   4.485 -1.2414  1.7966 -1.2060
  910MOL0     H22806   6.134   1.418   4.617  1.6223  0.3385 -0.7105
  910MOL0     H22807   6.117   1.531   4.754 -0.3561 -2.3287  0.2236
  910MOL0     H22808   6.349   1.434   4.775 -0.2893 -0.4937 -0.9146
  910MOL0     H22809   6.342   1.605   4.747 -3.0047 -0.1745  2.4753
  910MOL0     H22810   6.544   1.536   4.820  0.2161  0.4462 -0.6497
  910MOL0     H22811   6.848   1.474   4.923 -2.6739 -1.6198  2.0801
  910MOL0     H22812   6.842   1.642   4.864  1.5490 -0.6407  1.3001
  910MOL0     H22813   6.702   1.574   4.947  0.1027 -0.7705  0.1672
  910MOL0     H22814   7.261   1.462   4.662 -1.1016 -2.6813 -0.2406
  910MOL0     H22815   7.472   1.434   4.559  0.6946  1.1263 -0.9155
  910MOL0     H22816   7.660   1.445   4.447  0.0820  1.9479 -0.3302
  910MOL0     H22817   7.632   1.297   4.359 -1.3091  0.3163  0.2919
  910MOL0     H22818   7.851   1.400   4.307 -0.2010  1.5393  1.4868
  910MOL0     H22819   7.756   1.408   4.159  3.3152  0.0151 -0.8280
  910MOL0     H22820   7.820   1.622   4.369  2.5226 -1.3826 -0.7950
  910MOL0     H22821   7.710   1.645   4.216 -2.9985 -3.2707  0.3057
  910MOL0     H22822   7.991   1.533   4.178 -0.2509 -0.5009  0.1467
  910MOL0     H22823   7.879   1.621   4.076 -1.4704 -1.5383 -0.3380
  910MOL0     H22824   7.933   1.833   4.225  1.0438  1.2707  1.2161
  910MOL0     H22825   8.054   1.775   4.114  1.6273 -0.5654  0.5473
  910MOL0     H22826   8.053   1.699   4.413  0.0389 -1.5976 -0.5142
  910MOL0     H22827   8.187   1.671   4.304 -0.3034 -1.7417  0.9243
  910MOL0     H22828   8.102   1.960   4.352 -0.3960 -0.8870  0.2185
  910MOL0     H22829   8.244   1.915   4.275 -1.4523  0.0808 -2.5636
  910MOL0     H22830   8.220   1.807   4.551  1.2402 -0.6828 -0.8389
  910MOL0     H22831   8.212   1.974   4.547 -1.8354 -0.6773  1.7575
  910MOL0     H22832   7.308   1.493   4.158  0.6143 -0.0821 -0.2779
  910MOL0     H22833   7.076   1.493   4.265 -0.7509 -0.3564  1.2787
  910MOL0     H22834   6.814   1.406   4.425 -0.1794  3.8172 -0.7458
  910MOL0     H22835   6.583   1.442   4.401  0.4714 -2.3323  0.0621
  910MOL0     H22836   6.319   1.483   5.643  0.4370  1.0634  0.3678
  910MOL0     H22837   6.536   1.449   5.568  0.2160 -1.8062 -0.0737
  910MOL0     H22838   6.779   1.614   5.176  0.2520 -1.3292  0.2584
  910MOL0     H22839   6.976   1.683   5.080 -2.7613 -1.6678 -0.7179
  910MOL0     H22840   7.403   1.612   5.104  0.3570  0.5410  1.7579
  910MOL0     H22841   7.360   1.532   5.255  0.0408 -1.7447  0.3217
  910MOL0     H22842   7.250   1.343   5.105  0.6547 -1.0641  1.4164
  910MOL0     H22843   7.419   1.344   5.153 -0.6795  2.8869  3.8306
  910MOL0     H22844   7.498   1.401   4.941 -1.1167  1.4072  1.2957
  910MOL0     H22845   7.336   1.468   4.899  1.0674  0.9523 -0.0340
  910MOL0     H22846   7.232   1.260   4.860 -0.2969 -3.3250 -0.5050
  910MOL0     H22847   7.353   1.162   4.948  3.8786 -0.6565 -0.0419
  910MOL0     H22848   7.510   1.104   4.585 -0.7295 -1.3351  0.7183
  910MOL0     H22849   7.198   1.440   5.342 -0.2617 -0.7601 -0.2593
  910MOL0     H22850   6.985   1.374   5.468 -0.2974 -1.2871 -1.5220
  911MOL0     O22851   0.666   6.122   8.556 -0.6738  0.2333  0.2391
  911MOL0     C22852   0.696   6.224   8.499 -0.8453 -0.4327  0.5333
  911MOL0     O22853   0.826   6.269   8.477 -0.4132  0.1691  0.1824
  911MOL0     C22854   0.934   6.208   8.524  0.3862  0.3898 -1.0230
  911MOL0     C22855   1.044   6.178   8.450 -0.0864 -0.4460 -0.4015
  911MOL0     C22856   1.147   6.113   8.512 -0.2722  0.3560  0.4526
  911MOL0     C22857   1.146   6.077   8.648  0.4743  0.0858  0.1402
  911MOL0     O22858   1.251   6.006   8.693 -0.0600 -0.1967  0.3465
  911MOL0     C22859   1.244   5.947   8.824 -0.2104 -0.2147  0.3261
  911MOL0     C22860   1.372   5.864   8.838  0.1048  0.9395 -0.4019
  911MOL0     C22861   1.374   5.800   8.981  0.0261  0.4794  0.5556
  911MOL0     C22862   1.483   5.687   8.988  0.1998  0.1103  0.5505
  911MOL0     C22863   1.486   5.632   9.132  0.1483  0.3503 -0.3612
  911MOL0     C22864   1.548   5.483   9.125  0.2699  0.5841  0.1800
  911MOL0     C22865   1.442   5.375   9.110  0.5489 -0.1359  0.0172
  911MOL0     C22866   1.506   5.246   9.056  0.0038  0.2519 -0.2503
  911MOL0     N22867   1.514   5.252   8.913  0.0749  0.0300 -0.1200
  911MOL0     C22868   1.407   5.227   8.826 -0.0788 -1.2095 -0.6673
  911MOL0     C22869   1.467   5.233   8.706  0.7929 -0.9239 -0.0041
  911MOL0     C22870   1.424   5.201   8.563  0.0292 -0.1821  0.0814
  911MOL0     C22871   1.470   5.063   8.526 -0.0663  0.5576 -0.0894
  911MOL0     C22872   1.622   5.039   8.513  0.0767  0.2137 -0.2512
  911MOL0     C22873   1.698   5.123   8.408 -0.2663  0.5006 -0.6878
  911MOL0     O22874   1.836   5.097   8.423 -0.1481 -0.1411  0.8173
  911MOL0     C22875   1.910   5.181   8.343 -0.6062  1.2675 -0.5013
  911MOL0     C22876   1.934   5.309   8.395  0.0764  0.8236 -0.5117
  911MOL0     C22877   2.030   5.399   8.341 -0.4170 -0.2103 -0.5956
  911MOL0     C22878   2.038   5.542   8.407 -0.5781  0.1760 -0.6500
  911MOL0     C22879   2.095   5.363   8.224 -0.3324  0.7390  0.3389
  911MOL0     C22880   2.211   5.437   8.157 -0.0539 -1.4684  0.0284
  911MOL0     O22881   2.298   5.357   8.090  0.2997  0.5428 -0.3864
  911MOL0     C22882   2.391   5.415   8.005 -0.5355 -0.5312  0.2783
  911MOL0     C22883   2.390   5.544   7.944  0.8222  0.2208 -0.4585
  911MOL0     C22884   2.496   5.598   7.870  0.6457 -0.3797  0.1137
  911MOL0     C22885   2.603   5.515   7.834 -0.6992  0.4372  0.8986
  911MOL0     O22886   2.716   5.559   7.776  0.2659  0.2943  0.1621
  911MOL0     C22887   2.695   5.645   7.666  0.6273 -0.4642 -0.0593
  911MOL0     C22888   2.823   5.667   7.592 -0.8109  0.2167 -0.2528
  911MOL0     C22889   2.922   5.754   7.680  0.0228 -0.0951  0.5689
  911MOL0     C22890   3.052   5.790   7.599  0.7381 -0.8532  0.1263
  911MOL0     C22891   3.121   5.905   7.669  0.1801 -0.6249  0.8674
  911MOL0     C22892   3.240   5.945   7.584 -0.2047  0.2964  0.0344
  911MOL0     C22893   3.335   6.052   7.651  0.3041  0.3433 -0.4619
  911MOL0     C22894   3.465   6.055   7.580 -0.1497 -0.1681 -0.6939
  911MOL0    Cl22895   3.555   5.909   7.596 -0.0054  0.7170 -0.1857
  911MOL0     C22896   2.603   5.383   7.878  0.0311  0.5382 -0.9661
  911MOL0     C22897   2.507   5.334   7.971 -0.2172  0.5437 -0.3800
  911MOL0     O22898   2.191   5.564   8.144  0.3257  0.1490  0.0095
  911MOL0     C22899   2.064   5.233   8.173 -0.0997 -0.4376  0.3041
  911MOL0     C22900   1.981   5.140   8.232  0.3465 -0.2093  0.6737
  911MOL0     N22901   1.601   5.279   8.723 -0.0094  0.1292 -0.9712
  911MOL0     N22902   1.624   5.285   8.847 -0.9596 -1.0386 -0.3954
  911MOL0     C22903   1.046   6.129   8.728  0.0793  0.1953  0.7938
  911MOL0     C22904   0.938   6.175   8.664 -0.1584 -0.0251 -0.2404
  911MOL0     C22905   0.591   6.309   8.445 -0.2324 -0.0955  0.0655
  911MOL0     C22906   0.460   6.259   8.432 -0.1267  1.5597 -1.0489
  911MOL0     C22907   0.355   6.334   8.380 -0.0184 -0.0988 -0.1100
  911MOL0     C22908   0.381   6.467   8.342  0.0979 -0.3352  0.9192
  911MOL0     O22909   0.275   6.532   8.285 -0.5048 -0.3857  0.6647
  911MOL0     C22910   0.295   6.663   8.239 -0.0029  0.5699  0.5684
  911MOL0     C22911   0.169   6.720   8.173 -0.7519  0.6246 -0.0261
  911MOL0     C22912   0.075   6.728   8.292  0.4945  0.4194 -0.3992
  911MOL0     C22913  -0.033   6.830   8.257  0.0310  0.2480  0.4445
  911MOL0     C22914  -0.160   6.792   8.330 -0.7203 -0.3241  0.0199
  911MOL0     C22915  -0.264   6.775   8.380 -0.1735 -0.1764 -0.0965
  911MOL0     C22916   0.512   6.519   8.350  0.3739 -0.1446  0.5058
  911MOL0     C22917   0.615   6.443   8.413 -0.1592  0.8719 -0.0876
  911MOL0     H22918   1.045   6.197   8.343  1.5551  0.5754 -0.2326
  911MOL0     H22919   1.230   6.080   8.449 -0.2446  0.7368  0.2882
  911MOL0     H22920   1.254   6.033   8.891  3.3309  0.4985 -0.8931
  911MOL0     H22921   1.154   5.888   8.847  0.3276 -1.4222 -0.5417
  911MOL0     H22922   1.377   5.786   8.761 -0.6118 -0.1880  0.6472
  911MOL0     H22923   1.461   5.923   8.815  0.7627 -1.0684 -3.7301
  911MOL0     H22924   1.402   5.874   9.056  1.0110 -0.4224  1.1126
  911MOL0     H22925   1.275   5.768   9.014  0.0363  0.2921  0.4136
  911MOL0     H22926   1.445   5.609   8.921 -0.7372  0.0567  1.1254
  911MOL0     H22927   1.580   5.725   8.953 -0.4797  0.6519 -0.8480
  911MOL0     H22928   1.551   5.693   9.195  1.5156  0.3987 -1.7602
  911MOL0     H22929   1.385   5.615   9.172  0.6287 -0.3767  0.5789
  911MOL0     H22930   1.621   5.471   9.045  2.8920 -0.1249  2.5045
  911MOL0     H22931   1.601   5.465   9.220 -2.9351 -1.8369  1.7167
  911MOL0     H22932   1.393   5.353   9.205  0.4826  0.5321  0.1400
  911MOL0     H22933   1.366   5.403   9.036 -0.9089  0.0656  1.5218
  911MOL0     H22934   1.449   5.155   9.076  1.2558 -1.0336 -2.1336
  911MOL0     H22935   1.606   5.230   9.098 -1.0208 -1.2173  1.7733
  911MOL0     H22936   1.301   5.211   8.842 -0.0769 -1.1658 -0.6080
  911MOL0     H22937   1.319   5.222   8.541 -0.3043 -0.8498  1.0080
  911MOL0     H22938   1.468   5.272   8.492 -2.9179 -1.3094 -3.1519
  911MOL0     H22939   1.419   5.038   8.432 -0.4367  5.0227 -1.3119
  911MOL0     H22940   1.427   4.991   8.595  0.0988  1.1052  0.5964
  911MOL0     H22941   1.636   4.933   8.487  2.2399  0.0123  1.4229
  911MOL0     H22942   1.666   5.056   8.611  1.9473  2.7128 -1.3966
  911MOL0     H22943   1.688   5.226   8.442  0.8749 -0.0968  1.6426
  911MOL0     H22944   1.661   5.099   8.308 -0.5536 -0.9235 -0.2720
  911MOL0     H22945   1.876   5.356   8.474  1.2347 -1.2238  1.6916
  911MOL0     H22946   1.985   5.556   8.502 -1.2599 -2.2555 -0.5878
  911MOL0     H22947   2.143   5.568   8.424 -0.2804 -1.7843  0.9622
  911MOL0     H22948   1.986   5.609   8.338 -0.4448  1.4224  0.4146
  911MOL0     H22949   2.316   5.623   7.952 -0.1260 -0.8465  2.3956
  911MOL0     H22950   2.503   5.705   7.853  2.2242 -0.6305 -1.0710
  911MOL0     H22951   2.626   5.592   7.600  4.0015 -4.0451 -1.0922
  911MOL0     H22952   2.661   5.741   7.707 -2.1394 -1.0426 -0.8165
  911MOL0     H22953   2.867   5.569   7.571  2.6810  1.6341 -0.1531
  911MOL0     H22954   2.797   5.718   7.499  1.2121 -2.5085 -2.4744
  911MOL0     H22955   2.958   5.700   7.767 -0.8015  1.3347  1.8370
  911MOL0     H22956   2.865   5.835   7.725 -1.8574 -1.3573  0.5470
  911MOL0     H22957   3.121   5.707   7.586 -0.6722 -2.0050 -0.2451
  911MOL0     H22958   3.025   5.823   7.498  0.4220  0.5814  0.6501
  911MOL0     H22959   3.142   5.861   7.767 -0.4775 -1.7022  0.5349
  911MOL0     H22960   3.063   5.997   7.684 -0.4335 -1.3249  3.2473
  911MOL0     H22961   3.291   5.859   7.539  0.0779  1.1286 -1.2951
  911MOL0     H22962   3.188   5.986   7.498  1.0001 -0.2668 -1.0014
  911MOL0     H22963   3.344   6.023   7.756 -0.9549 -0.3202 -0.5155
  911MOL0     H22964   3.284   6.148   7.636 -0.3989 -0.4282 -3.6084
  911MOL0     H22965   3.521   6.142   7.615  0.2729 -0.3707 -0.8711
  911MOL0     H22966   3.434   6.075   7.477 -1.3769  1.7544 -0.0184
  911MOL0     H22967   2.680   5.313   7.846  0.2882  1.1328 -1.6452
  911MOL0     H22968   2.512   5.232   8.005 -0.7389  0.4920 -0.4444
  911MOL0     H22969   2.114   5.204   8.081  0.6194 -1.1468  0.9065
  911MOL0     H22970   1.965   5.037   8.203  1.7263  0.0328 -1.1622
  911MOL0     H22971   1.044   6.108   8.834 -1.1339 -2.8398  0.2579
  911MOL0     H22972   0.860   6.223   8.723  2.3811  4.8326 -0.2884
  911MOL0     H22973   0.429   6.158   8.459 -2.2865  2.6072  0.7149
  911MOL0     H22974   0.260   6.284   8.364  0.2409 -1.7364  2.7751
  911MOL0     H22975   0.328   6.732   8.317  0.9126  2.6381 -1.5115
  911MOL0     H22976   0.378   6.658   8.168 -0.7984  1.2841 -0.4305
  911MOL0     H22977   0.148   6.649   8.092  1.3302  0.3915 -0.4278
  911MOL0     H22978   0.176   6.819   8.128 -0.8639  0.7848  0.3072
  911MOL0     H22979   0.119   6.755   8.388 -0.8916 -0.5459  0.5580
  911MOL0     H22980   0.031   6.629   8.311  1.3150  0.1987  0.3890
  911MOL0     H22981  -0.045   6.822   8.148 -0.4440 -1.3971  0.5914
  911MOL0     H22982  -0.002   6.931   8.285  0.5454  0.2127  0.0167
  911MOL0     H22983  -0.358   6.743   8.420  0.3908 -0.7118  0.8351
  911MOL0     H22984   0.529   6.624   8.330 -2.4048  0.0647 -1.3901
  911MOL0     H22985   0.712   6.486   8.434 -1.1981  3.2328  0.3478
  912MOL0     O22986   4.896   5.267   3.868  0.1902 -0.3484  0.0256
  912MOL0     C22987   4.974   5.182   3.830  0.1816  0.3985  0.3953
  912MOL0     O22988   4.955   5.047   3.851 -0.1150  0.0344 -0.5194
  912MOL0     C22989   4.844   4.995   3.902 -0.5829 -0.8142 -0.5521
  912MOL0     C22990   4.709   5.010   3.862  0.5415 -0.1462 -0.0454
  912MOL0     C22991   4.607   4.964   3.948 -0.0173 -0.3280 -0.1961
  912MOL0     C22992   4.637   4.871   4.053  0.4274  0.6768  0.7836
  912MOL0     O22993   4.540   4.799   4.122  0.3431  0.3062 -0.2742
  912MOL0     C22994   4.406   4.801   4.080 -0.5493  0.3809 -1.3469
  912MOL0     C22995   4.321   4.736   4.188  0.5857  0.3336  0.0048
  912MOL0     C22996   4.188   4.680   4.136 -0.4821 -0.9524 -0.1718
  912MOL0     C22997   4.116   4.609   4.247  1.1846  0.3296 -0.2416
  912MOL0     C22998   3.982   4.547   4.202  0.3511 -1.1552 -0.1102
  912MOL0     C22999   4.015   4.414   4.131 -0.0214 -0.4912  0.3646
  912MOL0     C23000   3.904   4.311   4.102  0.3449  0.1335  0.3913
  912MOL0     C23001   3.933   4.215   3.982  0.4491 -0.6915  0.1811
  912MOL0     N23002   4.059   4.137   3.993 -0.4745 -0.5987 -0.2740
  912MOL0     C23003   4.177   4.177   3.933  0.4830 -0.1761 -0.8825
  912MOL0     C23004   4.253   4.065   3.949 -0.2135 -1.0016  0.4709
  912MOL0     C23005   4.389   4.056   3.896  0.2108  0.8227  0.3229
  912MOL0     C23006   4.450   3.917   3.867  0.3540 -0.2266 -0.5749
  912MOL0     C23007   4.603   3.919   3.841 -0.1832  0.5795  0.4617
  912MOL0     C23008   4.690   3.967   3.960 -0.2870  0.3978 -0.0568
  912MOL0     O23009   4.739   4.097   3.921 -0.8830  0.8102  0.3239
  912MOL0     C23010   4.876   4.106   3.882  0.1011 -0.1359  0.5614
  912MOL0     C23011   4.975   4.078   3.974  0.6677 -0.2947 -0.3880
  912MOL0     C23012   5.104   4.091   3.952 -1.4881 -0.0618 -0.8538
  912MOL0     C23013   5.186   4.045   4.069 -0.6206  0.3015  0.5837
  912MOL0     C23014   5.151   4.148   3.823 -0.0848  0.4223 -0.8869
  912MOL0     C23015   5.292   4.154   3.791  0.5319 -0.4023  0.3354
  912MOL0     O23016   5.381   4.168   3.895 -0.7592  0.1066  0.5205
  912MOL0     C23017   5.518   4.181   3.879 -0.4796 -0.2426  0.6004
  912MOL0     C23018   5.597   4.074   3.906  0.2464  0.3384 -0.0099
  912MOL0     C23019   5.737   4.088   3.916 -0.2409 -0.1291  0.3507
  912MOL0     C23020   5.804   4.202   3.871  0.5651 -1.2080  0.1625
  912MOL0     O23021   5.942   4.207   3.878  1.1843 -0.6827 -0.1146
  912MOL0     C23022   5.998   4.340   3.895 -1.0093 -0.2886  0.2606
  912MOL0     C23023   6.153   4.337   3.883  1.0195  0.6862  0.3414
  912MOL0     C23024   6.196   4.334   3.742 -0.0068 -0.6055 -0.0844
  912MOL0     C23025   6.343   4.274   3.742  0.5252  0.3620  0.5252
  912MOL0     C23026   6.451   4.356   3.826  0.4319 -0.1803  0.6635
  912MOL0     C23027   6.593   4.297   3.816 -0.5104 -0.4570 -0.3874
  912MOL0     C23028   6.692   4.374   3.899 -0.4897 -0.0525  0.3037
  912MOL0     C23029   6.838   4.311   3.886  0.2721  0.8220 -0.5921
  912MOL0    Cl23030   6.899   4.315   3.718  0.0466  0.4913  0.2933
  912MOL0     C23031   5.719   4.315   3.828 -0.5633 -0.1990 -0.4414
  912MOL0     C23032   5.581   4.293   3.830 -0.1150 -0.8926 -0.5976
  912MOL0     O23033   5.324   4.157   3.668 -0.2422  0.1296 -1.1694
  912MOL0     C23034   5.045   4.188   3.730  1.6943 -0.3001 -0.8297
  912MOL0     C23035   4.916   4.162   3.762  0.1557  0.4044  0.1850
  912MOL0     N23036   4.185   3.966   4.016 -1.1379 -0.3027  0.4588
  912MOL0     N23037   4.071   4.012   4.052  0.8366 -0.0186 -0.3127
  912MOL0     C23038   4.769   4.855   4.085 -0.2713  0.8087  0.1234
  912MOL0     C23039   4.869   4.921   4.013 -0.4321  0.3782  0.5508
  912MOL0     C23040   5.096   5.234   3.759  0.6165 -0.1825  1.1787
  912MOL0     C23041   5.142   5.369   3.768  0.0340 -0.3200  0.4899
  912MOL0     C23042   5.227   5.410   3.663  0.3713  0.0153 -0.2453
  912MOL0     C23043   5.286   5.321   3.580 -0.5316  0.0409  0.9969
  912MOL0     O23044   5.385   5.368   3.493  0.9698 -0.1361  0.9056
  912MOL0     C23045   5.483   5.275   3.440 -0.1243  0.2332  0.0363
  912MOL0     C23046   5.624   5.327   3.421 -0.3562 -0.1143  0.7505
  912MOL0     C23047   5.636   5.447   3.338  0.0427 -1.0017 -0.3792
  912MOL0     C23048   5.785   5.477   3.301 -1.2047  0.3262  0.2824
  912MOL0     C23049   5.793   5.491   3.157 -0.3194  0.1321 -0.6449
  912MOL0     C23050   5.781   5.511   3.038 -0.5479  0.7461  0.0153
  912MOL0     C23051   5.250   5.187   3.592 -0.1747  0.1432  0.6276
  912MOL0     C23052   5.161   5.143   3.680 -0.1298  1.1224 -0.6072
  912MOL0     H23053   4.688   5.075   3.778  0.5896  1.0208  0.8179
  912MOL0     H23054   4.507   5.006   3.935  0.2652  0.1943 -0.7394
  912MOL0     H23055   4.369   4.902   4.060  0.8221  1.8112  2.4411
  912MOL0     H23056   4.387   4.737   3.993 -1.5726 -1.2637  0.0039
  912MOL0     H23057   4.378   4.656   4.237 -0.2946  0.1903  0.8309
  912MOL0     H23058   4.297   4.808   4.266  0.4038  0.4105 -0.1219
  912MOL0     H23059   4.140   4.770   4.097  2.4684  1.0922  0.5827
  912MOL0     H23060   4.190   4.614   4.048  0.3172  1.1847 -1.8474
  912MOL0     H23061   4.188   4.533   4.281 -0.3298 -1.2157 -0.3656
  912MOL0     H23062   4.099   4.681   4.327  1.5232 -2.3943  2.4634
  912MOL0     H23063   3.923   4.520   4.289  2.0701  0.9186  1.8148
  912MOL0     H23064   3.925   4.620   4.143  1.0457 -1.9508 -1.8285
  912MOL0     H23065   4.051   4.440   4.031  2.0236  2.5366  1.7311
  912MOL0     H23066   4.095   4.367   4.189 -0.7537 -1.0269  0.9586
  912MOL0     H23067   3.883   4.249   4.190 -3.4668  1.8591  0.8612
  912MOL0     H23068   3.815   4.372   4.086 -0.2126 -0.3295  1.6082
  912MOL0     H23069   3.938   4.268   3.886 -0.4484 -2.6978 -1.0376
  912MOL0     H23070   3.850   4.145   3.971 -1.8358  1.5959  1.7420
  912MOL0     H23071   4.204   4.267   3.880  2.2043 -0.2764 -0.2298
  912MOL0     H23072   4.383   4.110   3.801 -1.0197  1.0807  0.5300
  912MOL0     H23073   4.463   4.104   3.961 -0.2842 -0.5434  1.9470
  912MOL0     H23074   4.399   3.868   3.784 -0.1768 -3.0286  1.2508
  912MOL0     H23075   4.433   3.849   3.951  1.7306 -1.0738 -0.9540
  912MOL0     H23076   4.623   3.968   3.745 -0.3051 -1.1434 -0.4751
  912MOL0     H23077   4.628   3.815   3.819 -1.6163  0.6338 -1.7503
  912MOL0     H23078   4.775   3.904   3.988  0.5370  1.1191 -0.8825
  912MOL0     H23079   4.627   3.973   4.049 -0.8826 -4.4578  0.1355
  912MOL0     H23080   4.939   4.041   4.069 -1.3079 -1.2293 -1.4445
  912MOL0     H23081   5.123   4.044   4.159 -1.8088 -0.3473 -0.2422
  912MOL0     H23082   5.225   3.946   4.045 -5.9012 -2.1117  0.5516
  912MOL0     H23083   5.268   4.111   4.101 -2.3926  1.6828  2.5940
  912MOL0     H23084   5.551   3.980   3.937  0.2090  0.6218  0.8030
  912MOL0     H23085   5.800   4.004   3.944 -2.8946 -1.8298  1.6827
  912MOL0     H23086   5.967   4.419   3.827 -2.2694  1.6904  2.9255
  912MOL0     H23087   5.988   4.364   4.001  0.0959 -0.5774  0.4421
  912MOL0     H23088   6.190   4.425   3.937  0.2511  0.5290  1.1391
  912MOL0     H23089   6.187   4.252   3.942 -0.3353  0.2201  0.4710
  912MOL0     H23090   6.200   4.433   3.697  1.2927 -0.9471 -0.7623
  912MOL0     H23091   6.133   4.277   3.673  2.0328  1.6791 -4.2172
  912MOL0     H23092   6.346   4.171   3.778  0.0314 -0.3584 -1.3691
  912MOL0     H23093   6.381   4.257   3.640 -0.0949  1.4284  0.0982
  912MOL0     H23094   6.413   4.358   3.928 -5.6455  0.2139 -1.2181
  912MOL0     H23095   6.453   4.459   3.789 -0.5009 -0.7490 -1.1062
  912MOL0     H23096   6.592   4.194   3.852 -1.1308 -0.7904 -1.3189
  912MOL0     H23097   6.622   4.286   3.711 -1.2588 -2.6140 -0.4170
  912MOL0     H23098   6.660   4.359   4.002 -3.0263 -5.9213 -0.9545
  912MOL0     H23099   6.687   4.480   3.872 -0.3268 -0.4208 -1.3051
  912MOL0     H23100   6.836   4.205   3.909  2.4821  0.6976 -0.7766
  912MOL0     H23101   6.913   4.369   3.942  0.5595  1.4336 -1.5875
  912MOL0     H23102   5.745   4.409   3.780 -1.2717 -0.1344 -0.7226
  912MOL0     H23103   5.526   4.380   3.796  1.7390  0.3341 -0.6331
  912MOL0     H23104   5.066   4.236   3.636  3.0361  0.2980 -0.2478
  912MOL0     H23105   4.841   4.186   3.687  1.9631  0.4372 -1.7300
  912MOL0     H23106   4.778   4.791   4.172  0.0659  2.0439  1.0295
  912MOL0     H23107   4.973   4.910   4.043 -0.9675  0.6117  2.6607
  912MOL0     H23108   5.105   5.441   3.841  2.0199  1.5229 -0.2040
  912MOL0     H23109   5.265   5.511   3.675  1.1275 -0.0689 -1.6336
  912MOL0     H23110   5.487   5.191   3.511 -0.0919  0.5855  0.4545
  912MOL0     H23111   5.450   5.229   3.346 -0.4286 -1.0748  0.7574
  912MOL0     H23112   5.681   5.242   3.382  0.5116 -0.2650  2.3090
  912MOL0     H23113   5.675   5.343   3.516  0.6502  1.6328 -0.0487
  912MOL0     H23114   5.606   5.533   3.397 -0.3400 -0.7898 -0.8744
  912MOL0     H23115   5.578   5.454   3.245 -1.7861 -0.4459  0.7635
  912MOL0     H23116   5.838   5.385   3.330 -1.0348 -0.7606 -2.9835
  912MOL0     H23117   5.828   5.566   3.346  1.6334 -0.4721 -0.6162
  912MOL0     H23118   5.754   5.547   2.941 -2.2209 -0.2976  0.0629
  912MOL0     H23119   5.294   5.113   3.526  0.0497  1.4993 -0.7954
  912MOL0     H23120   5.139   5.037   3.682  0.5210  0.9401  2.9886
  913MOL0     O23121   6.036  10.537   0.114  0.9775 -0.4283  0.1542
  913MOL0     C23122   6.035  10.472   0.011  0.1622  0.5586 -0.4169
  913MOL0     O23123   5.946  10.368  -0.010  0.5373  0.4180  0.4317
  913MOL0     C23124   5.834  10.359   0.066 -0.6112 -0.0172  0.1549
  913MOL0     C23125   5.834  10.292   0.184 -0.2301  0.3395  0.8988
  913MOL0     C23126   5.725  10.253   0.253 -0.3369 -0.1878 -0.1129
  913MOL0     C23127   5.596  10.304   0.208 -0.1214  0.1479  0.3448
  913MOL0     O23128   5.480  10.285   0.278 -0.4490  0.8677  0.3184
  913MOL0     C23129   5.453  10.142   0.289  0.6145  0.7578  0.4991
  913MOL0     C23130   5.348  10.084   0.193 -0.0028  0.2454 -0.0449
  913MOL0     C23131   5.379  10.116   0.045 -0.0139  0.9050 -0.1901
  913MOL0     C23132   5.501  10.041  -0.004 -0.2918  1.0529  0.3328
  913MOL0     C23133   5.522  10.066  -0.153  0.1331 -0.4178 -0.4454
  913MOL0     C23134   5.589  10.196  -0.191 -0.6374 -0.0522 -0.8235
  913MOL0     C23135   5.633  10.202  -0.333  0.2817  0.8802  0.2718
  913MOL0     C23136   5.732  10.325  -0.374  0.1066 -0.3583  0.3441
  913MOL0     N23137   5.822  10.297  -0.485  0.2867 -0.7919 -0.5039
  913MOL0     C23138   5.786  10.265  -0.619 -0.3542  0.1554 -0.6017
  913MOL0     C23139   5.911  10.244  -0.672  0.5861  0.7617 -0.2913
  913MOL0     C23140   5.931  10.191  -0.815 -0.5022 -0.5871 -0.3180
  913MOL0     C23141   6.001  10.057  -0.826  0.0056 -0.5195  0.1198
  913MOL0     C23142   5.937   9.949  -0.731 -0.3242  0.5529  0.2881
  913MOL0     C23143   5.791   9.920  -0.761 -0.6789 -0.2261  0.2351
  913MOL0     O23144   5.782   9.846  -0.889 -0.8470 -0.9993 -0.0035
  913MOL0     C23145   5.655   9.829  -0.939  0.7175  0.0296 -0.5982
  913MOL0     C23146   5.649   9.754  -1.053 -0.2373  0.0843 -0.9533
  913MOL0     C23147   5.538   9.744  -1.130  0.8617  0.1254  0.3481
  913MOL0     C23148   5.539   9.668  -1.260  0.3616  0.4028 -0.4286
  913MOL0     C23149   5.416   9.786  -1.076  0.1134  0.5892  0.9827
  913MOL0     C23150   5.283   9.778  -1.147 -0.0932 -0.0971  0.2379
  913MOL0     O23151   5.172   9.777  -1.060 -0.6006 -0.1106  0.2952
  913MOL0     C23152   5.054   9.826  -1.113  0.2009 -0.1841  0.6977
  913MOL0     C23153   5.042   9.918  -1.219  0.1491  0.2530  1.1820
  913MOL0     C23154   4.913   9.969  -1.245  0.0341 -0.3123  0.2545
  913MOL0     C23155   4.800   9.924  -1.177  0.0294  0.1670  0.6648
  913MOL0     O23156   4.674   9.976  -1.211 -0.3767  0.8574  0.1207
  913MOL0     C23157   4.666  10.122  -1.193 -0.3100  0.5507 -0.0533
  913MOL0     C23158   4.562  10.184  -1.283  0.7362 -0.5295  0.3274
  913MOL0     C23159   4.426  10.134  -1.240 -0.3448  0.1241 -0.2566
  913MOL0     C23160   4.308  10.207  -1.300  0.4231 -0.7201  0.2137
  913MOL0     C23161   4.181  10.117  -1.284  0.0831  0.7430  1.3603
  913MOL0     C23162   4.065  10.154  -1.371  0.8592 -0.3535  0.2994
  913MOL0     C23163   3.978  10.258  -1.296 -0.1307 -0.1204  0.1639
  913MOL0     C23164   3.867  10.319  -1.386  0.0661  0.3620 -0.2100
  913MOL0    Cl23165   3.733  10.202  -1.414 -0.5276  0.0864  0.2288
  913MOL0     C23166   4.817   9.829  -1.077 -0.1379  0.0390  0.4356
  913MOL0     C23167   4.944   9.787  -1.034  0.0887  0.7203 -0.4351
  913MOL0     O23168   5.278   9.780  -1.269 -0.0680  0.0339 -0.2002
  913MOL0     C23169   5.412   9.867  -0.967  0.3034 -0.2522  0.4413
  913MOL0     C23170   5.527   9.889  -0.893 -1.4388  0.0026  0.5874
  913MOL0     N23171   6.019  10.260  -0.578  0.3023 -0.3281  0.6519
  913MOL0     N23172   5.958  10.295  -0.470 -0.1666  0.1844  0.3966
  913MOL0     C23173   5.597  10.391   0.104  0.1891 -0.5310  1.0711
  913MOL0     C23174   5.707  10.413   0.031 -0.1723  0.2887 -0.8676
  913MOL0     C23175   6.135  10.498  -0.092 -0.4872  0.2808  1.0647
  913MOL0     C23176   6.242  10.577  -0.059  0.6319  0.3844  0.1577
  913MOL0     C23177   6.337  10.600  -0.149 -0.5132 -0.2681 -0.5522
  913MOL0     C23178   6.334  10.561  -0.283 -0.4543 -0.0055  0.1194
  913MOL0     O23179   6.421  10.614  -0.380  0.3873  0.2121  0.5216
  913MOL0     C23180   6.551  10.557  -0.373 -0.1067 -0.0146  0.2391
  913MOL0     C23181   6.645  10.580  -0.495 -0.3903  0.4340  0.7062
  913MOL0     C23182   6.679  10.727  -0.496  0.0985  1.1353 -0.5383
  913MOL0     C23183   6.730  10.772  -0.635 -0.1556 -0.6370 -0.0903
  913MOL0     C23184   6.853  10.698  -0.664 -0.3876 -0.3700  0.8521
  913MOL0     C23185   6.956  10.639  -0.704 -0.2354 -0.6150  0.0578
  913MOL0     C23186   6.225  10.488  -0.319  0.2374  0.2705  0.8296
  913MOL0     C23187   6.127  10.452  -0.224 -0.0062 -0.5284 -0.3008
  913MOL0     H23188   5.934  10.269   0.221 -0.5794  1.1416  2.4444
  913MOL0     H23189   5.730  10.191   0.342 -0.7430  0.7261  0.5633
  913MOL0     H23190   5.541  10.077   0.285  0.2365  0.2876 -2.0416
  913MOL0     H23191   5.412  10.132   0.390  0.2398 -3.3465  0.0701
  913MOL0     H23192   5.343   9.977   0.215  1.3683  0.3670  1.0179
  913MOL0     H23193   5.251  10.125   0.224 -0.5397 -1.3617  0.4869
  913MOL0     H23194   5.290  10.077  -0.006  1.5314 -1.2305 -1.4259
  913MOL0     H23195   5.376  10.223   0.022 -1.4103  1.2064  1.2287
  913MOL0     H23196   5.589  10.075   0.051 -0.9883 -0.5254  2.5584
  913MOL0     H23197   5.490   9.932   0.004  1.1503  0.8393 -0.1679
  913MOL0     H23198   5.598   9.992  -0.177 -2.2925 -3.1171 -0.3582
  913MOL0     H23199   5.429  10.041  -0.206 -0.1392  2.3877 -1.4659
  913MOL0     H23200   5.527  10.284  -0.169  2.0402  2.2840 -1.9886
  913MOL0     H23201   5.675  10.204  -0.125 -0.4224  1.2126 -1.2191
  913MOL0     H23202   5.689  10.115  -0.369  0.9807  2.0443 -1.6286
  913MOL0     H23203   5.539  10.205  -0.390 -0.6967  0.1062  1.7580
  913MOL0     H23204   5.792  10.361  -0.290  0.5135  2.5414 -1.0500
  913MOL0     H23205   5.665  10.409  -0.396  0.3484 -0.2301  0.1007
  913MOL0     H23206   5.694  10.262  -0.677  0.3957  0.1202 -1.8156
  913MOL0     H23207   5.830  10.201  -0.857 -0.8873 -0.2887  0.6651
  913MOL0     H23208   5.986  10.267  -0.872 -1.4569  1.1662  0.9941
  913MOL0     H23209   6.104  10.075  -0.796 -0.4098  0.1322  1.2622
  913MOL0     H23210   6.014  10.018  -0.927  2.0420 -1.0058  0.5339
  913MOL0     H23211   5.950   9.968  -0.624  0.9887 -0.9531  0.4452
  913MOL0     H23212   5.992   9.856  -0.751  1.5930  1.0906  2.5020
  913MOL0     H23213   5.728  10.009  -0.753 -0.2989  0.0981 -0.2968
  913MOL0     H23214   5.758   9.855  -0.680  0.8763 -0.5678  0.6228
  913MOL0     H23215   5.750   9.723  -1.078  1.4130  2.5973  1.8801
  913MOL0     H23216   5.635   9.616  -1.268 -0.3480 -1.1393  0.5685
  913MOL0     H23217   5.462   9.590  -1.262  1.2388 -0.5391 -3.4689
  913MOL0     H23218   5.511   9.736  -1.340 -3.2204  2.3995  2.2458
  913MOL0     H23219   5.125   9.953  -1.278  1.4761  0.5275  3.1133
  913MOL0     H23220   4.895  10.031  -1.332 -0.4671  0.5947  0.9829
  913MOL0     H23221   4.624  10.141  -1.094 -1.3887 -1.5135 -0.0503
  913MOL0     H23222   4.765  10.165  -1.213  0.5193 -0.7740  1.0102
  913MOL0     H23223   4.562  10.293  -1.278 -0.1998 -0.4829 -0.4733
  913MOL0     H23224   4.575  10.146  -1.385  1.6785 -1.9551  0.9546
  913MOL0     H23225   4.431  10.143  -1.131  5.2872  0.9150 -0.2824
  913MOL0     H23226   4.411  10.027  -1.254 -0.5169 -0.0630  1.1406
  913MOL0     H23227   4.279  10.296  -1.244  2.1611  0.7952 -1.1855
  913MOL0     H23228   4.323  10.227  -1.406  2.8345 -1.2063  0.4134
  913MOL0     H23229   4.145  10.096  -1.183 -4.1017 -0.6119 -0.2189
  913MOL0     H23230   4.221  10.024  -1.326  1.5972 -0.1877  4.4955
  913MOL0     H23231   4.094  10.195  -1.468  0.1964  2.5310  1.2184
  913MOL0     H23232   4.010  10.061  -1.387  2.1024 -1.0538 -0.0489
  913MOL0     H23233   4.046  10.337  -1.261 -0.2482 -0.0397  0.2114
  913MOL0     H23234   3.929  10.215  -1.208 -0.0600  1.5485  1.0615
  913MOL0     H23235   3.919  10.347  -1.478  1.0768 -0.6652  0.0323
  913MOL0     H23236   3.826  10.407  -1.336 -0.0827 -0.5781  1.3893
  913MOL0     H23237   4.727   9.813  -1.018 -1.1697  0.5735 -0.9408
  913MOL0     H23238   4.954   9.705  -0.964  0.9506  0.5673 -0.7177
  913MOL0     H23239   5.319   9.914  -0.936  0.3147 -0.8394  1.3971
  913MOL0     H23240   5.533   9.954  -0.807  0.7856  0.6816 -0.0279
  913MOL0     H23241   5.499  10.433   0.087 -0.0355 -1.8732 -1.2602
  913MOL0     H23242   5.704  10.475  -0.059  1.1020  0.9182 -0.5030
  913MOL0     H23243   6.237  10.624   0.039 -0.7890  1.6717 -0.5026
  913MOL0     H23244   6.415  10.665  -0.110 -0.2922  0.2061 -1.7431
  913MOL0     H23245   6.590  10.612  -0.286  0.9306 -1.8052  0.9711
  913MOL0     H23246   6.549  10.449  -0.357 -1.0202  0.0468  0.6275
  913MOL0     H23247   6.595  10.554  -0.588  0.1059  2.0386 -0.0312
  913MOL0     H23248   6.727  10.513  -0.469 -0.7908  0.7393  3.0296
  913MOL0     H23249   6.752  10.751  -0.419  2.8687 -0.5832 -2.4462
  913MOL0     H23250   6.591  10.787  -0.468 -2.4302 -2.2617 -0.4987
  913MOL0     H23251   6.742  10.881  -0.639  0.9942 -0.7832 -0.8511
  913MOL0     H23252   6.663  10.735  -0.713  0.0544 -0.9285 -0.1296
  913MOL0     H23253   7.045  10.585  -0.732  0.9773  1.5981 -0.5883
  913MOL0     H23254   6.221  10.451  -0.421 -2.1829  0.5146  0.7862
  913MOL0     H23255   6.053  10.382  -0.262  0.2059 -0.0085 -1.7454
  914MOL0     O23256   2.793   9.163   5.144 -0.7572 -0.2478  0.4047
  914MOL0     C23257   2.851   9.142   5.251  0.2712  0.7516 -0.4341
  914MOL0     O23258   2.793   9.131   5.373  0.2652 -0.8837  0.0632
  914MOL0     C23259   2.653   9.106   5.388 -0.2660  0.4071 -0.6707
  914MOL0     C23260   2.588   9.008   5.309 -0.4982 -0.5867 -0.2327
  914MOL0     C23261   2.465   8.963   5.345 -0.4347  0.0907 -0.2047
  914MOL0     C23262   2.396   9.025   5.447  0.6100 -0.8477 -0.2427
  914MOL0     O23263   2.266   8.986   5.462  0.1166  0.9792 -0.1841
  914MOL0     C23264   2.229   8.940   5.589 -1.6098  0.3920 -1.0983
  914MOL0     C23265   2.092   8.864   5.581 -0.4167  0.0145  0.0085
  914MOL0     C23266   1.980   8.962   5.547  0.8402 -0.3414  0.0133
  914MOL0     C23267   1.915   9.011   5.687 -1.0226  0.4502 -0.5172
  914MOL0     C23268   1.778   9.070   5.672 -0.2676 -0.5295  0.6281
  914MOL0     C23269   1.718   9.122   5.800 -0.2687  0.3379 -0.5773
  914MOL0     C23270   1.573   9.155   5.790  0.3622  0.6238  0.0919
  914MOL0     C23271   1.516   9.243   5.911 -0.7487  0.4183  0.2890
  914MOL0     N23272   1.371   9.267   5.904  1.0534 -0.7406 -0.1047
  914MOL0     C23273   1.320   9.393   5.863  0.5422  0.2799 -0.5163
  914MOL0     C23274   1.186   9.397   5.897  0.1679 -0.4434  0.3174
  914MOL0     C23275   1.085   9.513   5.883 -0.8464  0.8955  0.2073
  914MOL0     C23276   0.967   9.486   5.988 -0.2141 -0.5006  1.5049
  914MOL0     C23277   0.860   9.588   5.972  0.2755  0.0265  0.9276
  914MOL0     C23278   0.803   9.617   6.108  0.1835 -0.0548 -0.9516
  914MOL0     O23279   0.696   9.713   6.105 -0.2772  0.4164 -0.2654
  914MOL0     C23280   0.634   9.731   6.227  0.0955  0.8298  0.5502
  914MOL0     C23281   0.619   9.631   6.320  0.8645  0.4912  0.3172
  914MOL0     C23282   0.540   9.646   6.430  0.9670  0.3764 -0.3088
  914MOL0     C23283   0.522   9.533   6.536 -0.5702 -0.9739 -0.5572
  914MOL0     C23284   0.458   9.764   6.448 -0.5741 -0.2824 -0.5945
  914MOL0     C23285   0.348   9.775   6.549  0.7086 -1.0535 -1.3163
  914MOL0     O23286   0.325   9.895   6.615 -0.3078  0.0908 -0.2359
  914MOL0     C23287   0.227   9.915   6.697  0.0729 -0.6832 -0.4306
  914MOL0     C23288   0.169   9.828   6.790  0.3707  0.1794  1.2213
  914MOL0     C23289   0.047   9.873   6.856 -0.1191 -0.4799  0.1575
  914MOL0     C23290  -0.009  10.002   6.841 -0.7823  0.2586 -0.0832
  914MOL0     O23291  -0.116  10.041   6.922 -0.9033  0.2895 -0.1983
  914MOL0     C23292  -0.194  10.162   6.898  0.9467  0.1020 -1.6713
  914MOL0     C23293  -0.275  10.187   7.025  0.7837 -0.3619 -0.2785
  914MOL0     C23294  -0.359  10.311   7.002  0.4362 -0.1689  1.1565
  914MOL0     C23295  -0.462  10.334   7.115  0.7504 -0.0359 -0.1592
  914MOL0     C23296  -0.565  10.447   7.098 -0.1328 -1.2263  0.1067
  914MOL0     C23297  -0.501  10.575   7.153  0.2657 -0.9205  0.3381
  914MOL0     C23298  -0.608  10.682   7.171  1.2293 -0.0504  0.2790
  914MOL0     C23299  -0.546  10.803   7.225  0.0945  0.2514  0.3448
  914MOL0    Cl23300  -0.668  10.919   7.261  0.1529 -0.1172  0.1126
  914MOL0     C23301   0.054  10.085   6.752 -1.1345 -0.3477  0.3799
  914MOL0     C23302   0.171  10.042   6.681  0.6270  0.0570  1.0724
  914MOL0     O23303   0.294   9.667   6.580 -0.3734 -0.6349 -0.0663
  914MOL0     C23304   0.474   9.870   6.358  0.7736  1.3552 -0.1664
  914MOL0     C23305   0.559   9.844   6.246 -0.1756 -0.5264 -0.1216
  914MOL0     N23306   1.158   9.276   5.960  0.7991 -0.9285  0.5217
  914MOL0     N23307   1.261   9.201   5.958 -0.6438 -0.0115  0.5520
  914MOL0     C23308   2.450   9.130   5.513  0.6342  0.6434 -0.8492
  914MOL0     C23309   2.589   9.163   5.503  0.6036  0.4287 -0.2635
  914MOL0     C23310   3.005   9.125   5.246 -0.0641  0.0513  0.5298
  914MOL0     C23311   3.059   9.123   5.120 -0.4389  0.2519  0.3724
  914MOL0     C23312   3.200   9.127   5.103  0.5772 -0.7122  0.8810
  914MOL0     C23313   3.282   9.130   5.212  0.0682 -0.5534  0.0386
  914MOL0     O23314   3.411   9.147   5.188 -0.3558  0.1103  0.1074
  914MOL0     C23315   3.507   9.165   5.298 -0.7485  0.5228  0.4760
  914MOL0     C23316   3.509   9.317   5.347 -0.5477 -0.6565  0.4559
  914MOL0     C23317   3.540   9.409   5.231  0.2192  0.5822  0.2362
  914MOL0     C23318   3.509   9.560   5.257 -0.2997  0.7500  0.5687
  914MOL0     C23319   3.574   9.612   5.377  0.1990  0.7763 -0.0259
  914MOL0     C23320   3.630   9.656   5.474  0.1582  0.1672 -0.2843
  914MOL0     C23321   3.223   9.120   5.343  0.0592  1.1849  1.0815
  914MOL0     C23322   3.087   9.118   5.359  0.3710 -0.3402  0.6776
  914MOL0     H23323   2.631   8.952   5.226 -0.1814 -1.2238  0.3437
  914MOL0     H23324   2.424   8.876   5.294 -0.8174 -0.5060  1.0874
  914MOL0     H23325   2.306   8.870   5.623 -2.1012 -0.6908 -2.1507
  914MOL0     H23326   2.233   9.020   5.663 -2.7137  0.5051 -1.1457
  914MOL0     H23327   2.094   8.792   5.500 -2.3226  0.1825 -0.2291
  914MOL0     H23328   2.068   8.812   5.674 -2.4334  1.8268  0.5934
  914MOL0     H23329   2.012   9.050   5.490 -0.8798 -0.4549 -1.2037
  914MOL0     H23330   1.904   8.909   5.490  0.2195  0.0965  0.4196
  914MOL0     H23331   1.916   8.929   5.760 -1.4987 -0.0112 -1.0244
  914MOL0     H23332   1.985   9.083   5.732 -2.0269  0.7008  0.7103
  914MOL0     H23333   1.781   9.154   5.601  1.1902 -1.9850 -1.1309
  914MOL0     H23334   1.718   8.987   5.634  2.0203 -1.6564 -0.7292
  914MOL0     H23335   1.734   9.050   5.881 -0.4890  1.6563  0.6752
  914MOL0     H23336   1.773   9.212   5.827  1.6879 -0.2853 -2.2471
  914MOL0     H23337   1.557   9.221   5.704 -0.8554  1.8452  1.1835
  914MOL0     H23338   1.519   9.061   5.779  1.0531 -0.0252  1.8965
  914MOL0     H23339   1.572   9.337   5.898 -0.3125 -0.0167 -1.2212
  914MOL0     H23340   1.540   9.199   6.008 -1.6478  0.8281  0.7134
  914MOL0     H23341   1.377   9.466   5.806  1.1283 -0.1639 -0.5099
  914MOL0     H23342   1.132   9.610   5.903 -0.7957  1.3073 -1.7216
  914MOL0     H23343   1.051   9.534   5.781 -0.3387  1.3557  0.1301
  914MOL0     H23344   1.011   9.474   6.088  0.8492 -0.4995  1.0602
  914MOL0     H23345   0.924   9.388   5.969  1.4670 -1.3382  1.7764
  914MOL0     H23346   0.783   9.550   5.904 -1.0412  3.1608  0.4853
  914MOL0     H23347   0.909   9.676   5.930  2.8884 -2.0401 -0.7445
  914MOL0     H23348   0.880   9.655   6.175 -0.6797  1.7552 -0.9216
  914MOL0     H23349   0.767   9.518   6.139 -1.5074  0.6164 -0.6595
  914MOL0     H23350   0.671   9.536   6.318  0.8781  0.4550 -2.8111
  914MOL0     H23351   0.521   9.572   6.638  0.3823 -3.2782  0.4031
  914MOL0     H23352   0.428   9.478   6.527 -0.7206 -1.7080  3.6171
  914MOL0     H23353   0.603   9.460   6.530 -2.2883 -2.8407 -2.6517
  914MOL0     H23354   0.225   9.738   6.809  2.3055  1.3039  1.1332
  914MOL0     H23355   0.012   9.795   6.923  1.7456 -0.7891  0.8520
  914MOL0     H23356  -0.133  10.252   6.883  0.0307  0.9129 -0.6986
  914MOL0     H23357  -0.261  10.137   6.816  1.9931  0.4439 -2.6655
  914MOL0     H23358  -0.344  10.103   7.041  0.6472 -0.0183  0.9911
  914MOL0     H23359  -0.210  10.201   7.112 -1.5862  2.2734  1.2194
  914MOL0     H23360  -0.421  10.301   6.912 -0.9209 -1.4673  2.1837
  914MOL0     H23361  -0.284  10.391   6.993  1.1455 -0.7105  2.1486
  914MOL0     H23362  -0.527  10.246   7.122  0.0169  0.5630  0.9324
  914MOL0     H23363  -0.410  10.341   7.211 -0.6892  2.4627  0.5257
  914MOL0     H23364  -0.655  10.442   7.159 -0.9971  1.1598 -0.8800
  914MOL0     H23365  -0.585  10.447   6.991 -3.7015 -2.2716  0.6577
  914MOL0     H23366  -0.472  10.550   7.256  1.8264 -2.0497 -0.3324
  914MOL0     H23367  -0.413  10.603   7.094 -1.1434 -1.8342 -2.3810
  914MOL0     H23368  -0.682  10.640   7.239  2.1854 -0.0861  1.3351
  914MOL0     H23369  -0.668  10.702   7.082 -1.5358 -2.2701  1.5050
  914MOL0     H23370  -0.479  10.852   7.155 -0.4436 -0.5406 -0.7562
  914MOL0     H23371  -0.495  10.762   7.313 -0.3582 -4.2985 -1.2388
  914MOL0     H23372   0.020  10.184   6.727  0.2795 -0.1180 -0.7286
  914MOL0     H23373   0.211  10.109   6.606 -0.8364  2.5132  2.3641
  914MOL0     H23374   0.416   9.960   6.371 -0.6109  0.9114 -2.5832
  914MOL0     H23375   0.581   9.923   6.176 -3.1593  2.6101  2.1617
  914MOL0     H23376   2.401   9.196   5.584  3.0047 -1.1446  2.7305
  914MOL0     H23377   2.622   9.245   5.566  0.4147  0.9634 -0.8509
  914MOL0     H23378   2.992   9.125   5.034 -2.0436 -1.6594  1.4894
  914MOL0     H23379   3.244   9.123   5.003  1.2399 -2.5933  1.2083
  914MOL0     H23380   3.486   9.097   5.381 -0.4907 -2.6467 -1.8868
  914MOL0     H23381   3.603   9.134   5.256 -0.8227 -2.9307  2.4832
  914MOL0     H23382   3.594   9.332   5.414  1.1472  2.7047 -2.1338
  914MOL0     H23383   3.416   9.334   5.401  0.7278 -0.4439  2.7064
  914MOL0     H23384   3.493   9.379   5.137  0.1517  1.0018  0.1327
  914MOL0     H23385   3.648   9.404   5.212 -0.0772  1.2569 -1.9039
  914MOL0     H23386   3.400   9.563   5.259 -0.4549 -1.9492 -0.1176
  914MOL0     H23387   3.549   9.612   5.170 -1.7339 -0.4908 -0.8779
  914MOL0     H23388   3.692   9.674   5.560  0.2036  0.9455 -0.4696
  914MOL0     H23389   3.273   9.115   5.439  0.5907  0.7693  0.7850
  914MOL0     H23390   3.042   9.118   5.458  1.0035 -0.7431  0.9673
  915MOL0     O23391   8.020   3.163   4.353  0.2385  0.5340 -0.0291
  915MOL0     C23392   8.049   3.212   4.464  0.3778 -0.4956  0.4475
  915MOL0     O23393   7.961   3.270   4.549  0.3259 -0.1647 -0.2936
  915MOL0     C23394   7.828   3.250   4.519 -0.4699 -0.9753 -0.1936
  915MOL0     C23395   7.761   3.134   4.556 -0.5592  0.4685 -0.3334
  915MOL0     C23396   7.621   3.123   4.533  1.1723 -0.1112  0.0560
  915MOL0     C23397   7.551   3.231   4.475 -0.2083 -0.1220 -0.2226
  915MOL0     O23398   7.415   3.243   4.452 -0.5313 -0.5165  0.1235
  915MOL0     C23399   7.323   3.163   4.522 -0.6416  0.0871  0.8529
  915MOL0     C23400   7.181   3.205   4.499 -0.4259  0.6423  0.1955
  915MOL0     C23401   7.099   3.092   4.562  0.6893 -0.6343  0.2557
  915MOL0     C23402   6.957   3.134   4.544  0.0638 -0.4792  0.2759
  915MOL0     C23403   6.850   3.038   4.614  0.4885  0.1470  0.1014
  915MOL0     C23404   6.701   3.096   4.611  0.4141 -0.2047 -0.0777
  915MOL0     C23405   6.606   2.987   4.676 -0.0545 -0.5003 -0.0391
  915MOL0     C23406   6.459   3.046   4.668 -0.1403 -0.2168 -0.2996
  915MOL0     N23407   6.342   2.959   4.689 -0.4062  0.1786  0.1234
  915MOL0     C23408   6.283   2.918   4.808 -0.1342 -0.7427 -0.0784
  915MOL0     C23409   6.174   2.841   4.771 -1.6924 -0.5148  1.4394
  915MOL0     C23410   6.072   2.788   4.871 -0.0632  0.2620  0.2106
  915MOL0     C23411   6.114   2.731   5.009  0.5420  0.0092  0.2526
  915MOL0     C23412   6.169   2.592   4.980  0.3288  0.8506  0.1219
  915MOL0     C23413   6.313   2.588   4.919  1.0827  0.0201 -0.6968
  915MOL0     O23414   6.408   2.660   4.991 -0.2016  0.0132  0.3492
  915MOL0     C23415   6.540   2.664   4.940 -0.2540  0.5089 -0.3267
  915MOL0     C23416   6.567   2.615   4.811 -0.5393  0.1246  0.2777
  915MOL0     C23417   6.693   2.649   4.760  0.1193 -0.0355  0.1986
  915MOL0     C23418   6.698   2.608   4.620  0.1162 -0.1016  0.6310
  915MOL0     C23419   6.794   2.711   4.837 -0.2486 -0.0260 -0.9048
  915MOL0     C23420   6.939   2.729   4.804 -0.4867 -0.5218 -0.1008
  915MOL0     O23421   7.016   2.814   4.894 -0.0158  0.3484  0.1964
  915MOL0     C23422   7.148   2.858   4.871 -0.2515 -0.2587 -0.0779
  915MOL0     C23423   7.220   2.836   4.753 -0.1503  0.8867  0.8202
  915MOL0     C23424   7.356   2.867   4.742 -1.0507  0.4707 -0.0073
  915MOL0     C23425   7.419   2.928   4.846 -0.2148  0.0732 -0.1944
  915MOL0     O23426   7.552   2.945   4.837 -0.1941  0.0913  0.5105
  915MOL0     C23427   7.630   2.999   4.936 -1.3967 -0.7649 -1.0749
  915MOL0     C23428   7.769   3.041   4.908 -0.1918  0.7989  0.3278
  915MOL0     C23429   7.842   3.053   5.035  0.0184  0.1478 -0.3433
  915MOL0     C23430   7.997   3.061   5.009  0.5673  0.2629  0.0233
  915MOL0     C23431   8.061   2.921   5.001  0.7015  0.1711 -0.1953
  915MOL0     C23432   8.200   2.913   5.050  0.7227 -0.0774  0.2549
  915MOL0     C23433   8.286   3.022   4.989 -0.7101 -0.3304 -0.8318
  915MOL0     C23434   8.434   3.020   5.027  0.6576  0.6368  0.2315
  915MOL0    Cl23435   8.521   3.161   4.993 -0.0285  0.2970  0.0080
  915MOL0     C23436   7.345   2.965   4.957 -0.5839 -0.2192  0.0509
  915MOL0     C23437   7.209   2.930   4.975 -0.1210 -0.6136 -0.2677
  915MOL0     O23438   6.988   2.665   4.718  0.1616  0.5135 -0.1772
  915MOL0     C23439   6.758   2.754   4.969  0.0107 -0.8989  0.3403
  915MOL0     C23440   6.630   2.744   5.007  0.4921  0.4379  0.3233
  915MOL0     N23441   6.179   2.845   4.633 -0.5190  0.6174  0.4623
  915MOL0     N23442   6.276   2.900   4.588  0.7704 -0.2644 -0.2312
  915MOL0     C23443   7.628   3.352   4.450 -0.0200 -0.7692 -0.9248
  915MOL0     C23444   7.760   3.356   4.475  0.4393  0.0704 -0.0002
  915MOL0     C23445   8.187   3.220   4.503  0.0031  0.4125 -0.3007
  915MOL0     C23446   8.294   3.167   4.424 -1.2452  0.6669  0.6268
  915MOL0     C23447   8.435   3.175   4.450 -0.1652  0.1421 -1.4586
  915MOL0     C23448   8.463   3.231   4.582  0.4941  0.2498  1.3332
  915MOL0     O23449   8.584   3.242   4.639 -0.4480 -0.6064  0.5166
  915MOL0     C23450   8.695   3.179   4.572  0.2028 -0.6800 -0.4685
  915MOL0     C23451   8.822   3.171   4.663  0.3767  0.1476 -0.3661
  915MOL0     C23452   8.827   3.044   4.753 -0.1320 -0.2588 -0.0429
  915MOL0     C23453   8.822   2.905   4.688 -0.1676  0.4810  0.6139
  915MOL0     C23454   8.941   2.891   4.607  0.3947 -1.1238  1.0048
  915MOL0     C23455   9.052   2.885   4.561 -0.9560 -0.7165  0.2601
  915MOL0     C23456   8.361   3.280   4.667  0.6705  1.0905 -0.0973
  915MOL0     C23457   8.225   3.269   4.625  0.0834 -0.1384  0.4718
  915MOL0     H23458   7.823   3.057   4.601  1.0176  2.0681  0.3863
  915MOL0     H23459   7.568   3.036   4.572  1.1240  1.2012  3.1458
  915MOL0     H23460   7.338   3.059   4.491 -2.0208  0.0892  0.0767
  915MOL0     H23461   7.350   3.177   4.627  3.0215  2.0140 -0.1883
  915MOL0     H23462   7.159   3.297   4.555 -6.0774 -0.9728  1.2280
  915MOL0     H23463   7.159   3.217   4.393 -1.6787  1.1890  0.4965
  915MOL0     H23464   7.106   2.995   4.514 -1.5108 -0.5908 -0.2605
  915MOL0     H23465   7.117   3.100   4.670  1.1283  2.3881  0.0535
  915MOL0     H23466   6.946   3.234   4.587 -0.8284 -0.3699 -0.1832
  915MOL0     H23467   6.923   3.149   4.441  0.5856  1.3071  0.3261
  915MOL0     H23468   6.856   2.935   4.576  1.1883 -0.3722  1.5315
  915MOL0     H23469   6.892   3.021   4.714  0.3120 -3.5170 -0.2902
  915MOL0     H23470   6.687   3.191   4.665 -2.4250  0.0024 -1.0410
  915MOL0     H23471   6.658   3.111   4.512 -1.4576 -1.2261  0.5449
  915MOL0     H23472   6.620   2.892   4.624 -3.4026 -1.6936  0.9937
  915MOL0     H23473   6.643   2.980   4.779 -0.8177 -1.8255  0.1596
  915MOL0     H23474   6.446   3.082   4.565  3.0694 -0.8801 -1.0253
  915MOL0     H23475   6.449   3.133   4.733  0.0121 -1.1478  1.0074
  915MOL0     H23476   6.321   2.937   4.908  1.4104 -2.9904 -0.1814
  915MOL0     H23477   6.000   2.870   4.881 -0.5054 -0.2818  1.9419
  915MOL0     H23478   6.013   2.718   4.812 -0.5174  2.0593 -1.5807
  915MOL0     H23479   6.031   2.718   5.080  2.2166 -1.0437  2.1103
  915MOL0     H23480   6.185   2.793   5.064 -1.9477  3.1325  0.2457
  915MOL0     H23481   6.107   2.526   4.920  1.6779 -2.3712  2.0095
  915MOL0     H23482   6.180   2.543   5.078 -1.1002  1.5792  0.6682
  915MOL0     H23483   6.307   2.624   4.816  0.4965  1.5131 -0.1704
  915MOL0     H23484   6.344   2.483   4.910  1.1707 -0.0474  0.2636
  915MOL0     H23485   6.494   2.576   4.742 -0.0206 -1.8904  0.8225
  915MOL0     H23486   6.604   2.616   4.565  1.0312 -0.8813 -1.1375
  915MOL0     H23487   6.774   2.663   4.563  1.0747  0.2438  2.1787
  915MOL0     H23488   6.729   2.504   4.610 -1.6441 -0.5674 -0.3099
  915MOL0     H23489   7.181   2.789   4.663 -0.1100 -1.6357  2.0461
  915MOL0     H23490   7.415   2.849   4.653 -0.1358  2.2188  0.1974
  915MOL0     H23491   7.579   3.091   4.966 -3.7939 -1.3019 -3.1310
  915MOL0     H23492   7.643   2.925   5.015  0.9256  0.8876  0.2163
  915MOL0     H23493   7.807   2.969   4.835  0.5389  1.5611 -0.0629
  915MOL0     H23494   7.774   3.137   4.856 -0.0569  1.4844  1.5774
  915MOL0     H23495   7.808   2.987   5.116 -1.3855  1.2843  0.0327
  915MOL0     H23496   7.818   3.152   5.075  1.1962  0.2713  0.1153
  915MOL0     H23497   8.004   3.101   4.907  1.6880  0.1859  0.0677
  915MOL0     H23498   8.053   3.121   5.081  2.1154  0.5780 -1.3745
  915MOL0     H23499   8.056   2.887   4.897  0.4768  0.0354 -0.1415
  915MOL0     H23500   7.997   2.859   5.065  2.3289  0.1009  1.4492
  915MOL0     H23501   8.197   2.924   5.159 -2.4126  0.7653  0.1924
  915MOL0     H23502   8.232   2.809   5.037 -0.6664 -0.7868  2.0483
  915MOL0     H23503   8.250   3.114   5.037  1.3329 -0.6595  1.5291
  915MOL0     H23504   8.272   3.034   4.881  0.2270  0.1057 -0.9125
  915MOL0     H23505   8.483   2.941   4.970 -0.7058  1.5483 -2.3656
  915MOL0     H23506   8.429   3.001   5.135 -1.1602  0.3699  0.1417
  915MOL0     H23507   7.389   3.024   5.037 -1.8508  0.0879  0.5423
  915MOL0     H23508   7.154   2.963   5.062  0.7211  0.7103 -0.2181
  915MOL0     H23509   6.828   2.809   5.031 -1.5626  1.7150 -0.0546
  915MOL0     H23510   6.604   2.779   5.107  0.3225 -1.6075  1.0654
  915MOL0     H23511   7.591   3.453   4.430  1.1001  0.2305  1.5900
  915MOL0     H23512   7.814   3.450   4.470 -1.9633  1.6114  1.3028
  915MOL0     H23513   8.278   3.126   4.325 -1.7646  1.6943  0.2686
  915MOL0     H23514   8.514   3.148   4.381  2.3739  1.8972  0.5363
  915MOL0     H23515   8.675   3.081   4.528 -0.9044 -1.7070  2.0673
  915MOL0     H23516   8.737   3.240   4.492  4.3236 -1.8368  0.5675
  915MOL0     H23517   8.830   3.256   4.732  1.3472  0.3689 -0.7288
  915MOL0     H23518   8.909   3.164   4.596 -0.0134 -0.5331 -0.8068
  915MOL0     H23519   8.739   3.046   4.819 -1.3034 -4.3400 -1.2350
  915MOL0     H23520   8.911   3.050   4.824 -1.9516  1.6883  2.1216
  915MOL0     H23521   8.730   2.914   4.630 -0.8301 -1.4032  1.3149
  915MOL0     H23522   8.805   2.824   4.759 -2.8112  2.7121  2.7227
  915MOL0     H23523   9.150   2.871   4.521 -0.0817 -0.5705  2.2500
  915MOL0     H23524   8.386   3.328   4.760 -3.7160  1.5317  1.0838
  915MOL0     H23525   8.151   3.295   4.700  0.2641 -0.6483  0.8249
  916MOL0     O23526   6.941   9.913   3.920  0.1577 -0.5955 -0.2070
  916MOL0     C23527   6.983   9.838   4.006  0.0433 -0.3889  0.2034
  916MOL0     O23528   6.900   9.786   4.107 -0.7310  0.2346  0.9007
  916MOL0     C23529   6.758   9.792   4.092 -1.2880 -0.0826 -0.6542
  916MOL0     C23530   6.695   9.674   4.134  0.6636  0.3928 -0.6565
  916MOL0     C23531   6.560   9.664   4.134  0.2518 -0.2778 -0.5179
  916MOL0     C23532   6.481   9.760   4.086  0.9229  0.4612  0.0418
  916MOL0     O23533   6.341   9.733   4.067 -0.2353  0.0492 -0.1530
  916MOL0     C23534   6.240   9.831   4.041  0.0325  0.5353 -0.1878
  916MOL0     C23535   6.103   9.757   4.074 -0.7610 -0.1092  0.0565
  916MOL0     C23536   5.988   9.831   4.014 -0.0589  0.0477  0.0125
  916MOL0     C23537   5.852   9.762   4.052  0.2546 -0.3405  0.5310
  916MOL0     C23538   5.733   9.805   3.967  0.0810 -0.1858  0.5942
  916MOL0     C23539   5.700   9.723   3.840 -0.8141 -0.0486 -0.5095
  916MOL0     C23540   5.635   9.583   3.861  0.2879 -0.7050 -0.0309
  916MOL0     C23541   5.528   9.547   3.762  0.5438  0.1846 -0.1516
  916MOL0     N23542   5.400   9.610   3.772  0.1716 -0.0453 -0.1633
  916MOL0     C23543   5.373   9.737   3.717 -0.1012 -0.1219  0.3926
  916MOL0     C23544   5.236   9.755   3.746 -0.7292  0.4436  0.6897
  916MOL0     C23545   5.174   9.887   3.713  0.6878 -0.6435  0.4827
  916MOL0     C23546   5.147   9.976   3.838  0.1113  0.3307 -0.1149
  916MOL0     C23547   5.036  10.076   3.786 -0.8354  0.3580 -0.2330
  916MOL0     C23548   5.036  10.193   3.881  0.3562  0.1275  0.1890
  916MOL0     O23549   5.141  10.285   3.854 -0.0745 -1.0930  0.0487
  916MOL0     C23550   5.119  10.387   3.757 -0.1424  0.4257 -0.1953
  916MOL0     C23551   5.223  10.485   3.750 -0.5258  0.3512  0.4011
  916MOL0     C23552   5.214  10.592   3.652 -0.5793  0.2496 -1.3384
  916MOL0     C23553   5.331  10.687   3.652  0.1078 -0.7934  0.4063
  916MOL0     C23554   5.104  10.604   3.563 -0.1760 -0.3567  0.4423
  916MOL0     C23555   5.095  10.707   3.458  0.6733 -0.2895  0.2125
  916MOL0     O23556   5.199  10.800   3.427 -0.0027  0.0869  0.2039
  916MOL0     C23557   5.185  10.896   3.329  0.5701 -0.3871 -0.8910
  916MOL0     C23558   5.257  11.014   3.353  0.4360  0.6152  0.2880
  916MOL0     C23559   5.242  11.130   3.282 -0.0225 -0.1158  0.7437
  916MOL0     C23560   5.158  11.122   3.168 -0.2894 -0.3904 -0.1197
  916MOL0     O23561   5.145  11.232   3.092  0.5291 -0.6140  0.0804
  916MOL0     C23562   5.263  11.308   3.070 -0.9753 -0.0155  0.1471
  916MOL0     C23563   5.237  11.402   2.953  0.2959 -1.2239  0.4412
  916MOL0     C23564   5.368  11.485   2.920 -0.1367 -0.2996  0.1877
  916MOL0     C23565   5.394  11.596   3.033  0.0084  0.1106  0.2687
  916MOL0     C23566   5.314  11.727   3.000  0.2205  0.2077 -0.9494
  916MOL0     C23567   5.364  11.837   3.095  0.3006  0.0282  0.1783
  916MOL0     C23568   5.295  11.976   3.072 -0.9139  0.4286  0.4366
  916MOL0     C23569   5.143  11.965   3.050 -0.0766 -0.1815  0.3003
  916MOL0    Cl23570   5.119  11.925   2.883 -0.2388 -0.1847 -0.2250
  916MOL0     C23571   5.088  11.005   3.140  0.3364 -0.6400  0.6060
  916MOL0     C23572   5.105  10.891   3.218  0.7227 -0.4620  0.9475
  916MOL0     O23573   4.988  10.695   3.395  0.1419 -0.1430  0.3612
  916MOL0     C23574   4.998  10.518   3.589  0.8070  0.1092  0.6924
  916MOL0     C23575   5.000  10.411   3.682 -0.2651  0.2267  1.0468
  916MOL0     N23576   5.186   9.639   3.801  0.2237 -0.5183  0.8667
  916MOL0     N23577   5.284   9.560   3.819 -0.3738  0.1525  0.3015
  916MOL0     C23578   6.541   9.877   4.045  0.1680 -0.2519  0.1371
  916MOL0     C23579   6.677   9.896   4.047 -0.1389 -0.3910  0.0749
  916MOL0     C23580   7.116   9.795   3.997 -0.3761 -0.4047 -0.3789
  916MOL0     C23581   7.171   9.697   4.086 -0.1471  0.0449 -0.1093
  916MOL0     C23582   7.306   9.669   4.090  0.1699  0.2913  1.0068
  916MOL0     C23583   7.389   9.728   3.990  0.1190  0.0179 -0.1158
  916MOL0     O23584   7.522   9.703   3.977  0.8769 -0.5657  0.3688
  916MOL0     C23585   7.593   9.605   4.049 -0.1645 -0.5030 -0.8255
  916MOL0     C23586   7.745   9.630   4.024 -0.0529  0.1982 -0.9734
  916MOL0     C23587   7.785   9.779   4.029  0.6449  0.6948  0.1801
  916MOL0     C23588   7.768   9.848   4.164 -0.2685  1.7639  0.0383
  916MOL0     C23589   7.802   9.754   4.270  0.2232  0.3795 -0.8137
  916MOL0     C23590   7.828   9.681   4.364 -0.2507  1.0582  0.3628
  916MOL0     C23591   7.340   9.822   3.898  0.5527 -0.5100  0.4019
  916MOL0     C23592   7.204   9.856   3.909 -0.1635 -0.4544  0.0785
  916MOL0     H23593   6.751   9.589   4.171 -0.5193 -0.1673 -0.0854
  916MOL0     H23594   6.499   9.579   4.165 -1.5367 -0.1309 -3.2438
  916MOL0     H23595   6.249   9.919   4.106 -2.1896  0.0346  0.9109
  916MOL0     H23596   6.245   9.861   3.936 -2.4080  1.6095 -0.0752
  916MOL0     H23597   6.105   9.653   4.041  0.4293 -1.3285  3.6096
  916MOL0     H23598   6.087   9.766   4.181 -2.7328 -0.7653 -0.1465
  916MOL0     H23599   5.989   9.933   4.053  3.1484 -0.4739  1.5970
  916MOL0     H23600   5.997   9.836   3.905  0.2724  1.0051  0.0761
  916MOL0     H23601   5.874   9.655   4.050  4.1106  0.2506  2.1254
  916MOL0     H23602   5.821   9.780   4.155 -1.4866  0.3931 -0.0828
  916MOL0     H23603   5.641   9.799   4.026 -0.9987  1.4488 -0.8102
  916MOL0     H23604   5.764   9.909   3.956  1.9258 -0.4418  2.7317
  916MOL0     H23605   5.624   9.780   3.784 -1.8297 -0.8471  0.0139
  916MOL0     H23606   5.787   9.713   3.774 -0.6778  0.3650 -0.3914
  916MOL0     H23607   5.703   9.498   3.853  1.0513 -0.0188 -1.2210
  916MOL0     H23608   5.589   9.588   3.960 -1.5201 -0.8443 -0.8222
  916MOL0     H23609   5.508   9.439   3.767 -1.6251  0.4935 -0.9482
  916MOL0     H23610   5.564   9.562   3.660 -1.6378  4.0638 -0.5348
  916MOL0     H23611   5.441   9.796   3.657  0.1996  0.5854  1.3991
  916MOL0     H23612   5.254   9.935   3.656 -1.4952 -1.3546 -3.5605
  916MOL0     H23613   5.082   9.866   3.657 -0.3478  0.4568  1.7237
  916MOL0     H23614   5.237  10.036   3.857 -0.3403  1.8231 -2.2638
  916MOL0     H23615   5.108   9.932   3.929 -0.0681  0.1493 -0.2811
  916MOL0     H23616   4.937  10.030   3.799 -1.4206  1.7794  0.5464
  916MOL0     H23617   5.051  10.106   3.682 -0.3669 -1.8570 -0.8728
  916MOL0     H23618   5.051  10.150   3.980  2.3517  0.3082  0.0041
  916MOL0     H23619   4.935  10.235   3.873 -0.2216 -1.1100  0.7404
  916MOL0     H23620   5.304  10.463   3.819  1.5773 -2.6344 -2.6904
  916MOL0     H23621   5.373  10.681   3.551  0.5322  0.2743  0.5156
  916MOL0     H23622   5.293  10.786   3.676 -0.7384 -0.8695 -0.5256
  916MOL0     H23623   5.410  10.664   3.723  2.9927  2.0390 -1.5969
  916MOL0     H23624   5.332  11.012   3.430  2.2815 -5.0639 -1.1462
  916MOL0     H23625   5.274  11.228   3.316 -1.6097  1.4595 -1.8935
  916MOL0     H23626   5.275  11.359   3.166 -0.9567 -1.2354  0.8131
  916MOL0     H23627   5.347  11.242   3.046 -0.7067  0.8557 -1.4386
  916MOL0     H23628   5.221  11.341   2.864 -0.4889 -0.5283  0.0954
  916MOL0     H23629   5.155  11.471   2.971 -0.2236 -0.1646 -4.4671
  916MOL0     H23630   5.357  11.521   2.817 -0.8816  0.1757  0.4225
  916MOL0     H23631   5.451  11.414   2.918  0.4247  0.3491  0.1485
  916MOL0     H23632   5.357  11.551   3.125  0.4052 -2.3244 -0.7037
  916MOL0     H23633   5.503  11.607   3.042  0.0885 -0.7967  0.5138
  916MOL0     H23634   5.210  11.707   3.027  1.2746 -3.2975  1.1246
  916MOL0     H23635   5.335  11.742   2.894  1.6110  2.0571 -0.4746
  916MOL0     H23636   5.336  11.814   3.198  3.4157 -1.6417  0.7529
  916MOL0     H23637   5.471  11.853   3.084  0.1552  0.0942 -1.3449
  916MOL0     H23638   5.357  12.019   2.993  1.8557 -1.9968  1.1387
  916MOL0     H23639   5.323  12.039   3.156 -0.4285  3.1632 -1.6398
  916MOL0     H23640   5.109  12.067   3.066  2.0156  1.4056 -3.8875
  916MOL0     H23641   5.096  11.881   3.103  0.4110 -2.2089 -2.2430
  916MOL0     H23642   5.020  10.992   3.056  1.2997  0.4627 -0.3939
  916MOL0     H23643   5.045  10.804   3.192 -2.2354  1.5015  0.7044
  916MOL0     H23644   4.907  10.530   3.530  0.0123 -2.6884  1.1931
  916MOL0     H23645   4.917  10.341   3.680 -0.0139 -0.0634 -0.0880
  916MOL0     H23646   6.476   9.954   4.004  2.1899  1.6473  0.2464
  916MOL0     H23647   6.718   9.989   4.009 -0.7586  0.1699  0.7292
  916MOL0     H23648   7.102   9.653   4.157 -1.8587 -0.8467 -2.2004
  916MOL0     H23649   7.334   9.597   4.166  1.1162 -0.1044  0.3128
  916MOL0     H23650   7.574   9.615   4.156  1.0319  1.7610 -0.7749
  916MOL0     H23651   7.547   9.506   4.034 -2.4975  0.0392  1.9188
  916MOL0     H23652   7.758   9.591   3.922  1.5381 -0.4015 -0.5644
  916MOL0     H23653   7.805   9.562   4.086  0.2221 -1.0893 -2.5714
  916MOL0     H23654   7.729   9.835   3.953 -2.8927 -1.4615  0.9337
  916MOL0     H23655   7.890   9.782   4.001  0.9136  1.1121  1.2041
  916MOL0     H23656   7.666   9.886   4.171 -1.5817 -1.3932 -0.1901
  916MOL0     H23657   7.837   9.933   4.174  1.0547  0.6278  0.9861
  916MOL0     H23658   7.857   9.624   4.450  0.6112  1.5213  0.3893
  916MOL0     H23659   7.412   9.870   3.834  0.7479 -3.8242 -2.1639
  916MOL0     H23660   7.166   9.926   3.836 -0.6804 -0.1814  0.5987
  917MOL0     O23661   2.777   5.606   1.714 -0.7110  0.7741  0.5490
  917MOL0     C23662   2.812   5.658   1.604  0.9012  0.4441 -0.0581
  917MOL0     O23663   2.748   5.761   1.542 -1.0090  0.3488  0.1094
  917MOL0     C23664   2.624   5.800   1.586  0.0977 -0.4282  0.4543
  917MOL0     C23665   2.508   5.717   1.580 -0.2612  0.2520 -0.1339
  917MOL0     C23666   2.377   5.765   1.606  0.9217  0.1445 -0.8198
  917MOL0     C23667   2.359   5.898   1.643 -0.2284 -0.1689 -0.1583
  917MOL0     O23668   2.230   5.925   1.675 -0.1561  0.0866 -0.7279
  917MOL0     C23669   2.194   6.035   1.760  0.5891 -0.8030  0.3319
  917MOL0     C23670   2.195   6.174   1.688  0.3280 -0.2925 -0.1971
  917MOL0     C23671   2.083   6.171   1.579 -0.0969  0.4625 -0.0230
  917MOL0     C23672   2.060   6.305   1.502 -0.3303  1.1560  0.2121
  917MOL0     C23673   1.964   6.286   1.382 -0.2936  0.5053  0.7337
  917MOL0     C23674   1.963   6.404   1.296 -0.6301  0.5653  0.5705
  917MOL0     C23675   1.862   6.397   1.183  0.7626  1.4792  0.5047
  917MOL0     C23676   1.860   6.518   1.086  0.6665 -0.2232  0.7384
  917MOL0     N23677   1.745   6.509   0.994  0.6048 -0.0600 -0.3322
  917MOL0     C23678   1.699   6.397   0.931  0.3762  0.2018 -0.2264
  917MOL0     C23679   1.567   6.415   0.918 -0.0118 -0.3075 -0.0193
  917MOL0     C23680   1.484   6.310   0.855  0.3897  0.4594 -0.0411
  917MOL0     C23681   1.453   6.202   0.949 -0.3398 -0.3953 -0.6937
  917MOL0     C23682   1.341   6.237   1.051  0.0139  0.5006 -0.4114
  917MOL0     C23683   1.208   6.256   0.992  0.4781 -0.0228 -0.1387
  917MOL0     O23684   1.108   6.232   1.092  0.1829 -0.3441  0.4614
  917MOL0     C23685   0.981   6.235   1.047  1.0700  0.7417  0.0548
  917MOL0     C23686   0.885   6.207   1.148  0.3914 -0.2334  0.1220
  917MOL0     C23687   0.747   6.186   1.130  0.2319  0.2205 -0.1910
  917MOL0     C23688   0.662   6.150   1.243 -0.5046  0.1910  0.1511
  917MOL0     C23689   0.698   6.193   0.999 -0.0204 -0.3401 -0.0590
  917MOL0     C23690   0.556   6.191   0.973 -0.2564  0.3245 -0.4691
  917MOL0     O23691   0.476   6.247   1.073  0.6537  0.3036 -0.3573
  917MOL0     C23692   0.342   6.249   1.059 -0.3167  0.0117  0.3383
  917MOL0     C23693   0.260   6.142   1.104 -0.3448  0.6818 -0.5008
  917MOL0     C23694   0.116   6.139   1.086 -0.4166 -0.5455  0.7072
  917MOL0     C23695   0.045   6.255   1.040 -0.2999  0.2926 -1.2719
  917MOL0     O23696  -0.094   6.273   1.056  0.2095  0.1309 -0.6726
  917MOL0     C23697  -0.176   6.162   1.094 -0.1426  0.3893  0.4202
  917MOL0     C23698  -0.304   6.220   1.119  0.4223 -0.5127 -0.3494
  917MOL0     C23699  -0.408   6.124   1.186  0.1535 -0.1194 -0.1210
  917MOL0     C23700  -0.450   6.008   1.092  0.4173 -0.4021 -0.1733
  917MOL0     C23701  -0.533   5.912   1.173  0.2273  0.6343  0.6886
  917MOL0     C23702  -0.569   5.780   1.098 -0.2210 -1.0783 -0.0331
  917MOL0     C23703  -0.639   5.674   1.176 -0.3847 -0.1354  0.8915
  917MOL0     C23704  -0.698   5.550   1.105  0.1304  0.6947 -0.3874
  917MOL0    Cl23705  -0.868   5.580   1.045  1.0449 -0.1079  0.3414
  917MOL0     C23706   0.120   6.356   0.978 -0.2410  0.5772 -0.4451
  917MOL0     C23707   0.268   6.352   0.994 -0.0044 -1.3149  0.0320
  917MOL0     O23708   0.511   6.142   0.870  0.9215 -0.1891 -0.2892
  917MOL0     C23709   0.784   6.225   0.891 -0.3363 -0.4771 -0.6595
  917MOL0     C23710   0.928   6.242   0.916  0.3959 -0.9015  0.6005
  917MOL0     N23711   1.531   6.545   0.955  0.1853 -0.9732 -1.0907
  917MOL0     N23712   1.642   6.599   1.007  0.1375 -0.0919 -0.0464
  917MOL0     C23713   2.471   5.985   1.643  0.7930  0.1862  0.8025
  917MOL0     C23714   2.600   5.934   1.614 -0.0163  0.2000 -0.3344
  917MOL0     C23715   2.933   5.607   1.539 -0.1847 -0.8226 -0.1832
  917MOL0     C23716   2.995   5.662   1.431 -0.7080 -0.5810  0.3090
  917MOL0     C23717   3.112   5.617   1.372  1.1910 -0.1709  0.5114
  917MOL0     C23718   3.177   5.512   1.429  0.0818 -0.5177  0.8991
  917MOL0     O23719   3.284   5.451   1.378 -0.2080  0.5972  0.0926
  917MOL0     C23720   3.328   5.499   1.246 -0.6299 -0.7726 -0.1592
  917MOL0     C23721   3.464   5.451   1.215  1.0930  0.0869 -0.5739
  917MOL0     C23722   3.578   5.536   1.275 -0.2434 -0.5628  0.7018
  917MOL0     C23723   3.715   5.473   1.284  0.4244 -0.2463 -0.6240
  917MOL0     C23724   3.775   5.429   1.152  0.0186  0.2945  0.4053
  917MOL0     C23725   3.846   5.383   1.063 -0.9137 -0.1529 -0.3270
  917MOL0     C23726   3.113   5.448   1.535 -0.0311 -0.8321 -0.0251
  917MOL0     C23727   2.990   5.497   1.589 -0.8059  0.0321  0.2111
  917MOL0     H23728   2.524   5.611   1.561  0.1630  0.2557  0.2044
  917MOL0     H23729   2.292   5.698   1.617  0.6866  0.5788  0.1674
  917MOL0     H23730   2.090   6.008   1.780  0.7552 -3.2528 -1.7274
  917MOL0     H23731   2.242   6.030   1.859  0.5796  2.8231  0.6579
  917MOL0     H23732   2.175   6.250   1.764 -2.1522 -2.1855  1.2046
  917MOL0     H23733   2.293   6.188   1.641 -0.0487 -2.1999 -1.6784
  917MOL0     H23734   2.095   6.090   1.507  0.9317  0.8618 -0.3212
  917MOL0     H23735   1.994   6.148   1.638  0.5286 -2.9572 -0.2368
  917MOL0     H23736   2.025   6.396   1.552  0.4048  0.6389  1.7369
  917MOL0     H23737   2.163   6.325   1.471  0.7371 -2.7171  0.7279
  917MOL0     H23738   1.992   6.201   1.318 -1.4901  0.1223  0.6952
  917MOL0     H23739   1.863   6.276   1.424 -1.0341  0.5111 -0.9585
  917MOL0     H23740   1.936   6.489   1.358 -2.3102  1.0739 -0.7816
  917MOL0     H23741   2.058   6.427   1.248 -0.8347  0.9717  0.3561
  917MOL0     H23742   1.880   6.305   1.126  2.9475  2.1789  0.0078
  917MOL0     H23743   1.763   6.382   1.229 -0.3104  1.5801 -1.6402
  917MOL0     H23744   1.953   6.516   1.029 -0.0387 -3.0905 -0.4712
  917MOL0     H23745   1.862   6.608   1.148  0.7414 -0.1020  0.5605
  917MOL0     H23746   1.744   6.301   0.908  0.9826  0.1512  1.0827
  917MOL0     H23747   1.392   6.345   0.808 -0.6298 -0.4529  1.1780
  917MOL0     H23748   1.530   6.265   0.767 -3.9655  0.4815 -2.5846
  917MOL0     H23749   1.541   6.168   1.005 -0.4948 -0.5269 -0.5258
  917MOL0     H23750   1.414   6.110   0.903 -2.6019 -0.2034  0.6512
  917MOL0     H23751   1.366   6.328   1.107  0.2525  1.6225 -2.2451
  917MOL0     H23752   1.330   6.149   1.114 -0.6649 -1.0389 -2.5738
  917MOL0     H23753   1.185   6.187   0.910  0.2739 -0.7923  0.5566
  917MOL0     H23754   1.215   6.357   0.949  2.4883  0.7388  1.8344
  917MOL0     H23755   0.913   6.199   1.253  1.0373  0.2675 -0.0091
  917MOL0     H23756   0.708   6.110   1.334 -1.4355 -1.0056  0.1191
  917MOL0     H23757   0.626   6.247   1.281  3.7889  0.1332  5.6147
  917MOL0     H23758   0.581   6.082   1.213  1.1374 -2.4803  1.4217
  917MOL0     H23759   0.308   6.057   1.151  0.6247  1.4906  0.0069
  917MOL0     H23760   0.061   6.051   1.117 -2.1885 -0.9592 -3.1115
  917MOL0     H23761  -0.181   6.099   1.005 -0.3531 -1.9971  2.0296
  917MOL0     H23762  -0.136   6.119   1.187  2.0482  1.8417  0.2270
  917MOL0     H23763  -0.292   6.303   1.190  1.3049  1.0378 -2.2302
  917MOL0     H23764  -0.346   6.262   1.027  2.1735 -0.7225 -1.2730
  917MOL0     H23765  -0.495   6.177   1.227 -0.0746  0.5214 -1.3782
  917MOL0     H23766  -0.351   6.080   1.269  2.2388  1.6755 -0.5299
  917MOL0     H23767  -0.512   6.050   1.013 -2.0772 -2.8900  0.2859
  917MOL0     H23768  -0.374   5.952   1.036 -2.1940 -1.6922 -2.6992
  917MOL0     H23769  -0.635   5.948   1.185 -0.7521 -1.5353 -0.5135
  917MOL0     H23770  -0.481   5.894   1.268 -0.3701  2.9276  1.5230
  917MOL0     H23771  -0.641   5.803   1.018  1.1337  2.2575 -0.4657
  917MOL0     H23772  -0.470   5.744   1.072 -0.0270 -0.0310 -0.8206
  917MOL0     H23773  -0.718   5.726   1.230 -0.7734 -1.5264  1.7042
  917MOL0     H23774  -0.572   5.646   1.258  1.4077  0.8996 -0.1541
  917MOL0     H23775  -0.699   5.463   1.172 -0.8510  2.2446  1.7329
  917MOL0     H23776  -0.632   5.532   1.020  1.7082 -0.8187  1.0696
  917MOL0     H23777   0.065   6.434   0.927 -4.3899 -2.1078 -0.5632
  917MOL0     H23778   0.322   6.439   0.958 -0.0048 -0.5875  1.6890
  917MOL0     H23779   0.750   6.247   0.790 -0.6745  0.9116 -0.2662
  917MOL0     H23780   0.996   6.263   0.835 -0.7091  0.7715  0.0419
  917MOL0     H23781   2.462   6.087   1.677 -1.0813  0.2536  0.2288
  917MOL0     H23782   2.685   5.994   1.646 -1.5608  0.0511  5.1790
  917MOL0     H23783   2.964   5.752   1.380 -1.7098 -0.4922  1.0545
  917MOL0     H23784   3.151   5.672   1.288 -1.1751  3.6868  1.7048
  917MOL0     H23785   3.261   5.459   1.170 -0.5298 -1.5307  0.1330
  917MOL0     H23786   3.326   5.607   1.229 -0.2100 -0.9120 -1.1186
  917MOL0     H23787   3.465   5.447   1.106  0.3342  0.6040 -0.6048
  917MOL0     H23788   3.484   5.352   1.258  0.2263  0.0922 -0.1403
  917MOL0     H23789   3.544   5.573   1.372 -0.7759 -0.5266  0.5022
  917MOL0     H23790   3.585   5.621   1.207  1.2229  0.1926  1.7377
  917MOL0     H23791   3.716   5.394   1.359 -0.4356 -2.3217 -2.6691
  917MOL0     H23792   3.771   5.552   1.336 -2.2971 -0.4244  2.8863
  917MOL0     H23793   3.921   5.352   0.993 -0.4541 -0.7320  0.4182
  917MOL0     H23794   3.175   5.376   1.587  2.1792  0.8464 -0.2174
  917MOL0     H23795   2.961   5.459   1.687  0.7536  0.4057  0.8513
  918MOL0     O23796   9.890   9.081   8.621  0.9455  0.1017  0.1537
  918MOL0     C23797   9.910   9.129   8.505 -0.3128  0.4421 -0.1756
  918MOL0     O23798   9.813   9.184   8.420 -1.1087 -0.0758  0.1100
  918MOL0     C23799   9.679   9.182   8.454 -0.1937  0.3878 -0.1719
  918MOL0     C23800   9.605   9.300   8.453 -0.2015  0.1887  0.9248
  918MOL0     C23801   9.458   9.302   8.463 -0.3374  0.3335  0.4195
  918MOL0     C23802   9.391   9.178   8.479  0.1223  0.2614  0.5841
  918MOL0     O23803   9.258   9.160   8.509 -0.4048 -0.5188  0.1396
  918MOL0     C23804   9.187   9.272   8.563  0.7849 -1.0789  0.4462
  918MOL0     C23805   9.111   9.339   8.452  0.7254 -0.2381 -0.0666
  918MOL0     C23806   8.998   9.245   8.401  1.1274  0.3081 -0.1177
  918MOL0     C23807   8.914   9.332   8.302 -0.3950 -0.4504  0.5680
  918MOL0     C23808   8.806   9.246   8.229  0.5031  0.4679  0.3461
  918MOL0     C23809   8.702   9.334   8.157  0.4796  0.1641  0.6794
  918MOL0     C23810   8.596   9.237   8.109 -0.8213 -0.8129 -0.6864
  918MOL0     C23811   8.496   9.300   8.011 -0.6127 -0.9888  0.0328
  918MOL0     N23812   8.395   9.383   8.078  0.3656  0.4280 -0.8956
  918MOL0     C23813   8.268   9.350   8.106 -0.3494 -0.4815  0.2366
  918MOL0     C23814   8.225   9.461   8.165 -0.2507  1.0398  0.8161
  918MOL0     C23815   8.086   9.468   8.219 -0.3915  0.3812  0.5233
  918MOL0     C23816   8.003   9.574   8.157 -0.2168  0.8420  0.3464
  918MOL0     C23817   8.066   9.716   8.165  0.6095  1.1454  0.5884
  918MOL0     C23818   7.965   9.818   8.117  0.9080 -0.3034  0.1938
  918MOL0     O23819   7.832   9.810   8.180  0.2073 -0.1518  0.7178
  918MOL0     C23820   7.804   9.856   8.304 -0.0382 -0.4616  0.3798
  918MOL0     C23821   7.834   9.980   8.355 -0.0938 -0.3355  0.7119
  918MOL0     C23822   7.783  10.032   8.477  0.0278 -0.1692 -0.6966
  918MOL0     C23823   7.834  10.173   8.516 -0.2683 -0.3055  0.3592
  918MOL0     C23824   7.710   9.944   8.563 -0.5236 -0.0561  0.2904
  918MOL0     C23825   7.654   9.978   8.698  1.1805  0.6459 -1.2445
  918MOL0     O23826   7.691  10.092   8.766 -0.2366 -0.3104 -0.7887
  918MOL0     C23827   7.638  10.132   8.890  0.1547  0.4770  1.2286
  918MOL0     C23828   7.717  10.145   9.003  0.0980 -0.7529 -0.2216
  918MOL0     C23829   7.655  10.167   9.117 -0.3449 -0.3676  0.1526
  918MOL0     C23830   7.514  10.175   9.138  0.0641 -0.0098 -0.5944
  918MOL0     O23831   7.483  10.206   9.265 -0.1284  0.1766  0.7326
  918MOL0     C23832   7.343  10.234   9.279  0.2696 -0.1311  0.1991
  918MOL0     C23833   7.324  10.279   9.423 -1.1767 -0.0074 -1.0214
  918MOL0     C23834   7.197  10.370   9.430  0.0543 -0.7114 -0.7092
  918MOL0     C23835   7.064  10.305   9.394 -0.2788  0.4058 -0.1949
  918MOL0     C23836   6.957  10.407   9.370  0.2972 -0.0644  0.7191
  918MOL0     C23837   6.926  10.495   9.492  0.0285  0.4292 -0.0149
  918MOL0     C23838   6.807  10.598   9.470 -0.0312  1.2378 -0.1262
  918MOL0     C23839   6.668  10.533   9.484 -0.1841 -0.5315  0.0243
  918MOL0    Cl23840   6.563  10.648   9.390 -0.4854  0.4368  0.5885
  918MOL0     C23841   7.434  10.176   9.022 -0.2724 -0.6843 -0.1100
  918MOL0     C23842   7.496  10.155   8.900 -0.2972  0.9516 -0.4978
  918MOL0     O23843   7.561   9.904   8.743 -0.9619  0.4958  0.1161
  918MOL0     C23844   7.682   9.811   8.512  0.5573 -0.1969  0.1027
  918MOL0     C23845   7.729   9.774   8.376  0.7360 -0.6513 -0.2655
  918MOL0     N23846   8.326   9.559   8.174  0.2653 -0.0881 -0.4393
  918MOL0     N23847   8.429   9.507   8.126 -0.6324  0.2389  0.1457
  918MOL0     C23848   9.471   9.061   8.476  0.7181 -0.2082  0.2882
  918MOL0     C23849   9.615   9.064   8.470 -0.2514 -0.3836  0.2608
  918MOL0     C23850  10.049   9.147   8.478  0.0018  0.2705 -0.5417
  918MOL0     C23851  10.084   9.209   8.357  0.0270 -0.0198 -0.1503
  918MOL0     C23852  10.215   9.237   8.326  1.0564  0.9328 -0.4760
  918MOL0     C23853  10.312   9.205   8.418 -0.2082  0.1434 -0.2993
  918MOL0     O23854  10.436   9.207   8.357  0.6008 -0.0926  0.2064
  918MOL0     C23855  10.525   9.104   8.403 -0.1699  0.1528 -0.8865
  918MOL0     C23856  10.656   9.110   8.319  0.4644 -0.0382 -0.1455
  918MOL0     C23857  10.678   9.251   8.265  0.3627 -0.5739  1.1923
  918MOL0     C23858  10.792   9.264   8.171 -0.2991 -0.2425  0.6731
  918MOL0     C23859  10.924   9.234   8.233 -0.8134 -0.3707 -0.3822
  918MOL0     C23860  11.030   9.191   8.275  0.3711 -0.6732 -0.2150
  918MOL0     C23861  10.286   9.148   8.542  0.2160 -0.2262 -0.9252
  918MOL0     C23862  10.150   9.123   8.574 -0.1034  0.1710 -0.0958
  918MOL0     H23863   9.649   9.396   8.425 -0.6716  0.2916  0.5199
  918MOL0     H23864   9.409   9.398   8.458 -1.2788 -0.1950 -2.3381
  918MOL0     H23865   9.113   9.243   8.639  2.2172  0.9500  2.7620
  918MOL0     H23866   9.245   9.346   8.619 -3.2383  1.0360  2.1852
  918MOL0     H23867   9.067   9.433   8.486  1.6307  0.6584 -1.2803
  918MOL0     H23868   9.166   9.366   8.361 -1.0913  2.1805 -0.5488
  918MOL0     H23869   9.042   9.154   8.360  4.3011  1.1786  1.0761
  918MOL0     H23870   8.929   9.220   8.482  1.1385  1.5396  0.2880
  918MOL0     H23871   8.865   9.406   8.366 -1.1966  0.2039 -0.7591
  918MOL0     H23872   8.975   9.384   8.228  0.5281 -0.7778  1.0833
  918MOL0     H23873   8.852   9.175   8.160  1.9384  0.1933  1.5164
  918MOL0     H23874   8.756   9.187   8.306  0.5323 -0.8025 -0.5672
  918MOL0     H23875   8.663   9.413   8.223 -0.8685  0.3038 -0.2332
  918MOL0     H23876   8.736   9.377   8.063 -1.7016  0.3019 -0.1091
  918MOL0     H23877   8.652   9.159   8.056 -2.0563  0.2403 -3.8082
  918MOL0     H23878   8.546   9.182   8.189 -0.0834 -1.0486 -0.3834
  918MOL0     H23879   8.459   9.210   7.962  0.0999 -3.4488  3.6126
  918MOL0     H23880   8.551   9.364   7.940  1.6846 -0.4690  2.1406
  918MOL0     H23881   8.200   9.270   8.076  2.9067 -2.7308 -1.7145
  918MOL0     H23882   8.040   9.370   8.205  1.9130 -1.3547  3.7491
  918MOL0     H23883   8.100   9.494   8.325  1.4270  0.5304  0.2682
  918MOL0     H23884   7.914   9.577   8.219 -0.5505 -1.3776  0.0389
  918MOL0     H23885   7.979   9.545   8.054 -1.9431 -1.2771  1.2784
  918MOL0     H23886   8.157   9.713   8.106  0.5389 -4.6436  0.2668
  918MOL0     H23887   8.090   9.749   8.267 -2.2254 -1.5758  2.3251
  918MOL0     H23888   7.960   9.791   8.011  2.1273  0.0065  0.0448
  918MOL0     H23889   8.007   9.919   8.121 -1.9128  0.9469  1.1225
  918MOL0     H23890   7.887  10.055   8.297  0.0684  0.0220  1.3031
  918MOL0     H23891   7.823  10.229   8.423 -1.6444 -0.5784  0.3317
  918MOL0     H23892   7.775  10.216   8.597  1.3505  0.3440  1.2229
  918MOL0     H23893   7.938  10.164   8.547 -0.9734 -1.2832  2.6207
  918MOL0     H23894   7.825  10.141   9.014 -0.1705 -1.1621  3.5530
  918MOL0     H23895   7.719  10.170   9.205  1.5208 -3.7945 -0.8979
  918MOL0     H23896   7.316  10.326   9.226 -1.8283 -1.2853 -0.8806
  918MOL0     H23897   7.279  10.149   9.252  1.7996 -1.9084  1.8714
  918MOL0     H23898   7.317  10.199   9.498 -0.3452 -0.4637 -1.4214
  918MOL0     H23899   7.405  10.347   9.450 -2.0847  0.3939  0.8528
  918MOL0     H23900   7.209  10.455   9.362  1.8057  1.5744  2.1910
  918MOL0     H23901   7.185  10.407   9.532  0.7630 -4.3282  0.8461
  918MOL0     H23902   7.082  10.242   9.307 -0.6626 -1.5720  1.0987
  918MOL0     H23903   7.033  10.240   9.476  1.6633  1.2149  1.2589
  918MOL0     H23904   6.869  10.350   9.339  1.5792 -1.7435  0.0170
  918MOL0     H23905   6.993  10.473   9.291 -1.0273 -0.6975 -0.4583
  918MOL0     H23906   6.899  10.433   9.577  0.9399  0.5155  0.3538
  918MOL0     H23907   7.013  10.555   9.520 -0.1785  0.7602 -0.0782
  918MOL0     H23908   6.813  10.644   9.371 -2.0823 -1.4809 -1.6380
  918MOL0     H23909   6.825  10.680   9.540  0.6465 -0.4146  1.7092
  918MOL0     H23910   6.638  10.534   9.589 -0.5895  2.9757  0.0050
  918MOL0     H23911   6.672  10.434   9.438 -1.7202 -0.0140 -1.3315
  918MOL0     H23912   7.325  10.174   9.022 -0.2957 -3.5447 -0.8947
  918MOL0     H23913   7.426  10.160   8.818 -1.4089 -0.5215  0.2964
  918MOL0     H23914   7.621   9.748   8.575  3.2892 -2.5380  0.5953
  918MOL0     H23915   7.699   9.678   8.334 -1.2633 -0.7475  1.2409
  918MOL0     H23916   9.423   8.964   8.475  2.3670 -1.0803 -1.4707
  918MOL0     H23917   9.676   8.975   8.465  1.1631  0.5501  0.2778
  918MOL0     H23918   9.999   9.219   8.290  2.9535  1.0381 -4.0843
  918MOL0     H23919  10.224   9.271   8.223 -1.0480 -0.6967 -1.2685
  918MOL0     H23920  10.547   9.106   8.510 -0.5397  1.5990 -0.8168
  918MOL0     H23921  10.466   9.015   8.379 -0.4883  0.6813 -2.1575
  918MOL0     H23922  10.654   9.032   8.243  0.8552 -0.1748 -0.0207
  918MOL0     H23923  10.735   9.074   8.385  0.1756 -1.5518 -0.6045
  918MOL0     H23924  10.678   9.330   8.341  3.1953 -0.8599  1.6215
  918MOL0     H23925  10.590   9.273   8.204  0.3998  2.9485  2.1631
  918MOL0     H23926  10.794   9.362   8.121  1.8696 -0.3265  0.4970
  918MOL0     H23927  10.774   9.198   8.086 -0.6222 -2.3062  2.2627
  918MOL0     H23928  11.124   9.160   8.317 -0.5209  0.5087  2.9170
  918MOL0     H23929  10.355   9.113   8.618 -2.7449 -0.3521  1.9291
  918MOL0     H23930  10.136   9.081   8.673 -0.3359 -0.4851 -0.4058
  919MOL0     O23931   4.584   7.088  10.761  0.0554  0.1406 -0.2419
  919MOL0     C23932   4.613   6.971  10.773 -0.2600  0.2029  0.1972
  919MOL0     O23933   4.529   6.860  10.788 -0.5996 -0.1094 -0.0154
  919MOL0     C23934   4.390   6.862  10.806 -0.7463  0.0980 -1.1606
  919MOL0     C23935   4.320   6.746  10.774  0.4333 -0.4244  0.3085
  919MOL0     C23936   4.182   6.730  10.809  1.0690  0.4609 -0.7181
  919MOL0     C23937   4.109   6.830  10.877 -0.3717 -0.1236  0.1475
  919MOL0     O23938   3.983   6.808  10.899  0.2286 -0.4131 -0.1218
  919MOL0     C23939   3.909   6.894  10.989 -0.0008  0.0545 -0.7556
  919MOL0     C23940   3.782   6.817  11.036 -1.0465  0.4540  0.4444
  919MOL0     C23941   3.827   6.689  11.114  0.4647 -0.3193  0.0086
  919MOL0     C23942   3.908   6.712  11.236  0.0242 -1.2346  0.8484
  919MOL0     C23943   3.918   6.593  11.330 -0.2867  0.0210  0.1772
  919MOL0     C23944   3.981   6.626  11.463  0.6703 -0.3915  0.1781
  919MOL0     C23945   3.993   6.500  11.553  0.1072 -0.4447 -0.3403
  919MOL0     C23946   4.087   6.526  11.669  0.3546  0.7554 -0.0836
  919MOL0     N23947   4.226   6.541  11.627 -0.2531  0.2733  0.5857
  919MOL0     C23948   4.319   6.447  11.581  1.4171  0.6902  0.4657
  919MOL0     C23949   4.443   6.502  11.590  0.1518  0.0772  0.0069
  919MOL0     C23950   4.570   6.434  11.552  0.4329  0.1048 -0.3206
  919MOL0     C23951   4.640   6.374  11.672  0.1349  0.1560  0.1133
  919MOL0     C23952   4.792   6.343  11.636  0.1375  0.3107 -0.0213
  919MOL0     C23953   4.892   6.467  11.642  0.9479  0.5958  0.1160
  919MOL0     O23954   4.915   6.491  11.781  0.2788  0.0890 -0.2734
  919MOL0     C23955   5.036   6.535  11.823  0.3457 -0.0848 -0.0033
  919MOL0     C23956   5.059   6.537  11.960  0.6862  0.6174  0.0895
  919MOL0     C23957   5.184   6.555  12.019  0.3165  0.2029 -0.6003
  919MOL0     C23958   5.180   6.552  12.170  0.2179 -0.5342  0.2295
  919MOL0     C23959   5.290   6.582  11.937 -0.5335  0.1229 -0.3835
  919MOL0     C23960   5.414   6.613  12.000  0.7186  0.7396  0.6342
  919MOL0     O23961   5.423   6.733  12.064  0.3048  0.3988  0.4358
  919MOL0     C23962   5.535   6.788  12.127 -0.1434  0.7068  0.0421
  919MOL0     C23963   5.512   6.900  12.213 -0.4818  0.3046 -0.0625
  919MOL0     C23964   5.623   6.956  12.283 -1.1537 -0.3778  0.2623
  919MOL0     C23965   5.759   6.914  12.265  0.7037 -0.7799  0.7004
  919MOL0     O23966   5.852   6.991  12.325  0.7827  0.5509  0.8148
  919MOL0     C23967   5.988   6.936  12.309  0.1484  0.1395 -0.4782
  919MOL0     C23968   6.077   7.027  12.400  0.1987 -0.8258 -0.1467
  919MOL0     C23969   6.225   6.982  12.410 -0.2180  0.5930  0.3538
  919MOL0     C23970   6.244   6.886  12.538 -0.2543 -0.1500 -0.0371
  919MOL0     C23971   6.389   6.826  12.544  0.5505 -0.6005 -0.4444
  919MOL0     C23972   6.415   6.732  12.672 -0.4017 -0.9264  0.9307
  919MOL0     C23973   6.560   6.674  12.684  1.1852 -0.3699  0.6327
  919MOL0     C23974   6.565   6.530  12.639  0.3393 -0.2775 -0.6849
  919MOL0    Cl23975   6.489   6.434  12.759 -0.5979  0.3509 -0.4256
  919MOL0     C23976   5.778   6.809  12.176  0.4477  0.5709  0.4845
  919MOL0     C23977   5.669   6.744  12.119 -0.1560  0.1866 -0.1572
  919MOL0     O23978   5.505   6.544  11.967 -0.5768 -0.5180  0.0571
  919MOL0     C23979   5.269   6.589  11.795  0.2413 -0.3956 -0.3414
  919MOL0     C23980   5.147   6.564  11.741 -0.4719 -0.2782  0.0681
  919MOL0     N23981   4.426   6.627  11.648 -0.2761  0.2875  0.0406
  919MOL0     N23982   4.300   6.647  11.664  0.6326 -0.3200 -0.2551
  919MOL0     C23983   4.177   6.947  10.894  0.8230 -1.0069  0.1034
  919MOL0     C23984   4.310   6.965  10.864 -0.6218  0.6851  0.1081
  919MOL0     C23985   4.756   6.939  10.750 -0.3190 -0.0330  0.1849
  919MOL0     C23986   4.861   7.027  10.748 -1.0235  0.7893 -0.0141
  919MOL0     C23987   4.991   6.982  10.731 -0.5927  0.3141  0.7335
  919MOL0     C23988   5.015   6.848  10.716 -0.7236 -0.4056  0.3933
  919MOL0     O23989   5.145   6.790  10.716  0.2294  0.2859 -0.5093
  919MOL0     C23990   5.266   6.863  10.712  0.8484 -0.0934  0.2367
  919MOL0     C23991   5.302   6.906  10.569 -0.2961 -0.3104 -0.7217
  919MOL0     C23992   5.404   7.021  10.558  0.1369  0.8167  0.5765
  919MOL0     C23993   5.411   7.056  10.412 -0.3948  0.1388  0.5180
  919MOL0     C23994   5.314   7.154  10.354  0.1722 -0.5978 -0.6185
  919MOL0     C23995   5.238   7.236  10.310  0.1543  0.1023 -0.1836
  919MOL0     C23996   4.914   6.760  10.712  0.2647  0.2226  0.0254
  919MOL0     C23997   4.782   6.805  10.729 -0.3347  0.0485 -0.7269
  919MOL0     H23998   4.382   6.679  10.716  2.4120  1.3399  0.2587
  919MOL0     H23999   4.128   6.638  10.788  2.3985 -0.6459  0.5294
  919MOL0     H24000   3.970   6.922  11.076 -0.6944  1.5515 -0.7153
  919MOL0     H24001   3.878   6.989  10.946  0.7778  1.6050  1.8578
  919MOL0     H24002   3.721   6.876  11.105 -1.5558  0.1058  0.2980
  919MOL0     H24003   3.718   6.780  10.956 -1.4869 -3.5759  2.4518
  919MOL0     H24004   3.744   6.625  11.145  0.6179 -0.8726 -0.6926
  919MOL0     H24005   3.881   6.619  11.050 -0.8578 -1.8802  0.5236
  919MOL0     H24006   4.003   6.751  11.198 -2.7181  2.6069 -3.0690
  919MOL0     H24007   3.862   6.793  11.293  1.8097 -0.0386  0.6583
  919MOL0     H24008   3.824   6.537  11.342 -0.9697  1.1142  0.0287
  919MOL0     H24009   3.981   6.521  11.278  0.2886 -0.5612  1.6254
  919MOL0     H24010   4.084   6.660  11.455  1.3267 -2.5675 -1.7158
  919MOL0     H24011   3.924   6.708  11.508  1.1700 -0.2184  0.4985
  919MOL0     H24012   3.896   6.460  11.584 -0.5216  1.8491  0.8838
  919MOL0     H24013   4.045   6.430  11.487 -1.3682 -1.6948 -0.2339
  919MOL0     H24014   4.084   6.431  11.723  1.2301 -1.3336 -3.3839
  919MOL0     H24015   4.050   6.604  11.735  0.4522 -0.3197  1.2777
  919MOL0     H24016   4.308   6.351  11.533  0.1008  0.7833  0.5521
  919MOL0     H24017   4.546   6.357  11.478  0.8541 -1.6542  1.2839
  919MOL0     H24018   4.626   6.521  11.516  0.7929 -0.5557 -1.4244
  919MOL0     H24019   4.586   6.284  11.703  1.4730 -0.6242  0.2536
  919MOL0     H24020   4.633   6.444  11.756  0.6260  0.8283 -0.3875
  919MOL0     H24021   4.799   6.297  11.536 -1.1138 -0.4440  0.2201
  919MOL0     H24022   4.823   6.257  11.696 -1.0344  0.1928  0.4367
  919MOL0     H24023   4.852   6.556  11.593 -0.1501 -1.2637 -2.5909
  919MOL0     H24024   4.977   6.430  11.584  0.0415  0.6941 -1.3415
  919MOL0     H24025   4.969   6.520  12.018  0.7920 -0.2619  0.0136
  919MOL0     H24026   5.093   6.513  12.225  0.3941  0.9220  1.6245
  919MOL0     H24027   5.263   6.484  12.193  0.0260 -0.9003 -0.1392
  919MOL0     H24028   5.196   6.652  12.209  0.8195 -0.9682  1.1377
  919MOL0     H24029   5.409   6.932  12.229  0.1997  2.6688 -0.0617
  919MOL0     H24030   5.599   7.034  12.354  3.0174  1.1975  0.2329
  919MOL0     H24031   5.987   6.840  12.361 -0.6330  1.0599  1.3127
  919MOL0     H24032   6.023   6.941  12.206  2.2579  0.8239  0.2246
  919MOL0     H24033   6.083   7.126  12.355 -1.5679 -2.2370 -3.9593
  919MOL0     H24034   6.026   7.041  12.496 -0.0270  1.0824 -0.5201
  919MOL0     H24035   6.287   7.072  12.418  1.2732 -0.1977 -1.4871
  919MOL0     H24036   6.259   6.924  12.324  0.7590  1.5045  0.0959
  919MOL0     H24037   6.236   6.951  12.625 -1.6547  2.1916 -1.7899
  919MOL0     H24038   6.164   6.811  12.535 -0.7089  0.3553 -1.3016
  919MOL0     H24039   6.474   6.893  12.559  1.3840 -1.8296  0.5052
  919MOL0     H24040   6.403   6.760  12.457 -0.4506  0.6746 -1.6161
  919MOL0     H24041   6.391   6.786  12.764  0.6612  0.7508  0.2780
  919MOL0     H24042   6.345   6.650  12.658 -2.4559  0.9746 -0.5529
  919MOL0     H24043   6.584   6.664  12.790 -4.1006  1.8694  2.3893
  919MOL0     H24044   6.630   6.747  12.642 -2.0149  3.3789  1.2043
  919MOL0     H24045   6.672   6.507  12.629  1.0195  1.7252  1.1510
  919MOL0     H24046   6.514   6.513  12.544 -0.3828 -2.3274  0.0208
  919MOL0     H24047   5.878   6.774  12.150 -0.2564 -0.9306 -0.2993
  919MOL0     H24048   5.691   6.659  12.055 -1.3705 -2.8826  3.1637
  919MOL0     H24049   5.351   6.621  11.731 -1.0614  0.1401 -1.8408
  919MOL0     H24050   5.163   6.576  11.634  3.4019 -1.1629  0.4007
  919MOL0     H24051   4.125   7.033  10.936 -2.0044 -2.1308 -0.8257
  919MOL0     H24052   4.351   7.065  10.871 -0.7107  0.9445 -2.3274
  919MOL0     H24053   4.834   7.132  10.753  0.9961  1.3784 -0.3422
  919MOL0     H24054   5.065   7.061  10.744  1.7702 -1.5423 -0.5098
  919MOL0     H24055   5.257   6.958  10.765  0.4066  1.1284 -1.8967
  919MOL0     H24056   5.346   6.801  10.751  1.0566  0.5804  0.9117
  919MOL0     H24057   5.209   6.943  10.525 -1.0685  0.4787  1.4175
  919MOL0     H24058   5.334   6.819  10.512  1.0624 -0.4164  0.1592
  919MOL0     H24059   5.499   6.981  10.595  0.1309 -0.1731 -0.4402
  919MOL0     H24060   5.380   7.112  10.615  1.7190  0.7361  1.4182
  919MOL0     H24061   5.420   6.972  10.342 -0.6080  2.1051 -2.0541
  919MOL0     H24062   5.509   7.098  10.390  0.4716 -1.5228  1.0070
  919MOL0     H24063   5.161   7.301  10.274 -2.6025 -2.4496  0.7176
  919MOL0     H24064   4.938   6.655  10.703  1.7098  0.4073  1.2271
  919MOL0     H24065   4.709   6.725  10.736  0.5563 -0.7340 -0.2627
  920MOL0     O24066   4.784   8.835   7.939  0.1884  0.6834 -0.3517
  920MOL0     C24067   4.805   8.811   8.060 -0.3193  1.2427 -0.5532
  920MOL0     O24068   4.712   8.801   8.159  0.7025  0.5370 -0.0898
  920MOL0     C24069   4.588   8.813   8.120  0.1070  0.1636  0.4711
  920MOL0     C24070   4.510   8.701   8.099 -0.3466  0.1752  1.0759
  920MOL0     C24071   4.375   8.716   8.069  0.1819 -0.1585  0.8092
  920MOL0     C24072   4.314   8.834   8.052  0.0001 -0.4791  0.7727
  920MOL0     O24073   4.178   8.835   8.022 -0.1224  0.1148 -0.4097
  920MOL0     C24074   4.117   8.962   7.997  0.6935 -0.4613  0.2304
  920MOL0     C24075   3.975   8.934   7.949 -0.1720  0.1585 -0.2061
  920MOL0     C24076   3.893   8.916   8.079 -0.0588 -1.3656  0.0492
  920MOL0     C24077   3.745   8.891   8.048 -0.6764 -0.1413  0.0761
  920MOL0     C24078   3.658   8.840   8.160  0.8474  0.0810 -0.5324
  920MOL0     C24079   3.505   8.818   8.102 -0.1787  0.3004  0.1602
  920MOL0     C24080   3.410   8.784   8.216  1.0890  0.1988  0.1185
  920MOL0     C24081   3.268   8.767   8.160  0.0048 -0.1416 -0.4948
  920MOL0     N24082   3.174   8.767   8.274  0.4950 -0.0702 -0.1132
  920MOL0     C24083   3.089   8.669   8.307  0.3011  0.7043 -0.3249
  920MOL0     C24084   3.022   8.708   8.421  0.1199 -0.3881 -0.2149
  920MOL0     C24085   2.923   8.624   8.483 -0.3807 -0.4626  1.0687
  920MOL0     C24086   2.810   8.596   8.384 -0.3362  0.0702  0.0114
  920MOL0     C24087   2.716   8.504   8.450 -0.3977  0.0172  0.0763
  920MOL0     C24088   2.606   8.578   8.529 -0.3821  1.0973 -0.1384
  920MOL0     O24089   2.504   8.493   8.574  0.3597  0.1780 -0.2140
  920MOL0     C24090   2.387   8.559   8.601  0.3904  0.1936  0.0228
  920MOL0     C24091   2.387   8.690   8.667 -0.1369  0.4621  0.1356
  920MOL0     C24092   2.268   8.757   8.681 -0.6101 -0.7509 -0.2525
  920MOL0     C24093   2.281   8.892   8.759  0.7949  0.4263  0.4962
  920MOL0     C24094   2.140   8.699   8.660  0.5146 -0.8099  0.6409
  920MOL0     C24095   2.011   8.770   8.678  0.7293 -0.7313  0.8239
  920MOL0     O24096   1.908   8.691   8.647 -0.3472 -0.0829 -0.0857
  920MOL0     C24097   1.786   8.748   8.627  0.3936 -0.2117 -0.5578
  920MOL0     C24098   1.751   8.849   8.536 -0.8935 -0.0014 -0.0729
  920MOL0     C24099   1.626   8.898   8.504  0.0895  0.3502  0.6788
  920MOL0     C24100   1.518   8.860   8.587 -0.5792 -0.2970 -0.1011
  920MOL0     O24101   1.400   8.921   8.585  0.4652 -0.3160  0.2217
  920MOL0     C24102   1.342   8.983   8.469  0.0086  0.5401  0.4651
  920MOL0     C24103   1.188   8.962   8.465 -0.3706  0.6463  0.2034
  920MOL0     C24104   1.134   9.045   8.342 -0.4008 -0.0050  0.2777
  920MOL0     C24105   0.983   9.035   8.336 -0.6137 -0.2776  0.6795
  920MOL0     C24106   0.895   9.122   8.241  0.1749  0.4149 -0.2055
  920MOL0     C24107   0.967   9.102   8.106  0.2742  0.5906  0.3669
  920MOL0     C24108   0.895   9.164   7.992  0.3844 -0.4475  0.3085
  920MOL0     C24109   0.893   9.319   8.003 -0.5385  0.2022 -0.0824
  920MOL0    Cl24110   0.775   9.373   7.874 -0.1288  0.1677 -0.1527
  920MOL0     C24111   1.552   8.775   8.696  0.2914 -0.5658 -0.0360
  920MOL0     C24112   1.674   8.707   8.706 -0.2235 -0.6416  0.5430
  920MOL0     O24113   2.002   8.877   8.736  0.1193 -0.5335  0.1018
  920MOL0     C24114   2.142   8.568   8.609 -0.5556  0.3078 -0.1213
  920MOL0     C24115   2.264   8.500   8.583  0.8946 -0.2483  0.1954
  920MOL0     N24116   3.061   8.836   8.447 -0.7226 -0.1468 -0.8307
  920MOL0     N24117   3.152   8.871   8.365  0.4221  0.5058 -0.6901
  920MOL0     C24118   4.389   8.947   8.059 -1.0960 -0.4667  0.4994
  920MOL0     C24119   4.529   8.936   8.093 -0.4526 -0.0168  0.6168
  920MOL0     C24120   4.945   8.792   8.097 -1.2443 -0.8047 -0.1039
  920MOL0     C24121   5.049   8.773   7.993 -0.1817 -0.2812 -0.1235
  920MOL0     C24122   5.189   8.773   8.022  0.4705  0.8022  0.6282
  920MOL0     C24123   5.231   8.775   8.151 -0.4869  0.1018 -0.4191
  920MOL0     O24124   5.361   8.764   8.196  0.3162  0.1300  0.4022
  920MOL0     C24125   5.462   8.829   8.113  0.6042 -0.3628 -0.3471
  920MOL0     C24126   5.521   8.734   8.008  1.3742 -0.3418 -0.1850
  920MOL0     C24127   5.626   8.796   7.920 -0.0310 -0.9888 -0.1332
  920MOL0     C24128   5.667   8.704   7.801 -0.1699  0.1371 -0.0189
  920MOL0     C24129   5.778   8.758   7.719  0.3779  0.4256 -0.5127
  920MOL0     C24130   5.877   8.804   7.667  0.0976 -0.2187  0.1010
  920MOL0     C24131   5.138   8.784   8.250 -0.4552 -0.6361 -0.3201
  920MOL0     C24132   5.003   8.792   8.227  0.1515 -0.2752  1.1822
  920MOL0     H24133   4.540   8.598   8.115 -0.1674  0.2813  1.4293
  920MOL0     H24134   4.312   8.629   8.061 -0.1048  0.1102  0.0891
  920MOL0     H24135   4.133   9.023   8.087  2.1705  0.5260 -0.6732
  920MOL0     H24136   4.169   9.013   7.916  2.7895 -0.2130  1.6485
  920MOL0     H24137   3.935   9.012   7.883  1.7705 -1.0147 -2.9761
  920MOL0     H24138   3.982   8.850   7.880 -4.5642  0.0848 -0.8202
  920MOL0     H24139   3.937   8.826   8.123  0.8598 -0.8068  0.3046
  920MOL0     H24140   3.919   8.992   8.153  1.3968 -0.7973 -0.9929
  920MOL0     H24141   3.709   8.990   8.020  2.4703  0.7977 -1.1149
  920MOL0     H24142   3.733   8.822   7.964 -0.1278 -0.9764  0.6652
  920MOL0     H24143   3.692   8.740   8.187 -2.6801 -0.9247  0.8020
  920MOL0     H24144   3.644   8.908   8.245 -2.9881 -3.3903  2.0592
  920MOL0     H24145   3.481   8.904   8.039 -0.7617 -1.5111 -2.2337
  920MOL0     H24146   3.511   8.732   8.034 -0.0896 -1.2803  2.0666
  920MOL0     H24147   3.439   8.687   8.256  0.9499 -0.6469 -1.7077
  920MOL0     H24148   3.404   8.856   8.298 -0.6213  2.6962 -2.0393
  920MOL0     H24149   3.244   8.676   8.104 -1.6394 -0.0706  0.0521
  920MOL0     H24150   3.251   8.856   8.100 -0.3824  0.1643  0.0605
  920MOL0     H24151   3.077   8.579   8.247  2.1075 -0.0651  0.3849
  920MOL0     H24152   2.976   8.531   8.505 -0.8682 -1.1045 -0.3428
  920MOL0     H24153   2.883   8.676   8.570  1.2065  1.1159  0.8975
  920MOL0     H24154   2.838   8.554   8.287  1.2154 -1.3867  1.0568
  920MOL0     H24155   2.767   8.693   8.355  1.1188  1.2531  1.6225
  920MOL0     H24156   2.767   8.425   8.506  0.8366  1.2166  0.6955
  920MOL0     H24157   2.656   8.462   8.368 -2.2833  0.1386  1.3295
  920MOL0     H24158   2.557   8.651   8.463 -1.6102  0.1612 -0.2820
  920MOL0     H24159   2.642   8.628   8.619 -4.5325 -0.2321  2.4914
  920MOL0     H24160   2.479   8.738   8.696  1.3469 -1.5436 -0.9883
  920MOL0     H24161   2.388   8.909   8.769  1.8082 -4.2473  0.1680
  920MOL0     H24162   2.231   8.974   8.708 -1.7661 -0.5241  1.2753
  920MOL0     H24163   2.231   8.887   8.857  1.5969  0.2421  0.9054
  920MOL0     H24164   1.833   8.885   8.474 -0.9124  1.6845  0.8344
  920MOL0     H24165   1.605   8.972   8.427  2.0434 -1.1122 -1.4209
  920MOL0     H24166   1.366   9.090   8.473 -0.2039  0.6390 -0.7120
  920MOL0     H24167   1.378   8.943   8.374 -1.5414  1.0072 -0.3552
  920MOL0     H24168   1.161   8.857   8.456  0.9320  0.4284 -1.8853
  920MOL0     H24169   1.141   9.000   8.557 -0.7280 -0.8834  0.6773
  920MOL0     H24170   1.176   8.995   8.254  1.9766  0.0515  1.2835
  920MOL0     H24171   1.156   9.152   8.345  0.9475 -0.2568  0.2931
  920MOL0     H24172   0.956   8.930   8.347  1.3669 -1.0447 -1.1561
  920MOL0     H24173   0.942   9.058   8.435  0.6776  0.0779  1.1463
  920MOL0     H24174   0.901   9.225   8.276  2.9211  0.3278 -0.1556
  920MOL0     H24175   0.792   9.087   8.248  0.1052  0.5525 -0.5293
  920MOL0     H24176   1.068   9.143   8.113  0.8067 -0.6467  0.3518
  920MOL0     H24177   0.971   8.995   8.081 -0.4297  0.0419  2.4434
  920MOL0     H24178   0.786   9.149   7.997 -0.2807  2.9762 -0.7867
  920MOL0     H24179   0.930   9.133   7.893  0.7040  0.0046  0.2773
  920MOL0     H24180   0.990   9.366   7.983  0.1655 -0.7082  1.0888
  920MOL0     H24181   0.855   9.350   8.100 -2.6050  3.1772 -1.6849
  920MOL0     H24182   1.468   8.751   8.759  1.0593  0.0269  1.2569
  920MOL0     H24183   1.701   8.634   8.782 -1.9093 -1.0025  0.8274
  920MOL0     H24184   2.054   8.510   8.585 -0.7965  0.4257  0.4477
  920MOL0     H24185   2.249   8.397   8.553  0.5983  0.1909 -1.2738
  920MOL0     H24186   4.352   9.048   8.042 -0.7589 -0.7665 -2.5103
  920MOL0     H24187   4.572   9.035   8.089 -0.9639  0.1704 -0.8551
  920MOL0     H24188   5.023   8.776   7.888  1.1910 -0.5624 -0.4941
  920MOL0     H24189   5.250   8.761   7.933  0.5409  0.3820  0.7283
  920MOL0     H24190   5.415   8.916   8.066 -0.2055 -0.2068  0.7171
  920MOL0     H24191   5.547   8.872   8.167  0.1837  1.2398 -0.8866
  920MOL0     H24192   5.442   8.690   7.946  1.7795 -0.8488 -0.3440
  920MOL0     H24193   5.555   8.647   8.064 -0.2800  0.2649  1.8973
  920MOL0     H24194   5.717   8.810   7.978 -1.1146  1.3502  1.1204
  920MOL0     H24195   5.595   8.888   7.868  1.7087 -0.9981 -1.2926
  920MOL0     H24196   5.582   8.690   7.733 -0.4354  1.1761  0.0884
  920MOL0     H24197   5.704   8.608   7.839 -0.8966 -0.3486 -0.4923
  920MOL0     H24198   5.956   8.853   7.615 -1.4081  1.4083 -0.7731
  920MOL0     H24199   5.164   8.796   8.355 -0.1696  0.6323 -0.5204
  920MOL0     H24200   4.940   8.801   8.315  2.0367  0.4418  2.5066
  921MOL0     O24201   3.438   8.206  10.681  0.0716 -0.0720  1.1879
  921MOL0     C24202   3.480   8.182  10.795  0.5790 -0.0792  0.9040
  921MOL0     O24203   3.395   8.150  10.902  0.1369 -0.3134 -0.3406
  921MOL0     C24204   3.261   8.169  10.884 -0.1929 -0.7963 -0.3257
  921MOL0     C24205   3.175   8.062  10.873  0.0500 -0.4166  0.0473
  921MOL0     C24206   3.042   8.078  10.834  0.6948  0.2521 -0.2000
  921MOL0     C24207   2.982   8.207  10.829  0.0235 -0.3259  0.7429
  921MOL0     O24208   2.849   8.208  10.796  0.2342 -0.1344  0.4611
  921MOL0     C24209   2.789   8.331  10.742  0.0596  0.2389 -0.7781
  921MOL0     C24210   2.635   8.316  10.743  0.3532  0.0291  0.3140
  921MOL0     C24211   2.572   8.456  10.727  0.2584 -0.2756  0.0884
  921MOL0     C24212   2.424   8.437  10.715 -0.8086  0.1787  0.2480
  921MOL0     C24213   2.342   8.567  10.680  0.0718 -0.2696  0.5618
  921MOL0     C24214   2.199   8.517  10.657  0.0035  0.4526 -0.0384
  921MOL0     C24215   2.121   8.641  10.611 -0.7847  0.9568  0.4935
  921MOL0     C24216   1.979   8.600  10.564  0.0839 -0.8923 -0.4871
  921MOL0     N24217   1.890   8.722  10.568 -0.1318 -0.2061  0.7603
  921MOL0     C24218   1.817   8.776  10.675 -0.2546  0.1207  1.1380
  921MOL0     C24219   1.743   8.873  10.618  0.1267 -0.1948 -0.0343
  921MOL0     C24220   1.651   8.956  10.695 -0.5840  0.6673 -0.1784
  921MOL0     C24221   1.509   8.927  10.663  0.8774 -0.4764  0.0524
  921MOL0     C24222   1.407   9.021  10.736  0.7517 -0.1150 -0.5118
  921MOL0     C24223   1.266   8.988  10.700  1.1066 -0.2352  0.8578
  921MOL0     O24224   1.223   8.854  10.729  0.8769 -0.6182 -0.0636
  921MOL0     C24225   1.091   8.817  10.729  0.2575 -0.0928 -0.4319
  921MOL0     C24226   0.990   8.891  10.668  0.5205 -0.0562 -0.4099
  921MOL0     C24227   0.858   8.851  10.665  0.0295  0.1914  0.2229
  921MOL0     C24228   0.757   8.934  10.593  0.5529  1.0182  0.0827
  921MOL0     C24229   0.823   8.733  10.739 -0.6628  0.4275  0.0802
  921MOL0     C24230   0.687   8.686  10.766 -0.0453  0.0419 -0.4272
  921MOL0     O24231   0.667   8.546  10.753 -0.2504 -0.8114 -0.3398
  921MOL0     C24232   0.539   8.497  10.750 -1.1706  0.1727  1.1013
  921MOL0     C24233   0.440   8.545  10.664 -0.6748 -0.5186  0.2462
  921MOL0     C24234   0.304   8.499  10.665  0.2351 -0.8215 -0.2920
  921MOL0     C24235   0.266   8.394  10.751 -0.6438 -0.2973 -0.3871
  921MOL0     O24236   0.137   8.344  10.748 -0.3217 -0.0368  0.2350
  921MOL0     C24237   0.048   8.445  10.807 -0.1799 -0.4799 -0.3380
  921MOL0     C24238  -0.039   8.381  10.916 -0.1014 -0.3329  0.0797
  921MOL0     C24239  -0.167   8.310  10.860 -0.3581 -0.3527 -1.1714
  921MOL0     C24240  -0.291   8.408  10.857  0.5724 -0.0726 -0.1429
  921MOL0     C24241  -0.418   8.343  10.809 -0.5195  0.5842 -0.5502
  921MOL0     C24242  -0.510   8.267  10.907  0.3853 -0.0523  0.4658
  921MOL0     C24243  -0.602   8.163  10.831  0.5060 -0.1391  0.1670
  921MOL0     C24244  -0.698   8.240  10.752  0.9460 -0.2381  0.0325
  921MOL0    Cl24245  -0.832   8.141  10.675  0.5548 -0.4099 -0.4726
  921MOL0     C24246   0.368   8.336  10.831  0.1518 -0.3232  0.6446
  921MOL0     C24247   0.498   8.384  10.827  0.1594 -0.7155  0.4589
  921MOL0     O24248   0.606   8.764  10.790  0.1758 -0.4769  0.2368
  921MOL0     C24249   0.926   8.653  10.795  0.7294  0.2724  0.4718
  921MOL0     C24250   1.055   8.698  10.786 -0.1431 -0.2267 -0.6902
  921MOL0     N24251   1.764   8.877  10.481  0.8621  0.2360  0.0163
  921MOL0     N24252   1.847   8.778  10.451 -0.2903 -0.6026 -0.1244
  921MOL0     C24253   3.066   8.321  10.847  0.3521 -0.1553  0.2137
  921MOL0     C24254   3.203   8.303  10.877  0.5354 -0.3245  0.7233
  921MOL0     C24255   3.630   8.168  10.803  0.5671  0.8045  0.7047
  921MOL0     C24256   3.711   8.192  10.689 -0.1088 -0.4417 -0.1028
  921MOL0     C24257   3.852   8.194  10.714  0.1926  0.6746 -0.5040
  921MOL0     C24258   3.908   8.175  10.840  0.0808 -0.2395  0.4608
  921MOL0     O24259   4.044   8.172  10.862  0.4782 -0.4744 -0.2657
  921MOL0     C24260   4.088   8.285  10.941  0.2536  0.0759  0.1507
  921MOL0     C24261   4.238   8.311  10.937 -0.0532  0.1508 -0.5100
  921MOL0     C24262   4.284   8.326  10.795  0.8776  0.4844 -0.2622
  921MOL0     C24263   4.430   8.338  10.789 -0.1133 -0.5185 -0.0539
  921MOL0     C24264   4.458   8.477  10.844 -0.6300 -0.3615 -0.0440
  921MOL0     C24265   4.501   8.585  10.879 -0.1285 -0.1470  0.3719
  921MOL0     C24266   3.818   8.147  10.949  0.1660 -0.8702 -0.2561
  921MOL0     C24267   3.683   8.136  10.928  0.6987 -0.1859 -0.0461
  921MOL0     H24268   3.222   7.964  10.882  2.7963  0.9875  2.3531
  921MOL0     H24269   2.988   7.985  10.818 -1.2404  1.6226 -2.3220
  921MOL0     H24270   2.802   8.417  10.808  2.3397 -1.4614  1.1574
  921MOL0     H24271   2.829   8.363  10.645  0.3077  0.8982 -0.4673
  921MOL0     H24272   2.613   8.254  10.656  1.9673  1.0208 -0.8430
  921MOL0     H24273   2.591   8.272  10.833 -2.2077  0.3297 -0.6903
  921MOL0     H24274   2.594   8.519  10.814  3.1369  0.9215 -1.3693
  921MOL0     H24275   2.610   8.499  10.634  3.1955 -2.5516  0.0605
  921MOL0     H24276   2.402   8.369  10.633  0.2012  0.5521 -0.3472
  921MOL0     H24277   2.379   8.406  10.810 -4.0037  2.9768 -0.1432
  921MOL0     H24278   2.343   8.653  10.748 -0.5093 -0.0263  0.2759
  921MOL0     H24279   2.379   8.595  10.581  0.0199  0.5963  0.7749
  921MOL0     H24280   2.196   8.440  10.580  1.5094  1.1717 -0.8549
  921MOL0     H24281   2.150   8.475  10.746 -0.4706  1.8353  0.3808
  921MOL0     H24282   2.100   8.688  10.708  0.5707  1.2477  0.6615
  921MOL0     H24283   2.175   8.702  10.538 -0.5480  0.4647  0.2574
  921MOL0     H24284   1.944   8.523  10.633 -0.3868 -3.1751 -3.1171
  921MOL0     H24285   1.982   8.559  10.463 -0.3732 -2.4343  0.0946
  921MOL0     H24286   1.802   8.747  10.778 -3.1169  1.1583  1.0998
  921MOL0     H24287   1.663   8.957  10.803  0.7622  3.4752 -0.2838
  921MOL0     H24288   1.666   9.058  10.660  1.4025  0.0988 -1.1856
  921MOL0     H24289   1.495   8.821  10.687  1.3004  0.1488  3.5638
  921MOL0     H24290   1.496   8.950  10.557 -1.4802 -2.6653 -0.2222
  921MOL0     H24291   1.431   9.125  10.714  1.6812 -0.6346 -2.1651
  921MOL0     H24292   1.428   9.015  10.843  2.0991  1.4562 -0.6500
  921MOL0     H24293   1.241   9.006  10.595 -5.5829  0.1978  2.0474
  921MOL0     H24294   1.200   9.061  10.747 -0.2217 -0.9238  0.1368
  921MOL0     H24295   1.024   8.977  10.611  0.3127  0.3020 -0.0078
  921MOL0     H24296   0.806   9.010  10.531 -0.1441  1.1290 -0.3373
  921MOL0     H24297   0.690   8.877  10.528  1.5681  0.0173 -0.1171
  921MOL0     H24298   0.695   8.977  10.672  1.1697 -1.7773  2.2809
  921MOL0     H24299   0.472   8.613  10.586  3.1528  1.0422  2.8492
  921MOL0     H24300   0.233   8.554  10.605 -1.5309  0.8880  3.0518
  921MOL0     H24301   0.098   8.538  10.838 -0.6877 -0.2453 -0.2123
  921MOL0     H24302  -0.018   8.475  10.725  0.5739 -2.4912 -1.7553
  921MOL0     H24303   0.010   8.306  10.980  1.2602  1.3382  1.0762
  921MOL0     H24304  -0.072   8.460  10.984  0.4480 -0.9030  1.0409
  921MOL0     H24305  -0.191   8.224  10.923 -0.9916 -0.4559 -1.5478
  921MOL0     H24306  -0.146   8.257  10.766 -2.7476 -2.1485 -0.7955
  921MOL0     H24307  -0.307   8.449  10.957  1.0519 -1.2625  0.4347
  921MOL0     H24308  -0.261   8.484  10.784 -0.5033  0.1546 -0.3750
  921MOL0     H24309  -0.385   8.271  10.733 -2.2226  0.3920 -1.1538
  921MOL0     H24310  -0.474   8.427  10.768  0.4115  1.3474 -0.2838
  921MOL0     H24311  -0.440   8.225  10.980  2.6838  1.5963 -0.6177
  921MOL0     H24312  -0.577   8.333  10.963 -1.4774 -0.1684 -1.5100
  921MOL0     H24313  -0.660   8.099  10.898  0.9732  0.0632  0.7791
  921MOL0     H24314  -0.547   8.098  10.762 -0.2961 -0.0458 -0.5683
  921MOL0     H24315  -0.646   8.294  10.672  2.5700  1.3445  2.0506
  921MOL0     H24316  -0.741   8.320  10.813  0.9039  0.6211 -1.0920
  921MOL0     H24317   0.350   8.252  10.897  1.4166 -0.7710  0.4488
  921MOL0     H24318   0.572   8.326  10.882  2.2068 -1.0505 -2.4245
  921MOL0     H24319   0.906   8.564  10.854  2.0692 -1.0913 -1.0110
  921MOL0     H24320   1.134   8.639  10.831  0.7071 -0.0485 -1.9030
  921MOL0     H24321   3.024   8.421  10.845  2.2627  0.7915  2.6290
  921MOL0     H24322   3.267   8.380  10.919  4.0849 -2.3243 -0.5578
  921MOL0     H24323   3.668   8.209  10.590 -2.3066  0.5405  0.9617
  921MOL0     H24324   3.919   8.216  10.632 -2.3611  0.9850 -2.6217
  921MOL0     H24325   4.036   8.376  10.910  1.6881  1.2881  1.1637
  921MOL0     H24326   4.057   8.269  11.044 -1.8074  0.6347 -0.3457
  921MOL0     H24327   4.279   8.223  10.986  0.3904 -0.2195 -1.5190
  921MOL0     H24328   4.254   8.402  10.996 -2.9392  1.2103 -1.2049
  921MOL0     H24329   4.245   8.413  10.741  3.3066  0.0801 -2.8856
  921MOL0     H24330   4.256   8.237  10.739 -0.5727 -0.4702  1.8181
  921MOL0     H24331   4.464   8.319  10.687  0.2294  1.1810 -0.2731
  921MOL0     H24332   4.477   8.263  10.855 -0.7106 -0.7362  0.1316
  921MOL0     H24333   4.540   8.679  10.912  0.4221 -0.0297 -0.5749
  921MOL0     H24334   3.866   8.116  11.041  1.0785  2.3259  0.4672
  921MOL0     H24335   3.621   8.094  11.007  0.3802 -1.7734 -1.1017
  922MOL0     O24336   1.704   7.846   3.746  0.3234 -0.2918 -0.1512
  922MOL0     C24337   1.598   7.782   3.715 -0.2751 -0.2308 -0.0496
  922MOL0     O24338   1.578   7.724   3.596 -0.7952  0.3339 -0.5894
  922MOL0     C24339   1.690   7.708   3.525  0.1147  0.2601  0.5873
  922MOL0     C24340   1.805   7.642   3.561 -1.0756  0.7222  0.2726
  922MOL0     C24341   1.906   7.617   3.469  0.5215 -0.7462 -1.0298
  922MOL0     C24342   1.903   7.674   3.342 -0.4835  0.6110 -0.4247
  922MOL0     O24343   2.009   7.645   3.258 -0.2589  0.4173 -0.1316
  922MOL0     C24344   2.053   7.737   3.167 -0.5691  0.0786 -0.2127
  922MOL0     C24345   2.157   7.678   3.072  0.5471 -0.1264 -0.0729
  922MOL0     C24346   2.218   7.790   3.000 -0.4783 -0.6284  0.1157
  922MOL0     C24347   2.342   7.745   2.931  0.2743 -0.5778  0.0875
  922MOL0     C24348   2.403   7.853   2.839  0.9613  0.5202 -0.7731
  922MOL0     C24349   2.528   7.799   2.771  0.2762 -0.5271 -0.0140
  922MOL0     C24350   2.576   7.904   2.680  0.4722 -0.5724 -0.3172
  922MOL0     C24351   2.702   7.863   2.607 -0.2913  0.7165 -0.7451
  922MOL0     N24352   2.761   7.967   2.529 -0.3626  0.5950 -0.2038
  922MOL0     C24353   2.782   8.100   2.558  0.9266 -0.0848 -0.4664
  922MOL0     C24354   2.834   8.144   2.443 -0.1030 -0.2109 -1.0830
  922MOL0     C24355   2.882   8.280   2.411  0.6403 -0.2533  0.3076
  922MOL0     C24356   3.026   8.293   2.458 -0.6528  0.2065  0.2995
  922MOL0     C24357   3.058   8.444   2.460 -0.4648  0.1681 -0.1574
  922MOL0     C24358   3.208   8.468   2.478 -0.2704 -0.5899  0.3877
  922MOL0     O24359   3.260   8.406   2.597  0.0810  0.3616 -0.7290
  922MOL0     C24360   3.389   8.422   2.634  0.1574 -0.2421  0.9239
  922MOL0     C24361   3.442   8.337   2.728  0.6922 -0.7300 -0.0186
  922MOL0     C24362   3.577   8.333   2.762 -0.3903 -1.0278  0.8116
  922MOL0     C24363   3.616   8.236   2.875  0.1624 -0.3579  0.1906
  922MOL0     C24364   3.670   8.413   2.684 -0.4975 -0.2458 -0.8270
  922MOL0     C24365   3.819   8.410   2.707 -0.1403  0.7295  0.1773
  922MOL0     O24366   3.886   8.504   2.631  0.1648 -0.1390  0.6440
  922MOL0     C24367   4.020   8.537   2.661 -0.7000 -0.2563 -0.6990
  922MOL0     C24368   4.037   8.605   2.778 -0.7386 -0.8789 -0.4084
  922MOL0     C24369   4.168   8.642   2.812  0.1227 -0.6013  0.7843
  922MOL0     C24370   4.276   8.617   2.737  1.3609  0.0514  0.2063
  922MOL0     O24371   4.388   8.664   2.792 -0.3498  1.2742 -0.0695
  922MOL0     C24372   4.499   8.656   2.704  0.5345  0.1918 -0.4214
  922MOL0     C24373   4.635   8.700   2.765 -0.0660 -0.1756  0.7461
  922MOL0     C24374   4.756   8.670   2.665  0.2693 -0.9905  0.4076
  922MOL0     C24375   4.816   8.796   2.599  0.2654 -1.1402  0.8225
  922MOL0     C24376   4.957   8.778   2.548  0.1863  0.8102 -0.1620
  922MOL0     C24377   5.053   8.781   2.672  0.2060  0.1504  1.2141
  922MOL0     C24378   5.157   8.667   2.669  0.3026 -0.3050  0.2897
  922MOL0     C24379   5.288   8.684   2.583  0.1315 -0.4370  0.0280
  922MOL0    Cl24380   5.418   8.587   2.638 -0.6149  0.1812  0.2526
  922MOL0     C24381   4.252   8.560   2.608  0.0511  0.0351 -1.1261
  922MOL0     C24382   4.125   8.516   2.570 -1.1531  0.4639 -0.1053
  922MOL0     O24383   3.874   8.330   2.783  0.1980 -0.2917  0.1081
  922MOL0     C24384   3.617   8.502   2.592 -0.4920 -0.2606 -0.1192
  922MOL0     C24385   3.478   8.512   2.572 -0.1059 -0.9465 -0.2899
  922MOL0     N24386   2.838   8.047   2.349  0.3797  0.2298  0.5067
  922MOL0     N24387   2.796   7.937   2.391 -0.3411  0.0566 -0.5320
  922MOL0     C24388   1.790   7.746   3.310 -0.4499  0.1328  0.3267
  922MOL0     C24389   1.685   7.762   3.395 -0.9121 -0.5812  0.1616
  922MOL0     C24390   1.482   7.786   3.803  0.8876 -0.2287 -0.0174
  922MOL0     C24391   1.353   7.727   3.773  0.3158  0.0667 -0.7115
  922MOL0     C24392   1.250   7.743   3.875  0.6933  0.0265  0.3706
  922MOL0     C24393   1.265   7.802   3.999  0.5819  0.7136  0.1226
  922MOL0     O24394   1.150   7.828   4.072 -0.1047 -0.1023  0.0609
  922MOL0     C24395   1.161   7.885   4.210 -0.7083 -0.2211  0.3584
  922MOL0     C24396   1.193   7.763   4.297 -0.2954 -1.3643  0.4128
  922MOL0     C24397   1.224   7.799   4.446 -0.4640 -0.5591  0.6571
  922MOL0     C24398   1.304   7.702   4.522  0.0135  0.2241 -0.7064
  922MOL0     C24399   1.271   7.561   4.520  0.2859 -0.3312 -0.0998
  922MOL0     C24400   1.255   7.436   4.509 -0.6604 -0.4021  0.2901
  922MOL0     C24401   1.398   7.836   4.032  0.7163  0.6904 -0.6570
  922MOL0     C24402   1.501   7.833   3.939  1.0159 -0.0260 -0.1309
  922MOL0     H24403   1.812   7.585   3.652  4.7371  0.2395 -0.0982
  922MOL0     H24404   1.980   7.545   3.501 -0.4936 -0.6024  1.8565
  922MOL0     H24405   1.977   7.789   3.109 -0.3142  0.4970 -0.1785
  922MOL0     H24406   2.103   7.815   3.226  2.3442  0.8998 -3.4530
  922MOL0     H24407   2.224   7.612   3.127  0.5056 -1.0461 -1.0742
  922MOL0     H24408   2.111   7.627   2.986  1.2731  2.6234 -2.2485
  922MOL0     H24409   2.149   7.823   2.922 -0.3320  0.5921  0.4786
  922MOL0     H24410   2.236   7.878   3.062 -1.9691  0.8192 -1.4184
  922MOL0     H24411   2.420   7.732   3.007  0.8036  2.6992  0.2270
  922MOL0     H24412   2.334   7.652   2.874 -0.0640 -1.2605  1.2158
  922MOL0     H24413   2.326   7.873   2.764  1.9574  1.0885 -1.6932
  922MOL0     H24414   2.434   7.940   2.897 -0.2253  0.0058  0.6869
  922MOL0     H24415   2.607   7.796   2.848 -1.2976 -0.7723  1.6551
  922MOL0     H24416   2.505   7.701   2.731 -4.5874  0.1942  0.4661
  922MOL0     H24417   2.496   7.926   2.608  1.8171  3.0180 -0.9456
  922MOL0     H24418   2.592   7.999   2.733 -0.6423 -2.2459  3.3092
  922MOL0     H24419   2.684   7.776   2.543 -1.6324  1.5946 -1.6116
  922MOL0     H24420   2.772   7.827   2.684 -0.9104 -2.8067 -1.6486
  922MOL0     H24421   2.766   8.149   2.653  1.5649 -0.9781  0.1230
  922MOL0     H24422   2.884   8.291   2.302  0.9896  0.5683  0.3870
  922MOL0     H24423   2.811   8.352   2.453  0.7760 -0.1756  0.4026
  922MOL0     H24424   3.095   8.239   2.392 -2.4249  1.4503 -2.8099
  922MOL0     H24425   3.032   8.250   2.558  2.5763 -1.5177 -0.4910
  922MOL0     H24426   2.996   8.498   2.532 -1.4150  0.1010 -0.9040
  922MOL0     H24427   3.028   8.475   2.360  0.3098 -2.4187 -1.2780
  922MOL0     H24428   3.235   8.574   2.472 -0.5295 -0.5692 -0.5475
  922MOL0     H24429   3.264   8.428   2.393  3.2754  4.0365  0.1502
  922MOL0     H24430   3.372   8.269   2.776 -0.8816  1.0134  0.2667
  922MOL0     H24431   3.647   8.150   2.816  3.5806  0.5446  0.4757
  922MOL0     H24432   3.705   8.272   2.926 -1.1078  2.6826  0.4854
  922MOL0     H24433   3.537   8.216   2.948 -2.1197  2.4763 -1.2754
  922MOL0     H24434   3.946   8.616   2.837 -0.5411  1.5963 -0.4744
  922MOL0     H24435   4.190   8.685   2.910  1.1393 -0.5908  0.5587
  922MOL0     H24436   4.498   8.550   2.676 -1.4329  0.3063 -0.9237
  922MOL0     H24437   4.487   8.714   2.612  0.3951 -0.5037 -0.8495
  922MOL0     H24438   4.631   8.808   2.782  1.9316  0.1916 -0.7753
  922MOL0     H24439   4.648   8.654   2.863  1.1897  0.4252  0.8841
  922MOL0     H24440   4.728   8.596   2.590  3.3640 -3.0208  1.0731
  922MOL0     H24441   4.837   8.627   2.725  2.5708 -0.1166 -1.8852
  922MOL0     H24442   4.742   8.827   2.524  0.3574  0.3390  1.3138
  922MOL0     H24443   4.817   8.886   2.661  1.0930  0.2165 -1.0530
  922MOL0     H24444   4.986   8.862   2.485 -0.1587 -0.1783 -1.6960
  922MOL0     H24445   4.965   8.683   2.495  1.6731  0.6726  0.2821
  922MOL0     H24446   5.101   8.879   2.667 -0.7468  0.5897  0.1391
  922MOL0     H24447   4.999   8.781   2.767  0.8260  1.6330  1.5940
  922MOL0     H24448   5.110   8.580   2.621  1.7059 -1.1378  0.3816
  922MOL0     H24449   5.195   8.635   2.767 -0.6053 -0.4140  0.6192
  922MOL0     H24450   5.314   8.787   2.612 -0.3568 -1.0044  2.7696
  922MOL0     H24451   5.259   8.686   2.477  0.2555 -3.2888 -0.1181
  922MOL0     H24452   4.327   8.574   2.531  0.1743  4.3314 -0.4652
  922MOL0     H24453   4.111   8.476   2.470  1.1494 -0.0863 -0.2694
  922MOL0     H24454   3.676   8.564   2.525 -2.5897  2.0897  0.0398
  922MOL0     H24455   3.435   8.562   2.486  0.4527  0.1355  0.0404
  922MOL0     H24456   1.784   7.800   3.216  0.3042  1.6786  1.1366
  922MOL0     H24457   1.604   7.822   3.356  2.0347  1.4483 -3.4297
  922MOL0     H24458   1.325   7.674   3.683  1.0498 -0.4407 -0.6489
  922MOL0     H24459   1.152   7.710   3.844 -0.1359  0.4391  2.4119
  922MOL0     H24460   1.239   7.962   4.211 -0.3769 -0.5105 -1.2050
  922MOL0     H24461   1.067   7.926   4.247  0.4183  2.6605  0.3083
  922MOL0     H24462   1.285   7.712   4.266  1.3639  0.6764  1.6354
  922MOL0     H24463   1.110   7.695   4.277 -1.2543 -0.4532  1.2108
  922MOL0     H24464   1.128   7.822   4.493 -1.0332 -1.7958  0.1618
  922MOL0     H24465   1.286   7.889   4.438 -3.3650  1.4898 -5.2285
  922MOL0     H24466   1.300   7.718   4.630  0.1637 -1.0347 -0.5046
  922MOL0     H24467   1.411   7.714   4.501 -0.1269 -0.5241 -1.9396
  922MOL0     H24468   1.256   7.330   4.493  0.5249 -0.5461  1.1452
  922MOL0     H24469   1.419   7.894   4.121 -1.0698  0.0739  0.2149
  922MOL0     H24470   1.592   7.885   3.968  0.2466  1.2447  0.0927
  923MOL0     O24471   6.699   9.841  10.293  0.5745 -0.0116  0.8372
  923MOL0     C24472   6.671   9.812  10.406  0.0998  0.7203 -0.9726
  923MOL0     O24473   6.551   9.788  10.457 -0.2860 -0.0922  0.1079
  923MOL0     C24474   6.436   9.791  10.378  0.4261  0.9305 -0.1243
  923MOL0     C24475   6.394   9.885  10.279 -0.0221 -0.1525  1.0721
  923MOL0     C24476   6.270   9.884  10.215  0.7748  0.3896 -0.3656
  923MOL0     C24477   6.175   9.783  10.242  0.6027 -0.7019 -0.1947
  923MOL0     O24478   6.057   9.770  10.170 -0.5111  0.4421  0.3504
  923MOL0     C24479   6.025   9.868  10.073 -0.1728  0.5659  0.1177
  923MOL0     C24480   5.900   9.814   9.993  0.8044  0.0034 -0.3037
  923MOL0     C24481   5.860   9.901   9.876  0.1983  0.2278  0.4007
  923MOL0     C24482   5.829  10.040   9.915  0.7108 -0.9956 -0.1683
  923MOL0     C24483   5.730  10.044  10.034 -0.6578  0.2435  0.3486
  923MOL0     C24484   5.713  10.184  10.077  0.2568  0.8845 -0.4268
  923MOL0     C24485   5.616  10.191  10.193 -0.5414  0.3774 -0.0121
  923MOL0     C24486   5.558  10.333  10.209  0.7308  0.1121  0.5984
  923MOL0     N24487   5.449  10.318  10.308  0.2072  0.7187  0.0588
  923MOL0     C24488   5.323  10.274  10.293 -0.8177  0.4529  0.6681
  923MOL0     C24489   5.283  10.236  10.419  1.1622  0.1313 -0.0586
  923MOL0     C24490   5.154  10.178  10.456  0.2718  0.1300 -0.6593
  923MOL0     C24491   5.038  10.265  10.422  0.0853  0.5534  0.3140
  923MOL0     C24492   4.911  10.199  10.474  0.4321  0.7046 -0.0630
  923MOL0     C24493   4.795  10.285  10.453 -0.4363  0.1223  0.1407
  923MOL0     O24494   4.686  10.244  10.540 -0.4450  0.3344  0.6977
  923MOL0     C24495   4.563  10.285  10.507  0.1852  0.3105 -0.5900
  923MOL0     C24496   4.468  10.190  10.529  0.0835 -0.7884  0.6548
  923MOL0     C24497   4.333  10.207  10.490  0.5049 -0.8505 -0.3608
  923MOL0     C24498   4.226  10.113  10.543  0.3605 -0.4776 -0.8484
  923MOL0     C24499   4.298  10.332  10.433 -0.0586 -0.0078  0.0028
  923MOL0     C24500   4.160  10.366  10.391  0.3206 -0.2758 -0.0485
  923MOL0     O24501   4.135  10.491  10.358  0.3452 -0.2733 -0.3878
  923MOL0     C24502   4.008  10.535  10.324 -0.1496  0.1289 -0.0012
  923MOL0     C24503   3.903  10.502  10.396  0.5060  0.1394  1.0591
  923MOL0     C24504   3.782  10.552  10.356  0.1879 -0.4381 -0.1793
  923MOL0     C24505   3.759  10.630  10.242 -0.4832  0.8694 -0.7145
  923MOL0     O24506   3.632  10.669  10.235  0.4554 -0.6824 -0.2405
  923MOL0     C24507   3.618  10.809  10.188 -0.8045 -0.8788  0.0505
  923MOL0     C24508   3.486  10.812  10.114  0.8069  0.0787 -0.7124
  923MOL0     C24509   3.376  10.746  10.200  0.0220 -1.3291  0.7986
  923MOL0     C24510   3.241  10.782  10.152  0.3090 -0.2562 -0.0450
  923MOL0     C24511   3.141  10.770  10.256  0.2899 -0.8491 -0.2474
  923MOL0     C24512   3.009  10.813  10.206  0.5065 -0.7093  0.2101
  923MOL0     C24513   2.893  10.764  10.295  0.4900 -0.2963  0.3572
  923MOL0     C24514   2.755  10.782  10.237  0.0542 -0.2749  0.2756
  923MOL0    Cl24515   2.714  10.961  10.239  0.0218 -0.4625  0.4320
  923MOL0     C24516   3.875  10.664  10.166  0.3683  0.8157  0.7136
  923MOL0     C24517   4.001  10.615  10.208  0.6895  0.2644  1.1837
  923MOL0     O24518   4.073  10.280  10.380  0.4780  1.0340  0.2964
  923MOL0     C24519   4.394  10.434  10.424  0.4688 -0.1029 -0.3588
  923MOL0     C24520   4.530  10.402  10.446 -0.4453  0.3602  0.1935
  923MOL0     N24521   5.373  10.280  10.513  0.5448  0.4003 -0.5560
  923MOL0     N24522   5.476  10.319  10.439  0.3298 -0.4872 -0.3430
  923MOL0     C24523   6.208   9.692  10.345  0.1111 -0.2500  0.0459
  923MOL0     C24524   6.340   9.693  10.404 -0.1307 -0.6649 -0.2195
  923MOL0     C24525   6.778   9.785  10.496 -0.5625 -0.2656  1.4511
  923MOL0     C24526   6.740   9.749  10.630  0.6532  0.2225  0.3184
  923MOL0     C24527   6.836   9.743  10.725  0.5892  0.6918  0.0682
  923MOL0     C24528   6.974   9.761  10.702  0.7261 -0.0095 -0.0801
  923MOL0     O24529   7.062   9.755  10.803 -0.9945 -0.4380 -0.6583
  923MOL0     C24530   7.210   9.745  10.785 -0.1699 -0.0722  1.2884
  923MOL0     C24531   7.281   9.757  10.919  0.0769  0.7989  0.8648
  923MOL0     C24532   7.431   9.794  10.896  0.2242  0.6567 -0.5426
  923MOL0     C24533   7.455   9.940  10.867  1.8203  0.3052 -0.2036
  923MOL0     C24534   7.595   9.967  10.835  0.5228  0.7687 -0.0051
  923MOL0     C24535   7.707   9.993  10.816  0.4943 -0.5346  0.0163
  923MOL0     C24536   7.014   9.781  10.570 -0.3058 -0.5439 -0.8895
  923MOL0     C24537   6.917   9.797  10.463  0.1412 -0.5069  0.4524
  923MOL0     H24538   6.466   9.956  10.240 -2.0455  1.8889  0.8584
  923MOL0     H24539   6.250   9.962  10.143 -2.4483  0.1615  0.1723
  923MOL0     H24540   6.004   9.958  10.132  2.1130  1.1042  0.1866
  923MOL0     H24541   6.108   9.881  10.004 -1.2679  0.4377 -1.2686
  923MOL0     H24542   5.915   9.712   9.958  1.7797 -0.1470  0.5049
  923MOL0     H24543   5.811   9.799  10.055 -1.6045  0.5836 -3.3977
  923MOL0     H24544   5.946   9.910   9.808  1.0730 -1.0962  1.2872
  923MOL0     H24545   5.768   9.866   9.829 -0.8600  3.0672  0.1104
  923MOL0     H24546   5.923  10.087   9.946 -0.8025  2.9540 -0.9375
  923MOL0     H24547   5.789  10.104   9.836  0.1840 -0.3727  0.5738
  923MOL0     H24548   5.636   9.994  10.008 -1.4521  0.7996  2.0487
  923MOL0     H24549   5.770   9.985  10.117  1.8596  0.4737 -0.6008
  923MOL0     H24550   5.806  10.236  10.104  1.0824 -0.6095 -0.3277
  923MOL0     H24551   5.670  10.235   9.990 -1.6747 -0.6421 -0.4274
  923MOL0     H24552   5.537  10.120  10.166  0.0037  0.6246 -2.4756
  923MOL0     H24553   5.659  10.153  10.286 -1.6801 -0.7436  0.0751
  923MOL0     H24554   5.508  10.366  10.118 -0.3249 -4.8431 -0.9678
  923MOL0     H24555   5.631  10.411  10.231  2.3240 -0.9862 -0.5816
  923MOL0     H24556   5.268  10.255  10.201  2.0510 -0.2302 -1.0282
  923MOL0     H24557   5.139  10.080  10.410  2.2535 -1.3700  1.5990
  923MOL0     H24558   5.154  10.157  10.564  1.2414 -0.3532 -0.7444
  923MOL0     H24559   5.041  10.274  10.313  1.9323 -0.3111  0.2682
  923MOL0     H24560   5.043  10.361  10.474 -2.4369  0.1734  1.3990
  923MOL0     H24561   4.916  10.184  10.583 -0.4613 -0.9410 -0.2219
  923MOL0     H24562   4.903  10.101  10.426  0.2720  0.7449 -0.1210
  923MOL0     H24563   4.766  10.278  10.348  1.1730 -5.1843 -0.2833
  923MOL0     H24564   4.820  10.385  10.487  1.1717 -0.8776  2.1280
  923MOL0     H24565   4.500  10.096  10.572  0.0802 -1.0197  0.1641
  923MOL0     H24566   4.149  10.165  10.601  2.4511  1.1923  0.5683
  923MOL0     H24567   4.193  10.055  10.456  1.1145 -1.5865 -0.4161
  923MOL0     H24568   4.261  10.041  10.618 -1.0068  1.5754  1.9391
  923MOL0     H24569   3.901  10.460  10.496  0.1478  0.0385  1.0133
  923MOL0     H24570   3.700  10.527  10.423 -0.5741  1.1397 -0.4797
  923MOL0     H24571   3.609  10.888  10.263 -0.4715 -0.6728 -0.1228
  923MOL0     H24572   3.691  10.835  10.110 -1.3064 -0.9151 -0.4422
  923MOL0     H24573   3.465  10.920  10.108  3.9184  0.7325 -1.1913
  923MOL0     H24574   3.482  10.753  10.022  0.9336 -1.7790  0.4315
  923MOL0     H24575   3.383  10.774  10.305 -0.1383  0.7748  0.3070
  923MOL0     H24576   3.384  10.638  10.189 -0.2214 -1.2321 -0.4957
  923MOL0     H24577   3.244  10.882  10.107  1.0018  0.7281  2.0580
  923MOL0     H24578   3.205  10.712  10.076 -0.0696  0.9279 -0.9791
  923MOL0     H24579   3.170  10.832  10.341 -1.2009  0.8360 -0.9044
  923MOL0     H24580   3.145  10.670  10.301  2.2738 -1.6732 -2.0638
  923MOL0     H24581   3.007  10.922  10.198 -1.8874 -0.8165 -4.1074
  923MOL0     H24582   2.997  10.782  10.101  3.7548  2.0635 -1.1469
  923MOL0     H24583   2.895  10.817  10.390 -5.0113 -1.2759  1.3417
  923MOL0     H24584   2.897  10.655  10.307 -0.2084 -0.2061  1.5888
  923MOL0     H24585   2.682  10.725  10.295  0.2724 -1.0261 -0.1709
  923MOL0     H24586   2.750  10.748  10.133 -1.3408  0.0078  0.2350
  923MOL0     H24587   3.873  10.727  10.078 -0.1843  1.4783  1.1858
  923MOL0     H24588   4.084  10.642  10.143  1.3631  0.3470  2.0512
  923MOL0     H24589   4.382  10.532  10.380  1.8305 -0.4826 -1.6610
  923MOL0     H24590   4.611  10.466  10.415 -0.9621 -0.5878 -3.6206
  923MOL0     H24591   6.143   9.608  10.367 -0.5769  0.5490  1.1377
  923MOL0     H24592   6.368   9.620  10.478 -0.4745 -1.8476 -1.2270
  923MOL0     H24593   6.640   9.727  10.664  0.1972 -0.7910 -1.5319
  923MOL0     H24594   6.803   9.717  10.825 -3.8613  1.9480 -0.8676
  923MOL0     H24595   7.236   9.661  10.720 -1.1901  1.9727 -2.0159
  923MOL0     H24596   7.247   9.835  10.734 -1.4952  0.2217  0.8189
  923MOL0     H24597   7.270   9.660  10.970  0.8505  1.6110  2.6799
  923MOL0     H24598   7.235   9.833  10.983  0.0867  2.1843 -0.7207
  923MOL0     H24599   7.478   9.726  10.824 -1.5443 -0.8996 -0.3087
  923MOL0     H24600   7.483   9.778  10.991 -1.2981 -1.6843 -0.0074
  923MOL0     H24601   7.424   9.995  10.957 -0.0647 -3.0270  1.3970
  923MOL0     H24602   7.393   9.966  10.780 -1.1900 -3.8833  0.3489
  923MOL0     H24603   7.807  10.021  10.791  0.0540 -0.0183 -1.2648
  923MOL0     H24604   7.117   9.807  10.550 -0.7568 -0.4252 -3.3850
  923MOL0     H24605   6.944   9.822  10.361 -2.4877 -0.6036 -0.3290
  924MOL0     O24606   7.331   9.100   2.730 -0.1396  0.1904  0.1837
  924MOL0     C24607   7.383   9.026   2.653  0.1251 -0.1372  0.3037
  924MOL0     O24608   7.312   8.961   2.554 -0.8337  0.1802  0.6947
  924MOL0     C24609   7.184   8.975   2.549  0.5173 -0.2498  0.9518
  924MOL0     C24610   7.142   9.080   2.460 -0.3738  0.2114 -0.1133
  924MOL0     C24611   7.010   9.116   2.439  0.0383 -0.9986 -1.1890
  924MOL0     C24612   6.915   9.056   2.522 -0.6177  0.4207 -0.0903
  924MOL0     O24613   6.787   9.105   2.510 -0.4680 -0.0829 -0.1835
  924MOL0     C24614   6.683   9.019   2.576 -0.3735 -0.7387 -0.4700
  924MOL0     C24615   6.541   9.037   2.527 -0.0895  0.0823  0.1698
  924MOL0     C24616   6.525   9.033   2.372 -0.1823  0.3842 -0.0435
  924MOL0     C24617   6.563   8.902   2.302  0.7458 -0.2440  1.1635
  924MOL0     C24618   6.530   8.922   2.153  0.0352  0.1500  0.2043
  924MOL0     C24619   6.384   8.890   2.123  0.0518  0.7206  0.3888
  924MOL0     C24620   6.358   8.872   1.975  0.2731 -0.2359 -0.4285
  924MOL0     C24621   6.379   8.732   1.905  0.7966  0.1697 -0.6899
  924MOL0     N24622   6.364   8.730   1.765 -0.5249 -0.1891 -0.2119
  924MOL0     C24623   6.248   8.751   1.701 -0.1443 -0.3350 -0.3150
  924MOL0     C24624   6.275   8.713   1.568 -0.0506 -0.2503 -0.4307
  924MOL0     C24625   6.170   8.697   1.456  0.1723  0.0055  0.0196
  924MOL0     C24626   6.030   8.754   1.478  0.1301 -0.3694 -1.3468
  924MOL0     C24627   5.935   8.659   1.567 -0.5790 -0.6039  0.9254
  924MOL0     C24628   5.792   8.664   1.514 -0.0518 -0.5910  0.5106
  924MOL0     O24629   5.709   8.581   1.594 -0.1165 -0.1435 -0.3203
  924MOL0     C24630   5.575   8.591   1.568  0.1138  1.3598  0.0116
  924MOL0     C24631   5.510   8.600   1.440 -0.5746  0.6675  0.1926
  924MOL0     C24632   5.368   8.598   1.430  0.8596 -0.0392 -0.2878
  924MOL0     C24633   5.309   8.611   1.291  0.3522  0.4992  0.6789
  924MOL0     C24634   5.291   8.578   1.552  0.0803  0.4153  0.0458
  924MOL0     C24635   5.148   8.571   1.563  0.5970 -0.4475 -0.2518
  924MOL0     O24636   5.088   8.571   1.678 -0.1059 -1.1491 -0.3232
  924MOL0     C24637   4.953   8.598   1.691 -0.5331 -0.2437  0.2807
  924MOL0     C24638   4.877   8.494   1.740 -0.9639  0.4671 -0.2669
  924MOL0     C24639   4.744   8.524   1.769 -0.3177  0.7312 -0.8528
  924MOL0     C24640   4.674   8.633   1.727 -0.7344  0.3960 -0.2654
  924MOL0     O24641   4.543   8.652   1.741 -1.1134 -0.4963 -0.1506
  924MOL0     C24642   4.446   8.545   1.703  0.0095 -0.0595  0.2604
  924MOL0     C24643   4.310   8.617   1.686  0.1359  0.2823 -0.0005
  924MOL0     C24644   4.309   8.714   1.567  0.0266 -0.6859  0.1077
  924MOL0     C24645   4.340   8.860   1.614  0.0403 -0.5137  0.3081
  924MOL0     C24646   4.364   8.950   1.494 -0.1646  0.9160 -0.2264
  924MOL0     C24647   4.390   9.098   1.532  0.1634 -0.2612  0.1615
  924MOL0     C24648   4.540   9.125   1.530  0.4126  0.5617 -0.1895
  924MOL0     C24649   4.583   9.249   1.602 -0.2976 -0.2268  0.1812
  924MOL0    Cl24650   4.545   9.390   1.501 -0.3373  0.0666  0.0500
  924MOL0     C24651   4.750   8.729   1.660 -0.5836  0.1271 -0.0525
  924MOL0     C24652   4.884   8.712   1.648 -0.5917 -0.2271  0.5285
  924MOL0     O24653   5.083   8.573   1.457  0.1485  0.5670 -0.0771
  924MOL0     C24654   5.359   8.582   1.671 -0.3611  0.4907  1.2154
  924MOL0     C24655   5.497   8.585   1.678  0.1389  0.1266 -0.9959
  924MOL0     N24656   6.410   8.684   1.553  0.4087 -0.2549 -0.3129
  924MOL0     N24657   6.460   8.688   1.671 -0.0613  0.1319 -0.9055
  924MOL0     C24658   6.957   8.950   2.609  0.2246  0.4826 -0.1817
  924MOL0     C24659   7.088   8.910   2.616 -0.0061  1.1177 -0.0262
  924MOL0     C24660   7.521   9.013   2.646 -0.1745 -0.9654 -0.0132
  924MOL0     C24661   7.584   8.920   2.559  0.5770 -0.2450  0.3121
  924MOL0     C24662   7.718   8.891   2.562  0.5532  0.0868 -0.2901
  924MOL0     C24663   7.796   8.976   2.638 -0.5355  0.5153  0.6044
  924MOL0     O24664   7.923   8.947   2.649 -0.6186 -0.2678  0.7245
  924MOL0     C24665   8.002   8.996   2.542 -0.0681 -0.3749  0.1541
  924MOL0     C24666   8.126   9.042   2.618  0.4304 -0.4538  0.0347
  924MOL0     C24667   8.120   9.178   2.682  0.8115  0.8891  0.7088
  924MOL0     C24668   8.262   9.216   2.721 -0.5247  0.5567 -0.5220
  924MOL0     C24669   8.328   9.131   2.830  0.4950 -0.1995 -0.8482
  924MOL0     C24670   8.380   9.079   2.926  0.5278 -0.3622 -0.8353
  924MOL0     C24671   7.746   9.079   2.718 -0.0979 -0.1258 -0.4220
  924MOL0     C24672   7.603   9.101   2.723 -1.1525  0.8129 -0.2144
  924MOL0     H24673   7.223   9.133   2.410  0.7531 -1.5600 -0.2384
  924MOL0     H24674   6.972   9.203   2.388 -2.9570 -2.4208 -1.6299
  924MOL0     H24675   6.709   8.913   2.572  0.4130 -0.6944  1.8065
  924MOL0     H24676   6.696   9.052   2.680  3.2938 -0.1074 -0.9870
  924MOL0     H24677   6.471   8.960   2.561 -2.9724  2.1921 -0.6000
  924MOL0     H24678   6.506   9.131   2.569 -2.3816 -0.2679 -0.8363
  924MOL0     H24679   6.418   9.053   2.365 -0.2438  0.4125  0.8770
  924MOL0     H24680   6.587   9.113   2.330 -2.1119  1.2081 -1.4502
  924MOL0     H24681   6.670   8.881   2.317  1.8859  3.3758 -0.7535
  924MOL0     H24682   6.497   8.829   2.350 -0.7711 -0.4571 -1.1439
  924MOL0     H24683   6.552   9.026   2.128 -2.6312  1.6988  3.3671
  924MOL0     H24684   6.597   8.867   2.087 -0.0195 -0.1277  0.3807
  924MOL0     H24685   6.356   8.796   2.171 -2.6078  1.8987  1.3513
  924MOL0     H24686   6.322   8.969   2.165  0.2894  0.0126  2.1312
  924MOL0     H24687   6.255   8.896   1.948 -0.0991 -2.3158 -1.0467
  924MOL0     H24688   6.416   8.936   1.908  0.3769  0.0208 -0.0962
  924MOL0     H24689   6.297   8.671   1.944 -1.3519  2.1001 -1.9153
  924MOL0     H24690   6.481   8.701   1.931  0.1552  0.0021  1.8570
  924MOL0     H24691   6.151   8.783   1.740  0.7006  3.2328 -0.8692
  924MOL0     H24692   6.209   8.755   1.372  0.3306 -1.3553 -0.8725
  924MOL0     H24693   6.166   8.591   1.427  1.8768 -0.6899  2.0511
  924MOL0     H24694   5.980   8.770   1.382  0.6246 -0.0738 -1.5598
  924MOL0     H24695   6.030   8.850   1.531 -1.5244 -1.6082  1.1281
  924MOL0     H24696   5.933   8.701   1.668  1.3358  2.3552 -0.1602
  924MOL0     H24697   5.977   8.559   1.583  2.5192  0.6371  1.1908
  924MOL0     H24698   5.791   8.625   1.412 -2.6021 -0.1252  0.2835
  924MOL0     H24699   5.763   8.769   1.517 -1.9880 -1.0046 -1.0790
  924MOL0     H24700   5.568   8.599   1.348 -0.7766 -0.3701  0.0662
  924MOL0     H24701   5.270   8.714   1.294  2.2196  1.2213  1.2134
  924MOL0     H24702   5.391   8.599   1.220  0.9483 -1.8963  1.7130
  924MOL0     H24703   5.233   8.537   1.264 -0.4095  1.3604  0.3892
  924MOL0     H24704   4.931   8.404   1.767 -1.0810  0.0781 -1.3161
  924MOL0     H24705   4.698   8.451   1.836 -0.9557  1.5092 -0.4359
  924MOL0     H24706   4.480   8.489   1.616  2.0587 -1.9331  2.1493
  924MOL0     H24707   4.436   8.487   1.795 -1.8878  0.4586  0.4416
  924MOL0     H24708   4.235   8.539   1.671 -1.4310  1.4834  1.1677
  924MOL0     H24709   4.294   8.666   1.783  2.1122 -0.1302  0.5721
  924MOL0     H24710   4.210   8.706   1.521 -0.1454  0.1339  0.3278
  924MOL0     H24711   4.388   8.690   1.495 -0.4346  3.8776 -2.2958
  924MOL0     H24712   4.246   8.891   1.661  0.3855 -1.3004  1.5436
  924MOL0     H24713   4.425   8.848   1.681 -1.7941 -1.3488  2.6173
  924MOL0     H24714   4.273   8.951   1.433 -0.6520  0.4130  0.4819
  924MOL0     H24715   4.444   8.915   1.429 -2.3237 -4.1604 -0.5649
  924MOL0     H24716   4.347   9.166   1.459  1.4838  2.4892  1.7753
  924MOL0     H24717   4.336   9.125   1.623  1.1145  0.4769  0.5277
  924MOL0     H24718   4.571   9.122   1.426 -1.1721 -0.3436 -0.6612
  924MOL0     H24719   4.588   9.044   1.586  2.2861  1.8380  0.1768
  924MOL0     H24720   4.688   9.255   1.635 -0.9244  0.8003  2.1766
  924MOL0     H24721   4.529   9.251   1.697 -0.2569 -3.4828  0.3953
  924MOL0     H24722   4.688   8.804   1.612 -3.8293 -3.7545 -2.6137
  924MOL0     H24723   4.946   8.792   1.608 -0.0204 -0.6354  0.6013
  924MOL0     H24724   5.295   8.563   1.756 -2.3867 -0.5013 -0.4561
  924MOL0     H24725   5.557   8.580   1.768 -1.8648 -1.7424  0.3614
  924MOL0     H24726   6.888   8.891   2.668  1.0364 -2.1714 -1.7447
  924MOL0     H24727   7.107   8.827   2.682 -2.8886  0.8011  0.5524
  924MOL0     H24728   7.524   8.860   2.491  2.3167  1.0775 -2.5891
  924MOL0     H24729   7.753   8.804   2.508 -1.6425 -1.6002  0.8562
  924MOL0     H24730   8.025   8.928   2.460  0.9535  0.6595 -0.4395
  924MOL0     H24731   7.955   9.087   2.504 -1.8272 -1.2855  0.0271
  924MOL0     H24732   8.207   9.044   2.544  2.0592  1.3888  1.7221
  924MOL0     H24733   8.165   8.967   2.687  0.9870 -0.4905 -0.3131
  924MOL0     H24734   8.045   9.172   2.761  0.1433  0.8222  0.0744
  924MOL0     H24735   8.081   9.251   2.610  1.9549  1.7986  0.9685
  924MOL0     H24736   8.255   9.311   2.776 -1.6663  0.8456 -1.1386
  924MOL0     H24737   8.327   9.235   2.635 -0.8522  0.0130 -0.8906
  924MOL0     H24738   8.440   9.052   3.011 -1.6405  0.2281  0.9733
  924MOL0     H24739   7.811   9.139   2.780  0.2219 -1.2615  0.3825
  924MOL0     H24740   7.555   9.167   2.795 -1.2214  0.0774  0.4205
  925MOL0     O24741   2.649  10.608   3.571  0.1891  0.2036  0.3016
  925MOL0     C24742   2.672  10.535   3.671 -0.0250 -0.5536 -0.0704
  925MOL0     O24743   2.770  10.441   3.685 -0.1606 -0.2159 -0.7801
  925MOL0     C24744   2.870  10.440   3.587  0.5027  0.3494 -0.8851
  925MOL0     C24745   2.842  10.423   3.454 -0.5472  0.6536 -0.4849
  925MOL0     C24746   2.938  10.396   3.356 -0.2688 -0.0542 -0.9013
  925MOL0     C24747   3.073  10.388   3.407 -0.2261 -0.4781  0.1201
  925MOL0     O24748   3.178  10.363   3.321 -0.1883 -0.1102 -0.1952
  925MOL0     C24749   3.214  10.226   3.300  0.0371  0.8136  0.1398
  925MOL0     C24750   3.334  10.174   3.393  0.0086  0.2042  0.4108
  925MOL0     C24751   3.386  10.040   3.340 -0.3595 -0.1054 -0.4167
  925MOL0     C24752   3.261   9.943   3.316 -0.4219 -1.1758  0.6410
  925MOL0     C24753   3.309   9.802   3.308 -0.0342 -0.2824 -0.2407
  925MOL0     C24754   3.385   9.784   3.175 -0.4531  0.1421  0.2859
  925MOL0     C24755   3.415   9.632   3.149  0.2460 -0.6659  0.1153
  925MOL0     C24756   3.474   9.604   3.006  1.1206 -0.2830 -0.7051
  925MOL0     N24757   3.542   9.474   2.998  0.0398 -0.3357 -0.5401
  925MOL0     C24758   3.674   9.446   3.017 -0.5286  0.2863  0.4128
  925MOL0     C24759   3.681   9.313   3.008  0.0138 -0.5685 -0.0041
  925MOL0     C24760   3.807   9.234   2.982  0.2258 -0.0030  0.6377
  925MOL0     C24761   3.799   9.082   3.016 -0.6666  0.1980 -0.0157
  925MOL0     C24762   3.928   9.002   2.994  0.2175 -0.7964  0.0809
  925MOL0     C24763   3.912   8.857   3.045  0.2944 -0.0636  0.5296
  925MOL0     O24764   3.807   8.798   2.952 -0.1925  0.6561  0.7947
  925MOL0     C24765   3.722   8.707   3.008 -0.0952 -0.1299 -0.7338
  925MOL0     C24766   3.753   8.615   3.111 -0.1565 -0.1834 -0.6707
  925MOL0     C24767   3.660   8.525   3.159 -0.5670 -0.1985 -0.7175
  925MOL0     C24768   3.704   8.435   3.273 -0.1067 -1.5103 -0.4296
  925MOL0     C24769   3.540   8.510   3.089  0.7422 -0.3728  0.8630
  925MOL0     C24770   3.441   8.406   3.124 -0.0539  0.3015 -0.0775
  925MOL0     O24771   3.482   8.295   3.206 -0.0032 -1.0111 -0.6738
  925MOL0     C24772   3.401   8.192   3.231 -0.4149 -0.3307  0.3125
  925MOL0     C24773   3.431   8.115   3.343 -0.1745 -0.2859  0.5653
  925MOL0     C24774   3.374   7.996   3.362  0.1987  0.7064  0.2965
  925MOL0     C24775   3.283   7.941   3.278 -0.8061  0.4862  0.1911
  925MOL0     O24776   3.225   7.818   3.283 -0.0449  0.2128  0.0355
  925MOL0     C24777   3.283   7.718   3.370  0.1591 -0.4337  0.3987
  925MOL0     C24778   3.186   7.606   3.403  0.1446  0.0111 -0.6114
  925MOL0     C24779   3.076   7.652   3.499  0.6837  0.2154  0.6559
  925MOL0     C24780   2.988   7.536   3.545 -0.3733  0.1824  0.3155
  925MOL0     C24781   2.932   7.562   3.684 -0.9111 -1.0355  0.0785
  925MOL0     C24782   2.831   7.455   3.732  0.2691 -0.0229 -0.6750
  925MOL0     C24783   2.798   7.503   3.875 -0.1657  0.8352 -1.1700
  925MOL0     C24784   2.672   7.434   3.930  0.2655  0.3483 -0.5828
  925MOL0    Cl24785   2.531   7.510   3.855  0.2234 -0.3676 -0.1350
  925MOL0     C24786   3.250   8.016   3.163  0.8250 -0.4736 -1.7308
  925MOL0     C24787   3.310   8.137   3.139 -0.2918 -0.5996 -0.3480
  925MOL0     O24788   3.329   8.419   3.067  0.5404  0.1046 -0.6381
  925MOL0     C24789   3.500   8.597   2.985 -0.1775 -0.2306 -0.4528
  925MOL0     C24790   3.599   8.692   2.946 -0.0361  0.8966 -0.9059
  925MOL0     N24791   3.559   9.262   2.983  0.0682 -0.5501  0.6981
  925MOL0     N24792   3.477   9.361   2.977  0.1640  0.1642 -0.1669
  925MOL0     C24793   3.105  10.416   3.538  0.2733 -0.3004  0.5166
  925MOL0     C24794   2.999  10.446   3.629 -0.6058 -0.1223 -0.4379
  925MOL0     C24795   2.581  10.560   3.797 -1.3179 -0.6299  0.4463
  925MOL0     C24796   2.448  10.625   3.788 -0.1585 -0.1480 -0.6117
  925MOL0     C24797   2.374  10.647   3.908  0.9038  0.2955  0.5328
  925MOL0     C24798   2.435  10.617   4.030  0.2221  0.2457 -0.5863
  925MOL0     O24799   2.389  10.651   4.159 -0.0917  0.4275  0.1272
  925MOL0     C24800   2.282  10.750   4.164  0.2329  0.0358  0.7605
  925MOL0     C24801   2.149  10.680   4.166  0.6032 -0.0878  0.1735
  925MOL0     C24802   2.131  10.594   4.286  0.2734  0.2685  0.6460
  925MOL0     C24803   1.992  10.539   4.298  0.9463 -0.8101  0.5120
  925MOL0     C24804   1.946  10.452   4.185 -1.1136  0.2448 -0.2691
  925MOL0     C24805   1.890  10.380   4.104 -0.3999 -0.2419 -0.0395
  925MOL0     C24806   2.564  10.551   4.034  0.1849  0.1642 -0.4140
  925MOL0     C24807   2.627  10.510   3.916  0.1032 -0.1104  0.2899
  925MOL0     H24808   2.737  10.413   3.429 -0.8066 -0.4490  0.9372
  925MOL0     H24809   2.905  10.364   3.258 -2.1089 -0.6497 -0.1232
  925MOL0     H24810   3.123  10.167   3.311 -1.2855  2.6199 -0.5293
  925MOL0     H24811   3.241  10.210   3.195 -1.5252 -0.4629 -0.0935
  925MOL0     H24812   3.418  10.243   3.393  0.2917 -0.0746 -1.2807
  925MOL0     H24813   3.298  10.160   3.495 -0.8020  0.3248  0.1468
  925MOL0     H24814   3.445  10.053   3.249 -0.9923  0.0024 -0.8194
  925MOL0     H24815   3.452   9.998   3.416  2.9671 -1.2030 -3.5829
  925MOL0     H24816   3.188   9.952   3.397  1.7453  0.7320  2.5328
  925MOL0     H24817   3.224   9.980   3.220 -1.0919  0.0848  1.3528
  925MOL0     H24818   3.374   9.778   3.393  0.5312  3.6306  0.6296
  925MOL0     H24819   3.225   9.732   3.317 -0.7431  0.3112 -1.8579
  925MOL0     H24820   3.335   9.821   3.085 -0.7868  3.2215  1.6262
  925MOL0     H24821   3.481   9.837   3.178  0.4969 -1.5497  1.0312
  925MOL0     H24822   3.480   9.607   3.233 -1.7360  0.8193  2.1936
  925MOL0     H24823   3.324   9.571   3.152  1.3496 -2.4898 -1.5163
  925MOL0     H24824   3.548   9.676   2.973  2.4141 -2.3066 -2.4214
  925MOL0     H24825   3.397   9.600   2.929  1.9889 -3.3281 -1.5749
  925MOL0     H24826   3.755   9.516   3.001  1.8989 -2.8725 -3.0223
  925MOL0     H24827   3.826   9.242   2.874 -0.8601  0.2763  0.4509
  925MOL0     H24828   3.886   9.285   3.037  1.0006  2.0410 -2.1827
  925MOL0     H24829   3.717   9.038   2.959  0.7558  1.1614 -3.0365
  925MOL0     H24830   3.768   9.074   3.120 -1.6058  2.0793 -0.0965
  925MOL0     H24831   4.012   9.048   3.047 -0.3395  0.3980 -0.0509
  925MOL0     H24832   3.953   8.999   2.888  0.4494  0.8540  0.0648
  925MOL0     H24833   3.872   8.852   3.147  0.4041 -0.3645  0.5582
  925MOL0     H24834   4.000   8.793   3.041  0.3447 -0.1744  2.4573
  925MOL0     H24835   3.849   8.613   3.162 -2.1967  0.5516  3.6404
  925MOL0     H24836   3.729   8.337   3.234 -2.3715 -1.5001 -2.0972
  925MOL0     H24837   3.790   8.482   3.323 -0.9142  1.1641 -1.3756
  925MOL0     H24838   3.626   8.410   3.346  0.7193 -5.3098 -0.6792
  925MOL0     H24839   3.507   8.134   3.418  0.1400 -1.1311  0.4756
  925MOL0     H24840   3.405   7.960   3.460  0.3795  2.0533  0.7615
  925MOL0     H24841   3.369   7.674   3.318 -1.5219 -0.4380 -2.5835
  925MOL0     H24842   3.324   7.766   3.460 -0.3230 -0.6663  0.7514
  925MOL0     H24843   3.141   7.566   3.312  2.9435 -3.7448 -0.5676
  925MOL0     H24844   3.243   7.522   3.443 -0.6481  0.0235  0.5655
  925MOL0     H24845   3.012   7.721   3.443 -0.2789  0.4934  2.0399
  925MOL0     H24846   3.120   7.709   3.581  1.1821 -1.1386  1.3434
  925MOL0     H24847   2.908   7.512   3.475  1.8072 -0.2029 -2.2345
  925MOL0     H24848   3.052   7.448   3.557  2.0289  1.9211  1.1178
  925MOL0     H24849   2.880   7.658   3.681  0.0956 -0.4700  0.1747
  925MOL0     H24850   3.016   7.575   3.753 -0.0063  1.7618 -1.4077
  925MOL0     H24851   2.734   7.443   3.683  0.2702 -1.8187 -0.3151
  925MOL0     H24852   2.872   7.354   3.736 -1.4010 -0.7156  3.0919
  925MOL0     H24853   2.787   7.612   3.877  2.8114  1.1904  0.0644
  925MOL0     H24854   2.886   7.488   3.937 -0.3073 -0.0227 -1.1742
  925MOL0     H24855   2.676   7.471   4.033  3.4713 -0.8532 -0.1561
  925MOL0     H24856   2.682   7.325   3.921 -0.3391  0.2695 -0.3266
  925MOL0     H24857   3.180   7.974   3.092 -4.1491  1.2312  1.5956
  925MOL0     H24858   3.283   8.184   3.044 -0.9907  1.4677  0.7996
  925MOL0     H24859   3.406   8.589   2.932  0.0251 -1.0390 -0.7065
  925MOL0     H24860   3.575   8.765   2.869 -3.0538  0.8998 -0.0787
  925MOL0     H24861   3.206  10.419   3.578  0.9240  0.9851 -1.1170
  925MOL0     H24862   3.023  10.455   3.734  1.5213  0.5077 -0.9318
  925MOL0     H24863   2.418  10.671   3.694  2.0228 -0.6981 -1.6540
  925MOL0     H24864   2.277  10.693   3.896 -0.4038 -2.5201 -0.7735
  925MOL0     H24865   2.305  10.809   4.253  0.5598  0.2900  0.5099
  925MOL0     H24866   2.284  10.821   4.081  1.5443 -0.4336  0.3755
  925MOL0     H24867   2.129  10.624   4.074 -3.0468 -1.6396  1.6832
  925MOL0     H24868   2.070  10.755   4.178  0.5778 -0.2357  1.0202
  925MOL0     H24869   2.158  10.649   4.377  1.3418 -2.4946  2.0963
  925MOL0     H24870   2.201  10.510   4.289  0.5374  0.3184 -1.8637
  925MOL0     H24871   1.915  10.615   4.308  2.3421  0.6833  0.3760
  925MOL0     H24872   2.007  10.476   4.387 -0.2222 -0.3224  1.0685
  925MOL0     H24873   1.842  10.322   4.027  2.5288 -3.5062  0.3227
  925MOL0     H24874   2.617  10.528   4.126 -0.3722 -0.8345 -0.3272
  925MOL0     H24875   2.707  10.438   3.929 -0.3191 -0.6829 -0.1861
  926MOL0     O24876   1.092   7.938   6.945 -0.0659 -0.0181  0.6249
  926MOL0     C24877   1.185   7.929   7.024 -0.4601  0.8267  0.3165
  926MOL0     O24878   1.199   7.995   7.141 -0.8297  0.2795  0.1217
  926MOL0     C24879   1.094   8.079   7.169  0.2373 -0.6900 -0.1263
  926MOL0     C24880   1.092   8.216   7.128 -0.3383  1.0976  0.1002
  926MOL0     C24881   0.987   8.298   7.165 -0.0324 -0.0471 -0.4840
  926MOL0     C24882   0.888   8.249   7.247 -0.1712  0.0963 -0.1271
  926MOL0     O24883   0.778   8.316   7.288 -0.0994 -0.5266 -0.1850
  926MOL0     C24884   0.775   8.457   7.271 -1.7313  0.8734 -0.3972
  926MOL0     C24885   0.674   8.543   7.339  0.2334  0.8191  0.4605
  926MOL0     C24886   0.533   8.496   7.287 -0.4780  0.0445  0.0660
  926MOL0     C24887   0.428   8.533   7.381  0.4016  0.2748  0.3443
  926MOL0     C24888   0.301   8.471   7.339 -0.9338 -0.5828  0.4225
  926MOL0     C24889   0.193   8.477   7.439  0.4989 -0.6850 -1.5705
  926MOL0     C24890   0.062   8.413   7.383  0.5844  0.0219 -0.7155
  926MOL0     C24891  -0.062   8.424   7.471  0.0083  0.3093  0.2264
  926MOL0     N24892  -0.044   8.362   7.602  0.0721 -0.4846  0.0872
  926MOL0     C24893  -0.030   8.221   7.604  0.2124 -0.2526 -0.8251
  926MOL0     C24894  -0.001   8.193   7.732 -0.2902  0.6451 -0.4702
  926MOL0     C24895   0.029   8.050   7.788  0.2949 -0.3186 -0.6827
  926MOL0     C24896  -0.098   7.966   7.808  0.1245 -0.4380  0.0780
  926MOL0     C24897  -0.063   7.832   7.868  0.3292  1.0075  0.2022
  926MOL0     C24898  -0.179   7.732   7.868 -0.0693  0.7598  0.3784
  926MOL0     O24899  -0.120   7.599   7.844 -0.2928  0.3898  0.1605
  926MOL0     C24900  -0.092   7.521   7.953 -1.0843 -0.4875  0.0889
  926MOL0     C24901  -0.107   7.559   8.091 -0.6442  0.3170  0.2378
  926MOL0     C24902  -0.050   7.483   8.199 -0.5795  0.7660  0.3628
  926MOL0     C24903  -0.078   7.522   8.338 -0.1563  0.0383  0.8455
  926MOL0     C24904   0.037   7.378   8.159  0.2862  1.1221  0.6757
  926MOL0     C24905   0.119   7.298   8.261  0.4104  0.7768  0.4544
  926MOL0     O24906   0.163   7.172   8.225 -0.3478 -0.1290 -0.7016
  926MOL0     C24907   0.273   7.119   8.287  0.0994  0.9089  0.1758
  926MOL0     C24908   0.257   7.089   8.423 -0.0578  0.3008  0.2216
  926MOL0     C24909   0.362   7.019   8.488  0.7944  0.1964 -0.6976
  926MOL0     C24910   0.476   6.981   8.420  0.2694 -0.0685  0.7594
  926MOL0     O24911   0.568   6.905   8.491  0.0209  0.1585 -0.0201
  926MOL0     C24912   0.687   6.869   8.427  0.2559 -0.2724 -0.8782
  926MOL0     C24913   0.774   6.779   8.518  0.6884 -0.1441 -0.1144
  926MOL0     C24914   0.896   6.736   8.430  0.3979 -0.8221  0.5460
  926MOL0     C24915   0.992   6.636   8.497 -0.4318 -0.5705 -0.0939
  926MOL0     C24916   1.037   6.678   8.637  0.6915 -0.0069 -0.1210
  926MOL0     C24917   1.178   6.645   8.658  1.0003  0.3122  0.5144
  926MOL0     C24918   1.207   6.493   8.648 -0.7613 -0.1284 -0.1448
  926MOL0     C24919   1.356   6.473   8.649 -0.0756  0.1112 -0.2179
  926MOL0    Cl24920   1.405   6.314   8.575 -0.0210  0.6715  0.0295
  926MOL0     C24921   0.489   7.013   8.281 -0.9615  0.0407 -0.0085
  926MOL0     C24922   0.394   7.091   8.217  0.0825 -0.0739  0.3750
  926MOL0     O24923   0.164   7.366   8.355 -0.3680  0.5396  0.4872
  926MOL0     C24924   0.041   7.331   8.029  0.3454  0.1061 -0.1243
  926MOL0     C24925  -0.022   7.408   7.931  0.3477 -0.1744 -0.6265
  926MOL0     N24926   0.018   8.318   7.792 -0.0675  0.0675  0.0742
  926MOL0     N24927  -0.024   8.420   7.721 -0.0015  1.5836 -0.2462
  926MOL0     C24928   0.889   8.118   7.280 -0.1138  0.7085 -0.5226
  926MOL0     C24929   0.989   8.026   7.241 -0.0142 -0.6070 -0.3839
  926MOL0     C24930   1.303   7.855   6.969 -0.0305 -0.0524  0.5436
  926MOL0     C24931   1.432   7.883   7.025 -0.4327  0.2576  0.2475
  926MOL0     C24932   1.543   7.817   6.970  0.6165  0.8815 -0.3849
  926MOL0     C24933   1.524   7.730   6.861 -0.7992  0.2042 -0.1799
  926MOL0     O24934   1.635   7.659   6.814 -0.7862 -0.7280 -0.1674
  926MOL0     C24935   1.622   7.597   6.682 -0.4652  0.3396 -0.5098
  926MOL0     C24936   1.759   7.531   6.649 -0.3442 -0.4888  0.1128
  926MOL0     C24937   1.867   7.633   6.613 -0.1019  0.7977 -0.6780
  926MOL0     C24938   1.852   7.669   6.464  0.2030  0.0996  0.1855
  926MOL0     C24939   1.956   7.618   6.378  0.6017  0.3154 -0.0135
  926MOL0     C24940   2.040   7.579   6.294 -0.2255 -0.1844 -1.0723
  926MOL0     C24941   1.400   7.719   6.804 -0.2429  0.2288 -0.0574
  926MOL0     C24942   1.289   7.761   6.863 -0.2002 -1.2634  0.1399
  926MOL0     H24943   1.173   8.262   7.072 -0.6576  0.5001 -0.8912
  926MOL0     H24944   0.993   8.402   7.135  0.9137  0.1381  0.2987
  926MOL0     H24945   0.867   8.504   7.309 -1.8780  1.4010 -0.6851
  926MOL0     H24946   0.782   8.484   7.165  1.0790  1.2728 -0.1907
  926MOL0     H24947   0.672   8.531   7.448  0.9856  1.3723  0.5435
  926MOL0     H24948   0.679   8.646   7.305  0.3035  0.6102 -0.1768
  926MOL0     H24949   0.511   8.535   7.187  2.6117  1.4080 -0.1783
  926MOL0     H24950   0.528   8.387   7.278  0.5132 -0.2085  2.0681
  926MOL0     H24951   0.446   8.500   7.483  1.2560  2.3791  0.9386
  926MOL0     H24952   0.421   8.643   7.376  2.9990  0.5040  0.5508
  926MOL0     H24953   0.269   8.523   7.248  0.9752 -2.2706 -1.3134
  926MOL0     H24954   0.325   8.365   7.322  0.2012 -0.3285  0.3794
  926MOL0     H24955   0.218   8.425   7.531 -3.8904 -0.9127 -0.2785
  926MOL0     H24956   0.170   8.578   7.474 -0.7182 -1.7018  0.7329
  926MOL0     H24957   0.041   8.463   7.288 -1.7665 -0.6223 -0.5879
  926MOL0     H24958   0.081   8.307   7.361 -2.3074 -1.2876  2.2973
  926MOL0     H24959  -0.145   8.366   7.428 -0.3805  0.3028  0.9758
  926MOL0     H24960  -0.089   8.530   7.479 -0.1393  0.5214 -2.1750
  926MOL0     H24961  -0.047   8.151   7.523  3.3300 -0.3065 -1.5641
  926MOL0     H24962   0.105   7.994   7.731 -1.0869 -1.1544 -1.7616
  926MOL0     H24963   0.064   8.073   7.889 -0.4201  0.4540 -0.5980
  926MOL0     H24964  -0.154   7.943   7.718 -2.2243 -2.4156  1.8995
  926MOL0     H24965  -0.172   8.010   7.876  2.5401 -0.8760  3.2637
  926MOL0     H24966  -0.044   7.842   7.975  2.0580 -1.0812  0.1685
  926MOL0     H24967   0.019   7.786   7.812 -3.3097 -3.3766 -2.3139
  926MOL0     H24968  -0.236   7.756   7.777 -0.5906  1.9139  0.9895
  926MOL0     H24969  -0.244   7.736   7.956  0.4588 -0.8590  0.8749
  926MOL0     H24970  -0.153   7.654   8.114  0.0761  1.0408 -1.1757
  926MOL0     H24971   0.007   7.552   8.400  0.3134  2.3202 -0.7726
  926MOL0     H24972  -0.158   7.596   8.328 -2.7430 -2.8443 -2.5078
  926MOL0     H24973  -0.132   7.436   8.380  1.1198 -1.3351 -0.2280
  926MOL0     H24974   0.164   7.124   8.468 -0.4532  1.9954 -1.7847
  926MOL0     H24975   0.350   6.993   8.593  1.0430 -1.0611 -0.9715
  926MOL0     H24976   0.675   6.819   8.331 -3.7001 -0.9889 -0.1812
  926MOL0     H24977   0.739   6.965   8.416 -0.2961  0.7629  3.6258
  926MOL0     H24978   0.795   6.832   8.612 -0.2537 -0.3043  0.2000
  926MOL0     H24979   0.711   6.691   8.530  0.2377  0.4879  2.9880
  926MOL0     H24980   0.950   6.825   8.397 -1.7729  0.7711  1.0431
  926MOL0     H24981   0.851   6.687   8.343 -1.3752 -0.3457  1.1519
  926MOL0     H24982   0.934   6.544   8.503  1.6471 -1.8386  1.8584
  926MOL0     H24983   1.067   6.621   8.418 -1.7672  0.0143 -1.5333
  926MOL0     H24984   0.980   6.629   8.717  1.3474 -0.1274  0.2757
  926MOL0     H24985   1.017   6.784   8.653 -0.0899  0.0018 -1.0489
  926MOL0     H24986   1.228   6.703   8.580  0.2790 -0.3766 -0.4750
  926MOL0     H24987   1.202   6.671   8.762 -1.7958 -4.5433  2.7301
  926MOL0     H24988   1.165   6.457   8.553 -0.4831  1.3454 -0.8501
  926MOL0     H24989   1.167   6.434   8.731  0.4685  0.0064  0.5635
  926MOL0     H24990   1.409   6.470   8.745  1.8262  0.1090 -1.2208
  926MOL0     H24991   1.410   6.549   8.593 -0.5757  0.3261 -0.4132
  926MOL0     H24992   0.576   6.977   8.227 -0.1019  0.0351  1.3464
  926MOL0     H24993   0.397   7.098   8.108 -2.8685 -1.7742  0.0936
  926MOL0     H24994   0.103   7.246   8.004  1.0439  0.5023  0.2070
  926MOL0     H24995  -0.002   7.369   7.832  1.9854  0.0609 -0.4106
  926MOL0     H24996   0.811   8.085   7.347  1.8120 -1.1503  0.9106
  926MOL0     H24997   0.993   7.923   7.276  0.3682 -0.9240 -1.3220
  926MOL0     H24998   1.445   7.958   7.103  2.7588  0.9310 -0.7576
  926MOL0     H24999   1.644   7.835   7.006 -0.6446  1.1250  3.4627
  926MOL0     H25000   1.546   7.518   6.678 -0.0307 -0.0586 -1.0643
  926MOL0     H25001   1.600   7.666   6.601 -0.4691 -0.4749 -1.2165
  926MOL0     H25002   1.757   7.460   6.565  0.5057 -1.1118  0.6024
  926MOL0     H25003   1.789   7.471   6.736  0.9079  0.8608  0.6375
  926MOL0     H25004   1.970   7.597   6.625 -0.2091  0.9701  1.0577
  926MOL0     H25005   1.850   7.727   6.666 -0.9737 -0.5268  1.5761
  926MOL0     H25006   1.828   7.775   6.460 -2.7346 -0.4735  0.4970
  926MOL0     H25007   1.758   7.624   6.432  1.8270 -1.2938 -3.2039
  926MOL0     H25008   2.113   7.556   6.220  1.4413 -2.9208  1.2367
  926MOL0     H25009   1.386   7.657   6.717 -0.4620 -1.6445  1.2625
  926MOL0     H25010   1.197   7.729   6.816 -0.0395 -2.9409  0.8875
  927MOL0     O25011   0.945  10.780   5.792 -0.0658  0.4505  0.7069
  927MOL0     C25012   1.039  10.708   5.758  0.3042  0.7990  0.1694
  927MOL0     O25013   1.027  10.595   5.680  0.1661 -0.2733 -0.5212
  927MOL0     C25014   0.910  10.555   5.629  0.1754  0.0236 -0.8004
  927MOL0     C25015   0.810  10.633   5.571  0.0204  0.1269  0.6745
  927MOL0     C25016   0.695  10.581   5.522  0.3932  0.3176 -0.5008
  927MOL0     C25017   0.667  10.445   5.524 -0.2344  0.1119 -0.3299
  927MOL0     O25018   0.547  10.382   5.485 -0.4742 -0.7171 -0.9941
  927MOL0     C25019   0.464  10.436   5.381  0.3782  0.0230  0.5909
  927MOL0     C25020   0.376  10.565   5.434  0.0505 -0.0159  0.2211
  927MOL0     C25021   0.251  10.570   5.351  0.8017  0.1531 -1.1477
  927MOL0     C25022   0.164  10.688   5.402 -0.5043  0.1731 -0.0803
  927MOL0     C25023   0.038  10.694   5.322  0.4125 -0.4460 -0.0196
  927MOL0     C25024  -0.023  10.828   5.343 -0.0844 -1.1385 -0.2396
  927MOL0     C25025  -0.146  10.834   5.260 -0.1559  0.3786  0.9524
  927MOL0     C25026  -0.268  10.754   5.323  0.6649 -0.3455  1.2504
  927MOL0     N25027  -0.371  10.735   5.220  0.6635 -0.4009  0.4395
  927MOL0     C25028  -0.464  10.829   5.176  0.2193  0.4494 -0.3558
  927MOL0     C25029  -0.543  10.763   5.089 -0.4516  1.3267 -0.0829
  927MOL0     C25030  -0.654  10.842   5.022 -0.5454  0.1395  0.0876
  927MOL0     C25031  -0.678  10.787   4.880  0.3509  0.6368 -0.1555
  927MOL0     C25032  -0.772  10.663   4.865  0.1889  0.5804 -0.6535
  927MOL0     C25033  -0.915  10.695   4.913  0.4197  0.3160 -0.3825
  927MOL0     O25034  -0.966  10.818   4.868 -0.2781  0.1506  0.7830
  927MOL0     C25035  -1.052  10.886   4.955 -0.2900  0.8404  0.0896
  927MOL0     C25036  -1.160  10.828   5.024  0.4018 -0.2221  0.3913
  927MOL0     C25037  -1.262  10.897   5.103  0.4494  0.3371  0.0878
  927MOL0     C25038  -1.370  10.812   5.170 -0.7063  0.3169 -1.0115
  927MOL0     C25039  -1.235  11.042   5.110  0.7934  0.3969  0.2745
  927MOL0     C25040  -1.311  11.135   5.188  0.2526 -0.7028  0.3515
  927MOL0     O25041  -1.306  11.269   5.154  0.3993  0.3663 -0.4556
  927MOL0     C25042  -1.379  11.354   5.236  0.9128  0.7762  0.2545
  927MOL0     C25043  -1.500  11.401   5.198  0.3504 -0.4314  0.1569
  927MOL0     C25044  -1.565  11.491   5.289  0.2927 -0.6182  0.5204
  927MOL0     C25045  -1.501  11.540   5.404  0.1631  0.5861 -0.0343
  927MOL0     O25046  -1.566  11.638   5.480  0.0586  0.8279  0.1861
  927MOL0     C25047  -1.552  11.754   5.407  0.1740 -0.8723  0.1465
  927MOL0     C25048  -1.573  11.863   5.510 -0.1170  0.3809  0.0367
  927MOL0     C25049  -1.711  11.852   5.570 -0.2433  0.3567  0.4927
  927MOL0     C25050  -1.825  11.908   5.477 -0.0959 -0.2841 -0.7049
  927MOL0     C25051  -1.956  11.893   5.553 -0.3848 -0.9501  0.1943
  927MOL0     C25052  -2.066  11.956   5.459 -0.2975  0.0058 -0.4465
  927MOL0     C25053  -2.197  11.997   5.538  0.4098 -0.0144 -0.6451
  927MOL0     C25054  -2.324  11.935   5.473  0.0010 -0.5693 -1.2291
  927MOL0    Cl25055  -2.342  12.002   5.303 -0.4024 -0.1649 -0.1507
  927MOL0     C25056  -1.378  11.483   5.437 -0.2945 -0.6060 -1.2551
  927MOL0     C25057  -1.318  11.401   5.353 -0.2572 -0.6742  0.7835
  927MOL0     O25058  -1.383  11.090   5.278 -0.0751 -0.4953  0.6919
  927MOL0     C25059  -1.148  11.098   5.020 -0.5815 -0.1591  0.2350
  927MOL0     C25060  -1.054  11.022   4.943  0.8691  0.0282  0.3569
  927MOL0     N25061  -0.496  10.637   5.063  0.3725  0.0482 -0.1176
  927MOL0     N25062  -0.390  10.624   5.146 -0.6886 -0.2641 -0.0792
  927MOL0     C25063   0.766  10.367   5.579 -0.0282  0.0199 -0.1209
  927MOL0     C25064   0.889  10.418   5.624  0.2203 -0.2046 -1.0119
  927MOL0     C25065   1.177  10.752   5.800 -0.2543  0.2532 -0.4453
  927MOL0     C25066   1.192  10.873   5.870 -0.1041  0.0134 -0.8187
  927MOL0     C25067   1.317  10.908   5.924 -0.2154 -0.7821 -0.6841
  927MOL0     C25068   1.429  10.823   5.896  0.1254 -0.0718  0.2047
  927MOL0     O25069   1.552  10.856   5.952 -0.2635  0.6599  0.7782
  927MOL0     C25070   1.639  10.919   5.855 -0.5479 -0.7938 -1.1072
  927MOL0     C25071   1.766  10.979   5.914  0.8172  0.2986  0.5287
  927MOL0     C25072   1.855  10.867   5.973  0.3256  0.3555 -0.1605
  927MOL0     C25073   1.997  10.924   6.000 -1.1229 -0.3159 -0.1127
  927MOL0     C25074   1.994  11.048   6.080  0.4694 -0.0941  0.6609
  927MOL0     C25075   1.972  11.153   6.141 -1.1836  0.2645  0.2598
  927MOL0     C25076   1.409  10.707   5.822 -0.2949 -0.2202  0.4673
  927MOL0     C25077   1.285  10.669   5.768 -0.3562  0.8594 -0.2734
  927MOL0     H25078   0.830  10.737   5.548  1.3509 -0.1970  0.3173
  927MOL0     H25079   0.615  10.649   5.492 -0.6747 -1.3725 -1.6557
  927MOL0     H25080   0.529  10.459   5.296  0.3692 -0.1036  0.5499
  927MOL0     H25081   0.394  10.359   5.346  0.7808 -0.3233  0.5451
  927MOL0     H25082   0.357  10.546   5.540 -1.1109  0.0887  0.0433
  927MOL0     H25083   0.432  10.658   5.419  0.3446 -0.1163  0.6655
  927MOL0     H25084   0.282  10.575   5.246  2.8333  1.6766 -0.5343
  927MOL0     H25085   0.190  10.479   5.354  1.9814 -0.6595 -1.2145
  927MOL0     H25086   0.147  10.681   5.510  0.1226  2.2959  0.2005
  927MOL0     H25087   0.203  10.787   5.377 -2.4577  1.1435  0.5631
  927MOL0     H25088   0.045  10.674   5.215 -2.2382 -2.9654  0.1691
  927MOL0     H25089  -0.033  10.618   5.355  1.6323 -1.3593  0.5802
  927MOL0     H25090  -0.048  10.836   5.449  1.3110  0.6542 -0.0160
  927MOL0     H25091   0.035  10.916   5.317  1.1474 -2.1740 -1.1104
  927MOL0     H25092  -0.171  10.939   5.243  1.4302  1.0654  2.5252
  927MOL0     H25093  -0.135  10.791   5.160  1.6024  2.6525  0.0835
  927MOL0     H25094  -0.310  10.823   5.396 -0.9484 -0.4404  0.4566
  927MOL0     H25095  -0.240  10.656   5.363 -0.4815 -1.4513 -0.5123
  927MOL0     H25096  -0.467  10.934   5.204 -2.4732  0.2459  0.4532
  927MOL0     H25097  -0.750  10.846   5.074 -2.3760 -0.2506 -2.9884
  927MOL0     H25098  -0.624  10.947   5.011  2.1662 -0.2915  2.3050
  927MOL0     H25099  -0.588  10.749   4.831 -1.1574 -0.9032 -1.9152
  927MOL0     H25100  -0.723  10.864   4.816 -4.4430 -1.1457  0.6230
  927MOL0     H25101  -0.731  10.575   4.915 -0.4353  0.3393 -0.5526
  927MOL0     H25102  -0.789  10.636   4.760 -1.5632 -0.5450 -0.1288
  927MOL0     H25103  -0.909  10.701   5.022  1.4764  1.7462 -0.4951
  927MOL0     H25104  -0.988  10.615   4.897  1.4837 -0.6637 -0.4752
  927MOL0     H25105  -1.170  10.720   5.019  1.4769 -0.3040 -0.3125
  927MOL0     H25106  -1.468  10.845   5.136 -0.7111  0.1799 -1.1327
  927MOL0     H25107  -1.364  10.705   5.147 -2.6599  0.3802 -1.9741
  927MOL0     H25108  -1.364  10.822   5.279 -3.4608  1.7808 -0.9050
  927MOL0     H25109  -1.540  11.374   5.101  1.4619 -2.7652  0.2840
  927MOL0     H25110  -1.668  11.513   5.261  0.8701  2.0882  0.2101
  927MOL0     H25111  -1.460  11.773   5.350 -0.0210 -1.4234 -0.3554
  927MOL0     H25112  -1.632  11.743   5.334 -1.6464  3.6360  1.1189
  927MOL0     H25113  -1.488  11.858   5.577  0.1134 -0.3358 -0.2967
  927MOL0     H25114  -1.565  11.958   5.456 -0.5244 -0.2694 -1.2113
  927MOL0     H25115  -1.710  11.888   5.674 -0.7263 -2.3401  1.5249
  927MOL0     H25116  -1.737  11.747   5.583  2.9582 -0.8960 -2.0050
  927MOL0     H25117  -1.820  12.014   5.451 -2.0910 -0.6124 -2.7159
  927MOL0     H25118  -1.832  11.847   5.386  0.0829  0.7290 -1.4056
  927MOL0     H25119  -1.953  11.951   5.646 -1.3401  0.9414 -0.9119
  927MOL0     H25120  -1.975  11.791   5.589  0.4248 -0.8979  0.8035
  927MOL0     H25121  -2.022  12.046   5.414 -0.4623  1.0169  1.3108
  927MOL0     H25122  -2.106  11.889   5.382  1.2470 -2.1369  0.5514
  927MOL0     H25123  -2.213  12.104   5.553 -0.8216 -0.1722 -0.7245
  927MOL0     H25124  -2.203  11.955   5.638  1.8238 -2.6197 -1.5475
  927MOL0     H25125  -2.412  11.950   5.536  1.7297  4.0164  0.5650
  927MOL0     H25126  -2.308  11.828   5.454 -0.4931 -0.6302 -1.3040
  927MOL0     H25127  -1.331  11.529   5.523 -2.9357  0.7134 -0.4226
  927MOL0     H25128  -1.216  11.368   5.371 -0.0740  0.0688  1.1436
  927MOL0     H25129  -1.136  11.205   5.007  2.0757 -0.2848  1.1708
  927MOL0     H25130  -0.979  11.074   4.885 -0.7801  1.6166 -0.4712
  927MOL0     H25131   0.751  10.260   5.570  2.3451 -0.4190  0.5536
  927MOL0     H25132   0.960  10.354   5.676  1.5654 -1.4036 -4.0947
  927MOL0     H25133   1.105  10.938   5.878  0.0777  0.6883 -3.5093
  927MOL0     H25134   1.333  11.003   5.974  0.5498 -0.3458 -1.6988
  927MOL0     H25135   1.661  10.856   5.768 -2.0678 -3.4757  0.3109
  927MOL0     H25136   1.572  10.998   5.819 -1.0998 -0.9449 -0.4172
  927MOL0     H25137   1.726  11.050   5.987 -1.8530 -1.6405  1.1259
  927MOL0     H25138   1.816  11.035   5.835 -0.4291 -1.9994 -2.0706
  927MOL0     H25139   1.871  10.782   5.906 -0.9543 -0.4842  0.5647
  927MOL0     H25140   1.795  10.830   6.057  0.6764 -1.6807 -0.7677
  927MOL0     H25141   2.043  10.937   5.901 -0.6962 -1.0008 -0.0146
  927MOL0     H25142   2.052  10.847   6.055  0.9797 -0.1681 -1.8698
  927MOL0     H25143   1.980  11.251   6.185  2.7053  0.3757 -0.3775
  927MOL0     H25144   1.492  10.640   5.805 -0.2064 -0.0992  0.4236
  927MOL0     H25145   1.267  10.570   5.725 -0.6720  0.8498 -0.1241
  928MOL0     O25146  10.486   1.686   3.536 -0.1201  0.4971  0.0691
  928MOL0     C25147  10.407   1.760   3.589 -0.3402  0.0649 -0.5279
  928MOL0     O25148  10.422   1.830   3.706  0.4851 -0.3392  0.3604
  928MOL0     C25149  10.527   1.813   3.791  0.5653 -0.2253 -0.7525
  928MOL0     C25150  10.579   1.922   3.855 -0.7823  0.1834  0.0503
  928MOL0     C25151  10.692   1.915   3.941  1.2442  0.1242 -0.2654
  928MOL0     C25152  10.756   1.793   3.966  0.2434  0.8053 -0.2295
  928MOL0     O25153  10.878   1.792   4.039 -0.1859 -0.5517  0.1257
  928MOL0     C25154  10.949   1.668   4.047 -0.0394  0.0420  0.1023
  928MOL0     C25155  11.084   1.674   4.126 -0.4178  0.5529 -0.5014
  928MOL0     C25156  11.132   1.527   4.139 -0.5156 -0.8436 -0.3581
  928MOL0     C25157  11.257   1.500   4.229 -0.1374  0.5893 -0.5378
  928MOL0     C25158  11.386   1.541   4.153 -0.1495  0.3015  0.5916
  928MOL0     C25159  11.498   1.453   4.212  0.4212 -0.2812  0.5552
  928MOL0     C25160  11.640   1.489   4.164  0.1186 -0.5101  0.1585
  928MOL0     C25161  11.655   1.522   4.009  0.3751 -0.2153 -0.0238
  928MOL0     N25162  11.683   1.411   3.919 -0.7476  0.6960 -0.5377
  928MOL0     C25163  11.803   1.351   3.877 -0.1599 -0.2386  0.2161
  928MOL0     C25164  11.775   1.271   3.774  1.2209  0.3698  0.0304
  928MOL0     C25165  11.867   1.185   3.680 -0.0058  0.4231  1.6612
  928MOL0     C25166  11.822   1.041   3.659 -0.6836 -0.2793  0.1424
  928MOL0     C25167  11.920   0.954   3.581 -0.6870 -0.5732 -0.3602
  928MOL0     C25168  11.987   1.015   3.451 -0.5280 -0.1808 -0.1162
  928MOL0     O25169  12.086   1.112   3.483  0.0472  0.7514  0.1860
  928MOL0     C25170  12.203   1.073   3.541  0.2403  0.6011  0.0471
  928MOL0     C25171  12.268   0.956   3.513  0.2693 -0.6516  1.0445
  928MOL0     C25172  12.377   0.910   3.582 -0.3958  0.3991 -0.4723
  928MOL0     C25173  12.438   0.771   3.548 -0.2579  0.2400  0.8710
  928MOL0     C25174  12.411   0.987   3.694 -0.1237 -0.3270 -0.0384
  928MOL0     C25175  12.523   0.958   3.791 -0.4471  0.3700 -0.1100
  928MOL0     O25176  12.483   0.913   3.915  0.6284  0.7304  0.0187
  928MOL0     C25177  12.583   0.882   4.008 -0.6973  0.0463  1.1618
  928MOL0     C25178  12.599   0.953   4.121  0.1765 -0.2641  0.9208
  928MOL0     C25179  12.679   0.925   4.226  0.2936  0.8085 -0.1574
  928MOL0     C25180  12.747   0.805   4.215  0.2731 -0.5082 -0.1430
  928MOL0     O25181  12.805   0.770   4.332  0.9211  0.5593 -0.0983
  928MOL0     C25182  12.804   0.629   4.357  0.4324 -0.0957 -0.1022
  928MOL0     C25183  12.877   0.598   4.484  0.5449 -1.1242  0.2268
  928MOL0     C25184  12.874   0.450   4.502 -0.1538 -0.0122 -0.1612
  928MOL0     C25185  12.967   0.399   4.613 -0.1111 -0.5252  0.1544
  928MOL0     C25186  13.020   0.262   4.577 -0.0073 -0.1926 -0.6967
  928MOL0     C25187  13.077   0.200   4.713 -0.1813  0.1893  0.6086
  928MOL0     C25188  13.099   0.049   4.678  0.2550  0.9758 -0.9884
  928MOL0     C25189  13.147  -0.023   4.804 -0.1733 -0.3217 -0.9176
  928MOL0    Cl25190  13.321  -0.017   4.816 -0.0776  0.5027  0.2882
  928MOL0     C25191  12.759   0.734   4.092 -1.7339  0.1221 -0.1691
  928MOL0     C25192  12.672   0.776   3.985  0.3009 -0.1162 -0.3494
  928MOL0     O25193  12.640   0.975   3.753  0.2041 -0.1725 -0.1053
  928MOL0     C25194  12.343   1.105   3.726  0.3828 -0.5418  0.3953
  928MOL0     C25195  12.237   1.151   3.651 -0.3210 -0.5786  0.2377
  928MOL0     N25196  11.633   1.287   3.758 -1.6736  0.6288  0.3532
  928MOL0     N25197  11.583   1.362   3.849 -0.4427 -0.6024 -0.1250
  928MOL0     C25198  10.705   1.679   3.905  0.3979  0.9742 -0.5607
  928MOL0     C25199  10.592   1.687   3.813 -0.2289  0.1210  0.5334
  928MOL0     C25200  10.280   1.760   3.516  0.1843 -0.1837 -0.2564
  928MOL0     C25201  10.257   1.705   3.380  0.0701  0.5725 -0.3878
  928MOL0     C25202  10.131   1.711   3.323 -0.1125 -0.5796 -0.0958
  928MOL0     C25203  10.014   1.746   3.391 -0.0677 -0.0812  0.7600
  928MOL0     O25204   9.895   1.730   3.326  0.0459  0.3109 -0.5191
  928MOL0     C25205   9.776   1.720   3.417 -0.0547  0.1459 -0.3799
  928MOL0     C25206   9.655   1.655   3.348 -0.1666 -0.2865  0.0422
  928MOL0     C25207   9.682   1.498   3.342 -0.1743 -0.6206 -0.0399
  928MOL0     C25208   9.686   1.431   3.484  1.1834 -0.2727  0.1082
  928MOL0     C25209   9.563   1.454   3.562  0.0952  0.1923 -0.4271
  928MOL0     C25210   9.466   1.491   3.621  0.1542  0.0418  0.8607
  928MOL0     C25211  10.036   1.802   3.520  0.3262 -0.0555 -0.4480
  928MOL0     C25212  10.170   1.811   3.577  0.2958 -0.3885 -0.6302
  928MOL0     H25213  10.536   2.017   3.824 -2.6194 -1.5338 -3.1488
  928MOL0     H25214  10.731   2.004   3.990  0.3492  0.9268 -0.9688
  928MOL0     H25215  10.890   1.587   4.092 -0.4651  1.4089  2.1176
  928MOL0     H25216  10.972   1.623   3.949  0.9932  1.4504 -0.3265
  928MOL0     H25217  11.166   1.732   4.084  2.1013 -0.9396  1.9771
  928MOL0     H25218  11.073   1.721   4.224  1.5674  2.4904 -1.1315
  928MOL0     H25219  11.061   1.450   4.170  1.2600 -2.4123 -0.0167
  928MOL0     H25220  11.149   1.492   4.037  3.5058  1.6750 -0.7932
  928MOL0     H25221  11.245   1.556   4.323  0.9813 -0.5327  0.3108
  928MOL0     H25222  11.247   1.396   4.260 -2.8235  0.8998 -0.0443
  928MOL0     H25223  11.371   1.516   4.047  2.1232 -0.6623  0.4435
  928MOL0     H25224  11.408   1.646   4.170 -1.3998  0.7492 -0.3569
  928MOL0     H25225  11.496   1.462   4.321 -0.7549 -2.1670  0.7334
  928MOL0     H25226  11.474   1.354   4.171  0.4935  0.8399 -2.4285
  928MOL0     H25227  11.671   1.578   4.221  1.2458 -0.3943 -0.5910
  928MOL0     H25228  11.714   1.412   4.186  0.5752  0.3906  2.0201
  928MOL0     H25229  11.742   1.587   3.997  0.4591 -0.5426 -1.2902
  928MOL0     H25230  11.572   1.582   3.970  1.4904  1.7414  0.4592
  928MOL0     H25231  11.900   1.387   3.911  0.4098  1.0777 -2.5377
  928MOL0     H25232  11.868   1.234   3.583  2.2758  0.2637  1.5383
  928MOL0     H25233  11.965   1.180   3.729 -0.2547 -0.7949  2.0716
  928MOL0     H25234  11.724   1.032   3.613 -0.4843 -1.0681 -0.1482
  928MOL0     H25235  11.807   1.014   3.764 -3.5927  3.4798  0.8986
  928MOL0     H25236  11.864   0.869   3.541  1.5591 -1.0456 -2.7134
  928MOL0     H25237  11.995   0.922   3.654 -0.6455  2.2916  0.9851
  928MOL0     H25238  11.919   1.069   3.385 -2.4245 -3.1899 -0.8357
  928MOL0     H25239  12.029   0.939   3.385 -0.6894  0.3207 -0.8051
  928MOL0     H25240  12.225   0.917   3.421 -3.4138  2.2268  1.3118
  928MOL0     H25241  12.437   0.699   3.630 -0.7829  0.2257  0.8543
  928MOL0     H25242  12.380   0.726   3.468  2.2093  0.2877 -1.0833
  928MOL0     H25243  12.540   0.779   3.509  0.0547 -2.1659  1.0774
  928MOL0     H25244  12.532   1.039   4.124  0.3042 -0.0691 -0.7108
  928MOL0     H25245  12.681   0.980   4.320  1.1646 -0.7678  0.7984
  928MOL0     H25246  12.704   0.589   4.375  0.0789  0.8985  0.2194
  928MOL0     H25247  12.844   0.579   4.268 -0.0262  0.9433 -0.9247
  928MOL0     H25248  12.980   0.636   4.476 -0.7456  2.7435 -0.4304
  928MOL0     H25249  12.820   0.639   4.568 -0.1447 -3.3118  0.8981
  928MOL0     H25250  12.914   0.414   4.407 -0.6170 -1.9441  0.3438
  928MOL0     H25251  12.771   0.414   4.510  0.6579 -3.4608 -2.8910
  928MOL0     H25252  13.048   0.469   4.637 -1.0877  0.5736  0.3426
  928MOL0     H25253  12.909   0.403   4.705  1.2727 -0.4631  1.0508
  928MOL0     H25254  13.092   0.267   4.495  1.6409  2.5862  0.7628
  928MOL0     H25255  12.934   0.200   4.550 -2.2081  0.5927  3.5702
  928MOL0     H25256  13.174   0.248   4.732  0.3490 -0.5952 -0.0628
  928MOL0     H25257  13.007   0.221   4.794  0.3580  1.7585  0.7088
  928MOL0     H25258  13.178   0.038   4.602 -0.4400 -1.8673 -1.4050
  928MOL0     H25259  13.013   0.001   4.631  1.4199 -1.0837 -1.1488
  928MOL0     H25260  13.110  -0.126   4.799 -0.1181 -0.5379  1.6933
  928MOL0     H25261  13.092   0.011   4.892 -0.2111 -0.1730 -0.9985
  928MOL0     H25262  12.835   0.658   4.075 -1.6942  0.2432 -0.5465
  928MOL0     H25263  12.690   0.729   3.890  1.1821 -1.7959  0.6062
  928MOL0     H25264  12.376   1.158   3.814  1.1448 -2.1689  1.1367
  928MOL0     H25265  12.196   1.247   3.680  1.2784  0.8846 -1.9885
  928MOL0     H25266  10.758   1.584   3.914  0.3354  0.9583 -0.3651
  928MOL0     H25267  10.557   1.609   3.746 -3.5991  3.3725 -1.9333
  928MOL0     H25268  10.344   1.665   3.331  2.3773  0.2966  3.5293
  928MOL0     H25269  10.120   1.690   3.217 -0.0359  2.1412 -0.7074
  928MOL0     H25270   9.799   1.663   3.507  1.3105  0.6595 -0.3697
  928MOL0     H25271   9.755   1.821   3.453  1.4420 -0.5576  2.7615
  928MOL0     H25272   9.644   1.688   3.244 -2.2644  0.6135  0.5112
  928MOL0     H25273   9.562   1.682   3.398 -0.3670 -0.3568 -0.2909
  928MOL0     H25274   9.772   1.484   3.281 -1.6798  0.7076 -2.7701
  928MOL0     H25275   9.605   1.450   3.281  0.8279 -1.4306 -0.7106
  928MOL0     H25276   9.770   1.463   3.547 -0.5081  2.3939  1.2151
  928MOL0     H25277   9.700   1.325   3.460  0.5117 -0.1370 -0.9303
  928MOL0     H25278   9.375   1.521   3.669 -0.5008  0.2002 -0.4101
  928MOL0     H25279   9.951   1.819   3.585 -1.5986 -0.8053 -2.6375
  928MOL0     H25280  10.178   1.843   3.681  0.9792  0.8920 -1.0475
  929MOL0     O25281   4.077   9.125   5.587 -0.7997 -0.5041 -0.0737
  929MOL0     C25282   3.999   9.029   5.587 -0.8324  0.9184 -0.4010
  929MOL0     O25283   4.034   8.896   5.575 -0.3266  0.4902  0.2591
  929MOL0     C25284   4.161   8.859   5.568 -0.2450 -0.1351  0.3607
  929MOL0     C25285   4.231   8.863   5.449 -0.3356 -0.8708  0.1862
  929MOL0     C25286   4.359   8.812   5.434 -0.8610  0.6804  0.0838
  929MOL0     C25287   4.432   8.767   5.546  0.3959 -0.4241 -0.2735
  929MOL0     O25288   4.558   8.725   5.536  0.0063 -0.3627  0.0432
  929MOL0     C25289   4.639   8.727   5.419  1.3505 -0.5417  0.3522
  929MOL0     C25290   4.780   8.685   5.453  0.0981  1.2577 -0.3479
  929MOL0     C25291   4.836   8.764   5.574 -0.5549 -0.0066  0.1272
  929MOL0     C25292   4.983   8.728   5.597  0.1005  0.5935 -0.6232
  929MOL0     C25293   5.050   8.825   5.692  0.6049 -0.4885 -0.2793
  929MOL0     C25294   5.032   8.795   5.848  0.0904  0.3688 -0.3342
  929MOL0     C25295   5.079   8.662   5.898 -0.5181  0.5971  0.7344
  929MOL0     C25296   5.234   8.666   5.906  0.8096 -0.3478  0.2089
  929MOL0     N25297   5.306   8.565   5.987  0.4015  0.3178  0.0240
  929MOL0     C25298   5.449   8.550   5.993 -0.4757 -0.1560 -0.5757
  929MOL0     C25299   5.466   8.449   6.077 -0.1701  0.7428  0.1501
  929MOL0     C25300   5.600   8.402   6.128 -0.0949  0.5194 -0.2752
  929MOL0     C25301   5.633   8.261   6.076 -0.1998 -0.2450 -0.4976
  929MOL0     C25302   5.619   8.251   5.925  0.4221 -0.0724 -0.1870
  929MOL0     C25303   5.656   8.103   5.887  0.6369 -0.1923 -0.3645
  929MOL0     O25304   5.783   8.068   5.945 -0.1467  0.1774 -0.4624
  929MOL0     C25305   5.908   8.110   5.892 -0.3075 -0.1914 -0.7576
  929MOL0     C25306   5.918   8.188   5.776 -0.3044 -0.6628 -0.1656
  929MOL0     C25307   6.037   8.232   5.724 -0.5775 -0.4663  0.2746
  929MOL0     C25308   6.034   8.305   5.588  0.7773  0.4752 -0.0951
  929MOL0     C25309   6.158   8.209   5.793 -0.8495  0.7311 -0.3755
  929MOL0     C25310   6.297   8.236   5.746 -0.5301 -0.7530  0.5133
  929MOL0     O25311   6.390   8.230   5.843  0.0197 -0.2333 -0.3328
  929MOL0     C25312   6.519   8.226   5.798 -0.3137  0.6329  0.2374
  929MOL0     C25313   6.596   8.113   5.762  0.0173  0.8208  0.4848
  929MOL0     C25314   6.733   8.121   5.735  0.0461  0.6602  0.0247
  929MOL0     C25315   6.804   8.241   5.741 -0.4681  0.4843  0.5744
  929MOL0     O25316   6.937   8.256   5.708 -0.1230  0.2227  0.9609
  929MOL0     C25317   6.994   8.142   5.643 -0.1397  0.3642  1.0424
  929MOL0     C25318   7.127   8.173   5.584  0.3395 -0.2952 -0.3620
  929MOL0     C25319   7.174   8.061   5.491 -0.7238  0.4055 -0.2221
  929MOL0     C25320   7.297   8.089   5.415 -0.1490 -0.2873  0.0208
  929MOL0     C25321   7.327   7.969   5.319  0.0922 -0.1604 -0.4104
  929MOL0     C25322   7.475   7.949   5.287  0.3626  1.0316  0.3240
  929MOL0     C25323   7.505   7.817   5.207  0.6575 -0.5084 -0.3666
  929MOL0     C25324   7.612   7.810   5.095 -0.2245 -0.0791  1.0099
  929MOL0    Cl25325   7.775   7.841   5.154 -0.3359  0.1414 -0.1826
  929MOL0     C25326   6.733   8.351   5.762  0.4310 -0.6752 -0.0420
  929MOL0     C25327   6.592   8.348   5.786 -0.2747  0.1995  0.6592
  929MOL0     O25328   6.321   8.270   5.626  0.1258 -0.1167 -0.2345
  929MOL0     C25329   6.146   8.144   5.917  1.0422  0.8676 -0.4390
  929MOL0     C25330   6.021   8.101   5.970  0.2912 -0.3080  0.8277
  929MOL0     N25331   5.340   8.387   6.110 -0.0536  0.0104 -0.6524
  929MOL0     N25332   5.250   8.464   6.059  0.0589 -0.2259  0.2330
  929MOL0     C25333   4.361   8.760   5.674 -0.2300 -0.2382  0.1005
  929MOL0     C25334   4.228   8.804   5.680 -0.2412 -0.3870  0.0007
  929MOL0     C25335   3.857   9.067   5.610 -0.1731  0.1445  0.6807
  929MOL0     C25336   3.824   9.196   5.649  0.0126  0.2752 -0.1852
  929MOL0     C25337   3.692   9.235   5.672 -0.4950  0.3053 -0.2092
  929MOL0     C25338   3.588   9.141   5.656  0.4402  0.8524 -0.1735
  929MOL0     O25339   3.462   9.170   5.673 -0.5393 -0.1748 -0.6110
  929MOL0     C25340   3.423   9.308   5.694 -0.2350 -0.3919 -0.0306
  929MOL0     C25341   3.274   9.332   5.711  0.1396  0.4928 -0.0594
  929MOL0     C25342   3.233   9.479   5.701 -0.3542 -0.3501 -0.5318
  929MOL0     C25343   3.119   9.525   5.797  0.3237 -0.0100  0.6005
  929MOL0     C25344   2.984   9.494   5.752 -0.2054  0.1883 -0.1406
  929MOL0     C25345   2.865   9.471   5.739 -0.1002 -0.7238  0.1582
  929MOL0     C25346   3.624   9.004   5.610  0.5155 -0.6974  0.3926
  929MOL0     C25347   3.756   8.969   5.590 -0.0176 -0.1838 -0.1233
  929MOL0     H25348   4.194   8.919   5.364  0.2862 -2.6378 -1.3300
  929MOL0     H25349   4.400   8.830   5.335  0.9894 -1.0125  0.4595
  929MOL0     H25350   4.591   8.664   5.343  1.5053  0.8369 -0.9463
  929MOL0     H25351   4.631   8.827   5.373 -2.5172 -0.5635  0.6121
  929MOL0     H25352   4.775   8.576   5.453 -0.5421  1.2778 -1.3650
  929MOL0     H25353   4.838   8.713   5.365  0.7795  0.9462  0.0029
  929MOL0     H25354   4.815   8.870   5.556 -2.6805 -0.2733  0.7606
  929MOL0     H25355   4.789   8.744   5.671 -0.9387  0.6435  0.0796
  929MOL0     H25356   5.003   8.622   5.615 -0.8613  0.2678 -1.3554
  929MOL0     H25357   5.038   8.738   5.503  2.8146 -0.4786  0.7331
  929MOL0     H25358   5.155   8.817   5.662  1.0346  1.1439  0.6507
  929MOL0     H25359   5.015   8.925   5.664  1.4615 -0.3601 -0.9457
  929MOL0     H25360   5.078   8.875   5.907  1.2365 -0.8921  0.5483
  929MOL0     H25361   4.925   8.796   5.873 -0.6808  1.5533 -3.3308
  929MOL0     H25362   5.044   8.641   5.999 -1.0645 -2.0126  0.0729
  929MOL0     H25363   5.052   8.580   5.830  1.4994  0.3998  0.0911
  929MOL0     H25364   5.261   8.764   5.947 -3.1445  0.1737  2.0031
  929MOL0     H25365   5.257   8.653   5.799  1.1485  0.8882  0.1130
  929MOL0     H25366   5.535   8.611   5.969  2.1796 -3.2561  0.3268
  929MOL0     H25367   5.677   8.469   6.088  2.6780 -2.9542 -1.2570
  929MOL0     H25368   5.602   8.396   6.238  0.8019 -0.3764 -0.3283
  929MOL0     H25369   5.570   8.190   6.129 -0.7463  0.3223 -0.3754
  929MOL0     H25370   5.735   8.240   6.110  0.3873  2.5950 -0.2189
  929MOL0     H25371   5.671   8.324   5.863  0.4024  0.8989  0.9139
  929MOL0     H25372   5.512   8.264   5.905  0.8286  1.3424 -1.6078
  929MOL0     H25373   5.650   8.093   5.778  1.5616 -0.9766 -0.3538
  929MOL0     H25374   5.601   8.027   5.942  1.5748  0.9543  2.2865
  929MOL0     H25375   5.824   8.216   5.729  0.6406  1.4520 -0.9256
  929MOL0     H25376   6.078   8.405   5.598 -0.6788  1.1257  0.1351
  929MOL0     H25377   6.084   8.243   5.514 -2.6369  0.6889 -2.8744
  929MOL0     H25378   5.930   8.305   5.553  1.0262 -0.1873 -0.8455
  929MOL0     H25379   6.550   8.015   5.761  1.7830 -0.0590 -1.3722
  929MOL0     H25380   6.777   8.026   5.707 -2.9277 -1.2795  1.4050
  929MOL0     H25381   7.007   8.062   5.717 -0.2717 -2.0308 -1.3908
  929MOL0     H25382   6.924   8.118   5.562  3.0342 -0.9358 -1.5580
  929MOL0     H25383   7.127   8.268   5.531  0.9550 -0.5969 -0.9278
  929MOL0     H25384   7.191   8.188   5.671 -3.2494 -2.3264  2.9616
  929MOL0     H25385   7.096   8.034   5.418 -0.0299 -1.6467 -0.2398
  929MOL0     H25386   7.186   7.973   5.555 -0.8891 -0.9451 -1.9624
  929MOL0     H25387   7.287   8.181   5.357  1.6548  0.8471  1.3846
  929MOL0     H25388   7.380   8.102   5.485 -0.0137 -0.9255 -0.0117
  929MOL0     H25389   7.272   7.986   5.226 -1.3040  2.7360  0.8327
  929MOL0     H25390   7.288   7.879   5.367  1.5118 -0.7779 -0.3674
  929MOL0     H25391   7.503   8.035   5.226  1.3153  0.4513 -0.0678
  929MOL0     H25392   7.533   7.960   5.379 -0.6180  1.4741  0.9106
  929MOL0     H25393   7.409   7.786   5.165  0.5591 -2.9807  1.4667
  929MOL0     H25394   7.532   7.737   5.277 -1.0490 -1.2507 -0.4987
  929MOL0     H25395   7.581   7.888   5.026  1.6254  0.8960  1.2138
  929MOL0     H25396   7.606   7.715   5.041  0.5075  0.3200  0.2186
  929MOL0     H25397   6.778   8.449   5.769 -0.4503 -0.3925  3.4996
  929MOL0     H25398   6.540   8.443   5.796  2.7259  2.0024  0.4201
  929MOL0     H25399   6.235   8.129   5.976 -0.7026 -1.6077  1.7783
  929MOL0     H25400   6.007   8.058   6.068 -1.2652 -0.4883  0.5563
  929MOL0     H25401   4.407   8.731   5.768  0.4474 -0.8041 -0.4017
  929MOL0     H25402   4.174   8.813   5.773  0.1893 -1.4155  0.3586
  929MOL0     H25403   3.903   9.270   5.651 -2.3965  3.0343  0.4370
  929MOL0     H25404   3.688   9.336   5.713 -1.3206 -0.0550  0.6270
  929MOL0     H25405   3.472   9.344   5.784 -0.5347 -1.0579  0.4113
  929MOL0     H25406   3.465   9.363   5.609 -1.4343 -1.7897 -1.6128
  929MOL0     H25407   3.247   9.302   5.813 -1.6916  1.2447 -0.2895
  929MOL0     H25408   3.226   9.269   5.636 -0.5036 -1.4669  1.8750
  929MOL0     H25409   3.205   9.502   5.598 -2.2904  2.2102  0.4579
  929MOL0     H25410   3.314   9.545   5.735 -1.2525 -0.5280  2.1879
  929MOL0     H25411   3.125   9.634   5.787 -2.4720  0.0308 -2.1311
  929MOL0     H25412   3.135   9.487   5.898  3.3641 -0.0783  0.2046
  929MOL0     H25413   2.763   9.444   5.723 -0.3308  0.9622 -1.4681
  929MOL0     H25414   3.541   8.941   5.579  1.3072 -0.7231 -1.8186
  929MOL0     H25415   3.780   8.868   5.559  2.2833  0.7176 -1.5676
  930MOL0     O25416  10.402   9.817   7.647  0.1968 -0.2128 -0.4040
  930MOL0     C25417  10.398   9.865   7.761  0.0170  0.6385 -0.1620
  930MOL0     O25418  10.282   9.879   7.840  0.2115  0.0037 -0.1362
  930MOL0     C25419  10.159   9.939   7.801  0.0868  0.0440 -1.0305
  930MOL0     C25420  10.048   9.931   7.882  0.6283  0.6676 -0.1174
  930MOL0     C25421   9.924   9.988   7.850 -0.1130  0.2235 -0.3183
  930MOL0     C25422   9.905  10.063   7.738  0.5170 -0.0438 -1.5564
  930MOL0     O25423   9.789  10.127   7.708 -0.3298 -0.1597 -0.8422
  930MOL0     C25424   9.662  10.054   7.693 -1.1674  1.7190  0.3025
  930MOL0     C25425   9.543  10.150   7.730 -1.1223  0.0884  0.0456
  930MOL0     C25426   9.555  10.218   7.868 -0.7091 -0.0741 -0.1377
  930MOL0     C25427   9.423  10.302   7.885  0.5318 -0.2733 -0.1351
  930MOL0     C25428   9.400  10.380   8.022  0.0114 -0.7691  1.5087
  930MOL0     C25429   9.292  10.494   7.999  0.0269 -0.0485  0.7465
  930MOL0     C25430   9.228  10.545   8.135 -0.5972 -0.1302 -0.7342
  930MOL0     C25431   9.155  10.683   8.112  0.4674 -0.1014 -0.3464
  930MOL0     N25432   9.011  10.659   8.087  0.7503 -0.4373 -0.2031
  930MOL0     C25433   8.927  10.751   8.032 -0.3857 -0.1588  0.0897
  930MOL0     C25434   8.810  10.687   8.024 -0.1012  0.0579 -0.9178
  930MOL0     C25435   8.681  10.752   7.976  0.5696  0.6308  1.0469
  930MOL0     C25436   8.647  10.684   7.846  0.0608  0.1985  0.8468
  930MOL0     C25437   8.535  10.765   7.768  0.1505 -0.6642  1.2211
  930MOL0     C25438   8.412  10.798   7.857  0.3130 -0.5969 -0.0539
  930MOL0     O25439   8.302  10.866   7.799 -0.0436 -0.6728  0.1456
  930MOL0     C25440   8.188  10.798   7.778  0.1650 -0.4959  0.5525
  930MOL0     C25441   8.063  10.856   7.805 -0.0072  0.6642  0.2758
  930MOL0     C25442   7.948  10.787   7.767  0.7859  0.3899 -0.1871
  930MOL0     C25443   7.821  10.852   7.821 -0.0844  0.4986 -0.1640
  930MOL0     C25444   7.957  10.661   7.700 -0.1761 -0.4412  0.2613
  930MOL0     C25445   7.833  10.586   7.659  0.5484  0.2865 -0.3119
  930MOL0     O25446   7.850  10.453   7.628 -1.2555  0.1264 -0.1547
  930MOL0     C25447   7.751  10.353   7.618  0.2231 -0.0785  0.2054
  930MOL0     C25448   7.623  10.365   7.566  0.0828 -0.8638 -0.0882
  930MOL0     C25449   7.560  10.234   7.544  0.7045  1.2553 -0.6336
  930MOL0     C25450   7.616  10.108   7.554 -0.2603 -0.6773  0.5975
  930MOL0     O25451   7.549   9.989   7.519  0.0627 -0.0124  0.2960
  930MOL0     C25452   7.410   9.973   7.484 -0.7411 -0.1693  0.6358
  930MOL0     C25453   7.327   9.989   7.605 -0.4342  0.2504  0.3591
  930MOL0     C25454   7.182   9.944   7.601  0.3902 -0.7641 -0.2681
  930MOL0     C25455   7.148   9.803   7.552  0.0056 -1.1911  0.3878
  930MOL0     C25456   7.134   9.786   7.397 -0.9717  0.9256 -0.0449
  930MOL0     C25457   7.139   9.635   7.366  0.4586  1.0384  0.0173
  930MOL0     C25458   7.175   9.621   7.214  0.1790 -0.5076 -0.7647
  930MOL0     C25459   7.196   9.469   7.182  0.7285 -1.2667 -0.1491
  930MOL0    Cl25460   7.032   9.400   7.171  0.1861 -0.3505 -0.0428
  930MOL0     C25461   7.752  10.103   7.601 -0.0424  0.8375 -0.2038
  930MOL0     C25462   7.806  10.226   7.631 -0.1415 -0.1992 -0.6457
  930MOL0     O25463   7.720  10.639   7.653  0.0764 -0.2535 -1.0330
  930MOL0     C25464   8.086  10.618   7.662 -0.8139 -0.0340  0.1781
  930MOL0     C25465   8.193  10.685   7.697 -0.1856 -0.1955  0.3540
  930MOL0     N25466   8.819  10.556   8.072 -0.2163  0.0996  0.0072
  930MOL0     N25467   8.944  10.540   8.107 -0.3410 -0.0223  0.5727
  930MOL0     C25468  10.017  10.074   7.653  0.3519 -0.3664  0.5384
  930MOL0     C25469  10.137  10.006   7.676  0.2439 -0.2655 -0.4373
  930MOL0     C25470  10.529   9.867   7.837 -0.0974  1.0427 -0.0031
  930MOL0     C25471  10.651   9.873   7.770  0.8724  0.5336 -0.0132
  930MOL0     C25472  10.765   9.865   7.844 -0.8340 -0.1167  0.2216
  930MOL0     C25473  10.766   9.860   7.977 -0.7065  0.5511 -0.1771
  930MOL0     O25474  10.888   9.862   8.041 -0.0367  0.1446 -0.6915
  930MOL0     C25475  10.905   9.770   8.154  0.3622  0.0899 -0.4207
  930MOL0     C25476  11.019   9.665   8.128 -0.3196 -0.7260  0.4985
  930MOL0     C25477  11.149   9.727   8.069  0.3230 -0.0447  0.0449
  930MOL0     C25478  11.221   9.635   7.976 -0.5836  0.2630 -0.6132
  930MOL0     C25479  11.260   9.506   8.036  0.8302 -0.3789 -0.1765
  930MOL0     C25480  11.289   9.399   8.088 -0.2623  0.2147  0.2810
  930MOL0     C25481  10.647   9.865   8.058 -0.2561 -0.0756  0.0671
  930MOL0     C25482  10.529   9.863   7.978 -0.0298 -0.0008 -0.0152
  930MOL0     H25483  10.060   9.873   7.973  0.4442  0.5247 -0.1826
  930MOL0     H25484   9.851   9.966   7.928  0.7607  0.2272  0.5243
  930MOL0     H25485   9.651  10.021   7.589 -1.3766 -2.9417  1.5715
  930MOL0     H25486   9.667   9.966   7.758 -0.1613 -0.6839 -2.7872
  930MOL0     H25487   9.535  10.225   7.651  0.3961  0.2331  0.0076
  930MOL0     H25488   9.450  10.093   7.724 -0.2957 -1.3060  0.1266
  930MOL0     H25489   9.560  10.134   7.938 -1.2538  0.0822  0.1004
  930MOL0     H25490   9.642  10.283   7.879 -1.2489  0.5467  0.6425
  930MOL0     H25491   9.411  10.363   7.795 -2.8324 -2.0174 -1.0196
  930MOL0     H25492   9.337  10.237   7.872  2.1023 -2.2389 -1.2454
  930MOL0     H25493   9.362  10.304   8.091 -3.0755  0.3039  1.1352
  930MOL0     H25494   9.487  10.429   8.068  0.5575  0.1502 -0.4104
  930MOL0     H25495   9.334  10.581   7.947 -2.2446  0.0684 -1.0697
  930MOL0     H25496   9.214  10.460   7.929  0.4201  0.5792 -0.0161
  930MOL0     H25497   9.166  10.465   8.176 -0.8549  1.3515  2.0092
  930MOL0     H25498   9.319  10.562   8.194 -1.5545 -3.1724  1.9216
  930MOL0     H25499   9.193  10.733   8.022  2.6484  1.9540  1.5854
  930MOL0     H25500   9.161  10.761   8.189  1.2316 -0.6680  0.1761
  930MOL0     H25501   8.950  10.854   8.012 -0.1238 -0.5658 -1.8692
  930MOL0     H25502   8.603  10.733   8.051 -0.8019 -1.1452 -0.7246
  930MOL0     H25503   8.696  10.859   7.956  0.6610  0.2823 -0.8919
  930MOL0     H25504   8.621  10.578   7.853  0.2244 -0.2448 -2.9387
  930MOL0     H25505   8.737  10.678   7.784 -0.6174  1.9557 -0.4003
  930MOL0     H25506   8.508  10.701   7.683  1.7223  0.5508 -0.2753
  930MOL0     H25507   8.576  10.855   7.721 -1.7234  0.2272  1.1797
  930MOL0     H25508   8.444  10.863   7.939  1.1837 -0.5104 -0.4489
  930MOL0     H25509   8.362  10.707   7.890 -2.8904  1.8396  2.6025
  930MOL0     H25510   8.054  10.949   7.861  3.3611  1.7592 -0.7463
  930MOL0     H25511   7.767  10.797   7.899  0.7243  0.9615  0.7439
  930MOL0     H25512   7.856  10.951   7.853  2.4237 -0.0466 -0.9433
  930MOL0     H25513   7.752  10.872   7.739  1.3702 -0.1657 -1.6129
  930MOL0     H25514   7.575  10.461   7.549  0.6337 -0.6482 -0.4266
  930MOL0     H25515   7.459  10.230   7.506  1.2580 -1.7491 -2.1058
  930MOL0     H25516   7.391  10.038   7.398  2.0364 -0.3019 -0.1619
  930MOL0     H25517   7.406   9.869   7.451  0.7155  0.3606 -1.4416
  930MOL0     H25518   7.374   9.927   7.682 -0.9053  0.8657  1.1586
  930MOL0     H25519   7.326  10.090   7.647 -0.7616 -0.5574  2.4065
  930MOL0     H25520   7.128  10.014   7.537 -0.0984  0.4982  1.4473
  930MOL0     H25521   7.140   9.959   7.701  0.2404 -0.0509 -0.4296
  930MOL0     H25522   7.217   9.725   7.586  0.6299 -0.7156  0.2266
  930MOL0     H25523   7.050   9.773   7.590 -0.4019 -4.5381 -2.8085
  930MOL0     H25524   7.217   9.834   7.345 -0.2860 -1.8273 -1.7301
  930MOL0     H25525   7.037   9.822   7.361 -1.4564  0.6134  0.9253
  930MOL0     H25526   7.219   9.584   7.422 -1.1113 -0.2829  1.1578
  930MOL0     H25527   7.037   9.601   7.385 -0.3010  1.8772 -2.2024
  930MOL0     H25528   7.269   9.671   7.188 -1.6083  2.9187 -1.2102
  930MOL0     H25529   7.092   9.669   7.162 -0.6007 -2.4240 -1.3579
  930MOL0     H25530   7.265   9.418   7.250  1.2487 -1.0189 -0.4884
  930MOL0     H25531   7.245   9.455   7.085 -0.2030 -0.2982 -0.7737
  930MOL0     H25532   7.811  10.012   7.612  3.1342  2.4045 -2.5213
  930MOL0     H25533   7.911  10.225   7.662  0.6273  1.0057 -2.9627
  930MOL0     H25534   8.099  10.533   7.594  1.1137  1.0367 -0.8813
  930MOL0     H25535   8.282  10.651   7.645 -0.6876 -1.6888  0.4435
  930MOL0     H25536  10.009  10.126   7.558 -2.3068  0.4526  1.1302
  930MOL0     H25537  10.218  10.018   7.605 -0.2091 -0.2521 -0.9645
  930MOL0     H25538  10.660   9.861   7.663  2.5565  1.0024  0.0540
  930MOL0     H25539  10.863   9.879   7.801  0.2471  2.4065  3.0751
  930MOL0     H25540  10.919   9.828   8.246 -3.6688  0.9182 -0.1674
  930MOL0     H25541  10.816   9.710   8.173  1.6928 -1.7559  0.3224
  930MOL0     H25542  10.992   9.600   8.044  1.9859 -1.2925  0.1077
  930MOL0     H25543  11.033   9.614   8.224 -0.3811  2.1415  2.1386
  930MOL0     H25544  11.208   9.753   8.157  1.9102 -1.1366 -0.6415
  930MOL0     H25545  11.133   9.826   8.025  1.7499 -0.4783 -1.5690
  930MOL0     H25546  11.313   9.684   7.944  1.4174 -2.8053  0.0494
  930MOL0     H25547  11.160   9.611   7.888  2.8927  0.8158 -3.3775
  930MOL0     H25548  11.331   9.315   8.140  0.1033 -0.2622 -0.7563
  930MOL0     H25549  10.664   9.875   8.165  0.8520 -0.6163 -0.0442
  930MOL0     H25550  10.435   9.864   8.032 -1.4688  1.1225 -2.4107
  931MOL0     O25551   8.178   7.485   5.627 -0.4297 -0.6136 -0.3569
  931MOL0     C25552   8.091   7.528   5.549 -0.6620  0.4770 -0.0056
  931MOL0     O25553   8.063   7.467   5.430 -0.2717 -0.3614 -0.0918
  931MOL0     C25554   8.144   7.355   5.397 -0.1716  0.1106 -0.0147
  931MOL0     C25555   8.253   7.361   5.315 -0.2307  0.2181  0.1565
  931MOL0     C25556   8.319   7.243   5.287 -0.6127 -0.1115  0.4051
  931MOL0     C25557   8.278   7.114   5.341 -0.1870 -0.4983 -0.5095
  931MOL0     O25558   8.340   6.993   5.336 -0.3500 -0.1924 -0.1800
  931MOL0     C25559   8.465   6.991   5.262  0.5769 -0.4950 -0.3210
  931MOL0     C25560   8.531   6.854   5.267  0.7420 -0.3746 -0.1687
  931MOL0     C25561   8.569   6.815   5.411  0.0175  0.5402 -0.0059
  931MOL0     C25562   8.688   6.715   5.424 -0.8168  0.3672  0.1001
  931MOL0     C25563   8.706   6.681   5.570 -0.2017  0.6282 -0.2599
  931MOL0     C25564   8.852   6.649   5.611 -0.6197 -0.0342 -0.1018
  931MOL0     C25565   8.862   6.597   5.756  0.0089  0.2568 -0.3511
  931MOL0     C25566   9.001   6.551   5.770 -0.6355 -0.2572 -0.6648
  931MOL0     N25567   9.112   6.646   5.736  0.6917  0.5498 -0.0607
  931MOL0     C25568   9.177   6.725   5.825 -0.4657 -0.6679  0.0509
  931MOL0     C25569   9.290   6.769   5.754  0.0069  0.8107  0.2248
  931MOL0     C25570   9.402   6.860   5.790 -0.0948  0.1378  0.1968
  931MOL0     C25571   9.384   6.934   5.929 -0.2511  0.3927  0.2514
  931MOL0     C25572   9.419   6.837   6.039  0.4988 -0.0667 -0.8952
  931MOL0     C25573   9.396   6.890   6.177 -0.3991 -0.5526  0.4433
  931MOL0     O25574   9.253   6.919   6.204 -0.4668  0.7809 -0.3488
  931MOL0     C25575   9.158   6.826   6.201 -0.5697 -0.1721 -0.0343
  931MOL0     C25576   9.184   6.691   6.237  0.4377  0.7119  1.1176
  931MOL0     C25577   9.074   6.600   6.221 -0.5781  0.0661 -0.7602
  931MOL0     C25578   9.112   6.448   6.250  0.2854 -0.0085 -0.7633
  931MOL0     C25579   8.936   6.641   6.199 -1.3707 -0.2007  1.0052
  931MOL0     C25580   8.825   6.546   6.177  0.3563 -0.1170 -0.0663
  931MOL0     O25581   8.693   6.596   6.187 -0.6592  0.6675  0.1585
  931MOL0     C25582   8.580   6.521   6.181  0.4853  0.2874 -0.2532
  931MOL0     C25583   8.568   6.382   6.141 -0.3090 -0.1233  0.0073
  931MOL0     C25584   8.452   6.310   6.159  0.3431 -0.3539 -1.0728
  931MOL0     C25585   8.329   6.375   6.185  0.1769 -1.2427 -0.8988
  931MOL0     O25586   8.215   6.301   6.172  0.7303 -0.3092 -0.3873
  931MOL0     C25587   8.085   6.366   6.185 -0.1688  0.3910 -0.9417
  931MOL0     C25588   8.042   6.449   6.068 -0.0279 -0.2071 -0.6059
  931MOL0     C25589   8.012   6.359   5.945  0.7097  0.2983  0.4152
  931MOL0     C25590   7.869   6.321   5.956  0.4887  0.3020 -0.2509
  931MOL0     C25591   7.837   6.223   5.841 -0.8026 -0.1978 -0.5692
  931MOL0     C25592   7.686   6.179   5.854  0.1838  0.0210  0.3667
  931MOL0     C25593   7.649   6.061   5.754 -0.1043  0.0528 -0.9964
  931MOL0     C25594   7.509   6.017   5.780 -0.2359 -0.0677  0.1142
  931MOL0    Cl25595   7.465   5.884   5.665  0.0866  0.3440  0.1013
  931MOL0     C25596   8.342   6.509   6.232  0.0236  0.0375  0.1808
  931MOL0     C25597   8.462   6.583   6.225  0.1124  0.8740 -0.3049
  931MOL0     O25598   8.855   6.435   6.136  0.6724  0.4262 -0.0309
  931MOL0     C25599   8.917   6.777   6.176 -0.6320 -0.5855 -0.3880
  931MOL0     C25600   9.030   6.866   6.179  0.3131  0.3909 -0.3147
  931MOL0     N25601   9.285   6.715   5.630 -0.0484  0.3832  0.3239
  931MOL0     N25602   9.170   6.654   5.611 -0.1859 -0.2032  0.1148
  931MOL0     C25603   8.161   7.118   5.426 -0.0726  0.0805  0.2533
  931MOL0     C25604   8.102   7.238   5.451  0.9806 -0.6969 -1.1682
  931MOL0     C25605   8.012   7.643   5.599 -0.2030 -0.2250  0.2251
  931MOL0     C25606   7.926   7.715   5.512  0.3433  0.5152  0.7882
  931MOL0     C25607   7.838   7.810   5.560 -0.3878  0.6581  0.1323
  931MOL0     C25608   7.854   7.856   5.693  0.6345  0.6038  0.8486
  931MOL0     O25609   7.765   7.945   5.750  0.7425  0.4800 -0.3333
  931MOL0     C25610   7.649   7.976   5.681 -0.3481 -0.2084 -0.1707
  931MOL0     C25611   7.530   7.877   5.683 -0.1470 -0.1250  0.7303
  931MOL0     C25612   7.455   7.877   5.816 -0.5174 -0.3395  0.6046
  931MOL0     C25613   7.335   7.793   5.798 -0.1131  0.4648  0.6605
  931MOL0     C25614   7.250   7.783   5.919 -0.1683  0.4705  0.3810
  931MOL0     C25615   7.168   7.799   6.009 -0.0677  0.3560  0.0197
  931MOL0     C25616   7.947   7.799   5.778 -0.4994  0.1954 -0.1084
  931MOL0     C25617   8.029   7.692   5.731 -0.8811 -0.3135  0.8134
  931MOL0     H25618   8.274   7.461   5.280 -1.0237  0.4405  0.2850
  931MOL0     H25619   8.407   7.253   5.224 -1.8172  0.5630 -1.2466
  931MOL0     H25620   8.449   7.022   5.158 -0.8355  1.2952  0.3742
  931MOL0     H25621   8.538   7.054   5.313  0.5515 -1.9246  1.5746
  931MOL0     H25622   8.463   6.783   5.217 -0.6068 -0.7732  2.0790
  931MOL0     H25623   8.624   6.854   5.210 -0.5319 -2.0739 -2.4058
  931MOL0     H25624   8.595   6.909   5.460 -4.0684  1.4823  0.7074
  931MOL0     H25625   8.486   6.777   5.472  1.1126 -0.0321  1.1805
  931MOL0     H25626   8.676   6.625   5.362  2.2810 -1.3644  1.7495
  931MOL0     H25627   8.779   6.768   5.392 -0.4022 -0.9709 -1.0660
  931MOL0     H25628   8.675   6.770   5.625 -2.2225  0.5750 -1.2264
  931MOL0     H25629   8.646   6.593   5.594 -0.4309  1.0161  0.6413
  931MOL0     H25630   8.898   6.579   5.540  4.3510  1.7827  0.8819
  931MOL0     H25631   8.916   6.736   5.593  0.7727 -1.1049 -0.4944
  931MOL0     H25632   8.840   6.668   5.836 -0.4768  0.4979 -0.6956
  931MOL0     H25633   8.794   6.512   5.769 -0.5821  0.7247 -0.3958
  931MOL0     H25634   9.025   6.469   5.700 -1.6710 -0.9170 -0.2676
  931MOL0     H25635   9.014   6.505   5.868  1.2159 -0.1815 -0.8493
  931MOL0     H25636   9.143   6.748   5.925  2.9806  0.3085  1.1339
  931MOL0     H25637   9.497   6.805   5.786  0.5316  1.1728  0.3449
  931MOL0     H25638   9.416   6.932   5.708 -0.0551 -2.2966 -2.0742
  931MOL0     H25639   9.281   6.967   5.942 -0.1020  1.7382 -1.4895
  931MOL0     H25640   9.451   7.020   5.936  1.8380 -1.0240 -0.8002
  931MOL0     H25641   9.516   6.793   6.014  0.8255  0.6109 -0.8220
  931MOL0     H25642   9.354   6.749   6.027 -1.2000  1.2325 -1.6259
  931MOL0     H25643   9.452   6.983   6.179 -0.6897 -0.3807  0.6354
  931MOL0     H25644   9.422   6.813   6.251 -3.1862 -1.8872  0.1729
  931MOL0     H25645   9.280   6.648   6.261 -0.8293 -1.8702  1.9690
  931MOL0     H25646   9.197   6.437   6.318  0.7426  0.7301 -1.1952
  931MOL0     H25647   9.031   6.404   6.308  0.2625 -1.1298 -1.6243
  931MOL0     H25648   9.121   6.396   6.154 -1.2840  0.9811 -1.5021
  931MOL0     H25649   8.652   6.324   6.103 -1.1800 -2.3244  1.2581
  931MOL0     H25650   8.460   6.202   6.153  0.3138 -0.3237 -1.8179
  931MOL0     H25651   8.008   6.289   6.197  0.3233 -0.2530 -1.8022
  931MOL0     H25652   8.081   6.432   6.272  2.5053  1.8299 -1.7942
  931MOL0     H25653   7.962   6.519   6.092  0.7812  0.2598  0.8500
  931MOL0     H25654   8.122   6.520   6.044 -0.1159  0.0647 -0.0995
  931MOL0     H25655   8.078   6.271   5.943  1.0927  0.5916 -0.9779
  931MOL0     H25656   8.033   6.418   5.855 -3.3096  1.0124 -0.2330
  931MOL0     H25657   7.842   6.277   6.052  3.1404  1.0942  0.9318
  931MOL0     H25658   7.799   6.405   5.956 -0.6216 -0.5689  1.7390
  931MOL0     H25659   7.894   6.131   5.859 -1.7457 -0.7023 -0.0421
  931MOL0     H25660   7.856   6.268   5.743 -2.8172 -0.3779 -1.0919
  931MOL0     H25661   7.652   6.157   5.956 -0.2042 -0.2344  0.1863
  931MOL0     H25662   7.625   6.266   5.826  1.0832  0.1766 -1.2265
  931MOL0     H25663   7.720   5.978   5.762  0.4193  0.5391 -0.5038
  931MOL0     H25664   7.657   6.114   5.658 -0.2765  1.3452 -0.3121
  931MOL0     H25665   7.434   6.096   5.770 -1.5225 -1.0717  1.3852
  931MOL0     H25666   7.509   5.986   5.885  0.1384 -1.1065 -0.1794
  931MOL0     H25667   8.261   6.569   6.273  1.1157  1.6316  0.1249
  931MOL0     H25668   8.471   6.684   6.263 -2.4854  1.8353 -1.9690
  931MOL0     H25669   8.815   6.810   6.156 -1.4873 -3.1535 -0.7756
  931MOL0     H25670   9.020   6.973   6.172  1.8737  0.4978 -1.5025
  931MOL0     H25671   8.124   7.026   5.470  0.0809 -0.8864 -1.5736
  931MOL0     H25672   8.010   7.228   5.509 -0.0451  0.3114 -2.5491
  931MOL0     H25673   7.904   7.687   5.410 -2.1983  2.0576  0.8410
  931MOL0     H25674   7.764   7.851   5.491  1.4886  0.9694 -1.7999
  931MOL0     H25675   7.597   8.060   5.730 -0.8901 -1.3069  1.1925
  931MOL0     H25676   7.683   8.008   5.582 -0.6794 -1.5527 -0.7361
  931MOL0     H25677   7.561   7.780   5.644 -0.2774  0.9384 -2.2535
  931MOL0     H25678   7.461   7.909   5.604 -0.5179 -0.3259  0.9645
  931MOL0     H25679   7.422   7.977   5.846  4.4053  1.8028 -0.1208
  931MOL0     H25680   7.515   7.837   5.898 -1.2947 -1.0797  0.8181
  931MOL0     H25681   7.374   7.692   5.781 -0.9816  0.4388 -1.5987
  931MOL0     H25682   7.290   7.825   5.703  2.7122 -0.4933 -1.1527
  931MOL0     H25683   7.092   7.817   6.083 -0.6034 -3.0658  0.4417
  931MOL0     H25684   7.964   7.825   5.882  0.4121  2.0557 -0.6823
  931MOL0     H25685   8.105   7.643   5.791  2.7068 -0.6082 -3.4160
  932MOL0     O25686   9.006  10.246   5.306  0.5497 -0.7122  0.9988
  932MOL0     C25687   8.954  10.136   5.323  0.2293  1.0196 -0.9902
  932MOL0     O25688   8.828  10.101   5.356 -0.3415  0.1248 -0.0187
  932MOL0     C25689   8.730  10.202   5.370 -0.7513 -0.0661 -0.9933
  932MOL0     C25690   8.640  10.185   5.472  0.3173  0.5286  0.6750
  932MOL0     C25691   8.528  10.264   5.483  0.0538  0.1389 -0.5873
  932MOL0     C25692   8.518  10.374   5.402 -0.0562 -0.4924 -1.2550
  932MOL0     O25693   8.394  10.438   5.419  0.7538  0.1023  0.1285
  932MOL0     C25694   8.375  10.556   5.341 -0.2626  0.4366  0.4887
  932MOL0     C25695   8.239  10.620   5.377  0.0146  0.0645  0.4575
  932MOL0     C25696   8.126  10.524   5.339  0.6101  0.0081 -0.3473
  932MOL0     C25697   7.985  10.556   5.398  0.1745 -0.6803  0.5583
  932MOL0     C25698   7.898  10.428   5.378  1.0656 -0.3910  0.1676
  932MOL0     C25699   7.755  10.464   5.427 -0.4985 -0.2981 -0.3407
  932MOL0     C25700   7.652  10.350   5.401 -0.0889  0.1236 -0.2390
  932MOL0     C25701   7.634  10.321   5.254  0.3023 -0.0242 -0.1235
  932MOL0     N25702   7.525  10.237   5.212 -0.2373 -0.1054 -0.3488
  932MOL0     C25703   7.397  10.268   5.246  0.5179  0.4079 -0.2086
  932MOL0     C25704   7.322  10.154   5.212 -0.8411  0.1349  0.0705
  932MOL0     C25705   7.173  10.136   5.228 -0.2170  0.8038  0.1531
  932MOL0     C25706   7.136  10.036   5.341 -0.1722  0.5145 -0.3248
  932MOL0     C25707   7.214  10.069   5.468 -0.5132 -0.3155 -0.2201
  932MOL0     C25708   7.357  10.002   5.473  0.1563  0.3237  0.2401
  932MOL0     O25709   7.349   9.855   5.453  0.2491  0.3215  0.3926
  932MOL0     C25710   7.470   9.787   5.462 -0.3057 -0.6513 -0.4155
  932MOL0     C25711   7.455   9.647   5.452  0.0174 -0.2847  1.3104
  932MOL0     C25712   7.565   9.563   5.462 -0.7391 -0.1232 -0.3858
  932MOL0     C25713   7.523   9.423   5.438  0.1607 -0.3795 -0.5208
  932MOL0     C25714   7.699   9.618   5.462 -0.3690  0.1214 -0.0210
  932MOL0     C25715   7.825   9.550   5.464 -0.0994  0.3518 -0.6908
  932MOL0     O25716   7.938   9.618   5.432 -0.2155  0.4284 -0.4006
  932MOL0     C25717   8.055   9.561   5.466  1.0641  0.5712 -0.2225
  932MOL0     C25718   8.138   9.514   5.368  0.4412  0.6770  1.1044
  932MOL0     C25719   8.249   9.437   5.400 -0.1036 -0.4601  0.2357
  932MOL0     C25720   8.288   9.413   5.528  0.0226  0.3262 -0.0746
  932MOL0     O25721   8.399   9.337   5.540  0.0991 -0.7799  0.7660
  932MOL0     C25722   8.462   9.321   5.665 -0.8706  0.6073  0.3727
  932MOL0     C25723   8.571   9.213   5.647 -0.1293 -0.5498 -0.0518
  932MOL0     C25724   8.577   9.107   5.758 -0.5897  0.2240  0.2808
  932MOL0     C25725   8.702   9.029   5.742  0.2927  0.8289 -0.6294
  932MOL0     C25726   8.704   8.927   5.848  0.3148 -0.7457  0.1910
  932MOL0     C25727   8.795   8.817   5.803 -0.1233  0.0689  0.2648
  932MOL0     C25728   8.771   8.678   5.874  0.4830  0.7166 -0.3868
  932MOL0     C25729   8.888   8.570   5.855  0.9646 -0.4263  0.0592
  932MOL0    Cl25730   8.882   8.503   5.687  0.0461 -0.1213  0.2963
  932MOL0     C25731   8.201   9.448   5.634  0.2754 -0.0043 -0.6262
  932MOL0     C25732   8.086   9.520   5.595 -0.1141 -0.4257 -0.7940
  932MOL0     O25733   7.828   9.436   5.497  0.0346 -0.2142 -0.3561
  932MOL0     C25734   7.703   9.760   5.466 -0.0152 -0.6065 -0.1509
  932MOL0     C25735   7.592   9.841   5.471 -0.3981  0.3252  1.1690
  932MOL0     N25736   7.413  10.066   5.156  0.2273 -0.1671 -0.3073
  932MOL0     N25737   7.531  10.112   5.173 -0.7260  0.1085  0.3353
  932MOL0     C25738   8.611  10.395   5.296  0.2445  0.1361 -0.2262
  932MOL0     C25739   8.712  10.307   5.281  0.1347  0.1614  0.2003
  932MOL0     C25740   9.054  10.018   5.313 -0.1969  0.4548 -0.1104
  932MOL0     C25741   9.181  10.032   5.240  0.4818  0.4294 -0.3506
  932MOL0     C25742   9.250   9.926   5.190 -0.6184 -0.2224 -0.1002
  932MOL0     C25743   9.211   9.796   5.218  0.2621 -0.1471  0.6132
  932MOL0     O25744   9.262   9.677   5.166 -1.0099 -0.5247  0.6464
  932MOL0     C25745   9.397   9.674   5.113  0.0228 -0.1025 -0.7770
  932MOL0     C25746   9.415   9.529   5.067  0.9933  0.5216  0.1567
  932MOL0     C25747   9.562   9.503   5.024 -0.7895  0.3222  0.3596
  932MOL0     C25748   9.667   9.527   5.139  0.2532 -0.4832  0.0720
  932MOL0     C25749   9.803   9.465   5.118  0.0058  0.5303 -0.0922
  932MOL0     C25750   9.912   9.419   5.119 -0.0161  0.2217 -0.1322
  932MOL0     C25751   9.094   9.780   5.291  0.1139 -0.2035  0.5479
  932MOL0     C25752   9.016   9.890   5.335  0.5551 -0.0395  0.1496
  932MOL0     H25753   8.652  10.102   5.541 -2.4884 -0.5633 -0.0254
  932MOL0     H25754   8.456  10.235   5.560  0.1058  0.5779 -0.3723
  932MOL0     H25755   8.458  10.625   5.357  1.1992 -1.6305  2.3890
  932MOL0     H25756   8.355  10.533   5.236 -1.4972  1.5026  0.4565
  932MOL0     H25757   8.240  10.658   5.480  3.3389  1.1191  0.1347
  932MOL0     H25758   8.227  10.706   5.310  1.7803  0.0228  0.0353
  932MOL0     H25759   8.131  10.511   5.231 -2.2450  2.7231 -0.9576
  932MOL0     H25760   8.144  10.426   5.384  1.4378 -0.6218 -1.9615
  932MOL0     H25761   8.008  10.580   5.502  0.7683  2.6555 -0.2271
  932MOL0     H25762   7.956  10.650   5.350  1.4397 -0.3099  0.4814
  932MOL0     H25763   7.892  10.389   5.275 -3.1465 -1.3677  0.6074
  932MOL0     H25764   7.939  10.340   5.428  1.6615 -2.1948 -3.2056
  932MOL0     H25765   7.763  10.489   5.533  2.0598 -1.1692 -0.2747
  932MOL0     H25766   7.718  10.556   5.380 -1.6135  0.2810  1.5732
  932MOL0     H25767   7.686  10.263   5.458  3.1049  1.3175 -0.1012
  932MOL0     H25768   7.551  10.377   5.434 -1.1579 -2.6728 -0.8992
  932MOL0     H25769   7.725  10.282   5.207  0.6354  1.3906 -0.7254
  932MOL0     H25770   7.610  10.419   5.211 -3.0581  0.6117  2.8020
  932MOL0     H25771   7.346  10.356   5.287 -0.6242 -0.7954  1.0876
  932MOL0     H25772   7.118  10.227   5.252 -0.5532  0.0877  2.3359
  932MOL0     H25773   7.131  10.103   5.133  2.4049 -0.6390 -0.6008
  932MOL0     H25774   7.155   9.934   5.304 -0.7209 -0.3623  1.6779
  932MOL0     H25775   7.028  10.039   5.360 -0.2302  0.2107 -0.5921
  932MOL0     H25776   7.151  10.026   5.546  0.6459  0.8712  1.4317
  932MOL0     H25777   7.219  10.177   5.485  0.3709 -0.2954 -0.5672
  932MOL0     H25778   7.392  10.008   5.576  0.7154 -2.7925  0.3373
  932MOL0     H25779   7.434  10.047   5.410 -1.0613  1.5279 -0.4359
  932MOL0     H25780   7.356   9.605   5.440 -0.3919  0.5213  1.7514
  932MOL0     H25781   7.447   9.394   5.510  1.9807 -0.0079  1.6567
  932MOL0     H25782   7.487   9.421   5.334  1.6172 -2.2070 -1.0565
  932MOL0     H25783   7.608   9.354   5.446  1.1301  0.8151 -0.2112
  932MOL0     H25784   8.124   9.549   5.267 -0.2502 -0.0902  0.9286
  932MOL0     H25785   8.309   9.393   5.321 -2.9780 -1.9149 -1.3349
  932MOL0     H25786   8.510   9.413   5.699  1.8848 -1.5063  2.7735
  932MOL0     H25787   8.404   9.288   5.752  0.9620 -2.0973  0.6841
  932MOL0     H25788   8.563   9.159   5.553  1.2162  0.8865 -1.0340
  932MOL0     H25789   8.666   9.267   5.645 -2.6787  4.4824  0.2215
  932MOL0     H25790   8.495   9.035   5.752  0.4271 -1.0083  0.8872
  932MOL0     H25791   8.584   9.159   5.854  1.5174 -0.1497  0.3667
  932MOL0     H25792   8.704   8.992   5.639 -1.1431  3.4475 -1.6804
  932MOL0     H25793   8.799   9.078   5.756  2.1671 -3.0743  2.0829
  932MOL0     H25794   8.604   8.884   5.849  0.0943 -0.2487  1.8416
  932MOL0     H25795   8.706   8.954   5.954 -1.0099 -1.8037  0.5108
  932MOL0     H25796   8.788   8.796   5.696  0.5684  1.0119  0.0191
  932MOL0     H25797   8.896   8.853   5.827  0.8917 -0.5281 -2.6217
  932MOL0     H25798   8.675   8.633   5.846  1.0680  0.4075 -1.9879
  932MOL0     H25799   8.772   8.697   5.982  0.2829  0.0756 -0.2644
  932MOL0     H25800   8.859   8.492   5.926 -0.5870 -0.3661 -0.4808
  932MOL0     H25801   8.987   8.607   5.884  1.1426 -0.6514 -0.2659
  932MOL0     H25802   8.220   9.416   5.736  1.0533 -2.8993 -1.6006
  932MOL0     H25803   8.015   9.546   5.672  0.1309 -0.2077 -0.6415
  932MOL0     H25804   7.794   9.817   5.481 -0.7415  0.9347 -1.2724
  932MOL0     H25805   7.613   9.947   5.479  1.5920  0.4832 -3.2872
  932MOL0     H25806   8.591  10.467   5.218  2.2025 -0.1319 -1.0219
  932MOL0     H25807   8.763  10.325   5.187  1.4627  2.0014  1.2102
  932MOL0     H25808   9.199  10.126   5.187  2.9826 -0.1933 -0.7406
  932MOL0     H25809   9.333   9.938   5.122  1.0089  2.6931  2.1356
  932MOL0     H25810   9.406   9.745   5.031  1.2684 -0.1483 -0.6935
  932MOL0     H25811   9.469   9.702   5.191 -0.6894 -0.5058  0.0473
  932MOL0     H25812   9.350   9.519   4.979 -0.1889 -1.7832  1.2099
  932MOL0     H25813   9.386   9.456   5.143  0.8444 -0.5302 -0.8675
  932MOL0     H25814   9.593   9.569   4.943  3.1585  0.8430  2.0926
  932MOL0     H25815   9.567   9.399   4.991 -3.2807  0.6320 -1.3215
  932MOL0     H25816   9.625   9.497   5.235  1.5494 -0.7356  0.5725
  932MOL0     H25817   9.683   9.635   5.146 -0.9934 -0.3513  1.4094
  932MOL0     H25818  10.013   9.384   5.109  0.6312  2.0978 -0.4256
  932MOL0     H25819   9.064   9.681   5.325 -0.9610  0.1076  0.5093
  932MOL0     H25820   8.924   9.859   5.383  0.7545 -1.9093 -0.5902
  933MOL0     O25821   3.249   3.201   4.385  0.0138 -0.2782  0.3896
  933MOL0     C25822   3.285   3.202   4.501 -0.5984  0.7477 -0.2074
  933MOL0     O25823   3.207   3.234   4.603  0.1546 -0.1763 -0.1108
  933MOL0     C25824   3.102   3.324   4.582 -0.4047  0.0367  0.2033
  933MOL0     C25825   2.988   3.294   4.650 -0.1754 -0.6118 -1.0310
  933MOL0     C25826   2.877   3.380   4.645 -0.2034  0.0794  0.3143
  933MOL0     C25827   2.883   3.495   4.557  0.0417 -0.0286  0.9352
  933MOL0     O25828   2.795   3.597   4.539  0.3685 -0.1160 -0.3898
  933MOL0     C25829   2.669   3.597   4.614 -0.1688  1.2253  0.4867
  933MOL0     C25830   2.583   3.708   4.557  1.1155  0.0795 -0.2055
  933MOL0     C25831   2.441   3.696   4.612  0.0485  0.9550 -0.1884
  933MOL0     C25832   2.403   3.823   4.696 -0.1451  0.3895 -0.7456
  933MOL0     C25833   2.262   3.809   4.768 -0.6606 -0.8663  1.0745
  933MOL0     C25834   2.248   3.909   4.875  0.0256 -0.1105  0.0482
  933MOL0     C25835   2.101   3.914   4.917 -0.3035 -0.0036  0.1691
  933MOL0     C25836   2.058   4.047   4.989  0.2446  0.6839  0.1521
  933MOL0     N25837   1.940   4.015   5.077  0.4317 -0.1146 -0.2888
  933MOL0     C25838   1.945   3.929   5.180  0.3672 -0.0008 -0.7496
  933MOL0     C25839   1.818   3.881   5.206  0.1744 -0.1629 -0.1310
  933MOL0     C25840   1.768   3.794   5.321  0.5987  0.4546 -0.1847
  933MOL0     C25841   1.619   3.759   5.303  0.7586 -0.2974 -0.1875
  933MOL0     C25842   1.549   3.701   5.432 -0.1768  0.3811  0.6370
  933MOL0     C25843   1.423   3.621   5.397 -0.1061  0.4744  0.8506
  933MOL0     O25844   1.341   3.699   5.296  0.2898 -0.5748  0.2590
  933MOL0     C25845   1.208   3.678   5.301 -0.8891 -0.1312  0.3924
  933MOL0     C25846   1.138   3.720   5.181 -0.0268 -0.1282 -2.2126
  933MOL0     C25847   0.997   3.705   5.172 -0.2689  0.2522  0.3711
  933MOL0     C25848   0.934   3.766   5.041 -0.0469  0.0804 -0.2249
  933MOL0     C25849   0.924   3.631   5.270  0.4321  0.8930 -0.6750
  933MOL0     C25850   0.781   3.618   5.267  0.8239 -1.0908 -0.1804
  933MOL0     O25851   0.714   3.608   5.381  0.3575  0.1970  0.5350
  933MOL0     C25852   0.577   3.598   5.386 -0.5623  0.1945 -0.7472
  933MOL0     C25853   0.511   3.483   5.367  0.9565 -0.2045 -0.4312
  933MOL0     C25854   0.368   3.478   5.389 -0.0607 -0.3387  0.3531
  933MOL0     C25855   0.292   3.597   5.426  0.7347  0.8479  0.6682
  933MOL0     O25856   0.153   3.610   5.447 -0.6754  0.6826 -0.4230
  933MOL0     C25857   0.061   3.534   5.363  0.2263  0.8595  0.2685
  933MOL0     C25858  -0.085   3.581   5.375 -1.1110 -0.4479 -0.3526
  933MOL0     C25859  -0.108   3.696   5.279 -0.2294 -0.9266 -0.1993
  933MOL0     C25860  -0.255   3.751   5.278 -0.5552  0.3016 -0.4419
  933MOL0     C25861  -0.332   3.693   5.160  0.6078 -0.0492 -0.0154
  933MOL0     C25862  -0.484   3.714   5.187 -0.9144  0.5648  0.1883
  933MOL0     C25863  -0.589   3.639   5.090  0.1639 -1.1742  0.4688
  933MOL0     C25864  -0.582   3.480   5.098 -0.0281 -0.8582  0.4588
  933MOL0    Cl25865  -0.650   3.416   5.249  0.3736 -0.2315 -0.2568
  933MOL0     C25866   0.370   3.714   5.445  0.2284 -0.6814 -0.1873
  933MOL0     C25867   0.509   3.707   5.436  1.1230  0.3984  1.0535
  933MOL0     O25868   0.725   3.635   5.158  0.5282 -0.2150 -0.1271
  933MOL0     C25869   1.000   3.602   5.384 -0.4111 -0.7513 -0.1577
  933MOL0     C25870   1.133   3.629   5.402  0.1573  0.4882 -0.1034
  933MOL0     N25871   1.736   3.963   5.121 -0.0721  0.2001 -0.1479
  933MOL0     N25872   1.808   4.031   5.043 -0.4759 -0.9426 -0.1261
  933MOL0     C25873   3.002   3.521   4.479 -0.3525  0.0176 -0.0802
  933MOL0     C25874   3.117   3.438   4.500 -0.5695  0.1032  0.0208
  933MOL0     C25875   3.425   3.147   4.531  0.0041 -0.9239  0.7203
  933MOL0     C25876   3.524   3.142   4.429 -0.0574 -0.0422  0.4335
  933MOL0     C25877   3.650   3.091   4.455  0.2097 -0.5276  0.0046
  933MOL0     C25878   3.685   3.044   4.584  0.8502  0.4467  0.3776
  933MOL0     O25879   3.814   3.011   4.607  0.3946  0.3246  0.2228
  933MOL0     C25880   3.853   3.024   4.740 -0.9655  0.3209  0.5774
  933MOL0     C25881   4.005   3.038   4.732  0.1061 -0.2349 -0.0621
  933MOL0     C25882   4.033   3.178   4.705  0.2858 -0.1729 -0.0435
  933MOL0     C25883   4.157   3.205   4.616  0.3540  0.5437 -0.7272
  933MOL0     C25884   4.164   3.349   4.598  0.6442 -0.4379 -0.1367
  933MOL0     C25885   4.165   3.474   4.582 -0.0586  0.2598  0.6725
  933MOL0     C25886   3.582   3.048   4.678 -0.3134  0.0537  0.3732
  933MOL0     C25887   3.449   3.103   4.660 -0.8170  0.5659  0.8755
  933MOL0     H25888   2.994   3.208   4.715  0.4918  0.9778  1.1433
  933MOL0     H25889   2.786   3.379   4.705  0.7318 -0.2606  1.7859
  933MOL0     H25890   2.621   3.499   4.618  1.0551  0.5166 -1.1288
  933MOL0     H25891   2.694   3.617   4.719  3.0371  0.8906 -0.0892
  933MOL0     H25892   2.618   3.806   4.592 -1.4105  1.1347 -0.4260
  933MOL0     H25893   2.589   3.705   4.448 -0.9426  0.9912 -0.3875
  933MOL0     H25894   2.364   3.679   4.537 -0.4974  1.1394  0.3196
  933MOL0     H25895   2.441   3.602   4.669  0.1946  1.3330  0.4383
  933MOL0     H25896   2.478   3.838   4.775 -0.8440 -0.0195  0.0091
  933MOL0     H25897   2.405   3.912   4.632 -0.7495  0.6168 -0.4586
  933MOL0     H25898   2.193   3.832   4.687  3.0769  0.2547 -2.0874
  933MOL0     H25899   2.241   3.713   4.817 -0.1789 -1.2902  0.4803
  933MOL0     H25900   2.311   3.881   4.960 -1.9454 -0.3069  1.5126
  933MOL0     H25901   2.279   4.010   4.848 -3.3100  1.0042 -0.1172
  933MOL0     H25902   2.044   3.895   4.826 -0.8526 -4.4328  1.1645
  933MOL0     H25903   2.092   3.827   4.983  4.6009 -0.8698  0.0631
  933MOL0     H25904   2.024   4.121   4.916 -4.1618 -1.2970 -0.1166
  933MOL0     H25905   2.138   4.100   5.041 -0.4040  2.8173 -0.8858
  933MOL0     H25906   2.040   3.893   5.219  0.4461  1.0594  0.0903
  933MOL0     H25907   1.827   3.703   5.333  0.8726  0.8196  1.4636
  933MOL0     H25908   1.788   3.824   5.424 -1.1651 -1.8492  0.9107
  933MOL0     H25909   1.603   3.679   5.230  1.3968 -1.2430  0.6876
  933MOL0     H25910   1.557   3.838   5.259  1.2510  0.2897  0.1602
  933MOL0     H25911   1.520   3.786   5.494  1.9498  0.4226  1.6862
  933MOL0     H25912   1.631   3.645   5.479 -0.1897 -1.2081 -1.1287
  933MOL0     H25913   1.386   3.588   5.495  2.7225  0.1517  1.9062
  933MOL0     H25914   1.462   3.536   5.341 -0.0667  0.8569  0.2889
  933MOL0     H25915   1.186   3.782   5.106  2.3247  2.2760  1.0068
  933MOL0     H25916   0.999   3.837   4.989 -0.0804 -0.7566 -1.4560
  933MOL0     H25917   0.909   3.685   4.971 -2.4399  0.5078  0.0332
  933MOL0     H25918   0.839   3.816   5.063 -0.5563 -0.2939 -1.4642
  933MOL0     H25919   0.556   3.388   5.338  0.6543 -0.3303 -0.5005
  933MOL0     H25920   0.314   3.385   5.378  0.5942 -0.4176 -4.3806
  933MOL0     H25921   0.101   3.548   5.262 -2.6540  0.0365 -1.0967
  933MOL0     H25922   0.066   3.426   5.380 -1.9569  0.4513 -1.3134
  933MOL0     H25923  -0.134   3.487   5.349  0.9516 -0.9685 -2.6705
  933MOL0     H25924  -0.110   3.605   5.479 -0.8221  0.8876 -0.5740
  933MOL0     H25925  -0.086   3.658   5.179 -1.6164  0.7676 -1.2052
  933MOL0     H25926  -0.054   3.788   5.305 -4.1473  0.8778  2.7067
  933MOL0     H25927  -0.309   3.734   5.372 -1.1650 -1.4202 -1.0654
  933MOL0     H25928  -0.241   3.859   5.263 -4.7132  0.9104 -0.9802
  933MOL0     H25929  -0.312   3.586   5.146  1.4844 -0.2693  2.3487
  933MOL0     H25930  -0.307   3.745   5.067 -1.3892  0.7419 -0.1580
  933MOL0     H25931  -0.501   3.674   5.288 -2.7780  0.7928 -0.0018
  933MOL0     H25932  -0.503   3.822   5.194 -1.0314  0.4956  1.1629
  933MOL0     H25933  -0.563   3.670   4.989  2.1653 -2.1051  0.6545
  933MOL0     H25934  -0.694   3.668   5.101 -0.6913 -2.1012 -3.7310
  933MOL0     H25935  -0.476   3.454   5.099  0.9809  2.6323 -0.0090
  933MOL0     H25936  -0.622   3.436   5.007  0.4584  0.0425 -0.2119
  933MOL0     H25937   0.322   3.806   5.478  0.1315 -0.2893 -1.3572
  933MOL0     H25938   0.570   3.791   5.469  2.9036 -0.8180  1.0335
  933MOL0     H25939   0.942   3.554   5.462 -1.2301  0.8949  0.2949
  933MOL0     H25940   1.178   3.591   5.493  1.1460 -0.9423 -1.1640
  933MOL0     H25941   3.004   3.607   4.412  1.1015  0.0832  0.0042
  933MOL0     H25942   3.207   3.457   4.442 -0.3223 -1.1716 -0.0423
  933MOL0     H25943   3.502   3.177   4.329 -2.4449  2.0106  1.5490
  933MOL0     H25944   3.730   3.098   4.381 -0.8754 -0.0925 -1.1543
  933MOL0     H25945   3.812   3.122   4.771 -1.8234  0.1685 -0.0378
  933MOL0     H25946   3.821   2.943   4.806  3.4166 -1.9621  0.1748
  933MOL0     H25947   4.042   2.971   4.654  0.4145 -1.5944  1.2113
  933MOL0     H25948   4.051   3.020   4.829 -0.7490 -0.6743  0.2687
  933MOL0     H25949   4.038   3.227   4.803  1.1350 -1.0281  0.3714
  933MOL0     H25950   3.944   3.222   4.661  0.8315  2.9630  1.6842
  933MOL0     H25951   4.140   3.164   4.516 -1.8367 -0.5333  0.0237
  933MOL0     H25952   4.250   3.175   4.665  0.3113  2.4636  0.6740
  933MOL0     H25953   4.170   3.581   4.569 -3.1400  0.4307  0.3356
  933MOL0     H25954   3.613   3.009   4.775  1.0832 -0.2613 -0.1784
  933MOL0     H25955   3.379   3.118   4.741  0.2887  1.0724  1.7664
  934MOL0     O25956  10.315   0.125   7.867 -0.9665 -0.3000  0.2301
  934MOL0     C25957  10.242   0.100   7.772  0.1108  0.5792  0.6865
  934MOL0     O25958  10.283   0.077   7.638 -0.3881  0.4616 -0.1847
  934MOL0     C25959  10.416   0.057   7.618 -0.2466  0.4843 -0.0643
  934MOL0     C25960  10.436  -0.052   7.537  0.3592  0.6445 -0.8081
  934MOL0     C25961  10.562  -0.085   7.488 -0.6319  0.2015  0.1480
  934MOL0     C25962  10.667   0.004   7.505  0.6668 -0.2005 -0.1870
  934MOL0     O25963  10.776  -0.027   7.424 -0.1392 -0.8331 -0.9242
  934MOL0     C25964  10.845   0.090   7.356  0.1731 -0.0529 -0.1514
  934MOL0     C25965  10.846   0.082   7.202 -0.2739 -0.1497 -0.2443
  934MOL0     C25966  10.907   0.208   7.134 -0.4731  0.4593  0.2950
  934MOL0     C25967  10.870   0.228   6.979  0.1185  0.1271 -0.7703
  934MOL0     C25968  10.897   0.373   6.928  0.9873  0.8020  1.0587
  934MOL0     C25969  10.899   0.362   6.768  0.2824 -0.0997 -0.2599
  934MOL0     C25970  10.911   0.499   6.708  0.8651  0.3514 -0.2685
  934MOL0     C25971  11.050   0.561   6.729 -0.0044  0.8985 -0.3759
  934MOL0     N25972  11.086   0.669   6.637  0.1085  0.7714 -0.3235
  934MOL0     C25973  11.057   0.685   6.504 -0.3029 -0.3151 -0.2845
  934MOL0     C25974  11.136   0.781   6.456  0.6269  0.1588 -0.1678
  934MOL0     C25975  11.118   0.822   6.311 -0.5876  0.4945 -0.1704
  934MOL0     C25976  11.229   0.756   6.236 -1.0954 -0.4353  0.8759
  934MOL0     C25977  11.236   0.799   6.088 -1.0486  0.3334  0.3687
  934MOL0     C25978  11.104   0.812   6.025 -0.2548  0.0795 -0.1002
  934MOL0     O25979  11.030   0.688   6.037 -0.0385 -0.3140 -0.1961
  934MOL0     C25980  10.905   0.694   6.000  0.8300  0.3538  0.0647
  934MOL0     C25981  10.831   0.575   6.019  0.8141 -0.5758  0.3639
  934MOL0     C25982  10.692   0.563   5.981 -0.0911  0.7347 -0.1385
  934MOL0     C25983  10.632   0.427   6.007 -0.9282 -0.2592 -0.5041
  934MOL0     C25984  10.621   0.672   5.932 -0.1416 -0.6818  0.0736
  934MOL0     C25985  10.475   0.680   5.897 -0.1452 -0.4666  0.6645
  934MOL0     O25986  10.434   0.793   5.828  0.7406 -0.1649 -0.0606
  934MOL0     C25987  10.300   0.794   5.779  0.4777 -0.5620  0.0053
  934MOL0     C25988  10.265   0.714   5.681  0.4196 -0.1461  0.2874
  934MOL0     C25989  10.140   0.715   5.631 -0.2132  0.2004 -0.3590
  934MOL0     C25990  10.043   0.803   5.683  0.1175 -0.1184  0.4066
  934MOL0     O25991   9.914   0.791   5.627 -0.5449 -0.3115  0.3470
  934MOL0     C25992   9.820   0.897   5.656  0.0648  0.3792  0.0460
  934MOL0     C25993   9.685   0.878   5.594 -0.3747 -0.9171  0.1255
  934MOL0     C25994   9.617   1.014   5.579 -0.1534 -0.4892  0.1904
  934MOL0     C25995   9.477   1.011   5.541 -0.0374 -0.4576 -0.1896
  934MOL0     C25996   9.425   1.147   5.477 -0.1196  0.7630 -0.1698
  934MOL0     C25997   9.274   1.132   5.458  0.2346 -0.1721 -0.7011
  934MOL0     C25998   9.211   1.262   5.400 -0.0773  0.3232 -0.4792
  934MOL0     C25999   9.069   1.279   5.439  0.3747 -0.6455 -0.1222
  934MOL0    Cl26000   8.962   1.133   5.418  0.3496  0.2673 -0.0528
  934MOL0     C26001  10.074   0.886   5.795  0.0405  0.1274 -0.2001
  934MOL0     C26002  10.207   0.879   5.841 -0.0698 -0.0181 -0.6863
  934MOL0     O26003  10.400   0.597   5.944 -0.2070  0.2868  0.2333
  934MOL0     C26004  10.690   0.801   5.924 -0.6707  0.6664  1.0122
  934MOL0     C26005  10.831   0.804   5.958 -0.2891 -0.6353 -1.0045
  934MOL0     N26006  11.219   0.820   6.553 -0.6819 -0.6502 -0.0547
  934MOL0     N26007  11.197   0.748   6.664  0.2394 -0.9988 -0.1592
  934MOL0     C26008  10.652   0.121   7.580  0.0096  0.3896 -0.3050
  934MOL0     C26009  10.523   0.148   7.633 -0.4481 -0.5114  0.0944
  934MOL0     C26010  10.100   0.086   7.788 -0.8683 -0.3055 -0.6034
  934MOL0     C26011  10.018   0.063   7.674 -0.0455  0.0085 -0.8408
  934MOL0     C26012   9.886   0.080   7.689 -0.2098  1.1889 -0.1530
  934MOL0     C26013   9.826   0.096   7.817  0.1064 -0.2546  1.0880
  934MOL0     O26014   9.689   0.087   7.819 -0.0469 -0.5387  0.2673
  934MOL0     C26015   9.609   0.053   7.706  0.3042  0.2588 -0.5590
  934MOL0     C26016   9.464   0.045   7.736  0.2058  0.3372 -0.5307
  934MOL0     C26017   9.417   0.192   7.757 -0.1803 -0.4653 -0.7408
  934MOL0     C26018   9.271   0.192   7.810 -0.0986 -0.0864 -0.5560
  934MOL0     C26019   9.175   0.162   7.715  0.3266  0.6955  0.3815
  934MOL0     C26020   9.084   0.121   7.643  0.4729  0.5022  0.5826
  934MOL0     C26021   9.908   0.122   7.923  0.4791  0.0321 -0.0837
  934MOL0     C26022  10.042   0.114   7.916 -0.7289 -0.0293 -0.5245
  934MOL0     H26023  10.353  -0.117   7.510 -0.0322  0.5012  0.6924
  934MOL0     H26024  10.580  -0.176   7.432  0.5653 -0.3386  1.3674
  934MOL0     H26025  10.789   0.184   7.363 -1.3189 -1.0236  1.6734
  934MOL0     H26026  10.942   0.106   7.405 -1.5000 -0.8482  3.7786
  934MOL0     H26027  10.912   0.001   7.171 -0.5947 -0.7119  0.5249
  934MOL0     H26028  10.748   0.059   7.160 -0.6910  1.5100 -0.2754
  934MOL0     H26029  10.864   0.298   7.179 -2.5546 -0.3933  0.0832
  934MOL0     H26030  11.017   0.205   7.138 -0.4960  0.7727  1.7232
  934MOL0     H26031  10.931   0.159   6.920  0.8403 -0.0805  0.2008
  934MOL0     H26032  10.764   0.209   6.961  0.4467 -2.5473 -0.2855
  934MOL0     H26033  10.811   0.437   6.949 -1.6734 -2.3343  0.6221
  934MOL0     H26034  10.992   0.421   6.954  1.9147  0.0159 -0.6737
  934MOL0     H26035  10.976   0.299   6.723 -0.5218 -0.0838 -1.7471
  934MOL0     H26036  10.804   0.317   6.738 -0.4739  1.9623 -1.2133
  934MOL0     H26037  10.885   0.490   6.603 -1.2112  3.2184 -0.1095
  934MOL0     H26038  10.831   0.558   6.754 -0.2784 -0.3186 -1.3657
  934MOL0     H26039  11.128   0.485   6.727 -1.1000 -0.2595 -0.5553
  934MOL0     H26040  11.052   0.608   6.828  0.9807  3.9924 -1.7537
  934MOL0     H26041  10.989   0.623   6.447  0.4334 -2.0425  0.6544
  934MOL0     H26042  11.013   0.801   6.288 -1.7744  4.1864  1.1278
  934MOL0     H26043  11.130   0.931   6.300  1.9870  0.4055  1.1020
  934MOL0     H26044  11.207   0.650   6.227 -3.4338  0.1219 -0.8370
  934MOL0     H26045  11.319   0.774   6.296 -0.1568 -1.9861 -0.0032
  934MOL0     H26046  11.296   0.731   6.026  0.3165  1.3114  0.5681
  934MOL0     H26047  11.283   0.898   6.090 -0.4788  0.1827 -2.2823
  934MOL0     H26048  11.111   0.821   5.916 -1.1240  2.9635 -0.0035
  934MOL0     H26049  11.047   0.895   6.067  0.0546 -1.5498  4.0486
  934MOL0     H26050  10.882   0.484   6.049  0.2900 -0.1905  2.5410
  934MOL0     H26051  10.559   0.397   5.931 -0.1901  0.9194 -1.6931
  934MOL0     H26052  10.711   0.353   6.023  1.5987  1.9730 -1.9165
  934MOL0     H26053  10.585   0.436   6.106  1.6108  0.7533  0.7030
  934MOL0     H26054  10.332   0.644   5.631 -0.4531  1.5478 -3.6437
  934MOL0     H26055  10.117   0.652   5.546  3.7441  0.4195 -1.7962
  934MOL0     H26056   9.804   0.907   5.764 -0.1676  3.7605 -0.2140
  934MOL0     H26057   9.852   0.998   5.632 -2.7032  1.9222  2.2707
  934MOL0     H26058   9.706   0.836   5.495 -0.8136  0.2273 -0.4690
  934MOL0     H26059   9.620   0.808   5.649 -3.0088 -0.0526 -1.6858
  934MOL0     H26060   9.665   1.077   5.503 -0.1631 -1.6016 -0.7641
  934MOL0     H26061   9.630   1.076   5.668 -0.1599  1.0713 -0.8568
  934MOL0     H26062   9.475   0.925   5.473  1.2450 -1.5685  1.1117
  934MOL0     H26063   9.412   0.992   5.628 -2.8223  1.2269 -1.7349
  934MOL0     H26064   9.474   1.166   5.381  3.7606  1.4651  1.7739
  934MOL0     H26065   9.440   1.228   5.548  3.1463  0.0781  0.0752
  934MOL0     H26066   9.265   1.039   5.403  1.9838  0.5273 -2.2876
  934MOL0     H26067   9.227   1.118   5.556 -2.4061  0.4057 -1.8158
  934MOL0     H26068   9.200   1.253   5.291  0.2471 -0.8733 -0.4292
  934MOL0     H26069   9.272   1.350   5.422 -1.2998  0.5263  2.4938
  934MOL0     H26070   9.026   1.353   5.371 -0.9944 -0.1253  1.2602
  934MOL0     H26071   9.055   1.322   5.539  2.1969  3.4320 -1.4155
  934MOL0     H26072  10.001   0.953   5.839 -4.2558 -5.5905  2.7818
  934MOL0     H26073  10.247   0.942   5.921  0.9344 -2.1336  0.5510
  934MOL0     H26074  10.637   0.891   5.894  2.5671  2.2415 -0.5177
  934MOL0     H26075  10.878   0.901   5.954 -1.1911 -0.0193  1.4792
  934MOL0     H26076  10.731   0.196   7.586 -1.8468  2.2813  3.4594
  934MOL0     H26077  10.509   0.244   7.681  0.4588  0.3335 -1.2727
  934MOL0     H26078  10.057   0.042   7.575  0.4081  0.7781 -0.8317
  934MOL0     H26079   9.829   0.051   7.601 -2.4441  1.6533  1.0708
  934MOL0     H26080   9.636   0.115   7.620 -0.4042 -1.4490 -2.0867
  934MOL0     H26081   9.636  -0.050   7.682  0.2190 -0.5286  2.3559
  934MOL0     H26082   9.441  -0.024   7.817 -0.5143  2.1126  0.8697
  934MOL0     H26083   9.416   0.014   7.643  0.0718 -1.9564  0.2460
  934MOL0     H26084   9.419   0.250   7.665 -0.7865 -0.4517 -0.7493
  934MOL0     H26085   9.476   0.247   7.831 -2.5293  0.5377  0.4589
  934MOL0     H26086   9.235   0.288   7.847 -1.6585 -0.2571 -1.5630
  934MOL0     H26087   9.263   0.121   7.894  1.2406  1.5317  1.0328
  934MOL0     H26088   9.008   0.087   7.576 -0.6187 -2.4639  3.0692
  934MOL0     H26089   9.877   0.140   8.025 -0.3790  1.1457 -0.5269
  934MOL0     H26090  10.095   0.134   8.009 -2.7184 -4.1338  1.7751
  935MOL0     O26091   8.793   0.382   5.231  0.0201  0.2322 -0.3473
  935MOL0     C26092   8.811   0.261   5.247 -0.0754 -1.2496  0.7244
  935MOL0     O26093   8.713   0.166   5.232 -0.4874 -0.0824 -0.4113
  935MOL0     C26094   8.589   0.209   5.189  0.0418  1.3572 -0.6449
  935MOL0     C26095   8.563   0.231   5.061  0.9016  0.4855 -0.2361
  935MOL0     C26096   8.433   0.282   5.025 -0.9788 -0.6074  0.6589
  935MOL0     C26097   8.326   0.287   5.110  0.5007 -0.0113 -0.0721
  935MOL0     O26098   8.199   0.321   5.071 -0.2072  0.2821 -0.4282
  935MOL0     C26099   8.191   0.435   4.984 -0.0817 -0.2907  0.5520
  935MOL0     C26100   8.216   0.570   5.053 -0.2821 -0.4310 -0.0456
  935MOL0     C26101   8.166   0.688   4.970  0.4997  0.9801  0.4263
  935MOL0     C26102   8.166   0.811   5.072 -1.3781  0.6193 -0.0122
  935MOL0     C26103   8.038   0.835   5.148  0.3049 -0.3768  0.9080
  935MOL0     C26104   8.049   0.963   5.236 -0.3916  0.3261  0.5690
  935MOL0     C26105   7.938   0.995   5.328 -0.3400  0.3020  0.7809
  935MOL0     C26106   7.802   0.979   5.258 -0.3797 -0.2147 -0.0140
  935MOL0     N26107   7.776   1.066   5.138 -0.3551  0.4597 -0.4158
  935MOL0     C26108   7.817   1.195   5.120 -0.3400  0.5200 -0.3988
  935MOL0     C26109   7.764   1.239   5.007 -0.1789 -0.1914  0.3768
  935MOL0     C26110   7.790   1.374   4.946 -0.6804  0.9159  0.7680
  935MOL0     C26111   7.727   1.470   5.050 -0.5582  0.1399  0.0949
  935MOL0     C26112   7.708   1.612   4.985  0.3461  0.3784  0.0445
  935MOL0     C26113   7.716   1.733   5.082 -0.5698  0.6095  0.2507
  935MOL0     O26114   7.836   1.726   5.170  1.0290 -0.3970 -0.6535
  935MOL0     C26115   7.826   1.691   5.306 -1.0700  0.1523  0.0369
  935MOL0     C26116   7.945   1.695   5.388 -0.4966  0.9122  0.7130
  935MOL0     C26117   7.941   1.689   5.522  1.3435  0.6557 -0.4959
  935MOL0     C26118   8.078   1.693   5.584  0.7747  0.1089 -0.3467
  935MOL0     C26119   7.813   1.665   5.588  0.2567 -0.8096  0.7059
  935MOL0     C26120   7.783   1.640   5.730 -0.6718  0.0162  0.0904
  935MOL0     O26121   7.664   1.580   5.758  0.8237 -0.9493  0.4561
  935MOL0     C26122   7.630   1.566   5.891 -0.0130 -0.2284  0.3167
  935MOL0     C26123   7.637   1.663   5.994  0.4642  0.0666  0.0182
  935MOL0     C26124   7.615   1.632   6.131 -0.4033  0.2085 -0.2206
  935MOL0     C26125   7.558   1.506   6.167 -0.4964  0.1249  0.0219
  935MOL0     O26126   7.509   1.489   6.295 -0.2745 -0.0098 -0.9190
  935MOL0     C26127   7.433   1.367   6.324  0.1364 -0.9928  0.3637
  935MOL0     C26128   7.284   1.375   6.279 -0.2219 -0.8586 -0.3121
  935MOL0     C26129   7.204   1.481   6.351  0.2152  0.1969 -0.0951
  935MOL0     C26130   7.199   1.609   6.280 -0.5947 -1.2107  0.5561
  935MOL0     C26131   7.143   1.722   6.372 -0.8768  0.0292  0.7632
  935MOL0     C26132   7.013   1.696   6.444 -0.6193 -0.5966  0.3790
  935MOL0     C26133   6.960   1.817   6.514 -0.0665  0.0886  0.5779
  935MOL0     C26134   6.822   1.812   6.569  0.0488 -0.1097 -0.1895
  935MOL0    Cl26135   6.693   1.788   6.449  0.0167  0.1048 -0.1249
  935MOL0     C26136   7.551   1.414   6.064  0.8308  0.8048 -0.3028
  935MOL0     C26137   7.592   1.438   5.934  0.1979 -0.5534  0.1030
  935MOL0     O26138   7.868   1.675   5.811 -0.2900  0.2410 -0.6496
  935MOL0     C26139   7.695   1.648   5.507 -0.7162  0.3533  0.3886
  935MOL0     C26140   7.702   1.676   5.372 -0.0952  0.9333 -0.0819
  935MOL0     N26141   7.696   1.133   4.950  0.2655 -0.2647  0.4757
  935MOL0     N26142   7.710   1.026   5.027  0.1870  0.2295  0.0851
  935MOL0     C26143   8.351   0.242   5.245  0.6979 -1.3397  0.2158
  935MOL0     C26144   8.485   0.216   5.282  0.9332 -0.6176  0.7394
  935MOL0     C26145   8.956   0.226   5.283  0.4926  0.3884 -0.6021
  935MOL0     C26146   8.988   0.096   5.336  0.0643 -1.1395  0.1117
  935MOL0     C26147   9.125   0.071   5.378  0.3528 -0.7061 -0.4908
  935MOL0     C26148   9.224   0.176   5.360 -0.1017 -0.2886 -0.0265
  935MOL0     O26149   9.357   0.165   5.392  0.2829  0.1883  0.5072
  935MOL0     C26150   9.414   0.055   5.472 -0.6235 -0.5888 -0.5258
  935MOL0     C26151   9.448   0.096   5.613  0.2157  0.0004  0.5211
  935MOL0     C26152   9.530   0.001   5.703 -0.1819  0.6631 -0.1283
  935MOL0     C26153   9.659  -0.037   5.640  0.0710 -0.5565 -0.0945
  935MOL0     C26154   9.641  -0.161   5.571  0.1579 -0.5722  0.0586
  935MOL0     C26155   9.628  -0.262   5.501  0.5301 -0.9521 -0.0703
  935MOL0     C26156   9.190   0.294   5.299 -0.2468  0.0682 -0.8093
  935MOL0     C26157   9.060   0.316   5.258 -0.0558  0.6487  0.5470
  935MOL0     H26158   8.641   0.215   4.987  0.9188 -1.8989  0.2371
  935MOL0     H26159   8.414   0.289   4.918  0.4145 -0.2155  0.4168
  935MOL0     H26160   8.250   0.440   4.892  0.2571  1.2467  0.8107
  935MOL0     H26161   8.087   0.428   4.952  0.6216 -3.4178 -1.4497
  935MOL0     H26162   8.155   0.559   5.143 -0.2822 -0.1128 -0.0056
  935MOL0     H26163   8.318   0.589   5.088  0.1072 -0.9248 -0.9019
  935MOL0     H26164   8.238   0.704   4.889 -0.4587 -0.7895 -0.8458
  935MOL0     H26165   8.069   0.666   4.925 -0.2236  1.1505  1.8522
  935MOL0     H26166   8.244   0.795   5.147 -0.9256  0.2969 -0.5452
  935MOL0     H26167   8.181   0.899   5.010 -2.7272  1.3085  0.5882
  935MOL0     H26168   7.963   0.838   5.068  1.4749 -1.4056 -0.2807
  935MOL0     H26169   8.027   0.752   5.218 -1.7920 -0.8131  0.1318
  935MOL0     H26170   8.141   0.961   5.295 -1.4065 -1.3455  2.2346
  935MOL0     H26171   8.059   1.050   5.171  2.5052  1.5030  2.3870
  935MOL0     H26172   7.952   0.933   5.418  1.8478  0.0856  0.3639
  935MOL0     H26173   7.947   1.098   5.363  0.3976  1.6966 -3.0766
  935MOL0     H26174   7.716   0.992   5.324 -1.4574  1.4693 -1.6484
  935MOL0     H26175   7.789   0.877   5.221  0.0109 -1.1447  2.2237
  935MOL0     H26176   7.884   1.250   5.185  0.0221 -0.2704 -0.0970
  935MOL0     H26177   7.898   1.388   4.936 -0.5406 -0.1050  0.6980
  935MOL0     H26178   7.745   1.383   4.847  1.0971  1.7966 -0.0111
  935MOL0     H26179   7.782   1.474   5.145  0.2655  1.0360 -0.3984
  935MOL0     H26180   7.629   1.443   5.091 -0.3540  0.0352  0.5152
  935MOL0     H26181   7.616   1.613   4.927 -0.7445 -0.6518  1.6855
  935MOL0     H26182   7.788   1.626   4.912 -0.8535 -1.8876 -1.8290
  935MOL0     H26183   7.623   1.737   5.139  0.2639 -3.0078  2.1528
  935MOL0     H26184   7.728   1.817   5.013 -0.4767 -0.1179 -0.6357
  935MOL0     H26185   8.046   1.709   5.350  0.1847 -1.0806  1.6268
  935MOL0     H26186   8.145   1.614   5.546  4.4660  1.5133  2.6424
  935MOL0     H26187   8.133   1.783   5.553 -0.1175  0.0875 -2.1378
  935MOL0     H26188   8.086   1.685   5.693 -0.4017 -0.6017 -0.2940
  935MOL0     H26189   7.648   1.769   5.972  0.7254  0.2311  0.9360
  935MOL0     H26190   7.620   1.711   6.205 -1.7201 -0.9490  1.1732
  935MOL0     H26191   7.476   1.272   6.291 -0.2387 -0.4425 -1.9036
  935MOL0     H26192   7.423   1.356   6.432  0.7702 -1.6382  0.3636
  935MOL0     H26193   7.276   1.399   6.173  0.3000  0.9544  0.0344
  935MOL0     H26194   7.239   1.275   6.272 -1.5327 -0.2545 -1.0856
  935MOL0     H26195   7.248   1.485   6.451 -0.3709 -3.4166  0.4325
  935MOL0     H26196   7.103   1.441   6.357  0.3937 -0.1442  0.7377
  935MOL0     H26197   7.297   1.650   6.256 -0.2733 -0.5245  2.7986
  935MOL0     H26198   7.136   1.602   6.191 -1.1811 -1.2422  0.9623
  935MOL0     H26199   7.131   1.803   6.300  1.0650 -1.6613 -1.6630
  935MOL0     H26200   7.215   1.741   6.452 -0.1055  0.9537 -0.1270
  935MOL0     H26201   6.937   1.675   6.368  0.2466  0.2241 -0.7507
  935MOL0     H26202   7.015   1.608   6.510 -0.4440 -2.2384 -1.7102
  935MOL0     H26203   6.965   1.899   6.442  1.4364 -0.3803  0.1074
  935MOL0     H26204   7.029   1.829   6.598 -0.1325 -2.7573  1.1311
  935MOL0     H26205   6.800   1.898   6.632  0.9898 -1.0261  1.4617
  935MOL0     H26206   6.813   1.732   6.644 -1.2551  1.4953  1.4541
  935MOL0     H26207   7.506   1.317   6.086 -2.1065  2.0007 -0.5067
  935MOL0     H26208   7.604   1.359   5.860  0.0479 -1.8777  1.4312
  935MOL0     H26209   7.597   1.612   5.537 -1.4734  1.0776 -1.1026
  935MOL0     H26210   7.604   1.670   5.326 -2.1204  1.9601  3.6576
  935MOL0     H26211   8.274   0.249   5.321  1.6518 -3.6504  1.5120
  935MOL0     H26212   8.492   0.205   5.390 -0.0964  4.5470  1.6161
  935MOL0     H26213   8.906   0.029   5.358 -0.7729  0.4209  2.0720
  935MOL0     H26214   9.155  -0.020   5.429  3.6181  0.8762  0.6970
  935MOL0     H26215   9.350  -0.033   5.474  0.8327 -1.7043  1.9028
  935MOL0     H26216   9.512   0.042   5.425 -0.4409 -0.0245 -0.3140
  935MOL0     H26217   9.357   0.115   5.669  0.2078 -1.2754  0.9876
  935MOL0     H26218   9.507   0.187   5.597 -0.6756  0.9807  2.4784
  935MOL0     H26219   9.467  -0.085   5.729  0.2561  0.5073  0.4492
  935MOL0     H26220   9.536   0.042   5.805  0.0682 -0.1132  0.1761
  935MOL0     H26221   9.736  -0.046   5.718  0.4231  1.8246 -0.0888
  935MOL0     H26222   9.695   0.045   5.577 -0.2200 -1.2775 -1.2210
  935MOL0     H26223   9.620  -0.347   5.435  2.1770 -1.0020 -0.2363
  935MOL0     H26224   9.268   0.368   5.281  1.5989 -2.1333 -2.5155
  935MOL0     H26225   9.053   0.416   5.216 -0.0044  0.2719 -0.3693
  936MOL0     O26226   8.009   9.492   7.270 -0.8920  0.9658  0.3023
  936MOL0     C26227   7.928   9.583   7.265 -0.2227 -0.8164 -0.1488
  936MOL0     O26228   7.801   9.564   7.235  0.9208 -0.0630  0.2067
  936MOL0     C26229   7.752   9.447   7.200  0.3398 -0.4420 -0.1777
  936MOL0     C26230   7.729   9.340   7.297  0.1941 -0.1718  0.7229
  936MOL0     C26231   7.645   9.232   7.279 -0.3820 -0.4809  0.0148
  936MOL0     C26232   7.582   9.216   7.153  0.5024 -0.5542  0.7817
  936MOL0     O26233   7.493   9.120   7.121  0.0000  0.1086  0.8795
  936MOL0     C26234   7.483   9.008   7.202 -0.2326  0.0966 -0.1722
  936MOL0     C26235   7.392   8.909   7.137  0.4702  0.6906 -1.3254
  936MOL0     C26236   7.239   8.947   7.131 -0.2547  0.3548 -0.3469
  936MOL0     C26237   7.141   8.858   7.048  0.1674  0.7394 -0.3115
  936MOL0     C26238   7.005   8.922   7.041  0.1545  0.0068  0.2065
  936MOL0     C26239   6.918   8.828   6.951 -0.0193  0.8245  0.5829
  936MOL0     C26240   6.924   8.873   6.803  0.9915 -0.7287 -0.9139
  936MOL0     C26241   6.849   8.783   6.706  0.0357  0.3030  0.2983
  936MOL0     N26242   6.940   8.667   6.672  0.0194 -0.2518 -0.4141
  936MOL0     C26243   7.055   8.665   6.595  0.4661 -0.3416 -0.5455
  936MOL0     C26244   7.084   8.536   6.588 -0.2553  0.0434 -0.2391
  936MOL0     C26245   7.186   8.478   6.499 -0.7289  1.6030  0.3573
  936MOL0     C26246   7.328   8.468   6.563  0.7575 -0.1857  0.2840
  936MOL0     C26247   7.402   8.366   6.477  0.3464 -0.3625  0.1734
  936MOL0     C26248   7.550   8.383   6.488 -0.1637  0.0648 -0.1759
  936MOL0     O26249   7.607   8.259   6.442  0.0130  0.1288 -0.8952
  936MOL0     C26250   7.744   8.252   6.417  0.6303 -0.4201 -0.3152
  936MOL0     C26251   7.798   8.134   6.366 -0.0145 -0.5208 -0.9471
  936MOL0     C26252   7.931   8.101   6.378 -0.1723  0.5818  1.2085
  936MOL0     C26253   7.976   7.960   6.343 -0.1569 -0.5043 -0.1531
  936MOL0     C26254   8.021   8.202   6.421 -0.4991 -0.0030 -0.6587
  936MOL0     C26255   8.166   8.185   6.437  0.0725 -0.3633 -0.0440
  936MOL0     O26256   8.236   8.276   6.508  0.3704 -0.8006 -0.4318
  936MOL0     C26257   8.363   8.269   6.561 -0.4061  0.4763 -0.3221
  936MOL0     C26258   8.431   8.151   6.593 -0.9657 -0.1695 -0.3031
  936MOL0     C26259   8.565   8.154   6.634 -0.1141 -0.7264  0.6512
  936MOL0     C26260   8.637   8.280   6.651 -1.3339 -0.3416  0.0044
  936MOL0     O26261   8.762   8.304   6.709  0.2165  0.5099  0.2181
  936MOL0     C26262   8.819   8.175   6.745 -0.4415  0.4160 -0.6033
  936MOL0     C26263   8.952   8.202   6.823  0.1533  0.9163 -0.1825
  936MOL0     C26264   8.994   8.087   6.917  0.2741 -0.4107  0.8095
  936MOL0     C26265   9.008   7.947   6.861  0.4920 -0.3227  0.4609
  936MOL0     C26266   9.099   7.875   6.960  0.1335 -0.2787  0.5960
  936MOL0     C26267   9.160   7.749   6.906  0.1450 -0.6351  0.4397
  936MOL0     C26268   9.206   7.650   7.015 -0.0896  0.6603  0.4780
  936MOL0     C26269   9.317   7.557   6.960 -0.3530 -0.1913 -0.1482
  936MOL0    Cl26270   9.469   7.637   6.912  0.4479  0.4820  0.2298
  936MOL0     C26271   8.565   8.395   6.621  0.0388 -0.1072  0.1720
  936MOL0     C26272   8.435   8.388   6.559  0.0076 -0.2201  0.3825
  936MOL0     O26273   8.209   8.076   6.405 -0.5257  1.0697  0.3598
  936MOL0     C26274   7.968   8.330   6.441  0.3227 -0.1684  0.2572
  936MOL0     C26275   7.829   8.357   6.426 -0.0466  0.3148 -0.2973
  936MOL0     N26276   6.998   8.466   6.672  0.0904  0.7601  0.0832
  936MOL0     N26277   6.912   8.543   6.730  0.4152  0.0070  0.0926
  936MOL0     C26278   7.626   9.302   7.042  0.7014 -0.3544  0.5279
  936MOL0     C26279   7.701   9.426   7.071 -0.3869  0.4740  0.7727
  936MOL0     C26280   7.974   9.715   7.305 -0.3549  0.1028  0.5764
  936MOL0     C26281   7.890   9.828   7.286 -0.1456 -0.5118 -0.4218
  936MOL0     C26282   7.942   9.951   7.320 -0.0829 -0.5281  0.2648
  936MOL0     C26283   8.065   9.962   7.388 -0.0541 -0.3605 -0.1514
  936MOL0     O26284   8.106  10.087   7.431 -0.7057 -0.4926  0.2437
  936MOL0     C26285   8.225  10.108   7.509  0.1337 -0.0646 -0.3514
  936MOL0     C26286   8.202  10.237   7.581 -0.1411  0.5418 -0.2102
  936MOL0     C26287   8.330  10.285   7.664 -0.3448 -0.4525 -0.0716
  936MOL0     C26288   8.441  10.342   7.568 -0.5116 -0.8595 -0.4412
  936MOL0     C26289   8.406  10.450   7.483  0.6828 -0.1773 -0.0363
  936MOL0     C26290   8.383  10.526   7.395  0.3415 -0.2584  0.6028
  936MOL0     C26291   8.143   9.849   7.410 -0.0339 -0.0499 -1.0182
  936MOL0     C26292   8.103   9.730   7.365  0.6105 -0.8385 -0.0613
  936MOL0     H26293   7.763   9.351   7.400 -0.7911 -1.6458  1.2467
  936MOL0     H26294   7.630   9.153   7.352  2.5515 -1.6762 -0.5727
  936MOL0     H26295   7.574   8.947   7.209 -1.1677 -1.3176  0.0311
  936MOL0     H26296   7.451   9.035   7.303 -2.1373  1.4482 -1.0841
  936MOL0     H26297   7.426   8.894   7.034  2.1166 -1.3627 -0.5575
  936MOL0     H26298   7.386   8.812   7.187 -1.0564  2.4669  2.2894
  936MOL0     H26299   7.196   8.962   7.230  2.2691  2.7785  0.5126
  936MOL0     H26300   7.234   9.043   7.079  0.2941  1.0811  0.9254
  936MOL0     H26301   7.179   8.845   6.946  0.7833  0.8242 -0.1004
  936MOL0     H26302   7.140   8.761   7.098  0.4990  2.0711  2.4797
  936MOL0     H26303   6.956   8.927   7.139  1.9191 -2.0287  1.2732
  936MOL0     H26304   7.009   9.022   6.997  0.8340 -1.4529 -3.3532
  936MOL0     H26305   6.938   8.720   6.951  0.6150  0.9368  1.1105
  936MOL0     H26306   6.814   8.832   6.984 -0.5114 -1.5316 -0.4781
  936MOL0     H26307   6.875   8.969   6.790 -3.0375 -2.7624 -2.5202
  936MOL0     H26308   7.028   8.881   6.770  2.7775  1.7521  4.2789
  936MOL0     H26309   6.832   8.846   6.618  1.6812  1.3080  0.6674
  936MOL0     H26310   6.754   8.743   6.742  0.8763 -2.2694 -0.1358
  936MOL0     H26311   7.099   8.741   6.531 -0.0553 -0.9071 -1.5908
  936MOL0     H26312   7.144   8.390   6.450  0.6170  1.8253 -1.2966
  936MOL0     H26313   7.197   8.549   6.417 -1.3070 -0.3364 -1.4752
  936MOL0     H26314   7.321   8.448   6.670  3.4773  2.5568  1.0848
  936MOL0     H26315   7.381   8.563   6.563 -0.0770  0.3026  1.5880
  936MOL0     H26316   7.370   8.369   6.373 -3.5106  1.9101  1.2240
  936MOL0     H26317   7.366   8.272   6.520 -3.9433  0.0684 -1.9879
  936MOL0     H26318   7.570   8.402   6.594 -2.3156  2.0737 -0.0580
  936MOL0     H26319   7.584   8.471   6.433 -0.5466  1.0119  1.0592
  936MOL0     H26320   7.718   8.064   6.343 -1.3812  0.1094  1.5589
  936MOL0     H26321   8.017   7.906   6.429 -0.9805  0.0494  0.6116
  936MOL0     H26322   7.903   7.892   6.299  1.8416 -2.1566 -1.0664
  936MOL0     H26323   8.050   7.950   6.263  0.7352 -2.4498  0.8517
  936MOL0     H26324   8.390   8.051   6.585 -0.2448 -0.3543 -2.4048
  936MOL0     H26325   8.617   8.062   6.658  0.4121 -0.2556  1.3914
  936MOL0     H26326   8.749   8.134   6.817  1.2326 -2.7847 -0.6063
  936MOL0     H26327   8.826   8.106   6.661 -1.1304  0.0302 -0.3471
  936MOL0     H26328   9.036   8.216   6.753 -0.2734  0.5681 -0.7757
  936MOL0     H26329   8.950   8.289   6.889 -1.2572  0.6062  0.2200
  936MOL0     H26330   8.938   8.078   7.011  0.4954  0.3676  1.0265
  936MOL0     H26331   9.094   8.124   6.942  0.9104 -0.8517 -0.9358
  936MOL0     H26332   8.913   7.892   6.855  1.6013 -2.1852 -2.0578
  936MOL0     H26333   9.056   7.946   6.763 -0.2909 -3.3386 -0.0158
  936MOL0     H26334   9.041   7.852   7.050 -2.0895  2.1374 -0.1090
  936MOL0     H26335   9.188   7.933   6.987  0.4540 -1.2587  1.7515
  936MOL0     H26336   9.083   7.708   6.840 -1.7699  1.0653  1.5065
  936MOL0     H26337   9.252   7.774   6.855  1.5027 -0.3098  2.8837
  936MOL0     H26338   9.123   7.581   7.032  0.3076 -1.4306 -4.3915
  936MOL0     H26339   9.255   7.705   7.096 -2.1705  1.1495  1.4644
  936MOL0     H26340   9.269   7.508   6.875  1.5370 -0.5775 -1.0430
  936MOL0     H26341   9.336   7.474   7.027  0.6558  0.0369 -0.1295
  936MOL0     H26342   8.617   8.490   6.615  0.4614 -0.4227 -2.5400
  936MOL0     H26343   8.377   8.474   6.528 -0.7475 -1.0913 -0.7049
  936MOL0     H26344   8.033   8.413   6.466 -2.0045  1.6603  0.5860
  936MOL0     H26345   7.798   8.458   6.449 -2.1235 -0.2535 -0.4459
  936MOL0     H26346   7.593   9.282   6.941  1.1327  0.6318  0.1840
  936MOL0     H26347   7.725   9.488   6.985 -1.8102 -0.3481 -0.2604
  936MOL0     H26348   7.797   9.815   7.232  0.5249 -2.1969 -1.2116
  936MOL0     H26349   7.893  10.042   7.287 -1.3434 -2.0246 -2.2706
  936MOL0     H26350   8.241  10.024   7.578 -3.1492 -0.5964 -0.0440
  936MOL0     H26351   8.314  10.118   7.447 -0.5248  0.5224 -1.2385
  936MOL0     H26352   8.128  10.217   7.659 -3.3909  0.9550 -2.9106
  936MOL0     H26353   8.156  10.319   7.524  4.5802  4.0519  0.4288
  936MOL0     H26354   8.373  10.200   7.717 -0.3515 -1.4298 -1.5587
  936MOL0     H26355   8.299  10.363   7.734  1.9546  0.3146  0.1683
  936MOL0     H26356   8.474  10.259   7.505  0.0961 -1.4595  0.6447
  936MOL0     H26357   8.527  10.375   7.628 -1.7562 -0.3649  1.1340
  936MOL0     H26358   8.362  10.593   7.314  0.9150 -0.4940  0.2535
  936MOL0     H26359   8.243   9.859   7.450 -0.8206 -2.2156  1.8431
  936MOL0     H26360   8.177   9.651   7.377  1.6232 -0.3358 -2.4792
  937MOL0     O26361   2.545   9.568  10.945  0.5164 -0.2720  0.4402
  937MOL0     C26362   2.525   9.485  10.858 -0.5611  0.2031 -0.0345
  937MOL0     O26363   2.424   9.393  10.858 -0.0426 -0.4158  0.0442
  937MOL0     C26364   2.345   9.374  10.969  1.0427  0.8753  0.7113
  937MOL0     C26365   2.392   9.380  11.104 -0.4151  0.0087  1.2268
  937MOL0     C26366   2.307   9.353  11.214 -0.2454 -0.7027 -0.0087
  937MOL0     C26367   2.167   9.340  11.199 -0.4767  0.2451  0.0164
  937MOL0     O26368   2.074   9.332  11.300 -0.4327 -0.2469  0.1635
  937MOL0     C26369   2.107   9.327  11.440 -0.1745 -0.5470  0.2937
  937MOL0     C26370   1.985   9.380  11.524  0.4538  0.0448 -0.5073
  937MOL0     C26371   2.025   9.378  11.667 -1.0643  0.4046  0.3697
  937MOL0     C26372   1.932   9.453  11.755 -0.0617 -0.0068 -0.9428
  937MOL0     C26373   1.885   9.370  11.878 -0.4598 -0.1888  1.0741
  937MOL0     C26374   1.788   9.256  11.832  0.1047 -0.4026  0.1236
  937MOL0     C26375   1.713   9.221  11.959  0.7290 -0.2718 -0.7763
  937MOL0     C26376   1.628   9.098  11.933  0.1448 -1.4970  0.0522
  937MOL0     N26377   1.537   9.061  12.035 -0.0091  0.1639  0.5100
  937MOL0     C26378   1.426   9.133  12.072 -0.6252 -0.0587 -0.3162
  937MOL0     C26379   1.355   9.046  12.139  0.8801  0.5465  0.5085
  937MOL0     C26380   1.214   9.073  12.192 -0.9924  0.2852 -0.0026
  937MOL0     C26381   1.217   9.108  12.341 -0.3023  0.2674  1.0615
  937MOL0     C26382   1.073   9.135  12.390  0.2533  0.5399  0.1760
  937MOL0     C26383   1.041   9.284  12.381 -0.0326  0.6212  0.7815
  937MOL0     O26384   0.907   9.297  12.431  0.4663 -0.5398  0.8855
  937MOL0     C26385   0.800   9.234  12.376 -0.0567  0.4458 -0.5023
  937MOL0     C26386   0.701   9.209  12.470  0.2178 -0.3733 -0.8257
  937MOL0     C26387   0.576   9.143  12.440  0.1304  0.3588  0.5312
  937MOL0     C26388   0.493   9.128  12.565 -0.4162 -0.2811 -0.0000
  937MOL0     C26389   0.556   9.098  12.309 -0.0038 -0.8214 -0.0831
  937MOL0     C26390   0.436   9.030  12.272 -0.2553 -0.4112  0.0043
  937MOL0     O26391   0.345   9.017  12.363  0.3548 -0.2500 -0.3401
  937MOL0     C26392   0.213   8.978  12.326 -0.0762 -0.7945 -0.2409
  937MOL0     C26393   0.122   9.081  12.292 -0.1884  0.6937  0.6095
  937MOL0     C26394  -0.017   9.053  12.267 -0.2380 -0.0862 -1.1239
  937MOL0     C26395  -0.051   8.922  12.277  0.4046  0.2998  0.6452
  937MOL0     O26396  -0.190   8.883  12.277 -0.8752 -0.5770 -1.4172
  937MOL0     C26397  -0.291   8.988  12.263 -0.4783 -0.7237  0.0454
  937MOL0     C26398  -0.426   8.928  12.254  0.6948 -0.3679 -1.1996
  937MOL0     C26399  -0.526   9.043  12.264 -0.5286  0.5467 -0.7525
  937MOL0     C26400  -0.673   9.013  12.206  0.3301  0.3815  0.2705
  937MOL0     C26401  -0.750   9.145  12.207  0.0424  0.7589 -0.2213
  937MOL0     C26402  -0.895   9.116  12.213 -0.3255  0.0236  0.5300
  937MOL0     C26403  -0.972   9.229  12.151 -0.1974  0.3913  1.1030
  937MOL0     C26404  -1.101   9.264  12.223 -0.0104 -0.0607 -0.5339
  937MOL0    Cl26405  -1.223   9.361  12.138 -0.5025 -0.0202  0.1438
  937MOL0     C26406   0.044   8.808  12.301  0.7533 -0.7167 -1.1920
  937MOL0     C26407   0.177   8.842  12.317  0.6106 -0.1026 -0.8993
  937MOL0     O26408   0.430   8.987  12.156 -0.4922  0.1044 -0.1622
  937MOL0     C26409   0.656   9.131  12.207 -0.4023  0.7696  0.4360
  937MOL0     C26410   0.773   9.189  12.248 -1.6432 -0.0250 -0.7923
  937MOL0     N26411   1.416   8.920  12.142  0.6818 -0.0205  0.0579
  937MOL0     N26412   1.519   8.932  12.076 -0.6799 -0.0291 -0.1758
  937MOL0     C26413   2.116   9.343  11.065 -0.5381 -0.2031 -0.1504
  937MOL0     C26414   2.202   9.352  10.951 -0.2479  0.5593 -0.7371
  937MOL0     C26415   2.627   9.503  10.751  0.1621 -0.3944 -1.1019
  937MOL0     C26416   2.598   9.452  10.630 -0.4201  0.0684  0.2532
  937MOL0     C26417   2.685   9.472  10.526  1.0282 -1.1519  0.5700
  937MOL0     C26418   2.795   9.562  10.530 -0.5661 -0.2377 -0.0125
  937MOL0     O26419   2.872   9.584  10.419 -0.2183  1.1606 -0.4188
  937MOL0     C26420   2.992   9.664  10.433  0.5429 -0.1134  1.1466
  937MOL0     C26421   3.070   9.640  10.300 -0.6917  1.1888  0.2261
  937MOL0     C26422   3.209   9.712  10.298  0.4655 -0.7600 -0.3863
  937MOL0     C26423   3.301   9.695  10.423  0.4903 -0.7326 -0.7185
  937MOL0     C26424   3.266   9.789  10.539  0.9161 -0.8837  0.6510
  937MOL0     C26425   3.244   9.861  10.635 -0.4486  0.2361 -0.4405
  937MOL0     C26426   2.815   9.630  10.649 -0.2589  0.0225 -0.5670
  937MOL0     C26427   2.737   9.591  10.767  0.3810 -0.2113 -0.2817
  937MOL0     H26428   2.498   9.403  11.102 -0.5283  0.5345  0.0607
  937MOL0     H26429   2.345   9.357  11.315  1.3299  1.0565 -0.6211
  937MOL0     H26430   2.124   9.223  11.468  0.4413  0.1083  2.6044
  937MOL0     H26431   2.195   9.381  11.477 -0.1731 -1.9297  2.4593
  937MOL0     H26432   1.948   9.480  11.502 -1.8606 -0.4280  0.8975
  937MOL0     H26433   1.899   9.313  11.510  1.6023 -1.3665 -1.0356
  937MOL0     H26434   2.049   9.276  11.698  1.1117  0.5716 -0.5794
  937MOL0     H26435   2.124   9.423  11.683 -1.1814  1.1360 -0.8394
  937MOL0     H26436   1.984   9.545  11.781 -1.6332  1.2346 -1.9450
  937MOL0     H26437   1.842   9.476  11.697  1.2189 -2.5898 -4.3521
  937MOL0     H26438   1.977   9.343  11.932  1.4762  0.8273 -1.5353
  937MOL0     H26439   1.826   9.435  11.944 -3.2787 -0.6609 -0.8336
  937MOL0     H26440   1.718   9.301  11.760 -0.2446  0.8318  1.1901
  937MOL0     H26441   1.848   9.174  11.792  0.0534  0.5158 -2.0228
  937MOL0     H26442   1.789   9.205  12.036  0.9474 -1.8558 -1.2853
  937MOL0     H26443   1.644   9.304  11.980  0.1618 -0.3844 -2.0646
  937MOL0     H26444   1.694   9.011  11.932 -0.3470 -1.9912  2.7295
  937MOL0     H26445   1.577   9.110  11.837 -2.8886  0.7391  1.7729
  937MOL0     H26446   1.392   9.229  12.036 -2.1974 -0.5433 -0.1852
  937MOL0     H26447   1.191   9.167  12.141  0.6190 -0.5389 -2.4736
  937MOL0     H26448   1.151   8.987  12.170  3.1130 -3.2734  0.6782
  937MOL0     H26449   1.270   9.201  12.363  0.0286  0.1536  0.7411
  937MOL0     H26450   1.258   9.026  12.400 -0.2513 -1.9349 -1.8249
  937MOL0     H26451   1.062   9.099  12.493 -1.1568 -2.5061 -0.9149
  937MOL0     H26452   1.002   9.083  12.325 -0.9281  0.8192  1.2205
  937MOL0     H26453   1.044   9.326  12.280  0.9851 -1.0274  0.0812
  937MOL0     H26454   1.104   9.336  12.454  1.7018 -1.6239  1.0039
  937MOL0     H26455   0.731   9.240  12.569  1.2562 -1.6526 -0.7125
  937MOL0     H26456   0.472   9.025  12.595  3.3594 -0.4540  2.7606
  937MOL0     H26457   0.547   9.173  12.649 -0.8794  0.5193 -0.1171
  937MOL0     H26458   0.400   9.186  12.566 -0.6034 -0.5437  1.7952
  937MOL0     H26459   0.161   9.181  12.310  1.3819  0.1270  0.4938
  937MOL0     H26460  -0.087   9.136  12.262 -1.8249 -1.0959  1.9135
  937MOL0     H26461  -0.275   9.057  12.346  0.6048 -0.6217 -0.2332
  937MOL0     H26462  -0.282   9.045  12.170 -1.5124 -0.9119 -0.1807
  937MOL0     H26463  -0.436   8.883  12.154  1.8812 -1.0844 -1.0143
  937MOL0     H26464  -0.444   8.860  12.337 -1.7594  2.1202  0.4539
  937MOL0     H26465  -0.482   9.121  12.202 -1.0091  0.5269 -1.1258
  937MOL0     H26466  -0.532   9.082  12.366 -0.3096  3.3231 -1.7330
  937MOL0     H26467  -0.661   8.970  12.106  0.8664 -2.7948  1.5735
  937MOL0     H26468  -0.727   8.938  12.265  0.0463  0.2745 -0.1273
  937MOL0     H26469  -0.725   9.202  12.118  0.7715 -0.4559 -0.8160
  937MOL0     H26470  -0.721   9.207  12.293 -3.7906  2.3157  0.1724
  937MOL0     H26471  -0.924   9.023  12.163  0.0554 -1.0578  2.2549
  937MOL0     H26472  -0.920   9.114  12.319 -1.3419  0.7855  0.3297
  937MOL0     H26473  -1.002   9.207  12.048 -0.3168  2.5924  0.6101
  937MOL0     H26474  -0.917   9.324  12.147 -1.5673  1.1634 -0.9176
  937MOL0     H26475  -1.089   9.299  12.326  1.9059 -1.4070 -0.2384
  937MOL0     H26476  -1.149   9.168  12.245  0.1448 -0.0196 -0.0036
  937MOL0     H26477  -0.004   8.711  12.295 -0.4186 -0.2327 -0.1159
  937MOL0     H26478   0.251   8.764  12.331  2.2882  1.5142 -0.3981
  937MOL0     H26479   0.656   9.092  12.105 -1.5968  3.8795 -0.8713
  937MOL0     H26480   0.850   9.190  12.171 -2.0935 -1.0728 -1.2704
  937MOL0     H26481   2.009   9.339  11.048 -0.6374  1.3289 -0.0238
  937MOL0     H26482   2.150   9.344  10.856 -0.3440  4.1354 -1.1195
  937MOL0     H26483   2.509   9.391  10.613  0.6749 -2.0717  1.6913
  937MOL0     H26484   2.663   9.419  10.435  1.2820 -0.9574  0.3941
  937MOL0     H26485   2.972   9.771  10.446  0.6431  0.0606 -0.0482
  937MOL0     H26486   3.040   9.624  10.523  0.6583 -1.9301  0.3162
  937MOL0     H26487   3.022   9.664  10.205  2.5364 -1.3662 -2.3212
  937MOL0     H26488   3.081   9.531  10.294  0.6724  1.3094  0.2297
  937MOL0     H26489   3.177   9.816  10.288  0.6031 -0.4613  1.8270
  937MOL0     H26490   3.276   9.684  10.217  0.9098 -0.9788  0.0524
  937MOL0     H26491   3.405   9.713  10.396  1.1689  0.1676  2.2005
  937MOL0     H26492   3.297   9.591  10.458 -0.7480 -0.2424  0.7110
  937MOL0     H26493   3.200   9.917  10.716 -2.2094 -0.6511 -0.7330
  937MOL0     H26494   2.887   9.711  10.655 -0.2043  0.1024 -1.9800
  937MOL0     H26495   2.751   9.640  10.863 -2.4779  1.0152 -0.3916
  938MOL0     O26496   0.451   3.359   2.991 -0.0637  0.2007  0.2118
  938MOL0     C26497   0.561   3.394   2.965  0.1680 -0.6969 -0.0436
  938MOL0     O26498   0.600   3.452   2.850  0.5225  0.8003 -0.3468
  938MOL0     C26499   0.519   3.456   2.739  1.0968  0.1111  0.0171
  938MOL0     C26500   0.419   3.361   2.702  0.1664 -0.6287 -0.7475
  938MOL0     C26501   0.351   3.369   2.583  0.1476 -0.2676  0.3822
  938MOL0     C26502   0.381   3.469   2.492 -0.6221 -0.7235 -0.0466
  938MOL0     O26503   0.324   3.480   2.373  0.6280  1.3631 -0.5635
  938MOL0     C26504   0.226   3.387   2.318  0.2054  0.6290  0.1290
  938MOL0     C26505   0.084   3.430   2.353  0.0242 -0.1160  0.3730
  938MOL0     C26506   0.044   3.552   2.261 -0.4377  0.4763 -0.0138
  938MOL0     C26507  -0.104   3.585   2.271 -1.0989 -0.5539  0.6975
  938MOL0     C26508  -0.195   3.517   2.171 -0.9651 -0.6069 -0.2365
  938MOL0     C26509  -0.219   3.364   2.201 -0.2259  0.1844 -0.1022
  938MOL0     C26510  -0.340   3.315   2.133 -0.7318 -0.0639  1.0862
  938MOL0     C26511  -0.478   3.341   2.197  0.0693  0.7225 -0.2559
  938MOL0     N26512  -0.587   3.278   2.133  0.0887  0.5854 -0.0601
  938MOL0     C26513  -0.661   3.334   2.034  0.4749 -1.0011  0.6803
  938MOL0     C26514  -0.766   3.251   1.998 -0.3612 -0.4461  0.2845
  938MOL0     C26515  -0.864   3.291   1.901  0.1431 -0.4497  0.2163
  938MOL0     C26516  -1.002   3.254   1.939  1.2307  0.2122 -0.1223
  938MOL0     C26517  -1.097   3.286   1.822 -0.0030 -0.3737 -0.2595
  938MOL0     C26518  -1.081   3.427   1.768 -0.4277  0.6120  0.2912
  938MOL0     O26519  -1.111   3.520   1.878  0.2312 -0.2839  0.1614
  938MOL0     C26520  -1.232   3.521   1.937  0.4813 -0.0244 -0.3560
  938MOL0     C26521  -1.351   3.502   1.862  0.1894 -0.9147 -0.2634
  938MOL0     C26522  -1.479   3.513   1.915  0.2207 -0.2018 -0.6479
  938MOL0     C26523  -1.596   3.486   1.822  0.5366  0.5484  0.0453
  938MOL0     C26524  -1.486   3.546   2.051 -0.2014 -0.7397 -0.4864
  938MOL0     C26525  -1.616   3.552   2.125  0.4825 -0.6622 -0.1789
  938MOL0     O26526  -1.717   3.624   2.073 -0.4626 -0.0800 -0.3248
  938MOL0     C26527  -1.838   3.642   2.139 -0.1508  0.7296 -0.2519
  938MOL0     C26528  -1.936   3.554   2.100  0.8126 -0.0808 -0.0764
  938MOL0     C26529  -2.064   3.583   2.145  0.0956  0.2182  0.4302
  938MOL0     C26530  -2.096   3.689   2.233 -0.1979  0.9346 -0.4631
  938MOL0     O26531  -2.228   3.721   2.273 -0.2111  0.2405 -0.0206
  938MOL0     C26532  -2.327   3.722   2.175  0.4208 -0.4450  0.2016
  938MOL0     C26533  -2.424   3.841   2.197  0.5226 -0.4254  0.6839
  938MOL0     C26534  -2.521   3.808   2.314 -1.0299 -0.2160  0.1045
  938MOL0     C26535  -2.633   3.912   2.333  0.2229  0.5501  0.1427
  938MOL0     C26536  -2.760   3.894   2.246 -0.2975 -0.1687  0.0890
  938MOL0     C26537  -2.834   3.769   2.266  0.5205 -0.5761 -0.0975
  938MOL0     C26538  -2.876   3.743   2.409 -1.3125  0.6193 -0.2727
  938MOL0     C26539  -2.926   3.603   2.428  0.4750  0.3069 -0.3392
  938MOL0    Cl26540  -3.077   3.567   2.349 -0.0505  0.1925  0.0422
  938MOL0     C26541  -1.996   3.772   2.269 -0.6577  0.3311 -0.0624
  938MOL0     C26542  -1.867   3.747   2.224  0.6122  0.1014 -0.2350
  938MOL0     O26543  -1.613   3.504   2.243 -0.1697 -0.2593  0.3873
  938MOL0     C26544  -1.371   3.566   2.130  0.2175 -0.5121  0.4535
  938MOL0     C26545  -1.248   3.557   2.072 -0.0819  0.2762 -0.0959
  938MOL0     N26546  -0.745   3.138   2.079 -1.1066 -0.6979 -0.2701
  938MOL0     N26547  -0.634   3.147   2.150 -0.1140 -0.6789  0.2432
  938MOL0     C26548   0.473   3.571   2.529  0.1960  0.2259  0.1861
  938MOL0     C26549   0.536   3.562   2.651  0.0722  0.1450  0.6821
  938MOL0     C26550   0.662   3.382   3.077  0.3453  0.2702  0.1716
  938MOL0     C26551   0.793   3.425   3.061 -0.9362 -0.4980 -0.2259
  938MOL0     C26552   0.874   3.422   3.173  0.8334  0.8421  0.4268
  938MOL0     C26553   0.832   3.362   3.297  0.7236 -0.4669  0.0808
  938MOL0     O26554   0.926   3.345   3.400  0.3590  0.7953  0.0339
  938MOL0     C26555   0.943   3.203   3.450 -0.3554  0.4004  0.1336
  938MOL0     C26556   1.085   3.186   3.500  0.1708  0.4614 -0.3750
  938MOL0     C26557   1.181   3.197   3.387  0.2645  0.0773  0.0503
  938MOL0     C26558   1.313   3.110   3.408 -0.5872  0.2981  0.9121
  938MOL0     C26559   1.383   3.166   3.516  0.4857 -0.2387 -1.5315
  938MOL0     C26560   1.440   3.217   3.609 -0.1738  0.0043 -0.5390
  938MOL0     C26561   0.703   3.315   3.303 -0.0634 -0.2164 -0.9887
  938MOL0     C26562   0.614   3.325   3.200  0.5548  0.4002 -0.0349
  938MOL0     H26563   0.399   3.285   2.777 -3.2950  2.9986  2.4736
  938MOL0     H26564   0.289   3.283   2.561 -2.2294  1.6212 -0.9170
  938MOL0     H26565   0.234   3.392   2.209 -2.6238  2.8252 -0.0765
  938MOL0     H26566   0.240   3.280   2.337  0.6788  0.6099 -0.3024
  938MOL0     H26567   0.008   3.353   2.333  0.5056 -0.5182  0.0781
  938MOL0     H26568   0.077   3.464   2.457  1.0760 -0.4442  0.5634
  938MOL0     H26569   0.098   3.641   2.296 -3.0250  2.5562 -1.0533
  938MOL0     H26570   0.068   3.539   2.155  1.2712  0.6160  0.3270
  938MOL0     H26571  -0.143   3.565   2.371 -0.9981 -1.8815  0.4905
  938MOL0     H26572  -0.108   3.690   2.241  0.4001 -1.4004 -3.2009
  938MOL0     H26573  -0.288   3.574   2.167 -0.6503 -0.1073 -0.5365
  938MOL0     H26574  -0.145   3.531   2.075 -1.4296  2.2810 -0.1356
  938MOL0     H26575  -0.135   3.308   2.160 -0.1124  0.3012 -0.0270
  938MOL0     H26576  -0.238   3.349   2.307 -2.4995  0.1003 -0.4765
  938MOL0     H26577  -0.345   3.362   2.035  1.5644 -1.2679  0.3155
  938MOL0     H26578  -0.342   3.209   2.106 -0.7797  0.5896 -1.7831
  938MOL0     H26579  -0.500   3.448   2.203  2.8643  1.5697 -2.6887
  938MOL0     H26580  -0.469   3.296   2.296  1.6081 -0.9804 -1.1057
  938MOL0     H26581  -0.648   3.430   1.985  0.9373 -1.0913  0.6271
  938MOL0     H26582  -0.851   3.398   1.882 -2.6721 -0.2698 -1.1540
  938MOL0     H26583  -0.843   3.237   1.808 -0.3322 -0.2985  0.0195
  938MOL0     H26584  -1.042   3.306   2.027 -2.3001 -2.3463  0.0336
  938MOL0     H26585  -1.001   3.146   1.957 -0.7260  0.3825  1.4085
  938MOL0     H26586  -1.196   3.256   1.855 -0.3298 -1.6476 -2.1961
  938MOL0     H26587  -1.071   3.217   1.740 -1.5204 -0.9850 -0.2619
  938MOL0     H26588  -1.164   3.443   1.698 -0.6124  0.5038  0.4857
  938MOL0     H26589  -0.983   3.446   1.721 -0.4766  1.0452  0.3681
  938MOL0     H26590  -1.342   3.464   1.761  1.0167 -2.1121  0.2430
  938MOL0     H26591  -1.670   3.424   1.874 -0.5539  1.3456 -0.5106
  938MOL0     H26592  -1.650   3.577   1.795  0.2356  0.0426 -1.1374
  938MOL0     H26593  -1.557   3.442   1.729 -0.0120  4.6051 -2.3597
  938MOL0     H26594  -1.922   3.468   2.036 -2.2678 -1.9605  1.5480
  938MOL0     H26595  -2.150   3.535   2.100 -0.4135  0.9255  0.6275
  938MOL0     H26596  -2.280   3.725   2.076 -0.3267 -0.3046 -0.1562
  938MOL0     H26597  -2.384   3.629   2.190 -1.6741  0.7491  0.0879
  938MOL0     H26598  -2.358   3.926   2.212  2.2070 -1.3697 -0.8947
  938MOL0     H26599  -2.480   3.844   2.103  0.8894  0.7901  0.4845
  938MOL0     H26600  -2.453   3.800   2.399 -0.1962 -3.3396 -0.7345
  938MOL0     H26601  -2.561   3.707   2.303  0.9891 -1.1213  0.6088
  938MOL0     H26602  -2.657   3.925   2.439  0.6761  0.1749  0.2989
  938MOL0     H26603  -2.576   4.002   2.307  0.2176  0.4415 -0.2485
  938MOL0     H26604  -2.753   3.908   2.138 -2.4778 -1.2794 -0.2476
  938MOL0     H26605  -2.822   3.978   2.278  0.3721 -0.6834  3.0867
  938MOL0     H26606  -2.926   3.776   2.207  1.0738  0.4270 -0.8702
  938MOL0     H26607  -2.784   3.684   2.219 -2.0949 -0.6138 -3.1310
  938MOL0     H26608  -2.959   3.810   2.434  0.0989  2.7304 -0.9934
  938MOL0     H26609  -2.799   3.758   2.485 -2.5843  0.0590  1.1906
  938MOL0     H26610  -2.946   3.603   2.536  0.3505  2.1388 -0.3364
  938MOL0     H26611  -2.846   3.530   2.414  0.5161  0.7183 -2.5267
  938MOL0     H26612  -2.031   3.846   2.340 -1.5513 -0.2428  0.1137
  938MOL0     H26613  -1.797   3.826   2.252 -1.6918  2.0836  0.2405
  938MOL0     H26614  -1.380   3.593   2.235  1.5193 -0.3018  0.5262
  938MOL0     H26615  -1.154   3.570   2.125 -0.3667  0.6567  0.3259
  938MOL0     H26616   0.495   3.651   2.460 -1.3442  1.6720  1.2984
  938MOL0     H26617   0.615   3.626   2.690 -0.4982 -0.0715  2.2461
  938MOL0     H26618   0.831   3.463   2.967  0.0206  1.2014  0.8113
  938MOL0     H26619   0.981   3.433   3.158  0.9201 -1.6513 -1.2559
  938MOL0     H26620   0.883   3.183   3.540 -4.4083 -1.3413 -2.6220
  938MOL0     H26621   0.919   3.133   3.369 -1.1783 -0.1536  0.8309
  938MOL0     H26622   1.094   3.090   3.552  0.0549  0.4150 -0.4388
  938MOL0     H26623   1.114   3.265   3.570  0.3171  2.6763 -2.7915
  938MOL0     H26624   1.202   3.302   3.362 -2.0713 -0.0238 -2.8298
  938MOL0     H26625   1.138   3.148   3.299  2.7360 -1.9155 -0.1651
  938MOL0     H26626   1.383   3.112   3.324  1.1947 -1.2013  2.2709
  938MOL0     H26627   1.302   3.006   3.441 -0.6520 -0.7623 -2.1224
  938MOL0     H26628   1.501   3.261   3.685 -0.4444  2.1915 -1.5181
  938MOL0     H26629   0.673   3.263   3.393 -1.2959 -0.0482 -1.2831
  938MOL0     H26630   0.513   3.287   3.211  1.0857 -0.5315  1.9555
  939MOL0     O26631   1.650   3.180   0.442 -0.7466 -0.3755  0.0832
  939MOL0     C26632   1.620   3.291   0.476 -0.1441  0.4549 -0.3451
  939MOL0     O26633   1.531   3.303   0.575  0.8597 -0.6236 -0.8440
  939MOL0     C26634   1.405   3.253   0.565  0.6189  0.2782  0.2131
  939MOL0     C26635   1.319   3.269   0.678 -1.0232 -0.1364 -0.2617
  939MOL0     C26636   1.183   3.246   0.660  0.4097 -0.0254  0.0210
  939MOL0     C26637   1.136   3.186   0.546  1.5569 -0.0315 -0.0737
  939MOL0     O26638   0.997   3.188   0.542 -0.4254  0.2656  0.5577
  939MOL0     C26639   0.940   3.112   0.436 -0.3338  1.0083  0.1282
  939MOL0     C26640   0.794   3.090   0.469  0.3430  0.0099  0.5411
  939MOL0     C26641   0.704   3.058   0.346 -0.3987 -0.4054 -0.0056
  939MOL0     C26642   0.580   2.989   0.375  0.4310  0.0030  1.0084
  939MOL0     C26643   0.497   2.971   0.246 -0.7582 -0.0733 -0.7282
  939MOL0     C26644   0.382   2.875   0.269  0.5371 -0.3929  0.9157
  939MOL0     C26645   0.281   2.858   0.143 -1.0780  0.5753 -0.4041
  939MOL0     C26646   0.178   2.971   0.138 -0.0954  0.0823 -0.0417
  939MOL0     N26647   0.082   2.963   0.022 -0.7549 -0.3061  0.3680
  939MOL0     C26648   0.093   3.034  -0.096  0.2385 -0.5637  1.1581
  939MOL0     C26649  -0.008   2.987  -0.170 -0.4250  0.2613 -0.3992
  939MOL0     C26650  -0.019   3.023  -0.313  0.6589 -0.4935 -0.2953
  939MOL0     C26651  -0.075   2.910  -0.400 -0.8295 -0.5705  0.2833
  939MOL0     C26652   0.005   2.886  -0.534  0.1686 -0.2526  0.4623
  939MOL0     C26653  -0.020   2.995  -0.639 -0.1670 -0.4517 -0.1226
  939MOL0     O26654  -0.160   3.004  -0.658  0.2116  1.0143  0.5589
  939MOL0     C26655  -0.226   3.111  -0.711  0.3772 -1.0195  0.2334
  939MOL0     C26656  -0.166   3.232  -0.754 -0.4712 -0.2036 -0.6923
  939MOL0     C26657  -0.234   3.338  -0.805  0.0850  0.7905 -0.3734
  939MOL0     C26658  -0.161   3.470  -0.831  0.6142  0.4428 -0.1709
  939MOL0     C26659  -0.370   3.323  -0.845  0.2042  0.8198  0.4106
  939MOL0     C26660  -0.465   3.425  -0.898  0.1460 -0.6146 -0.5153
  939MOL0     O26661  -0.447   3.555  -0.834 -0.4122  0.5636  0.6766
  939MOL0     C26662  -0.500   3.663  -0.891  0.1280 -0.0769  0.4854
  939MOL0     C26663  -0.425   3.775  -0.901  0.5719 -0.1091 -0.0427
  939MOL0     C26664  -0.481   3.896  -0.952 -0.0273 -0.9034 -0.6360
  939MOL0     C26665  -0.619   3.908  -0.980  0.2512 -0.5766  0.3442
  939MOL0     O26666  -0.674   4.025  -1.024 -0.3897  0.8497 -0.4728
  939MOL0     C26667  -0.627   4.068  -1.154 -0.7191  0.3268 -0.1575
  939MOL0     C26668  -0.695   3.972  -1.246 -0.4216 -0.4362 -0.3823
  939MOL0     C26669  -0.717   4.039  -1.387  1.1130  0.1478 -0.2400
  939MOL0     C26670  -0.812   3.949  -1.478 -0.6313 -0.1051 -0.8217
  939MOL0     C26671  -0.815   4.001  -1.617 -0.3251 -0.5324  0.5069
  939MOL0     C26672  -0.859   3.892  -1.721 -0.2783 -0.3392 -0.3027
  939MOL0     C26673  -0.918   3.966  -1.842 -0.5660  0.9844 -0.4313
  939MOL0     C26674  -0.943   3.878  -1.970  0.7073 -0.0363 -0.1413
  939MOL0    Cl26675  -0.791   3.822  -2.055 -0.1190 -0.1800 -0.1810
  939MOL0     C26676  -0.697   3.796  -0.969 -0.4190 -0.5582 -0.1642
  939MOL0     C26677  -0.634   3.676  -0.916  0.0493 -0.3025  0.1150
  939MOL0     O26678  -0.558   3.394  -0.973  0.0870  0.1170 -0.0844
  939MOL0     C26679  -0.432   3.196  -0.820 -0.4053  0.1616 -0.1558
  939MOL0     C26680  -0.356   3.097  -0.747  0.3990 -0.1646  0.4917
  939MOL0     N26681  -0.092   2.904  -0.095  0.5044 -0.7487 -0.8695
  939MOL0     N26682  -0.026   2.882   0.015  0.2982 -0.1609  0.7394
  939MOL0     C26683   1.226   3.149   0.444  0.8418  0.0620  0.6140
  939MOL0     C26684   1.360   3.181   0.449 -0.2988 -0.2919 -0.9442
  939MOL0     C26685   1.712   3.399   0.447 -0.2804 -0.4134 -0.3960
  939MOL0     C26686   1.689   3.525   0.506 -0.5312  0.3920  0.0501
  939MOL0     C26687   1.764   3.627   0.470 -0.1556  0.3159  0.3085
  939MOL0     C26688   1.878   3.614   0.382  0.6067  1.2957  0.0000
  939MOL0     O26689   1.941   3.726   0.334 -0.4001  0.3421  0.2853
  939MOL0     C26690   1.869   3.848   0.317  0.3085 -0.4536  0.3443
  939MOL0     C26691   1.937   3.933   0.209 -0.2970 -0.5695 -0.2799
  939MOL0     C26692   2.060   4.010   0.260 -0.9062  0.1656 -0.1870
  939MOL0     C26693   2.173   4.059   0.165 -0.0338  0.8550 -0.1404
  939MOL0     C26694   2.117   4.148   0.065 -0.3704 -0.2874  0.4512
  939MOL0     C26695   2.047   4.207  -0.017  0.5868 -0.0895 -0.3312
  939MOL0     C26696   1.916   3.489   0.356 -0.1458 -0.5968  0.2432
  939MOL0     C26697   1.835   3.377   0.381  0.6757  0.5081 -0.1267
  939MOL0     H26698   1.348   3.304   0.777  1.3036 -0.6932 -0.6790
  939MOL0     H26699   1.120   3.270   0.746  1.9431  1.8532  0.7110
  939MOL0     H26700   0.945   3.160   0.338 -1.3451  2.6644  0.8355
  939MOL0     H26701   0.985   3.013   0.433 -2.1444  0.0874  1.4164
  939MOL0     H26702   0.792   2.997   0.527 -1.8580 -0.3101  0.0478
  939MOL0     H26703   0.737   3.164   0.526  0.1137  1.3948 -1.3769
  939MOL0     H26704   0.681   3.158   0.307  3.5411  1.4600  1.8439
  939MOL0     H26705   0.765   3.007   0.271 -1.2494  0.5703 -1.3926
  939MOL0     H26706   0.598   2.889   0.415 -2.4330 -1.7811 -1.7092
  939MOL0     H26707   0.519   3.047   0.446 -0.6704  2.9019 -2.0575
  939MOL0     H26708   0.458   3.065   0.207 -1.0017  0.4344  0.6834
  939MOL0     H26709   0.567   2.927   0.174 -0.3379 -0.1106 -0.3087
  939MOL0     H26710   0.429   2.777   0.275  3.4035  0.7578 -0.8799
  939MOL0     H26711   0.328   2.892   0.363 -0.3183 -2.0860  0.7791
  939MOL0     H26712   0.336   2.841   0.050 -0.9663 -0.1995 -0.2025
  939MOL0     H26713   0.219   2.770   0.160 -1.8801  0.7446 -2.2741
  939MOL0     H26714   0.218   3.072   0.124  1.4770 -0.7018 -1.5681
  939MOL0     H26715   0.130   2.986   0.235  2.3476  2.4342  0.9387
  939MOL0     H26716   0.154   3.119  -0.125  0.6113  0.0384  3.5187
  939MOL0     H26717  -0.080   3.113  -0.327  4.1594  2.1447  0.0100
  939MOL0     H26718   0.081   3.047  -0.349 -0.5597  3.9058 -1.3610
  939MOL0     H26719  -0.180   2.930  -0.424 -0.9466 -0.1978  1.0728
  939MOL0     H26720  -0.067   2.824  -0.334  2.1973 -0.7008 -0.1249
  939MOL0     H26721  -0.021   2.788  -0.576  3.7275 -0.5655 -1.4328
  939MOL0     H26722   0.109   2.875  -0.502  0.3806 -2.2265 -0.7575
  939MOL0     H26723   0.044   2.981  -0.726  1.4279  1.3025  0.7006
  939MOL0     H26724   0.015   3.089  -0.597  0.9689 -1.0314  0.2634
  939MOL0     H26725  -0.066   3.262  -0.724 -0.4581  1.0513 -1.8791
  939MOL0     H26726  -0.057   3.438  -0.845  0.3854 -0.6676  0.5868
  939MOL0     H26727  -0.181   3.523  -0.925  0.5189 -0.5595 -0.7290
  939MOL0     H26728  -0.162   3.535  -0.744  1.5770 -0.5028  0.5720
  939MOL0     H26729  -0.318   3.783  -0.883  1.7435 -1.4516 -4.9101
  939MOL0     H26730  -0.415   3.982  -0.952  0.3880 -1.1379  1.9402
  939MOL0     H26731  -0.655   4.173  -1.164 -2.7203 -0.1154  0.3618
  939MOL0     H26732  -0.518   4.070  -1.158 -0.5819  4.7773  0.3229
  939MOL0     H26733  -0.628   3.886  -1.244 -0.0048 -0.1108  1.9415
  939MOL0     H26734  -0.787   3.931  -1.204 -0.5126 -0.4698 -0.6079
  939MOL0     H26735  -0.625   4.065  -1.441  1.9425  0.3818  1.2384
  939MOL0     H26736  -0.759   4.139  -1.374 -0.1845 -0.4778  0.5480
  939MOL0     H26737  -0.778   3.846  -1.468 -0.2350  0.0926 -0.0109
  939MOL0     H26738  -0.917   3.956  -1.445 -1.5833 -1.8008 -3.1961
  939MOL0     H26739  -0.714   4.031  -1.644 -0.6980 -0.9730 -1.5616
  939MOL0     H26740  -0.877   4.092  -1.617 -0.4565 -0.4954  3.9573
  939MOL0     H26741  -0.775   3.830  -1.754 -0.2920 -0.0730 -0.8522
  939MOL0     H26742  -0.932   3.830  -1.669  0.0138  2.1943  3.5691
  939MOL0     H26743  -0.850   4.051  -1.846 -1.2640  1.5222 -1.8259
  939MOL0     H26744  -1.015   4.010  -1.817 -0.4828  1.1916 -0.4734
  939MOL0     H26745  -1.006   3.931  -2.042 -0.1362  0.1941  0.7346
  939MOL0     H26746  -1.003   3.793  -1.938  0.5906  0.2478  0.4126
  939MOL0     H26747  -0.803   3.791  -0.994  0.2523 -1.9983 -3.1996
  939MOL0     H26748  -0.691   3.587  -0.889  0.6626 -0.1543  2.1159
  939MOL0     H26749  -0.530   3.175  -0.861 -0.5034  0.3809 -0.0380
  939MOL0     H26750  -0.396   2.997  -0.730 -1.3025  0.5939  1.2476
  939MOL0     H26751   1.187   3.101   0.355  0.7704  0.9304  0.1607
  939MOL0     H26752   1.433   3.168   0.370  0.8411 -0.6489  0.1336
  939MOL0     H26753   1.601   3.550   0.565  2.2900  0.8509  4.5610
  939MOL0     H26754   1.749   3.725   0.513  0.3798  0.0507  1.1244
  939MOL0     H26755   1.774   3.822   0.270  0.0122  3.2515 -1.4596
  939MOL0     H26756   1.855   3.909   0.407 -2.9626  0.8729 -0.9047
  939MOL0     H26757   1.866   4.000   0.158  0.8958  0.8093 -0.1904
  939MOL0     H26758   1.957   3.853   0.137 -2.7133 -2.7561  1.2984
  939MOL0     H26759   2.112   3.946   0.331  1.0942 -1.4790 -2.9292
  939MOL0     H26760   2.020   4.099   0.310 -0.7405 -0.4334  1.0383
  939MOL0     H26761   2.223   3.972   0.120 -0.6930  0.0241  0.7118
  939MOL0     H26762   2.252   4.108   0.223 -0.8930 -1.9250  3.7032
  939MOL0     H26763   1.974   4.242  -0.087 -0.6483 -1.4905  0.2084
  939MOL0     H26764   2.000   3.481   0.287 -0.3318 -1.5707  0.1218
  939MOL0     H26765   1.869   3.284   0.336 -0.5301  1.1423 -2.5019
  940MOL0     O26766   2.962   1.679   9.452 -0.2870 -0.3433  0.2574
  940MOL0     C26767   2.990   1.792   9.412 -0.4221  0.8974  0.5636
  940MOL0     O26768   2.903   1.900   9.408  0.3607  0.3107  0.0912
  940MOL0     C26769   2.781   1.864   9.462  0.3208 -0.5907 -0.1744
  940MOL0     C26770   2.768   1.856   9.603 -0.2493  0.4853 -0.1911
  940MOL0     C26771   2.632   1.851   9.657  0.3984 -0.5649  0.7147
  940MOL0     C26772   2.515   1.836   9.576  0.1182 -0.3776  0.9324
  940MOL0     O26773   2.394   1.836   9.632  0.0684  0.6777  0.7195
  940MOL0     C26774   2.295   1.763   9.553  0.0016 -0.8454  0.3794
  940MOL0     C26775   2.203   1.711   9.655 -0.4742  0.9623  0.6973
  940MOL0     C26776   2.053   1.719   9.619 -0.8654  0.1107 -0.5830
  940MOL0     C26777   1.960   1.689   9.737 -0.4338  0.6531  0.0694
  940MOL0     C26778   1.982   1.539   9.791  0.1942 -0.1659  0.0098
  940MOL0     C26779   1.962   1.428   9.683 -0.2709 -0.9258 -1.0608
  940MOL0     C26780   1.951   1.292   9.748  0.6129 -0.0145 -0.4200
  940MOL0     C26781   1.823   1.268   9.821  0.3686 -0.2267  0.1750
  940MOL0     N26782   1.703   1.310   9.745 -0.2573 -0.6535 -0.8748
  940MOL0     C26783   1.630   1.421   9.770  0.2367  1.1387 -0.1549
  940MOL0     C26784   1.540   1.438   9.669 -0.3328 -0.1594  1.0275
  940MOL0     C26785   1.436   1.541   9.643 -0.0005  0.3005 -0.2093
  940MOL0     C26786   1.300   1.501   9.711 -0.0074  0.5802  0.2100
  940MOL0     C26787   1.176   1.597   9.684 -0.1927 -0.7957 -0.1742
  940MOL0     C26788   1.040   1.543   9.725  0.4809  0.1574  0.0323
  940MOL0     O26789   0.935   1.637   9.679 -0.5670  0.0434 -0.3057
  940MOL0     C26790   0.805   1.610   9.692  0.1469  0.6530  0.3268
  940MOL0     C26791   0.712   1.704   9.652  0.9237 -0.6797 -1.2924
  940MOL0     C26792   0.570   1.687   9.667  0.9245 -0.0053 -0.2808
  940MOL0     C26793   0.475   1.800   9.639  0.2414 -0.3796  0.3441
  940MOL0     C26794   0.520   1.560   9.706  0.1417  0.5062  0.1879
  940MOL0     C26795   0.376   1.532   9.728 -0.5339  0.3420  0.6813
  940MOL0     O26796   0.292   1.555   9.620 -0.3993  0.6357  0.1387
  940MOL0     C26797   0.158   1.557   9.645  0.6174  0.0353 -0.5165
  940MOL0     C26798   0.078   1.654   9.581  0.7204 -0.5519  0.1125
  940MOL0     C26799  -0.060   1.658   9.596  0.3461 -0.1371 -0.8109
  940MOL0     C26800  -0.125   1.553   9.663  0.2493  0.3736  0.3373
  940MOL0     O26801  -0.258   1.533   9.671 -0.1110  0.1109 -0.1722
  940MOL0     C26802  -0.340   1.573   9.554 -0.4401  0.4864 -0.4152
  940MOL0     C26803  -0.487   1.522   9.561 -0.5698  0.0898 -0.4691
  940MOL0     C26804  -0.557   1.509   9.698  0.6474  0.0859 -0.1652
  940MOL0     C26805  -0.573   1.650   9.763  0.3764 -0.4446  1.1412
  940MOL0     C26806  -0.634   1.639   9.903 -0.4688  0.5456  0.9136
  940MOL0     C26807  -0.775   1.587   9.896 -0.0533 -0.2783  0.2020
  940MOL0     C26808  -0.843   1.568  10.035 -0.3502  0.0073  0.5016
  940MOL0     C26809  -0.969   1.488  10.033  0.0040  0.2437 -0.2984
  940MOL0    Cl26810  -0.992   1.403  10.194  0.4060 -0.3387  0.2432
  940MOL0     C26811  -0.044   1.450   9.712 -0.0292  0.2097 -0.0050
  940MOL0     C26812   0.097   1.456   9.714  0.3791 -0.5574 -0.0642
  940MOL0     O26813   0.349   1.504   9.846  0.4813  0.1565 -0.1495
  940MOL0     C26814   0.613   1.456   9.733  0.1210 -0.0559 -0.1484
  940MOL0     C26815   0.748   1.480   9.723  0.5364  0.1436  0.1509
  940MOL0     N26816   1.561   1.325   9.588 -0.5403  0.4822 -0.0968
  940MOL0     N26817   1.654   1.256   9.636  0.0184 -0.2067 -0.7150
  940MOL0     C26818   2.540   1.848   9.436  0.3641  0.7434 -0.4741
  940MOL0     C26819   2.665   1.855   9.386 -0.6916  0.5915  0.5140
  940MOL0     C26820   3.117   1.820   9.345  0.2223  0.3540 -0.2584
  940MOL0     C26821   3.204   1.721   9.298  0.7457  0.2928  0.6512
  940MOL0     C26822   3.301   1.754   9.203  0.9627 -0.9931  0.0251
  940MOL0     C26823   3.348   1.884   9.188  0.5981  0.7408 -0.4502
  940MOL0     O26824   3.452   1.910   9.105 -0.0678 -1.2416 -0.1334
  940MOL0     C26825   3.541   2.018   9.136 -0.5253  0.3430 -0.3378
  940MOL0     C26826   3.529   2.127   9.032 -0.6082  0.0610  0.3910
  940MOL0     C26827   3.647   2.227   9.063  0.0560 -0.1311 -0.2400
  940MOL0     C26828   3.691   2.314   8.943 -0.5945 -0.4100 -0.2575
  940MOL0     C26829   3.766   2.240   8.834  0.3186 -0.2333  0.3399
  940MOL0     C26830   3.838   2.185   8.744 -0.1922 -0.1381 -0.3025
  940MOL0     C26831   3.274   1.991   9.257 -0.7123  1.0103  0.1424
  940MOL0     C26832   3.161   1.950   9.329 -0.4194 -0.1417  0.0240
  940MOL0     H26833   2.856   1.859   9.666 -0.6495 -1.3111  0.5077
  940MOL0     H26834   2.622   1.846   9.765  1.6187  0.0215  0.8719
  940MOL0     H26835   2.240   1.834   9.491  0.3023 -0.6342  0.3503
  940MOL0     H26836   2.338   1.689   9.484  0.5125 -0.3803  0.1945
  940MOL0     H26837   2.237   1.609   9.677  1.1612  0.4118 -3.3212
  940MOL0     H26838   2.214   1.772   9.744  0.5135  1.8386  0.0064
  940MOL0     H26839   2.036   1.818   9.577 -2.4444 -0.6744 -1.9184
  940MOL0     H26840   2.043   1.645   9.539  1.6468 -0.7480 -0.2246
  940MOL0     H26841   1.980   1.751   9.825 -1.0818 -0.2821  0.9002
  940MOL0     H26842   1.855   1.692   9.709 -0.7475  0.2033  1.1569
  940MOL0     H26843   2.081   1.527   9.835  0.1377 -1.3225 -0.1418
  940MOL0     H26844   1.908   1.525   9.871  0.7088 -0.0032  0.5185
  940MOL0     H26845   1.874   1.455   9.624 -0.9437 -3.6567 -1.4479
  940MOL0     H26846   2.049   1.421   9.618  1.4968  0.9175  0.9105
  940MOL0     H26847   1.946   1.224   9.663 -1.6762  2.0232 -2.0626
  940MOL0     H26848   2.031   1.264   9.817 -1.2085  1.5889  2.6122
  940MOL0     H26849   1.820   1.327   9.913  2.0211 -2.7307  1.9524
  940MOL0     H26850   1.804   1.164   9.849 -0.5916 -0.3983 -1.0122
  940MOL0     H26851   1.646   1.489   9.852 -1.0083  0.0592  1.0335
  940MOL0     H26852   1.462   1.635   9.693  2.6114 -0.1682 -0.5880
  940MOL0     H26853   1.414   1.553   9.536 -2.8983 -0.3696  0.2048
  940MOL0     H26854   1.329   1.498   9.816  1.4687  2.8595 -0.0441
  940MOL0     H26855   1.268   1.400   9.686 -0.4929  1.0708 -1.2525
  940MOL0     H26856   1.184   1.629   9.580  4.4433 -0.9951 -0.0738
  940MOL0     H26857   1.191   1.683   9.750  2.1465 -1.0954 -0.2224
  940MOL0     H26858   1.034   1.533   9.834 -2.3818 -0.7245 -0.1160
  940MOL0     H26859   1.024   1.438   9.696 -1.2668  0.3953  0.0531
  940MOL0     H26860   0.746   1.804   9.629  0.4799 -0.6516 -1.8368
  940MOL0     H26861   0.421   1.832   9.729  4.2349  2.7209  1.8807
  940MOL0     H26862   0.532   1.884   9.601 -2.3600  1.7570  0.8699
  940MOL0     H26863   0.402   1.769   9.563 -1.2224 -0.9392  1.8965
  940MOL0     H26864   0.120   1.737   9.524 -0.7927  1.3219  1.5965
  940MOL0     H26865  -0.131   1.731   9.558 -6.6927 -5.1171  0.7020
  940MOL0     H26866  -0.351   1.682   9.556 -1.6961  0.3718  0.0501
  940MOL0     H26867  -0.283   1.547   9.465  3.4909  1.4095  1.6284
  940MOL0     H26868  -0.549   1.579   9.490  0.1280  0.0742 -1.1069
  940MOL0     H26869  -0.469   1.418   9.534  1.0527 -0.1750  1.4739
  940MOL0     H26870  -0.501   1.440   9.762 -0.5799  0.3633  1.2564
  940MOL0     H26871  -0.659   1.477   9.676  0.4513  0.8837 -0.4625
  940MOL0     H26872  -0.481   1.708   9.770 -1.7612  3.1159  2.0612
  940MOL0     H26873  -0.621   1.714   9.688  2.4790  1.1200  1.0378
  940MOL0     H26874  -0.629   1.736   9.952 -0.9047 -0.8880  4.0615
  940MOL0     H26875  -0.579   1.568   9.965 -0.3798 -1.6223 -1.4457
  940MOL0     H26876  -0.827   1.665   9.840 -1.2258 -1.5073 -0.4471
  940MOL0     H26877  -0.789   1.496   9.837  0.5571 -0.6239  0.5736
  940MOL0     H26878  -0.871   1.671  10.060 -2.4805 -0.4552  0.1909
  940MOL0     H26879  -0.776   1.546  10.118 -1.1238  2.6657  1.9381
  940MOL0     H26880  -0.964   1.417   9.950  0.9636  0.9352 -0.8596
  940MOL0     H26881  -1.053   1.556  10.016  0.4699  1.2497  1.2249
  940MOL0     H26882  -0.083   1.361   9.761 -0.2171  0.8801  1.0825
  940MOL0     H26883   0.155   1.378   9.763  0.6232 -0.4639 -0.2013
  940MOL0     H26884   0.583   1.360   9.774  2.3145 -1.0016 -0.5964
  940MOL0     H26885   0.808   1.393   9.750  0.1258  0.0580  0.8324
  940MOL0     H26886   2.460   1.855   9.363  0.9292  1.8759 -1.0110
  940MOL0     H26887   2.673   1.870   9.279 -2.6312  2.8523  0.6004
  940MOL0     H26888   3.184   1.616   9.318  1.6469  0.4638  2.7641
  940MOL0     H26889   3.349   1.672   9.150  0.8598 -1.2100  0.2622
  940MOL0     H26890   3.518   2.045   9.239  1.4492 -1.7768  0.7115
  940MOL0     H26891   3.646   1.988   9.138 -0.3063  1.0694 -0.3405
  940MOL0     H26892   3.431   2.169   9.055 -0.9190 -0.6959  0.4937
  940MOL0     H26893   3.528   2.083   8.932 -0.3698  2.0981 -0.5593
  940MOL0     H26894   3.736   2.168   9.086  0.6588  0.0884 -1.8693
  940MOL0     H26895   3.618   2.294   9.145 -0.7060 -0.7398 -0.0068
  940MOL0     H26896   3.762   2.390   8.979 -1.4982  0.0198  0.6423
  940MOL0     H26897   3.613   2.376   8.898  0.7693  2.6233  1.2662
  940MOL0     H26898   3.902   2.134   8.675  1.3944  2.0520 -0.5937
  940MOL0     H26899   3.298   2.094   9.237  3.3938  0.2818  0.4764
  940MOL0     H26900   3.110   2.032   9.380 -0.1128 -0.3131  0.6095
  941MOL0     O26901   3.661   4.079   3.506 -0.2491 -0.4726 -0.3595
  941MOL0     C26902   3.752   4.079   3.593  0.6786 -0.3120  0.3568
  941MOL0     O26903   3.739   4.076   3.736 -0.1203  0.2594 -0.3443
  941MOL0     C26904   3.608   4.060   3.770 -0.7140  0.9731 -0.5848
  941MOL0     C26905   3.516   4.165   3.795 -0.1426 -0.0689  0.1355
  941MOL0     C26906   3.383   4.131   3.825  0.5911  0.4416 -0.1123
  941MOL0     C26907   3.339   3.997   3.824  0.0196 -0.9163 -0.6030
  941MOL0     O26908   3.209   3.948   3.836  1.0112 -0.0522  0.0748
  941MOL0     C26909   3.107   4.044   3.870 -0.4928  0.1158  0.0159
  941MOL0     C26910   2.978   3.983   3.843 -1.0760 -0.1421  1.0111
  941MOL0     C26911   2.867   4.075   3.861  0.3382  0.3246  0.2381
  941MOL0     C26912   2.845   4.184   3.760 -0.5313 -0.7763  0.6851
  941MOL0     C26913   2.701   4.234   3.735  0.0317 -0.2039 -0.7658
  941MOL0     C26914   2.640   4.309   3.861  0.1127  0.4321 -0.2239
  941MOL0     C26915   2.496   4.360   3.837 -0.0614 -0.5281  0.1892
  941MOL0     C26916   2.383   4.255   3.844 -0.9474 -0.3398 -0.3478
  941MOL0     N26917   2.264   4.298   3.771  0.5753  0.2924  1.2785
  941MOL0     C26918   2.269   4.360   3.642 -0.0574 -0.6639  1.4342
  941MOL0     C26919   2.144   4.428   3.632 -0.2854  0.0710 -0.1950
  941MOL0     C26920   2.101   4.516   3.524 -0.2800  0.0517 -0.6904
  941MOL0     C26921   2.078   4.449   3.390  0.8605 -0.1892  0.2050
  941MOL0     C26922   2.008   4.315   3.402  1.0936  0.1172  0.1840
  941MOL0     C26923   1.856   4.319   3.443 -0.2895  1.3837 -0.1106
  941MOL0     O26924   1.780   4.406   3.359  0.0078 -0.1678 -0.4573
  941MOL0     C26925   1.647   4.429   3.388  0.1236  0.3075  0.9053
  941MOL0     C26926   1.584   4.550   3.364  0.9097 -0.2126  0.1456
  941MOL0     C26927   1.446   4.568   3.375 -0.2010 -0.1874  0.0535
  941MOL0     C26928   1.403   4.710   3.386 -0.7640 -0.3577  0.2712
  941MOL0     C26929   1.360   4.463   3.406 -0.5295  0.0318  1.1119
  941MOL0     C26930   1.215   4.468   3.406  0.5410  0.1001  0.3851
  941MOL0     O26931   1.162   4.350   3.456 -0.1899  0.3690 -0.0172
  941MOL0     C26932   1.024   4.341   3.478 -0.4615  0.3573  0.4788
  941MOL0     C26933   0.936   4.448   3.514 -0.7381  0.0672  0.5950
  941MOL0     C26934   0.797   4.443   3.522  0.2304  0.6848 -0.1985
  941MOL0     C26935   0.733   4.315   3.515  0.4992 -0.6455 -0.2115
  941MOL0     O26936   0.599   4.285   3.538 -0.2751 -0.4684 -0.0179
  941MOL0     C26937   0.533   4.372   3.632  0.1518 -0.7066 -0.0347
  941MOL0     C26938   0.417   4.297   3.697  0.3925  0.5467  0.4251
  941MOL0     C26939   0.297   4.291   3.603  0.1471  0.0117 -0.4091
  941MOL0     C26940   0.202   4.197   3.676  0.4605  0.0451 -0.7162
  941MOL0     C26941   0.057   4.208   3.614  0.1853  0.3241  0.1701
  941MOL0     C26942  -0.031   4.084   3.644 -0.1147 -0.8669 -1.3028
  941MOL0     C26943  -0.169   4.089   3.592  0.1818 -0.3232  0.4013
  941MOL0     C26944  -0.236   3.949   3.571  0.5235  0.6380 -0.9025
  941MOL0    Cl26945  -0.287   3.885   3.727 -0.6401  0.5540  0.5473
  941MOL0     C26946   0.815   4.207   3.480 -0.9825 -0.1672 -0.8110
  941MOL0     C26947   0.956   4.222   3.459  0.8068  0.1525 -0.0924
  941MOL0     O26948   1.155   4.551   3.337 -0.0826  0.2142  0.3263
  941MOL0     C26949   1.431   4.340   3.422  0.4730  0.4560 -0.1330
  941MOL0     C26950   1.565   4.320   3.421 -0.3328 -0.2727  0.1292
  941MOL0     N26951   2.072   4.397   3.745  0.1171 -0.2011 -1.0510
  941MOL0     N26952   2.134   4.315   3.828 -0.6556 -0.3747  0.4544
  941MOL0     C26953   3.436   3.893   3.803  0.2105  0.6831  0.5504
  941MOL0     C26954   3.567   3.924   3.777 -0.0919  0.0866 -0.3219
  941MOL0     C26955   3.888   4.083   3.546 -0.5262 -0.5236  0.6270
  941MOL0     C26956   3.927   4.101   3.410 -0.0114 -0.7206 -0.3650
  941MOL0     C26957   4.065   4.101   3.371  0.4289 -0.4708 -1.1502
  941MOL0     C26958   4.168   4.079   3.458 -0.6059  0.3035 -1.0359
  941MOL0     O26959   4.290   4.094   3.408  0.4769 -0.0429 -0.3800
  941MOL0     C26960   4.409   4.079   3.502  0.4933 -0.6146 -0.5814
  941MOL0     C26961   4.530   4.082   3.410 -0.3038  0.2389 -0.5095
  941MOL0     C26962   4.560   4.220   3.347 -0.0661 -0.0056  0.1226
  941MOL0     C26963   4.589   4.340   3.437  0.5222  0.2533 -0.8814
  941MOL0     C26964   4.616   4.465   3.365  0.1395 -0.6035 -0.6764
  941MOL0     C26965   4.653   4.572   3.319 -0.3360  0.4494 -0.6460
  941MOL0     C26966   4.132   4.060   3.595  0.1113 -0.3477 -0.2566
  941MOL0     C26967   3.999   4.065   3.635  0.2619  0.9730 -0.1984
  941MOL0     H26968   3.540   4.271   3.788 -0.3546  0.1730  2.3661
  941MOL0     H26969   3.321   4.215   3.855  0.3649  0.0475  0.5379
  941MOL0     H26970   3.119   4.069   3.975 -2.4113  1.5911 -0.0534
  941MOL0     H26971   3.121   4.127   3.800  2.0979 -1.6997 -1.8467
  941MOL0     H26972   2.973   3.950   3.739 -0.0088  0.4476  0.7684
  941MOL0     H26973   2.960   3.893   3.903 -2.2997 -0.7464 -0.1867
  941MOL0     H26974   2.777   4.014   3.873  1.2589 -1.4200 -1.3522
  941MOL0     H26975   2.878   4.120   3.961  4.6574 -1.9631  1.0179
  941MOL0     H26976   2.901   4.270   3.796 -0.0069 -1.3645  1.2956
  941MOL0     H26977   2.884   4.148   3.664  0.2847 -3.1031  1.7967
  941MOL0     H26978   2.693   4.299   3.648 -0.4469 -2.3105 -2.3583
  941MOL0     H26979   2.634   4.150   3.718  0.3552 -0.3478 -1.3526
  941MOL0     H26980   2.649   4.241   3.946  0.2846 -1.4780 -1.7099
  941MOL0     H26981   2.696   4.401   3.881 -2.7958  1.9535  1.5270
  941MOL0     H26982   2.480   4.437   3.914  0.6074 -0.1142 -0.0726
  941MOL0     H26983   2.492   4.412   3.741 -2.7658  2.3223  1.6541
  941MOL0     H26984   2.364   4.244   3.951 -0.5323  0.3340 -0.1980
  941MOL0     H26985   2.423   4.157   3.816 -1.3904 -1.8027  3.4937
  941MOL0     H26986   2.343   4.363   3.563 -3.4009  0.0334 -1.9912
  941MOL0     H26987   2.004   4.558   3.552 -0.0814  0.3073 -0.3804
  941MOL0     H26988   2.161   4.606   3.508  0.4137  0.0877  1.7770
  941MOL0     H26989   2.173   4.438   3.338  1.2535  1.6871  0.4477
  941MOL0     H26990   2.017   4.510   3.322  0.2317 -1.4959 -0.4484
  941MOL0     H26991   2.068   4.254   3.470 -0.6497 -2.3860 -0.3773
  941MOL0     H26992   2.017   4.263   3.306  1.0247  0.3610  0.0437
  941MOL0     H26993   1.841   4.341   3.549 -1.4693  0.2361 -0.0166
  941MOL0     H26994   1.812   4.219   3.435 -1.2933  1.6840  1.3182
  941MOL0     H26995   1.646   4.634   3.336  0.0603  0.3099 -0.2235
  941MOL0     H26996   1.343   4.718   3.477 -1.6000 -1.7830 -0.1310
  941MOL0     H26997   1.491   4.775   3.389  1.1257 -2.7932  1.3690
  941MOL0     H26998   1.341   4.730   3.298  0.6010 -0.2139 -0.6916
  941MOL0     H26999   0.984   4.543   3.538 -0.0207 -1.2915  5.9320
  941MOL0     H27000   0.738   4.525   3.561 -1.5645 -1.2168  1.2560
  941MOL0     H27001   0.600   4.403   3.713 -0.7519 -0.3257  0.5827
  941MOL0     H27002   0.502   4.468   3.590  1.2794 -0.0819  0.4929
  941MOL0     H27003   0.453   4.200   3.732  0.8615  0.3936 -0.4399
  941MOL0     H27004   0.378   4.347   3.786  0.0988 -0.1200  0.6771
  941MOL0     H27005   0.327   4.244   3.509  2.7195 -1.7525  1.1640
  941MOL0     H27006   0.246   4.386   3.587 -1.9455 -0.6153  1.8699
  941MOL0     H27007   0.244   4.100   3.648  1.7109  1.4777 -4.4226
  941MOL0     H27008   0.201   4.221   3.782  1.1428  1.5937 -1.0445
  941MOL0     H27009   0.058   4.216   3.505  3.0065  0.1864  0.1301
  941MOL0     H27010   0.011   4.296   3.660  1.8510  1.4324 -0.1928
  941MOL0     H27011   0.025   3.995   3.613  2.9309 -1.3889  4.3240
  941MOL0     H27012  -0.048   4.071   3.751  1.3119  1.7206 -0.6841
  941MOL0     H27013  -0.167   4.142   3.496 -0.2571 -1.7595 -0.4406
  941MOL0     H27014  -0.214   4.157   3.665  1.7767 -1.6641  2.7541
  941MOL0     H27015  -0.173   3.872   3.525 -2.1117 -0.0589 -3.7370
  941MOL0     H27016  -0.327   3.960   3.510 -2.1560 -3.6352  1.8432
  941MOL0     H27017   0.765   4.110   3.479 -3.8326  1.1267  1.6032
  941MOL0     H27018   1.019   4.136   3.436 -0.8693 -1.9534  2.5363
  941MOL0     H27019   1.374   4.250   3.443 -2.8498  1.9039 -2.1899
  941MOL0     H27020   1.615   4.225   3.435  1.4201  0.5872 -0.0884
  941MOL0     H27021   3.415   3.787   3.799  1.9482  0.2936  0.7935
  941MOL0     H27022   3.640   3.843   3.770 -0.6960 -0.5820  0.7035
  941MOL0     H27023   3.841   4.104   3.344 -0.0038 -0.3612 -0.3620
  941MOL0     H27024   4.084   4.119   3.266 -1.5934 -1.2817 -1.7047
  941MOL0     H27025   4.421   4.161   3.573  0.8963 -0.1033 -1.2306
  941MOL0     H27026   4.400   3.985   3.556  0.6780 -0.1938  0.1959
  941MOL0     H27027   4.503   4.023   3.322 -2.6478  1.9996 -1.0761
  941MOL0     H27028   4.614   4.043   3.468  0.1403  2.0010  0.1015
  941MOL0     H27029   4.476   4.250   3.284 -1.3064 -1.5493  0.9752
  941MOL0     H27030   4.647   4.218   3.281 -1.5623 -1.0133 -1.9521
  941MOL0     H27031   4.661   4.304   3.511  0.0971  1.0529 -0.0548
  941MOL0     H27032   4.498   4.361   3.495  0.0528 -0.6893 -1.2696
  941MOL0     H27033   4.701   4.659   3.278  1.4777  0.7797  1.9211
  941MOL0     H27034   4.206   4.032   3.669  1.9292 -1.0496 -2.2307
  941MOL0     H27035   3.986   4.044   3.741  3.6900  1.4727  0.4248
  942MOL0     O27036   4.898   6.290   7.205  0.1139 -1.0041  0.4180
  942MOL0     C27037   4.938   6.336   7.310 -1.0597 -0.1403  0.1697
  942MOL0     O27038   4.865   6.364   7.413  0.4803 -0.5229 -0.6378
  942MOL0     C27039   4.726   6.365   7.419  0.6629 -0.2098  0.9767
  942MOL0     C27040   4.659   6.338   7.533  0.6783  0.4061  0.2330
  942MOL0     C27041   4.517   6.356   7.548 -0.1209  0.2680  0.0331
  942MOL0     C27042   4.445   6.394   7.438  0.4131 -0.0017  0.0725
  942MOL0     O27043   4.307   6.411   7.456  0.0398 -0.3057 -0.4705
  942MOL0     C27044   4.238   6.289   7.463 -0.0827  0.0788 -0.0349
  942MOL0     C27045   4.108   6.308   7.384 -0.5403  0.5351  0.2014
  942MOL0     C27046   4.022   6.177   7.359 -0.2242 -0.4463 -0.0983
  942MOL0     C27047   3.921   6.218   7.260  0.2340  0.5129  0.0407
  942MOL0     C27048   3.838   6.099   7.202 -0.4377  0.0282  1.0660
  942MOL0     C27049   3.760   6.016   7.300  0.1212 -0.0286  0.1542
  942MOL0     C27050   3.695   5.888   7.235  0.3207  0.3502 -0.0103
  942MOL0     C27051   3.602   5.909   7.117  0.4626  0.0813  0.4719
  942MOL0     N27052   3.482   5.984   7.163 -0.1458 -0.0332  0.0026
  942MOL0     C27053   3.452   6.114   7.140 -0.4124  0.0850 -0.1742
  942MOL0     C27054   3.330   6.134   7.192  0.8273  0.0825  0.6787
  942MOL0     C27055   3.241   6.254   7.159 -0.3856  0.4404 -1.3708
  942MOL0     C27056   3.230   6.345   7.285 -0.0839  0.3247  0.0074
  942MOL0     C27057   3.364   6.409   7.338  0.0247 -0.4050 -0.0204
  942MOL0     C27058   3.431   6.524   7.262 -0.0984 -0.5594  0.1619
  942MOL0     O27059   3.512   6.472   7.150 -0.1138  0.6592 -0.1903
  942MOL0     C27060   3.603   6.568   7.103 -0.0103  0.1692 -0.0358
  942MOL0     C27061   3.561   6.694   7.051  0.0306  0.4967  0.0097
  942MOL0     C27062   3.654   6.783   6.994  0.3331 -0.0782  0.2798
  942MOL0     C27063   3.604   6.911   6.941 -0.4280 -0.7069 -0.7892
  942MOL0     C27064   3.789   6.742   6.974  0.1625 -0.0122 -0.4871
  942MOL0     C27065   3.881   6.822   6.884 -0.2398  0.4935  0.1573
  942MOL0     O27066   4.017   6.790   6.915  0.4249  0.3352  0.9110
  942MOL0     C27067   4.115   6.840   6.836 -0.9126 -0.0093 -0.4773
  942MOL0     C27068   4.179   6.754   6.748  0.0465 -0.1837  0.4867
  942MOL0     C27069   4.252   6.817   6.640 -0.8600 -0.2322  0.6711
  942MOL0     C27070   4.269   6.960   6.634  0.5518  1.0436 -0.3091
  942MOL0     O27071   4.322   7.014   6.526 -0.0121  0.0998  0.1261
  942MOL0     C27072   4.413   7.119   6.541  0.6986 -0.2971  0.0586
  942MOL0     C27073   4.530   7.111   6.434  0.1039  0.4109  0.0336
  942MOL0     C27074   4.605   6.985   6.456 -0.4705  0.1885 -0.0583
  942MOL0     C27075   4.680   6.931   6.328 -0.1650 -0.0712 -0.6743
  942MOL0     C27076   4.584   6.878   6.218  0.2405  0.6729 -0.5389
  942MOL0     C27077   4.494   6.768   6.277 -0.2556  0.4253  0.4143
  942MOL0     C27078   4.408   6.713   6.165  0.9326  0.9484  0.6424
  942MOL0     C27079   4.336   6.583   6.211 -0.0744 -0.5609  0.2869
  942MOL0    Cl27080   4.236   6.576   6.347 -0.1441  0.4043 -0.2043
  942MOL0     C27081   4.218   7.031   6.739 -0.8127  0.1702  0.1813
  942MOL0     C27082   4.142   6.976   6.839 -0.7992 -0.1447 -0.5570
  942MOL0     O27083   3.845   6.881   6.778  0.2390  0.3698 -0.5251
  942MOL0     C27084   3.826   6.615   7.032 -0.4620 -0.0609 -0.3603
  942MOL0     C27085   3.735   6.530   7.091 -0.1007  0.4228 -0.0039
  942MOL0     N27086   3.288   6.025   7.262 -0.6598  0.2703  0.1653
  942MOL0     N27087   3.380   5.932   7.242  0.1400 -0.4617  0.5629
  942MOL0     C27088   4.504   6.410   7.314 -0.2175 -0.4140 -0.4672
  942MOL0     C27089   4.646   6.406   7.307  0.2691 -0.0734  0.0083
  942MOL0     C27090   5.084   6.354   7.332 -1.0048  0.0798 -0.0159
  942MOL0     C27091   5.140   6.405   7.452  0.1649 -0.3715  0.2726
  942MOL0     C27092   5.277   6.421   7.462  0.2253 -0.1941 -0.9163
  942MOL0     C27093   5.358   6.399   7.353 -1.1473 -0.4104  0.0487
  942MOL0     O27094   5.499   6.399   7.352 -0.4330  0.5858 -0.4753
  942MOL0     C27095   5.562   6.468   7.459 -0.1183  0.4383 -0.1726
  942MOL0     C27096   5.702   6.489   7.421  0.3622 -0.5961 -0.8341
  942MOL0     C27097   5.776   6.356   7.420 -0.5057 -0.4455 -1.3533
  942MOL0     C27098   5.914   6.366   7.486  0.1520  0.1601  0.8436
  942MOL0     C27099   6.017   6.455   7.422 -0.2403 -0.1775  0.1128
  942MOL0     C27100   6.096   6.530   7.373 -1.1712 -0.4141  0.2939
  942MOL0     C27101   5.310   6.341   7.234 -0.7643 -0.5510 -0.1746
  942MOL0     C27102   5.171   6.313   7.227 -0.1676 -0.4492  0.7245
  942MOL0     H27103   4.721   6.309   7.617  3.6299 -3.9854 -3.0139
  942MOL0     H27104   4.471   6.347   7.646 -0.2741 -1.1815 -0.1393
  942MOL0     H27105   4.282   6.199   7.420 -2.2708 -0.7723 -0.6237
  942MOL0     H27106   4.226   6.268   7.569  3.2148  0.9440  0.6158
  942MOL0     H27107   4.049   6.385   7.434 -2.4771  0.3423 -1.6305
  942MOL0     H27108   4.148   6.343   7.288 -0.5245 -0.1307 -0.0412
  942MOL0     H27109   4.071   6.090   7.315 -0.0281  0.2036 -1.2064
  942MOL0     H27110   3.974   6.157   7.455  0.9687  1.5810  0.9923
  942MOL0     H27111   3.859   6.295   7.306 -1.8459  1.0421 -3.3036
  942MOL0     H27112   3.976   6.270   7.181 -3.1697  3.0809 -0.8928
  942MOL0     H27113   3.769   6.143   7.129  3.1869  2.2545 -1.3663
  942MOL0     H27114   3.910   6.040   7.145 -1.3043  0.1382 -0.1847
  942MOL0     H27115   3.827   5.975   7.376 -1.6381 -1.5453  0.9942
  942MOL0     H27116   3.684   6.078   7.348  3.2923  4.5952 -0.1899
  942MOL0     H27117   3.773   5.821   7.197  1.5064  1.4164  0.4864
  942MOL0     H27118   3.651   5.825   7.312  1.2879 -1.7000 -1.0308
  942MOL0     H27119   3.567   5.811   7.084  0.2195 -0.5495  2.4273
  942MOL0     H27120   3.657   5.966   7.042  1.0389  1.6052  1.9944
  942MOL0     H27121   3.516   6.184   7.087  2.0209 -0.9894  1.1768
  942MOL0     H27122   3.286   6.303   7.072 -1.0494  1.8772 -0.9438
  942MOL0     H27123   3.144   6.213   7.129  0.2384  0.5290 -3.7064
  942MOL0     H27124   3.171   6.295   7.362 -0.9593  2.4078  0.7917
  942MOL0     H27125   3.163   6.425   7.250 -0.8948 -0.8993 -1.3683
  942MOL0     H27126   3.441   6.336   7.365  1.6448  0.2983 -2.4053
  942MOL0     H27127   3.329   6.452   7.432  0.0520 -1.9222  0.7075
  942MOL0     H27128   3.506   6.571   7.326  2.2231 -3.5867 -0.0749
  942MOL0     H27129   3.363   6.599   7.222 -1.3260 -0.9094  1.5327
  942MOL0     H27130   3.460   6.732   7.061 -0.0681  1.3198 -3.2617
  942MOL0     H27131   3.564   6.885   6.842 -2.6101  0.4664 -0.2655
  942MOL0     H27132   3.512   6.930   6.997  0.9804 -1.9441  2.1982
  942MOL0     H27133   3.681   6.987   6.953  0.9318 -2.2990  1.2939
  942MOL0     H27134   4.168   6.646   6.742 -1.4002 -0.1235  1.7267
  942MOL0     H27135   4.279   6.773   6.545  0.9973  0.3994  0.8773
  942MOL0     H27136   4.366   7.217   6.526 -0.0919 -0.5577  0.7075
  942MOL0     H27137   4.462   7.115   6.638 -0.2536  0.8385  0.6159
  942MOL0     H27138   4.485   7.111   6.335  1.4696  0.0901 -0.6033
  942MOL0     H27139   4.598   7.194   6.454 -0.6441  0.1245  5.4155
  942MOL0     H27140   4.541   6.908   6.500 -1.5594  1.9608  1.5981
  942MOL0     H27141   4.683   7.002   6.530 -0.6860 -0.6667  0.3858
  942MOL0     H27142   4.736   7.015   6.286 -1.1588  0.7980 -0.3246
  942MOL0     H27143   4.747   6.851   6.361  1.9769  1.2713 -1.5523
  942MOL0     H27144   4.649   6.841   6.138  0.0570 -0.0976 -0.3403
  942MOL0     H27145   4.527   6.963   6.179 -0.0037 -0.0668 -1.8567
  942MOL0     H27146   4.561   6.687   6.307  1.5017  2.2511  1.6080
  942MOL0     H27147   4.435   6.808   6.360  0.4193 -0.2859  1.2425
  942MOL0     H27148   4.466   6.677   6.079  1.6656  3.5997 -0.0523
  942MOL0     H27149   4.337   6.788   6.130  0.7809  0.6153  0.2140
  942MOL0     H27150   4.414   6.507   6.225  1.9918  1.4962  0.4472
  942MOL0     H27151   4.271   6.550   6.130  0.6793 -1.6123  0.0839
  942MOL0     H27152   4.219   7.139   6.730 -3.7601  0.6531  3.4138
  942MOL0     H27153   4.086   7.036   6.910  4.0648  5.6850 -0.8939
  942MOL0     H27154   3.928   6.578   7.028  0.2222  1.8064 -2.1922
  942MOL0     H27155   3.770   6.434   7.128  0.8801  0.8219  0.1181
  942MOL0     H27156   4.440   6.442   7.232  0.8660  2.1026 -0.4164
  942MOL0     H27157   4.692   6.417   7.209  0.0641  0.7554 -0.0007
  942MOL0     H27158   5.082   6.428   7.540  2.3652 -1.1374  2.0169
  942MOL0     H27159   5.315   6.443   7.562 -3.5156 -0.4672  0.7179
  942MOL0     H27160   5.514   6.567   7.460  2.7140  1.9058 -0.8679
  942MOL0     H27161   5.553   6.410   7.551  0.8633 -1.1406 -1.0379
  942MOL0     H27162   5.745   6.555   7.498  2.5587 -1.0684 -1.5694
  942MOL0     H27163   5.699   6.547   7.328  2.0161  2.1452  0.6548
  942MOL0     H27164   5.784   6.306   7.323 -3.1229 -0.1925 -1.7648
  942MOL0     H27165   5.719   6.283   7.477 -0.8162 -1.9974 -3.5101
  942MOL0     H27166   5.944   6.262   7.504 -0.5088  0.4351  4.1611
  942MOL0     H27167   5.900   6.390   7.592  2.4410 -2.6103  1.9212
  942MOL0     H27168   6.169   6.599   7.336 -3.5916  0.9625 -2.2872
  942MOL0     H27169   5.380   6.298   7.164  0.5586  0.9027  0.1975
  942MOL0     H27170   5.146   6.257   7.138 -0.8491  0.1787  0.5008
  943MOL0     O27171   5.117   8.012   5.116 -0.8508  0.0326  0.5675
  943MOL0     C27172   5.236   7.992   5.144 -0.0618 -0.4037 -0.3636
  943MOL0     O27173   5.289   7.885   5.202 -0.1956 -0.3979 -0.0373
  943MOL0     C27174   5.215   7.791   5.264  0.0325  1.1311 -0.3474
  943MOL0     C27175   5.263   7.652   5.281  0.2948 -0.3998  0.1709
  943MOL0     C27176   5.195   7.551   5.349  0.9628 -0.2705  0.5227
  943MOL0     C27177   5.073   7.570   5.415  0.1309 -0.3779  0.2693
  943MOL0     O27178   5.002   7.480   5.487 -0.4703  0.7146 -0.3373
  943MOL0     C27179   5.041   7.336   5.483 -0.2096 -0.2849  0.9578
  943MOL0     C27180   4.947   7.243   5.561  0.3704 -0.1653 -0.1400
  943MOL0     C27181   4.901   7.315   5.693  0.2554 -0.5023 -1.4149
  943MOL0     C27182   4.869   7.214   5.805 -0.1323 -0.2326  0.0869
  943MOL0     C27183   4.880   7.293   5.945 -0.6939 -0.7063 -0.2939
  943MOL0     C27184   4.832   7.216   6.061 -0.5343  0.4174  0.4191
  943MOL0     C27185   4.868   7.275   6.198 -0.3777  0.4253 -1.0418
  943MOL0     C27186   4.796   7.403   6.214 -0.3077  0.3277 -0.7384
  943MOL0     N27187   4.649   7.408   6.219  0.4209 -0.1800  0.5945
  943MOL0     C27188   4.556   7.398   6.119 -0.4171  0.1061 -0.3793
  943MOL0     C27189   4.433   7.416   6.177 -0.5757  0.0673  0.9481
  943MOL0     C27190   4.300   7.418   6.117  0.5189  0.4738  0.4082
  943MOL0     C27191   4.222   7.291   6.137  0.4440 -0.5085 -0.1305
  943MOL0     C27192   4.179   7.274   6.280  0.0077  0.3240  0.6577
  943MOL0     C27193   4.104   7.142   6.295 -0.0910 -0.8073  0.9648
  943MOL0     O27194   3.975   7.159   6.233  0.0902  0.0486 -0.2615
  943MOL0     C27195   3.889   7.063   6.245  1.2979  0.5336 -1.0312
  943MOL0     C27196   3.907   6.944   6.317  0.1953 -0.3136 -0.1562
  943MOL0     C27197   3.817   6.829   6.314  0.3734  0.2409  0.3001
  943MOL0     C27198   3.846   6.718   6.396 -0.6542  0.2380 -0.0028
  943MOL0     C27199   3.698   6.842   6.238 -0.1703  0.3286 -0.3706
  943MOL0     C27200   3.584   6.742   6.239  0.6051  0.2083  0.1893
  943MOL0     O27201   3.544   6.690   6.357  0.0669 -0.6194 -0.0043
  943MOL0     C27202   3.423   6.628   6.362  0.1735  0.3554  0.7129
  943MOL0     C27203   3.312   6.690   6.310 -0.4478  0.0391 -0.7992
  943MOL0     C27204   3.193   6.625   6.306  0.1236  0.8476  0.8771
  943MOL0     C27205   3.179   6.498   6.351 -0.2909 -0.8626  0.3175
  943MOL0     O27206   3.058   6.429   6.362  0.2762  0.0189 -0.5117
  943MOL0     C27207   2.942   6.480   6.307 -0.1421  0.1489 -0.5530
  943MOL0     C27208   2.830   6.380   6.321  0.3526  0.1373 -0.3569
  943MOL0     C27209   2.702   6.448   6.257  0.0513  0.5379  0.1759
  943MOL0     C27210   2.642   6.567   6.336 -0.2850 -0.2046 -0.4128
  943MOL0     C27211   2.498   6.601   6.286  0.7835  1.0173 -0.6334
  943MOL0     C27212   2.430   6.687   6.386  0.1339  0.4443  0.0772
  943MOL0     C27213   2.289   6.726   6.343  0.3828 -0.5835 -0.2323
  943MOL0     C27214   2.189   6.733   6.457  0.7972  0.1427  0.8042
  943MOL0    Cl27215   2.221   6.858   6.586 -0.3417  0.3344  0.0057
  943MOL0     C27216   3.291   6.434   6.407 -0.1383 -0.9068  0.1075
  943MOL0     C27217   3.414   6.501   6.417  0.7766 -0.7755 -0.7696
  943MOL0     O27218   3.547   6.708   6.124  0.0764  0.2869 -0.2542
  943MOL0     C27219   3.687   6.956   6.155 -0.8863 -0.7032 -0.8017
  943MOL0     C27220   3.777   7.068   6.158  0.4906 -0.0503  0.0101
  943MOL0     N27221   4.462   7.462   6.306  0.2031 -0.0133  0.8832
  943MOL0     N27222   4.587   7.463   6.327  0.9018 -0.4949  0.2775
  943MOL0     C27223   5.030   7.705   5.406  1.1044  0.1045  0.2565
  943MOL0     C27224   5.091   7.808   5.336 -0.4221  0.2342 -0.3421
  943MOL0     C27225   5.334   8.090   5.083  0.6779  1.4544 -0.1353
  943MOL0     C27226   5.292   8.205   5.024  0.8333 -0.1886  0.1216
  943MOL0     C27227   5.384   8.300   4.973 -0.4633 -0.2294  0.5563
  943MOL0     C27228   5.513   8.272   4.987 -0.1196 -0.3815 -0.6905
  943MOL0     O27229   5.590   8.372   4.921  0.7003 -0.0050  0.6071
  943MOL0     C27230   5.731   8.363   4.898 -0.6420 -0.0448 -0.5847
  943MOL0     C27231   5.801   8.483   4.965  0.0200 -0.2728  1.3170
  943MOL0     C27232   5.767   8.616   4.881  0.2376 -0.3545 -0.6544
  943MOL0     C27233   5.801   8.743   4.961 -0.9357 -0.0053  0.1175
  943MOL0     C27234   5.948   8.750   4.985 -0.0202  0.5004  0.0194
  943MOL0     C27235   6.062   8.744   5.026 -0.0329  0.6772  0.1825
  943MOL0     C27236   5.559   8.148   5.045 -0.6229  0.2338 -0.0908
  943MOL0     C27237   5.469   8.054   5.090 -0.3328  0.3701 -0.2363
  943MOL0     H27238   5.361   7.631   5.239  0.4716  2.4047 -1.0612
  943MOL0     H27239   5.238   7.451   5.355 -0.1039 -0.7360  0.7233
  943MOL0     H27240   5.044   7.300   5.380 -0.1499 -1.1142  1.2487
  943MOL0     H27241   5.143   7.329   5.522 -0.0331  0.2520  0.6173
  943MOL0     H27242   4.853   7.230   5.508 -0.2995 -1.1005  1.2332
  943MOL0     H27243   4.993   7.147   5.587 -2.3110 -1.7175 -0.7717
  943MOL0     H27244   4.976   7.390   5.721 -1.3895  0.6308  0.1544
  943MOL0     H27245   4.812   7.372   5.664  2.4032  3.0480 -1.6273
  943MOL0     H27246   4.772   7.165   5.798  0.1277 -0.6695 -0.5538
  943MOL0     H27247   4.942   7.133   5.804  3.1402  2.4339 -2.8150
  943MOL0     H27248   4.984   7.323   5.960 -0.9503 -0.2031  0.5199
  943MOL0     H27249   4.826   7.388   5.934 -0.4891 -0.7094 -1.4310
  943MOL0     H27250   4.724   7.205   6.045 -0.1632 -0.0009 -2.2076
  943MOL0     H27251   4.875   7.116   6.062 -0.3482  0.3369 -2.8988
  943MOL0     H27252   4.838   7.212   6.282 -0.9958  0.7273 -1.0298
  943MOL0     H27253   4.976   7.282   6.208 -0.4143 -1.6569  3.1473
  943MOL0     H27254   4.822   7.468   6.130 -3.5149  0.8841 -1.4165
  943MOL0     H27255   4.847   7.454   6.296  0.7149 -0.6534 -0.7476
  943MOL0     H27256   4.566   7.390   6.011 -0.4781  3.3640 -0.7117
  943MOL0     H27257   4.231   7.499   6.144 -1.4662 -1.1308  0.3918
  943MOL0     H27258   4.318   7.441   6.012  0.9841  1.3399  0.6655
  943MOL0     H27259   4.272   7.201   6.100 -0.7750 -1.6388  0.8692
  943MOL0     H27260   4.131   7.306   6.079 -1.3242  0.4456  2.6760
  943MOL0     H27261   4.116   7.356   6.314 -0.3590 -0.1396  1.1051
  943MOL0     H27262   4.265   7.273   6.348  2.4997  1.2297 -2.2291
  943MOL0     H27263   4.101   7.120   6.402  0.1339 -0.1040  1.1246
  943MOL0     H27264   4.161   7.061   6.250 -0.3380 -0.2920 -0.3214
  943MOL0     H27265   3.994   6.949   6.382 -0.0199 -1.3860  0.2268
  943MOL0     H27266   3.954   6.715   6.413 -0.2148  1.8046 -2.1962
  943MOL0     H27267   3.795   6.727   6.492 -0.5704 -1.6693  0.2612
  943MOL0     H27268   3.816   6.618   6.360  3.2895 -2.0698  2.3638
  943MOL0     H27269   3.314   6.794   6.282 -2.2007 -0.5946 -3.6092
  943MOL0     H27270   3.105   6.681   6.274 -0.8350 -0.4160  1.2315
  943MOL0     H27271   2.908   6.570   6.357  1.5182 -0.4980  1.9378
  943MOL0     H27272   2.951   6.499   6.200 -2.2976 -0.9555 -0.9890
  943MOL0     H27273   2.854   6.288   6.267  0.3795  0.8135 -1.5323
  943MOL0     H27274   2.804   6.346   6.422  0.8537 -0.4813 -0.4293
  943MOL0     H27275   2.623   6.372   6.245  0.8989  0.0642 -4.0453
  943MOL0     H27276   2.715   6.483   6.154 -1.5322 -1.5429 -0.8296
  943MOL0     H27277   2.649   6.545   6.443  1.0378  0.6108 -0.3076
  943MOL0     H27278   2.704   6.654   6.313 -2.5051  0.5209 -4.8468
  943MOL0     H27279   2.450   6.503   6.289  1.8069  0.4217 -2.2429
  943MOL0     H27280   2.490   6.628   6.180 -0.6999 -1.9012 -1.3669
  943MOL0     H27281   2.417   6.625   6.475  2.1886  0.6168  0.5362
  943MOL0     H27282   2.491   6.773   6.413  0.0524 -0.4695  3.5928
  943MOL0     H27283   2.263   6.655   6.264  0.6193  0.1554 -0.9944
  943MOL0     H27284   2.302   6.820   6.289 -0.9224 -0.1729  0.1259
  943MOL0     H27285   2.185   6.635   6.506 -2.0496 -1.3952 -2.1080
  943MOL0     H27286   2.088   6.748   6.419  1.7443 -0.8182 -2.4121
  943MOL0     H27287   3.279   6.337   6.456 -1.6614 -1.5857 -1.4772
  943MOL0     H27288   3.490   6.440   6.465 -0.9144  0.4874  4.1339
  943MOL0     H27289   3.603   6.959   6.086 -2.2598 -0.1984  0.8343
  943MOL0     H27290   3.777   7.156   6.094 -3.0791 -0.3700 -0.6198
  943MOL0     H27291   4.949   7.733   5.473  2.5066  1.8579  1.3095
  943MOL0     H27292   5.061   7.912   5.339 -3.4229 -0.5369 -0.0988
  943MOL0     H27293   5.186   8.227   5.014  1.2073  1.2024 -1.0954
  943MOL0     H27294   5.346   8.391   4.928 -4.2196 -2.0891 -0.4028
  943MOL0     H27295   5.782   8.275   4.938 -0.9361  0.3542  0.7331
  943MOL0     H27296   5.737   8.359   4.789 -4.2992 -2.8148 -0.8783
  943MOL0     H27297   5.909   8.468   4.961  0.2106  1.1574  0.1161
  943MOL0     H27298   5.765   8.478   5.068  0.4968 -0.6553  1.4672
  943MOL0     H27299   5.658   8.625   4.869  0.2576  2.0628  0.4355
  943MOL0     H27300   5.821   8.621   4.786 -0.3364  0.2254 -0.9621
  943MOL0     H27301   5.752   8.736   5.058  0.4396 -1.3692  0.7696
  943MOL0     H27302   5.778   8.833   4.904 -0.7018  0.8030  1.2815
  943MOL0     H27303   6.166   8.747   5.051  0.4494  1.9879 -1.7454
  943MOL0     H27304   5.664   8.123   5.037 -0.4420  0.9008  0.1323
  943MOL0     H27305   5.503   7.962   5.135 -1.0774  0.0414 -0.3215
  944MOL0     O27306   5.415   1.123  10.894 -0.6216 -0.0483 -0.2169
  944MOL0     C27307   5.441   1.248  10.878 -0.4126  1.1240  0.6154
  944MOL0     O27308   5.361   1.345  10.923  0.1188 -0.2714 -0.2825
  944MOL0     C27309   5.256   1.320  11.013  0.2196 -0.0292  0.4426
  944MOL0     C27310   5.162   1.219  10.996 -0.3390  0.6345 -0.3802
  944MOL0     C27311   5.062   1.204  11.087 -0.0876  0.4613  0.2293
  944MOL0     C27312   5.046   1.282  11.195 -0.1613  0.0543 -0.1542
  944MOL0     O27313   4.945   1.263  11.291  0.0572 -0.2966 -0.1702
  944MOL0     C27314   4.878   1.135  11.304 -0.3392  0.1400 -0.7988
  944MOL0     C27315   4.783   1.123  11.426 -0.0251 -0.6751 -0.0681
  944MOL0     C27316   4.714   0.985  11.418  0.3335 -0.2838  0.0678
  944MOL0     C27317   4.809   0.872  11.452  0.0173 -0.0619 -0.0336
  944MOL0     C27318   4.751   0.731  11.431 -0.7127  0.1417 -0.4041
  944MOL0     C27319   4.652   0.695  11.544 -0.3511 -0.3182 -0.4962
  944MOL0     C27320   4.611   0.550  11.559  0.4771  0.4492 -0.1272
  944MOL0     C27321   4.508   0.530  11.676  0.6828 -0.3105 -0.6397
  944MOL0     N27322   4.374   0.597  11.650  0.8475 -0.1580  0.7123
  944MOL0     C27323   4.307   0.587  11.528 -0.3918 -0.1327  0.0064
  944MOL0     C27324   4.194   0.661  11.546 -0.0653 -0.0651  0.9185
  944MOL0     C27325   4.085   0.670  11.451  1.2158  0.7572  0.2021
  944MOL0     C27326   4.010   0.535  11.420 -0.0091  0.0223 -0.0726
  944MOL0     C27327   3.941   0.482  11.552 -0.8221  0.0918  0.6769
  944MOL0     C27328   3.853   0.586  11.622 -0.3859 -0.2619 -0.3604
  944MOL0     O27329   3.756   0.643  11.537  0.1313  0.2101  0.2343
  944MOL0     C27330   3.629   0.595  11.530  0.1356 -0.6668  0.2205
  944MOL0     C27331   3.538   0.682  11.474  0.7472 -0.2623 -0.6584
  944MOL0     C27332   3.405   0.635  11.462 -0.6268 -1.0573 -0.6516
  944MOL0     C27333   3.312   0.733  11.401  0.7031 -0.3225  0.2775
  944MOL0     C27334   3.369   0.505  11.500 -0.5780  0.4850 -0.1301
  944MOL0     C27335   3.235   0.449  11.482  0.3804 -0.2832  0.0115
  944MOL0     O27336   3.238   0.321  11.424 -0.3934 -1.1869 -0.7889
  944MOL0     C27337   3.129   0.259  11.371 -0.2756  0.6439  0.1839
  944MOL0     C27338   3.024   0.323  11.308 -0.4382 -1.1539  0.0881
  944MOL0     C27339   2.925   0.253  11.235  1.0682  1.5115 -0.1347
  944MOL0     C27340   2.925   0.109  11.242 -0.7058 -1.0002 -0.2155
  944MOL0     O27341   2.845   0.025  11.168  0.1770  0.5201  0.1420
  944MOL0     C27342   2.725  -0.025  11.231  0.1290 -0.3423 -0.5557
  944MOL0     C27343   2.684  -0.150  11.150  0.7184 -0.3068  0.2991
  944MOL0     C27344   2.534  -0.174  11.176  0.7359 -0.1796 -0.9432
  944MOL0     C27345   2.475  -0.288  11.101  0.8033 -0.2656  0.1583
  944MOL0     C27346   2.324  -0.258  11.071  0.0720  0.4340 -0.0059
  944MOL0     C27347   2.234  -0.279  11.196 -0.3088  0.1809  0.7682
  944MOL0     C27348   2.092  -0.280  11.152 -0.1979  0.1790 -0.4380
  944MOL0     C27349   2.002  -0.244  11.281  0.0657  0.2729  0.1453
  944MOL0    Cl27350   1.838  -0.208  11.225  0.3603 -0.3968  0.5264
  944MOL0     C27351   3.032   0.050  11.302 -0.6690  0.0665 -0.1083
  944MOL0     C27352   3.133   0.115  11.359  0.2478 -0.1999 -0.3594
  944MOL0     O27353   3.137   0.502  11.532  0.5083  0.3090  0.1961
  944MOL0     C27354   3.465   0.418  11.553 -0.2341 -0.3386  0.3868
  944MOL0     C27355   3.592   0.462  11.570  0.3212 -0.3333 -0.0501
  944MOL0     N27356   4.191   0.702  11.678  0.7976  0.3742  0.3927
  944MOL0     N27357   4.297   0.670  11.741 -0.4865 -0.2582  0.8936
  944MOL0     C27358   5.138   1.393  11.212 -1.1019  0.4268 -0.1137
  944MOL0     C27359   5.252   1.407  11.127  0.9711 -0.0249  0.4125
  944MOL0     C27360   5.576   1.289  10.822 -0.1186  0.2903 -0.3278
  944MOL0     C27361   5.659   1.196  10.758 -0.4500 -0.1169 -0.3804
  944MOL0     C27362   5.784   1.231  10.702  0.2917 -0.1530  0.5156
  944MOL0     C27363   5.828   1.370  10.713  0.7390  0.1610 -0.7835
  944MOL0     O27364   5.947   1.403  10.649 -0.3449 -0.0488 -0.2333
  944MOL0     C27365   5.981   1.538  10.628 -0.1598  0.0531  0.7636
  944MOL0     C27366   5.922   1.588  10.492 -0.4371  0.2812 -0.2321
  944MOL0     C27367   5.940   1.734  10.481  0.1308 -0.3060  0.4585
  944MOL0     C27368   5.818   1.806  10.530  0.0726  0.4851  0.3378
  944MOL0     C27369   5.852   1.940  10.579  0.4178 -0.8178 -1.2958
  944MOL0     C27370   5.857   2.056  10.627 -0.4030  0.0001  0.6488
  944MOL0     C27371   5.744   1.462  10.778  0.0089 -0.2845  0.3054
  944MOL0     C27372   5.627   1.423  10.836 -0.0109  0.5982  0.2536
  944MOL0     H27373   5.180   1.151  10.913  1.4545  0.4745  0.1105
  944MOL0     H27374   4.984   1.130  11.070 -0.1426  0.6439 -0.3358
  944MOL0     H27375   4.821   1.101  11.217 -0.4745 -3.0223  0.3908
  944MOL0     H27376   4.956   1.064  11.332  0.6414  1.1188 -0.9951
  944MOL0     H27377   4.836   1.124  11.522 -0.4102 -0.5568  0.1447
  944MOL0     H27378   4.707   1.202  11.424 -3.3580 -3.4815  3.0401
  944MOL0     H27379   4.624   0.994  11.479 -0.7925  2.1599 -1.7353
  944MOL0     H27380   4.669   0.966  11.320 -0.6100 -0.5679  0.5412
  944MOL0     H27381   4.901   0.873  11.393 -1.2087 -0.7059 -2.0777
  944MOL0     H27382   4.830   0.882  11.558  0.4364 -0.3050 -0.0953
  944MOL0     H27383   4.697   0.709  11.339 -1.8126  2.5363 -0.4039
  944MOL0     H27384   4.835   0.661  11.436  0.5260  1.4983 -1.2384
  944MOL0     H27385   4.701   0.731  11.635  2.3375 -2.2171 -1.0520
  944MOL0     H27386   4.561   0.755  11.535 -1.3467 -1.2902  2.1455
  944MOL0     H27387   4.565   0.532  11.462  1.9440 -1.3285 -0.5513
  944MOL0     H27388   4.698   0.484  11.569  0.2064  0.1433  0.2202
  944MOL0     H27389   4.547   0.566  11.772  0.4719 -5.0758  1.5489
  944MOL0     H27390   4.489   0.425  11.701 -2.3851  0.1681 -0.5939
  944MOL0     H27391   4.315   0.515  11.447  0.6097  0.3042 -0.3037
  944MOL0     H27392   4.021   0.748  11.492 -0.3696  0.5821 -1.7445
  944MOL0     H27393   4.124   0.723  11.364  0.2719  1.1977  0.0300
  944MOL0     H27394   4.083   0.465  11.378 -1.3085 -1.1118 -0.4863
  944MOL0     H27395   3.934   0.552  11.343  0.9361  0.5059 -0.9287
  944MOL0     H27396   4.024   0.460  11.620  0.0708  2.5714  0.4818
  944MOL0     H27397   3.881   0.393  11.530 -2.2945  1.9154 -4.1887
  944MOL0     H27398   3.909   0.662  11.677  2.5558 -3.4057  1.3292
  944MOL0     H27399   3.807   0.532  11.705  0.5210  2.1839  1.8814
  944MOL0     H27400   3.557   0.781  11.433 -1.6035  1.2887  1.7479
  944MOL0     H27401   3.364   0.813  11.347 -0.3961 -0.0467 -0.3972
  944MOL0     H27402   3.245   0.682  11.332  0.9565 -1.5590  0.9150
  944MOL0     H27403   3.250   0.781  11.478 -1.1084 -0.9104 -0.7734
  944MOL0     H27404   3.031   0.429  11.286 -4.6808 -0.8284 -0.4491
  944MOL0     H27405   2.837   0.298  11.190 -0.3989 -1.3040 -0.3193
  944MOL0     H27406   2.739  -0.030  11.340  1.0498  2.0926 -0.4910
  944MOL0     H27407   2.651   0.056  11.225  0.7071  0.2339 -0.1580
  944MOL0     H27408   2.709  -0.140  11.044 -1.5011 -2.5578 -0.5516
  944MOL0     H27409   2.740  -0.237  11.184  0.3514 -0.1771  1.2808
  944MOL0     H27410   2.496  -0.077  11.142  2.6046  0.9679  0.0520
  944MOL0     H27411   2.510  -0.188  11.282 -1.9205  1.8465 -1.1730
  944MOL0     H27412   2.523  -0.289  11.002  0.4331 -3.2111 -0.0749
  944MOL0     H27413   2.495  -0.384  11.148  0.9335 -0.0482  0.5560
  944MOL0     H27414   2.285  -0.330  10.998 -0.0731  0.5871 -0.0791
  944MOL0     H27415   2.319  -0.151  11.051 -0.1751  1.2241  3.6384
  944MOL0     H27416   2.258  -0.372  11.249  2.0282  1.0547  1.3773
  944MOL0     H27417   2.247  -0.198  11.268 -0.7617  0.4851  0.5115
  944MOL0     H27418   2.072  -0.375  11.103  3.4578  0.9681 -3.9275
  944MOL0     H27419   2.083  -0.198  11.080 -3.1611 -0.7485 -1.2670
  944MOL0     H27420   2.024  -0.145  11.322 -0.7099  0.5914 -0.1800
  944MOL0     H27421   1.999  -0.324  11.355 -2.8598 -2.1223 -2.2722
  944MOL0     H27422   3.037  -0.058  11.285 -4.0082  0.2081 -3.0593
  944MOL0     H27423   3.223   0.066  11.394  0.4803  0.2374 -0.3337
  944MOL0     H27424   3.438   0.316  11.577  1.8282 -1.2152 -0.7816
  944MOL0     H27425   3.660   0.391  11.616 -1.2298 -0.1711  2.6634
  944MOL0     H27426   5.122   1.451  11.303 -0.2199  2.4919 -1.2120
  944MOL0     H27427   5.333   1.476  11.150 -1.1512  2.7926  0.0278
  944MOL0     H27428   5.639   1.091  10.743 -1.7608 -0.4938  3.0753
  944MOL0     H27429   5.846   1.162  10.645 -0.4536  1.3353 -2.2970
  944MOL0     H27430   5.944   1.602  10.709 -1.9162 -1.8993  1.5863
  944MOL0     H27431   6.088   1.547  10.610 -0.3682  0.9858 -0.1039
  944MOL0     H27432   5.820   1.554  10.473 -0.5909  0.7641 -0.2828
  944MOL0     H27433   5.979   1.542  10.411  1.8235 -1.3791  2.1397
  944MOL0     H27434   5.951   1.770  10.379  0.2426 -1.4501  0.0509
  944MOL0     H27435   6.035   1.762  10.528 -0.1762 -1.2560  1.6985
  944MOL0     H27436   5.772   1.748  10.610  1.8138 -0.9702  0.3602
  944MOL0     H27437   5.746   1.818  10.449 -0.7867 -2.6004  0.5081
  944MOL0     H27438   5.866   2.155  10.667  1.3587 -0.0917  0.5492
  944MOL0     H27439   5.764   1.568  10.774 -0.4205 -0.2333 -1.2453
  944MOL0     H27440   5.577   1.502  10.891  3.3806  3.6266 -0.6770
  945MOL0     O27441   2.713   4.997   7.019 -0.3961 -0.0529 -0.0237
  945MOL0     C27442   2.814   4.985   7.099  1.0574  0.5853  0.5096
  945MOL0     O27443   2.806   4.921   7.219  0.1825  0.3216 -0.3492
  945MOL0     C27444   2.690   4.875   7.264  0.0729  0.1820  0.8364
  945MOL0     C27445   2.673   4.741   7.284  0.2529 -0.3305  0.6246
  945MOL0     C27446   2.556   4.692   7.345 -0.2153  0.8906  0.0626
  945MOL0     C27447   2.450   4.769   7.395  0.0915 -0.1517  0.9070
  945MOL0     O27448   2.343   4.715   7.467 -0.3085  0.9028 -0.0943
  945MOL0     C27449   2.221   4.793   7.484  0.4847 -0.1333  0.1870
  945MOL0     C27450   2.139   4.801   7.351 -0.0989 -0.0414 -0.9673
  945MOL0     C27451   1.990   4.861   7.376  0.3346  0.6916  0.0362
  945MOL0     C27452   1.891   4.851   7.259  0.6245 -0.1038 -0.3479
  945MOL0     C27453   1.770   4.946   7.285  0.3628 -0.1846 -0.5988
  945MOL0     C27454   1.653   4.920   7.186  0.3673  0.1142 -0.8452
  945MOL0     C27455   1.691   4.933   7.049 -0.7486 -0.7402 -0.5899
  945MOL0     C27456   1.583   4.955   6.948 -0.2708  0.4196 -0.2169
  945MOL0     N27457   1.504   4.835   6.939 -0.1544 -0.3840 -0.6240
  945MOL0     C27458   1.542   4.718   6.888 -0.7633 -0.3436 -0.9342
  945MOL0     C27459   1.428   4.651   6.840 -0.1520 -0.4744  0.6739
  945MOL0     C27460   1.422   4.517   6.772  0.5759 -1.0220  0.2410
  945MOL0     C27461   1.521   4.494   6.660  0.6145 -0.3848 -0.0071
  945MOL0     C27462   1.509   4.589   6.544 -0.7797 -0.1721 -0.0237
  945MOL0     C27463   1.370   4.644   6.528 -0.4083  0.0046  0.7919
  945MOL0     O27464   1.361   4.682   6.396 -0.5782  0.7618  0.4579
  945MOL0     C27465   1.234   4.715   6.355  0.1679 -0.5074 -1.2362
  945MOL0     C27466   1.203   4.705   6.224  0.1133  0.5284 -0.0417
  945MOL0     C27467   1.079   4.740   6.165  0.3786 -0.5857 -0.4026
  945MOL0     C27468   1.062   4.725   6.016 -0.2745 -0.9499  0.3352
  945MOL0     C27469   0.970   4.784   6.245 -0.8740  0.2904 -0.2437
  945MOL0     C27470   0.830   4.823   6.192 -1.1444 -0.2546  0.3792
  945MOL0     O27471   0.785   4.789   6.067 -0.0203  0.0771 -0.6468
  945MOL0     C27472   0.642   4.801   6.055  0.7337  0.8966 -0.5145
  945MOL0     C27473   0.552   4.760   6.157 -0.8377  0.6566 -0.5472
  945MOL0     C27474   0.416   4.794   6.154  0.1850  0.1054 -0.3754
  945MOL0     C27475   0.372   4.859   6.037 -0.7119 -0.1050 -0.9058
  945MOL0     O27476   0.233   4.893   6.027  0.7412 -0.0860  0.2801
  945MOL0     C27477   0.186   4.955   6.144  0.3202 -0.3004 -0.8539
  945MOL0     C27478   0.062   5.038   6.100  0.0426  0.1601 -0.0016
  945MOL0     C27479  -0.057   4.948   6.059 -0.3184  0.3578 -0.1169
  945MOL0     C27480  -0.172   5.024   6.000  0.7741 -0.0489 -0.4012
  945MOL0     C27481  -0.287   4.926   6.007  0.3237  0.4474 -0.2907
  945MOL0     C27482  -0.401   4.974   5.922  0.4809  0.1384 -0.7199
  945MOL0     C27483  -0.366   4.971   5.768  0.8471 -0.1978  0.8025
  945MOL0     C27484  -0.375   5.104   5.705 -0.7353 -0.0563  0.5996
  945MOL0    Cl27485  -0.535   5.132   5.640 -0.4879 -0.1035  0.0785
  945MOL0     C27486   0.456   4.885   5.928 -0.4608  0.6153  0.9947
  945MOL0     C27487   0.596   4.856   5.940  0.7204 -0.3894  0.0346
  945MOL0     O27488   0.769   4.882   6.278 -0.3180  0.0429 -0.4288
  945MOL0     C27489   0.995   4.785   6.383  1.1353 -0.0923  0.8404
  945MOL0     C27490   1.117   4.748   6.437  0.7806  0.6270  0.4743
  945MOL0     N27491   1.319   4.724   6.862 -0.0704 -0.1338  0.0058
  945MOL0     N27492   1.368   4.827   6.926  0.6205 -0.7185  0.0179
  945MOL0     C27493   2.466   4.905   7.368 -0.2931 -0.2347  0.1545
  945MOL0     C27494   2.582   4.956   7.306  0.0439  0.2337  0.4845
  945MOL0     C27495   2.941   5.043   7.069 -0.8172 -0.9552 -0.0312
  945MOL0     C27496   3.058   5.002   7.142  0.8230  0.1635  0.0152
  945MOL0     C27497   3.186   5.054   7.105  0.9852  0.0601 -0.2629
  945MOL0     C27498   3.203   5.151   7.004  0.7434  0.4661 -0.4069
  945MOL0     O27499   3.328   5.201   6.999  0.1307  0.5069  0.3802
  945MOL0     C27500   3.364   5.285   6.892 -0.6950 -0.6234  0.1970
  945MOL0     C27501   3.414   5.202   6.769  0.1643 -0.4683 -0.1097
  945MOL0     C27502   3.461   5.290   6.650 -0.3252  0.0306  0.9993
  945MOL0     C27503   3.529   5.219   6.523 -0.2344  0.4456 -0.3647
  945MOL0     C27504   3.433   5.112   6.477  0.4025  1.3236 -0.5906
  945MOL0     C27505   3.344   5.025   6.453 -0.2608  0.2272 -0.7875
  945MOL0     C27506   3.085   5.179   6.923  0.6290  0.6603  0.2718
  945MOL0     C27507   2.955   5.129   6.952  0.8833  0.1164 -0.3606
  945MOL0     H27508   2.754   4.679   7.247  0.3267  0.1222  0.0254
  945MOL0     H27509   2.547   4.585   7.364  0.4689  1.1248  1.7798
  945MOL0     H27510   2.165   4.730   7.553  0.9831 -1.4121 -0.5327
  945MOL0     H27511   2.233   4.894   7.524  0.9914 -1.2348  3.0127
  945MOL0     H27512   2.188   4.864   7.275  2.4664  1.6087  1.8090
  945MOL0     H27513   2.137   4.699   7.312 -1.4309 -1.0227  1.4432
  945MOL0     H27514   1.954   4.806   7.463  1.1717 -1.6811 -1.0238
  945MOL0     H27515   2.002   4.967   7.397 -0.5495  0.9359 -0.6309
  945MOL0     H27516   1.952   4.879   7.173  3.0179 -2.3205  0.5159
  945MOL0     H27517   1.860   4.749   7.238 -2.5495  0.2844  1.6080
  945MOL0     H27518   1.733   4.935   7.388  1.1870 -0.5072 -0.3315
  945MOL0     H27519   1.798   5.051   7.275 -2.3797  0.5892 -1.1677
  945MOL0     H27520   1.605   4.822   7.198  3.2742 -1.1305  2.2498
  945MOL0     H27521   1.578   4.996   7.206  0.2940 -0.2104  0.1616
  945MOL0     H27522   1.755   5.022   7.047 -2.1984  0.4443  1.4544
  945MOL0     H27523   1.752   4.849   7.013 -0.8789 -0.6519 -1.0166
  945MOL0     H27524   1.626   4.971   6.849  1.7173  2.2767  0.8489
  945MOL0     H27525   1.531   5.047   6.978 -0.1218  0.8078 -1.1391
  945MOL0     H27526   1.642   4.676   6.879 -0.5435  0.2124 -1.1088
  945MOL0     H27527   1.444   4.459   6.862  0.7886  2.1580  2.3943
  945MOL0     H27528   1.324   4.480   6.739  1.1903 -0.2943 -2.7138
  945MOL0     H27529   1.536   4.396   6.615  0.0631 -0.9948  1.1166
  945MOL0     H27530   1.622   4.506   6.701  0.4877 -2.3272  0.9772
  945MOL0     H27531   1.548   4.545   6.452  2.7059 -4.0448  2.9721
  945MOL0     H27532   1.563   4.680   6.570 -0.6460  0.0289 -0.9550
  945MOL0     H27533   1.359   4.728   6.597 -0.5474 -0.2426  1.0711
  945MOL0     H27534   1.301   4.563   6.551  1.4199 -1.2954  1.9781
  945MOL0     H27535   1.289   4.671   6.167  0.2075 -1.0070  0.9705
  945MOL0     H27536   1.030   4.814   5.962  0.9683 -0.6398  0.0787
  945MOL0     H27537   1.160   4.694   5.979 -0.7686 -0.4288 -1.4860
  945MOL0     H27538   0.988   4.646   5.998 -1.3825 -0.1066  1.0244
  945MOL0     H27539   0.585   4.715   6.250 -1.3832 -0.8732 -1.0460
  945MOL0     H27540   0.344   4.786   6.234 -1.1730  4.0219 -0.9789
  945MOL0     H27541   0.154   4.886   6.223  1.1856  0.4670  0.2147
  945MOL0     H27542   0.263   5.021   6.186  0.2805 -0.0144 -1.2287
  945MOL0     H27543   0.045   5.109   6.182  0.9084  0.0182  0.3083
  945MOL0     H27544   0.083   5.106   6.017  0.7577  2.0928  1.6840
  945MOL0     H27545  -0.088   4.895   6.150 -0.0755 -0.9439 -0.7768
  945MOL0     H27546  -0.026   4.876   5.984  1.1114  0.2212  0.5753
  945MOL0     H27547  -0.187   5.116   6.058  2.5312  1.3095 -1.9976
  945MOL0     H27548  -0.151   5.061   5.899 -1.1946  1.3276 -0.3813
  945MOL0     H27549  -0.313   4.917   6.113  2.6027 -0.9806  0.2004
  945MOL0     H27550  -0.246   4.829   5.979  2.2106  1.4912 -1.3187
  945MOL0     H27551  -0.484   4.905   5.940  1.1808 -0.9217 -1.4159
  945MOL0     H27552  -0.440   5.072   5.949 -0.2272  0.2257 -2.0016
  945MOL0     H27553  -0.433   4.899   5.721  2.2309 -2.4771  2.1463
  945MOL0     H27554  -0.270   4.924   5.743 -0.1377 -2.2899  0.7648
  945MOL0     H27555  -0.301   5.119   5.627 -3.0941  1.7106 -1.4646
  945MOL0     H27556  -0.359   5.174   5.787 -0.2551 -0.2912  0.7067
  945MOL0     H27557   0.417   4.915   5.832 -0.0211  0.1965  0.6771
  945MOL0     H27558   0.667   4.886   5.862  0.7703 -2.7607 -0.9189
  945MOL0     H27559   0.923   4.818   6.456 -0.7291 -2.0546 -0.0100
  945MOL0     H27560   1.116   4.735   6.544 -1.7438 -1.9730  0.2569
  945MOL0     H27561   2.391   4.982   7.381  0.4509  0.4762  0.3195
  945MOL0     H27562   2.600   5.062   7.294 -1.7862  0.5253 -0.0329
  945MOL0     H27563   3.059   4.932   7.225 -2.2393 -1.1418 -0.9025
  945MOL0     H27564   3.281   5.043   7.156  1.6646  1.1010 -1.2401
  945MOL0     H27565   3.283   5.356   6.875  0.3235  1.2013  2.4433
  945MOL0     H27566   3.444   5.350   6.929 -0.5582 -1.0802  0.7044
  945MOL0     H27567   3.328   5.141   6.740  0.1750  0.4719 -2.3198
  945MOL0     H27568   3.494   5.131   6.790  3.5556  2.3312 -2.3562
  945MOL0     H27569   3.535   5.367   6.678  0.9113  0.4714 -2.9236
  945MOL0     H27570   3.376   5.347   6.614  0.0046  0.4880  0.9298
  945MOL0     H27571   3.630   5.196   6.556 -0.5853  0.1665  0.5357
  945MOL0     H27572   3.551   5.286   6.439  0.5646  0.4861 -0.1316
  945MOL0     H27573   3.270   4.952   6.426  0.2809 -0.2767 -0.9456
  945MOL0     H27574   3.091   5.248   6.839 -0.5736  1.6624  0.9806
  945MOL0     H27575   2.870   5.155   6.889 -0.8637 -0.3768  1.6605
  946MOL0     O27576   7.019   3.880   0.989 -0.1014 -0.2475 -0.0247
  946MOL0     C27577   6.976   3.987   1.044  0.2696  0.8012  0.8823
  946MOL0     O27578   6.848   4.006   1.096  0.6105 -0.0437  0.3927
  946MOL0     C27579   6.755   3.904   1.089 -0.7073  0.1212 -0.5761
  946MOL0     C27580   6.744   3.799   1.002  0.0843  0.6729  0.5059
  946MOL0     C27581   6.638   3.701   1.010 -0.3166  0.0102 -0.4704
  946MOL0     C27582   6.535   3.718   1.105 -0.1449  0.0121 -0.5317
  946MOL0     O27583   6.430   3.636   1.124  0.0386  0.1684 -0.8129
  946MOL0     C27584   6.436   3.496   1.071  0.3558 -0.6084  0.1637
  946MOL0     C27585   6.306   3.413   1.110 -0.0525  0.3899  1.0405
  946MOL0     C27586   6.184   3.481   1.062 -0.2490 -0.0204  1.3009
  946MOL0     C27587   6.062   3.413   1.128  0.9471 -0.2861 -0.2167
  946MOL0     C27588   5.928   3.437   1.066  1.2531  0.5455 -0.3756
  946MOL0     C27589   5.886   3.585   1.085 -0.1630  0.9735 -0.8593
  946MOL0     C27590   5.739   3.598   1.070 -0.0759 -0.2428 -0.7100
  946MOL0     C27591   5.690   3.749   1.050  0.4095  0.0530 -0.2946
  946MOL0     N27592   5.554   3.742   0.996 -0.3978 -0.9144 -0.1295
  946MOL0     C27593   5.439   3.763   1.072 -0.7931  0.5254 -0.1645
  946MOL0     C27594   5.335   3.774   0.986  0.4159 -0.2422 -0.4431
  946MOL0     C27595   5.186   3.782   1.009 -0.3266  0.4018 -0.9626
  946MOL0     C27596   5.149   3.921   1.059 -0.4121 -0.1190 -0.2462
  946MOL0     C27597   4.995   3.936   1.062  0.8239 -0.0414 -0.0971
  946MOL0     C27598   4.941   4.071   1.122  0.4531  0.1227 -0.1875
  946MOL0     O27599   4.946   4.077   1.267 -0.9222 -0.1761 -0.5995
  946MOL0     C27600   4.827   4.037   1.326  0.9853  0.1722 -0.5968
  946MOL0     C27601   4.809   3.903   1.358 -0.4839  0.1316 -0.4000
  946MOL0     C27602   4.688   3.858   1.410 -0.1544  0.7578 -0.4754
  946MOL0     C27603   4.682   3.705   1.418  0.3018  0.6474 -0.6673
  946MOL0     C27604   4.578   3.937   1.444 -0.5596 -0.3285 -0.1813
  946MOL0     C27605   4.461   3.902   1.519  0.9764  0.7826  0.1860
  946MOL0     O27606   4.361   3.999   1.548 -0.3857 -0.0302 -0.1630
  946MOL0     C27607   4.257   3.957   1.633 -0.0233 -0.3269  0.2759
  946MOL0     C27608   4.150   3.878   1.593  0.9136 -0.1907  0.3523
  946MOL0     C27609   4.049   3.855   1.686 -0.3869 -0.8717 -0.5802
  946MOL0     C27610   4.061   3.892   1.822 -0.5037  0.0614 -0.2825
  946MOL0     O27611   3.972   3.851   1.913 -0.5690 -0.3858 -0.3239
  946MOL0     C27612   4.006   3.851   2.050  0.5628 -0.0092  0.8095
  946MOL0     C27613   3.926   3.747   2.131  0.3982  0.2037  0.3743
  946MOL0     C27614   3.936   3.609   2.061 -0.2204  0.3833  0.1907
  946MOL0     C27615   3.835   3.515   2.133 -0.8342  0.3079 -0.2391
  946MOL0     C27616   3.799   3.393   2.046  0.3075 -0.2746 -0.1686
  946MOL0     C27617   3.736   3.278   2.132  0.4809  0.1028  0.3408
  946MOL0     C27618   3.686   3.148   2.052  0.3557  1.2669  0.7731
  946MOL0     C27619   3.783   3.038   2.005 -0.1675 -0.0109  0.0060
  946MOL0    Cl27620   3.877   2.968   2.133 -0.1338  0.1153 -0.0509
  946MOL0     C27621   4.171   3.974   1.856  0.0161 -0.3713  0.3504
  946MOL0     C27622   4.258   4.010   1.757 -0.4065 -0.1240  0.3296
  946MOL0     O27623   4.451   3.784   1.556 -0.0185 -0.1382 -0.0354
  946MOL0     C27624   4.599   4.073   1.408 -0.4331 -0.4797  0.4822
  946MOL0     C27625   4.719   4.122   1.355  0.1487 -0.9551 -0.0516
  946MOL0     N27626   5.386   3.766   0.860 -0.6458 -0.0831  0.2028
  946MOL0     N27627   5.514   3.751   0.869 -0.0692  0.5214  0.2842
  946MOL0     C27628   6.545   3.827   1.191  0.8304 -0.4587 -0.8642
  946MOL0     C27629   6.653   3.915   1.186  0.1424  0.5267 -0.0204
  946MOL0     C27630   7.066   4.098   1.037 -0.0395  0.3049 -0.9609
  946MOL0     C27631   7.008   4.228   1.047  0.3153  0.3427 -0.5534
  946MOL0     C27632   7.085   4.338   1.021  0.6054 -0.8838  0.0104
  946MOL0     C27633   7.222   4.338   0.985 -0.9512  0.3520 -0.0563
  946MOL0     O27634   7.304   4.445   0.956 -0.4490  0.2160 -0.5228
  946MOL0     C27635   7.250   4.576   0.974  0.4747 -0.4164  0.8681
  946MOL0     C27636   7.240   4.624   1.122  0.4725 -0.4384  0.4637
  946MOL0     C27637   7.364   4.602   1.205 -0.8184 -0.5963  0.1927
  946MOL0     C27638   7.352   4.677   1.341 -0.6595  0.1789  0.0209
  946MOL0     C27639   7.485   4.667   1.412  0.8246  0.0310  0.0145
  946MOL0     C27640   7.589   4.651   1.465 -0.4616  0.4590 -0.5494
  946MOL0     C27641   7.279   4.206   0.997  0.2671 -0.4983 -0.9419
  946MOL0     C27642   7.204   4.086   1.018  0.9926  0.1433  0.0954
  946MOL0     H27643   6.816   3.778   0.923 -1.4598 -2.8253 -0.1580
  946MOL0     H27644   6.638   3.613   0.947  0.8868 -0.9876  0.8531
  946MOL0     H27645   6.446   3.492   0.962  2.2992 -0.0257  0.2878
  946MOL0     H27646   6.521   3.449   1.121  0.5606  1.6578  2.1333
  946MOL0     H27647   6.315   3.315   1.063 -2.5579  0.5041  0.1657
  946MOL0     H27648   6.300   3.395   1.217 -0.7915 -1.7897  0.6902
  946MOL0     H27649   6.183   3.586   1.092 -1.0285 -0.2113  1.9879
  946MOL0     H27650   6.171   3.489   0.954  2.6603 -0.7305  0.8270
  946MOL0     H27651   6.074   3.305   1.131 -0.0226 -0.4297 -0.8974
  946MOL0     H27652   6.053   3.450   1.231  1.4986  0.5896 -0.4737
  946MOL0     H27653   5.922   3.395   0.966  0.7939 -2.9002  0.9356
  946MOL0     H27654   5.860   3.375   1.127 -0.0710  2.7034  0.4703
  946MOL0     H27655   5.923   3.623   1.181  0.3357 -0.5318 -0.4178
  946MOL0     H27656   5.946   3.644   1.015  3.3186 -2.1460 -0.8488
  946MOL0     H27657   5.708   3.537   0.985  0.6602  0.5637 -1.5841
  946MOL0     H27658   5.687   3.562   1.159 -0.3746  0.8312 -0.4283
  946MOL0     H27659   5.750   3.786   0.966  1.1212 -0.7688 -0.1606
  946MOL0     H27660   5.698   3.804   1.144  1.0687 -0.9499  0.2535
  946MOL0     H27661   5.430   3.778   1.179 -0.3815  3.0160 -0.4200
  946MOL0     H27662   5.131   3.750   0.920 -0.6105 -0.6886 -0.4147
  946MOL0     H27663   5.149   3.715   1.088 -3.6356 -2.1786 -4.3323
  946MOL0     H27664   5.195   3.994   0.992 -0.5230  2.1168  1.9569
  946MOL0     H27665   5.183   3.937   1.162 -0.8671 -4.9671  0.8938
  946MOL0     H27666   4.954   3.859   1.128  1.7831 -2.2734 -1.9701
  946MOL0     H27667   4.954   3.916   0.963  0.4530  0.1916  0.0047
  946MOL0     H27668   4.840   4.101   1.093  1.5904  5.4956  0.3255
  946MOL0     H27669   4.997   4.150   1.071  1.1202 -0.0138  0.3109
  946MOL0     H27670   4.888   3.831   1.338  0.1880  0.6562  0.2966
  946MOL0     H27671   4.601   3.676   1.350  1.1312  0.9273 -1.8053
  946MOL0     H27672   4.770   3.653   1.381 -1.5742 -0.9973 -3.1052
  946MOL0     H27673   4.681   3.666   1.520 -0.0791  0.9765 -0.5388
  946MOL0     H27674   4.154   3.833   1.495  1.4550  0.4336  0.0803
  946MOL0     H27675   3.967   3.798   1.645  0.5681 -1.2515 -2.0913
  946MOL0     H27676   4.112   3.822   2.057 -0.0093 -2.0886  1.5961
  946MOL0     H27677   3.997   3.948   2.097 -0.4220 -0.9646  2.6976
  946MOL0     H27678   3.971   3.736   2.230  0.6914 -2.8572  0.0026
  946MOL0     H27679   3.828   3.795   2.127  0.2123 -0.1073  1.1057
  946MOL0     H27680   4.032   3.558   2.056  0.0734  0.9220  0.2340
  946MOL0     H27681   3.899   3.623   1.959 -0.0653  0.2364  0.1148
  946MOL0     H27682   3.891   3.483   2.221  1.2234  0.1645 -1.5463
  946MOL0     H27683   3.744   3.566   2.166 -2.6841 -2.3912 -0.8577
  946MOL0     H27684   3.892   3.364   1.998  0.5011  2.0471 -1.3241
  946MOL0     H27685   3.722   3.426   1.976 -2.7424 -0.9059  2.5853
  946MOL0     H27686   3.812   3.237   2.198 -0.0189 -2.5127 -0.5963
  946MOL0     H27687   3.654   3.314   2.194 -0.2724 -0.1089 -0.4994
  946MOL0     H27688   3.630   3.182   1.964 -1.6380 -1.5755  0.8221
  946MOL0     H27689   3.621   3.100   2.126  1.1037  3.2006  2.7923
  946MOL0     H27690   3.850   3.076   1.928  0.5127  4.2733  2.4117
  946MOL0     H27691   3.715   2.965   1.960 -1.2501  0.0397  1.4796
  946MOL0     H27692   4.179   4.016   1.955 -1.0842 -0.6961  0.5995
  946MOL0     H27693   4.333   4.088   1.769 -1.1856  0.4665  1.5468
  946MOL0     H27694   4.529   4.154   1.427  0.6969  0.4617  0.7937
  946MOL0     H27695   4.728   4.225   1.322  0.9030 -0.3213  1.9728
  946MOL0     H27696   6.466   3.847   1.263  1.2444 -1.6748 -0.0373
  946MOL0     H27697   6.633   3.998   1.252 -0.8121 -0.8808  1.5285
  946MOL0     H27698   6.901   4.239   1.061 -0.0066 -0.9125 -1.7134
  946MOL0     H27699   7.031   4.430   1.003  1.0386 -0.6055  0.1327
  946MOL0     H27700   7.329   4.633   0.924  0.8456 -0.2544  1.6075
  946MOL0     H27701   7.156   4.584   0.920  0.1391 -3.8027  0.7231
  946MOL0     H27702   7.150   4.583   1.170  1.1715 -2.5322  0.0982
  946MOL0     H27703   7.225   4.732   1.115  0.5495 -0.4667 -0.1588
  946MOL0     H27704   7.449   4.645   1.151 -0.9907  0.2194  0.5540
  946MOL0     H27705   7.379   4.496   1.228  0.5147 -0.3353  0.6507
  946MOL0     H27706   7.263   4.641   1.394  0.3004 -0.0100  1.5633
  946MOL0     H27707   7.329   4.783   1.327  1.7358  0.5369 -1.7645
  946MOL0     H27708   7.687   4.642   1.508 -1.2054  3.7067  2.3153
  946MOL0     H27709   7.387   4.210   0.984  0.5956 -0.1407  1.3607
  946MOL0     H27710   7.253   3.989   1.022  0.8771  0.1018  0.5130
  947MOL0     O27711  11.087   1.210   4.407  0.5929 -0.8551 -1.0738
  947MOL0     C27712  11.181   1.159   4.347  0.0627  0.7142 -0.2637
  947MOL0     O27713  11.183   1.115   4.223  0.2884  0.1688  0.7803
  947MOL0     C27714  11.061   1.090   4.152  0.0473  0.4381  1.1093
  947MOL0     C27715  10.987   0.980   4.195  0.3792 -0.5136 -0.0434
  947MOL0     C27716  10.861   0.940   4.130 -0.8260  0.8880  0.8659
  947MOL0     C27717  10.807   1.033   4.041  0.3454 -1.2485 -0.5511
  947MOL0     O27718  10.683   1.000   3.986  0.7166 -0.7002  0.1589
  947MOL0     C27719  10.593   1.113   3.934 -1.0484  0.5666 -0.3121
  947MOL0     C27720  10.482   1.065   3.852 -0.2126 -0.2946  0.2964
  947MOL0     C27721  10.393   0.966   3.922  0.4201  0.2808 -0.6082
  947MOL0     C27722  10.298   0.910   3.814 -0.5652 -0.1457  0.9248
  947MOL0     C27723  10.197   0.810   3.876 -0.3254 -0.7189 -0.2015
  947MOL0     C27724  10.067   0.793   3.800 -0.2296  0.8510 -0.4738
  947MOL0     C27725   9.967   0.905   3.827  0.6414  0.4298  0.7386
  947MOL0     C27726   9.837   0.894   3.751 -0.5025  0.5491 -0.3777
  947MOL0     N27727   9.835   0.929   3.606  0.3195 -0.6071  0.7239
  947MOL0     C27728   9.709   0.941   3.545 -0.5850  0.4372  0.2696
  947MOL0     C27729   9.742   0.938   3.418 -0.5941 -0.4738 -0.6272
  947MOL0     C27730   9.658   0.926   3.303  0.9551  0.7373  1.2242
  947MOL0     C27731   9.507   0.896   3.319  0.0853  0.8306 -0.6114
  947MOL0     C27732   9.455   0.849   3.185 -0.6529 -0.0604  0.3691
  947MOL0     C27733   9.300   0.855   3.183  0.6667  0.0130  0.7955
  947MOL0     O27734   9.240   0.800   3.295 -0.1567  0.1549  0.2748
  947MOL0     C27735   9.104   0.767   3.287 -0.4710  0.2327  0.5647
  947MOL0     C27736   9.022   0.824   3.193  0.4738  0.2183 -0.1170
  947MOL0     C27737   8.901   0.770   3.163 -0.7245  0.2908 -0.3694
  947MOL0     C27738   8.827   0.825   3.046  0.2417  0.3906  0.3091
  947MOL0     C27739   8.849   0.662   3.242 -0.5555 -0.2670  0.3960
  947MOL0     C27740   8.715   0.616   3.227  0.3508  0.2517 -0.1865
  947MOL0     O27741   8.692   0.484   3.208  0.2813  0.6461  0.4652
  947MOL0     C27742   8.564   0.440   3.206  0.0874 -0.1736 -0.5996
  947MOL0     C27743   8.509   0.390   3.094 -0.0564 -0.4835  0.8251
  947MOL0     C27744   8.379   0.342   3.096 -0.0381  0.5147  0.0213
  947MOL0     C27745   8.309   0.334   3.215 -1.2066  0.1014 -0.1801
  947MOL0     O27746   8.174   0.294   3.216 -0.0589 -0.0613  0.0942
  947MOL0     C27747   8.078   0.335   3.322 -0.5305  0.0119  0.3415
  947MOL0     C27748   7.942   0.292   3.272  0.6177 -0.1024  0.3238
  947MOL0     C27749   7.866   0.388   3.172  0.3049  0.5488 -0.6525
  947MOL0     C27750   7.725   0.323   3.143 -0.1162  0.4289  0.4795
  947MOL0     C27751   7.620   0.361   3.243  0.3252 -0.0434 -0.1944
  947MOL0     C27752   7.583   0.512   3.225  0.0865 -0.6335 -0.6658
  947MOL0     C27753   7.503   0.568   3.351 -0.4621  0.1048 -0.0270
  947MOL0     C27754   7.369   0.507   3.365 -0.8303 -0.1616 -0.3095
  947MOL0    Cl27755   7.280   0.548   3.214  0.3862  0.1223  0.1671
  947MOL0     C27756   8.377   0.373   3.334 -0.3918 -1.1927  0.6607
  947MOL0     C27757   8.496   0.438   3.327  0.2804 -0.5317  0.0154
  947MOL0     O27758   8.626   0.697   3.253  0.0443  0.3508  0.2927
  947MOL0     C27759   8.939   0.603   3.337  0.1618 -0.2361  0.9221
  947MOL0     C27760   9.064   0.662   3.363 -0.2419 -0.2392 -0.3418
  947MOL0     N27761   9.883   0.930   3.399  0.0532  0.0613 -0.5705
  947MOL0     N27762   9.936   0.929   3.515  0.4269 -0.8010  0.7469
  947MOL0     C27763  10.876   1.154   4.015 -0.4191  0.3207 -0.2166
  947MOL0     C27764  10.997   1.187   4.075  1.2872  0.1101  0.6794
  947MOL0     C27765  11.298   1.115   4.435 -1.1901 -0.6079  0.3390
  947MOL0     C27766  11.380   1.007   4.402 -0.1710 -0.1318 -0.9083
  947MOL0     C27767  11.484   0.965   4.486 -0.1299  0.7109  0.4534
  947MOL0     C27768  11.516   1.027   4.601 -0.4152  0.1817 -0.5120
  947MOL0     O27769  11.620   0.994   4.688  0.0555 -0.0670  0.1759
  947MOL0     C27770  11.708   0.890   4.659 -1.7057  0.2708  0.1133
  947MOL0     C27771  11.829   0.912   4.748 -0.2041 -0.2055  0.6400
  947MOL0     C27772  11.906   0.778   4.736 -0.2954  0.2726  0.9850
  947MOL0     C27773  12.019   0.776   4.834  0.4058 -0.3323  0.4072
  947MOL0     C27774  12.119   0.893   4.811  0.6594  1.3894  0.5676
  947MOL0     C27775  12.201   0.978   4.785  0.5094 -0.1770 -0.0001
  947MOL0     C27776  11.426   1.127   4.643  0.9713  0.3110 -0.1583
  947MOL0     C27777  11.333   1.183   4.558  0.0480  0.2389  0.3205
  947MOL0     H27778  11.033   0.908   4.263  2.5235  0.7316 -0.0951
  947MOL0     H27779  10.811   0.851   4.168 -0.0675 -0.2230 -0.6319
  947MOL0     H27780  10.556   1.158   4.027 -0.6375  2.4435 -1.0266
  947MOL0     H27781  10.649   1.188   3.878  0.3308 -1.0900 -1.2640
  947MOL0     H27782  10.424   1.152   3.821  3.1774  2.2102  0.4162
  947MOL0     H27783  10.521   1.034   3.754  2.2083  3.7365 -0.2517
  947MOL0     H27784  10.445   0.882   3.970 -0.3859  1.0604  1.7498
  947MOL0     H27785  10.328   1.008   3.999 -3.0011 -0.9141 -2.6105
  947MOL0     H27786  10.255   0.999   3.769  0.8852  0.2134  0.1746
  947MOL0     H27787  10.357   0.855   3.740  1.4529 -2.5459  4.0323
  947MOL0     H27788  10.239   0.710   3.891  1.2454  0.1265  1.4541
  947MOL0     H27789  10.167   0.851   3.973 -0.0007 -1.1124  0.0707
  947MOL0     H27790  10.086   0.782   3.693 -4.2544  0.0105 -1.2513
  947MOL0     H27791  10.024   0.698   3.831  0.8389  0.6722  0.5570
  947MOL0     H27792   9.959   0.898   3.936 -0.2073  0.3556  0.6738
  947MOL0     H27793  10.010   1.005   3.817  1.2517  0.1159  0.1461
  947MOL0     H27794   9.767   0.964   3.798  2.5574  3.2988  0.5323
  947MOL0     H27795   9.789   0.796   3.756 -2.5855  1.5446  0.5507
  947MOL0     H27796   9.607   0.937   3.581  0.0423 -0.7366  2.0626
  947MOL0     H27797   9.660   1.020   3.247 -1.5490 -0.7441 -1.6374
  947MOL0     H27798   9.701   0.848   3.239  3.2834 -0.4107  3.9750
  947MOL0     H27799   9.449   0.982   3.355  0.7334  0.2506  2.0610
  947MOL0     H27800   9.493   0.813   3.389  0.5799  0.4573 -0.9572
  947MOL0     H27801   9.492   0.754   3.146 -1.3889  0.5042 -1.8328
  947MOL0     H27802   9.478   0.929   3.115 -1.3471  1.4626  1.8106
  947MOL0     H27803   9.260   0.808   3.094  2.8671 -1.3721  0.4510
  947MOL0     H27804   9.271   0.959   3.165 -3.0199 -0.6351  2.1886
  947MOL0     H27805   9.063   0.895   3.122 -0.1470 -0.4614 -1.1800
  947MOL0     H27806   8.760   0.760   2.989 -0.4357  0.4930  0.9865
  947MOL0     H27807   8.766   0.906   3.088  1.6475  1.7063 -0.0638
  947MOL0     H27808   8.897   0.866   2.972 -2.4970  0.1166 -2.6843
  947MOL0     H27809   8.561   0.397   2.999 -1.0106 -0.2572  0.3121
  947MOL0     H27810   8.329   0.319   3.002 -4.2023  0.9644  1.8765
  947MOL0     H27811   8.099   0.269   3.407  1.7349  0.5372  0.2650
  947MOL0     H27812   8.086   0.437   3.362 -1.2136 -0.5712  2.0432
  947MOL0     H27813   7.958   0.199   3.216  0.0510  0.7856 -1.4043
  947MOL0     H27814   7.878   0.282   3.359  0.1466 -0.4908 -0.0611
  947MOL0     H27815   7.926   0.400   3.082 -0.1038 -1.6991 -1.2755
  947MOL0     H27816   7.856   0.488   3.217 -1.8353  0.2639 -0.3597
  947MOL0     H27817   7.692   0.364   3.047 -1.9196  0.3718  1.0456
  947MOL0     H27818   7.734   0.214   3.136 -0.8918  0.4025 -0.2726
  947MOL0     H27819   7.649   0.326   3.343  3.1421  0.5626 -0.7290
  947MOL0     H27820   7.537   0.297   3.211  0.9895  0.3734 -2.9767
  947MOL0     H27821   7.671   0.576   3.215  1.5439 -2.4565  0.0209
  947MOL0     H27822   7.515   0.525   3.140  2.0763 -3.4805 -2.8671
  947MOL0     H27823   7.491   0.676   3.346  1.9656  0.3554 -3.0366
  947MOL0     H27824   7.553   0.548   3.446  0.2156  2.8184  0.2478
  947MOL0     H27825   7.322   0.558   3.450 -0.2416 -0.7973  0.4135
  947MOL0     H27826   7.365   0.399   3.382  2.1663 -0.2608  0.3198
  947MOL0     H27827   8.326   0.369   3.429 -1.7597  0.3232  0.0442
  947MOL0     H27828   8.530   0.479   3.422  2.5110  0.2321 -1.0421
  947MOL0     H27829   8.904   0.520   3.397 -4.6148  0.5748 -0.3297
  947MOL0     H27830   9.136   0.631   3.439 -0.6472 -0.7736 -0.1668
  947MOL0     H27831  10.834   1.232   3.952 -3.8667 -0.8986  0.3144
  947MOL0     H27832  11.031   1.287   4.049 -1.1716  1.1246  1.0215
  947MOL0     H27833  11.361   0.957   4.308  1.4318 -0.4009 -1.1216
  947MOL0     H27834  11.554   0.893   4.447  0.5317  1.7811 -0.3736
  947MOL0     H27835  11.666   0.794   4.691 -0.7756 -0.9923 -2.2176
  947MOL0     H27836  11.729   0.891   4.552 -1.5835  0.0703  0.1361
  947MOL0     H27837  11.806   0.925   4.854 -2.3831  0.2196  0.1608
  947MOL0     H27838  11.891   0.995   4.714  0.9839 -0.5840  1.7866
  947MOL0     H27839  11.946   0.759   4.636  0.8438 -0.2283  1.5239
  947MOL0     H27840  11.837   0.698   4.763  0.9060 -0.6521  1.3987
  947MOL0     H27841  12.080   0.685   4.823 -0.1242 -0.6160 -0.2348
  947MOL0     H27842  11.986   0.776   4.938  0.4386  0.2333  0.4188
  947MOL0     H27843  12.270   1.056   4.760  1.3986 -0.5817  1.1193
  947MOL0     H27844  11.440   1.158   4.746  0.0524 -2.0022  0.7392
  947MOL0     H27845  11.264   1.262   4.588  0.9861  1.4640 -0.6436
  948MOL0     O27846   7.914   1.985   6.809  1.0385 -0.0789 -0.4060
  948MOL0     C27847   8.006   2.054   6.764 -0.0991 -0.0953  0.1583
  948MOL0     O27848   8.008   2.190   6.731  0.1220 -0.5267  0.0688
  948MOL0     C27849   7.884   2.260   6.722  0.9376  0.0401 -0.1385
  948MOL0     C27850   7.837   2.303   6.601  0.9792  0.1031  0.0924
  948MOL0     C27851   7.720   2.384   6.588  1.0885  0.2782  0.0168
  948MOL0     C27852   7.648   2.419   6.702 -0.0500  0.2941  0.5487
  948MOL0     O27853   7.533   2.484   6.701 -0.2539 -0.3370 -0.0724
  948MOL0     C27854   7.473   2.520   6.573  0.3232 -0.0408 -0.1230
  948MOL0     C27855   7.327   2.558   6.598  0.6226  0.3987 -0.8368
  948MOL0     C27856   7.240   2.647   6.501  0.6379 -0.7230 -0.4715
  948MOL0     C27857   7.096   2.665   6.570 -0.0575  0.1148  0.0868
  948MOL0     C27858   6.999   2.727   6.476  0.1012 -0.5050 -0.3630
  948MOL0     C27859   6.860   2.757   6.533  1.1849  0.2198  0.7442
  948MOL0     C27860   6.769   2.832   6.429 -1.2566 -0.2361 -0.2341
  948MOL0     C27861   6.708   2.740   6.331 -0.3010  0.2360  0.3845
  948MOL0     N27862   6.597   2.803   6.254 -0.6827  0.4757  0.3817
  948MOL0     C27863   6.512   2.905   6.299  0.5108 -0.0679  0.0238
  948MOL0     C27864   6.436   2.934   6.191  0.6223 -0.4322 -1.4220
  948MOL0     C27865   6.325   3.031   6.181 -0.6428  0.0695 -0.7867
  948MOL0     C27866   6.211   2.999   6.083 -0.8366  1.0959  0.6589
  948MOL0     C27867   6.100   3.100   6.101 -0.1540  0.5499 -0.1919
  948MOL0     C27868   5.985   3.071   6.000 -0.2230 -0.6553 -0.2546
  948MOL0     O27869   5.931   2.935   6.017  0.2139 -0.0761  0.2237
  948MOL0     C27870   5.837   2.891   5.932 -2.0286  0.2035  0.4434
  948MOL0     C27871   5.754   2.974   5.857 -0.0686  1.1556 -0.0432
  948MOL0     C27872   5.634   2.921   5.814  0.7442  0.6331  0.3768
  948MOL0     C27873   5.547   3.023   5.747 -0.1780  0.0101 -0.0718
  948MOL0     C27874   5.602   2.782   5.825  0.1046 -0.2815  0.1367
  948MOL0     C27875   5.474   2.717   5.780 -0.1466 -0.0429 -0.2856
  948MOL0     O27876   5.464   2.592   5.830  0.2420 -0.2830  0.4263
  948MOL0     C27877   5.356   2.513   5.800 -0.1502 -0.6943 -0.3760
  948MOL0     C27878   5.394   2.385   5.754  0.1539 -0.1554 -0.1725
  948MOL0     C27879   5.282   2.295   5.739  0.0057  0.0568  0.0077
  948MOL0     C27880   5.151   2.337   5.761 -0.3448 -0.6310  0.1782
  948MOL0     O27881   5.046   2.244   5.753 -0.2198 -0.5266  1.5574
  948MOL0     C27882   5.043   2.177   5.619  0.7798  0.0242  1.0277
  948MOL0     C27883   4.895   2.140   5.600 -0.1315  0.1264  0.0427
  948MOL0     C27884   4.853   2.026   5.685 -0.3884 -0.4470  0.8253
  948MOL0     C27885   4.715   1.971   5.644  1.2052 -1.0988 -0.5365
  948MOL0     C27886   4.594   2.047   5.709 -0.3682  0.5400 -0.2164
  948MOL0     C27887   4.461   1.986   5.660  0.7725  0.0285 -0.1185
  948MOL0     C27888   4.356   2.069   5.723 -0.2428 -0.1053  0.1303
  948MOL0     C27889   4.338   2.036   5.876  0.6834  1.5329 -0.5835
  948MOL0    Cl27890   4.159   2.040   5.930 -0.1308  0.6037 -0.0468
  948MOL0     C27891   5.123   2.472   5.795 -0.7692  0.2639  0.0446
  948MOL0     C27892   5.228   2.565   5.821  0.2446 -0.0206  0.4558
  948MOL0     O27893   5.388   2.771   5.713  0.3187  0.4984 -0.2610
  948MOL0     C27894   5.692   2.698   5.901 -0.0672  1.0261  0.5597
  948MOL0     C27895   5.811   2.759   5.951 -0.9295  0.2454 -0.5060
  948MOL0     N27896   6.483   2.857   6.084 -0.1376 -0.0662  0.5230
  948MOL0     N27897   6.588   2.790   6.123  0.2542  0.3902 -0.1759
  948MOL0     C27898   7.695   2.371   6.830 -0.4424  0.1008 -0.3272
  948MOL0     C27899   7.806   2.287   6.834 -1.0120  0.0870  0.0778
  948MOL0     C27900   8.147   2.004   6.793  0.2011 -0.6453  0.0247
  948MOL0     C27901   8.174   1.895   6.881  1.1037 -1.0363 -0.1490
  948MOL0     C27902   8.306   1.855   6.907  0.5214  0.6424 -0.4214
  948MOL0     C27903   8.419   1.923   6.854  0.9660 -0.2728  1.4176
  948MOL0     O27904   8.551   1.889   6.876  0.0123  1.0300 -0.3686
  948MOL0     C27905   8.586   1.744   6.862  0.3313 -0.1138 -0.5749
  948MOL0     C27906   8.572   1.678   6.999 -0.4993 -0.2952 -0.1999
  948MOL0     C27907   8.711   1.664   7.063 -0.1474 -0.2967 -0.0210
  948MOL0     C27908   8.768   1.798   7.115 -0.5026 -0.6857  0.0910
  948MOL0     C27909   8.872   1.783   7.216  0.1314  1.2484  0.6150
  948MOL0     C27910   8.959   1.784   7.301 -0.5078  0.3180 -0.0342
  948MOL0     C27911   8.392   2.034   6.761  0.3356  0.4742 -1.4790
  948MOL0     C27912   8.259   2.076   6.746  0.2968  0.0252 -0.3261
  948MOL0     H27913   7.902   2.268   6.522  1.5213  1.5348 -0.1242
  948MOL0     H27914   7.683   2.438   6.501  1.4550  1.2881  0.4715
  948MOL0     H27915   7.525   2.598   6.516 -0.5668 -1.2663 -2.7420
  948MOL0     H27916   7.470   2.433   6.506  1.4763  1.5685 -2.3818
  948MOL0     H27917   7.269   2.472   6.631  1.2347  0.4107  0.3351
  948MOL0     H27918   7.339   2.628   6.681  2.1743  0.1863 -0.8382
  948MOL0     H27919   7.299   2.737   6.487  1.1520 -1.0283 -0.2890
  948MOL0     H27920   7.227   2.586   6.410 -2.1883 -3.1901  1.4027
  948MOL0     H27921   7.062   2.564   6.595 -0.0279  0.9004  3.7838
  948MOL0     H27922   7.105   2.717   6.666  1.3654  0.3364 -0.1456
  948MOL0     H27923   7.046   2.821   6.447  0.5047 -0.6832 -0.2834
  948MOL0     H27924   6.985   2.654   6.396 -1.8638 -0.4159 -0.1521
  948MOL0     H27925   6.806   2.669   6.568  0.3657  0.3061 -0.2654
  948MOL0     H27926   6.872   2.819   6.623 -0.8690 -0.5093  1.5694
  948MOL0     H27927   6.686   2.882   6.481 -2.3813  0.3368 -2.4620
  948MOL0     H27928   6.833   2.908   6.384  0.9937 -2.4935 -1.0259
  948MOL0     H27929   6.651   2.665   6.388 -1.8102 -0.6889 -2.1652
  948MOL0     H27930   6.775   2.690   6.261  0.1781 -0.0124  1.0100
  948MOL0     H27931   6.494   2.933   6.403 -0.1635 -2.8836  0.7610
  948MOL0     H27932   6.301   3.036   6.288  2.2037 -0.1991 -0.0490
  948MOL0     H27933   6.378   3.123   6.160 -3.9219  1.7735 -2.4343
  948MOL0     H27934   6.177   2.898   6.105 -1.6771  1.2696  0.1659
  948MOL0     H27935   6.259   3.013   5.986 -2.2734 -1.5371 -0.5224
  948MOL0     H27936   6.150   3.197   6.093  1.2755 -0.2308 -1.3905
  948MOL0     H27937   6.064   3.088   6.204  1.5825 -0.2282  0.3675
  948MOL0     H27938   6.032   3.081   5.901 -0.6232 -0.1715 -0.4020
  948MOL0     H27939   5.908   3.149   6.006 -1.8372 -2.1992 -0.1520
  948MOL0     H27940   5.771   3.080   5.842  0.1548  0.9813 -1.1629
  948MOL0     H27941   5.582   3.127   5.756 -1.3068  0.2628  1.6640
  948MOL0     H27942   5.538   2.991   5.643 -0.0664  0.2394 -0.1554
  948MOL0     H27943   5.451   3.030   5.799  0.4854  3.9197  1.0032
  948MOL0     H27944   5.494   2.342   5.755  0.0850 -0.4379 -1.9084
  948MOL0     H27945   5.307   2.189   5.733 -2.0312 -0.5949  1.8469
  948MOL0     H27946   5.063   2.243   5.534 -1.1661 -0.7644 -0.1009
  948MOL0     H27947   5.117   2.096   5.613 -2.0831 -2.7998  1.4839
  948MOL0     H27948   4.832   2.223   5.633 -0.0271  1.1030 -2.0607
  948MOL0     H27949   4.874   2.113   5.496 -0.3454 -0.4321  0.2249
  948MOL0     H27950   4.859   2.058   5.789  0.6581  1.3108  0.2542
  948MOL0     H27951   4.925   1.946   5.665 -0.2819  0.4684 -3.4180
  948MOL0     H27952   4.695   1.965   5.537  0.6429  2.9723 -0.8426
  948MOL0     H27953   4.722   1.868   5.679 -0.3167 -2.0023 -2.6879
  948MOL0     H27954   4.592   2.153   5.684 -0.5995 -0.0841 -3.2808
  948MOL0     H27955   4.601   2.039   5.817  0.0188  0.0997 -0.2692
  948MOL0     H27956   4.473   2.001   5.552  1.2736 -0.3045 -0.1156
  948MOL0     H27957   4.445   1.880   5.680  1.8486 -0.2828 -0.8072
  948MOL0     H27958   4.255   2.067   5.681 -0.8007  1.8358  1.2779
  948MOL0     H27959   4.381   2.175   5.714  1.7993 -0.2050  3.0938
  948MOL0     H27960   4.389   2.115   5.932  1.0709  1.2242 -0.4977
  948MOL0     H27961   4.384   1.940   5.902 -2.4498  0.2307  0.6334
  948MOL0     H27962   5.024   2.516   5.802 -1.4223 -1.1998  0.2951
  948MOL0     H27963   5.208   2.666   5.855 -1.7836 -0.2660  0.1448
  948MOL0     H27964   5.671   2.592   5.912 -2.0771  1.1305 -1.5119
  948MOL0     H27965   5.872   2.707   6.024 -0.4535  2.5304  0.8237
  948MOL0     H27966   7.643   2.391   6.923 -0.4534 -0.7237 -0.1499
  948MOL0     H27967   7.844   2.252   6.929  4.5581  0.0985 -1.7964
  948MOL0     H27968   8.091   1.847   6.932 -0.9558  0.6682 -1.7044
  948MOL0     H27969   8.328   1.779   6.981 -0.9211 -1.2303 -1.8163
  948MOL0     H27970   8.520   1.699   6.788  0.8832 -1.4689 -0.2769
  948MOL0     H27971   8.683   1.711   6.825  0.5606 -0.6128  0.4343
  948MOL0     H27972   8.519   1.582   6.999  2.2128 -1.9720 -3.0190
  948MOL0     H27973   8.501   1.733   7.062 -1.1945 -1.1806 -0.1797
  948MOL0     H27974   8.779   1.620   6.989  2.8258  1.3933  1.5397
  948MOL0     H27975   8.709   1.598   7.150  1.4777  1.3371  1.3293
  948MOL0     H27976   8.683   1.854   7.155 -0.9194 -0.7246 -0.7165
  948MOL0     H27977   8.802   1.858   7.030 -0.5556 -0.9097 -0.0903
  948MOL0     H27978   9.044   1.788   7.366 -1.8707 -2.5200  2.1422
  948MOL0     H27979   8.470   2.090   6.710  0.8842  0.1160 -1.0517
  948MOL0     H27980   8.249   2.167   6.687  1.0716 -0.1862 -0.8037
  949MOL0     O27981   0.378   3.811  11.240 -0.1587  0.2108 -0.3907
  949MOL0     C27982   0.444   3.872  11.154 -0.1812 -0.7641  0.1089
  949MOL0     O27983   0.387   3.936  11.048  0.1645  0.4290  0.4797
  949MOL0     C27984   0.255   3.957  11.045  0.6832 -1.1833  0.3441
  949MOL0     C27985   0.207   3.982  10.919 -0.0182  0.2443  0.5674
  949MOL0     C27986   0.077   4.031  10.892 -0.0872  0.1054 -0.5114
  949MOL0     C27987  -0.009   4.070  10.999 -0.3521  0.6244  0.2473
  949MOL0     O27988  -0.123   4.135  10.977  0.5301 -0.4368  0.1571
  949MOL0     C27989  -0.235   4.054  11.015 -0.4841  0.0873  0.5666
  949MOL0     C27990  -0.308   4.003  10.888 -0.0080  0.1596 -0.4876
  949MOL0     C27991  -0.386   4.127  10.838 -0.6373 -0.0820 -0.2682
  949MOL0     C27992  -0.443   4.092  10.701  0.6786  0.4039  0.1472
  949MOL0     C27993  -0.525   4.203  10.628  0.3735  1.0719 -0.1533
  949MOL0     C27994  -0.683   4.175  10.645 -0.7329  0.8559  0.3640
  949MOL0     C27995  -0.764   4.286  10.584 -0.0839  0.4956 -0.6624
  949MOL0     C27996  -0.912   4.260  10.572  0.3194  0.1788  0.0760
  949MOL0     N27997  -0.941   4.194  10.448  0.1136  1.1512 -0.0329
  949MOL0     C27998  -0.977   4.065  10.434 -0.3035 -0.1642 -0.4002
  949MOL0     C27999  -1.057   4.062  10.326 -0.6756 -0.2780  0.3641
  949MOL0     C28000  -1.140   3.949  10.293  0.4263 -0.5064  0.5693
  949MOL0     C28001  -1.281   3.997  10.266  0.5380  0.3055 -0.6868
  949MOL0     C28002  -1.338   4.062  10.397 -0.2572  0.7911 -0.2118
  949MOL0     C28003  -1.489   4.035  10.411  0.6271  0.1132 -0.0821
  949MOL0     O28004  -1.551   4.137  10.489  0.5658 -0.6369 -0.0851
  949MOL0     C28005  -1.691   4.141  10.480  0.3036  0.6782  0.1901
  949MOL0     C28006  -1.780   4.043  10.429 -0.5705 -0.8448  0.3111
  949MOL0     C28007  -1.923   4.065  10.437  0.8990  0.4409 -0.0888
  949MOL0     C28008  -2.012   3.944  10.405 -0.2664 -0.4208 -0.7742
  949MOL0     C28009  -1.972   4.186  10.501  0.3198  0.2234 -0.5329
  949MOL0     C28010  -2.117   4.226  10.520 -0.2611  0.2738 -0.3402
  949MOL0     O28011  -2.215   4.146  10.457  0.4335 -0.1833  0.4336
  949MOL0     C28012  -2.345   4.152  10.493  0.0778  0.7115  0.1682
  949MOL0     C28013  -2.411   4.281  10.483 -0.8795  0.2637  0.0888
  949MOL0     C28014  -2.547   4.284  10.523 -0.2104 -0.7058  0.1702
  949MOL0     C28015  -2.623   4.171  10.558  0.5035  0.3193  0.5108
  949MOL0     O28016  -2.753   4.187  10.597  0.4030  0.0648  0.2279
  949MOL0     C28017  -2.827   4.083  10.667  0.2668  0.0696 -0.0991
  949MOL0     C28018  -2.973   4.129  10.659  0.6764 -1.0044  0.6965
  949MOL0     C28019  -3.063   4.024  10.725  0.1609  0.0934 -0.0959
  949MOL0     C28020  -3.172   4.083  10.813  0.3701  0.2345  0.7432
  949MOL0     C28021  -3.247   4.203  10.740  0.4121 -0.4768  0.6170
  949MOL0     C28022  -3.390   4.227  10.791  0.8671  0.1553 -0.2812
  949MOL0     C28023  -3.446   4.341  10.708 -0.0600  0.0021  0.2953
  949MOL0     C28024  -3.588   4.368  10.718  0.2884  0.4270 -0.7296
  949MOL0    Cl28025  -3.633   4.419  10.881  0.2428 -0.3844 -0.0328
  949MOL0     C28026  -2.554   4.049  10.553  0.0225 -0.0896  0.6252
  949MOL0     C28027  -2.417   4.038  10.524  0.4888  0.2763 -0.4319
  949MOL0     O28028  -2.144   4.325  10.588  0.6974  0.0020 -0.5963
  949MOL0     C28029  -1.880   4.287  10.537 -0.3157 -0.6712 -0.4789
  949MOL0     C28030  -1.742   4.264  10.518 -0.0380 -0.9815 -0.1540
  949MOL0     N28031  -1.051   4.186  10.268 -0.2891 -0.7153  0.6091
  949MOL0     N28032  -0.984   4.264  10.339 -0.6919 -0.5417 -0.3234
  949MOL0     C28033   0.035   4.045  11.130  0.1227  0.4217 -0.4951
  949MOL0     C28034   0.168   3.990  11.157 -0.0608  0.9106 -0.3465
  949MOL0     C28035   0.597   3.876  11.168  0.5623 -0.8133 -1.0216
  949MOL0     C28036   0.666   3.788  11.259 -0.2411  0.0002 -0.0756
  949MOL0     C28037   0.802   3.791  11.270 -0.2391 -0.0679 -0.2125
  949MOL0     C28038   0.872   3.886  11.196 -0.2833 -0.1112  0.5662
  949MOL0     O28039   1.008   3.893  11.224 -0.3556 -0.4419 -0.6750
  949MOL0     C28040   1.096   3.972  11.144  0.2174  0.5210  0.5561
  949MOL0     C28041   1.229   3.914  11.180 -0.4616 -0.6225 -0.8577
  949MOL0     C28042   1.346   4.008  11.120 -0.0828 -1.0443 -0.4334
  949MOL0     C28043   1.464   3.982  11.206  0.4357  0.4590  0.4360
  949MOL0     C28044   1.578   4.050  11.143 -0.0236  0.0321 -0.3817
  949MOL0     C28045   1.684   4.098  11.100  0.0207  0.1268  0.5685
  949MOL0     C28046   0.807   3.977  11.105 -0.9104 -0.1039 -0.1084
  949MOL0     C28047   0.669   3.963  11.087 -0.2574  0.7908 -0.0505
  949MOL0     H28048   0.272   3.962  10.834 -0.7933  0.5804 -0.1135
  949MOL0     H28049   0.059   4.043  10.786  0.8911 -1.7915 -0.9271
  949MOL0     H28050  -0.197   3.969  11.074  0.8124 -0.0703 -0.4456
  949MOL0     H28051  -0.306   4.116  11.070 -2.1641 -1.9423  0.8081
  949MOL0     H28052  -0.232   3.970  10.816  1.4516  1.3724  0.4367
  949MOL0     H28053  -0.370   3.918  10.917 -1.3204  1.4987  0.7815
  949MOL0     H28054  -0.467   4.156  10.906  1.1462  0.3863  1.7610
  949MOL0     H28055  -0.318   4.211  10.827 -0.1395  0.0379  2.7913
  949MOL0     H28056  -0.356   4.069  10.638 -0.4057 -0.8440 -0.9666
  949MOL0     H28057  -0.499   3.999  10.710 -0.1954  0.6923 -1.7256
  949MOL0     H28058  -0.505   4.306  10.660  0.0140  0.8285  0.8892
  949MOL0     H28059  -0.487   4.199  10.525  0.9995  0.6443  0.0861
  949MOL0     H28060  -0.711   4.082  10.595  0.0777  0.3904  0.7455
  949MOL0     H28061  -0.711   4.154  10.749 -0.5129 -2.9592 -0.2007
  949MOL0     H28062  -0.755   4.379  10.639 -0.2050  1.6667 -2.5295
  949MOL0     H28063  -0.724   4.306  10.484 -1.4862  1.3022 -1.0916
  949MOL0     H28064  -0.964   4.356  10.573 -2.2436 -1.1270  0.0233
  949MOL0     H28065  -0.951   4.210  10.661 -1.6635  1.9780  0.2895
  949MOL0     H28066  -0.942   3.989  10.502  4.5569  2.0029 -0.0563
  949MOL0     H28067  -1.098   3.909  10.200 -5.3350 -0.6707 -2.4433
  949MOL0     H28068  -1.141   3.868  10.366  0.3135 -1.0989 -0.0794
  949MOL0     H28069  -1.344   3.910  10.247  0.3946  0.8720 -3.2983
  949MOL0     H28070  -1.282   4.058  10.174  1.0979 -1.4538 -1.9154
  949MOL0     H28071  -1.327   4.171  10.397 -0.0838  0.8600  2.8039
  949MOL0     H28072  -1.287   4.034  10.489 -0.3549  1.2442 -0.0137
  949MOL0     H28073  -1.497   3.947  10.475  1.0649  1.2729  1.6230
  949MOL0     H28074  -1.545   4.032  10.317 -0.0968 -0.2555  0.3512
  949MOL0     H28075  -1.747   3.945  10.396  2.0072 -0.3598  1.2539
  949MOL0     H28076  -1.952   3.865  10.359  1.8582  2.7286 -3.9326
  949MOL0     H28077  -2.055   3.905  10.498  3.2863  1.8162  2.0874
  949MOL0     H28078  -2.083   3.970  10.327  1.1050 -0.3031 -2.0240
  949MOL0     H28079  -2.356   4.372  10.461  0.3763 -0.9794 -2.3636
  949MOL0     H28080  -2.599   4.378  10.514  0.1771 -0.1589  2.8982
  949MOL0     H28081  -2.824   3.993  10.605  1.8373 -1.0467  1.5224
  949MOL0     H28082  -2.804   4.069  10.773 -2.7487 -1.2749  0.5015
  949MOL0     H28083  -2.985   4.226  10.708  2.4719 -0.3870  0.0095
  949MOL0     H28084  -2.995   4.134  10.552  4.0092 -0.2625 -0.0813
  949MOL0     H28085  -3.011   3.963  10.800 -0.2106 -0.2817 -0.1400
  949MOL0     H28086  -3.110   3.972  10.642 -2.8310 -0.4103  1.7490
  949MOL0     H28087  -3.242   4.002  10.837 -0.0795  0.3026 -0.3120
  949MOL0     H28088  -3.136   4.112  10.912  0.2216 -2.4311  1.6568
  949MOL0     H28089  -3.249   4.198  10.631 -0.1732  4.6036  0.1198
  949MOL0     H28090  -3.190   4.293  10.766  0.6048 -0.1503 -0.8662
  949MOL0     H28091  -3.464   4.147  10.790 -1.2943  2.0202  0.2378
  949MOL0     H28092  -3.388   4.255  10.897 -4.7337 -1.1478  0.4751
  949MOL0     H28093  -3.427   4.321  10.602 -0.0040 -0.7684  0.4400
  949MOL0     H28094  -3.391   4.432  10.734 -0.2768  1.2421 -3.0643
  949MOL0     H28095  -3.646   4.279  10.693  1.5502 -0.3982 -0.7899
  949MOL0     H28096  -3.620   4.447  10.649 -0.7399 -0.3795 -1.2031
  949MOL0     H28097  -2.604   3.958  10.585  1.5953 -2.5441 -3.1653
  949MOL0     H28098  -2.380   3.936  10.527 -1.5437 -0.4897 -0.3491
  949MOL0     H28099  -1.916   4.376  10.589 -1.2803 -0.1168 -1.9965
  949MOL0     H28100  -1.667   4.332  10.557  0.7358 -2.3439  0.8039
  949MOL0     H28101  -0.020   4.076  11.219 -2.6139  0.8958 -2.2403
  949MOL0     H28102   0.194   3.958  11.257  1.5166  2.5485 -0.1895
  949MOL0     H28103   0.599   3.724  11.316 -1.2694  0.4926 -0.7007
  949MOL0     H28104   0.843   3.701  11.316 -1.9143 -0.2845  0.9877
  949MOL0     H28105   1.074   3.959  11.038  1.6807 -0.2835  0.3319
  949MOL0     H28106   1.089   4.076  11.178  3.1866  1.2215 -0.6289
  949MOL0     H28107   1.219   3.816  11.133  0.0511  0.5204 -3.5903
  949MOL0     H28108   1.240   3.897  11.287  0.5117 -1.5936 -1.0915
  949MOL0     H28109   1.322   4.115  11.128  3.5335 -0.1798  1.1621
  949MOL0     H28110   1.350   3.971  11.017  0.2004 -1.8349 -0.1434
  949MOL0     H28111   1.477   3.874  11.218  1.2252  0.7208  2.2025
  949MOL0     H28112   1.458   4.030  11.304 -1.8936  1.5212 -0.1627
  949MOL0     H28113   1.778   4.133  11.063 -0.3333  3.0895  2.1675
  949MOL0     H28114   0.856   4.057  11.049 -1.6764  2.0063  2.0462
  949MOL0     H28115   0.610   4.022  11.018 -1.4477  0.5539  0.7309
  950MOL0     O28116   7.530   0.111   5.786 -0.0575  0.3170 -0.2765
  950MOL0     C28117   7.606   0.021   5.796 -0.1819 -0.1365 -0.4784
  950MOL0     O28118   7.580  -0.112   5.826  0.3154 -0.3648 -0.5698
  950MOL0     C28119   7.463  -0.136   5.891 -0.0346 -0.9127  0.0723
  950MOL0     C28120   7.340  -0.102   5.827 -0.5352 -0.2966  0.1461
  950MOL0     C28121   7.213  -0.143   5.884 -0.5683 -0.4009  0.2933
  950MOL0     C28122   7.216  -0.198   6.014  0.0771 -1.0047 -0.6195
  950MOL0     O28123   7.099  -0.244   6.064 -0.4886 -0.6149  0.1422
  950MOL0     C28124   7.092  -0.359   6.152 -0.5980 -0.7975 -0.6057
  950MOL0     C28125   6.955  -0.413   6.165  0.3457 -0.4096 -0.9227
  950MOL0     C28126   6.859  -0.304   6.210  0.9905  0.6952 -0.5185
  950MOL0     C28127   6.704  -0.354   6.212 -0.7374 -0.4160  0.5061
  950MOL0     C28128   6.607  -0.232   6.237 -0.3551  0.2260  0.1203
  950MOL0     C28129   6.464  -0.273   6.258  1.2456  0.5823  0.3808
  950MOL0     C28130   6.377  -0.160   6.310  0.5797 -0.7456  0.0456
  950MOL0     C28131   6.234  -0.211   6.348 -0.7557 -0.0215  0.7899
  950MOL0     N28132   6.150  -0.229   6.229 -0.4685 -0.4263 -0.2929
  950MOL0     C28133   6.035  -0.159   6.200  0.0538  0.7680 -0.8993
  950MOL0     C28134   5.967  -0.247   6.127  0.5325  0.4981  0.1149
  950MOL0     C28135   5.835  -0.212   6.062  0.1158  0.2342  0.1661
  950MOL0     C28136   5.738  -0.342   6.058  0.0853  0.1067 -0.2311
  950MOL0     C28137   5.699  -0.392   6.199  0.1622  0.9881 -0.7743
  950MOL0     C28138   5.560  -0.451   6.204  0.1511  0.4997 -0.3269
  950MOL0     O28139   5.549  -0.567   6.108 -0.4525  0.1730  0.0463
  950MOL0     C28140   5.429  -0.622   6.079  0.1713 -0.6883  0.2664
  950MOL0     C28141   5.420  -0.723   5.982 -0.5021  1.0580 -0.6983
  950MOL0     C28142   5.297  -0.783   5.954  0.4406 -0.1714  0.5024
  950MOL0     C28143   5.297  -0.857   5.826  0.0542  0.0227  0.1547
  950MOL0     C28144   5.190  -0.764   6.040 -0.0715  0.7287  0.7219
  950MOL0     C28145   5.064  -0.843   6.027 -0.3399 -0.5132  0.5042
  950MOL0     O28146   4.946  -0.778   6.068 -0.8852 -0.2806 -0.2928
  950MOL0     C28147   4.836  -0.847   6.021  1.0810  0.5505  0.4843
  950MOL0     C28148   4.764  -0.796   5.909 -0.1765  0.5807 -0.1305
  950MOL0     C28149   4.646  -0.871   5.863 -0.0305 -0.6603  0.9528
  950MOL0     C28150   4.587  -0.974   5.934 -0.0047  0.2816  0.1388
  950MOL0     O28151   4.470  -1.014   5.881  0.4342  0.2053  0.3303
  950MOL0     C28152   4.418  -1.132   5.941 -0.3541  0.6473 -0.2086
  950MOL0     C28153   4.286  -1.164   5.878 -0.2532 -0.2121  0.2209
  950MOL0     C28154   4.222  -1.294   5.928  0.2049 -0.5978  0.0545
  950MOL0     C28155   4.097  -1.339   5.846 -0.4115  1.1620 -0.5101
  950MOL0     C28156   4.049  -1.467   5.913  0.0846  0.7328 -1.0597
  950MOL0     C28157   3.963  -1.560   5.836  0.1263 -0.0326  0.1474
  950MOL0     C28158   3.917  -1.659   5.941 -0.2947  0.9717 -0.5152
  950MOL0     C28159   3.874  -1.790   5.880 -0.1554  0.1714 -0.0890
  950MOL0    Cl28160   3.715  -1.772   5.812  0.5017 -0.2671  0.2810
  950MOL0     C28161   4.664  -1.022   6.044  0.2475  0.7208  0.5115
  950MOL0     C28162   4.782  -0.964   6.080 -0.5158  0.9968 -1.0899
  950MOL0     O28163   5.073  -0.957   5.980  0.8879  0.7816 -0.3686
  950MOL0     C28164   5.199  -0.665   6.133  0.3858 -0.0503  0.2658
  950MOL0     C28165   5.308  -0.583   6.142 -0.3208 -0.0383 -0.2119
  950MOL0     N28166   6.042  -0.358   6.103  0.0593 -0.4762  0.0920
  950MOL0     N28167   6.147  -0.348   6.168  0.0554 -0.0050  0.4272
  950MOL0     C28168   7.335  -0.226   6.073 -0.0280  0.8705  0.0148
  950MOL0     C28169   7.459  -0.199   6.016 -0.2724 -0.2540  0.0335
  950MOL0     C28170   7.740   0.038   5.737 -0.4269 -0.7650  1.0021
  950MOL0     C28171   7.770   0.170   5.693 -0.5564 -0.1595 -0.2774
  950MOL0     C28172   7.877   0.194   5.612 -0.1888  0.2422 -0.0145
  950MOL0     C28173   7.969   0.096   5.571  0.7050  0.2712  0.5129
  950MOL0     O28174   8.063   0.132   5.483 -1.0057  1.0128 -0.8895
  950MOL0     C28175   8.096   0.035   5.373 -0.2317 -0.6045 -1.2534
  950MOL0     C28176   8.218  -0.042   5.424  0.0044  0.1455  0.1968
  950MOL0     C28177   8.246  -0.156   5.329 -0.2373  0.1026 -0.2089
  950MOL0     C28178   8.390  -0.198   5.359  0.0247  0.0067  0.1248
  950MOL0     C28179   8.437  -0.317   5.295 -0.3658  0.0375 -0.2459
  950MOL0     C28180   8.465  -0.414   5.231  0.0898 -0.1309 -0.4615
  950MOL0     C28181   7.943  -0.033   5.618  0.2861  0.5477  0.4276
  950MOL0     C28182   7.836  -0.062   5.701  0.4855  0.0920  0.1463
  950MOL0     H28183   7.333  -0.052   5.731  0.8264 -1.5541 -0.6489
  950MOL0     H28184   7.111  -0.122   5.854 -0.9597  3.7810  3.5119
  950MOL0     H28185   7.145  -0.447   6.115 -1.9260 -1.1518 -1.7525
  950MOL0     H28186   7.130  -0.329   6.250 -2.0552  0.9215 -0.5203
  950MOL0     H28187   6.918  -0.467   6.077  1.2081 -2.3319 -0.1677
  950MOL0     H28188   6.961  -0.490   6.242 -1.0567  0.1771 -0.1910
  950MOL0     H28189   6.890  -0.279   6.312 -0.1801 -2.5426  0.7725
  950MOL0     H28190   6.871  -0.223   6.137 -0.3910 -2.8000 -5.0640
  950MOL0     H28191   6.685  -0.395   6.112 -0.8651  4.8712 -1.9580
  950MOL0     H28192   6.691  -0.428   6.291 -1.1743 -1.5783 -0.6274
  950MOL0     H28193   6.642  -0.184   6.329  1.0537  0.3677 -0.4583
  950MOL0     H28194   6.618  -0.158   6.157 -0.6355 -1.1391 -1.2411
  950MOL0     H28195   6.425  -0.314   6.164 -3.9724  0.8810  2.1224
  950MOL0     H28196   6.465  -0.363   6.319 -3.9945 -0.8106 -1.0805
  950MOL0     H28197   6.422  -0.121   6.402  1.4634  0.1787 -0.7621
  950MOL0     H28198   6.372  -0.076   6.240  2.7089  0.4280  1.1880
  950MOL0     H28199   6.187  -0.135   6.411 -1.1036  0.2325  0.2312
  950MOL0     H28200   6.233  -0.305   6.405 -3.0015 -2.1151 -2.4004
  950MOL0     H28201   6.010  -0.056   6.224 -1.4211  0.0203  1.0980
  950MOL0     H28202   5.785  -0.130   6.113 -2.5709 -0.3518 -1.3832
  950MOL0     H28203   5.846  -0.165   5.965 -3.7614  0.3475 -0.3614
  950MOL0     H28204   5.795  -0.419   6.005  0.0401  0.0692 -0.2237
  950MOL0     H28205   5.652  -0.307   6.000  0.9383  2.8866  0.0246
  950MOL0     H28206   5.700  -0.316   6.278 -1.4301 -1.7956  2.1738
  950MOL0     H28207   5.772  -0.463   6.239  1.0486  2.8909  1.1694
  950MOL0     H28208   5.481  -0.381   6.180 -0.0182 -0.1056 -1.6491
  950MOL0     H28209   5.553  -0.476   6.310  0.8121  0.2700 -0.3327
  950MOL0     H28210   5.507  -0.762   5.931 -0.6642  0.1537 -0.3079
  950MOL0     H28211   5.344  -0.797   5.748 -0.9600  0.7806  0.1059
  950MOL0     H28212   5.356  -0.949   5.823  1.9652  1.1783  0.3758
  950MOL0     H28213   5.194  -0.875   5.794 -0.1679  0.8122  0.4016
  950MOL0     H28214   4.813  -0.707   5.870 -0.1897  2.3441  3.5159
  950MOL0     H28215   4.599  -0.833   5.773  2.4877 -0.6086 -0.4156
  950MOL0     H28216   4.486  -1.217   5.933 -0.3558  0.5734  0.4980
  950MOL0     H28217   4.410  -1.116   6.048  0.6005  1.8693 -0.2935
  950MOL0     H28218   4.220  -1.079   5.896 -0.8137 -0.8351  1.1842
  950MOL0     H28219   4.323  -1.172   5.775  0.8103 -2.2292  0.6835
  950MOL0     H28220   4.196  -1.281   6.033  0.6282  0.1319  0.0733
  950MOL0     H28221   4.295  -1.375   5.928  0.6081 -0.2480 -0.5761
  950MOL0     H28222   4.013  -1.270   5.840 -0.4199  1.3508  1.2840
  950MOL0     H28223   4.119  -1.357   5.740 -1.8087 -1.8004 -0.3868
  950MOL0     H28224   4.002  -1.436   6.007  3.3234  0.9512  0.6472
  950MOL0     H28225   4.142  -1.517   5.942  0.5581  3.6730  3.4960
  950MOL0     H28226   3.870  -1.513   5.803  0.6410 -0.1843 -1.5970
  950MOL0     H28227   4.009  -1.600   5.746  0.4038  1.6997 -0.5228
  950MOL0     H28228   3.842  -1.625   6.014 -0.8065 -1.0237 -0.0267
  950MOL0     H28229   4.003  -1.686   6.003  0.4129  0.3437 -1.7398
  950MOL0     H28230   3.869  -1.863   5.961 -0.9915  0.8957  0.5420
  950MOL0     H28231   3.939  -1.825   5.800 -0.3656  3.2374 -1.7451
  950MOL0     H28232   4.636  -1.105   6.108 -1.3344  1.0406  0.2637
  950MOL0     H28233   4.842  -1.018   6.153 -4.0589 -2.4074 -0.3675
  950MOL0     H28234   5.117  -0.643   6.200  0.5211  4.7352 -0.7621
  950MOL0     H28235   5.309  -0.499   6.209 -0.2469  0.0159 -0.2795
  950MOL0     H28236   7.330  -0.292   6.159 -0.0539  1.6319  0.6018
  950MOL0     H28237   7.556  -0.236   6.046 -0.8770 -2.1335 -0.1857
  950MOL0     H28238   7.702   0.252   5.715  0.3174  0.2698  0.9002
  950MOL0     H28239   7.876   0.300   5.590 -2.3022  0.6656  1.7551
  950MOL0     H28240   8.007  -0.023   5.345  0.8031 -1.9202 -1.9397
  950MOL0     H28241   8.115   0.099   5.287  3.2662  0.3411  0.0713
  950MOL0     H28242   8.197  -0.081   5.524 -0.5412 -1.2179 -0.4210
  950MOL0     H28243   8.309   0.017   5.414  1.8837 -2.8468 -2.1784
  950MOL0     H28244   8.219  -0.134   5.225  0.9594 -0.5139 -0.6750
  950MOL0     H28245   8.178  -0.237   5.359  1.6052 -0.9659  1.3659
  950MOL0     H28246   8.403  -0.208   5.467  1.7668 -0.2019 -0.0767
  950MOL0     H28247   8.449  -0.117   5.316 -3.4428  1.4117 -2.4586
  950MOL0     H28248   8.474  -0.508   5.182 -1.1831 -1.2746  1.3878
  950MOL0     H28249   8.010  -0.110   5.581 -0.5316  0.4903 -1.0152
  950MOL0     H28250   7.830  -0.169   5.718 -1.6269  0.2658  0.7383
  951MOL0     O28251  11.331   4.435   6.835  0.1376  1.1631  0.1671
  951MOL0     C28252  11.411   4.348   6.798 -0.0090 -0.9400 -0.4635
  951MOL0     O28253  11.377   4.237   6.718  0.2894  0.1794 -0.4663
  951MOL0     C28254  11.243   4.213   6.684 -0.7383 -0.1828  0.0123
  951MOL0     C28255  11.193   4.224   6.554  0.7698 -0.0602  0.7799
  951MOL0     C28256  11.057   4.203   6.524  0.0154  0.5725  0.4705
  951MOL0     C28257  10.966   4.170   6.628  0.6285  0.4681  0.1456
  951MOL0     O28258  10.833   4.168   6.588 -1.0812  0.1476  0.2570
  951MOL0     C28259  10.743   4.236   6.676  0.4811 -0.0683 -0.3869
  951MOL0     C28260  10.636   4.131   6.714 -0.2968 -0.0358 -0.7425
  951MOL0     C28261  10.535   4.188   6.809 -0.4405 -0.6183  0.2940
  951MOL0     C28262  10.401   4.129   6.787  0.1169  0.7912 -0.3791
  951MOL0     C28263  10.297   4.172   6.891 -0.7520 -0.4974 -0.2528
  951MOL0     C28264  10.154   4.218   6.839  0.8056  0.3790 -0.2634
  951MOL0     C28265  10.052   4.251   6.949  0.2798  0.4215 -0.0670
  951MOL0     C28266  10.084   4.383   7.005  0.0136 -0.2365 -0.0433
  951MOL0     N28267   9.963   4.418   7.085 -0.3451 -0.1104  0.5336
  951MOL0     C28268   9.867   4.509   7.049 -0.3498  0.0940  0.3480
  951MOL0     C28269   9.772   4.500   7.148 -1.6603  0.2530  0.4055
  951MOL0     C28270   9.648   4.588   7.136 -0.2943  0.6134  0.6094
  951MOL0     C28271   9.602   4.644   7.270  0.1166 -0.0516  0.1436
  951MOL0     C28272   9.472   4.731   7.254 -0.3160 -0.4832 -0.1659
  951MOL0     C28273   9.442   4.794   7.391 -0.1148  0.4856  0.6595
  951MOL0     O28274   9.411   4.687   7.487 -1.1399  0.1946 -0.1975
  951MOL0     C28275   9.285   4.624   7.506  0.3324  0.2757  0.0350
  951MOL0     C28276   9.288   4.504   7.577  0.0787  0.0744 -0.1093
  951MOL0     C28277   9.171   4.434   7.598  1.0902  0.8682 -0.3760
  951MOL0     C28278   9.185   4.299   7.646  0.0726  0.4942 -0.4016
  951MOL0     C28279   9.051   4.496   7.564  0.1060  0.5723 -0.5087
  951MOL0     C28280   8.921   4.441   7.607  0.1562 -0.9308  0.6114
  951MOL0     O28281   8.818   4.459   7.519 -0.2344 -1.1091  0.4631
  951MOL0     C28282   8.700   4.399   7.557  0.4944 -0.7382 -0.0169
  951MOL0     C28283   8.603   4.469   7.623  0.9035 -0.2814  0.2479
  951MOL0     C28284   8.483   4.408   7.661 -0.9097 -0.8890 -0.3834
  951MOL0     C28285   8.449   4.281   7.613 -0.1677 -0.3271  0.4520
  951MOL0     O28286   8.330   4.235   7.658 -0.1681  0.1448 -0.0927
  951MOL0     C28287   8.303   4.095   7.647  0.0328 -0.4602  0.2067
  951MOL0     C28288   8.159   4.060   7.701  0.6999  0.0510 -0.3563
  951MOL0     C28289   8.047   4.142   7.648  0.0506  0.5321  0.1193
  951MOL0     C28290   7.915   4.110   7.705  0.8046 -0.4665  0.8442
  951MOL0     C28291   7.793   4.153   7.617 -0.2062 -0.5577 -0.4634
  951MOL0     C28292   7.777   4.303   7.622 -0.1711 -0.3262  0.2676
  951MOL0     C28293   7.743   4.370   7.761  0.3124 -0.3074  0.4976
  951MOL0     C28294   7.772   4.521   7.734 -0.3732  0.4989  0.1867
  951MOL0    Cl28295   7.677   4.626   7.847 -0.1645  0.0351 -0.0062
  951MOL0     C28296   8.545   4.220   7.528  0.4296 -0.3110 -1.0121
  951MOL0     C28297   8.672   4.272   7.499 -0.1395  0.2219  0.8385
  951MOL0     O28298   8.910   4.380   7.715 -0.5602  0.6620 -0.4623
  951MOL0     C28299   9.052   4.616   7.488 -0.3342 -0.2038  0.9864
  951MOL0     C28300   9.171   4.674   7.455 -0.2990 -0.4792  0.1912
  951MOL0     N28301   9.816   4.424   7.254 -0.4759  0.8962  0.1720
  951MOL0     N28302   9.930   4.371   7.213  0.8240 -0.6216 -1.0765
  951MOL0     C28303  11.018   4.152   6.752  0.7541  0.4661  0.5523
  951MOL0     C28304  11.149   4.169   6.781 -0.2848  0.2345 -0.8410
  951MOL0     C28305  11.555   4.368   6.841  0.0263 -0.6839 -0.8855
  951MOL0     C28306  11.650   4.267   6.822  0.6540  0.5819  0.0946
  951MOL0     C28307  11.777   4.289   6.870 -0.7262 -0.0899  0.0544
  951MOL0     C28308  11.813   4.405   6.939 -0.8975 -0.0571 -0.3232
  951MOL0     O28309  11.944   4.414   6.978 -0.0638  0.5155  0.0144
  951MOL0     C28310  11.996   4.546   7.007 -0.5926  0.7121 -0.4171
  951MOL0     C28311  12.149   4.553   7.015 -0.1218  0.8869  1.0521
  951MOL0     C28312  12.226   4.518   6.877 -0.4592  0.6216 -0.5334
  951MOL0     C28313  12.373   4.546   6.885 -0.6984  0.0779 -0.7975
  951MOL0     C28314  12.426   4.473   7.000 -0.4411  0.7699  0.7797
  951MOL0     C28315  12.459   4.399   7.086 -0.4601  0.6749 -0.7882
  951MOL0     C28316  11.718   4.513   6.948 -0.0281  0.8027  0.3156
  951MOL0     C28317  11.589   4.484   6.908 -0.2123 -0.7850 -0.3489
  951MOL0     H28318  11.268   4.252   6.481  1.6543  3.2617  2.7464
  951MOL0     H28319  11.029   4.215   6.420  1.3246 -1.0412 -0.1084
  951MOL0     H28320  10.788   4.284   6.764  0.8303  3.1177 -2.1407
  951MOL0     H28321  10.687   4.313   6.622 -1.7848 -0.2467  1.5245
  951MOL0     H28322  10.589   4.081   6.629  0.1999 -0.2454 -0.9035
  951MOL0     H28323  10.677   4.048   6.772  1.3723  2.1947  1.4719
  951MOL0     H28324  10.561   4.171   6.913  0.7591  1.5509  0.4038
  951MOL0     H28325  10.532   4.297   6.800 -2.9650 -0.6444 -0.0460
  951MOL0     H28326  10.366   4.151   6.686 -2.4952 -0.1001  0.2600
  951MOL0     H28327  10.395   4.023   6.812 -1.9513  0.8946 -0.3323
  951MOL0     H28328  10.295   4.097   6.971 -0.2425 -2.7193 -2.2087
  951MOL0     H28329  10.335   4.257   6.948  1.2134  0.0269 -2.2221
  951MOL0     H28330  10.167   4.301   6.768  0.3556 -0.2488 -1.1000
  951MOL0     H28331  10.123   4.130   6.782  1.4170 -0.3760  0.5467
  951MOL0     H28332   9.949   4.254   6.912  0.6345 -2.1633 -1.4645
  951MOL0     H28333  10.050   4.173   7.026 -0.0273  1.1412  0.6836
  951MOL0     H28334  10.107   4.458   6.930  0.2085 -0.3128 -0.0599
  951MOL0     H28335  10.176   4.372   7.062  0.0234 -2.4900 -0.3872
  951MOL0     H28336   9.864   4.567   6.957  1.0407 -4.7469 -3.1070
  951MOL0     H28337   9.669   4.671   7.067 -2.8247  0.2012 -0.7889
  951MOL0     H28338   9.564   4.534   7.090  0.7998 -0.8669  0.2789
  951MOL0     H28339   9.686   4.701   7.310  1.2269  0.3227 -2.5319
  951MOL0     H28340   9.575   4.559   7.333 -1.8894 -2.6288 -3.7619
  951MOL0     H28341   9.390   4.667   7.220 -0.7712 -0.1366  0.2765
  951MOL0     H28342   9.478   4.809   7.177 -2.4349 -0.0908  0.0137
  951MOL0     H28343   9.355   4.861   7.382  0.0621  0.6155 -0.1320
  951MOL0     H28344   9.518   4.861   7.431  1.4487 -0.7416 -0.1710
  951MOL0     H28345   9.377   4.464   7.624  0.1780  0.1822 -0.2075
  951MOL0     H28346   9.139   4.284   7.744  1.7355 -0.1353  0.3232
  951MOL0     H28347   9.137   4.228   7.579 -1.3463 -1.8286  2.8168
  951MOL0     H28348   9.290   4.271   7.662  0.4233  1.7004 -0.4762
  951MOL0     H28349   8.609   4.574   7.647 -3.6162 -0.1955  1.9468
  951MOL0     H28350   8.412   4.463   7.722 -0.4864  0.4544 -1.0664
  951MOL0     H28351   8.300   4.067   7.541 -1.1681  0.3556  0.0095
  951MOL0     H28352   8.377   4.034   7.700  1.2477 -1.4523 -2.4237
  951MOL0     H28353   8.138   3.955   7.678  2.7129 -0.4653 -0.0910
  951MOL0     H28354   8.151   4.078   7.809 -0.7245  1.8127 -0.7167
  951MOL0     H28355   8.039   4.107   7.545 -1.3303  1.8344 -0.2500
  951MOL0     H28356   8.050   4.251   7.646 -0.8561  0.5667  0.3710
  951MOL0     H28357   7.897   4.003   7.715 -2.0879 -0.3211 -1.4297
  951MOL0     H28358   7.917   4.151   7.806  0.5268 -0.0624  0.6897
  951MOL0     H28359   7.703   4.108   7.661 -0.8914  0.8968 -0.3126
  951MOL0     H28360   7.813   4.112   7.518  1.2834  0.7555 -0.7330
  951MOL0     H28361   7.874   4.337   7.583 -0.8132 -0.7791 -1.8745
  951MOL0     H28362   7.692   4.332   7.561 -1.1935 -1.0281  1.3139
  951MOL0     H28363   7.795   4.333   7.850 -0.2408  2.5641  2.1443
  951MOL0     H28364   7.641   4.343   7.788 -0.0149 -0.5506 -0.9019
  951MOL0     H28365   7.742   4.542   7.631 -1.1003  1.9957  0.6743
  951MOL0     H28366   7.880   4.534   7.747 -0.2083  0.1060 -0.7233
  951MOL0     H28367   8.528   4.119   7.490 -0.8189 -1.5119  2.3860
  951MOL0     H28368   8.747   4.213   7.448  3.2317  3.1618  1.9657
  951MOL0     H28369   8.958   4.656   7.451  0.4976  1.8115  0.9157
  951MOL0     H28370   9.154   4.765   7.396  2.6744 -1.1991 -1.9919
  951MOL0     H28371  10.946   4.133   6.830  0.3503  1.7290  0.5077
  951MOL0     H28372  11.180   4.153   6.884 -1.3136  3.5095  0.1125
  951MOL0     H28373  11.621   4.174   6.774  1.7808 -0.8570  2.0824
  951MOL0     H28374  11.860   4.227   6.840  1.6024  2.2171  1.3600
  951MOL0     H28375  11.957   4.611   6.928  0.4607 -2.0656 -3.4546
  951MOL0     H28376  11.961   4.584   7.103 -4.1813 -0.0755 -1.2813
  951MOL0     H28377  12.183   4.483   7.091 -2.4022 -1.2690  0.2395
  951MOL0     H28378  12.184   4.654   7.041  3.0317 -0.2449  1.5839
  951MOL0     H28379  12.196   4.578   6.790  2.4725  3.2483  0.0941
  951MOL0     H28380  12.209   4.411   6.864  2.4833  0.1227 -0.9968
  951MOL0     H28381  12.384   4.655   6.884  3.5431 -0.1994 -1.5510
  951MOL0     H28382  12.436   4.514   6.802 -0.1461 -1.0047  0.0046
  951MOL0     H28383  12.473   4.330   7.167 -1.4702  1.4584  0.0911
  951MOL0     H28384  11.747   4.607   6.993  4.9264 -0.5575  0.5203
  951MOL0     H28385  11.518   4.563   6.930 -0.0387 -1.4068  2.9357
  952MOL0     O28386   6.351  10.244   3.481  0.2192 -0.4726  0.0783
  952MOL0     C28387   6.385  10.157   3.551 -0.1773 -0.7440 -0.3487
  952MOL0     O28388   6.307  10.099   3.656  0.3606  0.2007  0.2781
  952MOL0     C28389   6.169  10.118   3.647 -0.0726  0.6647 -0.7749
  952MOL0     C28390   6.091  10.011   3.692 -0.3462 -1.0748  0.3418
  952MOL0     C28391   5.951  10.020   3.675  0.1930  0.2923 -0.3253
  952MOL0     C28392   5.900  10.141   3.631 -0.0043  0.4862  0.1493
  952MOL0     O28393   5.764  10.174   3.604  0.6119 -0.3385 -0.5310
  952MOL0     C28394   5.667  10.073   3.628  0.0789 -0.6538 -0.3151
  952MOL0     C28395   5.536  10.137   3.624 -0.5164 -0.7254 -0.4264
  952MOL0     C28396   5.503  10.174   3.480  0.2771 -0.9504  1.0534
  952MOL0     C28397   5.351  10.178   3.448 -0.5768  0.4043 -0.2473
  952MOL0     C28398   5.316  10.237   3.305  0.4172 -0.0395 -0.4732
  952MOL0     C28399   5.179  10.270   3.293  0.1993 -0.2524  0.2024
  952MOL0     C28400   5.134  10.342   3.153 -0.4746  0.1240 -0.0167
  952MOL0     C28401   5.166  10.495   3.135  0.3210  0.4801 -0.6669
  952MOL0     N28402   5.092  10.543   3.022 -0.7905  0.1744 -1.1401
  952MOL0     C28403   4.975  10.614   3.025 -0.0014 -0.5605 -0.0047
  952MOL0     C28404   4.952  10.657   2.899  1.0686  0.5741  0.7308
  952MOL0     C28405   4.848  10.750   2.841 -0.6925  0.2603  0.1080
  952MOL0     C28406   4.706  10.735   2.907  0.8217  0.0784 -0.0031
  952MOL0     C28407   4.629  10.629   2.844  0.0703  0.5181  0.5672
  952MOL0     C28408   4.480  10.661   2.848 -0.3321 -0.0642  0.0172
  952MOL0     O28409   4.469  10.760   2.743  0.4396  0.4713 -0.0946
  952MOL0     C28410   4.345  10.786   2.696  0.2295 -0.7527  0.5159
  952MOL0     C28411   4.350  10.874   2.589 -0.4289  0.4830 -0.7874
  952MOL0     C28412   4.232  10.891   2.510 -0.6029  0.0027  0.2525
  952MOL0     C28413   4.256  10.965   2.380  0.2073  0.0215 -0.0911
  952MOL0     C28414   4.107  10.836   2.549 -0.6212 -0.4878  0.0606
  952MOL0     C28415   3.973  10.866   2.495 -0.3251  0.1486  0.2039
  952MOL0     O28416   3.872  10.785   2.541 -0.7662  0.7626  0.3080
  952MOL0     C28417   3.738  10.809   2.527  0.3577 -0.8969 -0.8841
  952MOL0     C28418   3.669  10.909   2.459 -0.2360  0.3886 -0.8345
  952MOL0     C28419   3.527  10.910   2.452 -0.5728 -0.2613 -0.0679
  952MOL0     C28420   3.454  10.840   2.550 -0.3240  0.2091  0.7907
  952MOL0     O28421   3.319  10.848   2.545 -0.2520  0.2365 -0.5386
  952MOL0     C28422   3.248  10.729   2.591 -0.0515 -0.0880  0.3250
  952MOL0     C28423   3.099  10.748   2.562 -0.2777 -0.2942  0.2576
  952MOL0     C28424   3.017  10.631   2.613  0.2483  0.6906  0.0665
  952MOL0     C28425   2.872  10.664   2.600  0.3759 -0.6889  0.4003
  952MOL0     C28426   2.783  10.543   2.642  0.8781 -0.7695  0.6791
  952MOL0     C28427   2.635  10.598   2.656 -0.2919  0.0357 -0.2255
  952MOL0     C28428   2.545  10.494   2.723 -0.0538 -0.8940  0.3105
  952MOL0     C28429   2.396  10.528   2.718 -1.0776 -0.3333 -0.3336
  952MOL0    Cl28430   2.309  10.438   2.849 -0.0367 -0.4153  0.4710
  952MOL0     C28431   3.531  10.746   2.627 -0.0156 -0.4691 -0.4658
  952MOL0     C28432   3.665  10.726   2.606 -0.1977  0.6865  0.4925
  952MOL0     O28433   3.959  10.969   2.423  0.5322  0.0037 -0.2187
  952MOL0     C28434   4.112  10.738   2.656 -0.4884  0.1714 -0.0792
  952MOL0     C28435   4.229  10.715   2.729 -0.0290  0.8731  0.5358
  952MOL0     N28436   5.044  10.591   2.820 -0.4506 -0.7352 -0.9287
  952MOL0     N28437   5.135  10.530   2.896  0.0611  0.1161 -0.3199
  952MOL0     C28438   5.974  10.256   3.616 -0.7592 -0.0092  0.5401
  952MOL0     C28439   6.114  10.245   3.633  0.2390  0.0547  0.0295
  952MOL0     C28440   6.526  10.110   3.537  0.2973  0.5129  0.4906
  952MOL0     C28441   6.597  10.135   3.413  0.7289  0.2776  0.0804
  952MOL0     C28442   6.723  10.085   3.400  0.4382  0.1071  0.5545
  952MOL0     C28443   6.794  10.026   3.502 -0.1395 -0.4241  0.1942
  952MOL0     O28444   6.916   9.971   3.482 -0.2131  0.3671  0.1080
  952MOL0     C28445   6.967   9.951   3.347 -0.2342  0.1287  0.6068
  952MOL0     C28446   7.112   9.902   3.348 -0.5201 -0.4267 -1.0028
  952MOL0     C28447   7.202  10.005   3.412 -0.7996 -0.2211  0.4489
  952MOL0     C28448   7.351   9.965   3.414 -0.0106 -0.5221  0.9340
  952MOL0     C28449   7.379   9.853   3.495 -0.2389  0.4722 -1.6986
  952MOL0     C28450   7.404   9.759   3.562 -0.5966 -0.1082  0.8308
  952MOL0     C28451   6.728   9.998   3.626  0.7322  0.2043  0.2445
  952MOL0     C28452   6.591  10.039   3.638 -0.3217  0.9948 -0.5246
  952MOL0     H28453   6.142   9.927   3.737 -0.4696 -0.6404  1.3155
  952MOL0     H28454   5.896   9.943   3.728  0.3363  1.9075  2.3413
  952MOL0     H28455   5.681   9.985   3.565  4.2737  0.0232 -0.5881
  952MOL0     H28456   5.696  10.036   3.727 -2.5318  0.3919  0.9646
  952MOL0     H28457   5.461  10.068   3.665 -1.8719  0.0638 -1.4810
  952MOL0     H28458   5.524  10.228   3.684  0.3400 -0.4298 -0.6861
  952MOL0     H28459   5.550  10.271   3.458 -0.7958 -0.8468 -1.0627
  952MOL0     H28460   5.540  10.096   3.414  0.8823 -0.4988  0.8433
  952MOL0     H28461   5.312  10.076   3.442  0.1835  0.1454 -1.0455
  952MOL0     H28462   5.305  10.230   3.532 -1.3496 -1.5177  0.5717
  952MOL0     H28463   5.374  10.330   3.296  0.4203 -0.1850 -2.3285
  952MOL0     H28464   5.340  10.171   3.222  0.5099  0.7932 -1.1219
  952MOL0     H28465   5.124  10.177   3.305  1.4462 -0.7290  3.2672
  952MOL0     H28466   5.146  10.334   3.376 -0.7876 -1.6304  0.9209
  952MOL0     H28467   5.185  10.288   3.073 -1.5538 -0.3167 -0.4191
  952MOL0     H28468   5.028  10.323   3.139 -0.0750 -2.8707  0.5255
  952MOL0     H28469   5.272  10.508   3.114  0.5744  3.6404  1.8269
  952MOL0     H28470   5.146  10.542   3.232  0.5317  1.2856 -1.0092
  952MOL0     H28471   4.910  10.631   3.110  1.6635 -2.1841  1.6906
  952MOL0     H28472   4.875  10.853   2.864 -0.9149  0.4394 -0.4115
  952MOL0     H28473   4.848  10.740   2.732 -1.2486 -0.5400  0.1729
  952MOL0     H28474   4.674  10.838   2.888  1.2924  0.6313  1.8810
  952MOL0     H28475   4.724  10.723   3.015  3.1151 -1.4251 -0.4775
  952MOL0     H28476   4.655  10.535   2.894 -0.5947  1.3584  2.6165
  952MOL0     H28477   4.655  10.623   2.738  0.0999 -0.4999  0.6258
  952MOL0     H28478   4.453  10.699   2.947  1.6792  1.6801 -0.0280
  952MOL0     H28479   4.414  10.579   2.819  1.0240 -0.5320 -1.9043
  952MOL0     H28480   4.439  10.936   2.590 -0.4044  0.4452 -0.5994
  952MOL0     H28481   4.201  11.059   2.384 -0.5482 -0.4190  0.0173
  952MOL0     H28482   4.363  10.977   2.360 -0.2718 -0.2244 -3.1671
  952MOL0     H28483   4.220  10.904   2.297 -0.0897 -1.1725  0.8853
  952MOL0     H28484   3.714  10.986   2.397 -0.2693  0.0494 -1.2926
  952MOL0     H28485   3.464  10.969   2.386 -1.2209 -1.0344 -0.1544
  952MOL0     H28486   3.277  10.636   2.541 -3.1639 -1.8305  1.4970
  952MOL0     H28487   3.268  10.732   2.699 -0.4240 -0.0382  0.3959
  952MOL0     H28488   3.067  10.843   2.606  0.8074 -0.9978  2.7133
  952MOL0     H28489   3.082  10.760   2.455 -1.7256  0.7244  0.5730
  952MOL0     H28490   3.035  10.597   2.716 -3.2197 -0.5021  0.4426
  952MOL0     H28491   3.040  10.548   2.545 -2.5689  1.0354 -1.4686
  952MOL0     H28492   2.853  10.750   2.664  1.1872 -1.1580  1.2975
  952MOL0     H28493   2.854  10.704   2.500 -2.7933  1.3262  1.6454
  952MOL0     H28494   2.815  10.496   2.735 -1.1464  1.1049  2.4459
  952MOL0     H28495   2.793  10.471   2.560  1.8189  2.8028 -2.6687
  952MOL0     H28496   2.624  10.677   2.730 -3.8312  2.9900 -3.4656
  952MOL0     H28497   2.606  10.640   2.559  1.0102  0.6799 -0.3558
  952MOL0     H28498   2.578  10.493   2.828  1.9104  1.0723 -0.1980
  952MOL0     H28499   2.557  10.397   2.674 -0.5408 -1.4548  1.2629
  952MOL0     H28500   2.351  10.510   2.620  0.9319 -2.3862 -0.9565
  952MOL0     H28501   2.392  10.636   2.739  1.2689  0.1423 -2.0109
  952MOL0     H28502   3.481  10.668   2.684  2.1155  0.3590  2.7803
  952MOL0     H28503   3.709  10.656   2.676 -1.0375  2.1015  2.5416
  952MOL0     H28504   4.024  10.679   2.678 -0.9680 -0.4617 -3.2385
  952MOL0     H28505   4.221  10.649   2.814 -0.4986  0.4205  0.1414
  952MOL0     H28506   5.921  10.348   3.593  0.1602  0.4356  0.1722
  952MOL0     H28507   6.173  10.336   3.622 -0.7851  0.6717 -0.5422
  952MOL0     H28508   6.554  10.199   3.337  0.0478 -0.5575 -0.2538
  952MOL0     H28509   6.778  10.103   3.308  1.5818  1.3589  1.4352
  952MOL0     H28510   6.906   9.877   3.294 -0.1539  1.3159 -1.2475
  952MOL0     H28511   6.962  10.042   3.287  1.5758 -0.0750  0.1000
  952MOL0     H28512   7.152   9.885   3.248  0.9943  0.4845 -0.5907
  952MOL0     H28513   7.110   9.807   3.404 -2.7029 -0.9893 -1.9213
  952MOL0     H28514   7.174  10.016   3.518 -0.1360 -0.3311  0.6403
  952MOL0     H28515   7.189  10.103   3.365 -1.6002 -0.9359 -0.8552
  952MOL0     H28516   7.409  10.051   3.451 -1.5362 -0.3233  3.0527
  952MOL0     H28517   7.385   9.944   3.313 -1.7841  2.9037 -0.5651
  952MOL0     H28518   7.447   9.674   3.612 -0.6940 -0.5380  0.2013
  952MOL0     H28519   6.777   9.935   3.700 -1.1788  2.3063  3.5563
  952MOL0     H28520   6.533  10.011   3.725  0.6016 -2.2863 -0.8479
  953MOL0     O28521   9.134   6.794  10.147  0.3288 -0.1548  0.2148
  953MOL0     C28522   9.170   6.808  10.262 -0.3628  0.6572 -0.0600
  953MOL0     O28523   9.118   6.892  10.354 -0.4963  0.5502  0.3231
  953MOL0     C28524   8.996   6.960  10.322 -0.2972  0.7086  0.5309
  953MOL0     C28525   9.006   7.089  10.267  0.1251  0.3773 -0.3035
  953MOL0     C28526   8.892   7.158  10.235 -0.0577 -0.0826  0.1848
  953MOL0     C28527   8.766   7.102  10.261  0.1400  0.2458 -1.8209
  953MOL0     O28528   8.652   7.166  10.241  0.5984  0.0743  0.6017
  953MOL0     C28529   8.648   7.302  10.282 -0.2777  0.0896 -0.2395
  953MOL0     C28530   8.505   7.319  10.270  0.1978 -0.4037  0.0349
  953MOL0     C28531   8.456   7.457  10.286  0.0615  0.3746 -0.3925
  953MOL0     C28532   8.317   7.462  10.237  0.3111  0.4627  0.0752
  953MOL0     C28533   8.267   7.604  10.238  0.8700  0.2529 -0.0927
  953MOL0     C28534   8.132   7.634  10.171  0.4663  0.4606 -0.2774
  953MOL0     C28535   8.010   7.597  10.268 -0.3167 -0.8138 -0.0510
  953MOL0     C28536   7.883   7.599  10.198  0.0809 -0.5503  0.2110
  953MOL0     N28537   7.839   7.738  10.148 -0.6728 -0.0957 -0.4903
  953MOL0     C28538   7.858   7.779  10.019  0.2314 -0.9743  0.3097
  953MOL0     C28539   7.782   7.894  10.019  0.5914  0.0088  0.8617
  953MOL0     C28540   7.765   7.992   9.900 -0.2763  0.3323 -0.1025
  953MOL0     C28541   7.649   7.941   9.811 -0.7560 -0.1970  1.0326
  953MOL0     C28542   7.520   7.941   9.883 -0.8335  0.2015 -0.5146
  953MOL0     C28543   7.398   7.894   9.791 -0.0982 -0.5140  0.3831
  953MOL0     O28544   7.282   7.929   9.856 -0.0990  0.7351 -0.4418
  953MOL0     C28545   7.164   7.918   9.792  0.2180 -0.2677  0.0873
  953MOL0     C28546   7.056   7.979   9.863 -0.4825 -0.0249  0.1545
  953MOL0     C28547   6.926   7.971   9.815 -0.5570 -0.8560  0.0309
  953MOL0     C28548   6.828   8.047   9.899  0.0252  0.2291 -0.0749
  953MOL0     C28549   6.893   7.886   9.710  0.1842  0.3092  0.3771
  953MOL0     C28550   6.758   7.843   9.655  0.4589  0.6827 -0.1765
  953MOL0     O28551   6.659   7.943   9.645  0.0837  0.3632  0.1312
  953MOL0     C28552   6.539   7.898   9.607  0.0485 -0.6916  1.1873
  953MOL0     C28553   6.520   7.857   9.476  0.7423 -0.0140  0.3972
  953MOL0     C28554   6.398   7.809   9.438 -0.0220 -0.4004 -0.7688
  953MOL0     C28555   6.289   7.791   9.527  0.9558  0.3513 -0.2171
  953MOL0     O28556   6.168   7.742   9.489  0.0851 -0.0514  0.2464
  953MOL0     C28557   6.166   7.661   9.374 -0.2773 -0.1795 -1.2307
  953MOL0     C28558   6.038   7.578   9.369  0.5509  0.5295  0.1118
  953MOL0     C28559   5.912   7.664   9.344 -0.0571 -0.3053 -0.1905
  953MOL0     C28560   5.780   7.582   9.331 -0.7844  0.4287  0.3685
  953MOL0     C28561   5.663   7.684   9.320 -0.2885  0.1486  0.2319
  953MOL0     C28562   5.532   7.604   9.304 -0.3386 -0.1015  0.5552
  953MOL0     C28563   5.427   7.709   9.266  0.0264  0.0964  0.7392
  953MOL0     C28564   5.295   7.641   9.227  0.0981 -0.1672  0.2431
  953MOL0    Cl28565   5.169   7.765   9.197 -0.3675  0.1860 -0.4254
  953MOL0     C28566   6.309   7.826   9.660 -0.3019 -1.1694  0.0872
  953MOL0     C28567   6.433   7.883   9.698 -0.3545 -0.6093 -0.6764
  953MOL0     O28568   6.740   7.727   9.618  0.3052 -0.7033 -0.1171
  953MOL0     C28569   7.004   7.829   9.638 -0.8113 -0.1134 -0.4195
  953MOL0     C28570   7.136   7.844   9.677  0.3037  0.0486  0.1461
  953MOL0     N28571   7.725   7.927  10.145 -0.7916  0.8195 -0.0647
  953MOL0     N28572   7.761   7.824  10.216  0.3363  0.0496 -0.1462
  953MOL0     C28573   8.753   6.973  10.309 -0.0104  0.6120 -0.3139
  953MOL0     C28574   8.865   6.896  10.341  0.4333 -0.0325 -0.9878
  953MOL0     C28575   9.270   6.700  10.301  0.2914 -0.4449  0.0340
  953MOL0     C28576   9.343   6.716  10.416 -0.5110 -1.0326 -0.0927
  953MOL0     C28577   9.445   6.628  10.443 -0.4863 -0.2959  0.2025
  953MOL0     C28578   9.465   6.520  10.363 -0.5804  0.6447  0.5134
  953MOL0     O28579   9.577   6.445  10.364  0.1349  0.6011  0.1561
  953MOL0     C28580   9.696   6.496  10.424  0.8065 -0.6063 -0.1974
  953MOL0     C28581   9.704   6.448  10.570  0.4133 -0.6251 -0.3697
  953MOL0     C28582   9.821   6.515  10.652 -0.0737  0.0788 -0.2549
  953MOL0     C28583   9.806   6.471  10.800 -0.1525 -0.3172  1.1313
  953MOL0     C28584   9.740   6.575  10.867 -0.3662 -0.1694 -0.3633
  953MOL0     C28585   9.688   6.672  10.919  0.3185 -0.2374  0.0588
  953MOL0     C28586   9.389   6.496  10.255 -0.0256 -0.0741  0.2285
  953MOL0     C28587   9.290   6.589  10.219  0.2740 -0.7222  0.2026
  953MOL0     H28588   9.107   7.126  10.251  0.1730  1.6794  2.4434
  953MOL0     H28589   8.897   7.263  10.207 -0.6972  0.9490  3.5011
  953MOL0     H28590   8.680   7.324  10.385  1.6751  2.0292 -1.1803
  953MOL0     H28591   8.704   7.371  10.219  1.8276 -1.6374 -0.3651
  953MOL0     H28592   8.465   7.282  10.176 -2.2969  2.7221 -0.3171
  953MOL0     H28593   8.458   7.273  10.357 -0.4816 -0.0982 -0.1657
  953MOL0     H28594   8.473   7.476  10.392 -0.1882  1.8752 -0.5978
  953MOL0     H28595   8.522   7.519  10.225 -1.1996  0.6839 -1.4945
  953MOL0     H28596   8.308   7.420  10.136 -0.5848 -0.5169  0.5385
  953MOL0     H28597   8.245   7.404  10.295  0.5112  2.5181  2.5336
  953MOL0     H28598   8.272   7.655  10.334  0.8540 -0.6616  0.4010
  953MOL0     H28599   8.345   7.648  10.175  0.0904  0.1512 -1.1761
  953MOL0     H28600   8.132   7.738  10.135  0.1396 -0.0154 -1.7303
  953MOL0     H28601   8.128   7.579  10.076  4.5965 -2.2072  0.8281
  953MOL0     H28602   8.028   7.500  10.316  1.7477 -1.4623 -1.9513
  953MOL0     H28603   8.003   7.672  10.347  2.7824 -1.5230  1.0573
  953MOL0     H28604   7.804   7.575  10.271  0.7982  1.8120  1.9009
  953MOL0     H28605   7.882   7.531  10.112 -3.3465  1.0000 -1.1634
  953MOL0     H28606   7.921   7.743   9.939  0.4586  0.0190  0.0268
  953MOL0     H28607   7.731   8.088   9.939 -2.4816 -1.4540  2.7842
  953MOL0     H28608   7.852   7.996   9.834  0.5105  0.1690  0.9122
  953MOL0     H28609   7.667   7.836   9.784  1.0070  0.2027  0.5525
  953MOL0     H28610   7.651   7.998   9.718 -0.6617  0.0926  1.2123
  953MOL0     H28611   7.493   8.042   9.914  0.1177  0.3417 -0.1265
  953MOL0     H28612   7.522   7.868   9.964 -1.4680 -2.8598 -3.0675
  953MOL0     H28613   7.408   7.786   9.781  1.7059 -0.4603  1.2444
  953MOL0     H28614   7.412   7.946   9.696  1.5205  1.6376  1.7116
  953MOL0     H28615   7.087   8.030   9.953  1.0189  2.6364 -1.7139
  953MOL0     H28616   6.789   7.992   9.986  0.8955  0.6272  0.5906
  953MOL0     H28617   6.879   8.141   9.923  1.4100 -0.6370  0.4999
  953MOL0     H28618   6.744   8.077   9.836  0.7697  0.2029 -1.1045
  953MOL0     H28619   6.599   7.870   9.403  1.0186 -5.2594 -0.6394
  953MOL0     H28620   6.385   7.775   9.336  1.0483 -1.5429 -0.5475
  953MOL0     H28621   6.178   7.718   9.282 -0.3917  0.3727 -0.9109
  953MOL0     H28622   6.254   7.596   9.376 -0.6705 -0.7056 -0.2187
  953MOL0     H28623   6.055   7.504   9.290 -0.6696  0.3401  0.0165
  953MOL0     H28624   6.018   7.512   9.455  3.3308  0.2528  0.6650
  953MOL0     H28625   5.926   7.738   9.265 -1.6692  0.7780  0.4775
  953MOL0     H28626   5.895   7.715   9.439  4.0078 -2.6470  2.0394
  953MOL0     H28627   5.784   7.526   9.237 -2.4003  1.3160 -0.2569
  953MOL0     H28628   5.768   7.497   9.400 -0.4459  0.1819  0.1264
  953MOL0     H28629   5.675   7.726   9.220 -2.0773 -1.1714 -0.5716
  953MOL0     H28630   5.649   7.763   9.395 -0.2610  1.7261 -1.3454
  953MOL0     H28631   5.542   7.522   9.233 -0.3030 -2.5912  3.2765
  953MOL0     H28632   5.509   7.556   9.399 -2.7528 -1.3712 -0.5638
  953MOL0     H28633   5.465   7.769   9.182 -0.1158  0.9713  1.2882
  953MOL0     H28634   5.420   7.778   9.351  1.9646  0.8861  0.3114
  953MOL0     H28635   5.263   7.572   9.306 -1.1938  0.1615  0.0261
  953MOL0     H28636   5.302   7.585   9.134  0.6455 -1.5889  1.1091
  953MOL0     H28637   6.219   7.820   9.719 -0.5563  0.6935 -0.0274
  953MOL0     H28638   6.454   7.898   9.803  1.0936 -3.7678 -0.4215
  953MOL0     H28639   6.981   7.774   9.548  0.1937  0.9310 -1.3469
  953MOL0     H28640   7.220   7.805   9.620  0.4360  1.6737 -0.8345
  953MOL0     H28641   8.651   6.935  10.307 -0.6135  2.1533 -0.8067
  953MOL0     H28642   8.852   6.798  10.385 -2.7969  1.6685  2.3435
  953MOL0     H28643   9.332   6.800  10.484 -0.8118 -1.3063  0.1980
  953MOL0     H28644   9.491   6.643  10.540 -1.3750  2.5051  0.2633
  953MOL0     H28645   9.794   6.470  10.381  1.4552 -0.0595  0.9087
  953MOL0     H28646   9.706   6.603  10.446  0.2637 -0.4201 -0.8351
  953MOL0     H28647   9.718   6.340  10.572 -0.1247 -0.7007 -0.3949
  953MOL0     H28648   9.612   6.480  10.621  0.3090 -0.7673 -0.4678
  953MOL0     H28649   9.816   6.622  10.632 -3.1985 -0.2953 -2.1926
  953MOL0     H28650   9.917   6.474  10.619  1.6403  3.0148  0.7083
  953MOL0     H28651   9.900   6.460  10.855  0.8295 -0.7520 -0.5475
  953MOL0     H28652   9.739   6.385  10.805 -5.0147  2.9299 -1.0145
  953MOL0     H28653   9.625   6.749  10.957  0.6064  0.7081 -1.3155
  953MOL0     H28654   9.422   6.413  10.193 -1.8045  0.1820 -1.1542
  953MOL0     H28655   9.231   6.575  10.129  0.6120  0.0310 -0.1401
  954MOL0     O28656   5.775   5.269   8.282 -0.9997  0.1751  0.0756
  954MOL0     C28657   5.817   5.379   8.249 -0.3998 -0.0669  1.1737
  954MOL0     O28658   5.740   5.485   8.204  0.2206  0.3049  0.1838
  954MOL0     C28659   5.605   5.469   8.211  0.6463  0.1267 -1.1253
  954MOL0     C28660   5.529   5.427   8.323 -0.5423 -0.2995 -0.0276
  954MOL0     C28661   5.395   5.423   8.331  0.4274 -0.6227  0.5990
  954MOL0     C28662   5.318   5.458   8.217  0.1267  0.4164 -0.0098
  954MOL0     O28663   5.182   5.447   8.216 -0.1933  0.5313  0.3584
  954MOL0     C28664   5.109   5.499   8.328 -0.5467 -0.0503  0.7811
  954MOL0     C28665   4.965   5.504   8.266 -0.6216  0.1403  0.4650
  954MOL0     C28666   4.869   5.541   8.384 -0.0034 -0.3677 -0.2970
  954MOL0     C28667   4.720   5.541   8.357 -0.8531  0.7899  0.2180
  954MOL0     C28668   4.637   5.618   8.455 -0.3359  0.2852 -0.5190
  954MOL0     C28669   4.484   5.592   8.426 -0.3301 -0.3897 -0.0271
  954MOL0     C28670   4.374   5.646   8.515  0.8613 -0.5676 -0.6243
  954MOL0     C28671   4.372   5.557   8.641 -0.5817  0.1844  0.1103
  954MOL0     N28672   4.305   5.425   8.627 -0.4601 -0.2509  0.4327
  954MOL0     C28673   4.173   5.412   8.588 -0.4582 -0.2659  0.0098
  954MOL0     C28674   4.151   5.280   8.593 -1.1419  0.3717  0.6488
  954MOL0     C28675   4.028   5.210   8.552 -0.7817 -0.8257  0.2618
  954MOL0     C28676   3.889   5.278   8.594 -0.0967  0.5434 -0.6256
  954MOL0     C28677   3.791   5.160   8.620  0.0482  0.8533  0.3170
  954MOL0     C28678   3.646   5.193   8.640  0.3484  0.5075 -0.4763
  954MOL0     O28679   3.608   5.226   8.782 -0.5468 -0.3164  0.3770
  954MOL0     C28680   3.525   5.143   8.848 -0.5269 -0.0736  0.5295
  954MOL0     C28681   3.565   5.029   8.909 -0.1084 -0.3532 -0.8612
  954MOL0     C28682   3.469   4.957   8.980 -0.2568  0.2359  0.5883
  954MOL0     C28683   3.512   4.836   9.054 -0.7996 -0.6997 -0.3775
  954MOL0     C28684   3.332   4.988   8.964  1.0323  0.5631 -1.0673
  954MOL0     C28685   3.212   4.907   9.018  0.6224  0.0753  0.6822
  954MOL0     O28686   3.231   4.774   9.035 -0.0577  0.2217  0.2283
  954MOL0     C28687   3.132   4.683   9.081 -0.7329  0.2444 -0.1046
  954MOL0     C28688   3.016   4.715   9.152 -0.4710 -0.4178  0.1849
  954MOL0     C28689   2.921   4.618   9.190 -0.5075 -0.5549  0.8246
  954MOL0     C28690   2.940   4.485   9.158 -0.4657 -0.4615  0.6100
  954MOL0     O28691   2.868   4.377   9.205 -0.1011  0.1196 -0.1846
  954MOL0     C28692   2.842   4.386   9.352  0.1519 -0.1667 -0.0149
  954MOL0     C28693   2.963   4.343   9.434  0.8314  0.2774 -0.5234
  954MOL0     C28694   2.905   4.313   9.571  0.2247  0.0474 -0.2096
  954MOL0     C28695   3.024   4.309   9.670  1.8291 -0.1189 -0.2826
  954MOL0     C28696   2.985   4.278   9.811 -0.2594  0.3087  0.4025
  954MOL0     C28697   2.917   4.140   9.819 -0.6686 -0.7948  0.4407
  954MOL0     C28698   2.938   4.090   9.962 -0.5059 -0.5119  1.4677
  954MOL0     C28699   2.880   4.181  10.073 -0.2050 -0.1043 -0.7090
  954MOL0    Cl28700   2.876   4.089  10.224  0.3077 -0.1651  0.5328
  954MOL0     C28701   3.054   4.452   9.076  0.3635  0.1596 -0.5052
  954MOL0     C28702   3.150   4.555   9.040  0.5659  0.4805 -0.5435
  954MOL0     O28703   3.119   4.971   9.053  0.5445 -0.1198 -0.0992
  954MOL0     C28704   3.293   5.107   8.902  0.1097  0.8823 -0.4253
  954MOL0     C28705   3.389   5.181   8.842 -0.3629  0.2799  0.5132
  954MOL0     N28706   4.270   5.211   8.629 -0.2321 -0.4752  0.1325
  954MOL0     N28707   4.353   5.299   8.665 -0.4071  0.5012 -0.1598
  954MOL0     C28708   5.390   5.501   8.104  0.0578 -0.7194  0.9492
  954MOL0     C28709   5.533   5.511   8.103  0.1418 -0.5452  0.2880
  954MOL0     C28710   5.959   5.386   8.217  0.3252 -0.0529  0.3922
  954MOL0     C28711   6.002   5.509   8.163  0.2674 -1.0050  1.7491
  954MOL0     C28712   6.139   5.514   8.120  0.4924 -0.4566 -1.3515
  954MOL0     C28713   6.225   5.408   8.141 -0.1617 -0.6351  0.5010
  954MOL0     O28714   6.364   5.437   8.115  0.6605 -0.1712  0.3272
  954MOL0     C28715   6.440   5.332   8.069  0.4264 -0.2472  0.3539
  954MOL0     C28716   6.548   5.395   7.973 -0.0561 -0.3607 -2.3304
  954MOL0     C28717   6.644   5.294   7.916  0.0975 -0.5064  0.1168
  954MOL0     C28718   6.707   5.186   8.005  0.3650 -0.6155 -0.0044
  954MOL0     C28719   6.851   5.165   7.996 -0.1399  0.0369  1.1493
  954MOL0     C28720   6.966   5.150   7.972 -0.2153  0.3195 -0.0907
  954MOL0     C28721   6.183   5.289   8.193 -0.1226 -0.2983 -0.3310
  954MOL0     C28722   6.050   5.274   8.235 -1.1949 -1.2152  0.1173
  954MOL0     H28723   5.577   5.405   8.418  1.1485 -1.0781 -1.0224
  954MOL0     H28724   5.350   5.382   8.421  0.5889 -0.4624  0.7530
  954MOL0     H28725   5.119   5.441   8.421 -0.2329  0.6867  1.2131
  954MOL0     H28726   5.148   5.598   8.353  2.3449 -0.6466 -0.8790
  954MOL0     H28727   4.964   5.584   8.192 -0.1528  0.3852  0.7179
  954MOL0     H28728   4.935   5.408   8.224 -0.0513  0.5173 -0.8469
  954MOL0     H28729   4.874   5.473   8.470 -2.8642 -1.0309 -0.5623
  954MOL0     H28730   4.906   5.636   8.424  1.6603 -1.1411  0.0554
  954MOL0     H28731   4.700   5.579   8.257  0.0384 -0.9959 -0.6869
  954MOL0     H28732   4.687   5.437   8.351  3.5992 -0.7522 -1.8660
  954MOL0     H28733   4.659   5.592   8.559 -2.8701 -0.2977 -0.0748
  954MOL0     H28734   4.656   5.725   8.438 -1.1310  0.8013  1.4817
  954MOL0     H28735   4.460   5.628   8.326  1.0081  0.2715 -0.1315
  954MOL0     H28736   4.478   5.483   8.431  0.2498 -0.4056  0.4561
  954MOL0     H28737   4.387   5.753   8.533  3.7422 -0.5300 -2.4077
  954MOL0     H28738   4.274   5.639   8.470  1.0181 -1.7270 -0.8057
  954MOL0     H28739   4.323   5.616   8.719  1.1681 -1.0407  2.2475
  954MOL0     H28740   4.472   5.540   8.682 -0.2363 -0.0452 -0.8051
  954MOL0     H28741   4.110   5.496   8.560 -1.8567 -1.3324 -0.2090
  954MOL0     H28742   4.023   5.189   8.445 -2.4822 -1.5477  0.4634
  954MOL0     H28743   4.044   5.114   8.603  2.7606  1.5258  4.3052
  954MOL0     H28744   3.860   5.345   8.513 -1.9274 -0.6895 -1.0566
  954MOL0     H28745   3.885   5.334   8.687 -2.2314  0.3073 -0.5441
  954MOL0     H28746   3.811   5.108   8.714 -3.3719  0.5479  1.0178
  954MOL0     H28747   3.801   5.086   8.540  0.7928  0.0633  1.1124
  954MOL0     H28748   3.586   5.104   8.617  1.7908 -1.6199  3.0925
  954MOL0     H28749   3.617   5.274   8.573  0.6605  0.4637 -0.6681
  954MOL0     H28750   3.673   5.015   8.905 -0.1388 -0.3117 -2.3047
  954MOL0     H28751   3.621   4.838   9.048 -0.8187  0.8130 -0.5507
  954MOL0     H28752   3.500   4.859   9.160 -1.0395  0.4419 -0.6312
  954MOL0     H28753   3.480   4.739   9.015  0.7024  0.1000 -4.0814
  954MOL0     H28754   2.994   4.818   9.181 -0.3895 -1.0291  2.6387
  954MOL0     H28755   2.838   4.659   9.247 -0.5909  0.5850 -0.0859
  954MOL0     H28756   2.813   4.488   9.378  0.3507 -0.0964 -0.0681
  954MOL0     H28757   2.753   4.322   9.356  1.3378 -1.9963 -1.2658
  954MOL0     H28758   2.999   4.251   9.389 -3.4505 -1.4409 -0.8892
  954MOL0     H28759   3.035   4.426   9.433  0.4586  0.6054 -0.5598
  954MOL0     H28760   2.849   4.219   9.569 -1.3361  0.8907  0.9199
  954MOL0     H28761   2.845   4.400   9.599  1.9365  1.0236  0.5768
  954MOL0     H28762   3.104   4.240   9.641  1.5161 -1.2371  1.3729
  954MOL0     H28763   3.076   4.404   9.678  1.1534  0.0914  2.7784
  954MOL0     H28764   2.928   4.362   9.852  0.6796  2.6605 -2.7147
  954MOL0     H28765   3.082   4.271   9.860  0.7213 -0.4169 -1.5391
  954MOL0     H28766   2.813   4.149   9.785 -0.2909 -0.4345 -0.6576
  954MOL0     H28767   2.977   4.073   9.757  2.3201 -0.8754  3.1970
  954MOL0     H28768   3.044   4.067   9.979 -0.4775 -0.6819  1.0836
  954MOL0     H28769   2.888   3.992   9.963  2.8117 -2.7296 -3.9831
  954MOL0     H28770   2.779   4.217  10.049  0.0288  0.3235 -1.0690
  954MOL0     H28771   2.944   4.268  10.086 -0.3956  0.0414 -0.7339
  954MOL0     H28772   3.074   4.347   9.059  2.7509  0.1633  1.6091
  954MOL0     H28773   3.241   4.537   8.984  0.6917  0.1925 -0.2520
  954MOL0     H28774   3.190   5.139   8.905  0.2708  1.3785  1.7701
  954MOL0     H28775   3.360   5.278   8.803  0.2030 -0.2652 -1.3719
  954MOL0     H28776   5.338   5.550   8.022  1.4769 -3.0891 -1.5417
  954MOL0     H28777   5.584   5.543   8.013  1.0978 -2.5687  0.0651
  954MOL0     H28778   5.940   5.594   8.138  0.4931 -1.5006 -0.7578
  954MOL0     H28779   6.173   5.610   8.082 -0.5033 -0.0214 -1.1654
  954MOL0     H28780   6.498   5.288   8.151  0.9289  1.5618  1.0172
  954MOL0     H28781   6.384   5.252   8.022 -0.8141  0.8110 -0.0368
  954MOL0     H28782   6.608   5.462   8.035 -0.0234 -1.1313 -1.5105
  954MOL0     H28783   6.498   5.463   7.903 -1.5146  0.6564 -0.3908
  954MOL0     H28784   6.731   5.347   7.874  0.1128 -2.1555 -2.1470
  954MOL0     H28785   6.594   5.237   7.836  0.1462 -0.0158 -0.2704
  954MOL0     H28786   6.667   5.086   7.990 -0.3795 -0.2479 -0.5474
  954MOL0     H28787   6.684   5.217   8.107 -2.6555 -1.5302 -0.3080
  954MOL0     H28788   7.070   5.134   7.951  0.1730  2.9888 -0.5663
  954MOL0     H28789   6.246   5.202   8.204  0.2033 -0.1955 -1.3053
  954MOL0     H28790   6.021   5.191   8.298 -0.4519 -0.6596  1.2279
  955MOL0     O28791  10.385   5.642   9.040  0.1270 -0.1056 -0.0325
  955MOL0     C28792  10.429   5.724   9.119 -0.2244  0.0679  0.2049
  955MOL0     O28793  10.364   5.780   9.228 -0.8612  0.1689  0.2265
  955MOL0     C28794  10.236   5.738   9.271  0.3994 -0.3600  0.1429
  955MOL0     C28795  10.138   5.836   9.313  0.8859 -0.0609  0.0628
  955MOL0     C28796  10.003   5.798   9.336 -0.2661  0.5541  0.1274
  955MOL0     C28797   9.965   5.665   9.326 -0.5727  0.2243  0.6744
  955MOL0     O28798   9.838   5.618   9.352  0.1148 -0.4583 -0.1408
  955MOL0     C28799   9.726   5.701   9.396  0.3078  0.8432  0.2404
  955MOL0     C28800   9.608   5.612   9.409 -0.2922 -1.1282 -0.7205
  955MOL0     C28801   9.492   5.710   9.449 -0.5320  1.0374  0.1762
  955MOL0     C28802   9.483   5.726   9.604 -0.8627 -0.1550  0.2840
  955MOL0     C28803   9.414   5.846   9.666 -0.5891 -0.3174  0.3131
  955MOL0     C28804   9.263   5.820   9.692  0.5469 -0.0065 -0.2851
  955MOL0     C28805   9.218   5.901   9.822  0.9637  1.4143  0.3141
  955MOL0     C28806   9.069   5.883   9.871  0.8402  0.0093  0.4144
  955MOL0     N28807   8.976   5.933   9.763  0.8255 -0.0154 -0.8712
  955MOL0     C28808   8.937   5.863   9.655  0.0221  0.2356 -0.7461
  955MOL0     C28809   8.826   5.928   9.604 -0.2918  0.8079 -0.3870
  955MOL0     C28810   8.745   5.901   9.480  0.1390  0.7805  0.0783
  955MOL0     C28811   8.703   5.754   9.487  0.9667  0.1302  0.1301
  955MOL0     C28812   8.575   5.725   9.418 -0.7633 -0.7443  0.1211
  955MOL0     C28813   8.458   5.790   9.496 -0.5684  1.1160  0.3804
  955MOL0     O28814   8.353   5.686   9.494 -0.2854 -0.1230 -0.5579
  955MOL0     C28815   8.226   5.725   9.516  1.0110 -0.7455  0.3299
  955MOL0     C28816   8.124   5.633   9.496  0.6722 -0.0089  0.3088
  955MOL0     C28817   7.981   5.664   9.505  0.2393  0.3555 -0.1580
  955MOL0     C28818   7.893   5.542   9.495  0.3167 -0.2404  0.5315
  955MOL0     C28819   7.945   5.792   9.538  0.4298 -0.3571  0.2211
  955MOL0     C28820   7.809   5.833   9.559 -0.0973 -1.2081  0.5313
  955MOL0     O28821   7.717   5.746   9.504 -0.6130 -0.3836 -0.1121
  955MOL0     C28822   7.587   5.749   9.539  0.3166 -0.4559  0.4180
  955MOL0     C28823   7.542   5.788   9.666 -0.4462  0.3429 -0.5147
  955MOL0     C28824   7.412   5.782   9.701  0.1338 -0.9120  0.2804
  955MOL0     C28825   7.308   5.736   9.606  0.0738  0.7486 -0.0182
  955MOL0     O28826   7.178   5.716   9.643 -0.0711  0.7318  0.4764
  955MOL0     C28827   7.133   5.802   9.747  0.7571  0.1697  0.1924
  955MOL0     C28828   6.980   5.780   9.768 -0.3495 -0.1220  0.0794
  955MOL0     C28829   6.948   5.640   9.812  0.0438  0.0063  0.5643
  955MOL0     C28830   6.796   5.622   9.825 -0.8861  0.4422 -0.1159
  955MOL0     C28831   6.733   5.705   9.938 -0.5784  0.2348  0.1392
  955MOL0     C28832   6.623   5.633  10.013 -0.1386  0.4854  0.7685
  955MOL0     C28833   6.508   5.601   9.917 -0.1382 -0.7437 -1.3176
  955MOL0     C28834   6.402   5.510   9.977 -0.4984  0.1988 -0.7608
  955MOL0    Cl28835   6.330   5.599  10.111  0.2666 -0.0132 -0.1381
  955MOL0     C28836   7.354   5.690   9.479 -0.3784 -0.1199 -0.1955
  955MOL0     C28837   7.492   5.705   9.447 -0.7275 -0.3527  0.0555
  955MOL0     O28838   7.788   5.949   9.601  0.6584  0.7359  0.4110
  955MOL0     C28839   8.047   5.889   9.564 -0.3382 -0.0215  1.1528
  955MOL0     C28840   8.189   5.849   9.558  0.2894 -0.7977 -0.3257
  955MOL0     N28841   8.808   6.038   9.689  0.0771  0.3682  0.1426
  955MOL0     N28842   8.897   6.038   9.782 -0.3519 -0.6564 -0.0489
  955MOL0     C28843  10.062   5.565   9.293 -0.0547 -0.3716 -0.3733
  955MOL0     C28844  10.194   5.599   9.256 -0.0488  0.0937  0.0368
  955MOL0     C28845  10.566   5.768   9.102  0.8060 -0.4849  0.0942
  955MOL0     C28846  10.611   5.888   9.157 -0.6356  0.9648  0.3438
  955MOL0     C28847  10.745   5.937   9.135  0.7033 -0.1872 -0.9944
  955MOL0     C28848  10.837   5.863   9.059 -0.2256  0.2668 -0.7692
  955MOL0     O28849  10.967   5.905   9.057  0.4177 -0.1629  0.8299
  955MOL0     C28850  11.059   5.845   8.967  0.2609 -0.1445  0.5299
  955MOL0     C28851  11.191   5.910   8.994 -0.5108  0.1757  0.6475
  955MOL0     C28852  11.199   6.057   8.951 -0.1199 -0.5037 -0.0731
  955MOL0     C28853  11.307   6.147   9.016  0.4180 -0.3802 -0.0681
  955MOL0     C28854  11.440   6.087   9.014  1.1581  0.0966  0.6525
  955MOL0     C28855  11.539   6.022   8.995 -0.4179 -0.1077  0.4834
  955MOL0     C28856  10.794   5.740   9.009 -0.3365 -0.0722  0.6185
  955MOL0     C28857  10.662   5.697   9.031 -0.5672  0.7120 -0.3920
  955MOL0     H28858  10.167   5.940   9.312  1.3805 -0.0268  4.0062
  955MOL0     H28859   9.935   5.878   9.365 -1.4567  0.5634 -2.4075
  955MOL0     H28860   9.753   5.752   9.489  2.4561 -1.3633  0.9450
  955MOL0     H28861   9.705   5.766   9.311  2.3555 -1.4657 -2.2238
  955MOL0     H28862   9.583   5.579   9.308 -3.8443  1.4369 -0.8439
  955MOL0     H28863   9.633   5.535   9.482  1.3575  0.8820  0.9664
  955MOL0     H28864   9.495   5.813   9.413 -0.3160  2.7963  4.5559
  955MOL0     H28865   9.404   5.655   9.414 -0.3711  0.7502  0.2300
  955MOL0     H28866   9.443   5.633   9.646  2.7600 -1.3363  1.5372
  955MOL0     H28867   9.586   5.736   9.638 -1.4100  1.5701  1.5926
  955MOL0     H28868   9.454   5.880   9.762 -2.5835  2.6990  0.2081
  955MOL0     H28869   9.440   5.922   9.592 -1.4202 -0.4814 -0.1630
  955MOL0     H28870   9.210   5.853   9.602  2.2200 -0.2515 -1.4098
  955MOL0     H28871   9.251   5.713   9.710  2.4393 -0.5651 -1.8833
  955MOL0     H28872   9.271   5.873   9.914 -1.3217  2.0210  1.9006
  955MOL0     H28873   9.232   6.005   9.790 -1.3684  1.4659 -0.7141
  955MOL0     H28874   9.057   5.938   9.965  1.3776 -0.8009  0.9675
  955MOL0     H28875   9.046   5.780   9.897  0.8135 -0.4043 -1.1537
  955MOL0     H28876   8.995   5.784   9.610  1.6951  1.0236 -0.0646
  955MOL0     H28877   8.657   5.966   9.484  0.4214  1.1387  2.7958
  955MOL0     H28878   8.795   5.928   9.387  1.4408 -0.0158  0.5266
  955MOL0     H28879   8.687   5.719   9.589 -1.1457 -3.3022 -1.1596
  955MOL0     H28880   8.786   5.703   9.437  1.2395 -0.9775  1.6427
  955MOL0     H28881   8.563   5.620   9.390  1.1720 -0.3909 -2.4740
  955MOL0     H28882   8.573   5.776   9.321  1.0599 -0.2729  0.2992
  955MOL0     H28883   8.432   5.886   9.451  0.2420  1.8607  1.4514
  955MOL0     H28884   8.488   5.814   9.599 -0.2402  2.2096  0.0421
  955MOL0     H28885   8.165   5.535   9.471  1.5535  0.0410  1.4386
  955MOL0     H28886   7.959   5.459   9.466 -1.5913 -1.4448 -0.5727
  955MOL0     H28887   7.840   5.525   9.589  0.1480  2.9023  1.1015
  955MOL0     H28888   7.821   5.567   9.417  2.2713  2.1199 -0.6563
  955MOL0     H28889   7.625   5.817   9.729  1.0938  0.0627 -2.3144
  955MOL0     H28890   7.382   5.809   9.802 -3.4024 -1.0872 -0.5719
  955MOL0     H28891   7.184   5.770   9.839  1.3466 -3.3551 -1.2203
  955MOL0     H28892   7.148   5.908   9.725  3.0540 -0.2952 -0.8384
  955MOL0     H28893   6.955   5.847   9.851 -1.2892 -1.3186  0.7861
  955MOL0     H28894   6.933   5.807   9.673  0.6081 -1.3761 -0.7867
  955MOL0     H28895   7.005   5.620   9.903 -0.9422 -1.2449  0.9228
  955MOL0     H28896   6.975   5.567   9.735  1.9788 -0.9032  2.0055
  955MOL0     H28897   6.746   5.649   9.732 -0.9575  2.1870  0.3971
  955MOL0     H28898   6.779   5.516   9.848  0.0413  0.6288  1.6190
  955MOL0     H28899   6.700   5.804   9.907 -0.2882  0.1689 -0.3866
  955MOL0     H28900   6.808   5.724  10.016  0.0742 -1.4131 -0.0410
  955MOL0     H28901   6.664   5.536  10.043 -2.3788 -0.0458  2.3318
  955MOL0     H28902   6.590   5.691  10.100 -1.3535  0.6543  0.2115
  955MOL0     H28903   6.547   5.555   9.826  0.4086  0.9293 -1.9723
  955MOL0     H28904   6.465   5.696   9.885  1.1617  0.0799 -0.7219
  955MOL0     H28905   6.449   5.422  10.020  0.4187  2.1812  2.6391
  955MOL0     H28906   6.333   5.482   9.897 -0.0024  0.1912 -1.1918
  955MOL0     H28907   7.288   5.657   9.400 -0.6781  1.6827 -0.7199
  955MOL0     H28908   7.531   5.679   9.349  1.7278  0.8748  0.6052
  955MOL0     H28909   8.029   5.995   9.579  2.1434  0.5344  0.6244
  955MOL0     H28910   8.259   5.924   9.593  0.3244 -0.6259 -0.7525
  955MOL0     H28911  10.036   5.460   9.289 -3.1315  0.3334 -1.2970
  955MOL0     H28912  10.259   5.522   9.215 -0.0137 -0.4792  1.1510
  955MOL0     H28913  10.548   5.947   9.222  0.3898  2.2553  0.2051
  955MOL0     H28914  10.778   6.021   9.194 -1.5324  0.9559 -1.2433
  955MOL0     H28915  11.061   5.736   8.970 -0.6783 -0.1733  0.3728
  955MOL0     H28916  11.030   5.876   8.867  1.7533  0.9925  0.4005
  955MOL0     H28917  11.269   5.863   8.933  1.0194 -0.4095  2.9049
  955MOL0     H28918  11.223   5.896   9.098 -0.1549  1.9027  0.8068
  955MOL0     H28919  11.099   6.097   8.969 -0.4172 -1.6526  0.8814
  955MOL0     H28920  11.217   6.047   8.844 -1.9259 -0.8829 -0.3747
  955MOL0     H28921  11.282   6.152   9.122 -0.1351 -0.0230 -0.2118
  955MOL0     H28922  11.315   6.246   8.970  1.8256 -1.8058 -3.1614
  955MOL0     H28923  11.621   5.955   8.986 -0.2391  0.2867 -1.2435
  955MOL0     H28924  10.852   5.679   8.940  4.1753  2.2794  1.9496
  955MOL0     H28925  10.630   5.604   8.986  2.5011 -0.7486  0.1943
  956MOL0     O28926   3.228  10.850   8.501  0.5162 -0.2967 -0.3574
  956MOL0     C28927   3.244  10.954   8.436  0.1280  1.3377 -0.3241
  956MOL0     O28928   3.165  11.052   8.434  0.2844 -0.4719  0.3141
  956MOL0     C28929   3.037  11.039   8.488 -0.6571 -0.3805 -0.7815
  956MOL0     C28930   2.942  10.938   8.460  0.0065 -1.3280  0.3825
  956MOL0     C28931   2.823  10.932   8.529 -0.2446 -0.0273 -0.0938
  956MOL0     C28932   2.796  11.010   8.647 -0.1024 -1.0122 -0.0603
  956MOL0     O28933   2.686  11.002   8.725  0.5318 -0.1793  0.1850
  956MOL0     C28934   2.573  10.934   8.674  1.2655  0.3964 -0.7029
  956MOL0     C28935   2.449  10.975   8.771 -0.6088  0.3958  0.5536
  956MOL0     C28936   2.323  10.885   8.755  0.8766 -0.1959 -1.1646
  956MOL0     C28937   2.201  10.933   8.823  0.0729  0.0453  0.3256
  956MOL0     C28938   2.081  10.834   8.816  0.5983  0.0305 -0.2588
  956MOL0     C28939   1.953  10.912   8.830  0.6658 -0.2464  0.3504
  956MOL0     C28940   1.939  10.964   8.969 -0.8626  0.5115 -1.3125
  956MOL0     C28941   1.805  11.041   8.971  0.0567 -0.2061 -0.6780
  956MOL0     N28942   1.798  11.166   8.895 -0.2301  0.0384  0.2624
  956MOL0     C28943   1.903  11.254   8.865  0.0069 -0.8607  0.2436
  956MOL0     C28944   1.838  11.367   8.823  0.6554  0.5470 -0.2977
  956MOL0     C28945   1.897  11.503   8.797  0.1298  0.5299  0.3678
  956MOL0     C28946   1.844  11.568   8.666  0.0890  0.1958  0.5275
  956MOL0     C28947   1.913  11.708   8.639 -0.0848  0.2864 -0.2742
  956MOL0     C28948   1.867  11.819   8.731  0.6521 -0.9292  0.2769
  956MOL0     O28949   1.897  11.950   8.675  0.7850  0.3396 -0.6233
  956MOL0     C28950   2.028  11.997   8.669  0.5566 -0.3558 -0.4524
  956MOL0     C28951   2.138  11.934   8.720 -0.8077  0.3209 -0.6634
  956MOL0     C28952   2.265  11.993   8.698 -0.0122 -0.3483  0.2412
  956MOL0     C28953   2.376  11.930   8.774  0.2283  0.5015 -0.0859
  956MOL0     C28954   2.284  12.107   8.616 -0.1369  0.1619 -0.4411
  956MOL0     C28955   2.414  12.171   8.592 -0.8752 -0.5425 -0.2589
  956MOL0     O28956   2.399  12.301   8.559  0.4115  0.1526  0.6530
  956MOL0     C28957   2.499  12.379   8.498 -0.2604 -0.5351  0.2313
  956MOL0     C28958   2.619  12.344   8.445  0.1460  0.2793  0.1658
  956MOL0     C28959   2.701  12.434   8.381 -0.7208 -0.9898  0.1307
  956MOL0     C28960   2.664  12.573   8.371 -0.6621  0.1362  0.1402
  956MOL0     O28961   2.736  12.674   8.322  0.1792 -0.3884 -0.7227
  956MOL0     C28962   2.717  12.692   8.186  0.1281 -1.2797  0.9233
  956MOL0     C28963   2.839  12.759   8.103  0.5830  0.6759 -0.1570
  956MOL0     C28964   2.914  12.875   8.176 -0.2137 -0.4527 -1.4382
  956MOL0     C28965   2.828  13.001   8.221 -0.5752 -0.4536  0.0410
  956MOL0     C28966   2.912  13.120   8.285  0.4389 -0.3228  1.1231
  956MOL0     C28967   2.820  13.230   8.334 -0.5508  0.5767 -0.0810
  956MOL0     C28968   2.900  13.357   8.374  0.4582 -0.0679  0.6291
  956MOL0     C28969   2.810  13.464   8.442  0.1586  0.3480  0.6147
  956MOL0    Cl28970   2.892  13.610   8.496 -0.1804  0.0073  0.4398
  956MOL0     C28971   2.545  12.607   8.431 -0.2043  0.4066 -0.1520
  956MOL0     C28972   2.461  12.509   8.491  0.5511 -0.1071 -0.4446
  956MOL0     O28973   2.518  12.108   8.591  0.3403  0.0363 -0.6330
  956MOL0     C28974   2.170  12.166   8.563 -0.1264  0.4222 -0.2610
  956MOL0     C28975   2.043  12.111   8.592 -0.1748 -0.1518 -0.5354
  956MOL0     N28976   1.701  11.348   8.836 -0.5605  0.4138  0.0588
  956MOL0     N28977   1.677  11.232   8.876  0.7027  0.1523 -0.6068
  956MOL0     C28978   2.892  11.110   8.675  0.6706  0.7821  0.0962
  956MOL0     C28979   3.005  11.124   8.594  0.2355 -0.4469  0.4790
  956MOL0     C28980   3.371  10.974   8.360  0.0452  0.6062 -0.1898
  956MOL0     C28981   3.397  11.103   8.311  0.7045  0.1293 -0.6639
  956MOL0     C28982   3.520  11.130   8.244  0.1314  0.4989 -0.7298
  956MOL0     C28983   3.612  11.030   8.217 -0.0073  0.5464  1.2253
  956MOL0     O28984   3.729  11.049   8.152 -0.2611 -0.5499  0.1916
  956MOL0     C28985   3.764  11.180   8.102 -0.1735 -0.5988 -0.6864
  956MOL0     C28986   3.708  11.196   7.959 -0.6645 -0.4100 -0.9243
  956MOL0     C28987   3.768  11.109   7.856  0.5855  0.9815 -0.0808
  956MOL0     C28988   3.881  11.187   7.780  0.9652 -0.5176  0.0819
  956MOL0     C28989   3.912  11.123   7.649  0.1075 -0.7454 -0.0019
  956MOL0     C28990   3.933  11.056   7.552  0.1854  0.2513 -0.4598
  956MOL0     C28991   3.578  10.900   8.254  0.0933  0.3599  0.0020
  956MOL0     C28992   3.464  10.871   8.330  0.5301 -0.2455  0.1337
  956MOL0     H28993   2.953  10.863   8.382  1.7844  1.5350 -2.3351
  956MOL0     H28994   2.759  10.852   8.494 -0.2804 -0.5242  1.0737
  956MOL0     H28995   2.543  10.960   8.572 -0.1745 -2.9100 -1.2477
  956MOL0     H28996   2.585  10.826   8.681  0.4368  0.1394 -2.5766
  956MOL0     H28997   2.478  10.977   8.877  1.9118  1.1681 -0.0915
  956MOL0     H28998   2.422  11.080   8.752 -0.6941  0.4742  1.0831
  956MOL0     H28999   2.298  10.869   8.650  0.1470  0.1795 -1.0518
  956MOL0     H29000   2.363  10.794   8.801 -0.8194 -0.5420 -0.3238
  956MOL0     H29001   2.231  10.971   8.921  0.0049  2.1423 -0.4075
  956MOL0     H29002   2.175  11.025   8.769 -0.3249 -0.3993 -0.2528
  956MOL0     H29003   2.083  10.785   8.718 -1.9124  0.7637 -0.7415
  956MOL0     H29004   2.100  10.751   8.885  0.4202 -0.2552 -0.5461
  956MOL0     H29005   1.953  10.983   8.747  2.0359  0.3363  0.8121
  956MOL0     H29006   1.870  10.840   8.828  1.4025 -1.1093 -0.2109
  956MOL0     H29007   1.940  10.888   9.049  1.7376  1.6880 -0.1095
  956MOL0     H29008   2.021  11.033   8.987  1.3344 -2.0740 -0.8378
  956MOL0     H29009   1.781  11.071   9.074 -0.8390 -1.3058 -0.5448
  956MOL0     H29010   1.726  10.970   8.945  0.3110 -2.4423  3.6688
  956MOL0     H29011   2.008  11.231   8.878  0.7270  0.6995 -2.0440
  956MOL0     H29012   1.875  11.571   8.879 -1.2162  0.2247  0.2894
  956MOL0     H29013   2.004  11.496   8.775 -0.1863 -0.0873 -1.0790
  956MOL0     H29014   1.737  11.580   8.683  0.0393 -1.0920  1.2862
  956MOL0     H29015   1.858  11.499   8.582  2.1727 -1.5515  2.1769
  956MOL0     H29016   1.896  11.737   8.535 -5.2049 -0.8216  0.0206
  956MOL0     H29017   2.020  11.705   8.661 -0.4450 -0.1889  1.5972
  956MOL0     H29018   1.903  11.810   8.833  1.4844 -0.0422  0.0806
  956MOL0     H29019   1.760  11.808   8.750  1.3392 -3.2375  3.8335
  956MOL0     H29020   2.148  11.843   8.777  1.5983  0.3349 -0.9698
  956MOL0     H29021   2.436  12.000   8.832 -0.2261  2.2473 -1.6073
  956MOL0     H29022   2.339  11.867   8.855 -3.1182  1.2061 -0.8887
  956MOL0     H29023   2.439  11.863   8.715  2.5631 -1.8474  4.6082
  956MOL0     H29024   2.647  12.240   8.443  0.8175  0.4675 -0.9518
  956MOL0     H29025   2.799  12.408   8.342 -1.1568 -1.8398 -0.4123
  956MOL0     H29026   2.683  12.604   8.130 -0.8856 -1.4855  1.8216
  956MOL0     H29027   2.639  12.770   8.183 -0.1419 -1.5124  1.6476
  956MOL0     H29028   2.913  12.685   8.072 -0.9586 -0.0024 -2.4985
  956MOL0     H29029   2.808  12.803   8.008 -1.9884 -0.2605  0.1761
  956MOL0     H29030   2.995  12.904   8.108  1.5731 -2.0451 -0.0595
  956MOL0     H29031   2.953  12.823   8.264 -0.3777  0.5824 -0.7309
  956MOL0     H29032   2.799  13.054   8.130 -1.0377  0.5515  0.7556
  956MOL0     H29033   2.745  12.963   8.282 -1.0625 -1.0476 -0.9698
  956MOL0     H29034   2.983  13.167   8.217  0.7088 -1.5709  0.5255
  956MOL0     H29035   2.967  13.082   8.372 -1.1092  1.4595  2.9712
  956MOL0     H29036   2.750  13.256   8.254  0.1226  1.8964 -0.2688
  956MOL0     H29037   2.774  13.191   8.425  1.6518 -2.0106  0.0411
  956MOL0     H29038   2.948  13.402   8.286 -1.3815  1.2727  0.2586
  956MOL0     H29039   2.987  13.331   8.435  1.2157 -1.9511 -1.1172
  956MOL0     H29040   2.772  13.410   8.529  2.5611 -1.8623  0.4249
  956MOL0     H29041   2.722  13.488   8.382  0.5082 -2.7629 -1.3946
  956MOL0     H29042   2.497  12.703   8.411  1.0688  0.4754 -3.5812
  956MOL0     H29043   2.359  12.532   8.520  0.8238  1.4536 -0.6390
  956MOL0     H29044   2.180  12.249   8.494 -1.6731  0.5113 -0.4157
  956MOL0     H29045   1.963  12.155   8.533  0.3070  2.1167  0.4125
  956MOL0     H29046   2.871  11.169   8.763  1.7744  1.2984  0.0303
  956MOL0     H29047   3.084  11.197   8.610  4.7038 -4.3875 -1.1177
  956MOL0     H29048   3.335  11.190   8.330  1.5884  1.3213 -2.9195
  956MOL0     H29049   3.527  11.236   8.220 -3.9317  1.4736  1.5108
  956MOL0     H29050   3.717  11.265   8.153 -1.4176  0.1293 -2.8774
  956MOL0     H29051   3.873  11.187   8.101 -0.1459 -1.0299 -0.5835
  956MOL0     H29052   3.725  11.301   7.936 -1.4680 -0.2952 -1.0377
  956MOL0     H29053   3.600  11.179   7.972 -0.6785  0.0778 -0.3410
  956MOL0     H29054   3.679  11.092   7.795 -1.6168 -0.4066  3.2157
  956MOL0     H29055   3.807  11.013   7.890 -2.9339 -0.6525 -0.2792
  956MOL0     H29056   3.969  11.184   7.844  0.7196 -0.1797  0.4475
  956MOL0     H29057   3.860  11.293   7.761  4.6686 -0.0831 -2.4705
  956MOL0     H29058   3.953  11.005   7.459  1.8843  1.7810 -0.9940
  956MOL0     H29059   3.644  10.820   8.223  0.4149  0.6169  0.0210
  956MOL0     H29060   3.443  10.769   8.362  2.0655 -0.2490  1.2503
  957MOL0     O29061  11.310   0.214   2.803 -0.0426 -0.3554  0.0780
  957MOL0     C29062  11.268   0.282   2.892 -1.2656  0.2000  0.4931
  957MOL0     O29063  11.153   0.256   2.962  0.4404  0.0808  0.6765
  957MOL0     C29064  11.066   0.153   2.925 -0.1887  0.2371 -0.1007
  957MOL0     C29065  10.935   0.183   2.932  1.0995  0.0314 -0.6332
  957MOL0     C29066  10.835   0.085   2.926  0.3220  0.0718  0.9255
  957MOL0     C29067  10.874  -0.049   2.894  0.4365 -0.2810  0.6825
  957MOL0     O29068  10.771  -0.133   2.871 -0.0334 -0.5640  0.2876
  957MOL0     C29069  10.783  -0.241   2.774  0.5059 -0.4779  0.5975
  957MOL0     C29070  10.674  -0.224   2.661  0.3287 -0.8948 -0.0782
  957MOL0     C29071  10.534  -0.209   2.726 -0.5915  0.0187  0.4472
  957MOL0     C29072  10.433  -0.189   2.615  0.9293 -0.2350  0.5177
  957MOL0     C29073  10.297  -0.147   2.669 -0.2082  0.8055 -0.0437
  957MOL0     C29074  10.222  -0.268   2.737  1.0927 -0.4670  0.3553
  957MOL0     C29075  10.066  -0.251   2.742  0.2427  0.3970  0.9524
  957MOL0     C29076  10.007  -0.288   2.606  0.1935  0.3921  0.0043
  957MOL0     N29077   9.857  -0.278   2.616 -0.8262  0.5707  0.0495
  957MOL0     C29078   9.774  -0.349   2.702  0.2255 -0.2853 -0.5238
  957MOL0     C29079   9.649  -0.310   2.684 -0.2478  0.1059 -0.2337
  957MOL0     C29080   9.526  -0.349   2.765  0.2871 -0.0360 -0.9078
  957MOL0     C29081   9.398  -0.365   2.676  0.2765 -0.4808  0.2302
  957MOL0     C29082   9.338  -0.214   2.658 -0.1338  0.7854 -0.4296
  957MOL0     C29083   9.212  -0.224   2.574  0.0965  0.3762 -0.6503
  957MOL0     O29084   9.114  -0.299   2.658 -0.2643  0.1175  0.0037
  957MOL0     C29085   8.991  -0.322   2.613  0.8009  0.7823 -0.3961
  957MOL0     C29086   8.904  -0.412   2.686 -0.6809  0.2502  0.3653
  957MOL0     C29087   8.766  -0.435   2.660 -0.1501 -0.0214 -0.5348
  957MOL0     C29088   8.691  -0.509   2.766 -1.0722 -0.9335 -0.0677
  957MOL0     C29089   8.707  -0.367   2.550  0.3307  0.1929  0.6481
  957MOL0     C29090   8.559  -0.371   2.521  0.3049  0.3034  0.3581
  957MOL0     O29091   8.480  -0.456   2.596  0.2334  0.1669 -0.2766
  957MOL0     C29092   8.341  -0.455   2.565 -0.5809  0.9810 -0.1325
  957MOL0     C29093   8.251  -0.364   2.619  0.2466 -1.1278  0.5921
  957MOL0     C29094   8.111  -0.372   2.596 -0.7234 -0.1803  0.0301
  957MOL0     C29095   8.058  -0.481   2.529  0.8086 -0.2485 -1.2003
  957MOL0     O29096   7.920  -0.488   2.521 -0.0122 -0.3294  0.1106
  957MOL0     C29097   7.872  -0.620   2.493 -0.0455  0.3821  0.4659
  957MOL0     C29098   7.721  -0.642   2.492  0.2888  0.5747  0.5137
  957MOL0     C29099   7.642  -0.530   2.422 -0.2299  0.2953  0.3475
  957MOL0     C29100   7.491  -0.562   2.430  0.0084  0.1109  0.0865
  957MOL0     C29101   7.393  -0.486   2.348 -0.2340 -0.2145 -0.1004
  957MOL0     C29102   7.254  -0.549   2.363  0.1386 -0.1876 -0.7712
  957MOL0     C29103   7.149  -0.463   2.304  0.2339 -0.6250 -0.3695
  957MOL0     C29104   7.011  -0.485   2.364 -0.6649  0.3111 -0.4317
  957MOL0    Cl29105   6.973  -0.656   2.298 -0.0226 -0.4416  0.6518
  957MOL0     C29106   8.146  -0.583   2.493  0.4183 -0.0167 -0.4204
  957MOL0     C29107   8.289  -0.568   2.497 -0.0852 -0.3462 -0.2846
  957MOL0     O29108   8.521  -0.289   2.444 -0.5042 -0.2423  0.2174
  957MOL0     C29109   8.793  -0.287   2.467  0.4632 -0.2359  0.5058
  957MOL0     C29110   8.926  -0.258   2.500 -0.6715 -0.4093  0.8759
  957MOL0     N29111   9.649  -0.215   2.586  0.2765 -0.4652  0.1580
  957MOL0     N29112   9.769  -0.195   2.552  0.3750 -0.7502  0.1537
  957MOL0     C29113  11.006  -0.081   2.881  0.2632 -0.7182 -0.3944
  957MOL0     C29114  11.108   0.021   2.891 -0.0825 -0.1295 -0.4622
  957MOL0     C29115  11.348   0.399   2.930  0.0109 -0.0812 -0.3783
  957MOL0     C29116  11.487   0.412   2.887  0.1137  0.0447 -1.4128
  957MOL0     C29117  11.566   0.517   2.929  0.2810 -0.1076  0.6470
  957MOL0     C29118  11.509   0.612   3.012 -0.4561  0.2259  0.4735
  957MOL0     O29119  11.576   0.730   3.047 -0.1844  0.4230  0.7223
  957MOL0     C29120  11.711   0.751   3.013  1.1245 -0.2142 -0.6499
  957MOL0     C29121  11.775   0.819   3.133 -0.3912  0.0277 -0.2736
  957MOL0     C29122  11.908   0.887   3.105  0.2308 -0.2338  1.1655
  957MOL0     C29123  12.005   0.802   3.022 -0.6488  0.4740  1.6942
  957MOL0     C29124  12.147   0.816   3.057 -0.3228 -0.1811  0.7888
  957MOL0     C29125  12.266   0.832   3.054 -0.3843  0.6525  0.1566
  957MOL0     C29126  11.378   0.606   3.052  0.4172 -0.2190  0.1139
  957MOL0     C29127  11.297   0.502   3.012  0.5302 -0.1804  0.2493
  957MOL0     H29128  10.894   0.283   2.937  2.1025  0.4465 -0.3999
  957MOL0     H29129  10.730   0.112   2.926  0.5460  2.0823 -4.1045
  957MOL0     H29130  10.879  -0.236   2.722  0.2446 -1.1435  0.0429
  957MOL0     H29131  10.767  -0.342   2.811 -1.3729 -0.3081  0.3719
  957MOL0     H29132  10.689  -0.132   2.604 -0.7275 -2.6479 -3.4677
  957MOL0     H29133  10.686  -0.308   2.592  2.2989 -0.9508  0.2677
  957MOL0     H29134  10.509  -0.298   2.785  1.2696  0.3294  1.7992
  957MOL0     H29135  10.520  -0.133   2.804 -2.1953 -1.8846  2.1494
  957MOL0     H29136  10.458  -0.104   2.550 -0.8177 -0.2722 -0.2394
  957MOL0     H29137  10.416  -0.279   2.555 -0.0218 -0.1644  0.6751
  957MOL0     H29138  10.305  -0.059   2.735  0.9007 -0.0836  1.0657
  957MOL0     H29139  10.240  -0.114   2.582 -0.1381  4.6006  1.1659
  957MOL0     H29140  10.239  -0.348   2.664  0.7850 -0.4608  0.2753
  957MOL0     H29141  10.264  -0.290   2.835 -0.4972  0.7238  1.3465
  957MOL0     H29142  10.019  -0.313   2.819 -1.5653 -0.6663 -0.9184
  957MOL0     H29143  10.036  -0.148   2.759 -2.2996  0.2350 -1.6735
  957MOL0     H29144  10.044  -0.389   2.584  1.6325  1.1978 -1.4361
  957MOL0     H29145  10.049  -0.229   2.524  0.2318 -0.8606 -0.9236
  957MOL0     H29146   9.816  -0.411   2.781  3.4785 -0.0902 -1.9120
  957MOL0     H29147   9.536  -0.451   2.804 -1.2516 -0.0943 -0.5664
  957MOL0     H29148   9.513  -0.276   2.846  0.8639  1.3952 -2.0829
  957MOL0     H29149   9.331  -0.441   2.717  2.7899 -2.2874  1.2445
  957MOL0     H29150   9.430  -0.402   2.579 -0.5861  1.5632 -0.8956
  957MOL0     H29151   9.414  -0.151   2.609 -0.0297 -0.1989 -1.5890
  957MOL0     H29152   9.320  -0.166   2.754  2.7614  0.9704  0.1235
  957MOL0     H29153   9.237  -0.269   2.478 -2.4998 -3.8372  0.4012
  957MOL0     H29154   9.174  -0.122   2.561  0.5183  1.3287  3.9085
  957MOL0     H29155   8.955  -0.461   2.768  1.5816  2.2067  0.2172
  957MOL0     H29156   8.645  -0.599   2.726  0.6533 -1.1372 -1.7291
  957MOL0     H29157   8.751  -0.532   2.854 -1.4719 -0.1690  0.4198
  957MOL0     H29158   8.617  -0.433   2.794  0.4062  1.3211 -1.8287
  957MOL0     H29159   8.304  -0.289   2.677  0.1248  0.5587 -1.3884
  957MOL0     H29160   8.038  -0.296   2.620  1.9328  2.9520 -0.9647
  957MOL0     H29161   7.910  -0.643   2.393  0.2578  1.1570  0.4006
  957MOL0     H29162   7.910  -0.690   2.568 -0.2259  2.0300  2.1834
  957MOL0     H29163   7.695  -0.743   2.458 -2.0848  1.0473  0.7513
  957MOL0     H29164   7.684  -0.644   2.595  0.6504  2.3783  0.7040
  957MOL0     H29165   7.670  -0.531   2.317  1.7720  1.6501  0.8174
  957MOL0     H29166   7.667  -0.429   2.455 -0.4931  1.1565 -1.8989
  957MOL0     H29167   7.478  -0.665   2.396 -0.8420  0.7397 -1.5946
  957MOL0     H29168   7.466  -0.547   2.536 -0.3763  2.1632 -0.2542
  957MOL0     H29169   7.411  -0.497   2.240 -2.1319 -0.1468 -0.4641
  957MOL0     H29170   7.399  -0.379   2.370  0.5503  0.2784 -2.3945
  957MOL0     H29171   7.242  -0.642   2.307 -2.4772  0.0038 -0.6614
  957MOL0     H29172   7.247  -0.574   2.470  1.0842  0.0687 -0.6365
  957MOL0     H29173   7.152  -0.462   2.194  0.9937 -1.5686 -0.3740
  957MOL0     H29174   7.170  -0.361   2.338  0.5194 -0.5483 -0.7586
  957MOL0     H29175   6.945  -0.411   2.319  1.1766  1.8183 -0.7858
  957MOL0     H29176   7.016  -0.485   2.474 -2.2693 -0.8000 -0.3242
  957MOL0     H29177   8.109  -0.671   2.442 -0.0386  0.2451 -0.5534
  957MOL0     H29178   8.350  -0.651   2.463 -0.6184 -0.7627 -0.2382
  957MOL0     H29179   8.746  -0.250   2.376 -3.9033 -0.2797  2.5307
  957MOL0     H29180   8.979  -0.194   2.431 -2.5091 -0.2896 -0.5066
  957MOL0     H29181  11.036  -0.185   2.873  0.3186 -0.5825 -3.5141
  957MOL0     H29182  11.213  -0.006   2.898 -0.4854 -1.2919  2.5649
  957MOL0     H29183  11.532   0.328   2.835 -1.8396 -1.6268 -0.5479
  957MOL0     H29184  11.665   0.525   2.885 -0.3805  1.0234 -0.7271
  957MOL0     H29185  11.765   0.656   3.006  0.6497 -0.3994 -2.0418
  957MOL0     H29186  11.712   0.813   2.923  2.3583  1.6782  0.6135
  957MOL0     H29187  11.795   0.749   3.214  1.6718 -0.0665 -0.8309
  957MOL0     H29188  11.701   0.884   3.182  0.4518  0.6339  0.2376
  957MOL0     H29189  11.956   0.914   3.199  1.7060 -0.8013  0.5990
  957MOL0     H29190  11.887   0.985   3.061  0.0121 -1.5481 -1.9095
  957MOL0     H29191  11.988   0.828   2.917 -2.1042  1.1909  2.0783
  957MOL0     H29192  11.972   0.699   3.036 -1.1737  0.8395  3.3200
  957MOL0     H29193  12.370   0.859   3.059 -0.0972 -0.3236 -0.3257
  957MOL0     H29194  11.329   0.683   3.112 -2.2826 -2.1589  0.5959
  957MOL0     H29195  11.194   0.489   3.045  0.7456 -3.1010  0.0408
  958MOL0     O29196   3.429   9.512   0.354 -0.1014  0.1820 -1.0425
  958MOL0     C29197   3.396   9.402   0.392  1.0622  0.0333 -0.1415
  958MOL0     O29198   3.480   9.293   0.413 -0.1371  0.1549 -0.4178
  958MOL0     C29199   3.615   9.312   0.407  1.1110  0.5917  0.3031
  958MOL0     C29200   3.677   9.390   0.500 -0.1543 -0.0817  0.3927
  958MOL0     C29201   3.816   9.414   0.496  0.7274  0.3727 -0.0369
  958MOL0     C29202   3.897   9.356   0.408 -0.6486  0.0755 -0.4718
  958MOL0     O29203   4.034   9.378   0.389 -0.0853  0.6963 -0.1055
  958MOL0     C29204   4.108   9.433   0.499 -0.0192  0.4254  0.7757
  958MOL0     C29205   4.254   9.377   0.478 -0.0622  0.7583  0.4086
  958MOL0     C29206   4.315   9.422   0.339 -0.4373 -0.4230 -0.1978
  958MOL0     C29207   4.473   9.432   0.351  0.3650 -0.0320  0.2313
  958MOL0     C29208   4.537   9.531   0.252  0.1136 -0.2955  0.3481
  958MOL0     C29209   4.693   9.538   0.226 -0.0851  1.0066 -0.3394
  958MOL0     C29210   4.775   9.617   0.330  0.3511 -0.4234 -0.6673
  958MOL0     C29211   4.745   9.767   0.330  0.3206  0.2639 -0.6471
  958MOL0     N29212   4.799   9.830   0.206  0.4946  0.1006 -0.2857
  958MOL0     C29213   4.746   9.841   0.079  0.0931 -0.5289  0.0633
  958MOL0     C29214   4.837   9.907   0.001 -0.7661  0.5031  0.7213
  958MOL0     C29215   4.821   9.938  -0.145  0.1337 -0.1628 -0.6339
  958MOL0     C29216   4.744   9.842  -0.232 -0.0484 -0.8894 -0.5373
  958MOL0     C29217   4.789   9.697  -0.217  0.6896 -1.2357  0.3815
  958MOL0     C29218   4.702   9.609  -0.298  0.2184  0.8040  0.4405
  958MOL0     O29219   4.575   9.599  -0.228  0.4892 -0.5414 -0.3438
  958MOL0     C29220   4.462   9.568  -0.306 -1.0024  0.3314  1.1583
  958MOL0     C29221   4.338   9.582  -0.250 -0.1133 -1.0681 -0.8948
  958MOL0     C29222   4.226   9.557  -0.320  0.3165  0.1064  1.0717
  958MOL0     C29223   4.095   9.588  -0.241  0.9064  0.5208  0.3499
  958MOL0     C29224   4.230   9.511  -0.460  0.5563  0.6839  0.6140
  958MOL0     C29225   4.110   9.481  -0.548 -0.7718 -0.0363 -0.5348
  958MOL0     O29226   3.993   9.525  -0.502  0.5012  0.1684 -0.1092
  958MOL0     C29227   3.883   9.479  -0.567 -0.0126 -0.0644 -0.2155
  958MOL0     C29228   3.840   9.347  -0.579 -0.8924  0.7226 -0.0509
  958MOL0     C29229   3.721   9.315  -0.647  0.7590 -0.0732  0.6302
  958MOL0     C29230   3.651   9.416  -0.711 -0.8558  0.9287  0.2171
  958MOL0     O29231   3.528   9.380  -0.758  1.5532  0.1475 -0.0341
  958MOL0     C29232   3.513   9.303  -0.876  0.1534 -1.0520  0.1118
  958MOL0     C29233   3.369   9.287  -0.928 -0.2619  0.8210  1.1816
  958MOL0     C29234   3.282   9.198  -0.838  0.8056  0.5096 -0.0497
  958MOL0     C29235   3.163   9.142  -0.908  0.2061  0.3938 -0.2055
  958MOL0     C29236   3.059   9.251  -0.941  0.6114 -0.2952 -0.7364
  958MOL0     C29237   2.914   9.202  -0.981  0.4298 -0.0361  0.2309
  958MOL0     C29238   2.919   9.094  -1.095  0.5141 -0.2385 -1.4552
  958MOL0     C29239   2.793   9.070  -1.165  0.4110  1.2903  1.1237
  958MOL0    Cl29240   2.683   8.977  -1.058  0.1100  0.1344 -0.4808
  958MOL0     C29241   3.700   9.547  -0.724 -0.0704  0.5440 -0.3009
  958MOL0     C29242   3.822   9.570  -0.653  0.3964 -0.3384  0.2700
  958MOL0     O29243   4.131   9.404  -0.641 -0.1117  0.4829  0.1987
  958MOL0     C29244   4.356   9.490  -0.509 -0.5232 -0.0655  0.3350
  958MOL0     C29245   4.472   9.526  -0.438  1.0733  0.0953  1.1771
  958MOL0     N29246   4.943   9.941   0.085  0.2583 -0.5140 -0.4152
  958MOL0     N29247   4.920   9.891   0.198  0.4511 -0.0042 -0.1310
  958MOL0     C29248   3.837   9.283   0.307 -0.3581  0.3915  0.2375
  958MOL0     C29249   3.694   9.259   0.310 -0.7568  0.9124 -0.0736
  958MOL0     C29250   3.252   9.374   0.405 -0.6754  0.7369 -0.4005
  958MOL0     C29251   3.169   9.437   0.313  0.3474 -0.3525  0.4303
  958MOL0     C29252   3.028   9.409   0.315 -0.1452 -1.1426 -0.9173
  958MOL0     C29253   2.974   9.327   0.414  0.1896 -0.3851  0.3228
  958MOL0     O29254   2.837   9.302   0.424  0.3635 -0.0145  0.7154
  958MOL0     C29255   2.744   9.345   0.324  0.2656 -0.6644 -0.2319
  958MOL0     C29256   2.616   9.262   0.345  1.1724 -0.1591  0.4373
  958MOL0     C29257   2.504   9.295   0.247 -0.3647 -0.5348  0.0525
  958MOL0     C29258   2.481   9.446   0.215 -0.5409 -0.6644  0.5375
  958MOL0     C29259   2.571   9.482   0.103 -0.2799 -0.0115 -0.4308
  958MOL0     C29260   2.644   9.495   0.009  1.2708 -0.6077 -0.3409
  958MOL0     C29261   3.063   9.270   0.509 -0.2421  0.6899 -0.6909
  958MOL0     C29262   3.201   9.294   0.508  0.7390  0.8645 -0.1805
  958MOL0     H29263   3.627   9.441   0.580 -0.2729  1.5019 -0.6504
  958MOL0     H29264   3.851   9.485   0.571 -0.3032 -0.4364  1.2382
  958MOL0     H29265   4.104   9.543   0.497 -2.1155  0.3735 -0.8650
  958MOL0     H29266   4.070   9.400   0.596 -1.4344 -1.1294 -0.2521
  958MOL0     H29267   4.320   9.419   0.554  1.5540 -0.3025 -0.3553
  958MOL0     H29268   4.264   9.268   0.484  0.4983  0.6608 -1.5493
  958MOL0     H29269   4.293   9.346   0.264  3.1221 -3.3010  1.3705
  958MOL0     H29270   4.280   9.523   0.318  0.9838  0.6926  2.3437
  958MOL0     H29271   4.508   9.464   0.449 -1.7740 -1.4892  1.5744
  958MOL0     H29272   4.517   9.333   0.333 -2.0894 -0.8712 -1.7628
  958MOL0     H29273   4.493   9.508   0.155  0.7972 -1.2195  0.2326
  958MOL0     H29274   4.501   9.630   0.281 -0.6819 -0.0435 -1.3567
  958MOL0     H29275   4.714   9.431   0.226 -2.9678  0.3656 -1.7937
  958MOL0     H29276   4.715   9.580   0.128 -0.4579  1.6985 -0.1405
  958MOL0     H29277   4.775   9.571   0.429  1.0135 -1.2065 -1.0210
  958MOL0     H29278   4.881   9.595   0.311  1.0073 -0.9261  2.9345
  958MOL0     H29279   4.787   9.802   0.425 -0.1624 -4.4445  1.5984
  958MOL0     H29280   4.640   9.792   0.345  1.1197  2.9104  1.2402
  958MOL0     H29281   4.648   9.804   0.050  1.6248 -4.1082 -1.1428
  958MOL0     H29282   4.773  10.037  -0.143  3.1980  1.4713  1.3858
  958MOL0     H29283   4.924   9.942  -0.182  0.3670 -2.4787 -0.3207
  958MOL0     H29284   4.758   9.860  -0.339 -1.1219 -3.7197 -1.2483
  958MOL0     H29285   4.642   9.850  -0.194  0.6490  1.2966  1.0342
  958MOL0     H29286   4.788   9.659  -0.114 -2.3137 -1.3167  0.4164
  958MOL0     H29287   4.894   9.689  -0.246  0.5823 -2.1541  0.2304
  958MOL0     H29288   4.752   9.511  -0.303 -1.8993 -0.4113  1.8304
  958MOL0     H29289   4.694   9.644  -0.402  1.3288 -0.1150  0.0100
  958MOL0     H29290   4.331   9.606  -0.144  3.0241 -2.4178 -0.2619
  958MOL0     H29291   4.116   9.598  -0.134  2.1883 -0.4273  0.2107
  958MOL0     H29292   4.053   9.676  -0.291  4.6383  1.4760 -1.4661
  958MOL0     H29293   4.029   9.501  -0.241 -0.1918  1.2613 -1.9794
  958MOL0     H29294   3.881   9.260  -0.528  0.6629  0.4105 -1.7439
  958MOL0     H29295   3.690   9.212  -0.659 -1.3731  0.4497  1.2439
  958MOL0     H29296   3.568   9.349  -0.958  0.1075 -1.7048 -0.2946
  958MOL0     H29297   3.570   9.211  -0.858  2.1381  0.0179 -0.4763
  958MOL0     H29298   3.322   9.381  -0.957 -1.1257 -0.3612 -1.6660
  958MOL0     H29299   3.375   9.227  -1.020  0.1699  0.6671  1.3086
  958MOL0     H29300   3.251   9.258  -0.752 -0.1879 -1.4185  0.9930
  958MOL0     H29301   3.340   9.115  -0.797 -0.5829  0.6595  2.3687
  958MOL0     H29302   3.193   9.083  -0.995  2.7984 -2.1066  2.1879
  958MOL0     H29303   3.111   9.082  -0.833  1.4351  4.6284  4.5406
  958MOL0     H29304   3.087   9.311  -1.028 -0.7995  0.9680 -0.3693
  958MOL0     H29305   3.040   9.312  -0.853 -2.1762 -0.1135 -1.3507
  958MOL0     H29306   2.870   9.153  -0.894 -1.9848  0.2870 -0.7305
  958MOL0     H29307   2.855   9.292  -1.001 -0.3658  0.1318  2.9679
  958MOL0     H29308   2.951   8.997  -1.058  0.2623  0.7215  1.5243
  958MOL0     H29309   2.993   9.125  -1.170  2.2684 -2.6571 -0.8122
  958MOL0     H29310   2.811   9.022  -1.262 -1.9622  3.3002 -0.4520
  958MOL0     H29311   2.730   9.158  -1.175 -2.6934 -0.8547  0.1573
  958MOL0     H29312   3.633   9.623  -0.763 -1.1127 -0.1968  0.0008
  958MOL0     H29313   3.860   9.671  -0.643  2.2950 -0.8969 -0.9376
  958MOL0     H29314   4.374   9.449  -0.607  1.5169  2.0885 -0.2715
  958MOL0     H29315   4.563   9.513  -0.497 -0.2535 -0.6318 -0.8255
  958MOL0     H29316   3.897   9.238   0.228  1.6926  2.1359  0.6978
  958MOL0     H29317   3.648   9.196   0.235  0.8411  1.9950 -2.0634
  958MOL0     H29318   3.202   9.516   0.246  0.6871 -0.7086  0.1747
  958MOL0     H29319   2.958   9.449   0.242 -2.0073  1.5200  2.0836
  958MOL0     H29320   2.722   9.451   0.335 -0.4183 -0.9875  2.0753
  958MOL0     H29321   2.788   9.342   0.224 -0.8852 -0.2515 -0.7614
  958MOL0     H29322   2.574   9.287   0.443 -2.1450  2.0378 -1.3400
  958MOL0     H29323   2.642   9.159   0.318 -0.6024 -0.0406 -2.0733
  958MOL0     H29324   2.425   9.237   0.295  2.4496 -2.6143  2.6057
  958MOL0     H29325   2.525   9.236   0.157  1.4108  0.9534 -0.5616
  958MOL0     H29326   2.508   9.509   0.301  1.6750  0.0093 -0.5878
  958MOL0     H29327   2.377   9.466   0.191  0.1103  0.5821 -1.4498
  958MOL0     H29328   2.712   9.506  -0.074  2.5143 -0.2351  0.6979
  958MOL0     H29329   3.032   9.203   0.589  1.1810  1.3126  0.4282
  958MOL0     H29330   3.267   9.240   0.576 -1.9108  0.0594  1.9060
  959MOL0     O29331   0.145   6.519   7.660 -0.2353 -0.5038 -0.0051
  959MOL0     C29332   0.257   6.558   7.617 -0.5845  0.0779 -0.6812
  959MOL0     O29333   0.293   6.623   7.495  0.3021  0.0771  0.1234
  959MOL0     C29334   0.182   6.624   7.420  1.1294  0.2485  0.8625
  959MOL0     C29335   0.118   6.509   7.370  0.9024 -0.2849  0.1434
  959MOL0     C29336   0.004   6.521   7.284 -0.3118 -0.0222 -0.8135
  959MOL0     C29337  -0.042   6.632   7.236 -0.1756 -0.4741  0.1624
  959MOL0     O29338  -0.143   6.622   7.145  0.5577 -0.3622 -0.4793
  959MOL0     C29339  -0.167   6.736   7.069  0.1271  0.7939  0.8038
  959MOL0     C29340  -0.290   6.714   6.975  0.7175  0.2679  0.3247
  959MOL0     C29341  -0.424   6.704   7.055 -0.0236  0.2570 -0.1714
  959MOL0     C29342  -0.534   6.648   6.977 -0.1102 -0.2354  0.7025
  959MOL0     C29343  -0.658   6.623   7.057  0.1843 -0.2727  0.0876
  959MOL0     C29344  -0.757   6.537   6.989 -0.2545  0.1420 -0.3393
  959MOL0     C29345  -0.878   6.518   7.082 -0.8368 -0.2798 -0.4572
  959MOL0     C29346  -0.948   6.651   7.104  0.1084  0.0039  0.0218
  959MOL0     N29347  -1.077   6.640   7.177 -0.5579 -0.2655 -0.1554
  959MOL0     C29348  -1.091   6.563   7.288 -0.3816 -0.8165  0.0701
  959MOL0     C29349  -1.218   6.580   7.326  0.5390 -0.3468  0.6267
  959MOL0     C29350  -1.277   6.511   7.448 -0.8812  1.1055 -0.3196
  959MOL0     C29351  -1.385   6.407   7.417  0.5543  0.1518 -0.2052
  959MOL0     C29352  -1.516   6.479   7.416  0.2078 -0.0599  0.1398
  959MOL0     C29353  -1.638   6.379   7.422 -0.2923  0.1973 -0.3352
  959MOL0     O29354  -1.713   6.408   7.304  0.4705 -0.0669  0.1501
  959MOL0     C29355  -1.838   6.463   7.327  0.0246 -1.0248 -0.5428
  959MOL0     C29356  -1.951   6.391   7.343 -0.6842  1.8394 -0.2659
  959MOL0     C29357  -2.070   6.443   7.390 -1.0545  0.4922  0.8278
  959MOL0     C29358  -2.188   6.341   7.415 -0.1102  0.4265  1.2381
  959MOL0     C29359  -2.069   6.583   7.432  0.1317  0.6820  0.2566
  959MOL0     C29360  -2.193   6.658   7.489  0.6382 -0.5724  0.4464
  959MOL0     O29361  -2.173   6.779   7.554 -0.1597 -0.0069 -0.6634
  959MOL0     C29362  -2.280   6.850   7.589 -0.0838 -0.6133  0.1207
  959MOL0     C29363  -2.355   6.918   7.485 -0.6284  0.2229  0.0442
  959MOL0     C29364  -2.452   7.009   7.505 -0.6864 -0.9161  0.1791
  959MOL0     C29365  -2.476   7.054   7.634 -0.3254  0.1413 -0.3815
  959MOL0     O29366  -2.569   7.154   7.679  0.1004  0.1494  0.0525
  959MOL0     C29367  -2.601   7.257   7.580 -0.3234  0.3658 -0.5414
  959MOL0     C29368  -2.689   7.198   7.476  0.4875  0.3922 -0.2826
  959MOL0     C29369  -2.831   7.253   7.500  0.5137  0.8655 -0.0141
  959MOL0     C29370  -2.917   7.215   7.374  0.4192  0.8678 -0.2802
  959MOL0     C29371  -3.030   7.315   7.353 -0.2853 -0.2084  0.6071
  959MOL0     C29372  -3.134   7.273   7.243 -0.7579  0.3216  0.4609
  959MOL0     C29373  -3.257   7.362   7.258 -0.8372 -0.4105 -0.5272
  959MOL0     C29374  -3.336   7.359   7.122  0.9512  0.0038 -0.3609
  959MOL0    Cl29375  -3.237   7.451   7.015 -0.0002 -0.1825  0.2202
  959MOL0     C29376  -2.417   6.988   7.738 -0.5283 -0.0454 -0.4419
  959MOL0     C29377  -2.326   6.880   7.719  0.0263  0.7717  0.3732
  959MOL0     O29378  -2.303   6.604   7.474 -0.0821  0.4235  0.3793
  959MOL0     C29379  -1.954   6.652   7.419  0.0904 -0.1832 -0.5780
  959MOL0     C29380  -1.837   6.600   7.358  0.4559  0.3574 -0.0896
  959MOL0     N29381  -1.277   6.657   7.232 -0.1248 -0.1947  0.4705
  959MOL0     N29382  -1.191   6.694   7.151 -0.4147  0.0517 -0.0727
  959MOL0     C29383   0.018   6.754   7.289  0.5480 -0.0885  1.2191
  959MOL0     C29384   0.130   6.752   7.376 -0.5980  0.0388  0.5522
  959MOL0     C29385   0.365   6.543   7.713 -0.3932  0.1778 -0.3199
  959MOL0     C29386   0.497   6.549   7.668 -0.0274  0.4269  1.0281
  959MOL0     C29387   0.595   6.554   7.760  0.1461  0.0690 -0.2039
  959MOL0     C29388   0.573   6.531   7.898  0.0233 -0.3572 -0.4434
  959MOL0     O29389   0.673   6.540   7.997 -0.0075 -0.6337  0.5494
  959MOL0     C29390   0.786   6.473   7.970 -0.6303  0.6576 -0.9021
  959MOL0     C29391   0.858   6.452   8.098 -0.1580  0.4979  1.0282
  959MOL0     C29392   0.996   6.384   8.065  0.1605  0.0893 -0.6049
  959MOL0     C29393   1.095   6.414   8.174  0.4218 -0.3285  0.2115
  959MOL0     C29394   1.213   6.323   8.173  0.7794  0.0267  0.5362
  959MOL0     C29395   1.311   6.252   8.178  0.1243  0.0061  0.2249
  959MOL0     C29396   0.443   6.499   7.938  0.3432  0.7195 -0.2110
  959MOL0     C29397   0.332   6.514   7.851 -0.1279 -0.1659 -0.0571
  959MOL0     H29398   0.144   6.410   7.408  0.1631 -0.3366  0.5183
  959MOL0     H29399  -0.041   6.429   7.249  2.0674 -2.3755  1.8246
  959MOL0     H29400  -0.192   6.829   7.122 -2.8381  0.0120  0.9387
  959MOL0     H29401  -0.083   6.774   7.010 -1.9324  0.8140 -2.3417
  959MOL0     H29402  -0.283   6.791   6.899 -1.0732 -0.2492 -0.4391
  959MOL0     H29403  -0.278   6.616   6.928  3.7235 -0.6406  2.6435
  959MOL0     H29404  -0.412   6.638   7.141  0.6936  1.0097  0.3263
  959MOL0     H29405  -0.457   6.805   7.084  0.0210  0.2159  0.0196
  959MOL0     H29406  -0.568   6.712   6.895 -2.4534 -1.0230  1.0014
  959MOL0     H29407  -0.499   6.555   6.931 -0.9762  0.9175 -2.5824
  959MOL0     H29408  -0.618   6.567   7.142  4.9414  1.8759 -0.4228
  959MOL0     H29409  -0.697   6.717   7.096  0.5779  0.3966 -1.0708
  959MOL0     H29410  -0.789   6.577   6.892  2.6637  2.4395 -0.5023
  959MOL0     H29411  -0.710   6.441   6.966  0.0659  0.2365 -0.0879
  959MOL0     H29412  -0.950   6.440   7.054 -2.1972 -0.4314  3.0549
  959MOL0     H29413  -0.851   6.475   7.178 -0.4208  0.3030 -0.3081
  959MOL0     H29414  -0.960   6.707   7.010  3.5889 -0.4982 -0.8676
  959MOL0     H29415  -0.886   6.714   7.168  2.8311  0.4572 -2.7822
  959MOL0     H29416  -1.015   6.501   7.334 -0.3652  0.3398  1.6833
  959MOL0     H29417  -1.195   6.450   7.489 -2.5246  1.1247  3.4084
  959MOL0     H29418  -1.298   6.589   7.522  0.8546  1.1468  0.1789
  959MOL0     H29419  -1.378   6.328   7.492  0.6057  0.1845 -0.1755
  959MOL0     H29420  -1.374   6.366   7.317 -2.9636 -0.5087 -0.4421
  959MOL0     H29421  -1.519   6.532   7.320 -2.5663 -1.3435 -0.5890
  959MOL0     H29422  -1.526   6.548   7.500 -2.5601  0.1751 -0.2837
  959MOL0     H29423  -1.698   6.392   7.512  0.2680 -1.1227  0.2556
  959MOL0     H29424  -1.601   6.276   7.417  1.6447  0.8326  0.2457
  959MOL0     H29425  -1.952   6.285   7.319 -1.3570  2.0504 -1.2395
  959MOL0     H29426  -2.239   6.378   7.505 -1.2477  0.1276  0.7349
  959MOL0     H29427  -2.254   6.335   7.328  2.1312  1.2982 -0.6299
  959MOL0     H29428  -2.147   6.241   7.431 -0.3504  0.1885  0.3795
  959MOL0     H29429  -2.320   6.897   7.384  2.3507  1.9068  0.5800
  959MOL0     H29430  -2.488   7.061   7.417  4.2498  4.5778  0.7340
  959MOL0     H29431  -2.638   7.345   7.633  1.7895 -1.0954  3.8456
  959MOL0     H29432  -2.508   7.285   7.530  0.9583  1.2051  2.1314
  959MOL0     H29433  -2.657   7.236   7.378 -0.4976  1.2055 -0.3066
  959MOL0     H29434  -2.695   7.089   7.468 -0.2559  0.4247 -0.2388
  959MOL0     H29435  -2.832   7.361   7.511 -1.9474  0.8371  0.5417
  959MOL0     H29436  -2.871   7.208   7.592  2.9432 -1.7364 -0.0675
  959MOL0     H29437  -2.868   7.231   7.278  0.4536 -1.5994 -0.7388
  959MOL0     H29438  -2.960   7.114   7.376  0.4727  0.8222 -1.1077
  959MOL0     H29439  -2.983   7.411   7.328 -0.8210 -0.0329  0.2479
  959MOL0     H29440  -3.084   7.334   7.446 -0.9942  0.3455  0.0899
  959MOL0     H29441  -3.081   7.285   7.148 -0.1381 -2.3782  0.4010
  959MOL0     H29442  -3.173   7.172   7.257 -3.1505  1.3047  1.4110
  959MOL0     H29443  -3.229   7.463   7.291  0.7655 -0.8771 -0.3960
  959MOL0     H29444  -3.327   7.331   7.336 -1.8964  0.1126 -1.2243
  959MOL0     H29445  -3.435   7.401   7.139  0.4869 -0.7992 -1.0394
  959MOL0     H29446  -3.353   7.259   7.083  1.5558 -0.6510  0.9896
  959MOL0     H29447  -2.424   7.016   7.843 -0.8831  0.6013 -0.6374
  959MOL0     H29448  -2.268   6.834   7.798 -1.3175  0.3835  1.1834
  959MOL0     H29449  -1.958   6.754   7.455  1.1644  0.5705 -2.4564
  959MOL0     H29450  -1.745   6.658   7.349 -0.4482  1.7256 -0.7533
  959MOL0     H29451  -0.007   6.859   7.273 -1.4653 -0.3948  2.0615
  959MOL0     H29452   0.174   6.845   7.411 -1.6925  0.3961  1.0080
  959MOL0     H29453   0.522   6.563   7.563 -1.6930 -1.3088  0.3425
  959MOL0     H29454   0.701   6.560   7.734  0.7065 -1.8100  1.3723
  959MOL0     H29455   0.765   6.372   7.933 -0.1897 -0.0405  0.6789
  959MOL0     H29456   0.844   6.530   7.897  0.7384  0.6574  0.1399
  959MOL0     H29457   0.798   6.389   8.164  0.3533  0.0409  1.0629
  959MOL0     H29458   0.869   6.553   8.139 -1.0336  1.2549 -0.4858
  959MOL0     H29459   1.032   6.423   7.969 -0.7616 -2.7173 -2.2049
  959MOL0     H29460   0.973   6.279   8.046 -1.5105  0.1027  1.0832
  959MOL0     H29461   1.049   6.411   8.273 -0.9235  2.5117 -0.2325
  959MOL0     H29462   1.122   6.520   8.178 -0.7040 -0.0504  1.3604
  959MOL0     H29463   1.399   6.193   8.163  0.4619  1.0663 -2.6700
  959MOL0     H29464   0.416   6.470   8.039 -0.1438 -2.3742 -1.1517
  959MOL0     H29465   0.227   6.509   7.880  0.4703  0.7990  2.5750
  960MOL0     O29466   7.460   1.800   1.454 -0.0117  0.6703 -0.1892
  960MOL0     C29467   7.555   1.724   1.474  0.0702 -0.3714  0.1586
  960MOL0     O29468   7.574   1.600   1.436 -0.3106 -0.0523  0.5021
  960MOL0     C29469   7.465   1.527   1.402 -0.4111  0.3226 -0.2498
  960MOL0     C29470   7.369   1.476   1.493 -0.5243 -0.2817  1.1435
  960MOL0     C29471   7.270   1.375   1.458 -0.2949 -0.1427  0.8512
  960MOL0     C29472   7.258   1.338   1.322 -0.4420 -0.1449  0.3487
  960MOL0     O29473   7.162   1.246   1.290  0.1922 -0.5477  0.2113
  960MOL0     C29474   7.165   1.207   1.148  0.1464  0.1911  0.2888
  960MOL0     C29475   7.067   1.090   1.123 -0.0723 -0.6550 -0.3072
  960MOL0     C29476   6.926   1.105   1.171  0.2394  0.5003  0.2018
  960MOL0     C29477   6.833   1.159   1.061  0.1705  0.6373 -0.0664
  960MOL0     C29478   6.701   1.195   1.134  0.4489 -0.4197 -0.9519
  960MOL0     C29479   6.584   1.235   1.032 -0.4052  0.9979 -0.0412
  960MOL0     C29480   6.557   1.387   1.025 -0.6910  0.4166  0.1837
  960MOL0     C29481   6.459   1.411   0.913  1.1228 -0.4607  0.2312
  960MOL0     N29482   6.446   1.550   0.863  0.7081 -0.2223 -0.4622
  960MOL0     C29483   6.462   1.667   0.937 -0.8812 -0.7361  1.1081
  960MOL0     C29484   6.432   1.755   0.840 -0.0060 -0.6821 -0.5976
  960MOL0     C29485   6.438   1.900   0.863 -0.6908 -0.4360  0.2635
  960MOL0     C29486   6.568   1.960   0.803  0.6413 -0.2770 -0.1138
  960MOL0     C29487   6.687   1.881   0.856 -0.7014  0.4061  0.2489
  960MOL0     C29488   6.814   1.964   0.874 -0.4318  0.3528  0.7432
  960MOL0     O29489   6.819   2.034   0.753 -0.5189 -0.1671 -0.7009
  960MOL0     C29490   6.925   2.120   0.741 -1.1962 -0.4288  1.1262
  960MOL0     C29491   6.964   2.217   0.836  0.4143  0.4511 -0.1043
  960MOL0     C29492   7.071   2.303   0.814  0.5411 -0.6697  0.0193
  960MOL0     C29493   7.121   2.382   0.932 -0.3315  0.3878 -0.2027
  960MOL0     C29494   7.132   2.307   0.693 -0.3736  0.1529 -0.5858
  960MOL0     C29495   7.235   2.398   0.644  0.1273 -0.3321 -0.9740
  960MOL0     O29496   7.308   2.367   0.539  0.0214  0.3666  0.4782
  960MOL0     C29497   7.358   2.471   0.464 -0.0036 -0.4001  0.3498
  960MOL0     C29498   7.483   2.432   0.425  0.1218  0.0977  1.1377
  960MOL0     C29499   7.547   2.508   0.329  0.1536  0.3865 -0.0961
  960MOL0     C29500   7.492   2.620   0.272 -0.0932  0.0574 -0.6831
  960MOL0     O29501   7.578   2.703   0.200  0.5166 -0.3992 -0.3094
  960MOL0     C29502   7.511   2.783   0.100 -0.4529 -0.3155 -0.0200
  960MOL0     C29503   7.619   2.819  -0.003 -0.0902  0.8164 -0.2012
  960MOL0     C29504   7.561   2.921  -0.103 -0.1099  0.0303 -0.3145
  960MOL0     C29505   7.653   2.948  -0.226  0.4958  0.5846 -0.6863
  960MOL0     C29506   7.579   3.000  -0.348  0.4440 -0.3129  0.3193
  960MOL0     C29507   7.517   3.145  -0.347 -1.0018  0.0862 -0.0942
  960MOL0     C29508   7.483   3.200  -0.488 -0.0242  0.0595 -0.6253
  960MOL0     C29509   7.460   3.349  -0.488 -0.2569 -0.1011  0.5606
  960MOL0    Cl29510   7.309   3.394  -0.391 -0.6803 -0.2541  0.0076
  960MOL0     C29511   7.367   2.666   0.324 -0.4445  0.0957 -0.5425
  960MOL0     C29512   7.291   2.586   0.414 -0.4799  0.7098  0.1372
  960MOL0     O29513   7.241   2.508   0.706 -0.4796  0.5093  0.0214
  960MOL0     C29514   7.098   2.211   0.595  0.2348  0.0953 -0.6823
  960MOL0     C29515   6.992   2.125   0.621  0.3701  0.5460  0.1865
  960MOL0     N29516   6.403   1.703   0.715 -0.1322  0.1684 -0.0993
  960MOL0     N29517   6.416   1.578   0.739 -0.5256 -0.9623  0.2252
  960MOL0     C29518   7.340   1.398   1.225 -1.2303  0.9129  0.1447
  960MOL0     C29519   7.444   1.486   1.270 -0.1109 -0.3871  0.1432
  960MOL0     C29520   7.679   1.765   1.536  0.0587  0.0831 -0.1684
  960MOL0     C29521   7.784   1.682   1.582  0.2215  0.5844  0.4111
  960MOL0     C29522   7.898   1.740   1.632 -0.1048  1.4121  0.3163
  960MOL0     C29523   7.925   1.873   1.639  0.9471  0.0828  1.0577
  960MOL0     O29524   8.034   1.941   1.674  0.3067 -0.6685 -0.0380
  960MOL0     C29525   8.153   1.865   1.684 -0.3297  0.2331  0.0665
  960MOL0     C29526   8.275   1.958   1.696 -0.6385 -0.7002 -0.1398
  960MOL0     C29527   8.297   2.041   1.572 -1.0490  0.1991 -0.3088
  960MOL0     C29528   8.437   2.106   1.576 -0.0021 -0.6205  0.1355
  960MOL0     C29529   8.543   2.022   1.531 -0.9758  0.3338 -0.1182
  960MOL0     C29530   8.645   1.959   1.497  0.2820  0.9222 -0.0438
  960MOL0     C29531   7.817   1.955   1.612  0.1453 -0.7614 -0.3084
  960MOL0     C29532   7.694   1.902   1.568  0.4532  0.4236  0.2631
  960MOL0     H29533   7.369   1.503   1.598  1.0966  1.5826  0.7102
  960MOL0     H29534   7.210   1.325   1.533  1.2360  0.7709  2.7602
  960MOL0     H29535   7.150   1.281   1.069  1.0834  1.0097  0.8617
  960MOL0     H29536   7.262   1.162   1.124  0.2036  0.1225  0.6450
  960MOL0     H29537   7.064   1.052   1.021 -1.5019 -2.0776  0.2096
  960MOL0     H29538   7.105   1.008   1.185 -1.6742  1.4334  3.8649
  960MOL0     H29539   6.898   1.010   1.219  0.3649  0.6721  0.6189
  960MOL0     H29540   6.922   1.168   1.260 -1.1565 -0.9678  1.2295
  960MOL0     H29541   6.876   1.249   1.015  0.6408 -0.5175 -1.9684
  960MOL0     H29542   6.819   1.086   0.981  0.3518 -0.2985  0.7396
  960MOL0     H29543   6.649   1.121   1.196  0.7068 -0.3860 -0.6944
  960MOL0     H29544   6.727   1.286   1.189  1.1186  0.7492 -3.0828
  960MOL0     H29545   6.617   1.192   0.936  0.4172 -0.6174  0.9138
  960MOL0     H29546   6.489   1.186   1.054 -0.1200  0.9629  1.1671
  960MOL0     H29547   6.514   1.416   1.121 -1.8475  3.3963 -1.1122
  960MOL0     H29548   6.653   1.437   1.009 -0.4819 -0.2948 -0.9057
  960MOL0     H29549   6.361   1.375   0.945  0.6449  1.9550  1.7858
  960MOL0     H29550   6.485   1.343   0.832  0.7920 -0.3818  0.0535
  960MOL0     H29551   6.488   1.685   1.041  1.1258 -1.3903  0.7700
  960MOL0     H29552   6.349   1.940   0.813 -0.8809 -0.6309  0.4472
  960MOL0     H29553   6.428   1.923   0.969  0.8460  0.3107  0.2864
  960MOL0     H29554   6.564   2.063   0.840 -1.0251 -0.4508  0.2590
  960MOL0     H29555   6.564   1.957   0.693  0.1926  1.5846 -0.1773
  960MOL0     H29556   6.708   1.794   0.794  0.2670  1.6226 -1.2112
  960MOL0     H29557   6.662   1.853   0.959  0.7757 -1.4879  0.1453
  960MOL0     H29558   6.904   1.903   0.883  0.4911  1.6053  0.3228
  960MOL0     H29559   6.807   2.025   0.964  1.6508  0.9594  0.5515
  960MOL0     H29560   6.906   2.219   0.928 -0.3281 -0.2896 -0.5433
  960MOL0     H29561   7.054   2.372   1.018  1.9614 -1.4645  1.4789
  960MOL0     H29562   7.214   2.335   0.965 -1.1907 -1.7839 -0.7372
  960MOL0     H29563   7.143   2.488   0.916 -0.7345  0.5920  0.5090
  960MOL0     H29564   7.516   2.342   0.476  0.4969  0.1796  1.0423
  960MOL0     H29565   7.650   2.492   0.300  0.8160 -1.4247  2.8975
  960MOL0     H29566   7.438   2.721   0.047 -0.5034  1.6999 -2.4644
  960MOL0     H29567   7.470   2.873   0.147 -2.0994 -1.3321  0.6014
  960MOL0     H29568   7.701   2.868   0.049  0.5360 -0.1313 -0.2661
  960MOL0     H29569   7.638   2.727  -0.060 -0.8294  1.4087 -1.4542
  960MOL0     H29570   7.540   3.018  -0.056 -1.4314 -0.5120  0.2625
  960MOL0     H29571   7.469   2.879  -0.144  1.5615 -2.0532 -2.1205
  960MOL0     H29572   7.722   3.027  -0.196 -0.6003  1.2544  0.1780
  960MOL0     H29573   7.699   2.862  -0.276  0.0109  1.7567 -3.3163
  960MOL0     H29574   7.497   2.930  -0.366  0.3378 -0.8430  2.5652
  960MOL0     H29575   7.653   2.997  -0.429 -0.0117  0.7361 -0.1530
  960MOL0     H29576   7.426   3.139  -0.288 -0.9470  1.4005  0.1511
  960MOL0     H29577   7.579   3.220  -0.296 -1.2788  0.8166 -0.8121
  960MOL0     H29578   7.397   3.145  -0.527  0.8678  0.8944 -4.1111
  960MOL0     H29579   7.566   3.178  -0.557  1.7974 -2.9283  2.2039
  960MOL0     H29580   7.444   3.367  -0.595 -0.1803 -2.6301  0.0720
  960MOL0     H29581   7.543   3.413  -0.457  0.2729 -0.7311  0.4537
  960MOL0     H29582   7.339   2.762   0.282 -1.5551 -0.1822 -0.4486
  960MOL0     H29583   7.190   2.612   0.445 -0.5512  3.8385 -2.1979
  960MOL0     H29584   7.137   2.215   0.494  0.2191 -4.8316 -1.1139
  960MOL0     H29585   6.969   2.042   0.554 -0.3754 -0.0519  1.1592
  960MOL0     H29586   7.345   1.364   1.123 -1.2599  0.6750  0.2212
  960MOL0     H29587   7.519   1.528   1.203  0.3670  1.1995  1.5981
  960MOL0     H29588   7.780   1.574   1.570  2.0091  0.6153 -0.9176
  960MOL0     H29589   7.974   1.666   1.655 -2.3717 -1.0703  0.2320
  960MOL0     H29590   8.151   1.797   1.770 -4.8687  0.8485  0.6682
  960MOL0     H29591   8.167   1.806   1.592  0.2762 -2.0474  1.5256
  960MOL0     H29592   8.369   1.906   1.717 -1.2283 -0.4607  3.9506
  960MOL0     H29593   8.258   2.017   1.787  1.3179 -1.2051  0.6250
  960MOL0     H29594   8.224   2.122   1.564 -1.0056  0.4052  1.1401
  960MOL0     H29595   8.299   1.985   1.478 -2.0445  0.4444 -0.4891
  960MOL0     H29596   8.462   2.140   1.677  0.7701  1.2750 -0.6475
  960MOL0     H29597   8.436   2.198   1.518  2.2749  1.3509  2.9244
  960MOL0     H29598   8.737   1.913   1.467 -0.9630 -2.8820  1.3731
  960MOL0     H29599   7.815   2.063   1.626 -3.9185 -0.8679  1.7659
  960MOL0     H29600   7.617   1.971   1.535 -1.3216 -2.3327 -1.7528
  961MOL0     O29601   8.194   2.001   4.783  0.3899 -0.4608 -0.2671
  961MOL0     C29602   8.157   1.900   4.839 -0.7443 -0.5136  0.2820
  961MOL0     O29603   8.039   1.829   4.815  0.6191  0.4036  0.3937
  961MOL0     C29604   7.937   1.872   4.739  0.7050  0.4731 -0.7379
  961MOL0     C29605   7.889   2.003   4.731  0.2578 -0.9650 -0.4010
  961MOL0     C29606   7.784   2.033   4.654  0.1090 -0.2034  0.2121
  961MOL0     C29607   7.716   1.935   4.574 -0.0385 -0.0409 -0.3040
  961MOL0     O29608   7.620   1.971   4.487 -0.1443 -0.8048  0.8776
  961MOL0     C29609   7.544   1.874   4.418 -0.0907 -0.9305  0.2473
  961MOL0     C29610   7.444   1.949   4.343  0.0162 -1.0752 -0.1114
  961MOL0     C29611   7.340   1.853   4.291 -0.7096 -0.6358  0.1991
  961MOL0     C29612   7.266   1.927   4.170 -0.2637 -0.7449  0.6907
  961MOL0     C29613   7.164   1.840   4.111  1.5075  0.4522 -0.3298
  961MOL0     C29614   7.038   1.812   4.195 -0.0935 -0.4005  0.1603
  961MOL0     C29615   6.934   1.728   4.117 -0.3348 -0.2305 -0.2171
  961MOL0     C29616   6.870   1.800   3.991 -0.1957 -0.5556  0.1118
  961MOL0     N29617   6.727   1.761   3.957 -0.0346 -0.5019  0.4770
  961MOL0     C29618   6.616   1.755   4.047 -0.3694  1.2508  0.0388
  961MOL0     C29619   6.516   1.701   3.981 -0.4642 -0.0372  0.7476
  961MOL0     C29620   6.391   1.641   4.047 -0.1182 -0.6472  0.4457
  961MOL0     C29621   6.425   1.497   4.078  0.6254 -0.2495 -0.0960
  961MOL0     C29622   6.300   1.419   4.101  0.7344  0.8352 -0.2822
  961MOL0     C29623   6.234   1.461   4.233 -0.3991 -0.3685  0.6392
  961MOL0     O29624   6.129   1.366   4.257  0.2866 -0.9075  0.2173
  961MOL0     C29625   6.166   1.256   4.330  0.5392  0.5924 -0.2526
  961MOL0     C29626   6.058   1.169   4.353  0.7954 -0.0934  0.2846
  961MOL0     C29627   6.073   1.057   4.429 -0.0522  0.7175  0.7012
  961MOL0     C29628   5.945   0.974   4.454 -0.4696  0.3135  0.8086
  961MOL0     C29629   6.201   1.018   4.479  0.7037  0.5263  0.4634
  961MOL0     C29630   6.232   0.894   4.558 -0.9561 -0.1189 -1.2882
  961MOL0     O29631   6.301   0.913   4.673  0.8483 -0.0693 -0.7887
  961MOL0     C29632   6.413   0.834   4.701 -0.2185  0.2683  0.2048
  961MOL0     C29633   6.448   0.830   4.832 -0.0878 -0.3537 -1.1208
  961MOL0     C29634   6.548   0.744   4.875 -0.2239 -0.0184 -0.2432
  961MOL0     C29635   6.613   0.655   4.787  0.9655 -0.3363  1.4224
  961MOL0     O29636   6.709   0.564   4.827  0.2805 -0.0680  0.3186
  961MOL0     C29637   6.761   0.576   4.955 -0.3505 -0.3273 -0.7140
  961MOL0     C29638   6.899   0.490   4.964  0.9425  0.7627 -0.6062
  961MOL0     C29639   6.884   0.349   4.899  1.2643 -0.5198 -0.8334
  961MOL0     C29640   6.994   0.252   4.954  0.5776  0.7175 -0.6999
  961MOL0     C29641   7.126   0.290   4.890  0.2681 -0.0743  0.3772
  961MOL0     C29642   7.247   0.227   4.959 -0.9914  0.2834  0.2859
  961MOL0     C29643   7.224   0.069   4.985  0.2083  0.0629 -0.5232
  961MOL0     C29644   7.361  -0.014   4.979  0.6973 -0.1588  0.4360
  961MOL0    Cl29645   7.438  -0.010   4.811  0.4916 -0.2332 -0.5735
  961MOL0     C29646   6.574   0.653   4.659 -0.1365 -0.0600 -0.1675
  961MOL0     C29647   6.468   0.739   4.618 -1.2626 -0.1260  0.6934
  961MOL0     O29648   6.190   0.786   4.519 -0.0808 -0.3578 -0.3014
  961MOL0     C29649   6.316   1.093   4.447  0.2254 -0.4460  0.4656
  961MOL0     C29650   6.298   1.214   4.379 -0.0012  0.0828  0.3403
  961MOL0     N29651   6.562   1.672   3.852 -0.1110 -0.7136 -0.1755
  961MOL0     N29652   6.686   1.722   3.838 -0.5815 -0.7052  0.1337
  961MOL0     C29653   7.764   1.802   4.588  0.1909 -0.4873  0.3110
  961MOL0     C29654   7.867   1.764   4.673  0.2018 -1.0016  0.4736
  961MOL0     C29655   8.243   1.836   4.938 -1.2602 -0.5446 -0.1390
  961MOL0     C29656   8.186   1.757   5.034  0.3395 -0.7314 -0.0333
  961MOL0     C29657   8.256   1.690   5.127  0.3648  0.0095 -0.1167
  961MOL0     C29658   8.395   1.704   5.132 -0.7372  0.0437 -0.7661
  961MOL0     O29659   8.458   1.637   5.237 -0.1985  0.0105  0.4334
  961MOL0     C29660   8.603   1.631   5.239 -0.2080 -0.4027  0.3338
  961MOL0     C29661   8.661   1.560   5.110  0.1834 -0.0839 -0.4543
  961MOL0     C29662   8.754   1.440   5.143 -0.6292 -0.0066  0.0838
  961MOL0     C29663   8.833   1.390   5.024 -0.1735  0.6900  0.7455
  961MOL0     C29664   8.928   1.291   5.057 -0.4662 -0.1187 -0.0735
  961MOL0     C29665   8.999   1.192   5.080  0.3889  0.4995  0.3573
  961MOL0     C29666   8.451   1.808   5.044 -0.1133 -0.0459  0.9280
  961MOL0     C29667   8.380   1.862   4.938 -0.0551 -0.4002 -0.8421
  961MOL0     H29668   7.938   2.087   4.781  0.9692  1.3508 -4.5217
  961MOL0     H29669   7.743   2.134   4.654 -2.1762 -1.0585  2.0164
  961MOL0     H29670   7.610   1.807   4.362  0.9268  0.5887 -0.4251
  961MOL0     H29671   7.481   1.821   4.491 -3.7219  1.3257 -0.9557
  961MOL0     H29672   7.407   2.031   4.406 -3.3668 -0.9810 -2.0074
  961MOL0     H29673   7.485   2.000   4.256 -1.9662 -1.1620 -1.1636
  961MOL0     H29674   7.394   1.769   4.247 -1.6231 -0.9399 -0.3791
  961MOL0     H29675   7.269   1.823   4.368  0.1440 -0.5509  1.0407
  961MOL0     H29676   7.232   2.026   4.201  1.3512 -0.2801  1.0518
  961MOL0     H29677   7.336   1.933   4.085 -1.1480  1.5523  0.0562
  961MOL0     H29678   7.131   1.894   4.021 -1.2936  1.0490  0.9612
  961MOL0     H29679   7.207   1.749   4.069  0.0004 -0.3647 -0.1724
  961MOL0     H29680   7.067   1.753   4.283 -1.1348 -2.4708 -0.8020
  961MOL0     H29681   6.993   1.902   4.237  1.0300  0.0451  0.4326
  961MOL0     H29682   6.994   1.640   4.092 -2.1922 -1.4867 -0.4690
  961MOL0     H29683   6.858   1.690   4.186 -0.4038 -1.8009 -1.0932
  961MOL0     H29684   6.937   1.788   3.905  1.7960  4.3238  0.6523
  961MOL0     H29685   6.877   1.908   4.002  1.5187 -0.5181 -0.9861
  961MOL0     H29686   6.613   1.785   4.152  1.6460 -0.2109  0.5731
  961MOL0     H29687   6.365   1.698   4.137 -0.2624  0.4835 -0.3028
  961MOL0     H29688   6.303   1.650   3.983 -0.5297 -0.5558  1.0105
  961MOL0     H29689   6.492   1.496   4.164 -0.4290 -1.6693  0.7613
  961MOL0     H29690   6.470   1.452   3.989 -2.4642  0.3361 -2.0987
  961MOL0     H29691   6.331   1.314   4.109  0.0622  0.6259 -0.3736
  961MOL0     H29692   6.231   1.430   4.018  0.0081  4.5125  0.6257
  961MOL0     H29693   6.188   1.560   4.221  1.9060  0.4947 -2.3993
  961MOL0     H29694   6.302   1.477   4.316  0.9531 -1.3218 -0.2502
  961MOL0     H29695   5.957   1.187   4.316 -0.2520 -5.1471  0.0546
  961MOL0     H29696   5.858   1.031   4.488 -0.2554  1.4881 -0.5488
  961MOL0     H29697   5.907   0.924   4.365 -0.2022  0.0752  0.8268
  961MOL0     H29698   5.970   0.900   4.531  3.0916  0.8062  0.2767
  961MOL0     H29699   6.404   0.891   4.911 -0.5714 -0.9824 -0.8960
  961MOL0     H29700   6.566   0.742   4.982 -1.8324 -2.1160  0.0640
  961MOL0     H29701   6.778   0.683   4.969  1.9595 -0.6152 -0.8843
  961MOL0     H29702   6.694   0.532   5.030  0.0829  1.1792  0.6168
  961MOL0     H29703   6.983   0.545   4.922  0.0192  1.4636 -1.5736
  961MOL0     H29704   6.915   0.487   5.072 -0.4660  3.3770 -0.2531
  961MOL0     H29705   6.890   0.371   4.792 -1.0161  0.6942 -0.7910
  961MOL0     H29706   6.781   0.318   4.919  1.4030 -0.3709  0.1718
  961MOL0     H29707   7.000   0.263   5.062  1.7006  0.6385 -0.7501
  961MOL0     H29708   6.965   0.148   4.942 -0.7176  0.9646  0.0950
  961MOL0     H29709   7.130   0.399   4.899  1.0261 -0.0580 -0.0175
  961MOL0     H29710   7.123   0.271   4.782 -1.6034  1.0625  0.1846
  961MOL0     H29711   7.344   0.240   4.910  0.2081 -2.9583  1.4984
  961MOL0     H29712   7.260   0.278   5.055  2.0404 -0.5801  0.4465
  961MOL0     H29713   7.151   0.024   4.918  2.0768 -2.0566 -1.2387
  961MOL0     H29714   7.184   0.050   5.085 -1.0488 -0.8069 -1.1639
  961MOL0     H29715   7.343  -0.115   5.019  0.1559  0.2212  1.1764
  961MOL0     H29716   7.426   0.027   5.056  0.0768 -1.3958  1.6572
  961MOL0     H29717   6.609   0.567   4.603  1.6225  1.6329 -1.8171
  961MOL0     H29718   6.419   0.705   4.527 -0.7090 -0.2313  0.4254
  961MOL0     H29719   6.410   1.057   4.488  0.8322  0.4556 -0.0882
  961MOL0     H29720   6.383   1.282   4.371  0.3506 -0.5069 -1.4122
  961MOL0     H29721   7.724   1.720   4.529  0.6407  0.5168 -1.4838
  961MOL0     H29722   7.909   1.666   4.692  2.9949 -0.8778 -3.6958
  961MOL0     H29723   8.078   1.746   5.034  0.4891 -2.5551  0.8137
  961MOL0     H29724   8.206   1.625   5.198 -0.5793  0.3184 -0.4873
  961MOL0     H29725   8.638   1.735   5.235 -1.6406  0.1493  1.2145
  961MOL0     H29726   8.646   1.589   5.330  3.9009  1.1403 -0.6678
  961MOL0     H29727   8.702   1.646   5.056 -0.7022  2.7050  2.9798
  961MOL0     H29728   8.576   1.521   5.053 -1.7172 -1.3495  2.9449
  961MOL0     H29729   8.700   1.350   5.175  1.1437 -0.3519  2.3737
  961MOL0     H29730   8.816   1.472   5.228 -0.9900 -3.4994  1.8388
  961MOL0     H29731   8.885   1.473   4.976  1.3627 -0.6634 -0.0259
  961MOL0     H29732   8.765   1.344   4.952  0.5414  1.8590 -0.7245
  961MOL0     H29733   9.061   1.107   5.097 -0.4403 -0.1738  0.0622
  961MOL0     H29734   8.557   1.826   5.031 -0.8781  4.7099 -0.4753
  961MOL0     H29735   8.438   1.916   4.863  1.3433  0.2590  0.6445
  962MOL0     O29736   2.585   5.705   9.080  0.6428 -0.2236 -0.3661
  962MOL0     C29737   2.570   5.662   8.969 -0.3622 -0.1860 -0.2835
  962MOL0     O29738   2.486   5.563   8.923  0.4200 -0.0251  0.3265
  962MOL0     C29739   2.371   5.535   8.992  0.3935  0.3063 -0.9917
  962MOL0     C29740   2.300   5.628   9.085 -0.6613  0.1330 -0.3911
  962MOL0     C29741   2.190   5.577   9.152  0.2939  0.9914  0.8343
  962MOL0     C29742   2.123   5.457   9.129  0.4844 -0.8564  0.3188
  962MOL0     O29743   2.000   5.438   9.192  0.1667 -0.6571  0.0413
  962MOL0     C29744   1.937   5.304   9.186 -0.4221 -0.2223 -0.2991
  962MOL0     C29745   1.867   5.270   9.313 -0.4304 -0.5591 -0.4045
  962MOL0     C29746   1.792   5.139   9.312 -0.6792 -0.1009 -0.6287
  962MOL0     C29747   1.739   5.110   9.458 -0.5483 -0.7689  0.0215
  962MOL0     C29748   1.628   4.999   9.460 -0.0441 -0.7161  0.6058
  962MOL0     C29749   1.569   4.987   9.598  0.3007  0.0142  0.1406
  962MOL0     C29750   1.432   4.909   9.612  0.4553  0.6958  1.1105
  962MOL0     C29751   1.436   4.763   9.548 -0.2654 -0.1696 -0.1442
  962MOL0     N29752   1.313   4.703   9.540  0.3722  0.1453  0.3847
  962MOL0     C29753   1.235   4.689   9.650 -0.3698 -1.1965 -0.1704
  962MOL0     C29754   1.126   4.620   9.596 -0.8594  0.2948  0.1553
  962MOL0     C29755   1.014   4.562   9.686 -0.2944  0.0893 -0.8478
  962MOL0     C29756   0.888   4.504   9.611 -0.1526  0.7851 -0.5525
  962MOL0     C29757   0.823   4.611   9.509 -0.3846 -0.7427  0.2057
  962MOL0     C29758   0.685   4.564   9.478  0.3471  0.0982  0.7986
  962MOL0     O29759   0.698   4.444   9.403 -0.1588 -0.3122  0.0677
  962MOL0     C29760   0.587   4.379   9.354 -0.7430 -0.1684 -0.0560
  962MOL0     C29761   0.597   4.274   9.262 -0.7061  0.0697 -0.1025
  962MOL0     C29762   0.489   4.194   9.218 -0.9568  0.2336 -0.3528
  962MOL0     C29763   0.517   4.088   9.118 -0.7185  0.3541  0.3053
  962MOL0     C29764   0.361   4.231   9.265  0.4370  0.3811 -0.1178
  962MOL0     C29765   0.241   4.153   9.228 -0.0468  0.3487  0.4814
  962MOL0     O29766   0.131   4.225   9.201 -0.0421  0.9282  0.4052
  962MOL0     C29767   0.013   4.161   9.198 -0.1974  0.0218  0.4272
  962MOL0     C29768  -0.024   4.077   9.088  0.1883  0.6687 -0.4159
  962MOL0     C29769  -0.147   4.022   9.079 -0.1431 -0.7884 -0.4320
  962MOL0     C29770  -0.244   4.060   9.169  0.7249 -0.3834 -0.4421
  962MOL0     O29771  -0.367   3.991   9.161  0.0350 -0.1875 -0.7758
  962MOL0     C29772  -0.423   3.986   9.029  0.0507  0.6309 -0.3243
  962MOL0     C29773  -0.571   4.027   9.047 -0.3418  0.1026  0.3907
  962MOL0     C29774  -0.663   3.988   8.934  0.1668  0.0228  0.1774
  962MOL0     C29775  -0.786   4.077   8.918 -0.0936 -0.3073 -0.4413
  962MOL0     C29776  -0.859   4.015   8.788  0.2691 -0.8024  0.6088
  962MOL0     C29777  -0.974   4.103   8.739 -0.4380 -0.7275 -0.2937
  962MOL0     C29778  -1.087   4.027   8.664  0.0447 -0.6523 -0.6717
  962MOL0     C29779  -1.197   4.139   8.623  0.2787 -0.3960  0.5558
  962MOL0    Cl29780  -1.336   4.050   8.550  0.0714  0.0258 -0.0847
  962MOL0     C29781  -0.213   4.152   9.274  0.3054 -0.7654 -0.4453
  962MOL0     C29782  -0.078   4.191   9.296 -0.1272 -0.8055 -0.4634
  962MOL0     O29783   0.250   4.034   9.243 -0.4935  0.2789  0.1454
  962MOL0     C29784   0.344   4.340   9.347  0.3109 -0.4974  0.0878
  962MOL0     C29785   0.451   4.416   9.383  0.1566 -0.4326 -0.7322
  962MOL0     N29786   1.137   4.612   9.458 -0.7747 -0.5899 -0.6196
  962MOL0     N29787   1.252   4.664   9.424  0.1005 -0.0583  0.4221
  962MOL0     C29788   2.184   5.373   9.036  0.7450 -0.7220  0.2556
  962MOL0     C29789   2.305   5.414   8.969  0.7826  0.4640 -0.1826
  962MOL0     C29790   2.680   5.710   8.883 -0.3130  0.3869 -0.8213
  962MOL0     C29791   2.782   5.799   8.938 -0.2876 -0.3667 -0.3273
  962MOL0     C29792   2.906   5.816   8.867 -0.6911  0.4592 -0.4746
  962MOL0     C29793   2.922   5.774   8.741  0.0135  0.4306 -0.2112
  962MOL0     O29794   3.038   5.802   8.674 -0.0467  0.4293  0.1914
  962MOL0     C29795   3.091   5.714   8.572  0.2127  0.1359 -0.1487
  962MOL0     C29796   3.234   5.755   8.534  0.2868 -0.9245  0.1479
  962MOL0     C29797   3.236   5.884   8.463 -0.0061  0.0338  0.3849
  962MOL0     C29798   3.370   5.958   8.467 -0.1779 -0.1428  0.5590
  962MOL0     C29799   3.357   6.081   8.388 -0.2157  0.3667  0.6217
  962MOL0     C29800   3.334   6.165   8.307  0.5369 -0.6772  0.8151
  962MOL0     C29801   2.813   5.706   8.681  0.9849 -0.2805  0.2478
  962MOL0     C29802   2.699   5.662   8.755 -0.9606  0.1265  0.3086
  962MOL0     H29803   2.338   5.728   9.103 -1.5826  0.4453 -0.1188
  962MOL0     H29804   2.142   5.641   9.227 -0.2661  2.7066 -0.8982
  962MOL0     H29805   1.858   5.297   9.110 -1.0553  0.4922  0.2802
  962MOL0     H29806   2.009   5.223   9.168 -3.0292 -2.9360  0.6467
  962MOL0     H29807   1.939   5.262   9.395  0.1302 -1.8350 -0.9783
  962MOL0     H29808   1.802   5.355   9.335  0.3490 -0.2661  0.8614
  962MOL0     H29809   1.712   5.140   9.238 -0.3786 -2.0794 -1.0549
  962MOL0     H29810   1.862   5.057   9.289 -2.7973 -1.6902 -1.6993
  962MOL0     H29811   1.821   5.077   9.522  0.5307  2.4663  0.4981
  962MOL0     H29812   1.692   5.202   9.495 -0.8824 -0.4448 -1.1659
  962MOL0     H29813   1.554   5.019   9.381  1.3347  2.2740 -0.0911
  962MOL0     H29814   1.678   4.906   9.433  0.7702 -0.1872  0.2507
  962MOL0     H29815   1.637   4.940   9.670 -0.1022 -1.3269 -0.3307
  962MOL0     H29816   1.540   5.086   9.635  1.4076 -0.5757  2.8003
  962MOL0     H29817   1.410   4.900   9.719 -0.7454  2.8368  1.0905
  962MOL0     H29818   1.351   4.977   9.584  1.8704  1.6827 -0.7986
  962MOL0     H29819   1.501   4.702   9.612  0.8918  0.7868 -0.3808
  962MOL0     H29820   1.475   4.749   9.447 -1.3110 -1.8815 -0.3581
  962MOL0     H29821   1.249   4.721   9.753 -0.2933  1.0482 -0.8119
  962MOL0     H29822   1.056   4.481   9.746  1.2606  2.8254  2.0718
  962MOL0     H29823   0.974   4.636   9.757  0.0531 -1.2241  0.7817
  962MOL0     H29824   0.809   4.479   9.682 -1.7152 -0.0246 -2.4545
  962MOL0     H29825   0.927   4.419   9.553 -0.6898  1.2446 -1.6260
  962MOL0     H29826   0.875   4.634   9.415  1.5897  2.2615  1.8459
  962MOL0     H29827   0.824   4.709   9.557 -1.4502  1.2752 -3.5070
  962MOL0     H29828   0.634   4.637   9.413  1.6017 -0.8805 -1.4005
  962MOL0     H29829   0.630   4.538   9.568 -0.3464 -1.7751 -0.1168
  962MOL0     H29830   0.695   4.246   9.226 -0.5212 -1.2360  1.2852
  962MOL0     H29831   0.624   4.068   9.109 -1.1588 -1.3586 -2.0555
  962MOL0     H29832   0.476   3.991   9.148  2.0543 -1.1386 -0.3696
  962MOL0     H29833   0.469   4.111   9.022  1.1740  1.1288 -0.5058
  962MOL0     H29834   0.044   4.059   9.005  1.1160 -3.6195  1.0469
  962MOL0     H29835  -0.166   3.957   8.995  1.3401 -1.8711  0.0386
  962MOL0     H29836  -0.369   4.057   8.966 -0.0864  0.1737 -0.9710
  962MOL0     H29837  -0.419   3.888   8.980  0.2001  0.9492 -0.9667
  962MOL0     H29838  -0.603   3.970   9.135  2.6656 -2.8536 -0.1806
  962MOL0     H29839  -0.582   4.135   9.053  0.6244  0.1667  1.3066
  962MOL0     H29840  -0.698   3.886   8.950 -0.1308  0.3074  1.4231
  962MOL0     H29841  -0.601   3.991   8.844  1.0664  0.8095  0.7962
  962MOL0     H29842  -0.864   4.079   8.995 -1.0847  1.0535 -1.4387
  962MOL0     H29843  -0.748   4.178   8.902 -0.4906 -0.2659 -1.1731
  962MOL0     H29844  -0.897   3.914   8.807 -0.7277 -0.2729  1.5549
  962MOL0     H29845  -0.784   4.013   8.708 -0.9800 -0.7787 -0.6120
  962MOL0     H29846  -1.019   4.167   8.816 -0.5571  0.0268 -0.9771
  962MOL0     H29847  -0.929   4.172   8.667  0.5304 -2.1575 -1.1051
  962MOL0     H29848  -1.135   3.948   8.722  0.2266 -1.1281 -1.1674
  962MOL0     H29849  -1.050   3.991   8.568 -2.7970 -2.2180 -1.2936
  962MOL0     H29850  -1.166   4.213   8.549  1.6229 -0.3376  1.1525
  962MOL0     H29851  -1.236   4.195   8.708 -0.7827 -2.9350  1.8498
  962MOL0     H29852  -0.285   4.178   9.350  1.3951  3.1055 -0.5387
  962MOL0     H29853  -0.059   4.256   9.380  1.4495 -1.1565 -0.4991
  962MOL0     H29854   0.245   4.369   9.381 -0.6578 -2.8568 -0.5306
  962MOL0     H29855   0.430   4.494   9.456  2.3072 -0.8453  0.4072
  962MOL0     H29856   2.135   5.278   9.016  1.0590 -0.8083 -0.1242
  962MOL0     H29857   2.335   5.352   8.884 -1.2982 -0.8881 -0.0042
  962MOL0     H29858   2.788   5.832   9.041 -0.3346 -1.0658 -0.1010
  962MOL0     H29859   2.991   5.868   8.909 -0.5897 -0.4900  0.5097
  962MOL0     H29860   3.097   5.617   8.623  0.5104 -0.1140 -0.6489
  962MOL0     H29861   3.033   5.705   8.480  0.8305  1.0174 -0.6352
  962MOL0     H29862   3.268   5.678   8.464  0.1846  0.9196 -2.0436
  962MOL0     H29863   3.304   5.748   8.618  0.9602 -0.7103 -0.3845
  962MOL0     H29864   3.161   5.948   8.511 -0.2161 -2.1948  3.3114
  962MOL0     H29865   3.215   5.867   8.357  2.1344  1.9664 -0.4141
  962MOL0     H29866   3.459   5.903   8.436 -0.4269 -1.4948  2.1343
  962MOL0     H29867   3.400   5.991   8.567  2.9361  2.9639 -1.1674
  962MOL0     H29868   3.293   6.225   8.228  0.1778 -2.5759 -0.4984
  962MOL0     H29869   2.814   5.667   8.580 -0.3558 -1.1388  0.5398
  962MOL0     H29870   2.623   5.600   8.709  2.1325 -3.1541 -0.8395
  963MOL0     O29871   7.894   4.834   0.287 -0.0350 -0.2021 -0.3915
  963MOL0     C29872   7.817   4.740   0.301  0.8761 -0.9770  0.1361
  963MOL0     O29873   7.846   4.616   0.363 -0.9021 -0.5163 -0.6718
  963MOL0     C29874   7.963   4.613   0.435  0.6211  0.5584 -0.1852
  963MOL0     C29875   7.958   4.631   0.571 -0.2270 -0.1927  0.2229
  963MOL0     C29876   8.078   4.616   0.644  0.2375  0.1857  0.1377
  963MOL0     C29877   8.198   4.571   0.591 -0.8247 -0.1498 -0.6800
  963MOL0     O29878   8.307   4.550   0.672  0.9333  0.0238  0.8216
  963MOL0     C29879   8.402   4.446   0.642  0.2682 -0.0229 -0.7529
  963MOL0     C29880   8.355   4.304   0.620 -0.4017  0.2269 -0.6323
  963MOL0     C29881   8.467   4.200   0.629  0.8220 -0.5812 -0.5093
  963MOL0     C29882   8.574   4.236   0.537  0.0085  0.2970 -0.4260
  963MOL0     C29883   8.677   4.132   0.512  0.2006  0.1354 -0.1713
  963MOL0     C29884   8.749   4.094   0.655  0.5912  0.1189  0.6239
  963MOL0     C29885   8.844   3.974   0.635  0.4344 -0.3420  0.5494
  963MOL0     C29886   8.961   4.006   0.726 -0.4500 -0.1486  0.7268
  963MOL0     N29887   9.065   3.900   0.709 -0.7220  0.0727  0.3569
  963MOL0     C29888   9.167   3.885   0.805  0.3830  0.5634  0.0078
  963MOL0     C29889   9.248   3.788   0.765 -0.3805 -0.3274  0.1229
  963MOL0     C29890   9.375   3.738   0.830 -0.1144 -0.9795 -0.7139
  963MOL0     C29891   9.472   3.854   0.863 -1.1933  0.4441  0.6125
  963MOL0     C29892   9.526   3.910   0.728 -0.6239  0.2414  0.2435
  963MOL0     C29893   9.626   4.023   0.736 -0.2766 -0.5689  0.3101
  963MOL0     O29894   9.723   4.002   0.837  0.3144 -0.9882 -0.2307
  963MOL0     C29895   9.848   4.042   0.815 -0.6355 -0.7488 -0.4137
  963MOL0     C29896   9.952   3.968   0.857 -1.2444 -0.5779  0.0747
  963MOL0     C29897  10.091   4.000   0.841  0.8094 -0.5197  0.9520
  963MOL0     C29898  10.190   3.897   0.875  0.0437  0.4531  0.1233
  963MOL0     C29899  10.115   4.128   0.785 -1.1455  0.1125  0.6729
  963MOL0     C29900  10.255   4.185   0.792  0.9931 -0.4544  0.4318
  963MOL0     O29901  10.348   4.125   0.867 -0.1737 -0.3579  0.2389
  963MOL0     C29902  10.478   4.158   0.864 -0.9340  0.0140 -0.4568
  963MOL0     C29903  10.531   4.285   0.855  0.3463  0.1431 -0.4294
  963MOL0     C29904  10.663   4.311   0.850 -1.0790 -0.8612 -0.1964
  963MOL0     C29905  10.755   4.203   0.849 -0.1006 -0.5418 -0.7287
  963MOL0     O29906  10.888   4.235   0.840 -0.3163 -0.4088  0.0973
  963MOL0     C29907  10.976   4.155   0.923  0.3395 -1.5688 -0.1026
  963MOL0     C29908  11.098   4.245   0.967 -0.5917 -0.0557  0.5663
  963MOL0     C29909  11.183   4.275   0.841  0.7851 -0.4431 -0.3830
  963MOL0     C29910  11.324   4.316   0.890  0.1374 -0.3743 -0.3499
  963MOL0     C29911  11.414   4.362   0.775 -0.1427  0.6862  0.6448
  963MOL0     C29912  11.537   4.442   0.838  0.1969 -0.0518 -0.2042
  963MOL0     C29913  11.654   4.455   0.738  0.1634  0.5687 -0.7051
  963MOL0     C29914  11.750   4.584   0.744  0.3287  0.6608 -0.7259
  963MOL0    Cl29915  11.855   4.584   0.892  0.0769 -0.3994  0.4224
  963MOL0     C29916  10.704   4.069   0.872  0.3630 -0.3944 -0.2717
  963MOL0     C29917  10.565   4.053   0.885 -0.0862  0.4720 -0.4814
  963MOL0     O29918  10.266   4.293   0.741 -0.0395 -0.1032  0.1814
  963MOL0     C29919  10.011   4.217   0.745  0.1220  0.3062  0.0608
  963MOL0     C29920   9.879   4.166   0.756  0.1018 -0.3517 -1.0619
  963MOL0     N29921   9.199   3.744   0.648  0.3467  0.2949  0.2300
  963MOL0     N29922   9.096   3.807   0.604  0.4157 -0.3217 -0.5453
  963MOL0     C29923   8.199   4.561   0.450  0.9916  0.5070 -0.1441
  963MOL0     C29924   8.082   4.587   0.377  0.7530 -0.2168 -0.4895
  963MOL0     C29925   7.678   4.761   0.248  0.2468  0.4805 -0.4697
  963MOL0     C29926   7.641   4.878   0.186 -0.6068  0.3385  0.0333
  963MOL0     C29927   7.507   4.897   0.141  0.6252  0.1828  0.5247
  963MOL0     C29928   7.414   4.790   0.160  0.0998 -0.5261 -0.4219
  963MOL0     O29929   7.286   4.788   0.117 -0.3649 -0.3994  1.3348
  963MOL0     C29930   7.246   4.884   0.015  0.5554 -0.5525 -0.1486
  963MOL0     C29931   7.312   4.852  -0.125  0.5167  0.0585 -0.3449
  963MOL0     C29932   7.318   4.698  -0.146  0.1991  0.5177  0.1429
  963MOL0     C29933   7.366   4.667  -0.286  0.4566 -1.5283 -0.8445
  963MOL0     C29934   7.256   4.653  -0.382 -0.2648 -0.3186 -0.0750
  963MOL0     C29935   7.169   4.638  -0.465 -0.1062 -0.5525 -0.1169
  963MOL0     C29936   7.456   4.668   0.213 -0.0480 -0.5132 -1.0193
  963MOL0     C29937   7.582   4.653   0.264 -0.5374 -0.2919 -0.3547
  963MOL0     H29938   7.865   4.662   0.617  0.0151 -2.0837  2.1318
  963MOL0     H29939   8.074   4.643   0.749  0.0358  2.6665 -0.4472
  963MOL0     H29940   8.470   4.485   0.565 -0.5136 -0.9522 -1.9361
  963MOL0     H29941   8.464   4.434   0.731 -2.0439 -1.3890  0.7545
  963MOL0     H29942   8.275   4.291   0.693 -2.4149 -0.0265 -2.7490
  963MOL0     H29943   8.316   4.293   0.518 -3.6218 -2.2116  0.6851
  963MOL0     H29944   8.498   4.194   0.733  1.0530  0.7384 -0.4846
  963MOL0     H29945   8.426   4.103   0.597  0.2637 -0.0984 -1.3068
  963MOL0     H29946   8.534   4.289   0.450 -0.4447  1.2644  0.3506
  963MOL0     H29947   8.636   4.312   0.585 -0.9535  1.5180 -1.0615
  963MOL0     H29948   8.615   4.050   0.473 -1.5493  1.1795  0.2862
  963MOL0     H29949   8.755   4.165   0.444  0.6105  1.1856  0.7871
  963MOL0     H29950   8.804   4.181   0.690  2.1189 -0.1103 -1.0380
  963MOL0     H29951   8.679   4.064   0.734  1.7256  1.5529  2.2442
  963MOL0     H29952   8.794   3.878   0.651 -0.3023 -0.6734 -2.9676
  963MOL0     H29953   8.878   3.975   0.531  3.6018  1.1284  1.4868
  963MOL0     H29954   8.922   4.023   0.827  0.5866  1.5996  0.8738
  963MOL0     H29955   8.998   4.099   0.684 -2.6647  0.6801  0.5048
  963MOL0     H29956   9.171   3.935   0.902  0.9377  4.2019 -1.7131
  963MOL0     H29957   9.347   3.670   0.912  0.8238 -1.7570 -1.0059
  963MOL0     H29958   9.432   3.676   0.760  0.1759  0.2888 -1.6293
  963MOL0     H29959   9.548   3.802   0.924 -1.3728  0.4327  0.8288
  963MOL0     H29960   9.427   3.926   0.932 -1.4391 -1.1565  2.2308
  963MOL0     H29961   9.442   3.939   0.664 -1.0231  0.7595  0.9883
  963MOL0     H29962   9.584   3.833   0.677 -0.1570  0.3069  0.6751
  963MOL0     H29963   9.569   4.113   0.759 -0.8277  0.1376 -3.2325
  963MOL0     H29964   9.675   4.031   0.638 -0.7418 -2.4451 -0.1172
  963MOL0     H29965   9.920   3.867   0.879 -0.8262 -0.6590  0.3145
  963MOL0     H29966  10.223   3.896   0.979  1.8269 -1.8193 -0.3569
  963MOL0     H29967  10.146   3.798   0.861 -0.2685  0.7081 -0.7568
  963MOL0     H29968  10.269   3.894   0.799 -0.5336  3.1669 -0.6851
  963MOL0     H29969  10.467   4.372   0.854 -1.2862 -0.9289  1.9201
  963MOL0     H29970  10.703   4.412   0.850  2.5853 -2.1058  2.2692
  963MOL0     H29971  10.914   4.133   1.011 -1.4169 -1.6208 -1.3129
  963MOL0     H29972  11.019   4.071   0.869  0.9468 -1.1765 -0.2363
  963MOL0     H29973  11.041   4.327   1.013 -0.0576 -0.3105  1.7318
  963MOL0     H29974  11.155   4.191   1.043 -0.4044 -0.0366  0.4413
  963MOL0     H29975  11.130   4.348   0.779 -1.3415 -0.9286  0.7736
  963MOL0     H29976  11.176   4.184   0.782 -1.3320  0.3112 -1.4289
  963MOL0     H29977  11.328   4.394   0.966  2.1085 -0.5323 -0.2469
  963MOL0     H29978  11.367   4.224   0.930 -1.3914 -0.5263  1.0649
  963MOL0     H29979  11.360   4.423   0.702  0.6927  1.7801  0.9095
  963MOL0     H29980  11.450   4.277   0.716  0.3962  1.7935 -0.6944
  963MOL0     H29981  11.511   4.542   0.872  2.7848  1.8483 -3.2112
  963MOL0     H29982  11.576   4.391   0.927  0.1447 -0.2666 -0.3025
  963MOL0     H29983  11.606   4.448   0.639  1.0595 -1.3589 -1.0578
  963MOL0     H29984  11.719   4.367   0.740 -0.7677 -0.1306 -0.5585
  963MOL0     H29985  11.692   4.676   0.735 -3.6070 -1.4707  0.6070
  963MOL0     H29986  11.823   4.581   0.663  1.7266  1.4048  0.4588
  963MOL0     H29987  10.764   3.981   0.895 -0.7365 -1.3016 -0.7845
  963MOL0     H29988  10.507   3.963   0.906 -0.0512  0.6330  0.3697
  963MOL0     H29989  10.033   4.312   0.697  3.1167  0.2499  1.1731
  963MOL0     H29990   9.800   4.228   0.715  2.0828  1.6668 -2.0460
  963MOL0     H29991   8.294   4.542   0.400  1.9686  3.4670  0.3894
  963MOL0     H29992   8.085   4.570   0.270 -0.8554 -0.2987 -0.5460
  963MOL0     H29993   7.718   4.953   0.169  2.3610 -2.5135 -0.1622
  963MOL0     H29994   7.481   4.993   0.098  2.4372  0.5874  0.2288
  963MOL0     H29995   7.140   4.860   0.001  1.1613 -2.2713 -2.4668
  963MOL0     H29996   7.253   4.988   0.047 -0.6909  0.2552 -2.3108
  963MOL0     H29997   7.417   4.882  -0.110  0.4752 -0.3863  0.9682
  963MOL0     H29998   7.248   4.901  -0.199 -0.6483  1.0333  1.2415
  963MOL0     H29999   7.221   4.654  -0.121 -0.3958  1.6212 -0.1423
  963MOL0     H30000   7.395   4.659  -0.079  1.2595 -1.0024 -1.8396
  963MOL0     H30001   7.415   4.570  -0.272  1.1399 -1.1899 -0.8269
  963MOL0     H30002   7.452   4.724  -0.323  0.4276 -1.7028 -1.1879
  963MOL0     H30003   7.092   4.619  -0.537 -0.4997  1.0563 -0.1393
  963MOL0     H30004   7.380   4.591   0.220  0.1621 -0.5820  1.2249
  963MOL0     H30005   7.606   4.555   0.304 -2.5420  0.0486  1.9242
  964MOL0     O30006   7.081   0.342   0.105 -0.5861 -0.2201 -0.8209
  964MOL0     C30007   7.107   0.468   0.094  1.0266 -0.4196 -0.1920
  964MOL0     O30008   7.011   0.560   0.066 -0.1077  0.0730  0.0762
  964MOL0     C30009   6.874   0.528   0.056  0.1480  0.6772  0.3562
  964MOL0     C30010   6.797   0.420   0.109 -0.1022  0.9948  0.2459
  964MOL0     C30011   6.664   0.404   0.077  0.4034  0.5102 -0.1690
  964MOL0     C30012   6.596   0.488  -0.014 -0.1761  0.2885  0.4672
  964MOL0     O30013   6.463   0.474  -0.033  0.3401  0.2423 -0.1909
  964MOL0     C30014   6.406   0.511  -0.161 -0.5184  0.1237  0.2746
  964MOL0     C30015   6.260   0.476  -0.176  0.5922 -0.2738 -0.3844
  964MOL0     C30016   6.173   0.574  -0.093 -0.5497  0.0766  0.6558
  964MOL0     C30017   6.022   0.542  -0.099  0.4694  1.1895  0.5086
  964MOL0     C30018   5.938   0.670  -0.048  0.1214  0.5639  0.7132
  964MOL0     C30019   5.968   0.702   0.101  0.0732  0.2388  0.2664
  964MOL0     C30020   5.893   0.827   0.128 -0.1109  0.0920 -0.0792
  964MOL0     C30021   5.912   0.871   0.274 -0.9392  0.8796 -0.0122
  964MOL0     N30022   5.921   1.015   0.311  0.1485 -0.2280  0.4843
  964MOL0     C30023   5.812   1.085   0.358  0.2941  0.0201  0.1100
  964MOL0     C30024   5.860   1.209   0.373 -0.2544 -0.1885  0.4805
  964MOL0     C30025   5.778   1.323   0.430 -0.0717  0.0030  0.8160
  964MOL0     C30026   5.881   1.430   0.472 -0.5293 -0.2780  0.1708
  964MOL0     C30027   5.817   1.547   0.553  0.4190  0.2905  0.0137
  964MOL0     C30028   5.933   1.652   0.564  0.0081  0.3382  0.0562
  964MOL0     O30029   5.942   1.728   0.440  0.7111  0.3115  0.0551
  964MOL0     C30030   6.064   1.784   0.396 -0.2279 -0.0626  0.1912
  964MOL0     C30031   6.057   1.849   0.275  0.5880  0.1751  0.2968
  964MOL0     C30032   6.170   1.911   0.212 -0.1567  0.4888  0.2647
  964MOL0     C30033   6.163   1.963   0.072  0.0711  0.3683  0.2988
  964MOL0     C30034   6.289   1.917   0.288  0.0255 -0.8447  0.4298
  964MOL0     C30035   6.414   1.979   0.250 -0.0033 -0.0551  0.7545
  964MOL0     O30036   6.509   1.999   0.343 -0.4919 -0.2657  0.2269
  964MOL0     C30037   6.638   2.035   0.309 -0.0674 -0.0246 -0.6938
  964MOL0     C30038   6.657   2.171   0.288 -0.1644 -0.7032 -0.6051
  964MOL0     C30039   6.794   2.213   0.245 -0.2939 -0.0340  0.2016
  964MOL0     C30040   6.899   2.121   0.234  0.3228 -0.1065  0.1813
  964MOL0     O30041   7.027   2.152   0.179  0.0986 -0.1606 -0.4468
  964MOL0     C30042   7.074   2.291   0.172 -1.0463 -0.1603  0.0279
  964MOL0     C30043   7.225   2.300   0.159 -0.8814  0.4824 -0.8061
  964MOL0     C30044   7.281   2.255   0.017 -0.8296 -0.6039 -0.7832
  964MOL0     C30045   7.425   2.315  -0.003  0.3063  0.1061  0.6823
  964MOL0     C30046   7.517   2.223  -0.087 -0.1153  0.2165 -0.2681
  964MOL0     C30047   7.659   2.276  -0.076 -0.0972 -0.5192 -0.6156
  964MOL0     C30048   7.748   2.191  -0.168  0.4584 -0.3663 -0.7253
  964MOL0     C30049   7.888   2.255  -0.198 -0.3595  0.5257  0.1721
  964MOL0    Cl30050   7.964   2.371  -0.061 -0.1251 -0.1297  0.0133
  964MOL0     C30051   6.875   1.984   0.270 -0.1861  0.3840 -0.0130
  964MOL0     C30052   6.747   1.937   0.311  1.0772 -1.2022 -0.6167
  964MOL0     O30053   6.430   2.002   0.131  0.4422  0.4812 -1.2024
  964MOL0     C30054   6.299   1.848   0.414 -0.7250  0.1380  0.1978
  964MOL0     C30055   6.188   1.790   0.468 -0.4965  0.3407 -0.6847
  964MOL0     N30056   5.996   1.214   0.342 -0.2354 -0.2642  1.3545
  964MOL0     N30057   6.030   1.093   0.311  0.5920  0.7702 -0.5800
  964MOL0     C30058   6.665   0.596  -0.068  0.0019  0.3179 -0.4001
  964MOL0     C30059   6.805   0.613  -0.034  0.0536  0.4290 -0.3278
  964MOL0     C30060   7.240   0.515   0.137  0.4948 -0.1041  0.3321
  964MOL0     C30061   7.272   0.646   0.132  0.6089 -0.3115 -0.0998
  964MOL0     C30062   7.399   0.698   0.167 -0.2722 -0.0039 -0.9742
  964MOL0     C30063   7.499   0.604   0.215  0.7390 -0.4022  0.4019
  964MOL0     O30064   7.632   0.635   0.247 -0.4657  0.1789 -0.4422
  964MOL0     C30065   7.674   0.768   0.276  0.2163 -0.7295  0.1808
  964MOL0     C30066   7.830   0.763   0.272  0.5509  0.6208 -0.6423
  964MOL0     C30067   7.887   0.720   0.132  0.3594  0.7640 -0.1518
  964MOL0     C30068   8.043   0.715   0.125 -0.7173  0.1045  0.1095
  964MOL0     C30069   8.077   0.677  -0.008  0.1727  0.1077 -0.2859
  964MOL0     C30070   8.103   0.659  -0.126 -1.2885  0.0325  0.4812
  964MOL0     C30071   7.461   0.471   0.225  0.0040  0.3270 -0.6649
  964MOL0     C30072   7.340   0.427   0.176 -0.0064 -0.5163  0.3908
  964MOL0     H30073   6.849   0.353   0.177  1.0967  0.3365 -1.2262
  964MOL0     H30074   6.594   0.333   0.120 -1.7675  1.3212 -2.1160
  964MOL0     H30075   6.415   0.617  -0.186 -0.0779 -0.2895 -1.4960
  964MOL0     H30076   6.459   0.456  -0.240  1.6158  1.1028  0.9509
  964MOL0     H30077   6.226   0.467  -0.280 -2.8121 -1.2933  0.6889
  964MOL0     H30078   6.234   0.381  -0.127  2.1824  0.5984  2.3451
  964MOL0     H30079   6.212   0.584   0.008  0.4933  0.2621  0.2481
  964MOL0     H30080   6.193   0.673  -0.135  0.8115 -0.4537 -0.0027
  964MOL0     H30081   5.997   0.522  -0.204 -3.0310 -0.4870  1.5156
  964MOL0     H30082   5.989   0.452  -0.045  0.7146 -0.2461 -1.6116
  964MOL0     H30083   5.964   0.753  -0.115 -0.8105  1.4588  1.4379
  964MOL0     H30084   5.834   0.644  -0.066  0.9152 -2.0943 -0.5433
  964MOL0     H30085   5.929   0.620   0.163  0.4132 -0.0755  0.0704
  964MOL0     H30086   6.074   0.712   0.125  0.1969  0.1114 -0.2175
  964MOL0     H30087   5.938   0.911   0.074  0.1951 -0.2043 -0.2872
  964MOL0     H30088   5.787   0.818   0.105 -0.7255  0.6737  2.2733
  964MOL0     H30089   6.001   0.826   0.320 -1.9627 -2.4089 -1.0287
  964MOL0     H30090   5.826   0.833   0.330 -1.4846  0.5330 -1.0722
  964MOL0     H30091   5.707   1.060   0.367 -0.5154  2.0216 -2.6310
  964MOL0     H30092   5.714   1.355   0.347  2.8493 -0.6791 -1.8927
  964MOL0     H30093   5.710   1.287   0.508 -0.9201 -0.0949  0.0452
  964MOL0     H30094   5.938   1.465   0.386 -2.5721  1.9295 -0.3965
  964MOL0     H30095   5.952   1.372   0.533 -1.0162 -2.1549 -0.9416
  964MOL0     H30096   5.784   1.514   0.652  2.2791 -0.0123  0.5713
  964MOL0     H30097   5.738   1.598   0.497  1.2343  0.2392 -1.2281
  964MOL0     H30098   6.021   1.594   0.593  0.1041  0.4643  0.0177
  964MOL0     H30099   5.906   1.720   0.645 -2.0985 -0.2647 -0.0557
  964MOL0     H30100   5.960   1.839   0.229  0.2113 -0.9697  1.2644
  964MOL0     H30101   6.193   2.066   0.052  1.6605 -0.1675 -0.2076
  964MOL0     H30102   6.228   1.889   0.024 -0.6953 -1.1321  1.4928
  964MOL0     H30103   6.061   1.954   0.034 -1.5047 -1.6134  4.3692
  964MOL0     H30104   6.572   2.237   0.298 -0.5449 -1.3638  0.8913
  964MOL0     H30105   6.804   2.313   0.204 -3.2373 -0.9200 -3.0213
  964MOL0     H30106   7.024   2.337   0.086 -2.1109 -0.2020  0.6037
  964MOL0     H30107   7.052   2.352   0.260 -0.5383  2.1684 -1.3795
  964MOL0     H30108   7.244   2.406   0.181 -0.5506  0.0472  1.1947
  964MOL0     H30109   7.282   2.254   0.240 -0.9159  0.8263 -0.5805
  964MOL0     H30110   7.211   2.291  -0.059 -1.0532  0.3220 -0.1458
  964MOL0     H30111   7.270   2.148   0.037 -2.2747  0.0371  2.6377
  964MOL0     H30112   7.412   2.415  -0.045  1.1379  0.4196  1.1502
  964MOL0     H30113   7.470   2.328   0.096  0.8056  1.4301  0.3016
  964MOL0     H30114   7.469   2.231  -0.185 -1.9783  1.1407  0.6632
  964MOL0     H30115   7.517   2.118  -0.059 -2.2367 -0.6032 -2.9595
  964MOL0     H30116   7.662   2.379  -0.114 -2.5618 -0.3109 -0.3937
  964MOL0     H30117   7.683   2.281   0.031 -0.2869 -0.6944 -0.5633
  964MOL0     H30118   7.703   2.178  -0.266  1.0379 -0.7243 -0.9464
  964MOL0     H30119   7.767   2.090  -0.130 -0.9981 -0.6597 -0.7216
  964MOL0     H30120   7.868   2.322  -0.283  1.8649  1.8262  0.6084
  964MOL0     H30121   7.955   2.175  -0.231 -1.9146 -0.3548 -0.9814
  964MOL0     H30122   6.962   1.919   0.267  1.3661  2.3786 -1.1411
  964MOL0     H30123   6.727   1.833   0.334  1.4531 -0.8376  1.5932
  964MOL0     H30124   6.389   1.840   0.473  1.7136 -0.8595 -3.3061
  964MOL0     H30125   6.201   1.744   0.565  0.0339 -1.2855 -1.4881
  964MOL0     H30126   6.622   0.666  -0.139  0.2300 -0.4749 -1.3399
  964MOL0     H30127   6.860   0.699  -0.073 -2.7482  1.8913 -1.3505
  964MOL0     H30128   7.199   0.720   0.102  2.0171  2.4031  2.5405
  964MOL0     H30129   7.417   0.804   0.158  0.9509  0.1367  2.0439
  964MOL0     H30130   7.629   0.841   0.208 -1.7597 -0.9649  1.1695
  964MOL0     H30131   7.642   0.801   0.375  1.4400 -0.7404  0.6021
  964MOL0     H30132   7.868   0.690   0.344 -0.0356 -1.7440 -2.6043
  964MOL0     H30133   7.864   0.861   0.306  0.6989  0.9977 -1.8599
  964MOL0     H30134   7.855   0.793   0.057 -1.7949  0.6773  0.6008
  964MOL0     H30135   7.837   0.626   0.108  0.5828  0.6507 -0.1754
  964MOL0     H30136   8.091   0.648   0.197  1.4279  1.6052  0.2109
  964MOL0     H30137   8.093   0.811   0.143 -1.1482  0.2181  0.7093
  964MOL0     H30138   8.101   0.630  -0.229  0.5766 -0.1112  0.4642
  964MOL0     H30139   7.533   0.400   0.265  0.3717  1.6206  1.0960
  964MOL0     H30140   7.335   0.320   0.163 -0.8150 -0.4839  0.3814
  965MOL0     O30141   2.282  10.672   6.721  0.2992  0.5908  0.1595
  965MOL0     C30142   2.384  10.716   6.671 -0.4765  0.1454 -0.1042
  965MOL0     O30143   2.441  10.841   6.704 -0.7358  0.2925  0.4264
  965MOL0     C30144   2.398  10.937   6.797 -0.1270  0.8125  0.0130
  965MOL0     C30145   2.268  10.927   6.860  0.0146 -0.2268  0.6651
  965MOL0     C30146   2.239  11.029   6.953  0.4014 -0.6803 -0.5237
  965MOL0     C30147   2.332  11.126   7.001  0.7393  0.4022  0.7482
  965MOL0     O30148   2.307  11.225   7.097 -0.2616 -0.0852 -0.0264
  965MOL0     C30149   2.204  11.217   7.193 -0.1675  0.1706  0.0714
  965MOL0     C30150   2.239  11.315   7.317  0.5598  0.4156 -0.9343
  965MOL0     C30151   2.369  11.272   7.387 -0.6165 -0.1675  0.5854
  965MOL0     C30152   2.403  11.374   7.500  0.3407  0.2865 -0.1229
  965MOL0     C30153   2.513  11.332   7.594 -0.8930  0.0047  0.1154
  965MOL0     C30154   2.471  11.248   7.699  0.3590  0.3154 -0.2458
  965MOL0     C30155   2.587  11.229   7.798  0.4470  0.6028  0.5027
  965MOL0     C30156   2.570  11.106   7.891 -0.3070  0.3473  1.1161
  965MOL0     N30157   2.686  11.082   7.978  0.3800  0.4650 -0.0990
  965MOL0     C30158   2.811  11.043   7.934  0.5733  0.1316 -0.1453
  965MOL0     C30159   2.890  11.034   8.043 -0.0355  0.0837  0.0665
  965MOL0     C30160   3.039  11.003   8.053  0.2469 -0.1578 -0.5704
  965MOL0     C30161   3.108  10.928   7.929  0.6588 -0.6391  0.3522
  965MOL0     C30162   3.246  10.863   7.948 -0.1626  0.2124 -0.3537
  965MOL0     C30163   3.361  10.959   7.959 -0.3931 -0.5196  0.6658
  965MOL0     O30164   3.336  11.068   7.871 -0.1563  0.1980 -0.2638
  965MOL0     C30165   3.363  11.058   7.737  1.0722  0.8337 -0.1357
  965MOL0     C30166   3.451  10.967   7.675  0.3391 -0.2796 -0.3931
  965MOL0     C30167   3.491  10.990   7.543  0.0560  0.0615 -0.1194
  965MOL0     C30168   3.610  10.908   7.498 -0.4530  0.8333 -0.1021
  965MOL0     C30169   3.435  11.094   7.466 -0.0405  0.5794 -0.1091
  965MOL0     C30170   3.465  11.129   7.322  0.2793 -0.6696 -0.4699
  965MOL0     O30171   3.392  11.233   7.270  0.5331 -0.8848 -0.8100
  965MOL0     C30172   3.393  11.251   7.138  1.0962 -0.0221  0.4993
  965MOL0     C30173   3.357  11.147   7.043  0.7090  0.0627  1.1126
  965MOL0     C30174   3.346  11.174   6.906  0.4117  0.4063  0.0029
  965MOL0     C30175   3.348  11.308   6.862  0.1286 -0.5156  0.2139
  965MOL0     O30176   3.324  11.346   6.735 -0.1752 -0.1841  0.1916
  965MOL0     C30177   3.229  11.259   6.671 -0.1213 -0.1840 -0.3091
  965MOL0     C30178   3.191  11.307   6.528  0.2711 -0.4689 -0.1480
  965MOL0     C30179   3.091  11.217   6.453  0.3669  0.8105 -0.5259
  965MOL0     C30180   3.027  11.283   6.334 -0.2607  0.5405 -0.4586
  965MOL0     C30181   2.941  11.182   6.260 -0.8256 -0.1788 -0.8531
  965MOL0     C30182   2.870  11.248   6.140 -0.3867  0.5892 -1.0088
  965MOL0     C30183   2.808  11.142   6.050  0.6087 -0.0616  0.9988
  965MOL0     C30184   2.698  11.214   5.977  0.7346 -1.2027  0.2977
  965MOL0    Cl30185   2.621  11.119   5.853 -0.0687  0.0532  0.2661
  965MOL0     C30186   3.391  11.406   6.954  0.1003 -0.1408  0.7740
  965MOL0     C30187   3.406  11.379   7.089  0.3465 -0.0100 -0.1174
  965MOL0     O30188   3.544  11.062   7.258 -0.5553 -1.0174  0.0076
  965MOL0     C30189   3.338  11.174   7.525  0.7388 -0.3414 -0.7558
  965MOL0     C30190   3.305  11.154   7.658  0.4518 -0.6929  0.1679
  965MOL0     N30191   2.803  11.076   8.149  0.1898 -0.0793  0.5202
  965MOL0     N30192   2.693  11.113   8.107 -0.0714  0.3370 -0.3538
  965MOL0     C30193   2.457  11.132   6.935  0.8922  0.1569 -1.2187
  965MOL0     C30194   2.482  11.042   6.834 -0.0667 -0.1595  0.6621
  965MOL0     C30195   2.447  10.635   6.569  0.3495 -0.1475  0.4155
  965MOL0     C30196   2.560  10.691   6.506 -0.5102  0.8545 -0.0324
  965MOL0     C30197   2.627  10.624   6.399 -0.1647  0.6037  0.1643
  965MOL0     C30198   2.570  10.501   6.355 -0.3958 -0.3319 -0.4485
  965MOL0     O30199   2.630  10.445   6.246 -0.4627 -1.2357  0.2289
  965MOL0     C30200   2.658  10.307   6.267 -0.2047  0.4229  0.4358
  965MOL0     C30201   2.776  10.264   6.184 -0.0883 -0.0171  0.6189
  965MOL0     C30202   2.751  10.264   6.027  0.2396 -0.3780 -0.4635
  965MOL0     C30203   2.632  10.175   5.977 -0.1034  0.1170  0.0541
  965MOL0     C30204   2.503  10.242   5.992  0.4617  0.4656  0.6872
  965MOL0     C30205   2.386  10.277   5.993 -0.0842 -1.2137 -0.1010
  965MOL0     C30206   2.460  10.444   6.422 -0.0119 -0.3905  0.1441
  965MOL0     C30207   2.398  10.510   6.526  0.2220  0.0329 -0.7545
  965MOL0     H30208   2.183  10.869   6.825 -0.2072  1.5600 -2.0421
  965MOL0     H30209   2.135  11.039   6.980  0.3325 -2.4521 -0.0034
  965MOL0     H30210   2.111  11.255   7.148 -0.0756 -0.5765 -0.7857
  965MOL0     H30211   2.195  11.118   7.237  0.6675  0.7361  1.5607
  965MOL0     H30212   2.246  11.421   7.291 -2.4634  0.9037 -0.1911
  965MOL0     H30213   2.160  11.296   7.390  2.4733 -0.9303  0.9195
  965MOL0     H30214   2.358  11.168   7.419 -0.0716 -0.3201  0.2951
  965MOL0     H30215   2.460  11.281   7.327 -0.8938  0.1527  0.2025
  965MOL0     H30216   2.424  11.474   7.461  2.2874  1.1590  2.8392
  965MOL0     H30217   2.315  11.388   7.564 -0.9866 -1.6893 -1.4102
  965MOL0     H30218   2.600  11.297   7.537  1.4811  4.1212  0.8527
  965MOL0     H30219   2.545  11.425   7.642  0.2347  0.0596 -0.6840
  965MOL0     H30220   2.387  11.289   7.757  1.3762 -0.9552  2.3048
  965MOL0     H30221   2.435  11.152   7.661 -0.2246  1.9906 -4.4518
  965MOL0     H30222   2.683  11.224   7.746  1.6757  1.2148  2.5787
  965MOL0     H30223   2.583  11.314   7.867 -0.4101  1.8317 -1.0015
  965MOL0     H30224   2.559  11.015   7.830 -2.6699  1.1973  0.1481
  965MOL0     H30225   2.478  11.121   7.948 -1.4716 -2.3071  0.1050
  965MOL0     H30226   2.843  11.035   7.830 -1.1308 -1.3760 -0.6031
  965MOL0     H30227   3.097  11.095   8.067 -1.3692  0.5715  1.9993
  965MOL0     H30228   3.049  10.934   8.137 -2.2582 -0.9970 -0.8766
  965MOL0     H30229   3.100  10.996   7.844  1.0868 -0.7019  0.2611
  965MOL0     H30230   3.042  10.846   7.901 -0.4736  0.0665  0.8381
  965MOL0     H30231   3.251  10.797   7.861  1.6277 -1.2213  0.7674
  965MOL0     H30232   3.250  10.802   8.039  1.0176 -1.8259 -1.6948
  965MOL0     H30233   3.460  10.915   7.947  1.0686  2.6201  0.1704
  965MOL0     H30234   3.366  11.007   8.057  1.1466  0.8331 -0.0202
  965MOL0     H30235   3.497  10.891   7.738 -1.6638  0.0836  1.6419
  965MOL0     H30236   3.557  10.816   7.473 -0.3748  0.1854  2.0000
  965MOL0     H30237   3.661  10.937   7.405 -1.3534 -1.5600 -1.4302
  965MOL0     H30238   3.677  10.877   7.578 -1.3772  2.7273  1.4881
  965MOL0     H30239   3.349  11.043   7.075 -1.0530 -0.8607 -1.9247
  965MOL0     H30240   3.327  11.091   6.839  0.0026 -0.4836  1.2023
  965MOL0     H30241   3.275  11.161   6.652 -0.3384 -0.9222  2.5063
  965MOL0     H30242   3.138  11.265   6.731 -0.0925 -1.2549 -0.1358
  965MOL0     H30243   3.149  11.408   6.527  1.3376  0.0661 -3.7861
  965MOL0     H30244   3.288  11.319   6.478  0.4655  0.3178  0.3909
  965MOL0     H30245   3.014  11.193   6.527 -0.3045  2.9185 -0.4575
  965MOL0     H30246   3.143  11.131   6.409  0.2541 -0.2778  1.3755
  965MOL0     H30247   2.967  11.370   6.361 -0.7371 -0.9854  4.4580
  965MOL0     H30248   3.104  11.319   6.265 -0.0445  1.4868  0.2495
  965MOL0     H30249   2.862  11.140   6.323 -2.9629  3.2306 -0.9918
  965MOL0     H30250   3.016  11.111   6.224  1.7673  1.3219  1.2480
  965MOL0     H30251   2.790  11.311   6.181  2.3000  2.2698  2.1540
  965MOL0     H30252   2.934  11.322   6.090  0.0739  2.8340  2.5524
  965MOL0     H30253   2.764  11.058   6.104 -0.9957  0.2237  0.1858
  965MOL0     H30254   2.880  11.090   5.987 -0.8924 -0.3683 -0.5114
  965MOL0     H30255   2.741  11.301   5.925  1.1382  1.1663  4.1534
  965MOL0     H30256   2.630  11.261   6.048 -3.8297 -3.3582 -2.1614
  965MOL0     H30257   3.406  11.505   6.913 -4.4220 -0.1139 -1.3732
  965MOL0     H30258   3.426  11.463   7.154 -1.0806 -0.1440  0.5343
  965MOL0     H30259   3.277  11.243   7.469 -0.5222 -0.1301  0.8066
  965MOL0     H30260   3.219  11.208   7.697  1.5085  1.8403 -0.7643
  965MOL0     H30261   2.531  11.203   6.970  0.9030 -1.1634  1.7629
  965MOL0     H30262   2.576  11.061   6.784 -0.3545 -2.9236 -1.1651
  965MOL0     H30263   2.609  10.784   6.530  3.8567 -1.4622  1.1346
  965MOL0     H30264   2.720  10.661   6.358 -0.0370 -0.7047 -0.7963
  965MOL0     H30265   2.674  10.285   6.373  0.2878  0.7729  0.4365
  965MOL0     H30266   2.582  10.235   6.236  1.4421 -1.2678  0.1728
  965MOL0     H30267   2.800  10.161   6.212 -0.2534  0.1599  1.4579
  965MOL0     H30268   2.862  10.325   6.212 -0.4210 -0.2643  2.3105
  965MOL0     H30269   2.836  10.220   5.973  1.3265  1.5480 -0.4396
  965MOL0     H30270   2.744  10.362   5.978  4.6223  0.0125 -0.7741
  965MOL0     H30271   2.634  10.081   6.033 -2.0206 -0.6619 -1.0933
  965MOL0     H30272   2.640  10.139   5.874 -2.2248  1.2529 -0.5789
  965MOL0     H30273   2.283  10.298   6.013  0.0309 -0.1943 -0.4870
  965MOL0     H30274   2.416  10.352   6.383  0.8805  0.2463 -2.6180
  965MOL0     H30275   2.303  10.479   6.569  0.8106 -1.8146 -0.7289
  966MOL0     O30276   4.267   9.834   2.101  0.7337  0.3060 -0.2506
  966MOL0     C30277   4.255   9.831   1.978  0.4059 -0.2336 -0.3118
  966MOL0     O30278   4.362   9.816   1.889 -0.1236 -0.1758  0.4693
  966MOL0     C30279   4.483   9.838   1.943 -0.0048  0.0282 -0.0029
  966MOL0     C30280   4.545   9.750   2.036  0.1454 -0.1783  0.6802
  966MOL0     C30281   4.678   9.764   2.063  0.0716 -0.1432 -0.1612
  966MOL0     C30282   4.751   9.874   2.018 -0.1882  0.3340  0.2725
  966MOL0     O30283   4.877   9.882   2.082  0.4807  0.3295  0.9050
  966MOL0     C30284   4.976   9.958   2.016 -0.0490  0.5167  0.4507
  966MOL0     C30285   5.110   9.918   2.085 -0.0181  0.6456  0.0313
  966MOL0     C30286   5.226  10.002   2.041  0.2820 -0.5978 -0.0090
  966MOL0     C30287   5.361   9.924   2.078  0.1597  0.2568  0.9691
  966MOL0     C30288   5.496   9.985   2.031 -0.5365 -0.1294 -0.6869
  966MOL0     C30289   5.631   9.915   2.033 -0.4510  0.1476  0.3211
  966MOL0     C30290   5.746  10.004   1.988  0.8921  0.3757 -0.6942
  966MOL0     C30291   5.880   9.928   1.958 -0.2726  0.6617  0.0783
  966MOL0     N30292   5.984  10.026   1.925  0.1590  0.4505  0.3384
  966MOL0     C30293   6.075  10.011   1.819  0.4709  0.0137 -0.5055
  966MOL0     C30294   6.155  10.113   1.829 -0.8869 -0.5047  0.1927
  966MOL0     C30295   6.269  10.144   1.737  0.3933  0.0444  0.0810
  966MOL0     C30296   6.215  10.198   1.609  0.0166 -0.4875 -0.4868
  966MOL0     C30297   6.136  10.331   1.641  0.2416  0.6558 -0.0650
  966MOL0     C30298   6.144  10.415   1.517 -0.4321 -0.1647  0.3031
  966MOL0     O30299   6.095  10.354   1.399 -0.3661 -0.5435 -0.4294
  966MOL0     C30300   5.968  10.319   1.381 -0.4269  0.4896 -0.0761
  966MOL0     C30301   5.932  10.227   1.289 -0.2284  0.8151  0.8162
  966MOL0     C30302   5.807  10.174   1.262  0.4175 -0.1003  0.0168
  966MOL0     C30303   5.810  10.074   1.144 -0.0495  0.2536  0.6994
  966MOL0     C30304   5.698  10.219   1.338  0.0270  0.3167 -0.4152
  966MOL0     C30305   5.562  10.161   1.325 -0.3878 -0.7146 -0.3382
  966MOL0     O30306   5.467  10.247   1.368  0.7879  1.1628  0.0108
  966MOL0     C30307   5.347  10.176   1.395  0.8034 -0.4668 -0.6359
  966MOL0     C30308   5.255  10.137   1.301  0.2099 -0.5857  0.6681
  966MOL0     C30309   5.143  10.064   1.336 -0.6379 -0.2452 -0.6552
  966MOL0     C30310   5.111  10.029   1.469 -0.1265 -0.3423 -0.3940
  966MOL0     O30311   4.988   9.960   1.495 -0.4159  0.2720  0.5782
  966MOL0     C30312   4.958   9.918   1.622 -0.9154  0.4217  0.5176
  966MOL0     C30313   4.832   9.833   1.618  0.9365  0.3202  0.1776
  966MOL0     C30314   4.720   9.922   1.552  0.6249 -0.3761 -0.3176
  966MOL0     C30315   4.592   9.842   1.545  0.2717  0.4346 -0.3160
  966MOL0     C30316   4.473   9.936   1.503  0.4156  0.3095 -0.6240
  966MOL0     C30317   4.347   9.864   1.471 -0.0231  0.0383 -0.6813
  966MOL0     C30318   4.233   9.962   1.448  0.1753 -0.5747  0.2845
  966MOL0     C30319   4.121   9.887   1.383  0.0398 -0.0554  0.3605
  966MOL0    Cl30320   3.990  10.002   1.369 -0.1787 -0.3717  0.0263
  966MOL0     C30321   5.201  10.070   1.569  0.4387 -0.0712  1.0811
  966MOL0     C30322   5.325  10.137   1.530  0.4232  0.0055  0.4356
  966MOL0     O30323   5.543  10.055   1.274 -0.8847 -0.8194 -0.2208
  966MOL0     C30324   5.727  10.327   1.421  0.2007  0.2070  0.1356
  966MOL0     C30325   5.865  10.373   1.447  0.1012  0.6419 -0.1927
  966MOL0     N30326   6.117  10.200   1.933 -0.9873 -0.5597  0.3492
  966MOL0     N30327   6.010  10.146   1.981 -0.4486 -0.5616  0.0281
  966MOL0     C30328   4.694   9.966   1.933 -0.3613 -0.1572 -0.2405
  966MOL0     C30329   4.564   9.943   1.887  0.2919  1.0127  0.1001
  966MOL0     C30330   4.121   9.819   1.926  0.4446  0.5466  1.0240
  966MOL0     C30331   4.010   9.771   1.993  0.2018 -0.2533 -0.6057
  966MOL0     C30332   3.880   9.767   1.936 -1.0048 -0.4799  0.0473
  966MOL0     C30333   3.857   9.802   1.804  0.8163 -0.1007  0.0269
  966MOL0     O30334   3.729   9.806   1.756 -0.3672 -0.0374 -0.1742
  966MOL0     C30335   3.701   9.859   1.623  0.0478 -0.1796 -0.0161
  966MOL0     C30336   3.714  10.009   1.612 -0.3455 -0.0743 -0.2493
  966MOL0     C30337   3.591  10.076   1.671  0.2504  0.0882 -0.2480
  966MOL0     C30338   3.465  10.084   1.584  0.5624 -0.0299  0.0634
  966MOL0     C30339   3.485  10.172   1.467 -0.2119  0.6634 -0.2324
  966MOL0     C30340   3.505  10.245   1.374  0.6776  0.5423 -0.1443
  966MOL0     C30341   3.966   9.840   1.731  0.5774  0.0692  0.2907
  966MOL0     C30342   4.096   9.862   1.790 -0.2013  0.4473  0.1800
  966MOL0     H30343   4.494   9.674   2.093  0.0893 -0.7798 -0.1614
  966MOL0     H30344   4.714   9.703   2.145 -0.6028  2.5512  2.3150
  966MOL0     H30345   4.977   9.910   1.917  1.2033 -0.4407  0.9039
  966MOL0     H30346   4.963  10.066   2.024  0.4168  0.6147 -0.0737
  966MOL0     H30347   5.100   9.933   2.193  2.7046 -1.2236  0.6332
  966MOL0     H30348   5.128   9.813   2.062 -1.2253  0.8903 -2.3368
  966MOL0     H30349   5.221  10.011   1.932  2.3489 -1.2252 -0.1960
  966MOL0     H30350   5.214  10.094   2.098  1.2779 -0.8182  0.5788
  966MOL0     H30351   5.366   9.896   2.184 -1.7565 -0.3981  0.9234
  966MOL0     H30352   5.357   9.827   2.028 -0.3159  2.0203 -2.7210
  966MOL0     H30353   5.497  10.014   1.926  3.0230  2.0297 -0.2456
  966MOL0     H30354   5.503  10.074   2.095 -0.3138  0.5795 -1.6905
  966MOL0     H30355   5.645   9.872   2.132  0.8990 -0.2378 -0.0160
  966MOL0     H30356   5.626   9.836   1.957  0.6941 -1.1126  1.5092
  966MOL0     H30357   5.714  10.060   1.899 -1.5168  0.2073 -0.0289
  966MOL0     H30358   5.764  10.076   2.068  2.2839  0.8080 -1.3672
  966MOL0     H30359   5.872   9.855   1.877  0.3614  2.1755 -1.4003
  966MOL0     H30360   5.914   9.874   2.047  1.0605  0.6702 -0.4112
  966MOL0     H30361   6.075   9.928   1.749 -1.1031 -2.3111  2.0289
  966MOL0     H30362   6.330  10.225   1.777  1.2974 -0.4063 -0.3538
  966MOL0     H30363   6.330  10.055   1.716  1.9725  1.4856 -1.7516
  966MOL0     H30364   6.136  10.138   1.562 -1.1514 -0.1362  0.9510
  966MOL0     H30365   6.300  10.212   1.542  1.1260 -0.5171  0.8866
  966MOL0     H30366   6.191  10.389   1.716  1.1089 -0.1874 -0.0246
  966MOL0     H30367   6.034  10.306   1.670  1.1809  0.8583  4.0372
  966MOL0     H30368   6.246  10.441   1.487  0.0889 -2.8082 -0.5710
  966MOL0     H30369   6.082  10.503   1.535 -2.1708 -1.3265  0.2307
  966MOL0     H30370   6.015  10.198   1.225  1.7260  2.6857  2.3722
  966MOL0     H30371   5.894  10.099   1.079 -1.0027 -0.1780 -0.7546
  966MOL0     H30372   5.824   9.973   1.183  0.4597  0.5943  1.4214
  966MOL0     H30373   5.719  10.078   1.084  2.0008 -4.3035 -3.4452
  966MOL0     H30374   5.283  10.167   1.200 -4.2137 -3.0033 -1.5441
  966MOL0     H30375   5.077  10.024   1.259 -0.8269 -1.8284  0.2747
  966MOL0     H30376   5.030   9.844   1.659  0.8097  3.0228  2.7904
  966MOL0     H30377   4.953  10.006   1.687 -1.1860 -0.3821  1.6038
  966MOL0     H30378   4.862   9.746   1.558  0.6521  1.3305 -1.4855
  966MOL0     H30379   4.794   9.786   1.709 -0.4842 -0.7054 -0.9026
  966MOL0     H30380   4.746   9.967   1.456 -0.9527 -0.5637 -0.8526
  966MOL0     H30381   4.707  10.008   1.619  1.2013 -0.1774 -0.4571
  966MOL0     H30382   4.598   9.776   1.458  0.4621 -0.7032  0.5269
  966MOL0     H30383   4.572   9.786   1.637 -0.5522  2.9057  1.0797
  966MOL0     H30384   4.507   9.983   1.410 -0.2625  1.8845 -0.1082
  966MOL0     H30385   4.456  10.009   1.583  0.1493 -1.8374  1.3813
  966MOL0     H30386   4.373   9.808   1.380 -0.1739 -0.7840 -0.2331
  966MOL0     H30387   4.320   9.790   1.547  0.9086 -1.9412 -2.1765
  966MOL0     H30388   4.258  10.052   1.392 -1.8244  0.4146  0.8843
  966MOL0     H30389   4.198  10.007   1.542 -1.1670  0.1755 -0.5379
  966MOL0     H30390   4.101   9.801   1.447 -0.6286  0.0314  0.2693
  966MOL0     H30391   4.146   9.840   1.287 -3.2708 -1.4265  0.0484
  966MOL0     H30392   5.182  10.048   1.674  1.1133 -1.1710  0.9912
  966MOL0     H30393   5.389  10.161   1.614  1.5772 -2.3346  0.2961
  966MOL0     H30394   5.650  10.387   1.470  0.2316  2.4553 -2.3705
  966MOL0     H30395   5.887  10.467   1.497  0.6006  0.9355 -0.9444
  966MOL0     H30396   4.747  10.048   1.884  1.7020 -2.1628 -1.5465
  966MOL0     H30397   4.520  10.005   1.809 -0.7019  0.3151  0.0855
  966MOL0     H30398   4.024   9.731   2.093 -2.0195  1.0123  0.2895
  966MOL0     H30399   3.803   9.724   1.998  0.4182 -2.5002  0.5037
  966MOL0     H30400   3.756   9.811   1.542  2.0667  0.5652  0.8606
  966MOL0     H30401   3.599   9.824   1.604 -0.2582  1.2934 -1.2499
  966MOL0     H30402   3.736  10.048   1.512  2.8836 -0.3984  0.2484
  966MOL0     H30403   3.797  10.048   1.671  0.8249 -2.2666 -0.3133
  966MOL0     H30404   3.623  10.179   1.691 -1.4490  0.5617  0.2323
  966MOL0     H30405   3.557  10.044   1.770 -1.5731 -3.7325 -1.9118
  966MOL0     H30406   3.392  10.129   1.652  0.9572 -1.6652  1.6801
  966MOL0     H30407   3.428   9.984   1.559 -4.8299  1.5702  0.3503
  966MOL0     H30408   3.510  10.312   1.291  1.9966 -2.2207 -2.4930
  966MOL0     H30409   3.952   9.878   1.631 -2.6316  2.6398  1.5288
  966MOL0     H30410   4.170   9.914   1.729  1.3143 -1.8025 -0.0275
  967MOL0     O30411   4.337   6.298   8.140  0.6375  0.5538 -0.0873
  967MOL0     C30412   4.361   6.293   8.257 -0.3083  0.3815  0.0273
  967MOL0     O30413   4.281   6.254   8.355 -0.7947 -0.0817 -0.0307
  967MOL0     C30414   4.149   6.223   8.325  0.5262  0.4361  0.2226
  967MOL0     C30415   4.102   6.103   8.373 -0.5114 -0.4676  0.1157
  967MOL0     C30416   3.981   6.048   8.344  0.6111  0.2610 -0.1323
  967MOL0     C30417   3.899   6.118   8.259  0.2984  0.1249 -0.2250
  967MOL0     O30418   3.787   6.070   8.209  1.0809 -0.4560  0.9183
  967MOL0     C30419   3.793   5.941   8.143  0.0449  0.0029  0.4041
  967MOL0     C30420   3.679   5.906   8.046  0.2128  0.4254 -0.0541
  967MOL0     C30421   3.538   5.908   8.092 -1.3712 -0.6219 -0.1336
  967MOL0     C30422   3.466   5.788   8.030  0.8134 -0.0467  0.1564
  967MOL0     C30423   3.316   5.797   8.072  0.2482 -0.2837  0.2546
  967MOL0     C30424   3.246   5.662   8.044  0.7457  0.6094  0.2584
  967MOL0     C30425   3.104   5.659   8.095  0.1779 -0.8001  0.6643
  967MOL0     C30426   3.026   5.539   8.053  0.6245 -0.7899  0.1874
  967MOL0     N30427   2.925   5.505   8.162 -0.0977 -0.2462  0.6429
  967MOL0     C30428   2.820   5.589   8.181 -0.1344 -0.1958  0.1645
  967MOL0     C30429   2.736   5.528   8.265 -0.5401  0.0243 -0.3285
  967MOL0     C30430   2.619   5.584   8.343  0.0596  0.1039 -0.8744
  967MOL0     C30431   2.539   5.487   8.428  0.5248 -0.2763 -0.6686
  967MOL0     C30432   2.440   5.571   8.520  0.1111  0.6934  0.6998
  967MOL0     C30433   2.378   5.480   8.618 -0.2616 -0.0237 -0.7966
  967MOL0     O30434   2.313   5.364   8.558 -0.5131  0.1093 -0.4141
  967MOL0     C30435   2.259   5.266   8.633 -0.1067 -0.7510 -0.3400
  967MOL0     C30436   2.132   5.282   8.672  0.7124  0.0354 -0.0844
  967MOL0     C30437   2.061   5.186   8.749 -0.2455 -0.4543 -0.6078
  967MOL0     C30438   1.918   5.203   8.774  0.5522  1.0553 -0.1371
  967MOL0     C30439   2.142   5.076   8.791 -0.4981  0.3223  0.4255
  967MOL0     C30440   2.084   4.964   8.876  0.2410 -0.1866  0.7476
  967MOL0     O30441   2.018   5.001   8.983 -0.5341 -0.3516  0.0564
  967MOL0     C30442   1.960   4.909   9.067 -0.6068  0.4984 -0.1522
  967MOL0     C30443   2.027   4.848   9.171 -0.3122 -0.0107 -0.5443
  967MOL0     C30444   1.963   4.748   9.260 -0.4454 -0.6224 -0.3321
  967MOL0     C30445   1.824   4.721   9.238 -1.2187  0.8045  0.0776
  967MOL0     O30446   1.735   4.650   9.321  0.3309 -0.0479  0.4849
  967MOL0     C30447   1.800   4.568   9.415  0.9111  0.0383  0.3816
  967MOL0     C30448   1.703   4.487   9.507 -0.7406 -0.2979  0.4957
  967MOL0     C30449   1.585   4.432   9.433 -1.5665 -0.2255 -0.9024
  967MOL0     C30450   1.494   4.343   9.517  0.0699 -0.0600  0.1070
  967MOL0     C30451   1.371   4.294   9.440  0.3050  0.3497 -0.3023
  967MOL0     C30452   1.260   4.250   9.543  0.0438  0.0109  0.8037
  967MOL0     C30453   1.154   4.158   9.468  0.4401 -0.0410  0.1124
  967MOL0     C30454   1.058   4.108   9.562  0.6654 -0.1513 -0.1945
  967MOL0    Cl30455   0.999   3.960   9.498 -0.1045 -0.1138  0.4152
  967MOL0     C30456   1.751   4.792   9.134  0.0317  0.8679  0.1069
  967MOL0     C30457   1.821   4.882   9.054  0.4859  0.2545 -0.5876
  967MOL0     O30458   2.118   4.848   8.853  0.7779  0.3068  0.3905
  967MOL0     C30459   2.271   5.058   8.740 -0.3496 -0.0359 -0.1032
  967MOL0     C30460   2.332   5.150   8.661  0.6819 -0.4027 -0.4373
  967MOL0     N30461   2.796   5.408   8.300 -0.1783 -0.0931 -0.1453
  967MOL0     N30462   2.903   5.392   8.228 -0.1421 -0.3444  1.0402
  967MOL0     C30463   3.936   6.245   8.215  1.0184  0.6155 -0.1903
  967MOL0     C30464   4.063   6.298   8.244 -0.2881  0.8002 -0.4123
  967MOL0     C30465   4.505   6.309   8.303 -0.7057 -0.3053  0.2669
  967MOL0     C30466   4.612   6.308   8.214 -0.0215  0.7207 -0.2422
  967MOL0     C30467   4.749   6.319   8.245  0.5218 -0.4645 -0.7347
  967MOL0     C30468   4.792   6.344   8.385  0.1543 -1.0343  0.0006
  967MOL0     O30469   4.926   6.351   8.410  0.2491  0.0533 -0.5060
  967MOL0     C30470   4.974   6.303   8.536  0.1962 -0.2325 -1.3394
  967MOL0     C30471   5.118   6.345   8.551 -0.1229  0.3211 -0.4602
  967MOL0     C30472   5.218   6.289   8.442  0.4115 -0.4853 -0.1872
  967MOL0     C30473   5.348   6.361   8.474 -0.3674 -0.3226  0.2528
  967MOL0     C30474   5.458   6.303   8.399  0.0751  0.5319 -0.5411
  967MOL0     C30475   5.550   6.244   8.348 -0.4948  0.3191 -0.3763
  967MOL0     C30476   4.685   6.361   8.474  0.1260 -0.4158 -0.2281
  967MOL0     C30477   4.543   6.343   8.441  0.1764  0.5178 -0.5356
  967MOL0     H30478   4.166   6.034   8.427  1.1989  1.8076  1.1340
  967MOL0     H30479   3.959   5.949   8.381 -0.2557 -0.0072 -1.3010
  967MOL0     H30480   3.889   5.929   8.092  1.8881  0.4233  3.4983
  967MOL0     H30481   3.788   5.865   8.222  0.0963 -0.3557  0.0683
  967MOL0     H30482   3.687   5.967   7.955 -0.0403 -1.6286 -1.5182
  967MOL0     H30483   3.694   5.803   8.014 -1.0829 -0.0413  0.8141
  967MOL0     H30484   3.533   5.895   8.201 -0.5184 -3.7891 -0.3736
  967MOL0     H30485   3.493   6.004   8.065 -1.2284 -0.5387 -0.0758
  967MOL0     H30486   3.468   5.787   7.921 -1.4910 -1.8308  0.0664
  967MOL0     H30487   3.517   5.700   8.068 -1.0248 -1.1914  0.0940
  967MOL0     H30488   3.318   5.811   8.181  3.0787  0.9944  0.1039
  967MOL0     H30489   3.266   5.888   8.039 -1.0800 -0.7861  0.7887
  967MOL0     H30490   3.250   5.624   7.941 -0.3742 -0.2493  0.5101
  967MOL0     H30491   3.293   5.584   8.105 -1.4955 -0.8167  0.2921
  967MOL0     H30492   3.106   5.660   8.205  1.1886  1.3704  0.6732
  967MOL0     H30493   3.051   5.748   8.061 -2.2242 -2.3720 -0.0139
  967MOL0     H30494   3.081   5.447   8.028  0.3053 -1.1876  0.9130
  967MOL0     H30495   2.962   5.566   7.968 -1.8748 -1.8248  1.6236
  967MOL0     H30496   2.815   5.689   8.141 -1.1496 -0.5965 -0.7322
  967MOL0     H30497   2.651   5.672   8.400 -1.1547  0.4588 -0.7021
  967MOL0     H30498   2.554   5.612   8.260  1.9346 -0.2319 -2.5395
  967MOL0     H30499   2.606   5.432   8.495  0.4769 -2.9130 -2.5959
  967MOL0     H30500   2.497   5.405   8.368  3.9450 -1.7401 -1.3010
  967MOL0     H30501   2.358   5.610   8.459  0.4114 -1.0078 -0.8742
  967MOL0     H30502   2.496   5.652   8.568  1.3493  1.5409 -1.9572
  967MOL0     H30503   2.304   5.540   8.673  1.5787 -0.0137  1.8792
  967MOL0     H30504   2.449   5.444   8.693 -0.5537 -0.0745 -0.5418
  967MOL0     H30505   2.098   5.382   8.646 -1.8681  0.2479  3.2885
  967MOL0     H30506   1.872   5.292   8.732  2.4596  1.5055 -1.3607
  967MOL0     H30507   1.857   5.124   8.729  1.2447  0.4068  0.0249
  967MOL0     H30508   1.908   5.198   8.883  0.0643  3.3251 -0.0415
  967MOL0     H30509   2.130   4.870   9.195  0.3786 -0.2848 -2.9399
  967MOL0     H30510   2.024   4.696   9.333  1.7683 -0.6425 -2.0972
  967MOL0     H30511   1.859   4.497   9.356  0.0940  0.2126 -0.6582
  967MOL0     H30512   1.872   4.616   9.482  0.8017 -1.9217  2.0095
  967MOL0     H30513   1.763   4.408   9.552  1.4345  2.7481  3.4902
  967MOL0     H30514   1.657   4.548   9.586 -0.9039 -0.3002  0.4043
  967MOL0     H30515   1.628   4.374   9.350  3.6009 -0.0153  1.2471
  967MOL0     H30516   1.530   4.519   9.397 -2.7151 -0.8357 -0.6688
  967MOL0     H30517   1.562   4.267   9.556  1.7620  1.3191 -0.0352
  967MOL0     H30518   1.470   4.393   9.611 -3.0896 -1.6601  0.3198
  967MOL0     H30519   1.414   4.217   9.375  2.4553  0.6452  0.6924
  967MOL0     H30520   1.318   4.363   9.373  0.7030  0.3249 -0.6423
  967MOL0     H30521   1.306   4.187   9.619  2.5575 -0.8160 -1.2535
  967MOL0     H30522   1.225   4.346   9.581  0.4865  2.3296 -3.8964
  967MOL0     H30523   1.201   4.076   9.413  0.0734 -0.3078  0.1904
  967MOL0     H30524   1.113   4.213   9.383 -0.3485  1.1137  1.1991
  967MOL0     H30525   0.981   4.182   9.588  1.5868  0.9729 -0.5839
  967MOL0     H30526   1.115   4.083   9.652  1.9974  1.9578 -0.3917
  967MOL0     H30527   1.645   4.783   9.116  0.5960 -1.5378 -2.9349
  967MOL0     H30528   1.763   4.939   8.981 -3.3265 -1.0777  1.1815
  967MOL0     H30529   2.326   4.969   8.768 -0.3177  0.5038  1.6654
  967MOL0     H30530   2.428   5.120   8.621  0.4434  1.6963 -2.8322
  967MOL0     H30531   3.870   6.291   8.143 -1.4677  0.5915  1.9242
  967MOL0     H30532   4.102   6.390   8.200  1.0800 -0.4216 -1.9076
  967MOL0     H30533   4.586   6.311   8.109  0.9754  2.7323 -0.4842
  967MOL0     H30534   4.829   6.306   8.174  2.0792  0.0737  0.8394
  967MOL0     H30535   4.917   6.356   8.613  1.6032 -1.9886  1.0384
  967MOL0     H30536   4.975   6.195   8.552  0.8512 -0.0256  0.2291
  967MOL0     H30537   5.155   6.309   8.647 -0.5289 -1.3632 -0.9075
  967MOL0     H30538   5.117   6.455   8.549  0.2313  0.3860 -4.2483
  967MOL0     H30539   5.186   6.324   8.343  3.1891 -1.1684 -1.4142
  967MOL0     H30540   5.226   6.180   8.436 -3.3552 -0.8167 -3.3314
  967MOL0     H30541   5.366   6.361   8.582 -1.5730 -1.8813  0.4955
  967MOL0     H30542   5.346   6.468   8.450 -0.0708  0.2800  2.6354
  967MOL0     H30543   5.635   6.205   8.296  0.1353  1.2481 -0.0681
  967MOL0     H30544   4.719   6.393   8.572  0.8371  1.2815 -0.9943
  967MOL0     H30545   4.472   6.365   8.519 -0.1358  0.8898 -0.9230
  968MOL0     O30546   7.483   6.664   9.235  0.4737  0.6968  0.0289
  968MOL0     C30547   7.541   6.751   9.303  0.0964  0.3214  0.1987
  968MOL0     O30548   7.471   6.862   9.356 -0.1365  0.0029 -0.8006
  968MOL0     C30549   7.345   6.889   9.301 -0.6926 -0.0392  0.1694
  968MOL0     C30550   7.326   6.952   9.176  0.3422 -0.0445 -0.3689
  968MOL0     C30551   7.197   6.980   9.112 -0.0134 -0.6555 -0.7766
  968MOL0     C30552   7.085   6.952   9.196 -0.0141 -0.0465 -0.9579
  968MOL0     O30553   6.959   6.992   9.161 -0.1881 -0.1726 -0.0316
  968MOL0     C30554   6.877   6.886   9.120 -0.5208  0.7794 -0.1274
  968MOL0     C30555   6.738   6.945   9.114  0.4748 -0.2835 -0.6544
  968MOL0     C30556   6.687   7.017   9.237  0.5739  0.2494 -0.3391
  968MOL0     C30557   6.678   6.903   9.344 -0.2752  0.0293  0.4669
  968MOL0     C30558   6.581   6.945   9.456 -0.2702  0.4815 -0.0189
  968MOL0     C30559   6.560   6.839   9.567 -0.0109  0.0106 -0.2963
  968MOL0     C30560   6.495   6.712   9.511 -0.0498 -0.8298 -0.0252
  968MOL0     C30561   6.411   6.657   9.626 -0.3471  0.8019  0.4472
  968MOL0     N30562   6.286   6.735   9.641  0.7119 -0.5258 -1.0951
  968MOL0     C30563   6.251   6.793   9.759  0.0573 -0.7266  1.4748
  968MOL0     C30564   6.145   6.865   9.718 -0.4043 -0.3325  0.7688
  968MOL0     C30565   6.079   6.973   9.805 -0.1579  0.5242 -0.0824
  968MOL0     C30566   5.926   6.955   9.844  0.0050 -0.1736  0.5280
  968MOL0     C30567   5.847   7.007   9.726 -0.4095 -0.1248  0.6035
  968MOL0     C30568   5.697   7.018   9.759 -0.5320  0.2950  0.7147
  968MOL0     O30569   5.636   6.909   9.835  0.1354 -0.2706 -0.5712
  968MOL0     C30570   5.510   6.926   9.886  0.1654 -0.1394  0.1044
  968MOL0     C30571   5.435   7.036   9.855 -0.8999  0.4617  0.8285
  968MOL0     C30572   5.305   7.055   9.905 -0.1392 -0.7861 -0.7415
  968MOL0     C30573   5.222   7.173   9.848 -0.4182 -0.5989  0.7037
  968MOL0     C30574   5.259   6.971   9.997  0.8275  0.7639 -0.7863
  968MOL0     C30575   5.126   6.978  10.070 -0.5985  0.3244 -0.0304
  968MOL0     O30576   5.077   6.855  10.110 -0.8104 -0.7727  0.4245
  968MOL0     C30577   4.972   6.841  10.192  0.2380  0.8323  0.1238
  968MOL0     C30578   4.940   6.930  10.294 -0.3298 -0.0597 -0.2207
  968MOL0     C30579   4.817   6.919  10.359  0.8182  0.5558 -1.0640
  968MOL0     C30580   4.728   6.813  10.328 -0.4461  0.2649 -0.8137
  968MOL0     O30581   4.617   6.807  10.407  0.1674  0.7437 -0.0288
  968MOL0     C30582   4.509   6.721  10.377 -0.4619 -0.1950  0.6731
  968MOL0     C30583   4.535   6.583  10.452 -0.7800 -0.3734  1.8137
  968MOL0     C30584   4.431   6.473  10.411  0.4037 -0.8381 -0.3556
  968MOL0     C30585   4.300   6.484  10.476 -0.4926 -0.2274  0.0511
  968MOL0     C30586   4.204   6.369  10.441 -0.1178  0.0855  0.0271
  968MOL0     C30587   4.089   6.362  10.556  0.4157  0.1521  0.5735
  968MOL0     C30588   4.001   6.255  10.518  0.5644 -0.0591  0.2825
  968MOL0     C30589   4.051   6.113  10.570  0.1137  0.1675  0.1668
  968MOL0    Cl30590   3.912   5.991  10.558 -0.1855  0.0361  0.0065
  968MOL0     C30591   4.759   6.723  10.225  0.3464  0.6992 -0.3544
  968MOL0     C30592   4.878   6.739  10.154 -0.6033  0.9329  0.1012
  968MOL0     O30593   5.072   7.083  10.085 -0.2741  0.1741  0.4053
  968MOL0     C30594   5.335   6.853  10.027 -0.2463 -0.2899  0.1473
  968MOL0     C30595   5.461   6.840   9.981  0.6002  0.0367 -0.3496
  968MOL0     N30596   6.103   6.837   9.587  0.0463  1.0584 -0.7746
  968MOL0     N30597   6.202   6.760   9.543  0.3766 -0.0673  0.4544
  968MOL0     C30598   7.098   6.879   9.309 -0.8767  0.1476 -0.5216
  968MOL0     C30599   7.225   6.848   9.360 -0.0459  0.0658 -0.2883
  968MOL0     C30600   7.685   6.721   9.319  0.2001 -0.4598 -0.3634
  968MOL0     C30601   7.772   6.816   9.365  0.4305 -0.7006 -0.0049
  968MOL0     C30602   7.902   6.784   9.396 -0.5054 -0.9454  0.2003
  968MOL0     C30603   7.966   6.662   9.365 -0.2350  0.2603 -0.0507
  968MOL0     O30604   8.100   6.660   9.388 -0.0113 -0.9285 -0.6588
  968MOL0     C30605   8.172   6.550   9.334  0.1230 -0.2131 -0.1149
  968MOL0     C30606   8.320   6.590   9.318 -0.4656 -0.1599 -0.5756
  968MOL0     C30607   8.403   6.461   9.292  0.1504  0.8930 -0.3932
  968MOL0     C30608   8.555   6.489   9.272  1.2895 -0.2819 -0.2301
  968MOL0     C30609   8.623   6.360   9.257  0.5031 -0.0639  0.3643
  968MOL0     C30610   8.691   6.268   9.251 -0.5983  0.6854 -0.3677
  968MOL0     C30611   7.883   6.570   9.301  0.5100 -0.3958  0.9567
  968MOL0     C30612   7.743   6.601   9.275 -0.4232  0.2722 -0.2847
  968MOL0     H30613   7.416   6.981   9.123 -0.1495  0.1973 -1.0899
  968MOL0     H30614   7.185   7.038   9.021  0.5464 -0.8694 -0.9904
  968MOL0     H30615   6.900   6.838   9.024 -0.2610 -1.2017  0.8818
  968MOL0     H30616   6.865   6.811   9.198 -2.7970  1.9341  0.7453
  968MOL0     H30617   6.733   7.026   9.041 -1.3552  0.1971 -0.0313
  968MOL0     H30618   6.677   6.859   9.085  0.6053 -0.9998  1.0644
  968MOL0     H30619   6.761   7.092   9.268  1.8886 -0.4445 -1.6622
  968MOL0     H30620   6.592   7.068   9.218  0.2368 -0.1331  0.2907
  968MOL0     H30621   6.656   6.810   9.291  0.9175  2.1260 -4.3076
  968MOL0     H30622   6.775   6.898   9.394 -0.0106  2.5854  0.3395
  968MOL0     H30623   6.621   7.035   9.504  0.2741 -0.6909  1.8068
  968MOL0     H30624   6.488   6.976   9.408  0.5140  1.1650 -1.1601
  968MOL0     H30625   6.656   6.804   9.605 -1.1326 -2.7403  0.2398
  968MOL0     H30626   6.502   6.890   9.644 -2.5944 -0.1851 -1.9800
  968MOL0     H30627   6.439   6.739   9.421  0.9412  0.0673 -0.3944
  968MOL0     H30628   6.575   6.646   9.477  0.7016 -0.3807  0.8328
  968MOL0     H30629   6.473   6.648   9.715  0.5936  1.2407 -0.1342
  968MOL0     H30630   6.373   6.557   9.604 -1.6151  1.6395 -1.4707
  968MOL0     H30631   6.285   6.783   9.861 -1.6999  0.2218  2.2116
  968MOL0     H30632   6.134   6.980   9.900 -0.5707  1.4355  0.0972
  968MOL0     H30633   6.091   7.068   9.753  1.0934  0.7173  0.5044
  968MOL0     H30634   5.902   7.008   9.937 -0.6706 -2.0346  1.4717
  968MOL0     H30635   5.906   6.851   9.870 -0.0437  0.1390  1.8125
  968MOL0     H30636   5.851   6.933   9.645 -2.9551  3.1424 -2.8557
  968MOL0     H30637   5.879   7.104   9.687 -2.8535  0.6238  0.2613
  968MOL0     H30638   5.654   7.032   9.660  0.9156  0.7605  0.1302
  968MOL0     H30639   5.693   7.115   9.809  2.2772  0.8968 -0.0736
  968MOL0     H30640   5.477   7.112   9.790  0.5663 -1.6647 -0.8553
  968MOL0     H30641   5.118   7.145   9.830 -0.7453  0.3463  1.0362
  968MOL0     H30642   5.211   7.257   9.917 -3.7751 -1.8473  1.9020
  968MOL0     H30643   5.263   7.209   9.753 -0.0021 -1.9438  0.3557
  968MOL0     H30644   5.015   7.001  10.326 -0.3858  0.4057 -1.1194
  968MOL0     H30645   4.787   6.990  10.435 -0.1018 -1.3816  0.4736
  968MOL0     H30646   4.410   6.756  10.410 -0.5212  1.8569 -1.4310
  968MOL0     H30647   4.500   6.705  10.270  0.2582 -1.8835  0.8333
  968MOL0     H30648   4.636   6.551  10.425 -0.3400  2.6848 -0.6913
  968MOL0     H30649   4.528   6.605  10.559 -2.1342 -0.1429  1.6873
  968MOL0     H30650   4.468   6.370  10.413 -0.4322 -1.1448  0.3621
  968MOL0     H30651   4.410   6.492  10.306 -2.6281  2.6112  0.6552
  968MOL0     H30652   4.307   6.491  10.585  0.7607 -0.6641  0.0178
  968MOL0     H30653   4.249   6.577  10.449 -2.3961 -1.0578  0.5776
  968MOL0     H30654   4.254   6.272  10.436  1.7987  0.6538  3.8346
  968MOL0     H30655   4.148   6.389  10.350 -2.3709  0.0387  1.3280
  968MOL0     H30656   4.142   6.345  10.651 -1.7194 -1.1343  1.6157
  968MOL0     H30657   4.030   6.453  10.560 -0.5499 -0.3598 -1.2073
  968MOL0     H30658   3.984   6.255  10.410 -0.4091  0.6177  0.4259
  968MOL0     H30659   3.904   6.275  10.563 -0.1116  0.4723 -1.3253
  968MOL0     H30660   4.093   6.112  10.671 -1.1851  0.4017  0.7314
  968MOL0     H30661   4.132   6.070  10.510 -1.5387 -0.5410 -1.6243
  968MOL0     H30662   4.689   6.645  10.194  2.6451 -0.4170 -3.2225
  968MOL0     H30663   4.900   6.675  10.069 -1.2888 -2.2036  2.1503
  968MOL0     H30664   5.314   6.784  10.107  2.1535 -0.5006  0.6469
  968MOL0     H30665   5.521   6.753  10.007  0.0268 -1.0500 -2.4704
  968MOL0     H30666   7.011   6.839   9.360  0.7083 -0.1515  2.1207
  968MOL0     H30667   7.228   6.795   9.454 -3.6181 -0.8683 -0.5601
  968MOL0     H30668   7.734   6.913   9.398  0.0936 -1.3659  1.6705
  968MOL0     H30669   7.952   6.868   9.443 -1.4940 -0.6069  0.6796
  968MOL0     H30670   8.159   6.460   9.394 -0.8759 -0.9330 -1.3651
  968MOL0     H30671   8.139   6.528   9.232 -0.5166  1.0263 -0.1919
  968MOL0     H30672   8.348   6.642   9.410 -0.1434 -1.3017 -0.0114
  968MOL0     H30673   8.343   6.652   9.231  1.0472  1.7897  1.0873
  968MOL0     H30674   8.375   6.404   9.202  0.4175 -1.3232  0.8499
  968MOL0     H30675   8.384   6.391   9.374  0.3111 -1.4002 -2.1924
  968MOL0     H30676   8.603   6.547   9.351  2.1800 -1.4080  0.0823
  968MOL0     H30677   8.560   6.545   9.178 -1.1063 -0.9076 -0.7915
  968MOL0     H30678   8.756   6.184   9.237  2.2003  2.4223  1.3123
  968MOL0     H30679   7.928   6.476   9.271 -2.5143 -1.2105 -1.5876
  968MOL0     H30680   7.680   6.528   9.226  1.3295 -1.7572  0.3701
  969MOL0     O30681   5.475   5.540   9.955  0.3060 -0.3050 -0.4909
  969MOL0     C30682   5.458   5.576  10.070 -0.3753 -0.3687 -0.2454
  969MOL0     O30683   5.343   5.594  10.140  0.2431 -0.2526  0.1344
  969MOL0     C30684   5.216   5.589  10.087 -0.1911  0.4948 -0.5026
  969MOL0     C30685   5.183   5.625   9.958 -0.2441  0.9249 -0.2738
  969MOL0     C30686   5.052   5.606   9.904  0.7347  0.0843 -0.0634
  969MOL0     C30687   4.953   5.568   9.987  0.5620  0.5033 -1.0015
  969MOL0     O30688   4.824   5.561   9.942 -0.5145  0.6100 -0.0390
  969MOL0     C30689   4.768   5.429   9.954  0.9481 -0.4734  0.3290
  969MOL0     C30690   4.625   5.447   9.898  0.1168  0.3321  0.6324
  969MOL0     C30691   4.534   5.504  10.003 -0.6474 -0.5828  0.2368
  969MOL0     C30692   4.389   5.520   9.962 -0.6565 -0.5197  0.4064
  969MOL0     C30693   4.299   5.527  10.082  0.4512  0.4569 -0.1260
  969MOL0     C30694   4.154   5.523  10.033 -0.4991  0.4295 -0.1253
  969MOL0     C30695   4.069   5.546  10.159 -0.0778 -0.3931 -0.3584
  969MOL0     C30696   3.917   5.520  10.132 -1.4232  0.1308  0.0643
  969MOL0     N30697   3.845   5.551  10.251 -0.0580 -0.4560 -0.2558
  969MOL0     C30698   3.804   5.680  10.295 -0.5224  0.6380 -0.2699
  969MOL0     C30699   3.737   5.657  10.409  0.1544  0.4767 -0.8905
  969MOL0     C30700   3.679   5.765  10.509 -0.1480 -0.6663  0.1434
  969MOL0     C30701   3.522   5.761  10.526 -0.1243 -0.8505 -0.0887
  969MOL0     C30702   3.479   5.650  10.629  0.3598  1.0270 -0.0256
  969MOL0     C30703   3.370   5.696  10.715 -0.0677 -0.9466  0.1277
  969MOL0     O30704   3.269   5.768  10.639  0.2415  0.0377  0.0512
  969MOL0     C30705   3.151   5.793  10.700 -0.0092  0.5648 -0.0061
  969MOL0     C30706   3.045   5.838  10.615 -0.4211  0.1386  0.0281
  969MOL0     C30707   2.917   5.857  10.659  0.2577  0.7848 -0.2269
  969MOL0     C30708   2.817   5.902  10.561 -0.2327  0.7433  0.2863
  969MOL0     C30709   2.889   5.845  10.796 -0.0094 -0.2650  0.8488
  969MOL0     C30710   2.760   5.866  10.861  0.7218  0.9671 -0.5775
  969MOL0     O30711   2.754   5.915  10.989  0.0116  0.0259  0.2644
  969MOL0     C30712   2.630   5.913  11.040  0.1973 -0.7856  0.1510
  969MOL0     C30713   2.555   5.800  11.078 -0.5707 -1.4041 -0.8320
  969MOL0     C30714   2.427   5.810  11.122  0.2341 -1.0497 -0.5208
  969MOL0     C30715   2.359   5.935  11.122  0.2362 -0.8601 -0.3376
  969MOL0     O30716   2.226   5.947  11.166 -0.6812  0.0373 -0.4606
  969MOL0     C30717   2.133   5.845  11.125 -0.2659 -0.2052 -0.1372
  969MOL0     C30718   1.996   5.898  11.164  0.3189 -0.1845 -0.4566
  969MOL0     C30719   1.884   5.868  11.064  0.8244  1.1107  0.1754
  969MOL0     C30720   1.852   5.716  11.039  0.1909 -0.1999 -0.4932
  969MOL0     C30721   1.723   5.699  10.947  0.3978 -0.2911 -0.9800
  969MOL0     C30722   1.747   5.765  10.809 -0.2012  0.0793  0.9149
  969MOL0     C30723   1.631   5.742  10.713  0.5833 -0.6689  0.1224
  969MOL0     C30724   1.640   5.798  10.574  0.2232 -0.2884  0.0234
  969MOL0    Cl30725   1.781   5.730  10.478 -0.0052 -0.0802 -0.4909
  969MOL0     C30726   2.429   6.046  11.094 -0.0795 -1.0120  0.4901
  969MOL0     C30727   2.558   6.034  11.047 -0.2997 -0.0272  0.3338
  969MOL0     O30728   2.666   5.828  10.791 -0.4913  0.0365 -0.2662
  969MOL0     C30729   2.994   5.802  10.886 -0.4267 -0.9300 -0.0375
  969MOL0     C30730   3.118   5.772  10.832  0.7929 -0.1982  0.0751
  969MOL0     N30731   3.731   5.518  10.439  0.1017 -0.1789  0.3717
  969MOL0     N30732   3.809   5.463  10.348 -0.2431 -0.2716 -0.1301
  969MOL0     C30733   4.981   5.535  10.125 -0.0686 -0.4635 -0.9115
  969MOL0     C30734   5.111   5.547  10.172  0.0604  0.3511  0.4979
  969MOL0     C30735   5.587   5.580  10.138 -0.0577 -0.4067  0.0477
  969MOL0     C30736   5.581   5.629  10.271 -0.6461  1.0627 -0.2406
  969MOL0     C30737   5.695   5.645  10.342  0.2273  0.2167 -0.0835
  969MOL0     C30738   5.821   5.608  10.291  0.7615 -0.3835  0.0389
  969MOL0     O30739   5.921   5.613  10.388  0.2529 -0.2957 -0.2482
  969MOL0     C30740   6.036   5.534  10.361  0.8344 -0.6537 -0.2395
  969MOL0     C30741   6.143   5.566  10.460  0.0550  0.2289 -0.3043
  969MOL0     C30742   6.118   5.512  10.601 -0.3503  0.5389  0.6103
  969MOL0     C30743   6.211   5.393  10.636  0.8620  0.1908  0.0422
  969MOL0     C30744   6.192   5.272  10.550 -0.3224 -0.5553 -0.6548
  969MOL0     C30745   6.153   5.169  10.504  0.0096 -0.5588  0.1999
  969MOL0     C30746   5.835   5.567  10.159  0.5960 -0.0381 -0.6733
  969MOL0     C30747   5.711   5.554  10.081  0.2987 -0.0770  0.0881
  969MOL0     H30748   5.262   5.665   9.896 -0.1561 -0.0133 -0.7887
  969MOL0     H30749   5.024   5.630   9.801  3.5747 -2.3649 -1.5703
  969MOL0     H30750   4.814   5.347   9.898  0.2645  0.2078 -1.2895
  969MOL0     H30751   4.759   5.408  10.061  1.5215  0.6083  0.6036
  969MOL0     H30752   4.618   5.508   9.807 -0.3099 -1.6240 -0.7134
  969MOL0     H30753   4.585   5.349   9.870 -0.0804  0.2359  1.2398
  969MOL0     H30754   4.530   5.428  10.081 -0.6606  1.5446  2.4425
  969MOL0     H30755   4.578   5.597  10.042 -0.3567 -1.1408  1.2880
  969MOL0     H30756   4.386   5.615   9.908  1.3283 -0.8030 -0.2737
  969MOL0     H30757   4.369   5.437   9.894  1.6107  2.0162 -3.7757
  969MOL0     H30758   4.323   5.447  10.153  1.5762  0.0953 -0.8852
  969MOL0     H30759   4.313   5.624  10.132  0.1590 -0.0567  0.9795
  969MOL0     H30760   4.129   5.599   9.959 -3.9678 -0.1884  0.2292
  969MOL0     H30761   4.125   5.426   9.990  0.1894  0.5253 -0.8171
  969MOL0     H30762   4.093   5.481  10.244  0.0651  0.4379  0.2514
  969MOL0     H30763   4.078   5.651  10.186  2.4119  0.1445 -2.7919
  969MOL0     H30764   3.899   5.416  10.101 -0.2228 -0.0521 -0.0777
  969MOL0     H30765   3.895   5.579  10.043 -1.2649 -2.1584 -1.5679
  969MOL0     H30766   3.827   5.774  10.246 -1.2202  0.2150 -1.4507
  969MOL0     H30767   3.731   5.771  10.605 -1.4098  0.7430  0.7847
  969MOL0     H30768   3.690   5.862  10.460  0.2785 -0.7857  0.0038
  969MOL0     H30769   3.479   5.741  10.428  2.5327  3.9642 -2.6011
  969MOL0     H30770   3.484   5.861  10.549 -2.2875 -1.1534 -1.9861
  969MOL0     H30771   3.565   5.618  10.689  1.0783  0.0578 -1.5043
  969MOL0     H30772   3.453   5.563  10.568  4.6739 -0.4764 -0.1116
  969MOL0     H30773   3.416   5.768  10.782 -0.1345 -0.8311  0.0494
  969MOL0     H30774   3.321   5.621  10.778  1.5858 -1.7552  0.5194
  969MOL0     H30775   3.073   5.844  10.511  2.2656 -0.3802  0.6398
  969MOL0     H30776   2.752   5.817  10.539  1.5273 -0.4386 -0.6075
  969MOL0     H30777   2.758   5.989  10.592 -0.2333  1.3458 -1.3075
  969MOL0     H30778   2.866   5.938  10.470 -3.8524 -2.4995 -3.4008
  969MOL0     H30779   2.608   5.705  11.076  0.0438 -1.1818  1.7964
  969MOL0     H30780   2.371   5.721  11.149  2.1075 -1.9649  0.5863
  969MOL0     H30781   2.135   5.824  11.018  2.0365  1.2346 -0.4350
  969MOL0     H30782   2.146   5.749  11.176 -2.5534  0.0277  1.0388
  969MOL0     H30783   1.973   5.860  11.264 -2.2284 -0.4322 -1.0570
  969MOL0     H30784   1.997   6.007  11.161  0.5804  0.3295  5.5570
  969MOL0     H30785   1.907   5.917  10.970  0.9739 -2.4159 -1.8212
  969MOL0     H30786   1.787   5.908  11.094  0.0679  1.6685 -2.7444
  969MOL0     H30787   1.938   5.674  10.985  0.5730  1.9796 -1.7161
  969MOL0     H30788   1.850   5.655  11.129  0.5600 -0.6136 -0.7584
  969MOL0     H30789   1.636   5.754  10.985 -1.1066 -1.3087 -2.7942
  969MOL0     H30790   1.696   5.593  10.950 -0.4250 -0.0738 -0.2308
  969MOL0     H30791   1.759   5.874  10.814 -3.5520  0.6037  0.0081
  969MOL0     H30792   1.837   5.730  10.758 -1.3323  0.1633 -1.2655
  969MOL0     H30793   1.539   5.781  10.757  0.3726 -1.0665  0.0410
  969MOL0     H30794   1.618   5.634  10.706  0.1579 -0.6768  0.9605
  969MOL0     H30795   1.639   5.908  10.573  1.3107 -0.2707  0.2416
  969MOL0     H30796   1.544   5.777  10.525 -0.8921  2.3136  0.8971
  969MOL0     H30797   2.380   6.141  11.112 -1.2322 -1.7011  1.0675
  969MOL0     H30798   2.612   6.119  11.006  0.1866 -0.5631 -0.1691
  969MOL0     H30799   2.969   5.774  10.988  0.0013 -0.6825  0.1392
  969MOL0     H30800   3.195   5.734  10.899  1.9506 -0.3319 -1.2784
  969MOL0     H30801   4.901   5.520  10.197  0.8245 -0.2740  0.1483
  969MOL0     H30802   5.127   5.511  10.273 -2.7125  0.3579  1.0361
  969MOL0     H30803   5.482   5.654  10.307 -2.2713 -1.8079 -2.2711
  969MOL0     H30804   5.681   5.665  10.448 -3.7745  2.6075 -0.8848
  969MOL0     H30805   6.017   5.427  10.368  1.9273 -1.0626 -2.6518
  969MOL0     H30806   6.093   5.559  10.271  2.4093 -0.0056  0.8964
  969MOL0     H30807   6.149   5.672  10.487  1.9322 -0.3425  1.8993
  969MOL0     H30808   6.241   5.542  10.417  1.1238  0.9362  1.6084
  969MOL0     H30809   6.014   5.477  10.607 -0.8965  1.6385 -1.4877
  969MOL0     H30810   6.125   5.598  10.667  1.1029  0.3250  0.7687
  969MOL0     H30811   6.180   5.359  10.735  2.6512 -0.1740  0.5106
  969MOL0     H30812   6.312   5.433  10.632  0.0786  2.2345 -0.3390
  969MOL0     H30813   6.112   5.090  10.443  2.4514 -2.0827  0.3905
  969MOL0     H30814   5.928   5.527  10.119  0.9729 -0.8651  0.9632
  969MOL0     H30815   5.714   5.505   9.985  3.3668  0.5094 -0.2251
  970MOL0     O30816   9.475   7.215   6.647  0.5616  0.0032  0.2246
  970MOL0     C30817   9.572   7.242   6.581 -0.1883  0.5108  0.9145
  970MOL0     O30818   9.690   7.289   6.630  0.2418 -0.2075 -0.0963
  970MOL0     C30819   9.695   7.324   6.763 -0.3176  0.2121  1.0242
  970MOL0     C30820   9.648   7.237   6.861  0.6854  0.0252  0.3589
  970MOL0     C30821   9.653   7.276   6.994 -0.7233  0.2449  0.1546
  970MOL0     C30822   9.706   7.403   7.022  1.1043 -0.0137  0.1419
  970MOL0     O30823   9.695   7.463   7.148  0.2340  0.0708 -0.3222
  970MOL0     C30824   9.623   7.394   7.255  0.9044 -0.2611  0.0246
  970MOL0     C30825   9.625   7.477   7.390  0.2511 -0.7004  0.2082
  970MOL0     C30826   9.534   7.605   7.394 -0.0778 -0.1078 -0.1148
  970MOL0     C30827   9.392   7.570   7.374 -0.8936 -0.2837 -0.5254
  970MOL0     C30828   9.298   7.695   7.396  0.8030  0.0128  0.2499
  970MOL0     C30829   9.147   7.659   7.387 -0.0977 -0.0994 -0.3121
  970MOL0     C30830   9.072   7.787   7.391  0.7332 -0.2702 -0.4038
  970MOL0     C30831   8.915   7.764   7.377  0.0619  0.2706  0.4144
  970MOL0     N30832   8.829   7.878   7.355  0.3853 -0.9089  0.1095
  970MOL0     C30833   8.871   7.979   7.267 -0.2687  0.4700 -0.6470
  970MOL0     C30834   8.795   8.091   7.304 -0.4907 -0.0749  0.2214
  970MOL0     C30835   8.786   8.223   7.234  0.4650 -1.1638 -0.6680
  970MOL0     C30836   8.655   8.243   7.156  0.0269  0.9641 -0.1039
  970MOL0     C30837   8.660   8.384   7.092  0.2149 -0.7341  0.7339
  970MOL0     C30838   8.550   8.420   7.000 -0.0928 -0.5993 -0.1792
  970MOL0     O30839   8.436   8.360   7.055  0.4876 -0.1768  0.8344
  970MOL0     C30840   8.312   8.407   7.018  0.0114 -0.3999  0.4078
  970MOL0     C30841   8.288   8.481   6.901  0.1642 -0.0340 -0.2894
  970MOL0     C30842   8.154   8.531   6.877 -0.3800 -0.4179 -0.2624
  970MOL0     C30843   8.137   8.615   6.756  0.3776 -0.1205 -0.3426
  970MOL0     C30844   8.043   8.501   6.971 -0.4804  0.2190 -0.1015
  970MOL0     C30845   7.911   8.570   6.959  0.1164  0.7135 -0.1335
  970MOL0     O30846   7.857   8.588   6.832 -0.4053  0.0833 -0.2091
  970MOL0     C30847   7.745   8.665   6.823 -0.4527 -0.6476 -0.3205
  970MOL0     C30848   7.609   8.634   6.827 -0.7206  0.1864 -0.4505
  970MOL0     C30849   7.509   8.717   6.789  0.2402  1.5678  0.5266
  970MOL0     C30850   7.530   8.855   6.765 -0.9238  0.0200  0.1452
  970MOL0     O30851   7.423   8.945   6.752 -0.5089 -0.4880  0.3265
  970MOL0     C30852   7.445   9.083   6.775 -0.3518 -1.2232  0.0070
  970MOL0     C30853   7.297   9.147   6.783  0.2682 -0.1545  0.4466
  970MOL0     C30854   7.251   9.172   6.638  0.2160 -0.9493  0.1048
  970MOL0     C30855   7.143   9.287   6.637 -0.6853  0.3446  0.6856
  970MOL0     C30856   7.012   9.231   6.678  0.6469  0.1162  0.9012
  970MOL0     C30857   6.894   9.323   6.636  0.2420 -0.2878 -0.0067
  970MOL0     C30858   6.768   9.249   6.670 -0.7399  0.1033 -0.3294
  970MOL0     C30859   6.639   9.327   6.640 -0.2421  0.6795 -0.5636
  970MOL0    Cl30860   6.663   9.491   6.709  0.1347 -0.0704 -0.1791
  970MOL0     C30861   7.668   8.891   6.770 -0.1929 -0.3501  0.3375
  970MOL0     C30862   7.775   8.796   6.796 -0.4203 -0.1989 -0.6477
  970MOL0     O30863   7.859   8.609   7.060 -0.4081 -0.1200  0.1604
  970MOL0     C30864   8.073   8.418   7.085  0.3409 -0.4757 -0.6012
  970MOL0     C30865   8.204   8.371   7.101 -0.2816  0.2103  0.3914
  970MOL0     N30866   8.699   8.057   7.401 -0.1736  0.5639  0.1508
  970MOL0     N30867   8.738   7.936   7.438  0.3591  0.5219  0.9049
  970MOL0     C30868   9.765   7.482   6.926  0.4421 -0.0445  1.0082
  970MOL0     C30869   9.757   7.448   6.792 -0.1913  0.4687 -0.7664
  970MOL0     C30870   9.564   7.228   6.431 -0.1488 -0.2309  0.5178
  970MOL0     C30871   9.695   7.241   6.363  0.4207 -0.0295 -0.7931
  970MOL0     C30872   9.695   7.255   6.231  0.7614 -0.6251  0.4850
  970MOL0     C30873   9.574   7.246   6.155 -0.3437  0.2892 -0.4026
  970MOL0     O30874   9.563   7.251   6.017 -0.1315 -0.1324  0.1097
  970MOL0     C30875   9.687   7.235   5.946  0.3145  0.0073  0.1984
  970MOL0     C30876   9.665   7.190   5.807  0.5962 -0.4593 -0.2072
  970MOL0     C30877   9.783   7.120   5.745  0.0868  0.1903 -0.3218
  970MOL0     C30878   9.761   7.083   5.596  0.1911 -0.0110 -0.3542
  970MOL0     C30879   9.761   7.200   5.504 -0.2412  0.5391  0.7047
  970MOL0     C30880   9.804   7.298   5.445 -0.5637 -0.0852 -0.3027
  970MOL0     C30881   9.452   7.235   6.229  0.2307  0.0240  0.0558
  970MOL0     C30882   9.448   7.214   6.362 -0.4857  0.1024 -1.2076
  970MOL0     H30883   9.612   7.138   6.838  0.6499  0.3549 -1.0756
  970MOL0     H30884   9.606   7.211   7.067 -0.4355  2.1339  2.1089
  970MOL0     H30885   9.517   7.379   7.235  1.0782 -2.6204  0.5456
  970MOL0     H30886   9.666   7.294   7.267  4.0031  0.9426 -0.1966
  970MOL0     H30887   9.597   7.416   7.477  1.2890  0.3909  1.3438
  970MOL0     H30888   9.726   7.504   7.422 -0.7210  0.1594  2.7627
  970MOL0     H30889   9.546   7.652   7.492 -1.3428  1.8785 -0.8655
  970MOL0     H30890   9.564   7.690   7.332 -1.1229  1.8622  1.9247
  970MOL0     H30891   9.369   7.548   7.270  0.6856  0.2843 -1.0205
  970MOL0     H30892   9.351   7.490   7.436 -0.7989 -1.3738 -1.8370
  970MOL0     H30893   9.305   7.729   7.499 -2.3231  0.2212  0.4803
  970MOL0     H30894   9.316   7.766   7.315 -2.0154  1.0732  0.4375
  970MOL0     H30895   9.141   7.613   7.288 -1.2889  1.6444 -1.0912
  970MOL0     H30896   9.113   7.589   7.465 -0.5170 -0.0588 -0.4598
  970MOL0     H30897   9.095   7.827   7.490  2.6021 -1.5238 -0.2709
  970MOL0     H30898   9.111   7.859   7.319 -1.6760  0.2086 -1.3210
  970MOL0     H30899   8.876   7.698   7.456 -0.8634  0.7272  0.3583
  970MOL0     H30900   8.907   7.697   7.290 -0.8137  0.2396  0.5092
  970MOL0     H30901   8.956   7.961   7.202  2.4630  1.2358  2.4331
  970MOL0     H30902   8.781   8.302   7.310  0.0031 -1.7310 -0.0905
  970MOL0     H30903   8.866   8.236   7.161 -0.5034  0.9080 -1.4490
  970MOL0     H30904   8.559   8.232   7.207 -1.9162  4.2158 -2.6173
  970MOL0     H30905   8.654   8.170   7.074  1.3461 -1.2409  1.7478
  970MOL0     H30906   8.751   8.396   7.032 -0.6422 -1.2277 -0.7165
  970MOL0     H30907   8.663   8.452   7.178 -0.8504  1.4116 -0.8349
  970MOL0     H30908   8.561   8.388   6.896  1.8609  1.7022 -0.7655
  970MOL0     H30909   8.537   8.528   7.000  0.2875 -0.5419 -1.2651
  970MOL0     H30910   8.369   8.504   6.833 -1.0732  1.7067 -1.2331
  970MOL0     H30911   8.061   8.580   6.686  2.2825 -0.9947 -2.0655
  970MOL0     H30912   8.118   8.715   6.798 -0.4925 -0.7525  0.8459
  970MOL0     H30913   8.224   8.624   6.691 -0.5143  0.2928 -1.5087
  970MOL0     H30914   7.569   8.538   6.857 -0.8219  0.5951  0.7784
  970MOL0     H30915   7.404   8.688   6.794  0.2776  1.3351  0.0432
  970MOL0     H30916   7.490   9.097   6.873  0.3373 -1.8036 -0.2177
  970MOL0     H30917   7.518   9.121   6.703  1.6082 -0.6162  2.1830
  970MOL0     H30918   7.234   9.083   6.846  0.2407  1.4713  2.1561
  970MOL0     H30919   7.301   9.241   6.838 -1.3003  0.9380 -1.2115
  970MOL0     H30920   7.215   9.080   6.592  1.6000  0.3710 -4.0341
  970MOL0     H30921   7.343   9.203   6.586  0.0158  0.6084  0.6022
  970MOL0     H30922   7.176   9.368   6.703  0.4328  0.1054  0.4360
  970MOL0     H30923   7.147   9.332   6.537 -0.2336  1.4000  1.1607
  970MOL0     H30924   7.005   9.228   6.787  0.7344 -1.8312  0.8939
  970MOL0     H30925   6.992   9.130   6.640  0.0595  0.4433  0.3217
  970MOL0     H30926   6.897   9.417   6.691  0.5209 -0.1059 -0.3244
  970MOL0     H30927   6.892   9.346   6.529  0.4198  1.2535  0.3021
  970MOL0     H30928   6.776   9.225   6.777 -0.9320 -1.3968 -0.6272
  970MOL0     H30929   6.772   9.156   6.613 -0.5898  0.3014 -0.6430
  970MOL0     H30930   6.551   9.282   6.688  1.0041 -1.9261 -0.5673
  970MOL0     H30931   6.629   9.332   6.531 -2.0463 -3.0507 -0.7342
  970MOL0     H30932   7.691   8.996   6.758 -0.7575 -0.0324  1.9077
  970MOL0     H30933   7.877   8.832   6.797 -0.5394  0.2960 -2.3919
  970MOL0     H30934   8.001   8.395   7.163  1.4049 -5.7987 -0.8416
  970MOL0     H30935   8.224   8.301   7.181 -1.9708  0.7271  1.3192
  970MOL0     H30936   9.792   7.584   6.952 -0.7012  0.3781  0.5910
  970MOL0     H30937   9.786   7.507   6.705 -0.0290 -0.8595 -1.6373
  970MOL0     H30938   9.786   7.261   6.420 -1.0354  1.0193  1.2934
  970MOL0     H30939   9.792   7.273   6.184  0.2624  0.9679 -0.0089
  970MOL0     H30940   9.743   7.329   5.947  1.8910 -0.8855 -0.2835
  970MOL0     H30941   9.750   7.158   5.991  2.0987  1.8263  0.9800
  970MOL0     H30942   9.633   7.280   5.754  0.2722 -0.8248 -0.6469
  970MOL0     H30943   9.580   7.121   5.813 -0.1523  0.5777  3.1047
  970MOL0     H30944   9.790   7.027   5.802  1.0450 -1.5568 -3.0842
  970MOL0     H30945   9.881   7.170   5.753  1.1631 -0.9268 -4.1173
  970MOL0     H30946   9.658   7.047   5.595 -0.1941  0.9399  1.0539
  970MOL0     H30947   9.829   7.005   5.562 -0.7652 -0.6370 -0.8665
  970MOL0     H30948   9.846   7.384   5.396 -1.8268  0.2982 -0.7661
  970MOL0     H30949   9.356   7.239   6.179  0.5439 -0.2788 -0.5762
  970MOL0     H30950   9.355   7.195   6.416  0.0778 -2.6713 -1.0406
  971MOL0     O30951   6.323   1.982  10.800  0.0935 -1.1224 -0.8001
  971MOL0     C30952   6.337   1.993  10.920 -0.1015 -0.8722 -0.4282
  971MOL0     O30953   6.238   2.048  11.005 -0.0086  0.2079  0.1152
  971MOL0     C30954   6.111   2.012  10.995  0.2408  0.2662 -0.5408
  971MOL0     C30955   6.057   1.916  10.906  0.2144 -0.2517  0.5124
  971MOL0     C30956   5.917   1.888  10.921  0.7191 -0.3987 -0.0877
  971MOL0     C30957   5.838   1.957  11.023 -0.6891  0.5412  0.5752
  971MOL0     O30958   5.699   1.930  11.039 -0.0168  0.2417 -0.0692
  971MOL0     C30959   5.622   1.900  10.925  1.1390  0.7257 -0.0784
  971MOL0     C30960   5.482   1.878  10.980 -0.1256  0.0327 -0.2946
  971MOL0     C30961   5.381   1.842  10.873 -0.0885  0.1791  0.2382
  971MOL0     C30962   5.370   1.954  10.771 -0.1413  0.1463 -0.7638
  971MOL0     C30963   5.235   1.993  10.722  0.8266 -0.6213 -0.2014
  971MOL0     C30964   5.252   2.072  10.589  0.7088 -0.0953  0.5845
  971MOL0     C30965   5.107   2.123  10.537 -0.2850 -0.2345  0.3714
  971MOL0     C30966   5.084   2.232  10.429  0.4368  0.6869  0.6691
  971MOL0     N30967   5.170   2.347  10.440  0.2860  0.9965  0.0914
  971MOL0     C30968   5.116   2.473  10.463 -1.2523 -0.0787  0.3222
  971MOL0     C30969   5.226   2.537  10.518  0.0548 -0.0648  0.9122
  971MOL0     C30970   5.226   2.671  10.586  0.5937 -0.0297 -0.1686
  971MOL0     C30971   5.232   2.785  10.476 -0.5831 -0.9420 -0.2906
  971MOL0     C30972   5.114   2.802  10.374  0.0015  0.8556 -0.5171
  971MOL0     C30973   4.980   2.842  10.439 -0.6886 -0.6788  0.4948
  971MOL0     O30974   4.921   2.719  10.486  0.0149  0.4505  0.1027
  971MOL0     C30975   4.788   2.717  10.528 -0.0856 -0.3247  0.1156
  971MOL0     C30976   4.738   2.811  10.609 -0.1483 -0.8925 -0.2809
  971MOL0     C30977   4.602   2.813  10.658  0.8494 -0.1658 -0.3017
  971MOL0     C30978   4.565   2.920  10.754 -0.4480 -0.3775  0.5555
  971MOL0     C30979   4.517   2.706  10.624  1.1324 -1.2480  0.6973
  971MOL0     C30980   4.374   2.692  10.663  0.2518  0.7526  0.0810
  971MOL0     O30981   4.317   2.797  10.726 -0.0005  0.3363 -0.2006
  971MOL0     C30982   4.188   2.787  10.784  0.5658  0.1531 -0.3764
  971MOL0     C30983   4.169   2.851  10.910 -0.0010 -0.8270 -0.2408
  971MOL0     C30984   4.050   2.857  10.987  1.7290 -0.9977 -0.1210
  971MOL0     C30985   3.936   2.806  10.931  0.1317  0.5451  0.5180
  971MOL0     O30986   3.805   2.808  10.989  0.0170  0.9436  0.0834
  971MOL0     C30987   3.805   2.833  11.133 -0.7591 -0.0995  0.3609
  971MOL0     C30988   3.679   2.802  11.200  0.1495  0.8927 -0.9909
  971MOL0     C30989   3.588   2.922  11.212 -0.1695  0.5068 -0.4405
  971MOL0     C30990   3.453   2.883  11.268 -0.5620  0.2898  0.1631
  971MOL0     C30991   3.362   3.004  11.264 -0.2862  0.1150  0.9539
  971MOL0     C30992   3.212   2.973  11.249 -0.8635 -0.3634  0.0567
  971MOL0     C30993   3.147   2.942  11.385 -0.5709  0.4324  0.3820
  971MOL0     C30994   3.191   2.803  11.446 -0.6156 -0.3479  0.4662
  971MOL0    Cl30995   3.073   2.728  11.557  0.5652  0.3069  0.2754
  971MOL0     C30996   3.951   2.754  10.800  0.1900  0.0543 -0.2925
  971MOL0     C30997   4.071   2.741  10.730  0.3694 -0.8552 -0.7270
  971MOL0     O30998   4.311   2.590  10.621  0.2095 -0.1028 -0.2392
  971MOL0     C30999   4.579   2.606  10.534  0.9904 -0.1085  0.4047
  971MOL0     C31000   4.706   2.615  10.484  0.5072  0.8000 -0.5351
  971MOL0     N31001   5.342   2.463  10.501 -0.2269  0.7409  0.0012
  971MOL0     N31002   5.311   2.342  10.458  0.6266 -0.3391  0.4254
  971MOL0     C31003   5.899   2.040  11.111 -0.7634 -0.1756 -0.3518
  971MOL0     C31004   6.032   2.073  11.098 -0.9028  0.6754 -0.2186
  971MOL0     C31005   6.452   1.920  10.985  0.0882  0.3511 -0.2141
  971MOL0     C31006   6.450   1.895  11.124 -0.4940 -0.1253  0.5523
  971MOL0     C31007   6.561   1.826  11.184  0.5158 -0.1366  0.0373
  971MOL0     C31008   6.659   1.772  11.105  0.2025 -0.5225 -0.6058
  971MOL0     O31009   6.774   1.709  11.155  0.6847  0.4909  0.4374
  971MOL0     C31010   6.787   1.688  11.297 -0.3940  0.2750  0.5706
  971MOL0     C31011   6.879   1.567  11.326  0.2653 -0.1000 -0.1055
  971MOL0     C31012   7.017   1.580  11.259 -0.0970  0.4306  0.0708
  971MOL0     C31013   7.105   1.453  11.274  1.1220 -0.3761  1.3803
  971MOL0     C31014   7.170   1.447  11.398  0.3544 -0.1921 -0.3939
  971MOL0     C31015   7.223   1.430  11.509 -0.5139 -0.2627  0.4055
  971MOL0     C31016   6.652   1.777  10.968  0.7574 -0.4431  0.2029
  971MOL0     C31017   6.553   1.858  10.909  0.8407  0.1966 -0.1126
  971MOL0     H31018   6.118   1.870  10.829  1.0846  2.6404 -0.6374
  971MOL0     H31019   5.872   1.806  10.866  1.9446 -0.9713 -0.2670
  971MOL0     H31020   5.627   1.978  10.849 -2.2854  1.0639 -0.1277
  971MOL0     H31021   5.651   1.805  10.881 -1.4598 -1.1169  1.8324
  971MOL0     H31022   5.491   1.794  11.050  2.1964 -0.0287 -0.5877
  971MOL0     H31023   5.446   1.966  11.034 -1.5172 -1.0813  0.6594
  971MOL0     H31024   5.420   1.757  10.817  2.4725 -0.2240  2.3722
  971MOL0     H31025   5.278   1.833  10.908 -0.8021  2.6099 -1.0769
  971MOL0     H31026   5.410   2.048  10.810 -0.7496 -0.4288  1.3732
  971MOL0     H31027   5.436   1.919  10.691  2.7356 -0.5115  1.7258
  971MOL0     H31028   5.167   1.908  10.708 -0.0564 -0.0474  0.4910
  971MOL0     H31029   5.187   2.062  10.791 -1.3119 -4.1158  2.1503
  971MOL0     H31030   5.315   2.160  10.609 -0.8159  2.1952 -3.4991
  971MOL0     H31031   5.297   2.012  10.511  0.8095 -0.0210  0.5860
  971MOL0     H31032   5.050   2.037  10.500 -2.7541  0.8839  1.3542
  971MOL0     H31033   5.057   2.158  10.628 -1.1446 -3.3051  1.2048
  971MOL0     H31034   4.977   2.253  10.418  0.3838  0.5013  0.8146
  971MOL0     H31035   5.109   2.181  10.336 -1.0333  0.3255  0.4426
  971MOL0     H31036   5.010   2.497  10.461 -1.3095 -0.3544 -0.9302
  971MOL0     H31037   5.134   2.688  10.642  0.7993  0.5908 -0.0097
  971MOL0     H31038   5.306   2.668  10.660  0.5280 -3.0766 -0.0902
  971MOL0     H31039   5.320   2.767  10.413 -0.0160  0.2198  0.1290
  971MOL0     H31040   5.242   2.875  10.537 -1.8914 -0.8184 -0.2266
  971MOL0     H31041   5.098   2.721  10.302 -1.7333  0.7209 -0.0166
  971MOL0     H31042   5.144   2.881  10.305  0.1322 -0.1246 -1.6230
  971MOL0     H31043   4.916   2.898  10.371  0.5083  1.4318  1.0198
  971MOL0     H31044   4.998   2.909  10.524  0.3222 -0.6159  0.2422
  971MOL0     H31045   4.804   2.893  10.635  0.9387 -1.5317 -0.9276
  971MOL0     H31046   4.527   2.866  10.841 -0.5149  0.6190  1.1593
  971MOL0     H31047   4.660   2.962  10.789 -1.0048 -1.6130  3.9984
  971MOL0     H31048   4.505   2.999  10.710  1.7165  0.6995 -0.6429
  971MOL0     H31049   4.260   2.897  10.948 -0.8022 -0.0343  0.7984
  971MOL0     H31050   4.046   2.919  11.076 -1.8702  0.9766 -1.4470
  971MOL0     H31051   3.889   2.792  11.188 -2.5301 -0.0534  3.2980
  971MOL0     H31052   3.828   2.939  11.150 -1.4505 -0.1279  1.6335
  971MOL0     H31053   3.627   2.713  11.163  0.0691 -0.3848  1.9618
  971MOL0     H31054   3.721   2.776  11.297 -0.4951  0.7994 -0.7329
  971MOL0     H31055   3.581   2.953  11.107  1.3789  1.0428 -0.4021
  971MOL0     H31056   3.636   3.000  11.272  0.6554 -1.9441  2.2936
  971MOL0     H31057   3.413   2.792  11.222 -0.7558  0.1845  0.5356
  971MOL0     H31058   3.450   2.847  11.371 -3.4913  0.7283  0.3254
  971MOL0     H31059   3.395   3.052  11.171  2.6745 -3.2654  0.0225
  971MOL0     H31060   3.381   3.087  11.332  0.3776  0.3744  0.4729
  971MOL0     H31061   3.163   3.067  11.222  1.7225  1.4278  1.2258
  971MOL0     H31062   3.208   2.893  11.174  2.6940 -0.7315  0.1047
  971MOL0     H31063   3.038   2.940  11.378 -0.6281 -0.6480  1.4266
  971MOL0     H31064   3.161   3.030  11.449 -1.1156  1.4889 -0.8907
  971MOL0     H31065   3.281   2.824  11.504 -1.2071  2.8074  0.3921
  971MOL0     H31066   3.205   2.723  11.373  0.0800  0.0560  0.1503
  971MOL0     H31067   3.855   2.727  10.758 -0.3903 -3.2428  2.6844
  971MOL0     H31068   4.070   2.708  10.627 -0.6418 -3.7336  0.1014
  971MOL0     H31069   4.525   2.519  10.497  1.9353 -0.7524  0.5267
  971MOL0     H31070   4.748   2.559  10.401  0.5944  0.6482 -0.3865
  971MOL0     H31071   5.832   2.076  11.189 -0.9465 -1.3172  0.0314
  971MOL0     H31072   6.077   2.148  11.163  1.4210  0.4993 -1.5314
  971MOL0     H31073   6.381   1.941  11.193 -1.8637  0.5459 -1.2044
  971MOL0     H31074   6.592   1.852  11.285  1.8141 -1.3401 -0.0210
  971MOL0     H31075   6.835   1.770  11.351  0.2037  0.2954  0.0213
  971MOL0     H31076   6.687   1.664  11.334 -1.5442  1.0552 -1.8254
  971MOL0     H31077   6.825   1.478  11.292 -1.1519  0.2091  1.2363
  971MOL0     H31078   6.904   1.565  11.432  1.6186  2.9867 -0.2673
  971MOL0     H31079   7.063   1.669  11.304 -0.6577  1.4479 -1.3096
  971MOL0     H31080   7.009   1.592  11.150 -2.4835 -1.1043 -0.0030
  971MOL0     H31081   7.182   1.442  11.196 -2.5375 -1.0242 -2.5095
  971MOL0     H31082   7.042   1.365  11.265  1.5940 -0.6540  0.6673
  971MOL0     H31083   7.269   1.442  11.605 -1.1885  2.8756  0.4715
  971MOL0     H31084   6.731   1.734  10.907  1.6159 -1.3971  1.9166
  971MOL0     H31085   6.558   1.867  10.801  1.2930  1.0651 -0.0291
  972MOL0     O31086   8.944   7.523   0.335  0.5894  0.1571  0.2241
  972MOL0     C31087   8.916   7.617   0.259 -0.4732 -0.4951 -0.1726
  972MOL0     O31088   8.794   7.680   0.257 -0.0478 -0.8071 -0.6083
  972MOL0     C31089   8.698   7.645   0.350 -0.2494  0.4900  0.0186
  972MOL0     C31090   8.724   7.629   0.481 -0.0054  0.2953  0.3300
  972MOL0     C31091   8.615   7.599   0.572  0.2672  0.6047 -0.2040
  972MOL0     C31092   8.481   7.590   0.530  0.2107 -0.3043 -0.5926
  972MOL0     O31093   8.379   7.565   0.614  0.4286 -0.8757 -0.6045
  972MOL0     C31094   8.355   7.429   0.648 -0.1750 -0.0700 -0.1891
  972MOL0     C31095   8.271   7.418   0.780 -0.0890  0.6244  0.1450
  972MOL0     C31096   8.127   7.457   0.758  0.4490 -0.0961  0.3042
  972MOL0     C31097   8.061   7.499   0.877  0.2356 -0.2014 -0.1752
  972MOL0     C31098   7.921   7.560   0.844 -0.5474  0.7373 -0.4924
  972MOL0     C31099   7.838   7.586   0.975  0.4485 -1.0088 -0.2658
  972MOL0     C31100   7.729   7.690   0.961  0.2036 -0.4841  0.1541
  972MOL0     C31101   7.596   7.634   0.891  0.5613  0.9031 -0.5434
  972MOL0     N31102   7.504   7.738   0.827 -0.2357  0.0758 -0.7968
  972MOL0     C31103   7.525   7.802   0.715  0.4799 -0.1993  1.5157
  972MOL0     C31104   7.418   7.886   0.701 -0.0314  0.2383  0.3921
  972MOL0     C31105   7.379   7.975   0.586  0.1394 -0.6403 -0.0680
  972MOL0     C31106   7.327   7.889   0.469 -0.4207 -0.1163 -1.2452
  972MOL0     C31107   7.284   7.981   0.352  1.0439 -0.0432  0.4689
  972MOL0     C31108   7.179   7.920   0.255 -0.7966 -0.1427 -0.0280
  972MOL0     O31109   7.057   7.883   0.326  0.2899  0.0240  0.1880
  972MOL0     C31110   6.932   7.914   0.280  0.2276 -0.4503 -0.7241
  972MOL0     C31111   6.837   7.948   0.378  0.4517 -0.5767 -0.2411
  972MOL0     C31112   6.705   7.990   0.360  1.2604  1.0253  0.1635
  972MOL0     C31113   6.605   8.039   0.467 -0.2582 -0.7332 -0.3645
  972MOL0     C31114   6.669   8.003   0.223 -0.4002 -0.3251  0.3675
  972MOL0     C31115   6.534   8.058   0.185 -0.3601 -0.2727  0.6113
  972MOL0     O31116   6.502   8.172   0.248 -0.2647 -0.2742  0.6525
  972MOL0     C31117   6.390   8.248   0.221  0.3158  0.5035 -1.4014
  972MOL0     C31118   6.303   8.237   0.113 -0.1612 -0.1374  0.6560
  972MOL0     C31119   6.175   8.299   0.115 -0.0579 -0.4512  0.7795
  972MOL0     C31120   6.135   8.376   0.226  0.8544 -0.5295  0.4567
  972MOL0     O31121   6.011   8.430   0.223  0.5533  0.2291 -0.2827
  972MOL0     C31122   5.992   8.565   0.251 -0.0761 -0.3234  0.7155
  972MOL0     C31123   5.837   8.595   0.269 -0.7451 -0.2211  0.2227
  972MOL0     C31124   5.808   8.749   0.305 -0.2118 -0.4492  0.2603
  972MOL0     C31125   5.656   8.769   0.295 -0.9827  0.5125  0.6090
  972MOL0     C31126   5.619   8.826   0.151 -0.2865 -0.4463 -0.5834
  972MOL0     C31127   5.500   8.918   0.157 -0.8705 -0.1854  0.2190
  972MOL0     C31128   5.482   8.987   0.026 -0.0132  0.3609 -0.2060
  972MOL0     C31129   5.366   9.078   0.028  0.4713 -0.1812 -0.2323
  972MOL0    Cl31130   5.366   9.168  -0.136 -1.0053 -0.1743  0.2577
  972MOL0     C31131   6.223   8.383   0.332  0.5370 -0.6897  0.1543
  972MOL0     C31132   6.354   8.334   0.323  0.0398  0.0455 -0.0247
  972MOL0     O31133   6.460   7.986   0.114 -0.0943 -0.5890  0.2325
  972MOL0     C31134   6.758   7.951   0.120  0.3804  0.3798  0.4158
  972MOL0     C31135   6.895   7.911   0.145  0.0159 -0.1009 -0.0281
  972MOL0     N31136   7.321   7.856   0.799  0.0416 -1.1337 -0.7296
  972MOL0     N31137   7.378   7.763   0.876  0.1084 -0.5929 -0.2187
  972MOL0     C31138   8.452   7.629   0.399  0.3278  0.4848 -0.0068
  972MOL0     C31139   8.564   7.651   0.311 -0.1435 -0.2878  0.0608
  972MOL0     C31140   9.028   7.664   0.167  0.4216 -0.8138 -0.2990
  972MOL0     C31141   8.992   7.758   0.072 -0.6012 -0.2090  0.0832
  972MOL0     C31142   9.084   7.802  -0.021 -0.4913 -0.7965 -0.4182
  972MOL0     C31143   9.216   7.745  -0.008  0.2804 -0.0720  0.4587
  972MOL0     O31144   9.304   7.792  -0.098  0.7371 -0.4180 -0.6825
  972MOL0     C31145   9.385   7.890  -0.035 -0.0242 -0.2683 -0.8953
  972MOL0     C31146   9.505   7.917  -0.128 -0.6721 -0.3670 -0.8958
  972MOL0     C31147   9.635   7.830  -0.112 -0.0806 -0.7129  0.4382
  972MOL0     C31148   9.753   7.894  -0.199  0.1124  0.0913  0.2477
  972MOL0     C31149   9.887   7.826  -0.174  0.4472  0.1838 -0.2086
  972MOL0     C31150   9.984   7.762  -0.140  0.5726  0.9883  0.4369
  972MOL0     C31151   9.253   7.655   0.091  0.1303 -0.7890 -0.3824
  972MOL0     C31152   9.154   7.608   0.178 -0.2937  0.0125 -0.0293
  972MOL0     H31153   8.826   7.622   0.518 -0.2940  2.3753  1.6802
  972MOL0     H31154   8.641   7.568   0.673 -0.0552  1.2237  0.0740
  972MOL0     H31155   8.296   7.389   0.564  0.3237 -2.8034  0.6530
  972MOL0     H31156   8.453   7.380   0.653 -0.5832 -0.7830  2.4894
  972MOL0     H31157   8.277   7.312   0.807  1.2209  0.7198  0.3061
  972MOL0     H31158   8.316   7.482   0.857  0.5899 -0.8075  0.9861
  972MOL0     H31159   8.119   7.541   0.688  0.9214 -0.4152 -0.1491
  972MOL0     H31160   8.077   7.379   0.699 -1.0230  0.7750  0.3512
  972MOL0     H31161   8.048   7.411   0.941  1.1009 -0.8195 -0.8280
  972MOL0     H31162   8.112   7.585   0.921 -3.9582  3.1726 -1.1762
  972MOL0     H31163   7.919   7.660   0.800  1.1082  1.1421  0.2629
  972MOL0     H31164   7.860   7.492   0.784 -1.6262  0.9710  0.2968
  972MOL0     H31165   7.789   7.496   1.013 -0.4172 -0.5284 -0.2057
  972MOL0     H31166   7.916   7.612   1.047 -1.2986 -0.3674  1.4658
  972MOL0     H31167   7.711   7.732   1.060 -0.7309  0.3725 -0.3632
  972MOL0     H31168   7.770   7.775   0.906 -0.3024 -0.6739 -0.5370
  972MOL0     H31169   7.539   7.578   0.966  2.4872  0.4905  0.6942
  972MOL0     H31170   7.626   7.552   0.825 -0.3793  0.4579 -0.4347
  972MOL0     H31171   7.604   7.801   0.640  0.2809  2.7243  1.1248
  972MOL0     H31172   7.305   8.050   0.612 -0.8240 -1.8226  0.7080
  972MOL0     H31173   7.466   8.029   0.548 -1.9694  3.6749  0.6616
  972MOL0     H31174   7.244   7.832   0.511  0.8176 -2.4561 -1.8271
  972MOL0     H31175   7.405   7.821   0.436  0.3840  1.9255 -4.0432
  972MOL0     H31176   7.368   8.024   0.296 -0.2954  1.0969 -0.7577
  972MOL0     H31177   7.235   8.064   0.404 -0.0888 -0.2589 -0.2368
  972MOL0     H31178   7.227   7.836   0.204  1.7750  1.5084 -0.4833
  972MOL0     H31179   7.159   8.004   0.188  0.4058  2.3751  2.5604
  972MOL0     H31180   6.867   7.956   0.482 -0.2750 -0.2168 -0.0516
  972MOL0     H31181   6.503   8.005   0.447 -0.7551 -0.0637  0.9389
  972MOL0     H31182   6.630   8.005   0.568  3.9698 -1.3455 -1.4462
  972MOL0     H31183   6.595   8.148   0.466  1.4824 -0.5358  0.4430
  972MOL0     H31184   6.320   8.176   0.025  0.5588  0.1408  0.5928
  972MOL0     H31185   6.114   8.287   0.026 -1.7044 -0.3207  1.8637
  972MOL0     H31186   6.046   8.593   0.343 -2.5600  1.4135  1.7706
  972MOL0     H31187   6.031   8.626   0.169 -0.4800 -1.1736 -0.1270
  972MOL0     H31188   5.801   8.570   0.169  0.3408  1.9152 -0.7850
  972MOL0     H31189   5.812   8.531   0.354 -0.6950  0.4820  0.7727
  972MOL0     H31190   5.860   8.813   0.232 -2.6957  1.0141 -0.3478
  972MOL0     H31191   5.852   8.768   0.403 -0.9941 -0.5134  0.6240
  972MOL0     H31192   5.595   8.683   0.326 -2.4961  1.7419  1.1975
  972MOL0     H31193   5.630   8.839   0.375 -0.0291  0.3080  1.0980
  972MOL0     H31194   5.600   8.740   0.086  2.3694 -2.5591  1.2217
  972MOL0     H31195   5.705   8.886   0.120 -0.0248 -1.5332 -2.1000
  972MOL0     H31196   5.411   8.865   0.193  0.0134  0.6169  4.1002
  972MOL0     H31197   5.513   9.001   0.227 -1.4665  0.1146 -0.0198
  972MOL0     H31198   5.487   8.922  -0.062 -1.2852 -0.2435  0.1503
  972MOL0     H31199   5.579   9.037   0.019  0.4515 -0.4102  0.5892
  972MOL0     H31200   5.384   9.148   0.110 -1.8682  2.2835 -1.6560
  972MOL0     H31201   5.279   9.015   0.051  0.5546  0.7234  2.8835
  972MOL0     H31202   6.182   8.429   0.421 -1.1749 -1.9885  0.0771
  972MOL0     H31203   6.424   8.345   0.405  0.7478  0.7904 -0.7081
  972MOL0     H31204   6.721   7.953   0.018  0.1160 -0.6571  0.4821
  972MOL0     H31205   6.961   7.879   0.065  1.2942  1.2015  0.4615
  972MOL0     H31206   8.348   7.627   0.368  0.6697 -0.9333 -1.1811
  972MOL0     H31207   8.544   7.683   0.209  1.2726  0.9836  0.1587
  972MOL0     H31208   8.897   7.810   0.078 -0.1101  0.6056  1.2233
  972MOL0     H31209   9.083   7.882  -0.094  3.6114 -1.9706 -2.0650
  972MOL0     H31210   9.331   7.984  -0.023  0.5503 -0.2051  1.7985
  972MOL0     H31211   9.413   7.858   0.066 -2.8846 -4.2149 -1.1035
  972MOL0     H31212   9.532   8.021  -0.109 -0.9555 -0.5464  0.5626
  972MOL0     H31213   9.469   7.915  -0.232 -3.5687  0.6323 -0.0030
  972MOL0     H31214   9.610   7.737  -0.164  2.2958 -0.5636 -1.1409
  972MOL0     H31215   9.658   7.825  -0.006  0.5887  0.7888  0.4010
  972MOL0     H31216   9.767   8.000  -0.176  0.7353  0.0881 -0.0939
  972MOL0     H31217   9.733   7.879  -0.305 -1.9571 -0.9462  0.7284
  972MOL0     H31218  10.072   7.707  -0.111  0.0687 -1.0311 -1.6293
  972MOL0     H31219   9.355   7.617   0.092  1.3173  2.0857 -1.6537
  972MOL0     H31220   9.184   7.534   0.252 -0.6667  0.4193  0.5427
  973MOL0     O31221   1.167  11.046   4.391  0.1336  0.7632  0.7237
  973MOL0     C31222   1.293  11.052   4.402 -0.1157 -0.5311 -0.5684
  973MOL0     O31223   1.375  11.166   4.402  0.0914  0.4569  0.2181
  973MOL0     C31224   1.322  11.287   4.355 -0.3627 -0.5717  0.4328
  973MOL0     C31225   1.409  11.394   4.385  0.3162  0.2937  0.6765
  973MOL0     C31226   1.373  11.526   4.354 -0.3676 -0.3849  0.8895
  973MOL0     C31227   1.249  11.553   4.289 -0.6530  0.7252 -0.4403
  973MOL0     O31228   1.223  11.687   4.265  0.4777 -0.4042 -0.1460
  973MOL0     C31229   1.105  11.728   4.195  0.4950 -0.0974  0.4210
  973MOL0     C31230   1.092  11.883   4.179 -0.7914  0.0459  0.3633
  973MOL0     C31231   0.956  11.925   4.129  0.4322  0.3091  0.1419
  973MOL0     C31232   0.959  11.917   3.980 -0.5763 -0.3960 -0.1834
  973MOL0     C31233   0.831  11.979   3.915  0.1628  0.3200 -0.5952
  973MOL0     C31234   0.783  11.892   3.799 -0.8637 -0.0908 -0.2047
  973MOL0     C31235   0.651  11.942   3.746 -0.0208 -0.3927 -0.2171
  973MOL0     C31236   0.559  11.826   3.702  0.1027 -1.4931  0.0468
  973MOL0     N31237   0.433  11.885   3.665  0.4130  0.8996  0.3513
  973MOL0     C31238   0.382  11.935   3.548 -0.6005  0.4292  0.0514
  973MOL0     C31239   0.273  12.008   3.588 -0.9101 -0.4772 -0.2634
  973MOL0     C31240   0.217  12.107   3.496  0.7917  0.3110  0.7934
  973MOL0     C31241   0.099  12.039   3.420  1.1468 -0.3107  0.0065
  973MOL0     C31242  -0.035  12.055   3.501  0.1534 -0.6849 -1.3098
  973MOL0     C31243  -0.146  11.956   3.455 -0.0731  0.6114  0.6017
  973MOL0     O31244  -0.165  11.966   3.315  0.1013 -0.3016  0.0856
  973MOL0     C31245  -0.283  11.917   3.269 -0.3188 -0.0002  0.3069
  973MOL0     C31246  -0.350  11.807   3.324 -0.7278 -0.0883 -0.1631
  973MOL0     C31247  -0.469  11.759   3.273  0.3533  0.0796 -0.6101
  973MOL0     C31248  -0.532  11.658   3.362 -0.0899 -0.1917  0.6328
  973MOL0     C31249  -0.536  11.820   3.162  0.0102  0.4573 -0.1861
  973MOL0     C31250  -0.661  11.778   3.096  0.8164  0.3612  0.0791
  973MOL0     O31251  -0.742  11.696   3.171  0.8132  0.6281  0.1083
  973MOL0     C31252  -0.849  11.638   3.108  0.4934  0.4179 -0.2804
  973MOL0     C31253  -0.851  11.507   3.080  0.8081  0.2635  0.2477
  973MOL0     C31254  -0.968  11.450   3.010  0.7426  0.4123  0.0603
  973MOL0     C31255  -1.069  11.532   2.963  0.3689 -0.0671  0.3658
  973MOL0     O31256  -1.175  11.478   2.887 -0.0555 -0.3428 -0.3559
  973MOL0     C31257  -1.294  11.547   2.854 -0.9714  0.2235  0.3580
  973MOL0     C31258  -1.385  11.532   2.976  0.0506  0.2706 -0.0420
  973MOL0     C31259  -1.476  11.417   2.950  0.0361  0.6597 -0.3055
  973MOL0     C31260  -1.572  11.430   2.825 -0.4472  0.3869 -1.2562
  973MOL0     C31261  -1.673  11.547   2.835 -0.8917  0.6912 -0.4426
  973MOL0     C31262  -1.753  11.553   2.708  0.0363 -0.2710 -0.1260
  973MOL0     C31263  -1.873  11.650   2.727  0.6775  1.0368  1.1976
  973MOL0     C31264  -1.967  11.631   2.606 -0.4443 -0.1759 -0.7114
  973MOL0    Cl31265  -2.056  11.472   2.622  0.1725 -0.1837  0.4147
  973MOL0     C31266  -1.071  11.669   2.995 -0.2251  0.2392 -0.4351
  973MOL0     C31267  -0.961  11.715   3.069 -0.2380 -0.4620  0.1592
  973MOL0     O31268  -0.684  11.817   2.979  0.3288 -0.1828 -0.0402
  973MOL0     C31269  -0.456  11.924   3.106 -0.0817 -0.5961 -0.1571
  973MOL0     C31270  -0.340  11.972   3.159  0.1880 -0.8268 -0.3391
  973MOL0     N31271   0.258  12.010   3.723 -0.0201  0.7239 -0.5557
  973MOL0     N31272   0.344  11.919   3.766 -0.2414 -0.1433 -0.6521
  973MOL0     C31273   1.159  11.446   4.265  0.3770  0.0913  0.5128
  973MOL0     C31274   1.197  11.317   4.295 -1.1091 -0.0422 -0.5685
  973MOL0     C31275   1.368  10.925   4.401 -0.1040 -0.2074  0.1199
  973MOL0     C31276   1.302  10.793   4.394  1.4524  0.2374 -0.1734
  973MOL0     C31277   1.374  10.682   4.394  0.2813 -0.0296  0.1968
  973MOL0     C31278   1.507  10.686   4.402 -1.1302  0.9362 -0.0475
  973MOL0     O31279   1.583  10.570   4.394 -0.1027  0.5316  0.2737
  973MOL0     C31280   1.552  10.477   4.500  0.3983  0.7320 -0.3256
  973MOL0     C31281   1.626  10.344   4.485  0.2887  0.0770  0.1733
  973MOL0     C31282   1.585  10.283   4.355 -0.2405 -0.1328  0.3713
  973MOL0     C31283   1.672  10.154   4.331  0.2684  0.3130  0.6185
  973MOL0     C31284   1.610  10.040   4.400  0.4881  0.8980  0.5897
  973MOL0     C31285   1.545   9.959   4.465  0.4225  0.5864 -0.1281
  973MOL0     C31286   1.577  10.809   4.412 -0.8400 -0.2773 -0.2666
  973MOL0     C31287   1.503  10.929   4.419  0.0067 -0.0572  0.7230
  973MOL0     H31288   1.501  11.381   4.442 -1.6697 -1.7668  3.7702
  973MOL0     H31289   1.441  11.608   4.368 -1.5759  0.9010 -0.4214
  973MOL0     H31290   1.105  11.679   4.097  0.1797 -3.5118  1.9949
  973MOL0     H31291   1.021  11.697   4.257 -0.8839  0.0416 -1.2951
  973MOL0     H31292   1.118  11.933   4.273  2.6864  0.4010 -0.6495
  973MOL0     H31293   1.168  11.931   4.117  0.3219 -1.0893  0.8044
  973MOL0     H31294   0.876  11.858   4.162  0.7602 -0.0503  0.2195
  973MOL0     H31295   0.933  12.023   4.170  1.2681 -0.1240  1.7218
  973MOL0     H31296   1.041  11.979   3.944 -1.3337  0.5007 -0.4228
  973MOL0     H31297   0.984  11.814   3.955  1.0005  0.1067 -0.8080
  973MOL0     H31298   0.749  11.979   3.987 -2.1838 -1.6973 -3.0355
  973MOL0     H31299   0.847  12.082   3.880  0.9224  0.0239 -1.1621
  973MOL0     H31300   0.857  11.897   3.718  0.3312 -2.8264  0.5937
  973MOL0     H31301   0.780  11.784   3.818 -1.3157 -0.0582 -0.0672
  973MOL0     H31302   0.600  12.003   3.821  0.2371  1.6229 -1.5899
  973MOL0     H31303   0.655  12.019   3.669 -3.5808  0.1342 -0.0349
  973MOL0     H31304   0.545  11.754   3.783 -2.7923 -2.9386 -1.5870
  973MOL0     H31305   0.615  11.770   3.626 -1.5225 -2.9462 -0.1461
  973MOL0     H31306   0.436  11.946   3.455  2.5389 -2.9352  1.2302
  973MOL0     H31307   0.178  12.193   3.551 -2.0840 -2.1378  2.9392
  973MOL0     H31308   0.291  12.145   3.425  0.5260  1.2279  0.9842
  973MOL0     H31309   0.118  11.931   3.411  1.9236 -0.0787 -1.3690
  973MOL0     H31310   0.089  12.080   3.320 -0.6457 -1.7566 -0.4550
  973MOL0     H31311  -0.064  12.158   3.476  3.5351  0.6693 -0.2817
  973MOL0     H31312  -0.024  12.036   3.608  1.6072 -1.8578 -1.6398
  973MOL0     H31313  -0.242  11.974   3.503 -0.3162 -1.8546  1.1818
  973MOL0     H31314  -0.114  11.857   3.490  0.3189  0.8823  1.0321
  973MOL0     H31315  -0.308  11.754   3.409  2.6591 -0.2915 -1.7852
  973MOL0     H31316  -0.641  11.670   3.366 -0.8545 -4.2217 -1.8375
  973MOL0     H31317  -0.504  11.557   3.331  2.7050 -0.2272  2.9231
  973MOL0     H31318  -0.499  11.665   3.466 -0.5731 -1.9942  0.9532
  973MOL0     H31319  -0.773  11.438   3.109 -2.5234 -2.1880  4.5063
  973MOL0     H31320  -0.952  11.344   2.993 -0.7595  0.2471 -0.3883
  973MOL0     H31321  -1.292  11.647   2.810 -0.9092 -0.1004 -0.3854
  973MOL0     H31322  -1.329  11.484   2.772 -0.7316  0.3587  0.1504
  973MOL0     H31323  -1.326  11.509   3.066  0.5818  0.5611 -0.3117
  973MOL0     H31324  -1.437  11.627   2.990 -0.8045 -0.5727  3.5014
  973MOL0     H31325  -1.542  11.390   3.033  1.2591 -1.0357  0.1642
  973MOL0     H31326  -1.409  11.331   2.942 -0.2164  0.3869  0.3843
  973MOL0     H31327  -1.522  11.432   2.728  0.6739  1.7837 -0.6863
  973MOL0     H31328  -1.629  11.337   2.830  1.9187 -1.0942  1.1559
  973MOL0     H31329  -1.621  11.643   2.847 -0.4937  0.5804 -1.1986
  973MOL0     H31330  -1.738  11.541   2.923 -3.4279  1.7543 -2.0969
  973MOL0     H31331  -1.692  11.597   2.629  0.9724 -3.2301 -1.2108
  973MOL0     H31332  -1.793  11.456   2.676 -3.6651  0.9649  0.1897
  973MOL0     H31333  -1.830  11.749   2.741 -0.3729  2.1695 -2.5527
  973MOL0     H31334  -1.932  11.612   2.811  0.3593 -0.6151  0.2696
  973MOL0     H31335  -1.922  11.649   2.508  2.1828 -2.3597 -0.0105
  973MOL0     H31336  -2.037  11.713   2.623  2.3115  2.4371 -1.0492
  973MOL0     H31337  -1.150  11.737   2.964 -0.6638 -0.5156 -0.9887
  973MOL0     H31338  -0.960  11.819   3.100 -0.0953 -0.7013  0.9951
  973MOL0     H31339  -0.486  11.957   3.007  1.1322 -3.6836 -1.6839
  973MOL0     H31340  -0.293  12.052   3.103  0.3234  0.0296  0.9496
  973MOL0     H31341   1.065  11.473   4.219 -0.6857 -2.4590  1.0480
  973MOL0     H31342   1.121  11.242   4.275  1.0185 -2.6072  0.4039
  973MOL0     H31343   1.194  10.781   4.385  1.2740 -0.5850  2.3797
  973MOL0     H31344   1.327  10.586   4.375  3.6716 -1.4551 -1.9817
  973MOL0     H31345   1.586  10.517   4.596  1.4003  0.0357 -0.3830
  973MOL0     H31346   1.445  10.457   4.514  0.9088 -1.3322  0.9871
  973MOL0     H31347   1.596  10.266   4.556 -0.6293 -0.6653 -0.9783
  973MOL0     H31348   1.733  10.360   4.496  0.0085  0.4552  3.1997
  973MOL0     H31349   1.608  10.356   4.276 -1.4560 -0.0588  0.0560
  973MOL0     H31350   1.480  10.251   4.358 -0.3607 -0.0626 -1.7349
  973MOL0     H31351   1.775  10.164   4.367 -0.4636  2.0564  2.4279
  973MOL0     H31352   1.668  10.127   4.226  2.5522 -0.0394  0.5634
  973MOL0     H31353   1.482   9.892   4.519  2.8103  0.2701  2.4922
  973MOL0     H31354   1.685  10.820   4.409 -1.0043  1.1603 -2.3196
  973MOL0     H31355   1.557  11.022   4.435  0.4494 -0.0550 -0.6499
  974MOL0     O31356  10.360   3.215   8.661  0.6118 -0.0710 -0.4835
  974MOL0     C31357  10.438   3.124   8.636  0.1942  0.3589  0.4144
  974MOL0     O31358  10.413   2.993   8.594  0.2276  0.4410  0.0506
  974MOL0     C31359  10.287   2.943   8.578 -0.0518 -0.8658  0.7190
  974MOL0     C31360  10.180   2.980   8.669 -0.5293  0.1182 -0.5734
  974MOL0     C31361  10.054   2.924   8.646 -0.6142  0.5234 -0.4518
  974MOL0     C31362  10.029   2.840   8.540 -1.3871  0.3913 -0.4117
  974MOL0     O31363   9.900   2.786   8.533 -0.3648 -0.4311 -0.5001
  974MOL0     C31364   9.851   2.772   8.404 -0.7134  0.3557  0.3064
  974MOL0     C31365   9.703   2.728   8.402 -0.2142  1.6334 -0.8172
  974MOL0     C31366   9.609   2.820   8.482  0.7562  0.1294  0.0438
  974MOL0     C31367   9.571   2.946   8.403  0.2818 -0.6361  0.0729
  974MOL0     C31368   9.490   3.058   8.473  1.1272  0.4732  0.4817
  974MOL0     C31369   9.361   3.005   8.540 -0.0230  0.6148  0.2739
  974MOL0     C31370   9.249   2.961   8.440 -0.1633  0.3504  0.3239
  974MOL0     C31371   9.181   3.087   8.391  0.0660 -0.0847 -0.7626
  974MOL0     N31372   9.060   3.057   8.322  0.5556  1.0608 -0.1676
  974MOL0     C31373   8.930   3.068   8.367 -0.3144 -0.5281 -1.0794
  974MOL0     C31374   8.852   3.040   8.264  0.3367 -0.0505  0.7840
  974MOL0     C31375   8.705   3.039   8.246 -0.4165 -0.8964  0.3043
  974MOL0     C31376   8.665   3.147   8.153  1.0307 -0.4171 -0.2629
  974MOL0     C31377   8.637   3.096   8.008  0.6267  0.4149  0.3819
  974MOL0     C31378   8.497   3.030   8.001 -0.2112 -0.3614  0.3116
  974MOL0     O31379   8.485   2.976   7.863 -0.5696 -0.1239 -0.0795
  974MOL0     C31380   8.363   2.967   7.813 -0.1961  0.3585  0.1408
  974MOL0     C31381   8.268   3.058   7.830 -0.4423 -0.5793  0.2326
  974MOL0     C31382   8.146   3.056   7.758  0.1786  0.0861  0.1009
  974MOL0     C31383   8.046   3.167   7.799  0.7688 -0.0004 -0.0595
  974MOL0     C31384   8.123   2.947   7.676 -0.2193  0.7900  0.0076
  974MOL0     C31385   7.999   2.936   7.600  0.0159  0.7257 -0.8533
  974MOL0     O31386   7.909   3.032   7.615 -0.4045  0.0785  0.7869
  974MOL0     C31387   7.786   3.011   7.544  0.4291 -0.4439 -0.4322
  974MOL0     C31388   7.793   3.009   7.406  0.5932 -0.3112  0.0051
  974MOL0     C31389   7.675   3.018   7.332  0.0722  0.0255  0.3740
  974MOL0     C31390   7.550   3.004   7.395 -0.1301  1.0492 -0.1132
  974MOL0     O31391   7.438   3.008   7.314  0.2494 -0.8453 -0.1804
  974MOL0     C31392   7.306   3.015   7.375 -0.3089  0.3817 -0.1726
  974MOL0     C31393   7.205   3.070   7.276 -0.6067  0.5242  0.4560
  974MOL0     C31394   7.079   3.119   7.334 -1.0174 -0.2953 -0.2514
  974MOL0     C31395   6.970   3.134   7.226 -0.1827  0.4002 -0.4267
  974MOL0     C31396   6.828   3.113   7.279 -0.0720  0.7335 -0.1257
  974MOL0     C31397   6.793   3.179   7.409 -0.2031 -0.3785  0.7522
  974MOL0     C31398   6.659   3.108   7.457  0.1498  0.5378  0.1876
  974MOL0     C31399   6.585   3.199   7.557  0.0478 -0.3104  0.1251
  974MOL0    Cl31400   6.685   3.260   7.679  0.1681  0.1118  0.3036
  974MOL0     C31401   7.550   2.994   7.541 -0.5046  0.2149  0.2863
  974MOL0     C31402   7.666   3.013   7.609 -0.0843 -0.0203  0.3835
  974MOL0     O31403   7.985   2.827   7.539 -0.2955 -0.4202 -0.9683
  974MOL0     C31404   8.227   2.851   7.650 -0.1071 -0.2836  0.7515
  974MOL0     C31405   8.342   2.864   7.721  0.6942 -0.2541 -0.3062
  974MOL0     N31406   8.933   3.001   8.159  0.1687  0.6393  0.0605
  974MOL0     N31407   9.059   3.013   8.191  0.0295 -0.1744 -0.2813
  974MOL0     C31408  10.140   2.804   8.455 -0.3169  0.0270 -1.0396
  974MOL0     C31409  10.264   2.853   8.480 -0.4147 -0.3217 -0.0685
  974MOL0     C31410  10.576   3.156   8.655 -0.4409 -0.3406  0.1616
  974MOL0     C31411  10.617   3.285   8.686  0.3168 -0.1073 -0.1517
  974MOL0     C31412  10.745   3.311   8.721 -0.4894 -0.6512 -0.2908
  974MOL0     C31413  10.849   3.213   8.707 -0.5246 -0.3969 -0.3567
  974MOL0     O31414  10.977   3.250   8.733 -1.0704 -0.3625 -0.3282
  974MOL0     C31415  11.081   3.181   8.655  0.3293 -0.6134 -0.3933
  974MOL0     C31416  11.220   3.251   8.647  0.6131  0.1635 -0.2198
  974MOL0     C31417  11.225   3.363   8.733  0.0672 -0.6130  0.4415
  974MOL0     C31418  11.351   3.452   8.709 -0.1431 -0.5241 -0.1503
  974MOL0     C31419  11.352   3.569   8.791  0.2692  0.0316 -0.5358
  974MOL0     C31420  11.350   3.667   8.862 -0.9607 -0.6232 -0.6623
  974MOL0     C31421  10.814   3.092   8.664  0.9346  0.0938  1.4423
  974MOL0     C31422  10.678   3.061   8.650  1.0427  0.1244  0.1901
  974MOL0     H31423  10.189   3.051   8.751 -0.2206 -1.4687  0.8124
  974MOL0     H31424   9.971   2.941   8.713 -2.3498  2.5762 -2.9479
  974MOL0     H31425   9.859   2.859   8.339 -2.8909  1.5691  1.5139
  974MOL0     H31426   9.889   2.679   8.360 -2.5054  0.1326 -0.8898
  974MOL0     H31427   9.667   2.727   8.298 -2.5449 -2.4737 -0.2143
  974MOL0     H31428   9.696   2.622   8.428  0.9755  1.4324 -1.2761
  974MOL0     H31429   9.520   2.772   8.523 -0.1370 -1.6926 -3.6166
  974MOL0     H31430   9.674   2.864   8.559 -0.3699  3.7448 -0.8533
  974MOL0     H31431   9.667   2.995   8.383  0.4112 -0.9095  0.0030
  974MOL0     H31432   9.532   2.923   8.303 -0.6460 -0.3680  0.3668
  974MOL0     H31433   9.537   3.082   8.569 -1.4752  0.1566  1.9441
  974MOL0     H31434   9.469   3.137   8.400  0.3066 -0.7542 -0.6554
  974MOL0     H31435   9.389   2.922   8.606 -0.0219 -0.7820 -1.4190
  974MOL0     H31436   9.320   3.084   8.603  1.7524  0.9719  1.0487
  974MOL0     H31437   9.289   2.897   8.361  3.4807  2.7107 -0.0028
  974MOL0     H31438   9.180   2.908   8.506  1.5922 -2.2663  0.1811
  974MOL0     H31439   9.248   3.147   8.329 -0.0077  2.0324  1.1141
  974MOL0     H31440   9.160   3.140   8.484  0.7753 -0.6672 -0.2627
  974MOL0     H31441   8.899   3.093   8.468  0.9942  4.1833 -1.5893
  974MOL0     H31442   8.667   2.938   8.229  1.0041 -1.0939 -1.9538
  974MOL0     H31443   8.668   3.077   8.342  0.7237 -0.0914  0.4352
  974MOL0     H31444   8.737   3.229   8.153  0.1792  0.3657  0.3590
  974MOL0     H31445   8.569   3.179   8.196  0.4230 -1.3971 -0.8468
  974MOL0     H31446   8.707   3.020   7.973 -0.4870 -0.0888 -0.8027
  974MOL0     H31447   8.638   3.170   7.927 -2.5762 -1.7952 -1.9106
  974MOL0     H31448   8.432   3.110   8.037  0.7179  0.1058  0.9964
  974MOL0     H31449   8.488   2.944   8.068  1.3778 -2.3739 -1.8496
  974MOL0     H31450   8.271   3.139   7.902 -3.5046 -0.4628  0.3359
  974MOL0     H31451   8.098   3.236   7.865 -0.5314  0.2283  0.7551
  974MOL0     H31452   8.017   3.238   7.721  3.8450  2.7490  1.0830
  974MOL0     H31453   7.957   3.128   7.849 -0.4318  0.3998 -1.7898
  974MOL0     H31454   7.891   3.008   7.359  0.4862 -1.9119 -0.2272
  974MOL0     H31455   7.672   3.021   7.224  0.1351 -0.5875  0.3476
  974MOL0     H31456   7.275   2.922   7.424 -0.7552  1.6591  2.0987
  974MOL0     H31457   7.313   3.087   7.457 -0.6827  2.2404 -1.7074
  974MOL0     H31458   7.252   3.154   7.224 -2.5046  0.1719 -2.0430
  974MOL0     H31459   7.186   2.985   7.209 -0.1472  0.1149  0.8315
  974MOL0     H31460   7.092   3.214   7.388 -1.0692 -0.5978  0.3017
  974MOL0     H31461   7.043   3.050   7.410  0.1893  1.2256  1.8233
  974MOL0     H31462   6.983   3.230   7.174  3.3348 -0.0554 -0.6282
  974MOL0     H31463   6.987   3.062   7.146  1.9679 -0.1381  0.4333
  974MOL0     H31464   6.812   3.006   7.295  2.4295  0.4199  0.7584
  974MOL0     H31465   6.762   3.157   7.204 -1.0164  0.0702  0.3014
  974MOL0     H31466   6.869   3.168   7.487 -0.3115 -1.5156  0.7156
  974MOL0     H31467   6.791   3.289   7.405 -1.4126 -0.4090  0.2630
  974MOL0     H31468   6.683   3.014   7.507 -4.3720 -1.2830 -0.5089
  974MOL0     H31469   6.589   3.080   7.377  1.3948 -0.2124 -0.6660
  974MOL0     H31470   6.503   3.145   7.605 -0.1227  1.3156  1.7624
  974MOL0     H31471   6.549   3.279   7.492 -1.3843 -1.0477 -0.0365
  974MOL0     H31472   7.456   2.995   7.596 -0.9735 -0.8209 -0.4712
  974MOL0     H31473   7.663   3.034   7.716 -0.9964  0.6365  0.2395
  974MOL0     H31474   8.213   2.774   7.575  4.1238  0.6478 -1.3194
  974MOL0     H31475   8.420   2.791   7.704  1.3042  0.7767 -2.3131
  974MOL0     H31476  10.132   2.742   8.366 -0.5634  0.6992 -1.5011
  974MOL0     H31477  10.339   2.827   8.406 -0.7956  1.0029 -0.9619
  974MOL0     H31478  10.553   3.373   8.687 -2.7048 -2.1437 -0.2027
  974MOL0     H31479  10.790   3.407   8.745  2.3652 -2.0544  0.4103
  974MOL0     H31480  11.095   3.081   8.699  0.7947  0.1702  1.3619
  974MOL0     H31481  11.049   3.176   8.551  0.3677  1.5789 -0.5565
  974MOL0     H31482  11.241   3.284   8.545 -1.5324 -0.3345 -0.8637
  974MOL0     H31483  11.298   3.183   8.684  3.4465  0.9424 -4.0919
  974MOL0     H31484  11.224   3.331   8.838  0.2741  0.2595  0.7185
  974MOL0     H31485  11.138   3.421   8.702  0.1604  0.9853  2.9101
  974MOL0     H31486  11.356   3.485   8.604 -1.2058  0.5000  0.1016
  974MOL0     H31487  11.447   3.407   8.735  0.7266  1.6435  0.6678
  974MOL0     H31488  11.342   3.745   8.935  3.7988 -0.7854  0.3771
  974MOL0     H31489  10.886   3.010   8.661 -0.6267 -1.3058  0.4156
  974MOL0     H31490  10.665   2.959   8.616 -0.0062  0.0133  0.8645
  975MOL0     O31491   6.558   2.546   6.633  0.2357  0.2242  0.4335
  975MOL0     C31492   6.586   2.468   6.541  0.3521  0.5760  0.4425
  975MOL0     O31493   6.513   2.449   6.426  0.7179  0.0575 -0.0629
  975MOL0     C31494   6.383   2.506   6.410  0.1260  0.4080 -0.4234
  975MOL0     C31495   6.295   2.515   6.517  1.7144  0.6779  0.8769
  975MOL0     C31496   6.165   2.558   6.493 -0.2484 -1.2555  1.2693
  975MOL0     C31497   6.129   2.621   6.377  0.0772  0.2770 -0.0055
  975MOL0     O31498   6.007   2.673   6.365  0.5159  0.0891  0.2333
  975MOL0     C31499   5.998   2.813   6.367  0.0043 -0.1705 -0.3083
  975MOL0     C31500   5.858   2.853   6.410 -0.4964 -0.0046 -0.9438
  975MOL0     C31501   5.771   2.905   6.293  0.1025  0.0768  0.0215
  975MOL0     C31502   5.624   2.881   6.323  0.6177  0.1122  0.8741
  975MOL0     C31503   5.542   2.937   6.198  0.1671 -0.3437 -0.3626
  975MOL0     C31504   5.551   3.088   6.178  0.4834 -0.4357 -0.6396
  975MOL0     C31505   5.473   3.160   6.290  0.4538  0.7552  0.0324
  975MOL0     C31506   5.331   3.113   6.324  0.4457  0.0829  0.6431
  975MOL0     N31507   5.238   3.139   6.214 -0.5999 -0.2936 -0.5011
  975MOL0     C31508   5.162   3.049   6.146  0.2438 -0.1152  0.3311
  975MOL0     C31509   5.107   3.126   6.052 -0.3863 -0.4269  0.1793
  975MOL0     C31510   5.019   3.066   5.951 -0.7001 -0.7129  0.3311
  975MOL0     C31511   5.110   3.023   5.838  0.3872  0.8982 -0.1657
  975MOL0     C31512   5.029   2.974   5.711 -0.1062  0.2047  0.4836
  975MOL0     C31513   5.120   2.931   5.594  0.3823  0.0089 -0.1040
  975MOL0     O31514   5.051   2.901   5.472 -0.8560  0.4837  0.7622
  975MOL0     C31515   4.957   2.804   5.466 -0.1533  0.0866  0.1319
  975MOL0     C31516   4.866   2.797   5.361 -0.6877  0.2659  0.8080
  975MOL0     C31517   4.771   2.696   5.346 -0.1046 -0.3204 -0.7104
  975MOL0     C31518   4.674   2.702   5.236 -1.0405  0.6944 -0.3910
  975MOL0     C31519   4.767   2.596   5.443  0.4432 -0.6363  0.0098
  975MOL0     C31520   4.650   2.491   5.442  0.2076 -1.1765 -0.3210
  975MOL0     O31521   4.523   2.544   5.451  0.7253  0.1165  0.8050
  975MOL0     C31522   4.417   2.453   5.462 -0.1573 -0.4514 -0.1718
  975MOL0     C31523   4.415   2.334   5.387  1.3718 -0.7570  0.7933
  975MOL0     C31524   4.302   2.247   5.391  0.2859 -0.3839  0.2013
  975MOL0     C31525   4.192   2.277   5.476  0.1341 -0.5382  0.2309
  975MOL0     O31526   4.091   2.180   5.478  0.5466 -0.0493  0.6725
  975MOL0     C31527   3.985   2.204   5.564  1.0483 -0.1286 -0.6318
  975MOL0     C31528   3.877   2.293   5.502  0.5402  0.0381  1.1007
  975MOL0     C31529   3.806   2.230   5.376  0.2358  0.2157  0.5588
  975MOL0     C31530   3.655   2.203   5.382 -0.0853 -0.1646 -0.3790
  975MOL0     C31531   3.607   2.129   5.257 -0.4768 -0.0302  0.2481
  975MOL0     C31532   3.465   2.082   5.279 -0.4039 -0.2928  0.2938
  975MOL0     C31533   3.354   2.200   5.264  0.2174 -0.2181  0.0172
  975MOL0     C31534   3.213   2.141   5.286  0.5792 -0.8356 -0.6592
  975MOL0    Cl31535   3.094   2.280   5.290 -0.1884  0.3232 -0.5750
  975MOL0     C31536   4.195   2.406   5.540  0.1952 -0.0100  0.3105
  975MOL0     C31537   4.306   2.485   5.535 -0.2245 -0.6292 -0.2374
  975MOL0     O31538   4.684   2.381   5.477  0.1315 -0.0326 -0.1879
  975MOL0     C31539   4.860   2.602   5.548 -0.5759 -0.5873 -0.5011
  975MOL0     C31540   4.961   2.699   5.562  0.8142  0.8382  0.2552
  975MOL0     N31541   5.139   3.262   6.060 -0.4664 -0.4566 -0.8302
  975MOL0     N31542   5.226   3.263   6.151 -0.3903 -0.1960 -1.3295
  975MOL0     C31543   6.215   2.620   6.269 -0.5593 -0.1300  0.1845
  975MOL0     C31544   6.344   2.560   6.286 -0.5697 -0.1183 -0.3333
  975MOL0     C31545   6.704   2.374   6.574 -0.1573  0.3773  0.4590
  975MOL0     C31546   6.739   2.279   6.474  0.4953 -0.2468  0.2650
  975MOL0     C31547   6.841   2.194   6.506  0.4053 -0.0376 -0.1583
  975MOL0     C31548   6.918   2.207   6.626 -0.9626 -0.6748 -0.8600
  975MOL0     O31549   7.021   2.117   6.649 -0.5268 -0.7085 -0.3412
  975MOL0     C31550   7.148   2.149   6.584 -0.1404  0.0393 -0.0017
  975MOL0     C31551   7.257   2.099   6.671  0.2125 -0.0785  0.1622
  975MOL0     C31552   7.381   2.111   6.586 -0.5934 -0.8355  0.2160
  975MOL0     C31553   7.497   2.022   6.638  0.7694  0.1807  0.7346
  975MOL0     C31554   7.507   1.892   6.574  0.5552  0.2122 -0.3301
  975MOL0     C31555   7.512   1.784   6.523 -0.0244  0.5585  0.7998
  975MOL0     C31556   6.887   2.304   6.721 -0.0673 -0.2605  0.3459
  975MOL0     C31557   6.773   2.382   6.696 -0.6841  0.4461  0.2226
  975MOL0     H31558   6.331   2.477   6.612  0.5407 -2.3131  0.2359
  975MOL0     H31559   6.095   2.558   6.576 -0.6270  0.9680  1.0036
  975MOL0     H31560   6.076   2.857   6.430 -1.3104  1.8232  0.0387
  975MOL0     H31561   6.010   2.852   6.265 -2.2471 -1.3253 -1.0718
  975MOL0     H31562   5.809   2.767   6.457 -1.1995  1.1221  0.4682
  975MOL0     H31563   5.866   2.927   6.490 -0.1025 -0.9654 -0.0554
  975MOL0     H31564   5.787   3.011   6.268 -0.6676  0.1730 -0.0867
  975MOL0     H31565   5.796   2.842   6.207 -1.2820  0.8977 -1.0248
  975MOL0     H31566   5.601   2.775   6.335 -1.1791  0.4475  0.6807
  975MOL0     H31567   5.583   2.939   6.406 -0.8243  0.3962 -0.0085
  975MOL0     H31568   5.574   2.895   6.102  0.1654  0.5647 -0.7764
  975MOL0     H31569   5.441   2.897   6.203  0.3554 -1.0675 -1.8840
  975MOL0     H31570   5.649   3.130   6.155  0.0799  0.9924  0.1431
  975MOL0     H31571   5.491   3.114   6.090  2.6841 -0.3166 -2.1797
  975MOL0     H31572   5.529   3.152   6.383  0.7188  2.3011  0.0157
  975MOL0     H31573   5.465   3.263   6.255  0.0856  0.5957 -0.3743
  975MOL0     H31574   5.295   3.180   6.402 -2.1335  0.3854 -0.6974
  975MOL0     H31575   5.316   3.009   6.354 -1.4044 -0.4052 -1.7137
  975MOL0     H31576   5.160   2.941   6.154  1.1923 -0.2808 -1.1976
  975MOL0     H31577   4.959   2.983   5.991  2.3370 -3.1620  0.2278
  975MOL0     H31578   4.957   3.153   5.928 -0.3540 -0.0199  1.8624
  975MOL0     H31579   5.176   2.940   5.864  2.6088  1.8405 -2.3611
  975MOL0     H31580   5.172   3.110   5.814 -1.7923  3.7825  3.5912
  975MOL0     H31581   4.961   3.053   5.676  1.2446 -0.0576 -3.1336
  975MOL0     H31582   4.960   2.894   5.739 -1.8817  0.6582 -2.1448
  975MOL0     H31583   5.181   2.848   5.630 -1.7566 -2.0000 -0.8329
  975MOL0     H31584   5.184   3.016   5.569 -0.4589  0.2512 -1.5331
  975MOL0     H31585   4.869   2.875   5.286 -0.0400 -0.9528 -0.4783
  975MOL0     H31586   4.727   2.740   5.148  1.1594  0.0667  0.5869
  975MOL0     H31587   4.648   2.598   5.215  1.8559 -0.1956 -0.0442
  975MOL0     H31588   4.586   2.761   5.263 -0.2797  1.8487 -0.3196
  975MOL0     H31589   4.501   2.318   5.323 -1.3995 -0.8479 -3.3472
  975MOL0     H31590   4.315   2.160   5.327  0.6484  1.7552 -2.8143
  975MOL0     H31591   3.941   2.112   5.604 -0.9865  1.5805  1.3417
  975MOL0     H31592   4.013   2.251   5.658 -0.5534  1.5087 -0.9262
  975MOL0     H31593   3.798   2.327   5.570 -0.7225  0.0933 -0.3465
  975MOL0     H31594   3.929   2.384   5.472  0.2199 -0.5782 -1.5777
  975MOL0     H31595   3.855   2.135   5.349 -1.7755 -0.1127 -2.4848
  975MOL0     H31596   3.832   2.288   5.287  1.0811 -4.2355 -2.4541
  975MOL0     H31597   3.633   2.146   5.473  5.8435 -0.8707  1.0256
  975MOL0     H31598   3.620   2.307   5.386 -1.4298 -0.6353  1.9061
  975MOL0     H31599   3.659   2.033   5.249  0.4652  0.4846  0.0216
  975MOL0     H31600   3.637   2.186   5.168 -1.2524 -0.2252 -0.1489
  975MOL0     H31601   3.439   1.998   5.214  0.6854  1.6400 -2.8534
  975MOL0     H31602   3.461   2.042   5.381 -0.1417  0.6744  0.6984
  975MOL0     H31603   3.353   2.234   5.160 -3.0393  1.3682  0.4435
  975MOL0     H31604   3.361   2.291   5.326 -5.0114  2.0201 -2.1317
  975MOL0     H31605   3.213   2.093   5.384  0.7756 -0.7375 -0.6095
  975MOL0     H31606   3.186   2.069   5.207 -1.1892 -0.1657 -0.7090
  975MOL0     H31607   4.112   2.443   5.599  0.4277 -0.1711  0.7393
  975MOL0     H31608   4.304   2.579   5.589 -1.5081 -1.7880  1.8889
  975MOL0     H31609   4.850   2.515   5.612 -0.9166 -0.9563 -1.0482
  975MOL0     H31610   5.030   2.696   5.645  0.6638 -0.6301  0.3635
  975MOL0     H31611   6.182   2.672   6.180 -1.9598 -1.2647 -0.0082
  975MOL0     H31612   6.417   2.558   6.206  2.7299 -2.1905  2.4592
  975MOL0     H31613   6.689   2.270   6.378 -2.6446 -2.3868  1.8941
  975MOL0     H31614   6.868   2.120   6.431 -2.9422 -0.7543 -0.8482
  975MOL0     H31615   7.139   2.111   6.482 -3.4357  6.1422 -2.5128
  975MOL0     H31616   7.158   2.257   6.569  0.6421  0.1691  1.3029
  975MOL0     H31617   7.250   1.995   6.706  2.2428  0.0183  0.9613
  975MOL0     H31618   7.264   2.167   6.757  1.5040 -0.0564  0.0595
  975MOL0     H31619   7.411   2.216   6.592 -1.1414 -0.7751  2.8734
  975MOL0     H31620   7.366   2.098   6.478 -1.6356  0.9482  0.0912
  975MOL0     H31621   7.492   2.021   6.747 -1.5985 -0.4050  0.6694
  975MOL0     H31622   7.585   2.076   6.601 -0.8231  1.3728 -1.5525
  975MOL0     H31623   7.500   1.694   6.466 -0.5990  0.7487  0.6092
  975MOL0     H31624   6.931   2.308   6.820 -0.7662 -1.1116  0.7073
  975MOL0     H31625   6.754   2.460   6.769  2.4639 -0.3037  2.0039
  976MOL0     O31626  10.146   5.085   9.546  0.4056  0.0087  0.6749
  976MOL0     C31627  10.169   5.161   9.452  0.3915 -0.2796  0.0338
  976MOL0     O31628  10.079   5.234   9.382  0.3133 -0.3768  0.2030
  976MOL0     C31629   9.949   5.201   9.407  0.3062 -0.6374  0.0907
  976MOL0     C31630   9.899   5.074   9.365  0.3869 -0.3719  0.7256
  976MOL0     C31631   9.763   5.035   9.399  0.2980  0.0252  0.3914
  976MOL0     C31632   9.671   5.123   9.468 -1.1721 -0.9821 -0.6661
  976MOL0     O31633   9.546   5.078   9.499  0.0427  0.3018  0.2396
  976MOL0     C31634   9.494   5.115   9.629 -0.3702 -0.7070 -0.3367
  976MOL0     C31635   9.376   5.013   9.658 -0.1059 -0.4121 -0.1972
  976MOL0     C31636   9.357   5.005   9.810 -0.0698 -1.0468 -0.1249
  976MOL0     C31637   9.237   4.918   9.840  0.6029 -0.3444 -0.3562
  976MOL0     C31638   9.109   4.992   9.834  0.4314 -0.8644  0.0052
  976MOL0     C31639   9.001   4.896   9.892  0.4567 -0.0120  0.4975
  976MOL0     C31640   8.856   4.950   9.916  0.3780 -0.6191  0.6518
  976MOL0     C31641   8.779   4.975   9.788 -0.5465  0.0443  0.2306
  976MOL0     N31642   8.644   5.022   9.809 -1.0164  0.1144  0.6174
  976MOL0     C31643   8.523   4.954   9.808 -0.4667  0.1401  0.2985
  976MOL0     C31644   8.443   5.057   9.842  0.3847 -0.7486  0.0937
  976MOL0     C31645   8.290   5.059   9.866 -0.7929  0.4497 -0.5325
  976MOL0     C31646   8.218   5.152   9.778  0.4704 -0.5369 -0.0304
  976MOL0     C31647   8.067   5.170   9.811 -0.2356 -0.2942  0.6140
  976MOL0     C31648   8.004   5.237   9.688 -0.6439  0.4066  0.0452
  976MOL0     O31649   7.861   5.240   9.688 -0.0307  0.3072 -0.1096
  976MOL0     C31650   7.803   5.330   9.779 -0.2207  0.5844  0.2387
  976MOL0     C31651   7.662   5.340   9.781  0.2565  1.2658 -0.6539
  976MOL0     C31652   7.596   5.426   9.870 -0.3634 -0.1665  0.3228
  976MOL0     C31653   7.451   5.460   9.853 -0.2060 -0.2186  0.1209
  976MOL0     C31654   7.668   5.507   9.955  0.1049 -0.1068  0.0001
  976MOL0     C31655   7.606   5.611  10.051  0.0139 -0.8833  0.7001
  976MOL0     O31656   7.638   5.610  10.178  0.8831 -0.1894  0.0276
  976MOL0     C31657   7.576   5.697  10.262 -0.0211  1.0538 -0.3175
  976MOL0     C31658   7.664   5.769  10.338 -0.1583 -0.0840 -0.4218
  976MOL0     C31659   7.612   5.865  10.426  0.4574  0.2354 -0.2799
  976MOL0     C31660   7.471   5.885  10.438 -1.1934  0.5641 -0.0533
  976MOL0     O31661   7.426   5.985  10.529  0.7461  0.1517  0.4955
  976MOL0     C31662   7.346   5.933  10.642 -0.5183  0.0743 -0.2722
  976MOL0     C31663   7.247   6.043  10.697 -0.9993  0.2287  0.4320
  976MOL0     C31664   7.121   5.988  10.775 -1.0029 -0.0489 -0.5762
  976MOL0     C31665   7.020   6.091  10.822  0.3307 -0.1740 -0.0880
  976MOL0     C31666   6.884   6.032  10.879 -0.0480  0.1629 -0.4557
  976MOL0     C31667   6.819   6.122  10.979 -0.2790  0.6592 -0.6538
  976MOL0     C31668   6.706   6.046  11.049  0.6851 -0.0213 -0.0719
  976MOL0     C31669   6.623   6.148  11.133 -0.0458  0.0041 -0.0882
  976MOL0    Cl31670   6.544   6.273  11.036  0.3692  0.0977  0.1684
  976MOL0     C31671   7.384   5.807  10.370 -0.7102 -0.0066  0.6929
  976MOL0     C31672   7.435   5.709  10.278  0.6417 -0.6367 -0.7201
  976MOL0     O31673   7.530   5.696   9.999  0.5645  0.1187 -0.4771
  976MOL0     C31674   7.807   5.501   9.942 -0.4157 -0.2385  0.0178
  976MOL0     C31675   7.868   5.418   9.865  0.0605  0.9631 -0.2593
  976MOL0     N31676   8.510   5.176   9.861 -0.4709  0.4732  0.3309
  976MOL0     N31677   8.636   5.154   9.829 -0.5540 -0.1909 -0.6821
  976MOL0     C31678   9.717   5.258   9.480  0.6965 -0.4355  0.3262
  976MOL0     C31679   9.853   5.296   9.449  0.4944 -0.5278 -0.1480
  976MOL0     C31680  10.307   5.183   9.416  0.1262  0.8162  1.4913
  976MOL0     C31681  10.410   5.134   9.500 -0.5686  0.0813 -0.5883
  976MOL0     C31682  10.548   5.157   9.473  0.2406 -0.3714  0.3893
  976MOL0     C31683  10.576   5.248   9.376  0.4183 -0.5418 -0.6191
  976MOL0     O31684  10.710   5.283   9.355  0.5322  0.8888  0.1390
  976MOL0     C31685  10.738   5.400   9.269  0.2350 -1.0239  0.3011
  976MOL0     C31686  10.888   5.451   9.275  0.3737 -0.1873 -0.0927
  976MOL0     C31687  10.998   5.326   9.267  0.4917 -0.5671 -0.7282
  976MOL0     C31688  11.044   5.305   9.119 -0.5399  0.4150  0.0861
  976MOL0     C31689  11.132   5.422   9.091 -1.0826  0.1050 -0.8785
  976MOL0     C31690  11.212   5.506   9.069 -0.2896  0.1289 -0.2091
  976MOL0     C31691  10.474   5.294   9.287 -0.3396 -0.4901 -0.4474
  976MOL0     C31692  10.340   5.257   9.308 -0.2727 -0.3601  0.8120
  976MOL0     H31693   9.977   5.014   9.317 -0.7148 -1.6132  0.4300
  976MOL0     H31694   9.723   4.936   9.379 -1.5264  0.7718  0.1663
  976MOL0     H31695   9.574   5.095   9.700  0.0001 -0.6392 -0.7288
  976MOL0     H31696   9.470   5.220   9.646 -0.6783 -0.8528  0.1395
  976MOL0     H31697   9.287   5.041   9.601  1.5317 -0.3636 -2.9109
  976MOL0     H31698   9.402   4.911   9.627 -1.8124 -0.9860  0.1821
  976MOL0     H31699   9.452   4.963   9.846  1.0817 -0.0053 -1.7981
  976MOL0     H31700   9.345   5.103   9.858  2.8833 -0.3224 -0.6458
  976MOL0     H31701   9.231   4.837   9.767 -1.4118 -1.0254  0.5151
  976MOL0     H31702   9.262   4.872   9.936  2.7312 -1.2522 -1.2697
  976MOL0     H31703   9.103   5.077   9.902  1.5379 -1.2665  0.6221
  976MOL0     H31704   9.082   5.027   9.734  1.7088  0.9022  0.2418
  976MOL0     H31705   8.989   4.821   9.813 -0.6823  0.8362 -0.1681
  976MOL0     H31706   9.040   4.834   9.974  0.5407 -2.3384 -1.2046
  976MOL0     H31707   8.801   4.866   9.959  1.7771 -1.0562  1.6139
  976MOL0     H31708   8.852   5.046   9.969 -0.6302  0.0066 -0.4904
  976MOL0     H31709   8.767   4.881   9.733  0.8419 -0.6082  1.0162
  976MOL0     H31710   8.820   5.050   9.720  0.1215  0.8357  1.4747
  976MOL0     H31711   8.497   4.853   9.780  0.8064  0.5182 -2.6898
  976MOL0     H31712   8.261   4.955   9.855  0.0704  0.1754 -0.2964
  976MOL0     H31713   8.260   5.100   9.963  0.2943  0.8045 -0.3343
  976MOL0     H31714   8.234   5.131   9.672 -0.1912 -1.2795  0.0047
  976MOL0     H31715   8.257   5.253   9.791 -1.1102  0.3332 -1.6394
  976MOL0     H31716   8.061   5.234   9.899  2.6023 -0.4029  0.9678
  976MOL0     H31717   8.017   5.075   9.837 -0.6233 -1.0973 -2.6361
  976MOL0     H31718   8.035   5.170   9.607  1.0361 -0.9203  1.6873
  976MOL0     H31719   8.046   5.337   9.670  0.0732 -0.0164 -0.6843
  976MOL0     H31720   7.597   5.272   9.726  3.6116 -0.7923 -2.4136
  976MOL0     H31721   7.442   5.524   9.765 -3.3813 -1.9375 -0.9449
  976MOL0     H31722   7.396   5.369   9.824 -0.5391  0.7269 -2.4921
  976MOL0     H31723   7.399   5.498   9.941  1.8506 -2.0834  2.2719
  976MOL0     H31724   7.771   5.752  10.345 -0.0669  1.0896  2.9243
  976MOL0     H31725   7.679   5.910  10.498  2.3798 -2.3957 -0.2637
  976MOL0     H31726   7.281   5.855  10.601 -2.2288  1.6541 -0.6511
  976MOL0     H31727   7.411   5.880  10.712 -3.2149 -0.6144  1.8594
  976MOL0     H31728   7.306   6.102  10.769  0.7129  0.9805 -1.4792
  976MOL0     H31729   7.212   6.109  10.618  2.4589 -0.9351 -2.3435
  976MOL0     H31730   7.147   5.933  10.865  0.5498 -0.5056 -1.2553
  976MOL0     H31731   7.078   5.920  10.702  2.1659 -1.6230 -1.1780
  976MOL0     H31732   7.058   6.157  10.900 -0.6890  1.2614 -0.7567
  976MOL0     H31733   7.001   6.162  10.741 -2.5327 -2.0422 -1.2176
  976MOL0     H31734   6.909   5.939  10.933  1.6645 -0.4080 -2.1340
  976MOL0     H31735   6.816   6.012  10.796  0.2819  0.3576 -0.7706
  976MOL0     H31736   6.887   6.156  11.057 -1.5980 -1.8070  1.7279
  976MOL0     H31737   6.776   6.210  10.930 -2.1069 -0.2069 -0.6928
  976MOL0     H31738   6.736   5.971  11.124 -0.8073 -0.5908 -0.0198
  976MOL0     H31739   6.637   6.007  10.974  1.3699  0.0937 -0.7674
  976MOL0     H31740   6.682   6.195  11.211  0.6089 -2.7685  1.2038
  976MOL0     H31741   6.545   6.089  11.183  0.1331 -0.2902 -0.1563
  976MOL0     H31742   7.275   5.811  10.373 -1.1106 -3.5026 -2.1168
  976MOL0     H31743   7.372   5.643  10.218 -0.1826 -1.6604  1.2000
  976MOL0     H31744   7.862   5.558  10.016 -1.3200 -0.2470  0.7120
  976MOL0     H31745   7.976   5.414   9.859  0.1329  2.9255 -1.2582
  976MOL0     H31746   9.649   5.334   9.518 -0.1583 -1.0477  0.0389
  976MOL0     H31747   9.880   5.397   9.479 -0.4763  0.0797 -1.2471
  976MOL0     H31748  10.389   5.076   9.589 -1.7134 -0.3919 -1.1414
  976MOL0     H31749  10.620   5.108   9.538  1.8595 -0.4670 -1.4178
  976MOL0     H31750  10.711   5.370   9.167 -0.4163 -0.8458  0.4177
  976MOL0     H31751  10.676   5.484   9.301  0.5785 -0.4942 -0.3805
  976MOL0     H31752  10.900   5.508   9.367  0.6713  0.8140 -0.7320
  976MOL0     H31753  10.910   5.531   9.204  0.4284  1.0867  1.3028
  976MOL0     H31754  10.962   5.229   9.305 -1.3907  0.6586  0.8275
  976MOL0     H31755  11.076   5.354   9.338  0.1611  0.1381 -0.6361
  976MOL0     H31756  10.962   5.307   9.047  0.1536 -4.8252 -1.2236
  976MOL0     H31757  11.096   5.210   9.102 -1.1305  0.1673 -0.3492
  976MOL0     H31758  11.261   5.589   9.023  0.8900 -1.2234 -1.5135
  976MOL0     H31759  10.476   5.373   9.211 -0.8200  1.4512  1.4622
  976MOL0     H31760  10.269   5.296   9.236  2.5563  0.9066 -1.4683
  977MOL0     O31761   6.435   2.755  10.013  0.0941  0.1911 -0.6024
  977MOL0     C31762   6.519   2.673  10.051 -0.5863 -0.0747 -0.5209
  977MOL0     O31763   6.501   2.587  10.158 -0.0046  0.4494  0.3656
  977MOL0     C31764   6.403   2.618  10.251 -0.1227  0.4718 -0.5761
  977MOL0     C31765   6.437   2.647  10.384 -0.1885 -0.7796  0.3592
  977MOL0     C31766   6.335   2.690  10.477 -0.7627 -1.0272 -0.4406
  977MOL0     C31767   6.202   2.706  10.432 -0.4897 -0.4758  0.0384
  977MOL0     O31768   6.110   2.758  10.523  0.7820  0.4536  0.1189
  977MOL0     C31769   5.976   2.789  10.472  0.1908 -0.1697 -0.1919
  977MOL0     C31770   5.885   2.674  10.496 -0.1523 -0.4931 -0.4150
  977MOL0     C31771   5.753   2.684  10.408 -0.2474 -0.7309  0.0949
  977MOL0     C31772   5.666   2.560  10.444 -0.7705 -0.9924  0.3176
  977MOL0     C31773   5.714   2.430  10.373  0.3669 -0.4883  0.0349
  977MOL0     C31774   5.614   2.313  10.392 -1.1090 -0.7966 -0.3677
  977MOL0     C31775   5.676   2.189  10.327 -0.0845 -0.6165 -0.1351
  977MOL0     C31776   5.581   2.074  10.323  0.5076  0.3068  0.5305
  977MOL0     N31777   5.467   2.091  10.234  0.5072 -0.4209  0.3423
  977MOL0     C31778   5.482   2.118  10.102  0.2527  0.4748  0.0543
  977MOL0     C31779   5.362   2.086  10.052 -0.1441 -0.3563  0.2580
  977MOL0     C31780   5.338   2.088   9.909  0.1911 -0.2732  0.4518
  977MOL0     C31781   5.327   1.941   9.867  0.9876  0.2167  1.0179
  977MOL0     C31782   5.293   1.933   9.721  0.0806  0.6467 -0.1854
  977MOL0     C31783   5.160   1.990   9.679  0.0679 -0.1413 -0.2601
  977MOL0     O31784   5.052   1.940   9.749  0.1600  0.3195 -0.7691
  977MOL0     C31785   4.924   1.949   9.700  0.1919  0.2884 -0.5275
  977MOL0     C31786   4.891   1.986   9.570 -0.6549 -0.4862  0.1601
  977MOL0     C31787   4.764   1.973   9.525  0.4606 -0.9324  0.6038
  977MOL0     C31788   4.736   2.017   9.386 -0.1962 -0.0528 -0.2594
  977MOL0     C31789   4.662   1.923   9.604 -0.0840  0.1009  0.7969
  977MOL0     C31790   4.517   1.914   9.575  0.9367  0.4350 -0.3807
  977MOL0     O31791   4.444   1.918   9.694  0.2621  0.1455  1.3354
  977MOL0     C31792   4.314   1.873   9.691  0.8346 -0.5744 -0.0530
  977MOL0     C31793   4.274   1.762   9.766 -0.4361  0.6147 -0.2581
  977MOL0     C31794   4.143   1.719   9.777 -0.4836 -0.1027 -0.0485
  977MOL0     C31795   4.046   1.796   9.720  0.5678 -0.5807  0.6295
  977MOL0     O31796   3.911   1.763   9.735  0.4780 -0.3043 -0.9620
  977MOL0     C31797   3.822   1.870   9.763 -0.0626  0.3803 -0.5275
  977MOL0     C31798   3.749   1.830   9.893 -0.0318 -0.3354  0.6167
  977MOL0     C31799   3.652   1.940   9.944  0.2798 -0.2666 -0.4077
  977MOL0     C31800   3.598   1.903  10.083 -0.3121  0.6916  0.6391
  977MOL0     C31801   3.476   1.983  10.120 -0.5616 -1.1520  0.2676
  977MOL0     C31802   3.410   1.919  10.244  0.5864 -0.0969  1.8460
  977MOL0     C31803   3.268   1.970  10.260  0.9074  0.3298  0.2033
  977MOL0     C31804   3.199   1.908  10.385  0.3990  0.1184 -0.8898
  977MOL0    Cl31805   3.278   1.989  10.529  0.0018 -0.1657 -0.4281
  977MOL0     C31806   4.084   1.906   9.633  1.2329  0.4173  0.0178
  977MOL0     C31807   4.218   1.950   9.614 -0.3990  0.4555  0.2852
  977MOL0     O31808   4.473   1.907   9.459 -0.0648  0.3187 -0.2399
  977MOL0     C31809   4.701   1.887   9.733 -0.0663  0.4201 -1.1592
  977MOL0     C31810   4.829   1.904   9.783  0.6661  0.4378 -0.1420
  977MOL0     N31811   5.274   2.045  10.150  0.1596 -0.3918  0.4826
  977MOL0     N31812   5.340   2.045  10.259 -0.0314 -0.4756 -0.8554
  977MOL0     C31813   6.178   2.661  10.301 -0.2113 -0.1163  0.0332
  977MOL0     C31814   6.276   2.621  10.209 -0.6905  1.6197  1.4572
  977MOL0     C31815   6.647   2.677   9.990 -0.0737  0.4333 -0.2362
  977MOL0     C31816   6.752   2.589  10.026  0.7184 -0.2697 -0.5939
  977MOL0     C31817   6.877   2.619   9.977 -0.6814  0.6091 -0.0887
  977MOL0     C31818   6.907   2.718   9.878  0.7377  0.1284  0.0712
  977MOL0     O31819   7.031   2.743   9.815 -0.8242 -0.3955 -0.4897
  977MOL0     C31820   7.142   2.654   9.833 -0.4532  0.1801 -1.0344
  977MOL0     C31821   7.219   2.708   9.958 -0.0045 -0.3020 -0.3001
  977MOL0     C31822   7.349   2.628   9.985  1.2745  0.3112 -0.8317
  977MOL0     C31823   7.423   2.678  10.107  1.4791 -0.2844  0.2660
  977MOL0     C31824   7.541   2.594  10.142  0.0677 -0.7109  0.0585
  977MOL0     C31825   7.646   2.546  10.195 -0.0427 -0.5846  0.0273
  977MOL0     C31826   6.796   2.790   9.832  0.0602 -0.3259 -0.4194
  977MOL0     C31827   6.674   2.769   9.884  0.6778 -0.3800 -0.5309
  977MOL0     H31828   6.542   2.660  10.408  0.1541 -3.2798  0.4831
  977MOL0     H31829   6.374   2.720  10.573  2.5003  0.3176 -2.0171
  977MOL0     H31830   5.942   2.870  10.536  3.0780  1.5381 -0.6297
  977MOL0     H31831   5.986   2.813  10.366 -0.2305 -3.3786 -1.0816
  977MOL0     H31832   5.936   2.580  10.472  3.9922  0.8020  2.3308
  977MOL0     H31833   5.844   2.666  10.597 -1.4457  1.0501 -0.7694
  977MOL0     H31834   5.681   2.765  10.425 -0.7379 -0.9338 -0.9528
  977MOL0     H31835   5.778   2.680  10.302  0.0568  1.6671  0.0204
  977MOL0     H31836   5.661   2.544  10.552  0.7317  0.5142  0.6545
  977MOL0     H31837   5.566   2.592  10.415 -1.3160 -1.3107  1.7749
  977MOL0     H31838   5.716   2.442  10.265 -2.8141  1.4501  0.0794
  977MOL0     H31839   5.818   2.411  10.404  0.5606  1.3011  0.6135
  977MOL0     H31840   5.601   2.293  10.499  1.9808 -1.5145 -0.0242
  977MOL0     H31841   5.518   2.341  10.347 -0.5378  1.2417 -0.4121
  977MOL0     H31842   5.706   2.213  10.224 -2.7456 -1.1404 -1.1132
  977MOL0     H31843   5.770   2.165  10.378  0.6073 -1.7634 -1.8531
  977MOL0     H31844   5.547   2.049  10.424  1.9645 -0.4594  0.8612
  977MOL0     H31845   5.630   1.992  10.270 -1.1862  0.0193 -0.6589
  977MOL0     H31846   5.568   2.159  10.052  0.2942 -1.2543 -1.3867
  977MOL0     H31847   5.254   2.156   9.889 -0.0882 -0.0292  2.2646
  977MOL0     H31848   5.420   2.137   9.856  0.4296 -0.2695  0.8194
  977MOL0     H31849   5.253   1.886   9.926 -0.8326 -1.2648 -2.3338
  977MOL0     H31850   5.427   1.898   9.876 -0.6062 -3.7012  2.4462
  977MOL0     H31851   5.286   1.828   9.691  0.0286  0.6327 -0.1243
  977MOL0     H31852   5.367   1.994   9.669  0.4278  1.0444  0.7486
  977MOL0     H31853   5.154   1.979   9.571  0.0861 -1.8560 -0.1131
  977MOL0     H31854   5.169   2.098   9.695 -3.0856  0.2224 -0.3738
  977MOL0     H31855   4.967   2.032   9.507 -1.6153  1.0388  0.0560
  977MOL0     H31856   4.788   2.110   9.363  1.7925 -0.4073  2.3763
  977MOL0     H31857   4.750   1.932   9.317  1.1236  0.9450 -1.2657
  977MOL0     H31858   4.631   2.037   9.362  0.1991 -1.2012 -3.4630
  977MOL0     H31859   4.351   1.704   9.817 -1.1860  0.8220  1.1516
  977MOL0     H31860   4.109   1.635   9.836  0.9532  0.8224  2.2029
  977MOL0     H31861   3.879   1.961   9.784  1.7613 -0.5479 -1.3018
  977MOL0     H31862   3.754   1.891   9.680  0.1652 -2.1923 -1.4250
  977MOL0     H31863   3.680   1.748   9.868 -1.4446  1.0697 -0.3043
  977MOL0     H31864   3.826   1.808   9.968  1.3073  1.4707 -0.1646
  977MOL0     H31865   3.559   1.953   9.888  0.3868 -0.6655 -0.6813
  977MOL0     H31866   3.703   2.037   9.951 -1.0971  0.3616  1.9419
  977MOL0     H31867   3.583   1.794  10.075  0.2451  0.6148  0.6032
  977MOL0     H31868   3.674   1.920  10.160 -1.2765  0.4783  1.6799
  977MOL0     H31869   3.414   1.980  10.030  2.7118 -1.3570 -2.1411
  977MOL0     H31870   3.513   2.082  10.147 -1.2401 -0.2391 -1.9176
  977MOL0     H31871   3.411   1.812  10.224 -0.8092  0.4694 -2.2082
  977MOL0     H31872   3.467   1.931  10.336 -0.6495 -4.9061  3.4895
  977MOL0     H31873   3.204   1.949  10.174 -0.2458  1.9930  0.5930
  977MOL0     H31874   3.276   2.076  10.287  1.4031 -0.2223  2.4309
  977MOL0     H31875   3.227   1.804  10.400  3.3757  1.1688  1.8584
  977MOL0     H31876   3.090   1.922  10.395  0.2835 -0.6563 -1.0326
  977MOL0     H31877   4.015   1.973   9.583  1.4165 -0.0881 -0.9374
  977MOL0     H31878   4.252   2.033   9.553 -1.1449  1.0377  0.6524
  977MOL0     H31879   4.639   1.842   9.810  2.7397  0.8362  1.5776
  977MOL0     H31880   4.845   1.860   9.881 -0.3824 -1.7344 -0.8743
  977MOL0     H31881   6.073   2.653  10.273  0.1767 -0.2435 -1.4708
  977MOL0     H31882   6.246   2.582  10.112 -0.1423  1.0940  1.4945
  977MOL0     H31883   6.747   2.520  10.110 -2.7504 -2.1396 -2.1761
  977MOL0     H31884   6.951   2.557  10.027  0.5692  0.4224 -2.0516
  977MOL0     H31885   7.108   2.550   9.840  1.7010 -0.4876  0.4667
  977MOL0     H31886   7.208   2.661   9.747  0.9998 -1.9225 -0.1760
  977MOL0     H31887   7.155   2.704  10.046  0.6076 -1.2215  0.1184
  977MOL0     H31888   7.246   2.814   9.953 -1.9600  0.7264  4.9610
  977MOL0     H31889   7.407   2.638   9.893 -1.6672  0.4382 -2.7945
  977MOL0     H31890   7.331   2.520   9.996 -2.8682  0.7809 -1.4703
  977MOL0     H31891   7.348   2.679  10.187 -1.0354 -1.2772 -1.8965
  977MOL0     H31892   7.461   2.776  10.079  1.9451 -0.5656 -0.1038
  977MOL0     H31893   7.731   2.503  10.243  0.8280  0.9272 -0.0880
  977MOL0     H31894   6.812   2.868   9.758  2.2890 -0.1259  0.2063
  977MOL0     H31895   6.593   2.831   9.849  0.9470 -0.5713 -1.5183
  978MOL0     O31896   5.386   2.851   8.474  0.2508  0.1800 -0.1817
  978MOL0     C31897   5.366   2.968   8.517 -0.6144  0.0519  0.7612
  978MOL0     O31898   5.253   3.013   8.575  0.2532  0.1358  0.2954
  978MOL0     C31899   5.145   2.932   8.604 -0.2933  0.0216  1.0755
  978MOL0     C31900   5.032   3.005   8.645 -0.2031  0.3402  0.4306
  978MOL0     C31901   4.916   2.937   8.678  0.5479 -0.2348  0.3867
  978MOL0     C31902   4.903   2.800   8.673  1.1326 -0.2566 -0.2581
  978MOL0     O31903   4.777   2.744   8.684  0.6839  0.0490 -0.4720
  978MOL0     C31904   4.742   2.694   8.815  0.2003  0.6536  0.6082
  978MOL0     C31905   4.598   2.680   8.821  0.3836 -0.5155  0.0717
  978MOL0     C31906   4.520   2.821   8.813 -0.4040 -0.9653 -0.5554
  978MOL0     C31907   4.421   2.833   8.921  0.8212  0.0950 -0.2621
  978MOL0     C31908   4.322   2.950   8.903  0.3114  0.1048 -0.6148
  978MOL0     C31909   4.178   2.901   8.958 -0.5376 -0.6566  0.4034
  978MOL0     C31910   4.081   3.027   8.980 -0.0814  0.4812 -0.4567
  978MOL0     C31911   4.056   3.056   9.127 -0.2015  0.8521 -0.5366
  978MOL0     N31912   3.992   3.183   9.160  0.6149  0.0639 -0.0259
  978MOL0     C31913   4.017   3.260   9.276 -0.1526  0.0145 -0.5766
  978MOL0     C31914   3.905   3.343   9.287  0.1708  0.0456  0.5329
  978MOL0     C31915   3.879   3.446   9.393  0.1730 -0.4356  0.3693
  978MOL0     C31916   3.790   3.367   9.494  0.6878 -0.5524  0.0968
  978MOL0     C31917   3.720   3.474   9.589  0.2110 -0.5503 -0.9800
  978MOL0     C31918   3.641   3.398   9.701  0.5056  0.6402 -0.1403
  978MOL0     O31919   3.570   3.488   9.783 -0.1922  0.3728  0.0684
  978MOL0     C31920   3.450   3.452   9.843  0.1479  0.3777  0.7929
  978MOL0     C31921   3.398   3.316   9.848 -0.4791 -0.7882  0.7254
  978MOL0     C31922   3.267   3.281   9.891 -1.2713  0.1748 -0.2479
  978MOL0     C31923   3.230   3.137   9.890  0.0514 -0.1670  0.4417
  978MOL0     C31924   3.181   3.384   9.922 -0.0286 -0.4577  0.2032
  978MOL0     C31925   3.039   3.370   9.954  0.8376  0.3330  0.1495
  978MOL0     O31926   2.988   3.243   9.958 -0.4046 -0.6510 -0.7779
  978MOL0     C31927   2.861   3.235  10.011 -0.6367  0.2672 -0.1971
  978MOL0     C31928   2.770   3.157   9.942  0.2316  0.1036  0.1197
  978MOL0     C31929   2.637   3.130   9.978 -0.7499 -0.1328 -0.5329
  978MOL0     C31930   2.597   3.183  10.103  0.1938 -0.4745  0.3940
  978MOL0     O31931   2.474   3.171  10.156 -0.3106  0.3290 -0.8608
  978MOL0     C31932   2.372   3.104  10.087 -0.3424 -0.5968  0.3095
  978MOL0     C31933   2.380   2.958  10.107  0.3997  0.2839  0.2457
  978MOL0     C31934   2.243   2.895  10.104  0.1641 -0.2480 -0.1954
  978MOL0     C31935   2.260   2.742  10.115  0.3546  0.1260 -0.0064
  978MOL0     C31936   2.138   2.652  10.086  1.0035 -0.4203  0.4820
  978MOL0     C31937   2.165   2.513  10.132  0.7351  0.4791 -0.7457
  978MOL0     C31938   2.027   2.452  10.162  0.4460  0.7354  0.0426
  978MOL0     C31939   2.043   2.323  10.240 -0.0614  0.5908 -0.9702
  978MOL0    Cl31940   1.889   2.227  10.226 -0.2810 -0.0383  0.3629
  978MOL0     C31941   2.684   3.259  10.184 -1.0910 -0.0311 -0.5073
  978MOL0     C31942   2.816   3.283  10.140  0.1544 -0.4517 -0.2926
  978MOL0     O31943   2.966   3.467   9.969  0.3042  0.0180  0.3010
  978MOL0     C31944   3.229   3.510   9.905  0.1611  0.2451 -0.4295
  978MOL0     C31945   3.357   3.540   9.882 -0.5788  0.5173 -0.5851
  978MOL0     N31946   3.814   3.302   9.186 -0.4577  0.4817 -0.2154
  978MOL0     N31947   3.866   3.210   9.117 -0.0432 -0.1607  1.1429
  978MOL0     C31948   5.012   2.720   8.635  0.1859  0.3602 -0.3753
  978MOL0     C31949   5.131   2.792   8.604 -0.0350  0.8463 -0.1393
  978MOL0     C31950   5.485   3.056   8.523  0.4582  0.5172  0.3542
  978MOL0     C31951   5.472   3.185   8.562  0.4089 -0.3330  0.0510
  978MOL0     C31952   5.589   3.264   8.565 -0.3539 -0.0740  0.1109
  978MOL0     C31953   5.710   3.214   8.530 -0.2154  1.1579 -0.2691
  978MOL0     O31954   5.813   3.301   8.545 -0.1232 -0.6948 -0.4922
  978MOL0     C31955   5.948   3.254   8.530  0.1084 -0.2280 -0.5035
  978MOL0     C31956   6.005   3.260   8.383 -0.4795  0.2249 -0.2817
  978MOL0     C31957   6.133   3.188   8.363  0.3550  0.1708 -0.4125
  978MOL0     C31958   6.149   3.130   8.222 -0.2273  1.2988 -0.1928
  978MOL0     C31959   6.060   3.015   8.205 -0.1282 -0.2150 -0.0003
  978MOL0     C31960   5.980   2.928   8.199  0.3083 -0.1381  0.3143
  978MOL0     C31961   5.718   3.081   8.479  0.0667 -0.3277  0.3009
  978MOL0     C31962   5.606   2.996   8.476  0.0315 -0.1966 -0.3960
  978MOL0     H31963   5.043   3.112   8.628 -2.9526  0.1341 -4.3477
  978MOL0     H31964   4.830   3.001   8.693 -1.4726 -3.0049  1.4738
  978MOL0     H31965   4.787   2.595   8.831  0.6608  0.5561 -1.1071
  978MOL0     H31966   4.777   2.765   8.890  0.2985  0.7009  0.5186
  978MOL0     H31967   4.556   2.624   8.737 -3.0311  0.4326  0.9767
  978MOL0     H31968   4.567   2.620   8.908 -1.9045 -0.2865 -0.5288
  978MOL0     H31969   4.591   2.904   8.807 -0.5450 -0.9136 -1.7474
  978MOL0     H31970   4.462   2.821   8.721  0.2919 -1.9201 -1.0143
  978MOL0     H31971   4.367   2.739   8.909 -1.1023  0.4135  4.0929
  978MOL0     H31972   4.467   2.828   9.020  1.0701  1.3620 -0.3006
  978MOL0     H31973   4.350   3.038   8.962 -1.8059  1.2565 -1.2266
  978MOL0     H31974   4.318   2.983   8.799 -0.8112  0.9694 -0.3225
  978MOL0     H31975   4.129   2.832   8.889  2.4074 -1.5373 -0.9772
  978MOL0     H31976   4.193   2.843   9.050  3.4300  1.3098  1.2104
  978MOL0     H31977   4.126   3.119   8.940  3.3742 -0.0188  1.8366
  978MOL0     H31978   3.988   3.000   8.929 -1.5296  1.2778  1.6146
  978MOL0     H31979   4.159   3.051   9.163  0.6231  1.9865 -2.6072
  978MOL0     H31980   4.006   2.970   9.174  0.3373  0.9865  0.3156
  978MOL0     H31981   4.105   3.251   9.340 -0.0599 -1.0661 -0.8288
  978MOL0     H31982   3.965   3.479   9.452 -0.6897 -0.7939  1.8880
  978MOL0     H31983   3.824   3.532   9.355  1.5912  1.0356  1.5400
  978MOL0     H31984   3.858   3.299   9.546 -0.5655 -0.2156  2.2973
  978MOL0     H31985   3.711   3.312   9.443  2.1753 -0.4849 -2.4466
  978MOL0     H31986   3.645   3.530   9.534 -1.3141 -1.7241 -0.1594
  978MOL0     H31987   3.796   3.537   9.637 -0.7375 -0.4109  0.3842
  978MOL0     H31988   3.716   3.348   9.763  0.0450 -0.4954 -0.4713
  978MOL0     H31989   3.570   3.336   9.646  3.0280 -1.7088 -0.9404
  978MOL0     H31990   3.467   3.238   9.817  1.2202  0.4175  1.3099
  978MOL0     H31991   3.198   3.102   9.988  1.3278 -1.3164  0.4974
  978MOL0     H31992   3.160   3.097   9.817 -1.2605  1.0120  1.0212
  978MOL0     H31993   3.325   3.096   9.853  0.2664  3.0907 -3.3478
  978MOL0     H31994   2.805   3.140   9.841  3.8143  2.9556  0.6608
  978MOL0     H31995   2.578   3.082   9.900  0.4328  0.8307 -2.0791
  978MOL0     H31996   2.279   3.151  10.121 -1.2645 -2.1103 -0.0286
  978MOL0     H31997   2.383   3.129   9.981 -1.9816  0.1586  0.2922
  978MOL0     H31998   2.443   2.911  10.031 -1.5904  0.9447 -1.9183
  978MOL0     H31999   2.426   2.934  10.203 -1.0904 -2.0450  0.4520
  978MOL0     H32000   2.196   2.924  10.009  0.5730 -0.4047 -0.4484
  978MOL0     H32001   2.186   2.934  10.189 -0.0207 -2.8296  0.9725
  978MOL0     H32002   2.346   2.698  10.066 -0.2857 -0.7226 -0.3900
  978MOL0     H32003   2.300   2.729  10.216  1.6613  0.1209 -0.5104
  978MOL0     H32004   2.102   2.645   9.983 -0.1913  1.0850  0.7669
  978MOL0     H32005   2.060   2.693  10.151 -1.7396  0.1960 -2.8779
  978MOL0     H32006   2.215   2.453  10.055 -0.4965 -0.5881 -0.7448
  978MOL0     H32007   2.234   2.521  10.217 -0.7479  2.1678  0.3751
  978MOL0     H32008   1.978   2.436  10.066 -1.0885 -0.1032  0.9380
  978MOL0     H32009   1.957   2.514  10.219  1.4189 -0.4716  2.6990
  978MOL0     H32010   2.064   2.353  10.343 -0.3689 -0.9530 -0.4339
  978MOL0     H32011   2.121   2.253  10.207 -1.1683 -1.3848  0.4000
  978MOL0     H32012   2.656   3.298  10.281 -0.0936  0.2943 -0.3345
  978MOL0     H32013   2.878   3.345  10.204 -1.3086 -0.1004  0.8278
  978MOL0     H32014   3.167   3.591   9.941  2.2679  1.1619  1.3205
  978MOL0     H32015   3.388   3.643   9.894 -1.2358  0.4936  1.9144
  978MOL0     H32016   4.987   2.614   8.636 -2.0507  0.8282  0.2239
  978MOL0     H32017   5.225   2.740   8.587 -0.8843 -1.0926  0.7445
  978MOL0     H32018   5.378   3.235   8.583  1.6739  2.3132 -0.2246
  978MOL0     H32019   5.596   3.366   8.601  3.5115 -0.9040  2.2609
  978MOL0     H32020   6.014   3.316   8.591  0.4633 -1.2107  0.1280
  978MOL0     H32021   5.962   3.153   8.568 -1.3035 -0.5436 -0.7474
  978MOL0     H32022   6.013   3.362   8.346  1.5167  0.6305  1.1421
  978MOL0     H32023   5.926   3.207   8.328 -1.0469 -0.9269  1.5427
  978MOL0     H32024   6.154   3.111   8.438 -4.8479 -1.5029 -0.2256
  978MOL0     H32025   6.209   3.265   8.376  0.2784  0.7068 -2.7770
  978MOL0     H32026   6.249   3.086   8.212 -0.8076 -0.2591  0.5287
  978MOL0     H32027   6.126   3.210   8.151  1.4735  0.4305 -1.8015
  978MOL0     H32028   5.910   2.847   8.190 -2.3215  2.1279 -1.7377
  978MOL0     H32029   5.813   3.033   8.458 -0.6552 -1.6021 -0.1548
  978MOL0     H32030   5.608   2.893   8.443 -0.7496 -0.4351  0.2395
  979MOL0     O32031   3.887   7.391  10.646 -0.2073 -0.6256  0.4209
  979MOL0     C32032   3.930   7.371  10.755 -0.0222  0.0452 -0.0226
  979MOL0     O32033   3.851   7.327  10.860 -0.4233  0.7153 -0.8411
  979MOL0     C32034   3.726   7.291  10.842 -0.3689  0.7500  0.8305
  979MOL0     C32035   3.611   7.345  10.901  0.2042 -0.1392 -0.1955
  979MOL0     C32036   3.484   7.287  10.869  0.2983  0.4404 -0.0535
  979MOL0     C32037   3.469   7.168  10.794 -0.5825  0.3479  0.7954
  979MOL0     O32038   3.341   7.117  10.771 -0.2831 -0.0721 -0.2570
  979MOL0     C32039   3.322   7.062  10.647  1.2068 -0.8527  0.2051
  979MOL0     C32040   3.171   7.050  10.616 -0.1197  1.0694  0.4793
  979MOL0     C32041   3.093   7.187  10.603  0.3534  0.0350 -0.3113
  979MOL0     C32042   2.985   7.142  10.505 -0.0298 -0.3344 -0.1578
  979MOL0     C32043   2.915   7.258  10.441 -0.2421 -0.0967 -1.0919
  979MOL0     C32044   2.795   7.290  10.519  0.0356  0.2771 -0.1397
  979MOL0     C32045   2.701   7.365  10.437  0.7339 -0.1494  0.2775
  979MOL0     C32046   2.581   7.409  10.521  0.0824  0.3217 -1.0075
  979MOL0     N32047   2.488   7.485  10.438  0.2995 -0.0996  0.2447
  979MOL0     C32048   2.508   7.616  10.412  0.3212 -0.5692  0.3442
  979MOL0     C32049   2.408   7.640  10.322  0.4954  0.1274  0.3569
  979MOL0     C32050   2.380   7.777  10.260 -0.0037 -1.1240 -1.0806
  979MOL0     C32051   2.231   7.787  10.244  0.0202  0.4772  0.6214
  979MOL0     C32052   2.161   7.798  10.385  0.1879  0.4146 -0.0424
  979MOL0     C32053   2.015   7.832  10.372 -0.1734  0.0326  0.6645
  979MOL0     O32054   1.946   7.783  10.494 -0.0400 -0.0054 -0.0059
  979MOL0     C32055   1.814   7.825  10.506 -0.6053 -0.4119  0.3520
  979MOL0     C32056   1.736   7.905  10.412 -0.3994 -0.0387  0.1528
  979MOL0     C32057   1.605   7.942  10.435 -0.6105 -0.7100  0.2139
  979MOL0     C32058   1.543   8.033  10.330 -0.0233 -0.5110 -0.5615
  979MOL0     C32059   1.536   7.894  10.551 -0.1817  1.2270  0.2659
  979MOL0     C32060   1.392   7.917  10.585 -0.8820  0.6148 -0.1957
  979MOL0     O32061   1.348   7.874  10.705  0.0419  0.7088 -0.1739
  979MOL0     C32062   1.211   7.890  10.732 -0.1088 -0.3301 -0.0605
  979MOL0     C32063   1.124   7.796  10.688 -0.3797  0.0111 -0.3809
  979MOL0     C32064   0.987   7.819  10.694  0.4425 -0.1537  0.8888
  979MOL0     C32065   0.938   7.930  10.758  0.0861  0.0504 -0.1648
  979MOL0     O32066   0.805   7.941  10.762 -0.4186 -0.6842  0.2555
  979MOL0     C32067   0.756   7.997  10.885 -0.2186  0.2500 -0.0089
  979MOL0     C32068   0.614   7.969  10.902 -0.1002 -0.3307 -0.1087
  979MOL0     C32069   0.558   8.012  11.034 -0.2024 -0.7561 -0.9335
  979MOL0     C32070   0.409   7.968  11.052  0.0489  0.1460  0.3767
  979MOL0     C32071   0.344   8.025  11.181  0.1919  0.2033 -0.2943
  979MOL0     C32072   0.197   8.000  11.184 -0.2232 -0.7133 -0.3108
  979MOL0     C32073   0.135   8.116  11.265 -0.8681  0.5100 -1.3041
  979MOL0     C32074  -0.012   8.084  11.313  0.0917  0.1560 -0.2122
  979MOL0    Cl32075  -0.031   7.921  11.383  0.0344 -0.1233  0.2381
  979MOL0     C32076   1.033   8.022  10.815  0.7263 -0.3087  0.3773
  979MOL0     C32077   1.172   8.003  10.797  0.4366 -0.4370  0.0443
  979MOL0     O32078   1.328   7.963  10.497  0.2717  0.0931  0.7400
  979MOL0     C32079   1.623   7.837  10.652  0.5127  0.3964  0.0216
  979MOL0     C32080   1.752   7.797  10.627 -0.5046  0.7096  0.1607
  979MOL0     N32081   2.328   7.526  10.304  0.9306 -0.2599 -0.1676
  979MOL0     N32082   2.378   7.433  10.371 -0.3649 -0.0956  0.9368
  979MOL0     C32083   3.585   7.115  10.742  1.3024  0.3135  0.3028
  979MOL0     C32084   3.708   7.174  10.760 -0.4130 -0.5839  0.4496
  979MOL0     C32085   4.075   7.388  10.785  0.0793 -0.3995 -0.5452
  979MOL0     C32086   4.156   7.468  10.701  0.6059  0.7482 -0.6019
  979MOL0     C32087   4.288   7.474  10.729  0.8287  0.0964 -1.0041
  979MOL0     C32088   4.345   7.419  10.848  0.4274  0.6524  0.8085
  979MOL0     O32089   4.482   7.433  10.861  1.3766 -0.9279  0.2295
  979MOL0     C32090   4.554   7.361  10.963  0.3367  0.1223 -0.1290
  979MOL0     C32091   4.703   7.386  10.942  0.3896 -0.2625  0.1192
  979MOL0     C32092   4.785   7.353  11.065  0.1582 -0.3533  0.0550
  979MOL0     C32093   4.927   7.345  11.041 -0.7792 -0.2087 -0.4167
  979MOL0     C32094   5.005   7.282  11.144 -0.7153  0.6746 -0.4381
  979MOL0     C32095   5.061   7.237  11.238 -0.6351 -0.2374  0.3232
  979MOL0     C32096   4.264   7.351  10.929  0.9961  0.0070 -0.5294
  979MOL0     C32097   4.132   7.328  10.903  0.7330 -0.2859  0.5177
  979MOL0     H32098   3.627   7.441  10.948 -2.3222 -0.1662  0.8667
  979MOL0     H32099   3.397   7.328  10.920  0.8628  0.3389  1.0141
  979MOL0     H32100   3.374   7.117  10.568  1.5414  0.2744  1.1967
  979MOL0     H32101   3.359   6.960  10.663  0.7956 -1.1466 -0.6730
  979MOL0     H32102   3.180   7.003  10.518 -0.2671  1.4749  0.2685
  979MOL0     H32103   3.121   6.984  10.687  1.0290  0.9009  1.1634
  979MOL0     H32104   3.051   7.231  10.693 -2.2550 -1.9676 -0.4294
  979MOL0     H32105   3.156   7.270  10.570 -0.5617 -0.0038 -2.3144
  979MOL0     H32106   3.017   7.086  10.417 -2.2622  0.4538 -1.5518
  979MOL0     H32107   2.914   7.073  10.552 -1.1655  2.0070  1.7755
  979MOL0     H32108   2.972   7.348  10.414 -1.5899  0.7401 -1.2357
  979MOL0     H32109   2.877   7.232  10.342 -0.0946 -2.9534 -0.4972
  979MOL0     H32110   2.752   7.195  10.550  0.4019  0.6765  1.6960
  979MOL0     H32111   2.822   7.346  10.609 -2.1599 -2.8812  2.7230
  979MOL0     H32112   2.756   7.452  10.401 -0.4520  0.4653 -0.1018
  979MOL0     H32113   2.679   7.307  10.348  0.4617  1.9459 -1.1010
  979MOL0     H32114   2.605   7.471  10.607  0.7126  0.3870 -1.2244
  979MOL0     H32115   2.530   7.327  10.573 -1.1478  2.7929  1.9710
  979MOL0     H32116   2.575   7.687  10.458  0.4997  0.3104 -1.1857
  979MOL0     H32117   2.413   7.856  10.328 -1.0133 -0.4571 -1.3545
  979MOL0     H32118   2.413   7.792  10.156 -2.5853 -0.4535 -1.8727
  979MOL0     H32119   2.182   7.706  10.189 -0.4344  0.2692  1.3226
  979MOL0     H32120   2.214   7.882  10.192 -2.9577 -0.3685 -0.1490
  979MOL0     H32121   2.215   7.878  10.437 -0.9534 -0.0919  2.0395
  979MOL0     H32122   2.171   7.705  10.442  0.6961  0.5277  0.0582
  979MOL0     H32123   1.985   7.793  10.274  0.6867 -2.9636  1.4828
  979MOL0     H32124   2.006   7.941  10.377 -1.6327  0.0240 -0.8910
  979MOL0     H32125   1.791   7.944  10.326 -2.7366 -0.2926 -1.5560
  979MOL0     H32126   1.618   8.065  10.256  0.3406  0.6232  0.2698
  979MOL0     H32127   1.463   7.975  10.283  0.2191 -1.3434  0.0444
  979MOL0     H32128   1.504   8.125  10.374 -0.0672  0.3879 -2.3952
  979MOL0     H32129   1.159   7.706  10.638 -1.3229  0.4347 -1.8509
  979MOL0     H32130   0.922   7.748  10.645  0.7924 -0.1705  0.4435
  979MOL0     H32131   0.816   7.953  10.965  0.5773  1.5779  0.1577
  979MOL0     H32132   0.767   8.106  10.889 -0.1114  0.2697 -0.7433
  979MOL0     H32133   0.566   8.009  10.812  0.4578 -1.5556 -0.9820
  979MOL0     H32134   0.595   7.861  10.903 -3.3520  0.1146  2.1083
  979MOL0     H32135   0.572   8.119  11.054  0.3518 -0.7099 -1.5513
  979MOL0     H32136   0.624   7.962  11.106  0.6807  1.7344  0.1131
  979MOL0     H32137   0.358   8.014  10.966  1.4201  1.3830  0.1945
  979MOL0     H32138   0.405   7.858  11.052 -0.8361  0.1671  0.3340
  979MOL0     H32139   0.368   8.130  11.197 -0.5474  0.2849  0.3252
  979MOL0     H32140   0.381   7.965  11.265 -0.7474 -0.8615 -0.6196
  979MOL0     H32141   0.159   7.993  11.082  0.1699  3.5613 -0.9232
  979MOL0     H32142   0.181   7.903  11.232 -1.7665 -0.7644 -0.8757
  979MOL0     H32143   0.130   8.208  11.206 -1.6945  0.5793 -1.1459
  979MOL0     H32144   0.194   8.132  11.356  0.9396 -2.6961 -1.7675
  979MOL0     H32145  -0.072   8.095  11.223  2.5708  3.8192 -1.6313
  979MOL0     H32146  -0.043   8.167  11.377 -1.9584 -0.1979 -0.7040
  979MOL0     H32147   1.006   8.112  10.869  1.5561  0.4142 -0.3691
  979MOL0     H32148   1.234   8.081  10.840 -2.2897  1.3866  0.9706
  979MOL0     H32149   1.593   7.816  10.755 -1.5291  1.0678 -0.4016
  979MOL0     H32150   1.805   7.739  10.702 -0.9857  0.4607  0.3085
  979MOL0     H32151   3.585   7.015  10.699  3.2542 -0.7866  2.6081
  979MOL0     H32152   3.797   7.133  10.712 -0.5389 -1.4108  0.8974
  979MOL0     H32153   4.114   7.518  10.614  1.8474  2.8685 -0.0376
  979MOL0     H32154   4.354   7.523  10.657  1.8241 -0.5753 -0.5619
  979MOL0     H32155   4.505   7.385  11.058  0.4954  1.7577 -0.4329
  979MOL0     H32156   4.521   7.256  10.957  0.5420  0.1293 -2.2540
  979MOL0     H32157   4.733   7.486  10.908  0.4505 -1.6034 -4.3974
  979MOL0     H32158   4.737   7.329  10.855 -0.9248 -0.6596 -0.1471
  979MOL0     H32159   4.742   7.261  11.106  0.9319 -1.5274 -1.6604
  979MOL0     H32160   4.773   7.432  11.140 -0.1647  2.8228 -3.0886
  979MOL0     H32161   4.953   7.451  11.041 -1.3217  0.0028  2.4197
  979MOL0     H32162   4.940   7.306  10.939 -3.1833 -0.4549 -0.6873
  979MOL0     H32163   5.121   7.200  11.318 -0.1809 -0.9524 -0.3246
  979MOL0     H32164   4.296   7.307  11.023 -1.0240 -1.0863 -0.2938
  979MOL0     H32165   4.074   7.261  10.967  0.7042  0.7646  1.6295
  980MOL0     O32166   6.726   9.461  11.106  0.8575  1.0943  0.2622
  980MOL0     C32167   6.772   9.435  10.992  1.0153  0.0728  0.1290
  980MOL0     O32168   6.709   9.443  10.875 -0.0371  0.4780 -0.0222
  980MOL0     C32169   6.575   9.472  10.864  0.3458  0.4500 -0.7015
  980MOL0     C32170   6.505   9.578  10.922 -0.5402  0.2366  0.2892
  980MOL0     C32171   6.359   9.579  10.917  0.2008  0.4879  0.0785
  980MOL0     C32172   6.296   9.484  10.844  0.2222 -0.2799 -0.2062
  980MOL0     O32173   6.161   9.500  10.832 -0.2732 -0.4576  0.0090
  980MOL0     C32174   6.101   9.445  10.716  0.2510 -0.4301  0.3928
  980MOL0     C32175   5.959   9.489  10.704  0.3496  0.4470 -0.0424
  980MOL0     C32176   5.868   9.442  10.825  0.0237 -0.1990 -0.0764
  980MOL0     C32177   5.719   9.472  10.779 -0.1790  0.2228  0.4802
  980MOL0     C32178   5.615   9.411  10.870 -1.0704 -0.9905  0.7258
  980MOL0     C32179   5.478   9.445  10.824 -0.3894 -0.6398 -0.7268
  980MOL0     C32180   5.374   9.407  10.930  0.1304  0.1477  0.2796
  980MOL0     C32181   5.235   9.404  10.865  0.8721 -0.5227  0.4199
  980MOL0     N32182   5.134   9.346  10.956  0.3232  0.5554 -0.3767
  980MOL0     C32183   5.136   9.232  11.029  1.0045 -0.3563  0.0168
  980MOL0     C32184   5.019   9.234  11.097  0.1166  0.3922 -0.2807
  980MOL0     C32185   4.976   9.125  11.210  0.9742  0.0415  0.0527
  980MOL0     C32186   4.975   9.187  11.343 -0.0891  0.5562 -0.5375
  980MOL0     C32187   4.861   9.300  11.355 -0.1503  0.3921  0.0860
  980MOL0     C32188   4.720   9.234  11.366 -0.3953  0.0756  0.2771
  980MOL0     O32189   4.707   9.151  11.489 -0.4568  0.4295  0.2057
  980MOL0     C32190   4.588   9.104  11.524  0.2261  0.0713  0.1146
  980MOL0     C32191   4.599   9.002  11.618  0.2559  0.6467  0.8743
  980MOL0     C32192   4.482   8.941  11.671  0.3867  0.0424 -1.1358
  980MOL0     C32193   4.501   8.828  11.768 -0.3035 -0.2957 -0.2599
  980MOL0     C32194   4.352   8.985  11.628 -0.2827 -0.4370  0.4623
  980MOL0     C32195   4.222   8.934  11.685 -0.4583 -0.0623  0.3580
  980MOL0     O32196   4.114   8.922  11.593  0.8114  0.5259 -1.0640
  980MOL0     C32197   3.982   8.914  11.632  0.2263  1.0078 -0.1077
  980MOL0     C32198   3.920   8.927  11.757  0.2147 -0.0607  0.1389
  980MOL0     C32199   3.781   8.926  11.772  0.6867  0.2190  0.5827
  980MOL0     C32200   3.699   8.906  11.657 -0.4264 -0.7900 -0.3438
  980MOL0     O32201   3.562   8.911  11.650 -0.7159 -0.0919  0.6694
  980MOL0     C32202   3.496   8.914  11.776 -0.7331 -0.0958  0.1506
  980MOL0     C32203   3.354   8.916  11.749 -0.1572  0.3595 -0.1179
  980MOL0     C32204   3.273   8.874  11.876  0.0430 -0.2515  0.3623
  980MOL0     C32205   3.123   8.915  11.858 -0.1080 -0.0746 -0.1904
  980MOL0     C32206   3.042   8.893  11.975  0.2487  0.4661  0.1627
  980MOL0     C32207   2.904   8.931  11.945 -0.0053  0.8036 -0.6421
  980MOL0     C32208   2.797   8.890  12.040 -0.7659  0.2436  0.4884
  980MOL0     C32209   2.651   8.910  11.986 -0.7245 -0.3477 -0.3802
  980MOL0    Cl32210   2.530   8.856  12.100  0.5336  0.3662  0.0811
  980MOL0     C32211   3.754   8.895  11.533 -0.6843  0.5705 -1.2581
  980MOL0     C32212   3.893   8.891  11.523  0.4004  1.1007  1.0805
  980MOL0     O32213   4.219   8.913  11.808  0.3805 -0.2756  0.7944
  980MOL0     C32214   4.347   9.082  11.524  0.3515  0.5965 -0.6802
  980MOL0     C32215   4.460   9.143  11.483  0.2863 -0.4716 -0.0491
  980MOL0     N32216   4.942   9.345  11.063 -0.3041  0.7363  0.0137
  980MOL0     N32217   5.014   9.402  10.974  0.4616  0.7587 -0.1397
  980MOL0     C32218   6.368   9.381  10.791  0.0971 -0.7377  0.6793
  980MOL0     C32219   6.510   9.377  10.796 -0.0649  0.3973 -0.4213
  980MOL0     C32220   6.904   9.390  10.988  0.4528  0.3133  0.6969
  980MOL0     C32221   6.957   9.307  11.086  0.3623 -0.2354 -0.0985
  980MOL0     C32222   7.097   9.285  11.081  0.2332 -0.6410  0.7511
  980MOL0     C32223   7.178   9.320  10.971 -0.5237  0.0125 -0.1765
  980MOL0     O32224   7.308   9.271  10.962 -0.4706 -0.2617  0.7056
  980MOL0     C32225   7.414   9.367  10.975  1.0229 -0.0352 -0.7310
  980MOL0     C32226   7.470   9.363  11.121  0.0365 -0.2494 -0.0448
  980MOL0     C32227   7.545   9.496  11.140  0.2978  0.8099  0.2841
  980MOL0     C32228   7.630   9.484  11.270 -0.4585  0.2671  0.6404
  980MOL0     C32229   7.558   9.456  11.392  0.2868  0.1813  0.1934
  980MOL0     C32230   7.499   9.415  11.486  0.6346 -0.1002 -0.8419
  980MOL0     C32231   7.115   9.381  10.865 -0.2881  0.1559  0.7554
  980MOL0     C32232   6.985   9.428  10.878 -0.3002  0.7546 -0.5841
  980MOL0     H32233   6.550   9.655  10.983  0.0682 -1.0884  1.5733
  980MOL0     H32234   6.306   9.653  10.977  0.4163  1.2391 -0.6435
  980MOL0     H32235   6.160   9.489  10.636 -1.4413  2.5614  0.6349
  980MOL0     H32236   6.117   9.337  10.713 -0.7084 -0.6080  1.0758
  980MOL0     H32237   5.953   9.597  10.687 -0.4499  0.4146 -0.0346
  980MOL0     H32238   5.920   9.431  10.619 -2.7985 -0.7624  2.0507
  980MOL0     H32239   5.874   9.334  10.841 -3.5058 -0.8355 -2.0391
  980MOL0     H32240   5.889   9.503  10.914  0.4870 -1.6854  0.8569
  980MOL0     H32241   5.715   9.581  10.768  2.5797  0.2026 -2.0697
  980MOL0     H32242   5.704   9.433  10.678 -2.9608 -0.3101  1.0258
  980MOL0     H32243   5.628   9.303  10.884 -0.0711 -1.3453 -2.2981
  980MOL0     H32244   5.616   9.467  10.964 -2.4551  0.7979 -0.2609
  980MOL0     H32245   5.483   9.553  10.809  4.2600  0.1407  3.6448
  980MOL0     H32246   5.457   9.390  10.732 -1.4026 -1.6860  0.0895
  980MOL0     H32247   5.390   9.304  10.962 -1.2362 -0.3789 -0.6757
  980MOL0     H32248   5.362   9.474  11.016 -2.0773 -1.5270  1.3664
  980MOL0     H32249   5.237   9.335  10.780 -2.8955 -1.4680  0.9209
  980MOL0     H32250   5.195   9.502  10.839  2.7026  0.4752  1.1678
  980MOL0     H32251   5.210   9.152  11.026  3.4210  1.5848  2.6058
  980MOL0     H32252   4.875   9.092  11.184  0.8051  1.4131 -1.1796
  980MOL0     H32253   5.040   9.037  11.207 -0.3470 -0.9334 -2.0522
  980MOL0     H32254   5.073   9.234  11.357  0.4261 -0.7384  0.3918
  980MOL0     H32255   4.967   9.104  11.414  0.9429  1.7382  1.0568
  980MOL0     H32256   4.872   9.379  11.281 -0.4338  0.6227  0.2881
  980MOL0     H32257   4.875   9.349  11.452  2.2093  2.2959 -1.1114
  980MOL0     H32258   4.695   9.176  11.277  1.8282  1.5753 -1.4387
  980MOL0     H32259   4.648   9.316  11.372  0.2921  0.7007  0.1929
  980MOL0     H32260   4.697   8.976  11.658  0.8356  1.9370  0.3464
  980MOL0     H32261   4.462   8.737  11.722  3.5433 -1.0045 -2.5884
  980MOL0     H32262   4.607   8.804  11.782 -0.9731 -3.0288  0.7693
  980MOL0     H32263   4.447   8.853  11.860 -0.5819  1.0680 -0.7617
  980MOL0     H32264   3.983   8.942  11.843 -1.2470 -0.7881  1.3950
  980MOL0     H32265   3.735   8.935  11.869 -1.9037  1.4708 -0.6675
  980MOL0     H32266   3.526   8.821  11.826 -1.3009 -0.3698 -0.0102
  980MOL0     H32267   3.527   8.993  11.844 -1.2163  0.8658 -0.7256
  980MOL0     H32268   3.330   9.009  11.697  0.3482 -0.5796 -2.1263
  980MOL0     H32269   3.329   8.837  11.677  3.0240 -4.1601  3.1704
  980MOL0     H32270   3.317   8.924  11.963  2.4500 -0.9546 -0.3586
  980MOL0     H32271   3.275   8.767  11.896 -4.0616 -0.5230  0.1112
  980MOL0     H32272   3.113   9.020  11.831 -1.3149  0.2815  1.5162
  980MOL0     H32273   3.085   8.866  11.768  0.7175  1.3504 -1.3600
  980MOL0     H32274   3.089   8.953  12.054 -0.0181  1.6792 -0.5646
  980MOL0     H32275   3.039   8.788  12.005  0.0335  0.4578  0.1097
  980MOL0     H32276   2.884   9.037  11.932 -1.8020  0.1231 -5.8666
  980MOL0     H32277   2.884   8.887  11.847  3.2001 -2.2396 -0.1269
  980MOL0     H32278   2.809   8.945  12.134  1.4058  0.0426  0.3656
  980MOL0     H32279   2.804   8.785  12.069 -1.1582 -0.1674 -0.8304
  980MOL0     H32280   2.637   8.854  11.893  0.7988 -3.3343  1.0289
  980MOL0     H32281   2.635   9.017  11.969 -1.9363 -0.4623 -0.0658
  980MOL0     H32282   3.689   8.863  11.452  0.1471  0.0125 -1.7133
  980MOL0     H32283   3.937   8.867  11.427 -4.0460  1.7871 -1.3873
  980MOL0     H32284   4.248   9.118  11.496 -0.6214 -0.3275  1.4309
  980MOL0     H32285   4.463   9.225  11.412 -1.2096 -0.7988 -0.5265
  980MOL0     H32286   6.320   9.306  10.729 -0.0655 -0.1511  0.0786
  980MOL0     H32287   6.552   9.291  10.744  2.2459 -0.2594  2.2687
  980MOL0     H32288   6.892   9.278  11.168 -1.0329 -0.6419 -1.2943
  980MOL0     H32289   7.151   9.235  11.160 -0.9180 -3.0165  0.1307
  980MOL0     H32290   7.492   9.346  10.900  0.1756  0.2860 -1.7242
  980MOL0     H32291   7.371   9.466  10.956 -0.3775 -0.0084  2.1585
  980MOL0     H32292   7.526   9.272  11.144  0.3931 -0.1839 -0.6297
  980MOL0     H32293   7.380   9.356  11.183 -1.5467 -0.6097 -2.2513
  980MOL0     H32294   7.472   9.577  11.141 -2.0747 -1.1880 -0.8906
  980MOL0     H32295   7.615   9.515  11.058  1.5753 -2.4614  0.4615
  980MOL0     H32296   7.682   9.577  11.293 -1.8486  1.3130 -0.2753
  980MOL0     H32297   7.701   9.402  11.255  0.6174  0.7895  2.5347
  980MOL0     H32298   7.466   9.383  11.583 -2.5363 -0.7673 -2.0327
  980MOL0     H32299   7.178   9.400  10.778 -0.8940 -1.0497  0.0294
  980MOL0     H32300   6.943   9.470  10.787 -2.0454 -2.0798 -1.2124
  981MOL0     O32301   8.226   7.844   5.920  0.2749 -0.0308 -0.0653
  981MOL0     C32302   8.336   7.902   5.928 -0.3225  0.3553 -0.7724
  981MOL0     O32303   8.355   8.029   5.965 -0.7001 -0.1290  0.3558
  981MOL0     C32304   8.252   8.106   5.937  0.7997  0.3406 -1.0911
  981MOL0     C32305   8.221   8.165   5.815  0.3837  0.0665  0.6578
  981MOL0     C32306   8.099   8.235   5.794 -0.4004 -0.1786 -0.1325
  981MOL0     C32307   8.017   8.260   5.910 -0.2298 -0.0170 -0.4288
  981MOL0     O32308   7.913   8.346   5.881 -0.5535  0.6248 -0.0532
  981MOL0     C32309   7.790   8.345   5.960  0.5427  0.1844  0.4773
  981MOL0     C32310   7.677   8.398   5.872 -0.8201 -0.3306 -0.4044
  981MOL0     C32311   7.565   8.432   5.960  0.5882  0.2270 -0.3758
  981MOL0     C32312   7.426   8.445   5.885 -0.0696 -0.4812  0.1497
  981MOL0     C32313   7.301   8.441   5.981  1.2202 -0.2664  0.8611
  981MOL0     C32314   7.169   8.472   5.908  0.1757 -0.4934  0.0789
  981MOL0     C32315   7.054   8.506   5.999 -0.5965  0.4060 -0.2686
  981MOL0     C32316   7.006   8.388   6.090 -0.3087 -0.3053  0.3253
  981MOL0     N32317   6.882   8.433   6.144 -0.5230  0.6006 -0.2702
  981MOL0     C32318   6.870   8.495   6.263  0.1742 -0.1938  0.2573
  981MOL0     C32319   6.745   8.513   6.286 -0.2130 -0.1083 -0.5328
  981MOL0     C32320   6.684   8.549   6.413  0.0235 -0.5951  0.2478
  981MOL0     C32321   6.652   8.429   6.493  0.1201  0.0349 -0.0053
  981MOL0     C32322   6.566   8.442   6.618 -0.0672  0.4893  0.8842
  981MOL0     C32323   6.449   8.538   6.597  0.8911 -0.7470 -0.1860
  981MOL0     O32324   6.476   8.679   6.588  0.4432  0.6389 -0.5033
  981MOL0     C32325   6.495   8.749   6.705  0.0224 -0.3104 -0.0970
  981MOL0     C32326   6.502   8.706   6.835  0.8739  0.8881 -0.1176
  981MOL0     C32327   6.514   8.785   6.944  0.6057  0.4320 -0.0162
  981MOL0     C32328   6.511   8.727   7.084 -0.0436 -0.1550 -0.1143
  981MOL0     C32329   6.530   8.928   6.924 -0.3877  0.2265  0.2779
  981MOL0     C32330   6.547   9.027   7.028  1.2540 -0.0515  0.0357
  981MOL0     O32331   6.598   9.150   6.986 -0.5712 -0.5836  0.0746
  981MOL0     C32332   6.637   9.241   7.083  0.2890 -0.4016 -0.7097
  981MOL0     C32333   6.628   9.375   7.039 -0.3479 -1.0335 -0.4015
  981MOL0     C32334   6.644   9.478   7.132  0.2026 -0.0454 -0.7882
  981MOL0     C32335   6.684   9.452   7.267  0.1370 -0.6226 -0.6081
  981MOL0     O32336   6.669   9.557   7.348 -0.1727  0.0976 -0.0149
  981MOL0     C32337   6.721   9.547   7.476  0.6028  0.0677 -0.7749
  981MOL0     C32338   6.757   9.687   7.528 -0.0826 -0.3424  1.0111
  981MOL0     C32339   6.805   9.678   7.674 -0.3246  0.2747 -0.2684
  981MOL0     C32340   6.819   9.811   7.752  0.2076  0.2965  0.4655
  981MOL0     C32341   6.847   9.775   7.897 -0.3810 -0.4704  0.6508
  981MOL0     C32342   6.856   9.894   7.993  0.2675 -0.4747 -0.4306
  981MOL0     C32343   6.870   9.859   8.141  0.4500  0.4316  0.3644
  981MOL0     C32344   6.983   9.764   8.171  0.1736  0.3201 -0.0892
  981MOL0    Cl32345   7.003   9.743   8.351 -0.0604 -0.1243 -0.1390
  981MOL0     C32346   6.701   9.316   7.306  0.3115  0.0901 -1.3020
  981MOL0     C32347   6.679   9.212   7.216 -0.3552  0.4283 -0.4093
  981MOL0     O32348   6.510   9.002   7.145 -0.1630 -0.4773 -0.3232
  981MOL0     C32349   6.525   8.975   6.788 -0.0374 -0.5152 -0.1109
  981MOL0     C32350   6.524   8.887   6.685 -0.0652  0.5322 -0.5214
  981MOL0     N32351   6.677   8.460   6.185 -0.1052  0.1935 -0.2589
  981MOL0     N32352   6.754   8.429   6.093 -0.0278  0.2728 -0.0154
  981MOL0     C32353   8.053   8.215   6.037  0.6998 -0.5555  0.6115
  981MOL0     C32354   8.161   8.122   6.048  0.1814  0.3307 -0.4523
  981MOL0     C32355   8.461   7.816   5.918 -0.8817 -1.3886  0.7551
  981MOL0     C32356   8.463   7.690   5.847  0.0570 -0.8451 -0.2455
  981MOL0     C32357   8.581   7.633   5.822  0.4886  0.3034  0.6847
  981MOL0     C32358   8.702   7.684   5.869 -0.1085  0.2177  0.3054
  981MOL0     O32359   8.827   7.633   5.846  0.4591 -0.3128  0.2828
  981MOL0     C32360   8.841   7.493   5.858 -0.6669 -0.3536 -0.0396
  981MOL0     C32361   8.992   7.458   5.857 -0.3658  0.2737 -0.7234
  981MOL0     C32362   9.002   7.312   5.822 -0.6613  0.4162 -0.2295
  981MOL0     C32363   9.148   7.264   5.866 -0.8047  0.0407 -0.5186
  981MOL0     C32364   9.252   7.279   5.766 -0.1607 -0.1850  0.4101
  981MOL0     C32365   9.335   7.274   5.679  0.5248  0.3662 -0.3126
  981MOL0     C32366   8.698   7.792   5.947 -0.1985 -0.1519 -0.4333
  981MOL0     C32367   8.579   7.856   5.980  0.3595 -0.9321  0.7248
  981MOL0     H32368   8.288   8.144   5.733 -0.4422  0.4529 -0.1235
  981MOL0     H32369   8.059   8.273   5.700 -2.1161 -1.4481  0.0407
  981MOL0     H32370   7.759   8.251   6.006 -1.7039  0.4535 -0.3784
  981MOL0     H32371   7.802   8.410   6.047 -2.6889  0.2777  0.9627
  981MOL0     H32372   7.720   8.490   5.831  1.0479 -0.4938  1.0900
  981MOL0     H32373   7.663   8.326   5.790  0.5058 -3.3804  1.8622
  981MOL0     H32374   7.553   8.346   6.027 -0.6916  0.0681 -0.7937
  981MOL0     H32375   7.595   8.526   6.007  3.0624 -1.1666  1.0425
  981MOL0     H32376   7.430   8.536   5.825 -1.0696  0.7480  1.8589
  981MOL0     H32377   7.403   8.368   5.811 -0.6745  2.9340 -3.5552
  981MOL0     H32378   7.283   8.348   6.035  0.9380 -0.7694 -0.0828
  981MOL0     H32379   7.319   8.521   6.053  1.6521 -0.2705  0.7589
  981MOL0     H32380   7.184   8.560   5.844 -1.6635  0.2127  0.5646
  981MOL0     H32381   7.148   8.390   5.840 -1.5394  0.1604 -0.2140
  981MOL0     H32382   7.096   8.584   6.062 -2.4860  2.7348 -1.7108
  981MOL0     H32383   6.973   8.562   5.952 -0.9039  2.0034  2.0253
  981MOL0     H32384   7.081   8.377   6.169 -1.8770 -0.3610  1.8875
  981MOL0     H32385   6.993   8.294   6.035 -0.2331  1.0020 -2.0260
  981MOL0     H32386   6.956   8.520   6.323 -0.3712  0.1574  0.9034
  981MOL0     H32387   6.756   8.611   6.466 -0.9894  1.1621 -0.3304
  981MOL0     H32388   6.594   8.608   6.393 -2.6139 -3.1498  3.3689
  981MOL0     H32389   6.736   8.371   6.532 -1.4800 -1.6455  1.1310
  981MOL0     H32390   6.594   8.366   6.424 -3.1434  0.8727  1.7597
  981MOL0     H32391   6.635   8.485   6.691  3.9028  0.2556 -2.4197
  981MOL0     H32392   6.517   8.354   6.661 -0.5467  1.1290  1.6837
  981MOL0     H32393   6.394   8.531   6.691 -1.5118 -1.3550 -1.5440
  981MOL0     H32394   6.372   8.500   6.529 -1.1168 -0.1365  1.6341
  981MOL0     H32395   6.508   8.598   6.849 -0.3475  0.8091 -0.1066
  981MOL0     H32396   6.608   8.724   7.135 -1.0761 -2.4521  1.9213
  981MOL0     H32397   6.432   8.753   7.155  0.8950  2.3443  0.0997
  981MOL0     H32398   6.495   8.619   7.081 -0.0003 -0.2863  2.4856
  981MOL0     H32399   6.586   9.403   6.943  2.1028 -1.2931 -1.6250
  981MOL0     H32400   6.629   9.583   7.110  1.1951  0.6293  1.4019
  981MOL0     H32401   6.649   9.489   7.535  1.8827 -2.3930 -1.5140
  981MOL0     H32402   6.819   9.501   7.468  1.5260  1.0180  2.9823
  981MOL0     H32403   6.839   9.728   7.468  1.3603 -1.3111  2.2532
  981MOL0     H32404   6.673   9.757   7.526 -0.7679 -1.0499 -2.1610
  981MOL0     H32405   6.907   9.640   7.684 -0.9455 -0.9241  2.5114
  981MOL0     H32406   6.729   9.620   7.728 -0.4252 -1.3924 -2.0884
  981MOL0     H32407   6.903   9.865   7.706  0.5747 -2.2763 -2.2258
  981MOL0     H32408   6.726   9.869   7.748 -1.3399 -1.7283  3.3993
  981MOL0     H32409   6.941   9.720   7.905 -0.0248 -0.4881 -2.4752
  981MOL0     H32410   6.771   9.705   7.933 -0.4706 -0.0179  1.3570
  981MOL0     H32411   6.931   9.969   7.969 -0.2906  0.9757  1.9977
  981MOL0     H32412   6.764   9.953   7.984  1.2792  1.3719  0.6642
  981MOL0     H32413   6.774   9.809   8.160 -1.0423  2.5876 -0.9139
  981MOL0     H32414   6.866   9.944   8.209 -0.5782  1.5072 -0.9797
  981MOL0     H32415   7.068   9.808   8.118  0.4890  1.4681  1.3106
  981MOL0     H32416   6.968   9.664   8.128 -1.5784  1.1461 -1.5263
  981MOL0     H32417   6.730   9.292   7.408  0.1485 -0.3625 -1.3585
  981MOL0     H32418   6.716   9.113   7.239  0.8030  1.1596  1.0423
  981MOL0     H32419   6.540   9.080   6.768  0.1617 -0.6769 -0.8176
  981MOL0     H32420   6.525   8.925   6.584  5.5172  1.0420 -0.5688
  981MOL0     H32421   7.990   8.239   6.121 -2.0868  0.2555 -1.5509
  981MOL0     H32422   8.188   8.070   6.139 -0.3770  0.2732 -0.3178
  981MOL0     H32423   8.371   7.642   5.815 -1.0289 -1.7032  3.6536
  981MOL0     H32424   8.565   7.541   5.767  0.2094  2.4394 -3.1585
  981MOL0     H32425   8.794   7.472   5.955 -0.2162  0.9982  0.4905
  981MOL0     H32426   8.789   7.445   5.775 -0.3184 -1.7816  0.5238
  981MOL0     H32427   9.037   7.481   5.954  0.2481  0.3974 -1.0362
  981MOL0     H32428   9.048   7.516   5.783  3.2872 -2.0032  0.0241
  981MOL0     H32429   8.971   7.290   5.719  1.0468  1.6962 -1.0726
  981MOL0     H32430   8.928   7.261   5.883 -0.5657 -1.0117 -1.2331
  981MOL0     H32431   9.137   7.164   5.909 -2.2673  0.8655  1.1519
  981MOL0     H32432   9.192   7.327   5.943 -2.2685  3.9344 -2.6129
  981MOL0     H32433   9.421   7.255   5.618  4.2295  0.8286  4.2252
  981MOL0     H32434   8.799   7.824   5.973  0.1497 -0.1206 -1.7138
  981MOL0     H32435   8.575   7.954   6.027 -0.7715  1.6030 -3.9530
  982MOL0     O32436   1.279   4.256   8.351  0.0213 -0.1211 -0.4307
  982MOL0     C32437   1.361   4.264   8.436 -0.7169  0.6270 -0.2569
  982MOL0     O32438   1.341   4.289   8.565 -0.4504 -0.1831 -0.5362
  982MOL0     C32439   1.219   4.319   8.608 -0.5808  0.1858  0.4287
  982MOL0     C32440   1.157   4.226   8.696 -1.1986  0.0501  0.5842
  982MOL0     C32441   1.030   4.254   8.730 -0.4145  0.1483  0.0931
  982MOL0     C32442   0.969   4.374   8.683  0.4732 -0.7682 -0.0507
  982MOL0     O32443   0.826   4.397   8.694  0.1998 -0.7257  0.1813
  982MOL0     C32444   0.749   4.287   8.744 -0.0537  0.5008 -0.1281
  982MOL0     C32445   0.599   4.273   8.694 -0.3737 -0.1325 -0.2767
  982MOL0     C32446   0.596   4.255   8.547 -0.0297 -0.8700 -1.0543
  982MOL0     C32447   0.569   4.394   8.483 -0.7500  0.2185 -0.0019
  982MOL0     C32448   0.601   4.384   8.337  0.0620  0.8340 -0.4620
  982MOL0     C32449   0.752   4.380   8.300  1.1125  0.3047  1.2584
  982MOL0     C32450   0.785   4.354   8.147  1.0042 -0.5233  0.0230
  982MOL0     C32451   0.918   4.403   8.116 -0.2510  0.2287  0.5463
  982MOL0     N32452   0.957   4.540   8.158  0.4037 -0.2760  0.3063
  982MOL0     C32453   1.058   4.559   8.248 -0.3629 -0.6560 -0.1195
  982MOL0     C32454   1.061   4.695   8.264  0.5301  0.1069 -1.0784
  982MOL0     C32455   1.158   4.766   8.358  1.0625 -0.1494 -0.5187
  982MOL0     C32456   1.301   4.782   8.296  0.2641  0.2984  0.8924
  982MOL0     C32457   1.396   4.662   8.333 -0.4587  0.0171  1.0431
  982MOL0     C32458   1.539   4.681   8.278  0.7623 -1.1393  0.3361
  982MOL0     O32459   1.566   4.821   8.231  0.4620  0.1350  0.4572
  982MOL0     C32460   1.674   4.840   8.157  0.5933 -0.4140  0.0440
  982MOL0     C32461   1.792   4.760   8.157 -0.5518  0.0379  0.1960
  982MOL0     C32462   1.891   4.782   8.059  0.2154  0.0030  0.6023
  982MOL0     C32463   2.012   4.689   8.079  0.1768  0.1299  0.8926
  982MOL0     C32464   1.878   4.893   7.972  0.3723  0.7244  0.9222
  982MOL0     C32465   1.987   4.933   7.879  0.0713 -1.5505  0.0896
  982MOL0     O32466   2.012   5.071   7.881 -0.7788 -0.7433 -0.0768
  982MOL0     C32467   2.088   5.117   7.779 -0.4154 -0.4292  0.2584
  982MOL0     C32468   2.043   5.125   7.647  0.2527  0.4407 -0.3797
  982MOL0     C32469   2.138   5.162   7.544  0.3085  0.6733  0.1282
  982MOL0     C32470   2.272   5.193   7.573 -0.2267  0.8130 -0.8463
  982MOL0     O32471   2.347   5.220   7.462 -0.7641 -0.1484 -0.0439
  982MOL0     C32472   2.482   5.288   7.483  0.6198 -0.0218  0.2485
  982MOL0     C32473   2.523   5.368   7.357  0.1977  0.2927 -0.8024
  982MOL0     C32474   2.668   5.342   7.309  0.9090 -0.1225 -0.4382
  982MOL0     C32475   2.709   5.432   7.194 -0.4986 -0.3665  0.6453
  982MOL0     C32476   2.859   5.416   7.146 -0.2652  0.1802  0.4278
  982MOL0     C32477   2.894   5.539   7.055  0.7327 -0.6371 -0.8699
  982MOL0     C32478   3.033   5.532   6.997 -0.3036 -0.7088 -0.1075
  982MOL0     C32479   3.127   5.633   7.056 -0.2700  0.5030 -0.1289
  982MOL0    Cl32480   3.297   5.591   6.997 -0.1576  0.2713  0.1400
  982MOL0     C32481   2.315   5.191   7.708 -0.0873  0.2146  0.2703
  982MOL0     C32482   2.224   5.146   7.807  0.4682 -0.8470  0.4911
  982MOL0     O32483   2.058   4.854   7.818  0.3270  0.4052  0.3822
  982MOL0     C32484   1.757   4.972   7.984 -0.3733  0.5908 -1.1154
  982MOL0     C32485   1.656   4.943   8.072 -0.1055 -0.0518 -0.2437
  982MOL0     N32486   0.960   4.754   8.192  0.6536  0.5145  0.9711
  982MOL0     N32487   0.904   4.659   8.124  0.3165  0.9777  0.3744
  982MOL0     C32488   1.035   4.472   8.618 -0.4157 -0.7364  0.9057
  982MOL0     C32489   1.167   4.438   8.574  0.7559  0.5049 -0.2922
  982MOL0     C32490   1.502   4.267   8.376  0.5999 -1.2446  0.3608
  982MOL0     C32491   1.613   4.255   8.459  0.7340 -0.5859  0.3880
  982MOL0     C32492   1.751   4.264   8.420  0.4495 -0.0386 -0.0293
  982MOL0     C32493   1.760   4.303   8.282 -0.7666  0.4495  0.4564
  982MOL0     O32494   1.885   4.328   8.228 -0.3744  0.0369 -0.4713
  982MOL0     C32495   1.999   4.241   8.257 -0.5109 -0.1738  0.7252
  982MOL0     C32496   2.116   4.272   8.159 -0.2770  0.7062  0.1048
  982MOL0     C32497   2.061   4.265   8.013 -0.3911  0.6129  0.5204
  982MOL0     C32498   2.129   4.145   7.936  0.3306  0.8643  0.7956
  982MOL0     C32499   2.276   4.143   7.947  0.5063 -0.0021 -0.1624
  982MOL0     C32500   2.396   4.158   7.952 -0.4095 -0.3902  0.8309
  982MOL0     C32501   1.651   4.297   8.191 -0.8710  0.6845  0.2929
  982MOL0     C32502   1.524   4.292   8.243 -0.0674  0.1869  0.0304
  982MOL0     H32503   1.215   4.137   8.721 -0.1110  1.0522  1.7808
  982MOL0     H32504   0.988   4.173   8.789 -1.2040 -0.0585 -0.7121
  982MOL0     H32505   0.793   4.188   8.727  1.1235  0.8395  0.8104
  982MOL0     H32506   0.751   4.297   8.853  2.7695 -0.3311 -0.0344
  982MOL0     H32507   0.556   4.187   8.746 -3.8119  0.7682 -1.3522
  982MOL0     H32508   0.533   4.352   8.731 -0.3208 -0.5714  0.8049
  982MOL0     H32509   0.694   4.221   8.513  1.0795  0.0614  1.0246
  982MOL0     H32510   0.518   4.184   8.518 -0.1888 -0.1877 -2.4094
  982MOL0     H32511   0.462   4.413   8.494 -0.6558  0.5808  0.3238
  982MOL0     H32512   0.626   4.474   8.530 -0.0602 -0.3936  0.2184
  982MOL0     H32513   0.560   4.288   8.303 -1.7469  0.8466  1.4217
  982MOL0     H32514   0.546   4.460   8.281 -0.1604  0.3491 -0.9132
  982MOL0     H32515   0.784   4.481   8.327  1.2432  0.8158 -0.6654
  982MOL0     H32516   0.793   4.294   8.354  0.3193 -0.5542  0.5326
  982MOL0     H32517   0.767   4.249   8.122  2.0179 -0.8771  0.7147
  982MOL0     H32518   0.710   4.392   8.078  0.4483  1.5986  1.6950
  982MOL0     H32519   0.921   4.408   8.006  2.5103  0.8834  0.5847
  982MOL0     H32520   0.988   4.324   8.146 -2.0367 -2.6594 -2.2219
  982MOL0     H32521   1.110   4.488   8.312  0.8231 -0.1000 -0.4284
  982MOL0     H32522   1.118   4.867   8.369 -0.0402 -0.2165 -3.2718
  982MOL0     H32523   1.160   4.716   8.456 -0.8567  1.3742  0.3717
  982MOL0     H32524   1.345   4.873   8.337  0.2551  1.1001 -0.7701
  982MOL0     H32525   1.288   4.786   8.187  0.0203 -1.5039  0.8300
  982MOL0     H32526   1.354   4.566   8.302 -1.6412  0.6475  0.6315
  982MOL0     H32527   1.412   4.656   8.441 -1.3292  0.6544  1.2200
  982MOL0     H32528   1.564   4.605   8.203 -2.2016 -2.2129  0.3100
  982MOL0     H32529   1.615   4.671   8.356  1.8543  0.9471 -0.3679
  982MOL0     H32530   1.814   4.676   8.222 -0.2124 -0.2470 -0.2764
  982MOL0     H32531   2.011   4.617   7.997 -1.0367  0.8041  0.2989
  982MOL0     H32532   2.109   4.739   8.077  0.9307 -1.3016 -1.2385
  982MOL0     H32533   2.011   4.636   8.175  1.2966  2.4244  2.2756
  982MOL0     H32534   1.939   5.107   7.622  0.4231 -0.8238 -0.2860
  982MOL0     H32535   2.098   5.167   7.443  0.5156  0.4210  0.0349
  982MOL0     H32536   2.475   5.365   7.561  3.1025  1.5638 -0.9520
  982MOL0     H32537   2.556   5.216   7.520 -0.3513 -1.5183 -0.6110
  982MOL0     H32538   2.451   5.354   7.277  1.1757 -0.9822 -1.5089
  982MOL0     H32539   2.520   5.470   7.397  0.6775 -0.2373  0.6625
  982MOL0     H32540   2.684   5.236   7.289 -1.2732 -0.6167  0.1630
  982MOL0     H32541   2.739   5.371   7.387 -1.0484 -0.0978  1.4336
  982MOL0     H32542   2.642   5.417   7.108 -0.0047  0.6302  0.0692
  982MOL0     H32543   2.708   5.535   7.230  3.9362 -0.4299  1.4370
  982MOL0     H32544   2.875   5.323   7.090  1.3988 -0.3951  1.7557
  982MOL0     H32545   2.930   5.403   7.228  0.2615 -1.0788 -0.1844
  982MOL0     H32546   2.815   5.543   6.979 -1.9539 -1.0221  1.7257
  982MOL0     H32547   2.880   5.628   7.116  0.0115 -1.5606  0.3570
  982MOL0     H32548   3.035   5.545   6.889 -1.5015 -0.9304 -0.1740
  982MOL0     H32549   3.078   5.433   7.011  1.2184 -0.6819 -3.7025
  982MOL0     H32550   3.126   5.625   7.165  1.1293  0.9779 -0.0524
  982MOL0     H32551   3.101   5.737   7.034 -2.6595  0.1709  0.8713
  982MOL0     H32552   2.410   5.227   7.745 -0.3665 -0.4824  1.6890
  982MOL0     H32553   2.259   5.137   7.909  0.5013 -2.4812  0.3630
  982MOL0     H32554   1.761   5.069   7.935  1.5715  0.3367 -1.5719
  982MOL0     H32555   1.568   5.006   8.080  0.8948  1.2183  1.3867
  982MOL0     H32556   0.983   4.561   8.585  2.7341 -0.3211 -3.9002
  982MOL0     H32557   1.222   4.507   8.511 -0.0703  0.3388 -1.2247
  982MOL0     H32558   1.605   4.237   8.566  0.2251  0.9839  0.6364
  982MOL0     H32559   1.830   4.243   8.492  1.6733  0.8788 -1.0318
  982MOL0     H32560   2.030   4.256   8.361 -2.0115  3.1659  0.8253
  982MOL0     H32561   1.958   4.140   8.242  1.6900 -0.9190 -0.7853
  982MOL0     H32562   2.187   4.190   8.171 -2.7145 -1.5622  0.1153
  982MOL0     H32563   2.159   4.369   8.186  3.6511 -0.5572 -0.9805
  982MOL0     H32564   2.083   4.353   7.953 -0.5981  0.9193  0.8810
  982MOL0     H32565   1.952   4.249   8.016 -0.0986 -2.8089 -1.9609
  982MOL0     H32566   2.102   4.149   7.830  0.5938 -2.3235  0.4989
  982MOL0     H32567   2.077   4.055   7.971 -1.3037  0.8710 -1.3949
  982MOL0     H32568   2.502   4.178   7.950 -0.0331 -2.2154 -0.1287
  982MOL0     H32569   1.654   4.307   8.083 -0.7122  1.9467  0.3984
  982MOL0     H32570   1.439   4.297   8.175  0.7706  1.5937 -0.9359
  983MOL0     O32571  10.657   9.315   5.822 -0.7075 -0.7515  0.3505
  983MOL0     C32572  10.574   9.381   5.868  0.1326 -0.1201 -0.8160
  983MOL0     O32573  10.477   9.330   5.949  0.0644  0.5618  0.1922
  983MOL0     C32574  10.472   9.193   5.972  0.2645  1.1138  0.3496
  983MOL0     C32575  10.534   9.143   6.090 -0.5889 -0.1527  0.9428
  983MOL0     C32576  10.550   9.004   6.113 -0.3859 -0.4385  0.5657
  983MOL0     C32577  10.493   8.918   6.021 -0.8245  0.0941 -0.7973
  983MOL0     O32578  10.525   8.784   6.045  0.1131  0.0001 -0.1217
  983MOL0     C32579  10.457   8.686   5.966 -0.0183  0.1896  0.3964
  983MOL0     C32580  10.463   8.554   6.036  0.8347 -0.2184 -0.0934
  983MOL0     C32581  10.368   8.448   5.967  0.3594 -0.6290  0.0744
  983MOL0     C32582  10.443   8.317   5.940 -0.1010 -0.4936 -1.2290
  983MOL0     C32583  10.341   8.210   5.925  0.5232  1.0894 -0.6334
  983MOL0     C32584  10.247   8.224   5.801 -0.2645  0.5255 -0.4059
  983MOL0     C32585  10.151   8.105   5.802 -0.8082 -0.7329 -0.1843
  983MOL0     C32586  10.070   8.117   5.676  0.2129 -0.2741 -0.0338
  983MOL0     N32587   9.953   8.026   5.673  0.0316  0.4555 -0.0378
  983MOL0     C32588   9.939   7.909   5.597  0.6938 -0.1754 -0.4508
  983MOL0     C32589   9.825   7.852   5.636  0.2299 -0.3214 -1.2628
  983MOL0     C32590   9.774   7.715   5.571  0.4045  0.1845 -0.5101
  983MOL0     C32591   9.620   7.721   5.571 -0.1631 -0.2603  0.2088
  983MOL0     C32592   9.576   7.583   5.526  0.0822  0.1344  0.1334
  983MOL0     C32593   9.428   7.571   5.491 -0.8600  0.4130  0.9289
  983MOL0     O32594   9.423   7.629   5.362 -0.7229  0.3073  0.6637
  983MOL0     C32595   9.337   7.726   5.335 -0.1213 -0.6024 -0.3595
  983MOL0     C32596   9.267   7.725   5.217 -0.1588 -0.3450  0.2147
  983MOL0     C32597   9.173   7.824   5.185 -0.8763 -0.1989 -0.6574
  983MOL0     C32598   9.122   7.824   5.043 -0.8121 -0.1918 -0.4795
  983MOL0     C32599   9.141   7.924   5.283 -0.1943 -0.4941 -0.4183
  983MOL0     C32600   9.041   8.029   5.272 -0.7402 -0.5950 -0.1027
  983MOL0     O32601   8.960   8.054   5.384 -0.4523 -0.1265 -0.5689
  983MOL0     C32602   8.884   8.168   5.370 -0.9155  0.4487 -0.3095
  983MOL0     C32603   8.746   8.159   5.339 -0.6601  0.7841  0.1477
  983MOL0     C32604   8.682   8.277   5.316  0.1496 -1.0527 -0.5222
  983MOL0     C32605   8.742   8.407   5.330 -0.5678  0.2267 -0.3551
  983MOL0     O32606   8.659   8.518   5.318  0.4413  0.1367 -0.6447
  983MOL0     C32607   8.717   8.645   5.346  0.0740  0.0280 -0.1955
  983MOL0     C32608   8.630   8.763   5.329  0.4573  0.4413 -0.6606
  983MOL0     C32609   8.507   8.751   5.427 -1.0352 -0.1937 -0.1037
  983MOL0     C32610   8.433   8.883   5.400  0.4887  0.4998 -0.1558
  983MOL0     C32611   8.313   8.884   5.491 -0.3828  0.3425 -0.3807
  983MOL0     C32612   8.233   9.018   5.483 -0.4241  0.6032 -0.5842
  983MOL0     C32613   8.171   9.038   5.341 -0.0177 -0.0467 -0.3175
  983MOL0     C32614   8.072   9.145   5.350  0.3470  0.0564 -0.1066
  983MOL0    Cl32615   7.933   9.097   5.244  0.1325  0.2076  0.6310
  983MOL0     C32616   8.874   8.416   5.382  0.9855  0.2434 -0.6366
  983MOL0     C32617   8.942   8.293   5.394 -0.9870  0.0410 -0.3300
  983MOL0     O32618   9.049   8.098   5.171 -0.5639 -0.7303 -0.2725
  983MOL0     C32619   9.223   7.925   5.400 -0.2865  0.3104 -0.4536
  983MOL0     C32620   9.320   7.830   5.424  0.0707 -0.1969 -0.0430
  983MOL0     N32621   9.765   7.939   5.729 -0.2424 -0.2061 -0.0869
  983MOL0     N32622   9.849   8.034   5.757 -0.5077  0.8139 -0.4001
  983MOL0     C32623  10.444   8.965   5.899 -0.1356 -0.4577  0.0023
  983MOL0     C32624  10.431   9.103   5.874 -1.2962  0.3749 -0.7475
  983MOL0     C32625  10.575   9.523   5.852 -0.2381  0.8725  0.5910
  983MOL0     C32626  10.681   9.580   5.781  0.0664 -0.3357 -0.1009
  983MOL0     C32627  10.696   9.719   5.782  0.4159 -0.4815  0.2242
  983MOL0     C32628  10.603   9.803   5.844 -0.8363 -0.4652  0.7487
  983MOL0     O32629  10.603   9.937   5.859  0.2932 -0.5253  0.2068
  983MOL0     C32630  10.694  10.006   5.772 -1.0667 -0.2780  0.6207
  983MOL0     C32631  10.675  10.153   5.798 -0.1770  0.6689  0.1513
  983MOL0     C32632  10.711  10.201   5.939 -0.8723  0.0163  0.1330
  983MOL0     C32633  10.665  10.347   5.938  0.3255 -0.7393 -0.3020
  983MOL0     C32634  10.535  10.366   6.000  0.3215 -0.3148 -0.3272
  983MOL0     C32635  10.424  10.385   6.057 -0.1971 -0.2664 -0.4778
  983MOL0     C32636  10.502   9.740   5.917  0.4377 -0.1502 -0.2056
  983MOL0     C32637  10.486   9.600   5.920  0.1274  0.3223  0.0825
  983MOL0     H32638  10.571   9.220   6.156  2.1587  0.5493 -1.2135
  983MOL0     H32639  10.593   8.951   6.198 -0.8657 -1.3311  0.2610
  983MOL0     H32640  10.357   8.725   5.944  1.0345  1.7994 -2.0250
  983MOL0     H32641  10.511   8.684   5.871  0.9698  0.4425  0.9305
  983MOL0     H32642  10.563   8.511   6.049  1.0411 -0.5416 -2.4139
  983MOL0     H32643  10.431   8.564   6.140 -0.6458 -3.9679 -0.0388
  983MOL0     H32644  10.285   8.431   6.036  0.7881  1.2316  1.1123
  983MOL0     H32645  10.327   8.479   5.871  1.3971 -2.7735 -1.1477
  983MOL0     H32646  10.509   8.311   5.853  2.2382 -0.5825  0.4643
  983MOL0     H32647  10.519   8.279   6.009  1.0541 -0.5722 -2.5085
  983MOL0     H32648  10.397   8.116   5.921 -0.0241  0.6952  0.5082
  983MOL0     H32649  10.281   8.205   6.016  1.0239 -2.2644 -0.3717
  983MOL0     H32650  10.195   8.320   5.798 -2.8692 -0.7177  1.5832
  983MOL0     H32651  10.304   8.218   5.708 -2.0822 -0.8499 -1.4833
  983MOL0     H32652  10.211   8.013   5.798 -0.7121 -0.6365 -3.2783
  983MOL0     H32653  10.087   8.109   5.891  0.9184  1.8199  1.0559
  983MOL0     H32654  10.132   8.090   5.590  0.6626  0.7078 -0.0342
  983MOL0     H32655  10.026   8.217   5.664  0.4321  0.4515  3.9248
  983MOL0     H32656  10.012   7.856   5.537  2.2796  1.0929  0.2756
  983MOL0     H32657   9.832   7.695   5.480 -0.9215 -1.5569 -1.0362
  983MOL0     H32658   9.801   7.635   5.642  0.6838 -0.2185 -1.0615
  983MOL0     H32659   9.589   7.798   5.500 -2.1376 -1.5841 -0.4415
  983MOL0     H32660   9.577   7.751   5.667 -2.5343 -0.9646 -0.5593
  983MOL0     H32661   9.596   7.506   5.601 -0.1263 -1.6108 -1.5022
  983MOL0     H32662   9.634   7.558   5.436  2.1220 -0.6677  1.5992
  983MOL0     H32663   9.368   7.631   5.561 -0.1709  0.7249  1.2595
  983MOL0     H32664   9.397   7.467   5.476 -0.2019  0.1497  1.3415
  983MOL0     H32665   9.285   7.640   5.152  1.2650  0.6989 -0.8519
  983MOL0     H32666   9.212   7.856   4.990 -1.4356  0.8676 -0.9370
  983MOL0     H32667   9.101   7.722   5.009 -0.7203 -1.0958  1.9432
  983MOL0     H32668   9.047   7.899   5.014 -0.5436 -0.2358 -1.3135
  983MOL0     H32669   8.685   8.069   5.335  1.9490 -1.0619 -2.1167
  983MOL0     H32670   8.582   8.271   5.277  0.1319 -0.1518 -0.6361
  983MOL0     H32671   8.759   8.626   5.445  2.7002 -1.5053 -1.5069
  983MOL0     H32672   8.800   8.670   5.280 -0.2131  1.9947  0.1313
  983MOL0     H32673   8.689   8.847   5.369 -1.3129  0.7931  1.3828
  983MOL0     H32674   8.586   8.778   5.230  1.1415  0.9406 -0.8950
  983MOL0     H32675   8.538   8.749   5.532 -3.1503 -1.7061  0.5453
  983MOL0     H32676   8.456   8.656   5.411 -1.5787  0.0238  0.2839
  983MOL0     H32677   8.494   8.972   5.418  1.8385 -0.6569  1.1577
  983MOL0     H32678   8.398   8.873   5.296 -1.2498 -0.1881  0.4629
  983MOL0     H32679   8.343   8.867   5.595 -2.3043  5.2110  1.2618
  983MOL0     H32680   8.238   8.808   5.467 -0.8332 -1.0810  4.5901
  983MOL0     H32681   8.145   9.021   5.548 -2.7200  0.9806 -3.5157
  983MOL0     H32682   8.306   9.094   5.512 -0.4279  0.9168 -1.3797
  983MOL0     H32683   8.123   8.941   5.320  0.1135 -0.1127 -0.3090
  983MOL0     H32684   8.254   9.069   5.276  1.1654  1.5400  1.8522
  983MOL0     H32685   8.111   9.243   5.321  0.0397  0.0616 -0.5172
  983MOL0     H32686   8.032   9.153   5.452 -0.1114  0.0946 -0.2869
  983MOL0     H32687   8.914   8.514   5.406 -0.3857 -0.0109  3.4618
  983MOL0     H32688   9.039   8.310   5.441 -0.9782  3.3167 -1.2349
  983MOL0     H32689   9.221   7.996   5.483 -1.5028 -0.2140 -0.0101
  983MOL0     H32690   9.390   7.854   5.504 -0.0739 -1.2003  0.3974
  983MOL0     H32691  10.410   8.899   5.819 -0.1113  0.1457 -0.5122
  983MOL0     H32692  10.379   9.137   5.785 -1.4267 -0.4738 -1.0053
  983MOL0     H32693  10.763   9.528   5.733  2.1812  1.4605  1.3993
  983MOL0     H32694  10.784   9.750   5.727  0.2402 -2.6724 -1.4477
  983MOL0     H32695  10.797   9.976   5.793 -0.8907  1.1470  1.9993
  983MOL0     H32696  10.681   9.989   5.665  2.1633 -1.1823  0.2482
  983MOL0     H32697  10.568  10.170   5.783 -0.5364 -2.3306 -1.4205
  983MOL0     H32698  10.742  10.204   5.728  1.2923  1.4343  2.0316
  983MOL0     H32699  10.819  10.201   5.956 -0.6693  1.4483 -0.9743
  983MOL0     H32700  10.657  10.144   6.015 -1.1220  0.2309  0.1160
  983MOL0     H32701  10.663  10.386   5.836  1.6399 -1.5304 -0.6484
  983MOL0     H32702  10.732  10.410   5.998  0.4613 -0.8331 -0.3545
  983MOL0     H32703  10.334  10.389   6.115  0.1950 -1.3032  0.2420
  983MOL0     H32704  10.436   9.807   5.971  1.1943  2.2108 -2.0311
  983MOL0     H32705  10.403   9.560   5.978 -0.0074  0.7818  0.2086
  984MOL0     O32706   5.666   5.228   3.077  0.1343 -0.0302 -0.3064
  984MOL0     C32707   5.753   5.148   3.104 -0.1502 -0.1357  0.2664
  984MOL0     O32708   5.735   5.031   3.176  0.0099  0.1084  0.6412
  984MOL0     C32709   5.614   4.990   3.223 -0.0335 -0.3050 -1.5486
  984MOL0     C32710   5.500   4.994   3.147  0.4119 -0.4359  0.5779
  984MOL0     C32711   5.373   4.956   3.198 -0.0341  0.0362  0.2454
  984MOL0     C32712   5.361   4.909   3.327  0.7528 -0.1048  0.2208
  984MOL0     O32713   5.239   4.880   3.391  0.0078  0.1086  0.0213
  984MOL0     C32714   5.113   4.918   3.338 -0.7710 -0.5786 -0.1568
  984MOL0     C32715   4.999   4.882   3.439  0.0746 -0.6853 -0.3933
  984MOL0     C32716   4.856   4.909   3.379  0.2793 -0.6115  0.1525
  984MOL0     C32717   4.738   4.902   3.480  0.2202 -0.1942  0.2996
  984MOL0     C32718   4.595   4.932   3.428 -1.3112  0.3254  0.5891
  984MOL0     C32719   4.499   5.007   3.539 -0.2296 -0.1306 -0.4003
  984MOL0     C32720   4.358   4.997   3.480  0.2617 -0.3758 -0.0823
  984MOL0     C32721   4.260   5.079   3.565 -0.7890 -0.6409 -0.0581
  984MOL0     N32722   4.197   5.011   3.678 -1.3410 -0.7006 -0.9599
  984MOL0     C32723   4.073   4.951   3.675 -0.2416 -1.2508 -0.7322
  984MOL0     C32724   4.054   4.921   3.802  0.0049  0.4367 -0.3446
  984MOL0     C32725   3.935   4.849   3.846 -0.8381  0.0589  0.1680
  984MOL0     C32726   3.800   4.928   3.804 -0.5803 -0.5912  0.1581
  984MOL0     C32727   3.801   5.072   3.852  0.2040 -0.7473  0.4587
  984MOL0     C32728   3.649   5.117   3.853  0.2563 -0.4993 -0.5735
  984MOL0     O32729   3.587   5.091   3.720 -0.7115  0.2988  0.4398
  984MOL0     C32730   3.453   5.103   3.715  0.9315  0.8456 -0.0174
  984MOL0     C32731   3.401   5.194   3.630  0.0825  0.0439 -0.2533
  984MOL0     C32732   3.255   5.209   3.616 -0.1513  0.6353  0.4944
  984MOL0     C32733   3.208   5.324   3.532  0.2034  0.9020 -0.3007
  984MOL0     C32734   3.167   5.121   3.688 -1.1541 -0.2227  0.3153
  984MOL0     C32735   3.020   5.128   3.685  0.3528  0.5550 -0.3401
  984MOL0     O32736   2.959   5.119   3.809 -0.1552 -0.3239  0.0021
  984MOL0     C32737   2.828   5.165   3.816  0.6741 -0.1912 -0.3059
  984MOL0     C32738   2.730   5.078   3.772 -0.2847  0.7513  0.1082
  984MOL0     C32739   2.596   5.109   3.757  0.1998 -0.5092 -0.2971
  984MOL0     C32740   2.561   5.247   3.785  0.5850  1.1202 -0.2628
  984MOL0     O32741   2.424   5.267   3.773  0.1751  1.5662  0.4316
  984MOL0     C32742   2.349   5.276   3.896  0.5964 -0.2208 -0.3609
  984MOL0     C32743   2.359   5.418   3.955 -0.4567  0.0775  0.3440
  984MOL0     C32744   2.259   5.444   4.067  0.1831  0.3311 -0.2520
  984MOL0     C32745   2.267   5.594   4.124 -0.8058 -0.1853 -0.3725
  984MOL0     C32746   2.218   5.613   4.272  0.1985  0.1945 -0.2314
  984MOL0     C32747   2.062   5.613   4.288 -0.2245  0.4224  0.6008
  984MOL0     C32748   2.005   5.745   4.225 -0.0738  0.1224  0.6746
  984MOL0     C32749   1.890   5.806   4.302  0.3202 -0.4197 -0.2606
  984MOL0    Cl32750   1.796   5.943   4.230 -0.0040 -0.0993  0.3322
  984MOL0     C32751   2.649   5.336   3.839 -0.5073  0.4497  0.5513
  984MOL0     C32752   2.785   5.292   3.862  0.0293  0.0581  0.2231
  984MOL0     O32753   2.968   5.134   3.575  0.5399 -1.0327  0.2390
  984MOL0     C32754   3.233   5.035   3.780  0.8843 -0.3039 -0.2048
  984MOL0     C32755   3.370   5.028   3.798  0.3098 -0.1002  0.2951
  984MOL0     N32756   4.167   4.954   3.886 -0.2271 -0.6955 -0.4164
  984MOL0     N32757   4.252   4.999   3.802 -0.3076 -0.4246  0.6612
  984MOL0     C32758   5.480   4.897   3.406 -0.0163  0.5182  0.1522
  984MOL0     C32759   5.598   4.936   3.355 -0.0764 -1.0464 -0.5132
  984MOL0     C32760   5.882   5.156   3.031  0.1976 -1.1662 -0.0720
  984MOL0     C32761   5.886   5.221   2.908 -0.0529 -0.7412 -0.1880
  984MOL0     C32762   6.002   5.221   2.837 -0.2002  0.3076  0.4975
  984MOL0     C32763   6.113   5.163   2.891  0.1582  0.5630  0.2828
  984MOL0     O32764   6.224   5.148   2.820 -0.2439 -0.6876  0.4811
  984MOL0     C32765   6.300   5.270   2.790  0.7695  0.2905 -0.7915
  984MOL0     C32766   6.450   5.223   2.781  0.9104 -0.2713 -0.1838
  984MOL0     C32767   6.511   5.152   2.899  0.5528 -0.0340 -0.7704
  984MOL0     C32768   6.662   5.148   2.887  0.5006 -0.1755  0.3603
  984MOL0     C32769   6.721   5.069   3.002  0.9840  0.5436  0.3277
  984MOL0     C32770   6.775   5.032   3.099  0.2537 -0.7086 -0.7542
  984MOL0     C32771   6.116   5.105   3.015 -0.5278  0.3813 -1.0251
  984MOL0     C32772   5.996   5.094   3.085 -0.1258 -0.4631  0.9724
  984MOL0     H32773   5.507   5.023   3.042  2.4759  1.5804  1.1789
  984MOL0     H32774   5.286   4.964   3.134  0.3245  2.9823 -0.0213
  984MOL0     H32775   5.119   5.027   3.325  0.1942  0.0113  3.8477
  984MOL0     H32776   5.106   4.865   3.243  1.9418  1.6642 -1.7710
  984MOL0     H32777   4.999   4.773   3.452  0.7836 -0.5383  1.1452
  984MOL0     H32778   5.023   4.932   3.533  0.6325 -0.3381 -0.7144
  984MOL0     H32779   4.855   5.008   3.334 -2.5518 -2.1424 -3.7202
  984MOL0     H32780   4.834   4.832   3.304 -2.3172 -0.1817  0.3723
  984MOL0     H32781   4.738   4.805   3.530 -1.3371 -1.1132 -1.3742
  984MOL0     H32782   4.754   4.982   3.553  0.2792 -0.5287  0.6550
  984MOL0     H32783   4.607   4.998   3.342 -1.8745 -2.2310 -1.5453
  984MOL0     H32784   4.557   4.838   3.389 -0.3789 -0.5309  1.6616
  984MOL0     H32785   4.506   4.970   3.642 -1.4076  1.5929  0.3370
  984MOL0     H32786   4.533   5.111   3.541  0.5191 -0.3739  1.9752
  984MOL0     H32787   4.353   5.028   3.376 -0.7522 -2.5819 -0.7678
  984MOL0     H32788   4.313   4.899   3.461 -2.7842  1.2592 -2.2443
  984MOL0     H32789   4.184   5.110   3.492 -1.7519  2.3866  2.0336
  984MOL0     H32790   4.312   5.168   3.600 -3.6237  0.7391  1.0054
  984MOL0     H32791   4.007   4.942   3.589  0.0415 -0.0524 -1.1005
  984MOL0     H32792   3.935   4.744   3.814 -0.7394 -0.6957  2.5132
  984MOL0     H32793   3.930   4.854   3.955  1.4028 -0.8568  0.3745
  984MOL0     H32794   3.710   4.882   3.844 -1.8135  2.8705  1.7094
  984MOL0     H32795   3.787   4.925   3.695 -0.4577 -2.7208  0.1607
  984MOL0     H32796   3.868   5.128   3.786  1.5628 -2.0584  0.6691
  984MOL0     H32797   3.846   5.068   3.952  1.2775 -2.8581 -0.0463
  984MOL0     H32798   3.630   5.222   3.876 -3.6352 -1.0431 -0.5120
  984MOL0     H32799   3.592   5.062   3.929  1.2460  1.8590  2.0148
  984MOL0     H32800   3.471   5.258   3.579  0.5078 -0.5919 -0.4747
  984MOL0     H32801   3.106   5.355   3.558 -0.2823 -1.0890  0.3228
  984MOL0     H32802   3.272   5.412   3.543  1.5291 -0.0009 -0.5253
  984MOL0     H32803   3.203   5.292   3.427 -2.5761 -3.8246  0.9317
  984MOL0     H32804   2.751   4.977   3.739  2.0737  1.0610  0.5074
  984MOL0     H32805   2.520   5.032   3.751 -0.2775 -0.2716  1.7549
  984MOL0     H32806   2.243   5.257   3.878  0.9261 -0.4922 -2.1828
  984MOL0     H32807   2.392   5.217   3.978 -0.4470  1.1835  1.2644
  984MOL0     H32808   2.460   5.411   3.998 -0.5753 -2.9742  0.3177
  984MOL0     H32809   2.349   5.500   3.883  0.3306 -0.5167 -0.4655
  984MOL0     H32810   2.273   5.377   4.152 -4.5901  0.1478  0.6557
  984MOL0     H32811   2.154   5.425   4.043 -0.2464 -1.0629  2.3532
  984MOL0     H32812   2.375   5.608   4.117 -0.6268 -2.0353 -2.6130
  984MOL0     H32813   2.220   5.668   4.058 -4.2410 -0.4259  1.6038
  984MOL0     H32814   2.267   5.702   4.312  1.7554 -1.0790  0.8587
  984MOL0     H32815   2.251   5.530   4.336 -0.1121 -0.5042 -0.9607
  984MOL0     H32816   2.021   5.532   4.226  0.8200  1.0677 -1.0165
  984MOL0     H32817   2.030   5.600   4.391 -2.9102 -0.6661 -0.2714
  984MOL0     H32818   1.957   5.708   4.134 -0.7529  0.3926  0.9159
  984MOL0     H32819   2.083   5.819   4.203 -1.0823  1.4368  1.4104
  984MOL0     H32820   1.929   5.830   4.401 -2.8314  3.9081  0.2448
  984MOL0     H32821   1.815   5.730   4.327 -0.2616  0.1829 -0.1183
  984MOL0     H32822   2.631   5.432   3.887 -1.4940  0.4725  0.1587
  984MOL0     H32823   2.842   5.377   3.897  1.9083 -0.3769 -1.5647
  984MOL0     H32824   3.177   4.967   3.843 -0.5565 -0.3395 -1.4579
  984MOL0     H32825   3.414   4.955   3.865 -1.3540  1.1323  2.9094
  984MOL0     H32826   5.477   4.847   3.503 -0.7640  1.7534  0.7821
  984MOL0     H32827   5.689   4.938   3.414 -1.0207 -2.2017  1.0613
  984MOL0     H32828   5.797   5.269   2.869  0.7696  0.9831 -0.0282
  984MOL0     H32829   6.007   5.265   2.738  0.8709 -2.0667 -0.5745
  984MOL0     H32830   6.274   5.315   2.694 -0.3290  4.0187  1.0690
  984MOL0     H32831   6.291   5.347   2.867  1.8692  0.0829 -0.4260
  984MOL0     H32832   6.513   5.309   2.757  0.7731 -0.7402 -2.4764
  984MOL0     H32833   6.450   5.153   2.697  2.4900 -0.0753 -0.3807
  984MOL0     H32834   6.464   5.053   2.909 -1.1164  0.9438  2.6667
  984MOL0     H32835   6.501   5.213   2.989 -2.0112  0.9168 -1.5997
  984MOL0     H32836   6.696   5.252   2.891 -1.1983  0.4217  0.3472
  984MOL0     H32837   6.692   5.105   2.791  1.1537  0.2260  0.3767
  984MOL0     H32838   6.819   5.001   3.192  1.0815  0.0826 -0.8677
  984MOL0     H32839   6.212   5.072   3.052  0.3438  3.0668 -0.7274
  984MOL0     H32840   5.980   5.034   3.174 -0.4176 -1.0284  0.5428
  985MOL0     O32841   1.290   3.724   5.732 -0.0564 -0.1434 -0.5920
  985MOL0     C32842   1.238   3.655   5.821 -0.6865 -0.4185  0.0592
  985MOL0     O32843   1.308   3.563   5.898 -0.3819 -0.0254  0.2945
  985MOL0     C32844   1.437   3.531   5.877 -0.0664  0.3962 -0.2514
  985MOL0     C32845   1.476   3.398   5.886  0.4632 -0.4978 -0.5153
  985MOL0     C32846   1.610   3.352   5.845  1.2015 -0.2988 -0.8607
  985MOL0     C32847   1.701   3.448   5.808  0.4694  0.2412 -0.5422
  985MOL0     O32848   1.824   3.402   5.775  0.0272  0.4608 -0.3151
  985MOL0     C32849   1.924   3.478   5.716 -0.4097  0.4399  0.0507
  985MOL0     C32850   2.067   3.422   5.734  0.3078 -0.6068  0.2703
  985MOL0     C32851   2.088   3.274   5.694  0.3730  0.3485  0.5891
  985MOL0     C32852   2.231   3.232   5.745 -0.0050  0.6271 -0.2611
  985MOL0     C32853   2.243   3.076   5.724 -0.6037  0.8003  1.0039
  985MOL0     C32854   2.380   3.026   5.774  0.6008  0.4616  0.2664
  985MOL0     C32855   2.468   2.972   5.661  0.0766 -0.6285 -0.3807
  985MOL0     C32856   2.511   3.078   5.564 -0.3587 -0.0776  0.7657
  985MOL0     N32857   2.579   3.028   5.442  0.1826  0.1372  0.3277
  985MOL0     C32858   2.513   3.018   5.326  0.9207  0.0383 -0.4665
  985MOL0     C32859   2.575   2.920   5.255  0.4224 -0.2504 -1.0359
  985MOL0     C32860   2.517   2.865   5.131  0.6938  0.0148 -0.2895
  985MOL0     C32861   2.406   2.764   5.179  0.1289 -0.1727  0.0994
  985MOL0     C32862   2.464   2.629   5.232  0.1749  0.2871  0.0510
  985MOL0     C32863   2.363   2.557   5.324 -0.1789  1.2160  0.3659
  985MOL0     O32864   2.338   2.619   5.445  0.1630  0.8565 -0.2417
  985MOL0     C32865   2.222   2.585   5.506  0.2372 -0.1736 -0.4984
  985MOL0     C32866   2.179   2.662   5.614 -0.0850 -0.6988 -0.3725
  985MOL0     C32867   2.075   2.625   5.693  0.1772  1.2104 -0.3620
  985MOL0     C32868   2.037   2.705   5.807 -0.6774 -0.8892 -0.6211
  985MOL0     C32869   1.994   2.508   5.660  0.4178  0.2773 -0.1121
  985MOL0     C32870   1.852   2.474   5.718  0.1575  0.4329 -0.7890
  985MOL0     O32871   1.784   2.379   5.655 -0.3062 -0.1256  0.0426
  985MOL0     C32872   1.675   2.321   5.717 -0.6415  0.6750  0.4931
  985MOL0     C32873   1.691   2.188   5.753  0.3017 -0.2835 -0.0455
  985MOL0     C32874   1.586   2.121   5.823  0.3917 -0.9561 -0.8567
  985MOL0     C32875   1.459   2.184   5.839 -0.0162 -0.4868  0.8538
  985MOL0     O32876   1.367   2.113   5.912 -0.0136  0.5623  0.7793
  985MOL0     C32877   1.243   2.168   5.907 -0.1887 -0.3699 -0.1662
  985MOL0     C32878   1.140   2.085   5.983  0.3685 -0.4408 -0.7502
  985MOL0     C32879   1.126   1.941   5.928  1.0034 -0.4742  0.1329
  985MOL0     C32880   1.048   1.935   5.797 -0.2714 -0.4035 -0.0673
  985MOL0     C32881   1.050   1.787   5.756 -0.5892  0.2866 -0.0216
  985MOL0     C32882   1.029   1.773   5.606  0.2566  0.2655  0.0722
  985MOL0     C32883   1.025   1.622   5.566  0.1497  0.2701 -0.4812
  985MOL0     C32884   1.034   1.616   5.413  0.2167  0.2678 -0.1074
  985MOL0    Cl32885   0.959   1.762   5.328 -0.0749 -0.1398 -0.1473
  985MOL0     C32886   1.445   2.316   5.796 -0.0766  0.3279 -0.4201
  985MOL0     C32887   1.558   2.383   5.741  0.7343  0.4974 -0.4731
  985MOL0     O32888   1.812   2.531   5.823 -0.8658 -0.1561 -0.2990
  985MOL0     C32889   2.033   2.430   5.549  0.0217 -0.3943  0.8134
  985MOL0     C32890   2.140   2.479   5.467 -0.1545  1.3938  0.1744
  985MOL0     N32891   2.686   2.876   5.322 -0.4648  0.2052  0.1673
  985MOL0     N32892   2.682   2.937   5.436  0.0534  0.6944 -0.2308
  985MOL0     C32893   1.661   3.584   5.815 -0.0546  0.5079 -0.1118
  985MOL0     C32894   1.533   3.621   5.854  0.2574 -0.0228 -0.6016
  985MOL0     C32895   1.093   3.657   5.825  0.0860  0.0570  0.1288
  985MOL0     C32896   1.017   3.728   5.728 -1.1272 -0.5522  0.4003
  985MOL0     C32897   0.884   3.732   5.742  0.0478 -0.3917  0.1825
  985MOL0     C32898   0.821   3.679   5.849 -0.8314  0.6226  0.6763
  985MOL0     O32899   0.681   3.677   5.856 -0.5493  0.6903 -0.6129
  985MOL0     C32900   0.603   3.659   5.741  0.8268 -0.1973  0.1636
  985MOL0     C32901   0.485   3.568   5.761 -0.6075 -0.9345 -0.3362
  985MOL0     C32902   0.503   3.422   5.799  0.5117  0.7003  0.1705
  985MOL0     C32903   0.546   3.325   5.695 -0.7199  0.2472  0.0051
  985MOL0     C32904   0.677   3.339   5.632 -0.2648 -0.0148 -0.0941
  985MOL0     C32905   0.790   3.345   5.589 -1.0361  0.0365  0.0961
  985MOL0     C32906   0.896   3.618   5.950 -0.2920  0.1474 -0.7425
  985MOL0     C32907   1.036   3.603   5.942  0.1888  0.1922  0.1113
  985MOL0     H32908   1.416   3.318   5.928 -0.7197  0.9489  0.6440
  985MOL0     H32909   1.626   3.245   5.853  0.1230 -0.3976  0.2540
  985MOL0     H32910   1.900   3.489   5.610  0.4436  4.9439  0.1209
  985MOL0     H32911   1.933   3.578   5.760  1.8632  1.0930 -1.7038
  985MOL0     H32912   2.144   3.489   5.694 -2.7784  2.5776 -0.8917
  985MOL0     H32913   2.087   3.410   5.840 -0.4610 -2.7658  0.2226
  985MOL0     H32914   2.021   3.201   5.741  1.7687 -0.5205  1.2862
  985MOL0     H32915   2.082   3.267   5.585  0.2854  0.2452  0.5991
  985MOL0     H32916   2.307   3.284   5.687  1.3586  0.8336  1.6275
  985MOL0     H32917   2.246   3.262   5.849  0.2459 -2.1988  0.6143
  985MOL0     H32918   2.159   3.021   5.767  0.0075  0.9552  2.4262
  985MOL0     H32919   2.239   3.045   5.619  1.0623  1.3501  0.7528
  985MOL0     H32920   2.439   3.103   5.824  3.0702 -1.6150  0.7759
  985MOL0     H32921   2.363   2.939   5.840 -1.0243 -0.0494 -0.7768
  985MOL0     H32922   2.559   2.930   5.707 -0.1625  0.7038  1.4395
  985MOL0     H32923   2.414   2.893   5.608  0.5585 -0.3568 -1.2993
  985MOL0     H32924   2.581   3.148   5.611  0.3804  0.9333 -1.6555
  985MOL0     H32925   2.429   3.139   5.526 -0.3296 -0.1463  0.5925
  985MOL0     H32926   2.422   3.071   5.299  1.9757  1.6531 -1.0266
  985MOL0     H32927   2.474   2.951   5.079 -0.7299 -0.1091  0.6273
  985MOL0     H32928   2.593   2.816   5.070  1.8445 -0.8041  1.7025
  985MOL0     H32929   2.349   2.728   5.093  1.3028 -0.4843 -0.5776
  985MOL0     H32930   2.334   2.816   5.242  0.0780  3.3130 -2.5188
  985MOL0     H32931   2.558   2.648   5.285  0.1195  0.7768 -0.0203
  985MOL0     H32932   2.496   2.563   5.151 -0.6386 -1.0820  0.8210
  985MOL0     H32933   2.408   2.460   5.349  0.9948  1.3037 -1.2454
  985MOL0     H32934   2.271   2.539   5.269  0.5530 -2.5875  0.1121
  985MOL0     H32935   2.246   2.735   5.659  0.1037 -2.8174  3.1107
  985MOL0     H32936   2.043   2.651   5.901 -2.4626  0.9571  0.6239
  985MOL0     H32937   2.104   2.791   5.809  0.6039 -1.8730  0.8844
  985MOL0     H32938   1.938   2.749   5.798 -0.5925 -0.6772 -0.5092
  985MOL0     H32939   1.786   2.135   5.740 -0.4478 -1.5559 -0.5365
  985MOL0     H32940   1.595   2.022   5.865 -1.4320 -0.6589  0.3757
  985MOL0     H32941   1.247   2.268   5.951  1.2508  0.4825 -2.0987
  985MOL0     H32942   1.210   2.183   5.804 -1.1969  0.1025  0.2131
  985MOL0     H32943   1.170   2.079   6.088 -2.8896  0.4523  0.3404
  985MOL0     H32944   1.047   2.143   5.976  0.7881  0.3267 -0.1057
  985MOL0     H32945   1.070   1.885   6.003  0.9288 -0.3206  0.1936
  985MOL0     H32946   1.224   1.900   5.905  0.4500 -1.1585 -1.1404
  985MOL0     H32947   0.947   1.976   5.796  0.7495  2.2507 -0.8893
  985MOL0     H32948   1.109   1.999   5.733 -0.2064 -2.2474 -1.9710
  985MOL0     H32949   0.969   1.733   5.806  0.0520 -2.1203 -1.4140
  985MOL0     H32950   1.145   1.738   5.781  0.2654  1.2864 -1.1434
  985MOL0     H32951   0.937   1.827   5.578  1.5403  2.3254 -0.4408
  985MOL0     H32952   1.100   1.835   5.551  0.5414  1.3692  1.5986
  985MOL0     H32953   0.927   1.585   5.595  0.9077 -0.4333  1.3311
  985MOL0     H32954   1.101   1.561   5.616 -0.6517 -0.3378  0.0246
  985MOL0     H32955   0.998   1.524   5.366 -1.5649  2.1579 -2.7763
  985MOL0     H32956   1.140   1.621   5.389 -0.0149  0.4887 -1.1429
  985MOL0     H32957   1.356   2.375   5.815 -1.0685 -1.2002 -0.2164
  985MOL0     H32958   1.553   2.488   5.714 -2.5624  0.9078  1.2499
  985MOL0     H32959   1.972   2.352   5.505  1.4283 -0.8700 -0.3671
  985MOL0     H32960   2.158   2.419   5.378 -2.6457  2.4140 -1.1009
  985MOL0     H32961   1.728   3.665   5.787  1.8664 -1.4093 -1.3937
  985MOL0     H32962   1.512   3.727   5.849  0.9960  0.3084  1.8514
  985MOL0     H32963   1.072   3.766   5.642  1.5076 -2.7485  0.9656
  985MOL0     H32964   0.828   3.786   5.666  2.2397  2.0371  0.1799
  985MOL0     H32965   0.554   3.752   5.708 -2.4617 -2.7900 -3.2692
  985MOL0     H32966   0.666   3.619   5.661  0.9451 -0.7532  0.5347
  985MOL0     H32967   0.426   3.565   5.669 -2.5700 -2.1575  0.8917
  985MOL0     H32968   0.430   3.615   5.843  0.1713  0.0661 -0.3716
  985MOL0     H32969   0.408   3.393   5.845 -0.3713 -0.7013 -2.3936
  985MOL0     H32970   0.579   3.413   5.878  0.7655  0.3170 -0.1156
  985MOL0     H32971   0.469   3.327   5.617 -0.9642  1.2374  0.2556
  985MOL0     H32972   0.535   3.224   5.737  1.1964 -0.4003 -0.9392
  985MOL0     H32973   0.888   3.336   5.546 -0.9375  0.4069  0.2423
  985MOL0     H32974   0.851   3.578   6.040  0.6503 -0.8923 -0.7078
  985MOL0     H32975   1.082   3.544   6.020  0.5356  1.5584  0.9822
  986MOL0     O32976  10.334   8.219   6.821  0.3011  0.1210  0.1871
  986MOL0     C32977  10.319   8.105   6.865  0.0684  0.4869 -0.4564
  986MOL0     O32978  10.221   8.053   6.944  0.4949  0.5422  0.1535
  986MOL0     C32979  10.120   8.144   6.981 -0.5437  1.1671 -0.8996
  986MOL0     C32980  10.069   8.149   7.113 -0.3959  0.8934  0.2293
  986MOL0     C32981   9.979   8.243   7.151  0.5240  0.2694 -0.1302
  986MOL0     C32982   9.910   8.315   7.050 -0.6484 -0.6890  0.0409
  986MOL0     O32983   9.812   8.402   7.096 -0.3210  0.7483 -0.2239
  986MOL0     C32984   9.711   8.445   7.004 -0.5520  0.0970  0.2213
  986MOL0     C32985   9.594   8.509   7.075  0.3368  0.4972 -0.2826
  986MOL0     C32986   9.637   8.615   7.173 -0.6409  0.4056 -0.3659
  986MOL0     C32987   9.525   8.706   7.218 -0.0372  0.5190  0.3415
  986MOL0     C32988   9.493   8.677   7.368 -0.1723 -0.0327 -0.2202
  986MOL0     C32989   9.358   8.736   7.408 -0.2480 -0.1150 -0.1929
  986MOL0     C32990   9.333   8.718   7.558 -0.2331 -0.3906  0.0005
  986MOL0     C32991   9.274   8.569   7.586 -0.0079  0.1242 -0.0236
  986MOL0     N32992   9.318   8.551   7.727  0.1024 -0.6776 -0.2663
  986MOL0     C32993   9.441   8.500   7.752  0.0432 -1.0883  0.1999
  986MOL0     C32994   9.440   8.475   7.883  0.0302  0.6477  0.1383
  986MOL0     C32995   9.548   8.394   7.947 -0.6528  0.0940  0.8228
  986MOL0     C32996   9.683   8.485   7.962 -0.8540  0.0696 -0.4277
  986MOL0     C32997   9.813   8.393   7.983  0.3102 -0.3203  0.2286
  986MOL0     C32998   9.937   8.469   7.928 -0.1149  0.5088  0.5796
  986MOL0     O32999   9.975   8.567   8.018 -0.5643  0.1225 -0.5127
  986MOL0     C33000  10.108   8.601   8.034 -0.8370  0.2634 -0.2642
  986MOL0     C33001  10.135   8.685   8.144 -0.2989  0.4000  0.8369
  986MOL0     C33002  10.264   8.735   8.164  0.9525  0.1357  0.1788
  986MOL0     C33003  10.279   8.828   8.289  0.5838  0.0918  0.8086
  986MOL0     C33004  10.378   8.696   8.082 -0.0113 -0.8201 -0.3419
  986MOL0     C33005  10.515   8.736   8.110  0.7028 -0.6624 -0.2611
  986MOL0     O33006  10.595   8.741   8.000 -0.7389 -0.4523  0.4824
  986MOL0     C33007  10.730   8.757   8.019  0.1360 -0.6131  0.1282
  986MOL0     C33008  10.793   8.643   8.068  0.3417 -0.6879  0.8466
  986MOL0     C33009  10.926   8.647   8.094  0.4102  0.6156 -0.3110
  986MOL0     C33010  11.002   8.756   8.042 -0.2183  0.4978  0.1770
  986MOL0     O33011  11.141   8.750   8.035 -0.1054 -0.0559 -0.1641
  986MOL0     C33012  11.204   8.667   7.941 -0.8172  0.5517  0.0735
  986MOL0     C33013  11.345   8.717   7.904  0.4924  0.1944  0.3129
  986MOL0     C33014  11.355   8.850   7.820  0.8170  0.2740  0.4185
  986MOL0     C33015  11.277   8.839   7.688 -0.2199  0.8098  0.1850
  986MOL0     C33016  11.325   8.936   7.576  0.0973  0.3016 -1.2534
  986MOL0     C33017  11.302   9.079   7.623 -0.9315  0.3858  0.0890
  986MOL0     C33018  11.363   9.171   7.518  0.3450 -0.0315 -0.5446
  986MOL0     C33019  11.299   9.311   7.524 -0.0187  0.5087 -0.0512
  986MOL0    Cl33020  11.359   9.397   7.681  0.5303  0.2217  0.0349
  986MOL0     C33021  10.939   8.865   7.980 -0.0934  0.2325 -0.9217
  986MOL0     C33022  10.804   8.859   7.967 -0.8040  0.8308 -0.4831
  986MOL0     O33023  10.545   8.780   8.221 -0.0142 -0.8689  0.7525
  986MOL0     C33024  10.347   8.611   7.977 -0.9847  0.3308 -0.0547
  986MOL0     C33025  10.220   8.562   7.954 -0.5716  0.2168 -0.4773
  986MOL0     N33026   9.318   8.516   7.938  0.6205  0.2336 -0.3283
  986MOL0     N33027   9.250   8.568   7.845  0.4777  0.8770  0.1135
  986MOL0     C33028   9.945   8.293   6.911 -0.0355 -1.4966 -0.3167
  986MOL0     C33029  10.052   8.217   6.881 -0.3060 -0.6241 -0.4919
  986MOL0     C33030  10.441   8.023   6.823  1.1567  0.4523 -0.3379
  986MOL0     C33031  10.449   7.893   6.866  0.1170 -0.2205  0.5002
  986MOL0     C33032  10.555   7.817   6.829 -0.1974  0.3114 -0.0680
  986MOL0     C33033  10.665   7.859   6.756  1.0481 -0.2207  0.5681
  986MOL0     O33034  10.766   7.776   6.713 -0.0611 -0.1550 -0.4446
  986MOL0     C33035  10.786   7.652   6.785 -0.8361 -1.0336  0.2443
  986MOL0     C33036  10.929   7.598   6.786 -0.4625 -0.7043 -0.5455
  986MOL0     C33037  10.946   7.456   6.848  0.6839 -0.5293  0.0228
  986MOL0     C33038  10.942   7.451   6.995  0.2360  0.2639  0.2031
  986MOL0     C33039  11.061   7.520   7.051 -0.0273 -0.9378 -0.4771
  986MOL0     C33040  11.150   7.590   7.092  0.3164  0.2771  0.0013
  986MOL0     C33041  10.660   7.994   6.722 -0.2194 -0.8209 -0.0886
  986MOL0     C33042  10.557   8.074   6.761  0.7066  0.5058 -0.1368
  986MOL0     H33043  10.118   8.093   7.192 -1.0136 -1.7873 -1.1705
  986MOL0     H33044   9.939   8.249   7.251  0.4465 -3.0243  0.1366
  986MOL0     H33045   9.742   8.518   6.928 -1.4220 -0.0667 -0.3091
  986MOL0     H33046   9.679   8.362   6.940 -3.0409  1.2357 -0.1405
  986MOL0     H33047   9.530   8.550   6.996 -2.8060  0.0705  1.8576
  986MOL0     H33048   9.535   8.438   7.134  4.2657 -1.5272  1.5481
  986MOL0     H33049   9.696   8.584   7.261  0.5994  0.0058 -1.3102
  986MOL0     H33050   9.704   8.684   7.120  0.5435 -0.5721 -0.1922
  986MOL0     H33051   9.550   8.812   7.210  0.8080  0.2534 -0.7599
  986MOL0     H33052   9.441   8.695   7.149 -1.1205  1.8666  1.3754
  986MOL0     H33053   9.491   8.568   7.380  3.8227 -0.4716 -1.9998
  986MOL0     H33054   9.569   8.723   7.431 -0.1427 -0.0525 -0.2417
  986MOL0     H33055   9.358   8.844   7.390 -2.2684  1.0165  4.8775
  986MOL0     H33056   9.283   8.682   7.349  1.7987 -4.1836  0.5816
  986MOL0     H33057   9.424   8.737   7.615 -0.1603  0.1323 -0.2896
  986MOL0     H33058   9.257   8.789   7.591 -1.3242 -0.4557 -2.1553
  986MOL0     H33059   9.300   8.486   7.520 -0.5364  0.3224 -0.4975
  986MOL0     H33060   9.167   8.589   7.577  0.3825  1.5805 -2.6228
  986MOL0     H33061   9.517   8.472   7.680  1.6335  1.0871  0.9075
  986MOL0     H33062   9.513   8.343   8.037 -0.9888 -0.8568  0.1654
  986MOL0     H33063   9.575   8.307   7.887  0.4632  0.8365  0.2012
  986MOL0     H33064   9.671   8.546   8.052 -0.4984 -1.0444  0.3958
  986MOL0     H33065   9.696   8.542   7.870 -1.1008 -0.1817 -0.6225
  986MOL0     H33066   9.801   8.300   7.927  2.2024  0.0115 -0.8119
  986MOL0     H33067   9.824   8.361   8.087 -3.2878  3.7034  2.1747
  986MOL0     H33068   9.914   8.525   7.836  0.1691  1.5790  1.1346
  986MOL0     H33069  10.018   8.397   7.911  0.6716  1.6866 -0.9697
  986MOL0     H33070  10.053   8.724   8.203 -1.2617  2.4602 -1.6745
  986MOL0     H33071  10.317   8.925   8.256  1.7680 -0.9931 -1.2368
  986MOL0     H33072  10.188   8.851   8.345  1.0560 -0.3280  1.7580
  986MOL0     H33073  10.348   8.784   8.361  1.1116 -0.1161  0.1868
  986MOL0     H33074  10.751   8.549   8.102  1.5844 -0.9504  1.7627
  986MOL0     H33075  10.970   8.562   8.147 -3.2007 -0.0974  1.8591
  986MOL0     H33076  11.215   8.580   8.006  1.0321 -0.2113 -1.1654
  986MOL0     H33077  11.151   8.640   7.849  2.7322 -1.4389 -1.6391
  986MOL0     H33078  11.401   8.730   7.998  0.4728  1.3134  0.1825
  986MOL0     H33079  11.389   8.643   7.837 -2.1519 -1.9712  0.8126
  986MOL0     H33080  11.463   8.861   7.805  1.0387 -2.2502 -0.4244
  986MOL0     H33081  11.312   8.923   7.889 -0.0096 -0.3001  0.5223
  986MOL0     H33082  11.297   8.738   7.651 -1.9193  0.1446  0.9941
  986MOL0     H33083  11.170   8.859   7.691 -0.0785  2.3920 -2.4307
  986MOL0     H33084  11.268   8.925   7.484  0.0335  2.5870 -1.5328
  986MOL0     H33085  11.431   8.914   7.558  0.1571  0.0949 -0.6831
  986MOL0     H33086  11.193   9.090   7.630 -1.0231  1.9797 -2.6891
  986MOL0     H33087  11.330   9.112   7.724 -2.1902  1.0823  0.2361
  986MOL0     H33088  11.351   9.124   7.420 -0.4012  0.6934 -0.8143
  986MOL0     H33089  11.470   9.184   7.538  0.4133  1.5043 -1.6968
  986MOL0     H33090  11.192   9.293   7.524 -0.1546  1.1951 -1.2810
  986MOL0     H33091  11.331   9.376   7.442  3.4918 -0.2317  0.5677
  986MOL0     H33092  10.994   8.947   7.935  1.2812 -0.6537 -0.9207
  986MOL0     H33093  10.749   8.943   7.926  2.8872  2.3095 -2.8299
  986MOL0     H33094  10.435   8.577   7.924  0.8096  0.5777  2.5556
  986MOL0     H33095  10.206   8.487   7.877 -1.8169  2.6341 -2.7636
  986MOL0     H33096   9.882   8.338   6.835 -0.0848  0.5606  0.8466
  986MOL0     H33097  10.087   8.216   6.778  0.3658 -0.3824 -0.2713
  986MOL0     H33098  10.367   7.842   6.916  1.2241 -3.1129 -0.4795
  986MOL0     H33099  10.538   7.712   6.848 -2.3183  0.3160 -1.5874
  986MOL0     H33100  10.760   7.670   6.890 -0.6716 -0.9233  0.2663
  986MOL0     H33101  10.714   7.580   6.744 -0.2246 -0.7132 -1.4910
  986MOL0     H33102  11.006   7.662   6.830 -2.0342  2.4187 -2.0016
  986MOL0     H33103  10.962   7.590   6.682  0.1395 -0.7094 -0.3586
  986MOL0     H33104  11.036   7.408   6.806 -0.2758 -0.0462 -2.8211
  986MOL0     H33105  10.867   7.388   6.815  1.2110 -0.5226 -1.3068
  986MOL0     H33106  10.948   7.346   7.028 -0.3565  0.5346  1.2177
  986MOL0     H33107  10.848   7.487   7.037 -0.8345 -1.2537 -0.7743
  986MOL0     H33108  11.225   7.661   7.118 -0.7560  3.2447 -4.0443
  986MOL0     H33109  10.743   8.031   6.663 -0.0322 -1.0319  0.0363
  986MOL0     H33110  10.566   8.179   6.735  1.3470  0.0647 -1.7744
  987MOL0     O33111   9.446  10.031   0.888 -0.5630 -0.3468 -0.3862
  987MOL0     C33112   9.566  10.009   0.922  1.0431  0.3718  0.5963
  987MOL0     O33113   9.607   9.954   1.036 -0.3380  0.2683 -0.2000
  987MOL0     C33114   9.537   9.851   1.095  0.4604 -0.3976 -0.1477
  987MOL0     C33115   9.433   9.778   1.029  0.2869  0.8807 -0.4217
  987MOL0     C33116   9.362   9.677   1.094  0.3386  0.1364  0.2233
  987MOL0     C33117   9.399   9.636   1.229  0.7090 -0.0181  0.4832
  987MOL0     O33118   9.320   9.540   1.284  0.0225 -0.0931  0.0903
  987MOL0     C33119   9.347   9.504   1.419 -0.1497 -2.0080  0.9261
  987MOL0     C33120   9.238   9.426   1.477  0.9334  0.3769  0.0845
  987MOL0     C33121   9.261   9.366   1.620 -0.2937 -0.1814  0.1980
  987MOL0     C33122   9.290   9.480   1.715  0.3529 -0.1064  0.1212
  987MOL0     C33123   9.282   9.420   1.862  0.0582 -0.0962 -0.4625
  987MOL0     C33124   9.269   9.535   1.965 -0.5088 -0.5825  0.1896
  987MOL0     C33125   9.304   9.495   2.106 -0.7036 -0.0172 -0.3165
  987MOL0     C33126   9.451   9.477   2.125  0.2920 -0.4031  1.0654
  987MOL0     N33127   9.497   9.430   2.249 -0.2712 -0.2923 -0.1516
  987MOL0     C33128   9.468   9.311   2.304 -0.3216 -0.1257 -0.2405
  987MOL0     C33129   9.545   9.297   2.404  0.1941 -0.9847 -0.2155
  987MOL0     C33130   9.539   9.181   2.503  0.1728  0.3120  0.9222
  987MOL0     C33131   9.395   9.127   2.510  0.1434 -0.5235  0.0766
  987MOL0     C33132   9.367   9.034   2.628 -0.3639 -0.1850 -0.2436
  987MOL0     C33133   9.418   8.892   2.601  0.2939  0.2366 -0.3851
  987MOL0     O33134   9.332   8.832   2.502  0.4526  0.3041  0.0231
  987MOL0     C33135   9.353   8.705   2.449  0.2333 -0.6247  0.5164
  987MOL0     C33136   9.292   8.688   2.327 -0.1552 -0.7384  0.6430
  987MOL0     C33137   9.294   8.571   2.261 -0.1362  0.8618  0.7171
  987MOL0     C33138   9.191   8.549   2.152 -0.8467 -0.4587 -0.7393
  987MOL0     C33139   9.380   8.468   2.303  0.5814 -0.2509  0.7146
  987MOL0     C33140   9.401   8.334   2.236  0.0082  0.0714 -0.7459
  987MOL0     O33141   9.322   8.308   2.130 -0.3251  0.3199 -0.4636
  987MOL0     C33142   9.307   8.184   2.069  0.4439  0.9590 -0.4365
  987MOL0     C33143   9.340   8.173   1.938 -0.6907 -0.8273  0.2430
  987MOL0     C33144   9.331   8.038   1.880 -0.2804  0.0383 -0.8634
  987MOL0     C33145   9.271   7.934   1.958 -0.5197  0.9478  0.4949
  987MOL0     O33146   9.270   7.808   1.901 -0.1449 -0.6408 -0.8949
  987MOL0     C33147   9.351   7.697   1.956 -0.2014  0.2511  0.5305
  987MOL0     C33148   9.371   7.588   1.854 -0.0465  0.2052  0.1238
  987MOL0     C33149   9.457   7.625   1.739 -0.0159 -0.3859  0.3713
  987MOL0     C33150   9.466   7.515   1.639  0.5812 -1.1773 -0.6096
  987MOL0     C33151   9.561   7.536   1.518  0.5909 -0.3528  0.5015
  987MOL0     C33152   9.532   7.651   1.433 -0.0677  0.5737  1.4018
  987MOL0     C33153   9.611   7.662   1.300  0.0012 -0.7900  0.6865
  987MOL0     C33154   9.769   7.681   1.314 -0.6962 -0.1256 -0.0482
  987MOL0    Cl33155   9.845   7.751   1.170  0.3260 -0.2798  0.5161
  987MOL0     C33156   9.235   7.957   2.090  0.0287  0.5103 -0.6806
  987MOL0     C33157   9.253   8.080   2.149  0.1832  0.4880 -0.2559
  987MOL0     O33158   9.489   8.256   2.280 -0.6708  0.2346  0.1483
  987MOL0     C33159   9.455   8.493   2.419 -0.3955 -0.2226 -0.4332
  987MOL0     C33160   9.441   8.611   2.496  0.0247  0.2693 -0.2883
  987MOL0     N33161   9.626   9.404   2.427  0.5158  0.4168  0.0793
  987MOL0     N33162   9.588   9.488   2.333 -0.5353  0.7135  1.0182
  987MOL0     C33163   9.520   9.692   1.279  0.8463 -0.0621 -0.2872
  987MOL0     C33164   9.583   9.809   1.223 -0.4282 -0.8294  0.2177
  987MOL0     C33165   9.675  10.058   0.838  0.5507  0.7828  0.5895
  987MOL0     C33166   9.646  10.107   0.706 -0.5428 -0.0871 -0.1075
  987MOL0     C33167   9.754  10.150   0.623 -0.1462 -0.1796  0.0908
  987MOL0     C33168   9.887  10.151   0.671 -0.3563 -0.3562  0.6348
  987MOL0     O33169   9.980  10.201   0.584  0.5082 -0.3889  0.2039
  987MOL0     C33170  10.108  10.228   0.633 -0.0839 -0.1191 -0.2245
  987MOL0     C33171  10.201  10.104   0.600  0.7119  0.0627 -0.0140
  987MOL0     C33172  10.349  10.159   0.593  0.2313 -0.3071  0.3411
  987MOL0     C33173  10.375  10.258   0.484  0.1698 -0.0463 -0.0163
  987MOL0     C33174  10.512  10.275   0.449 -0.0339 -0.3395 -0.2010
  987MOL0     C33175  10.623  10.290   0.400 -0.1018 -0.0218 -0.7103
  987MOL0     C33176   9.911  10.106   0.803 -0.1776 -1.3433  0.2577
  987MOL0     C33177   9.805  10.057   0.874  0.4480  0.3592 -0.7844
  987MOL0     H33178   9.405   9.792   0.925  1.4371 -1.0940 -1.0637
  987MOL0     H33179   9.276   9.632   1.046 -0.6763  0.8025  1.3606
  987MOL0     H33180   9.441   9.450   1.431 -0.2019 -1.6099  3.7733
  987MOL0     H33181   9.350   9.597   1.477 -0.6917  1.0860 -3.4154
  987MOL0     H33182   9.149   9.490   1.478  0.6955  0.0464  0.5654
  987MOL0     H33183   9.222   9.341   1.410  1.7895  0.0325  0.3127
  987MOL0     H33184   9.172   9.313   1.656 -0.2650 -1.0030 -0.8651
  987MOL0     H33185   9.351   9.303   1.625 -0.7659 -0.8837  0.0273
  987MOL0     H33186   9.393   9.512   1.699  0.2446  1.0609  1.4738
  987MOL0     H33187   9.214   9.558   1.707  1.6678  1.1607 -0.4689
  987MOL0     H33188   9.195   9.356   1.882  0.1338 -0.3255 -0.8528
  987MOL0     H33189   9.368   9.353   1.878  0.7235  0.1067 -2.8391
  987MOL0     H33190   9.338   9.616   1.938 -0.7790 -0.4148 -0.0061
  987MOL0     H33191   9.170   9.581   1.969  0.4003  2.1055 -3.1170
  987MOL0     H33192   9.265   9.576   2.168 -0.0827  0.1019 -0.0825
  987MOL0     H33193   9.247   9.407   2.137 -0.7840  0.2155  0.2035
  987MOL0     H33194   9.495   9.575   2.102  0.5773 -1.1013 -1.6897
  987MOL0     H33195   9.483   9.398   2.057  0.4249 -0.4839  1.2194
  987MOL0     H33196   9.394   9.242   2.264  1.0778 -1.9024  0.1142
  987MOL0     H33197   9.612   9.111   2.462  0.1654  0.9512 -0.2143
  987MOL0     H33198   9.563   9.217   2.604  2.4545  3.2401 -0.5047
  987MOL0     H33199   9.382   9.079   2.413  2.7418  0.7533 -1.0054
  987MOL0     H33200   9.327   9.212   2.522  0.0251 -0.7922  1.5187
  987MOL0     H33201   9.261   9.035   2.652  0.0278  0.3422  1.5838
  987MOL0     H33202   9.415   9.074   2.718  2.5167 -1.4134 -1.1263
  987MOL0     H33203   9.411   8.842   2.698 -1.7232 -0.3391 -0.7864
  987MOL0     H33204   9.519   8.901   2.560  0.5429  0.3951  0.2447
  987MOL0     H33205   9.230   8.770   2.294 -0.1407 -0.1934  1.9220
  987MOL0     H33206   9.119   8.631   2.147  0.3855  0.5711 -2.6781
  987MOL0     H33207   9.245   8.531   2.059  0.5316  1.1972 -0.3066
  987MOL0     H33208   9.140   8.458   2.186 -0.2563  0.5481  3.4665
  987MOL0     H33209   9.360   8.269   1.893 -1.4905  1.4495  4.2669
  987MOL0     H33210   9.360   8.015   1.778  2.3094 -2.0295  0.2460
  987MOL0     H33211   9.451   7.729   1.986 -0.7583  1.5330  1.1158
  987MOL0     H33212   9.302   7.649   2.041  0.3366 -0.5461  0.4096
  987MOL0     H33213   9.415   7.497   1.897 -0.7328 -1.0083 -1.6476
  987MOL0     H33214   9.270   7.575   1.816  0.2721  0.8929 -0.9766
  987MOL0     H33215   9.558   7.651   1.772 -0.2569 -0.9537  1.6416
  987MOL0     H33216   9.426   7.718   1.690  3.3068  2.3016  2.8296
  987MOL0     H33217   9.493   7.429   1.701 -1.2931 -0.1898  1.7520
  987MOL0     H33218   9.366   7.493   1.601  0.4378 -1.0031 -0.3380
  987MOL0     H33219   9.549   7.445   1.458  0.5436 -1.4744  2.1384
  987MOL0     H33220   9.665   7.550   1.549  0.7338  2.8627 -1.0424
  987MOL0     H33221   9.426   7.650   1.407  0.3048 -0.7530 -0.2545
  987MOL0     H33222   9.558   7.743   1.487  1.4842  0.7201  0.4651
  987MOL0     H33223   9.564   7.751   1.256  3.4055  2.4152  2.9547
  987MOL0     H33224   9.586   7.574   1.240  0.5073 -0.6643  0.2880
  987MOL0     H33225   9.819   7.590   1.349  0.3514  0.6169  0.4529
  987MOL0     H33226   9.788   7.746   1.400  0.9405 -3.0195  1.9525
  987MOL0     H33227   9.209   7.872   2.152  2.1905  0.0793 -0.3054
  987MOL0     H33228   9.216   8.117   2.244  0.1917  2.0942 -0.8379
  987MOL0     H33229   9.533   8.432   2.462 -0.0453  1.3407  1.3194
  987MOL0     H33230   9.504   8.634   2.582 -1.5180  0.2157  0.9029
  987MOL0     H33231   9.560   9.654   1.372  3.7004 -2.3436 -2.2582
  987MOL0     H33232   9.677   9.848   1.259  0.7109 -2.6353 -0.6661
  987MOL0     H33233   9.549  10.092   0.660 -0.5173 -0.2352 -0.1125
  987MOL0     H33234   9.732  10.182   0.522  1.4185  3.6313  0.7907
  987MOL0     H33235  10.142  10.310   0.569 -5.0248  0.0315 -3.1951
  987MOL0     H33236  10.109  10.253   0.740 -1.4157  0.2485 -0.2726
  987MOL0     H33237  10.176  10.055   0.505  0.9936 -0.5904  0.2470
  987MOL0     H33238  10.182  10.036   0.684 -1.8619  0.3594 -0.2612
  987MOL0     H33239  10.412  10.072   0.574  0.1580 -0.0344 -1.3241
  987MOL0     H33240  10.374  10.197   0.693 -0.6588 -0.4373  0.6261
  987MOL0     H33241  10.327  10.354   0.505 -1.3436 -0.9458  0.8337
  987MOL0     H33242  10.325  10.222   0.393  0.4146  0.1987 -0.2506
  987MOL0     H33243  10.717  10.319   0.357  0.9364  0.7605  1.9033
  987MOL0     H33244  10.007  10.091   0.851 -0.2144 -1.4604  0.2939
  987MOL0     H33245   9.825  10.032   0.978 -0.9584  3.2523  0.2825
  988MOL0     O33246   8.193   5.989   6.216  0.0171 -0.4984 -0.4887
  988MOL0     C33247   8.124   6.015   6.313 -0.1767 -0.5218 -0.2884
  988MOL0     O33248   7.994   5.963   6.334 -0.9502  0.2606 -0.7941
  988MOL0     C33249   7.930   5.899   6.228  0.3536  0.7705 -0.7691
  988MOL0     C33250   7.991   5.800   6.140  0.5412 -0.3602  0.4671
  988MOL0     C33251   7.906   5.735   6.054  0.2079  1.1849 -0.0426
  988MOL0     C33252   7.768   5.747   6.061  0.4119 -0.4250 -0.0083
  988MOL0     O33253   7.685   5.678   5.985 -0.0390 -0.3357 -0.3546
  988MOL0     C33254   7.662   5.547   6.025  1.1501  0.2234 -0.5637
  988MOL0     C33255   7.688   5.459   5.902 -0.1223  0.4751 -0.8142
  988MOL0     C33256   7.567   5.433   5.817 -0.9902 -0.2388 -0.3161
  988MOL0     C33257   7.498   5.550   5.744 -0.6189  0.0514  0.1163
  988MOL0     C33258   7.387   5.491   5.664  0.5001 -0.1508 -1.0005
  988MOL0     C33259   7.289   5.600   5.629  1.7997  0.3819  1.4026
  988MOL0     C33260   7.179   5.549   5.542 -0.2615  0.3826  0.3688
  988MOL0     C33261   7.098   5.665   5.489 -1.0541 -0.5573  0.5547
  988MOL0     N33262   7.005   5.708   5.596  0.2205 -0.4403  0.0219
  988MOL0     C33263   6.877   5.651   5.619  0.1688 -0.0810  0.6043
  988MOL0     C33264   6.834   5.720   5.726  0.1546  0.9869 -1.1737
  988MOL0     C33265   6.700   5.703   5.803  0.2851  0.4187 -0.3511
  988MOL0     C33266   6.703   5.580   5.899 -0.0054 -0.8054 -0.8180
  988MOL0     C33267   6.711   5.445   5.833  0.0787 -0.2261 -0.1004
  988MOL0     C33268   6.663   5.332   5.927  0.3982  0.0165 -0.7271
  988MOL0     O33269   6.521   5.354   5.964  0.1625 -0.3772  0.9126
  988MOL0     C33270   6.449   5.247   6.006  0.5709  0.5652 -0.1296
  988MOL0     C33271   6.311   5.252   5.994  0.3849  0.6313 -0.0319
  988MOL0     C33272   6.219   5.144   6.026 -0.0766  0.1258 -0.3195
  988MOL0     C33273   6.071   5.175   6.016 -0.4305 -0.5082 -0.0139
  988MOL0     C33274   6.274   5.029   6.075  0.6939 -0.1081  0.2293
  988MOL0     C33275   6.191   4.905   6.112 -0.1755 -0.3494  0.3868
  988MOL0     O33276   6.255   4.777   6.118 -0.0176 -0.2294  0.7702
  988MOL0     C33277   6.197   4.664   6.164  0.4454  0.4464  0.1505
  988MOL0     C33278   6.238   4.610   6.285 -0.6501 -0.9575  0.3934
  988MOL0     C33279   6.175   4.489   6.335 -0.9814  0.3167 -0.2340
  988MOL0     C33280   6.075   4.432   6.262  0.2936  0.7257 -0.2048
  988MOL0     O33281   6.028   4.322   6.317  0.4916 -0.4677  0.1500
  988MOL0     C33282   6.028   4.205   6.230 -0.2719 -0.2505 -0.1581
  988MOL0     C33283   5.987   4.072   6.302 -0.4050  0.5671 -0.1700
  988MOL0     C33284   6.035   3.948   6.216  0.2585  0.1071 -0.4358
  988MOL0     C33285   5.978   3.816   6.291 -0.0043 -0.1399  0.1510
  988MOL0     C33286   5.982   3.692   6.209  1.0246 -0.3787  0.5505
  988MOL0     C33287   5.863   3.686   6.108  0.2796  0.0898 -0.3478
  988MOL0     C33288   5.865   3.551   6.043  0.4117  0.2668  0.2215
  988MOL0     C33289   5.816   3.438   6.131 -0.3340  0.1236  0.8998
  988MOL0    Cl33290   5.657   3.483   6.217 -0.2696 -0.4204 -0.1165
  988MOL0     C33291   6.019   4.498   6.154  0.1902 -0.3891 -0.5316
  988MOL0     C33292   6.087   4.609   6.100  0.5982 -0.0859 -0.7162
  988MOL0     O33293   6.071   4.915   6.134 -0.3589  0.3861 -0.2406
  988MOL0     C33294   6.408   5.028   6.092 -0.8768  0.5006  1.0785
  988MOL0     C33295   6.493   5.131   6.061  0.2573 -0.1767  0.4301
  988MOL0     N33296   6.922   5.827   5.750  0.3800 -0.4329 -0.9032
  988MOL0     N33297   7.020   5.820   5.675  0.4310  0.5260 -0.2231
  988MOL0     C33298   7.710   5.834   6.148  0.0146  0.4058  0.5756
  988MOL0     C33299   7.788   5.916   6.227 -0.0291  0.1648  0.7204
  988MOL0     C33300   8.167   6.105   6.424  0.0571 -0.9704  0.6987
  988MOL0     C33301   8.302   6.119   6.454 -0.0327 -0.0696  0.4371
  988MOL0     C33302   8.344   6.184   6.569 -0.6239 -0.8927 -0.1183
  988MOL0     C33303   8.251   6.247   6.653 -0.5756 -0.3521 -0.5586
  988MOL0     O33304   8.273   6.312   6.772 -0.0708 -0.2703  0.0746
  988MOL0     C33305   8.408   6.343   6.800 -0.3923 -0.1640 -0.2095
  988MOL0     C33306   8.410   6.459   6.911 -0.2804  0.0443 -0.3683
  988MOL0     C33307   8.540   6.494   6.977  0.0639  0.4266 -0.0600
  988MOL0     C33308   8.564   6.394   7.088 -0.3062  0.6881  0.5642
  988MOL0     C33309   8.692   6.418   7.156 -0.2074 -0.4571  0.6189
  988MOL0     C33310   8.800   6.464   7.191  0.0629  0.3315 -0.3873
  988MOL0     C33311   8.113   6.222   6.628 -0.2165 -0.4041 -0.1436
  988MOL0     C33312   8.064   6.162   6.505  0.4156  0.6047 -1.1676
  988MOL0     H33313   8.098   5.780   6.138  1.1494  1.9767  2.9086
  988MOL0     H33314   7.946   5.660   5.986 -2.9255 -1.2224  0.5388
  988MOL0     H33315   7.727   5.521   6.109  1.7230  2.7887 -0.1544
  988MOL0     H33316   7.560   5.543   6.066  1.9607  2.3250  1.8967
  988MOL0     H33317   7.766   5.516   5.852 -1.0507  2.6490  0.0841
  988MOL0     H33318   7.718   5.358   5.933 -1.0508  0.5702  0.4940
  988MOL0     H33319   7.588   5.355   5.743  0.6987 -0.1914  0.0830
  988MOL0     H33320   7.480   5.397   5.874 -2.0762  2.1721 -0.3604
  988MOL0     H33321   7.454   5.621   5.815 -0.4842  1.3845 -1.0940
  988MOL0     H33322   7.565   5.609   5.681  0.3564  1.4284  2.3026
  988MOL0     H33323   7.421   5.435   5.577 -0.5709 -0.3731 -1.2923
  988MOL0     H33324   7.329   5.421   5.724  0.5156 -1.8326 -2.8725
  988MOL0     H33325   7.259   5.662   5.714  1.6426  1.7328  0.3991
  988MOL0     H33326   7.342   5.677   5.572 -0.5766  2.1251  1.4119
  988MOL0     H33327   7.229   5.503   5.457 -0.5998 -2.4696  1.5891
  988MOL0     H33328   7.118   5.473   5.593  1.8119 -0.7559  1.2724
  988MOL0     H33329   7.040   5.634   5.401  1.3966 -1.8292 -0.7002
  988MOL0     H33330   7.159   5.748   5.450 -2.4234  0.1018 -0.2645
  988MOL0     H33331   6.835   5.565   5.569  2.7798 -3.1112  3.1740
  988MOL0     H33332   6.678   5.796   5.855  1.5439  1.1898 -1.1440
  988MOL0     H33333   6.612   5.689   5.739 -0.9194 -0.7810  1.4905
  988MOL0     H33334   6.620   5.589   5.969  0.5512  3.6367 -0.3850
  988MOL0     H33335   6.795   5.586   5.958 -0.3003  0.7155 -0.4572
  988MOL0     H33336   6.818   5.427   5.819  0.6883  2.0250  1.2038
  988MOL0     H33337   6.660   5.442   5.736 -2.3099 -1.6689  1.1080
  988MOL0     H33338   6.730   5.331   6.013  2.4845  0.7814 -2.2376
  988MOL0     H33339   6.682   5.241   5.870  3.1011 -0.3945  0.7038
  988MOL0     H33340   6.283   5.347   5.949  2.7937  1.8163  0.8180
  988MOL0     H33341   6.043   5.273   5.976 -2.4583 -0.4316  1.4135
  988MOL0     H33342   6.029   5.102   5.946  0.5289 -1.6551  0.5831
  988MOL0     H33343   6.028   5.175   6.117  2.3668 -1.4578  1.2594
  988MOL0     H33344   6.319   4.667   6.330 -1.1558 -0.6866  0.9906
  988MOL0     H33345   6.220   4.436   6.418 -0.6838 -1.3485 -1.4227
  988MOL0     H33346   5.961   4.204   6.144  0.6976 -1.2967 -0.9287
  988MOL0     H33347   6.131   4.188   6.199  0.2129 -2.7195  2.3678
  988MOL0     H33348   6.033   4.065   6.401 -3.2435 -1.1885  1.1339
  988MOL0     H33349   5.881   4.081   6.325 -1.0897 -1.8133 -2.0632
  988MOL0     H33350   6.144   3.948   6.215  0.2612  0.3512 -1.2217
  988MOL0     H33351   6.004   3.960   6.111 -2.7082 -0.1672  0.3097
  988MOL0     H33352   6.041   3.804   6.380 -0.2065  1.1668  0.4858
  988MOL0     H33353   5.873   3.824   6.321  0.1387 -0.4391  0.7406
  988MOL0     H33354   5.967   3.607   6.276 -1.5934  0.3422  1.0107
  988MOL0     H33355   6.074   3.683   6.151  1.9810 -0.9232  2.0931
  988MOL0     H33356   5.768   3.700   6.161  0.3966  3.0930 -0.7355
  988MOL0     H33357   5.875   3.766   6.034  2.5900 -0.9916 -1.2035
  988MOL0     H33358   5.960   3.522   5.997 -0.4928 -2.5191 -0.0931
  988MOL0     H33359   5.792   3.551   5.961 -2.1230 -0.9076  2.3121
  988MOL0     H33360   5.890   3.415   6.208  0.7875 -1.5801 -0.6185
  988MOL0     H33361   5.789   3.356   6.065 -0.8847 -0.3538  1.7079
  988MOL0     H33362   5.933   4.453   6.106  0.3067 -0.9849 -0.1866
  988MOL0     H33363   6.054   4.663   6.012 -1.2731  2.3878  1.3495
  988MOL0     H33364   6.468   4.948   6.135  0.0949  0.1190 -0.9090
  988MOL0     H33365   6.598   5.113   6.083  0.4900  1.5392  0.8896
  988MOL0     H33366   7.603   5.843   6.162 -0.6281 -4.2208  0.3443
  988MOL0     H33367   7.745   5.999   6.283  1.6164  1.2497  0.4404
  988MOL0     H33368   8.371   6.074   6.383 -0.7705 -0.4392 -0.0535
  988MOL0     H33369   8.448   6.191   6.598 -1.2065 -0.8208  2.1089
  988MOL0     H33370   8.447   6.250   6.845 -1.1208  0.2612  1.3525
  988MOL0     H33371   8.471   6.377   6.717 -1.8214 -0.8269 -1.6070
  988MOL0     H33372   8.336   6.436   6.989 -0.2567  0.5249 -0.2019
  988MOL0     H33373   8.381   6.549   6.855  0.4710  1.3936  1.3295
  988MOL0     H33374   8.533   6.592   7.026 -1.0581  1.1305 -1.5570
  988MOL0     H33375   8.625   6.508   6.909  1.1690 -0.3552  1.1192
  988MOL0     H33376   8.563   6.303   7.028 -1.4340  0.2275  1.2589
  988MOL0     H33377   8.484   6.388   7.161  1.6563 -0.3477  2.7640
  988MOL0     H33378   8.888   6.517   7.220  3.8912 -4.2810 -2.3673
  988MOL0     H33379   8.034   6.265   6.690  0.4670 -0.7521  0.9983
  988MOL0     H33380   7.960   6.139   6.482  0.4657 -1.6230  0.4326
  989MOL0     O33381   1.449   6.434   0.507  0.4676  0.3354 -0.3478
  989MOL0     C33382   1.491   6.539   0.564  0.1982  0.3678 -0.0845
  989MOL0     O33383   1.417   6.625   0.630  0.9171  0.4281 -0.3570
  989MOL0     C33384   1.289   6.624   0.600 -0.7132 -0.2952  0.0236
  989MOL0     C33385   1.242   6.684   0.484  0.0491  0.6896 -0.0927
  989MOL0     C33386   1.105   6.693   0.453  0.5018  0.2390  0.0230
  989MOL0     C33387   1.017   6.619   0.538 -0.5405  0.2729 -0.8363
  989MOL0     O33388   0.883   6.619   0.514 -0.2813 -0.4060  0.3581
  989MOL0     C33389   0.782   6.553   0.609 -0.1931 -0.3505  0.1967
  989MOL0     C33390   0.653   6.553   0.540  0.4507 -0.0808  0.3255
  989MOL0     C33391   0.657   6.468   0.415  0.1865 -0.4935 -0.3424
  989MOL0     C33392   0.588   6.523   0.288 -0.7254  0.0890  0.0789
  989MOL0     C33393   0.579   6.404   0.187 -0.6931  0.6384  0.6222
  989MOL0     C33394   0.507   6.439   0.060  0.6895  0.1216  0.5339
  989MOL0     C33395   0.478   6.316  -0.033  0.6738 -0.2798 -0.3115
  989MOL0     C33396   0.589   6.286  -0.128  0.7132 -0.1296 -0.8189
  989MOL0     N33397   0.583   6.147  -0.175  0.3340 -0.1972  0.3737
  989MOL0     C33398   0.533   6.107  -0.291  0.0026 -0.3818  0.3155
  989MOL0     C33399   0.531   5.974  -0.289 -0.4508  0.7602 -0.0261
  989MOL0     C33400   0.484   5.881  -0.394  0.1629 -0.1012 -0.5592
  989MOL0     C33401   0.336   5.845  -0.365 -0.2084  0.4701 -0.1708
  989MOL0     C33402   0.306   5.757  -0.240 -0.5000  0.4112 -0.4621
  989MOL0     C33403   0.166   5.783  -0.200 -0.2973  0.7655  0.9857
  989MOL0     O33404   0.121   5.679  -0.113  0.0750  0.7651 -0.0670
  989MOL0     C33405   0.021   5.594  -0.157  0.6339 -0.6263  0.2788
  989MOL0     C33406   0.005   5.555  -0.291  0.0148  0.3248 -0.5621
  989MOL0     C33407  -0.102   5.471  -0.325 -0.2163  0.7910  0.7640
  989MOL0     C33408  -0.113   5.446  -0.474  0.0548  0.1224  0.1331
  989MOL0     C33409  -0.195   5.418  -0.233 -0.0661 -0.1824 -0.4880
  989MOL0     C33410  -0.309   5.324  -0.266 -1.2408 -0.2119 -0.5937
  989MOL0     O33411  -0.362   5.331  -0.393 -0.3628  0.0528 -0.8127
  989MOL0     C33412  -0.487   5.278  -0.412 -0.2678 -0.2224  0.1850
  989MOL0     C33413  -0.585   5.349  -0.477  0.5530 -1.3585 -0.2990
  989MOL0     C33414  -0.711   5.301  -0.523 -0.2501 -0.5074  0.3311
  989MOL0     C33415  -0.747   5.166  -0.497  0.4782 -0.3599  1.1067
  989MOL0     O33416  -0.863   5.105  -0.545  0.1156  0.2306  0.1180
  989MOL0     C33417  -0.911   4.985  -0.481 -0.4475 -0.0776  0.0675
  989MOL0     C33418  -1.063   4.971  -0.505  0.3692  0.5610  0.6386
  989MOL0     C33419  -1.103   4.929  -0.645  0.2393  0.1672  0.5340
  989MOL0     C33420  -1.124   4.779  -0.646  0.4387  0.0336  0.3811
  989MOL0     C33421  -1.177   4.708  -0.777  0.1070  0.1940  0.6791
  989MOL0     C33422  -1.212   4.563  -0.751  0.7120  0.1777  0.0769
  989MOL0     C33423  -1.336   4.545  -0.679 -0.0187 -0.2187 -0.6136
  989MOL0     C33424  -1.388   4.403  -0.704  0.0291  0.8568  0.0053
  989MOL0    Cl33425  -1.268   4.281  -0.644 -0.1071 -0.2464  0.5498
  989MOL0     C33426  -0.642   5.083  -0.433  0.2617 -0.0108 -0.0569
  989MOL0     C33427  -0.519   5.145  -0.401 -0.4864  0.7023  0.1446
  989MOL0     O33428  -0.352   5.268  -0.163  0.4558 -0.0344  0.3252
  989MOL0     C33429  -0.167   5.456  -0.099  0.0090 -0.1450  0.4520
  989MOL0     C33430  -0.074   5.551  -0.064  1.0548  0.4101  0.0942
  989MOL0     N33431   0.586   5.946  -0.156  0.2977  0.0484  0.6130
  989MOL0     N33432   0.614   6.048  -0.093 -1.1765  0.4253 -1.2170
  989MOL0     C33433   1.066   6.559   0.659  0.1044  0.1182 -0.3180
  989MOL0     C33434   1.202   6.566   0.689  0.5508  0.0104 -0.8542
  989MOL0     C33435   1.642   6.557   0.574  0.0285 -0.3412 -0.0789
  989MOL0     C33436   1.699   6.644   0.666  0.5002  0.5891 -0.0906
  989MOL0     C33437   1.841   6.643   0.674 -0.6848 -0.9952  0.3562
  989MOL0     C33438   1.927   6.561   0.593 -0.7358  0.0910 -0.0291
  989MOL0     O33439   2.065   6.568   0.600  0.8241  0.2936 -0.1109
  989MOL0     C33440   2.148   6.466   0.549 -0.6811 -0.1950 -0.0150
  989MOL0     C33441   2.277   6.478   0.629  0.0955 -0.1802  0.4006
  989MOL0     C33442   2.322   6.624   0.629  0.0259  0.3366 -0.1150
  989MOL0     C33443   2.461   6.623   0.690  0.6399  0.3722  0.2033
  989MOL0     C33444   2.572   6.578   0.599  1.2917  0.8146  0.1358
  989MOL0     C33445   2.668   6.556   0.527  0.6023 -0.9312 -0.1512
  989MOL0     C33446   1.862   6.482   0.495  0.1025  0.1703 -0.6895
  989MOL0     C33447   1.725   6.478   0.489  0.5262  0.4997 -0.0852
  989MOL0     H33448   1.304   6.715   0.400 -0.1959  2.4453  0.3261
  989MOL0     H33449   1.075   6.740   0.359  0.6901  0.2398 -0.0367
  989MOL0     H33450   0.816   6.452   0.635  1.9607 -0.1209 -1.4678
  989MOL0     H33451   0.768   6.610   0.702 -1.1535  2.0338 -1.3260
  989MOL0     H33452   0.571   6.515   0.601 -0.0072  0.4490  0.0517
  989MOL0     H33453   0.626   6.658   0.523 -0.2281 -0.3837 -0.5421
  989MOL0     H33454   0.761   6.441   0.392  0.2371 -0.2751 -0.3787
  989MOL0     H33455   0.609   6.375   0.446  1.0805 -0.7775  0.2586
  989MOL0     H33456   0.496   6.576   0.315 -1.1435 -0.1104 -0.8996
  989MOL0     H33457   0.648   6.602   0.241 -0.8933  1.0117  1.3623
  989MOL0     H33458   0.681   6.365   0.172 -0.7385  0.0900  1.6353
  989MOL0     H33459   0.532   6.321   0.240  2.0420 -0.5343  1.3820
  989MOL0     H33460   0.412   6.488   0.084 -0.0821  0.3407 -2.4766
  989MOL0     H33461   0.566   6.513   0.006  0.4675 -0.3736 -0.4254
  989MOL0     H33462   0.460   6.232   0.035 -6.4118  1.7170  1.1448
  989MOL0     H33463   0.384   6.324  -0.088  0.7525 -2.0447 -0.7515
  989MOL0     H33464   0.687   6.310  -0.086  0.4171  1.1909 -0.8411
  989MOL0     H33465   0.585   6.358  -0.210  0.5040 -0.7895 -1.3932
  989MOL0     H33466   0.511   6.167  -0.379 -0.4877  0.6802  1.1430
  989MOL0     H33467   0.491   5.925  -0.494  0.2590 -2.0918 -1.4860
  989MOL0     H33468   0.551   5.795  -0.402  0.6804  0.4290 -2.8614
  989MOL0     H33469   0.287   5.787  -0.443 -0.7265 -2.1041  1.9565
  989MOL0     H33470   0.282   5.940  -0.366  1.1383  1.3091 -2.3594
  989MOL0     H33471   0.374   5.785  -0.159 -0.1702 -2.7217  0.4594
  989MOL0     H33472   0.331   5.654  -0.267  2.6315  1.0855 -0.5052
  989MOL0     H33473   0.102   5.808  -0.285 -0.9863  3.3034  2.1683
  989MOL0     H33474   0.172   5.878  -0.147 -0.6623  1.6032 -0.4239
  989MOL0     H33475   0.073   5.603  -0.361  0.3307  2.4855  1.1087
  989MOL0     H33476  -0.016   5.472  -0.519  0.9796 -0.0940  1.8895
  989MOL0     H33477  -0.136   5.340  -0.487  3.6347 -0.8200  0.4025
  989MOL0     H33478  -0.191   5.505  -0.522 -0.5112 -1.0666 -0.4292
  989MOL0     H33479  -0.548   5.450  -0.496  1.2568 -1.3127  1.2167
  989MOL0     H33480  -0.779   5.360  -0.584  2.1823 -0.6384 -2.7789
  989MOL0     H33481  -0.849   4.904  -0.520  2.5268  1.6814  0.8486
  989MOL0     H33482  -0.902   4.983  -0.372  0.0853 -2.4532  0.0238
  989MOL0     H33483  -1.106   4.900  -0.434  1.3512  0.8031  1.5016
  989MOL0     H33484  -1.100   5.073  -0.488 -1.9256  0.1223 -1.1785
  989MOL0     H33485  -1.032   4.957  -0.723 -1.5239  0.7348 -0.9420
  989MOL0     H33486  -1.204   4.966  -0.665 -0.4688 -0.7479  2.2093
  989MOL0     H33487  -1.033   4.731  -0.610  1.8398  2.4624  0.2357
  989MOL0     H33488  -1.196   4.751  -0.569 -3.5415  2.5833 -2.0108
  989MOL0     H33489  -1.086   4.692  -0.835  0.4309  2.1395  0.5994
  989MOL0     H33490  -1.260   4.766  -0.818 -0.6925 -1.2414  0.2098
  989MOL0     H33491  -1.221   4.508  -0.845 -0.8671 -0.6461  0.6859
  989MOL0     H33492  -1.131   4.515  -0.695  0.8603  0.9288  0.5170
  989MOL0     H33493  -1.412   4.619  -0.708 -0.2425 -0.3880 -0.4678
  989MOL0     H33494  -1.327   4.550  -0.570  2.2225  1.2493 -0.8085
  989MOL0     H33495  -1.400   4.398  -0.813 -1.3079  2.5019  0.0431
  989MOL0     H33496  -1.485   4.390  -0.656 -0.3528 -2.6546 -1.3504
  989MOL0     H33497  -0.651   4.976  -0.423  1.3172 -0.0267  0.8174
  989MOL0     H33498  -0.445   5.090  -0.344 -0.9981 -0.0701  0.0655
  989MOL0     H33499  -0.239   5.426  -0.023 -1.0388 -0.5661 -0.6638
  989MOL0     H33500  -0.063   5.588   0.038  0.0382  2.3236 -0.4425
  989MOL0     H33501   0.995   6.517   0.730  0.0664 -0.7735 -0.8604
  989MOL0     H33502   1.248   6.520   0.776 -1.8371  0.0359  0.5087
  989MOL0     H33503   1.637   6.689   0.742  2.3974 -1.8734  3.1681
  989MOL0     H33504   1.885   6.712   0.746 -2.4542 -0.0353  0.5786
  989MOL0     H33505   2.103   6.369   0.571 -0.9583 -0.8371 -3.0235
  989MOL0     H33506   2.158   6.455   0.441 -0.5411 -3.4608  0.2194
  989MOL0     H33507   2.354   6.422   0.574  0.9115  1.2548  0.0384
  989MOL0     H33508   2.259   6.445   0.732 -0.8034 -3.2683 -0.6044
  989MOL0     H33509   2.257   6.693   0.683  0.3367  2.0561 -1.8293
  989MOL0     H33510   2.331   6.673   0.532  4.8790  0.1203 -0.0548
  989MOL0     H33511   2.454   6.571   0.786  0.4151  1.3215  0.7127
  989MOL0     H33512   2.480   6.729   0.709 -2.5431  0.9692  0.6959
  989MOL0     H33513   2.754   6.521   0.473  0.7407 -1.1399  0.2047
  989MOL0     H33514   1.910   6.418   0.422  0.2031 -0.3728 -0.1533
  989MOL0     H33515   1.669   6.414   0.422 -2.5766  1.7130  1.1928
  990MOL0     O33516   1.207   4.347  11.300  0.4134 -0.0753  0.2796
  990MOL0     C33517   1.239   4.363  11.417 -0.8331  0.1787 -0.1663
  990MOL0     O33518   1.162   4.338  11.532  0.2119  0.8400 -0.1574
  990MOL0     C33519   1.029   4.304  11.524 -0.1062 -0.1186 -0.2423
  990MOL0     C33520   0.925   4.384  11.573 -0.0866 -0.3282 -0.1964
  990MOL0     C33521   0.794   4.343  11.575  0.2020  0.0335 -0.4240
  990MOL0     C33522   0.758   4.225  11.521 -0.7085  0.5555  1.0885
  990MOL0     O33523   0.624   4.209  11.498 -0.7253  0.2231  0.0369
  990MOL0     C33524   0.568   4.086  11.470 -0.4865  0.2300  0.7787
  990MOL0     C33525   0.418   4.075  11.516 -0.7539 -0.7443  0.4072
  990MOL0     C33526   0.340   4.181  11.437 -0.3664 -0.0937  0.6314
  990MOL0     C33527   0.209   4.218  11.493 -0.1144  0.7830 -0.5817
  990MOL0     C33528   0.142   4.330  11.407 -0.1801 -0.0750  0.0967
  990MOL0     C33529   0.028   4.413  11.473 -0.0817 -0.2693 -0.2436
  990MOL0     C33530  -0.089   4.329  11.515 -0.8280  0.4179  1.0576
  990MOL0     C33531  -0.165   4.404  11.621 -0.4998  0.1075 -0.1892
  990MOL0     N33532  -0.226   4.305  11.709  0.2394 -0.4262 -0.2193
  990MOL0     C33533  -0.327   4.215  11.679 -0.8146  0.1027  0.3427
  990MOL0     C33534  -0.326   4.142  11.792  0.4183  0.6260 -0.1432
  990MOL0     C33535  -0.430   4.035  11.820  0.0731 -0.6900 -0.0818
  990MOL0     C33536  -0.567   4.092  11.803 -0.1740  0.7467 -0.0012
  990MOL0     C33537  -0.664   3.982  11.831  0.3646  0.2188 -0.1332
  990MOL0     C33538  -0.798   4.038  11.863  0.5434 -0.0797 -0.9030
  990MOL0     O33539  -0.894   3.928  11.863  0.0036 -0.8612  0.0496
  990MOL0     C33540  -1.022   3.963  11.823 -0.2998  0.1945  0.2678
  990MOL0     C33541  -1.070   4.098  11.788  0.1417  1.0742  0.3565
  990MOL0     C33542  -1.205   4.124  11.747  0.5831  0.2843 -0.4013
  990MOL0     C33543  -1.239   4.264  11.716  0.1265  0.2649 -1.2598
  990MOL0     C33544  -1.297   4.013  11.749 -1.0476  0.0967  0.7582
  990MOL0     C33545  -1.440   4.028  11.721  0.0976 -0.4890  0.5890
  990MOL0     O33546  -1.527   3.916  11.738 -0.2734 -0.9389 -0.8405
  990MOL0     C33547  -1.662   3.914  11.689  0.0326  0.7154  0.8465
  990MOL0     C33548  -1.699   3.988  11.579 -0.0136  0.2346  0.0393
  990MOL0     C33549  -1.827   3.955  11.531  0.2327 -0.2221 -0.2136
  990MOL0     C33550  -1.915   3.881  11.606 -0.2020 -0.6266 -0.3756
  990MOL0     O33551  -2.049   3.895  11.563  0.1257 -0.6075  0.2762
  990MOL0     C33552  -2.153   3.874  11.663  0.6207 -0.5875 -0.1038
  990MOL0     C33553  -2.292   3.891  11.594 -0.0155 -0.1287  0.5166
  990MOL0     C33554  -2.322   4.027  11.534 -0.1926  0.3225  0.2419
  990MOL0     C33555  -2.344   4.136  11.639 -0.3123  0.1681  0.8260
  990MOL0     C33556  -2.398   4.264  11.578 -0.0497  0.1063 -0.4239
  990MOL0     C33557  -2.398   4.385  11.683 -0.0305  0.1672 -0.2445
  990MOL0     C33558  -2.451   4.511  11.638  0.2751 -0.5404  0.2096
  990MOL0     C33559  -2.414   4.627  11.730  0.9996 -0.0869 -0.2654
  990MOL0    Cl33560  -2.501   4.619  11.893 -0.2705  0.3068  0.1761
  990MOL0     C33561  -1.865   3.807  11.713  0.8108  0.6715 -0.2265
  990MOL0     C33562  -1.738   3.819  11.751  0.5719 -0.1874  0.2672
  990MOL0     O33563  -1.485   4.136  11.680  0.9764  0.0317  0.4315
  990MOL0     C33564  -1.243   3.879  11.771  0.0123 -0.1233 -0.2491
  990MOL0     C33565  -1.116   3.862  11.812  0.4364 -0.6826  0.3953
  990MOL0     N33566  -0.235   4.188  11.885 -0.5682  0.9804  0.2788
  990MOL0     N33567  -0.171   4.282  11.832  0.2620 -0.0453 -0.3384
  990MOL0     C33568   0.861   4.136  11.468 -0.1058 -0.4575  0.0500
  990MOL0     C33569   0.991   4.179  11.471 -0.7348 -0.4494  0.1400
  990MOL0     C33570   1.386   4.375  11.447 -0.1961 -0.4864 -1.1952
  990MOL0     C33571   1.433   4.426  11.574  0.4099 -0.0034 -0.0821
  990MOL0     C33572   1.567   4.420  11.596 -0.4335  0.0601 -0.1826
  990MOL0     C33573   1.663   4.385  11.503  1.2410  1.0362  0.3866
  990MOL0     O33574   1.799   4.371  11.534 -0.2055  0.0373  0.4520
  990MOL0     C33575   1.860   4.405  11.660 -0.4350 -0.3452 -0.4235
  990MOL0     C33576   1.897   4.553  11.644  0.1631  0.0232 -0.1993
  990MOL0     C33577   1.983   4.588  11.520 -0.0907  0.4414 -0.1434
  990MOL0     C33578   2.025   4.732  11.500  0.0134 -0.2589 -0.1874
  990MOL0     C33579   2.131   4.767  11.601 -0.4605  1.0191 -1.2261
  990MOL0     C33580   2.215   4.806  11.689 -0.2806  0.6650  0.2863
  990MOL0     C33581   1.617   4.356  11.374 -0.4866 -0.2960  0.2190
  990MOL0     C33582   1.478   4.353  11.351  0.1755 -0.4756 -0.9667
  990MOL0     H33583   0.948   4.482  11.614  1.0151  0.1107 -1.7452
  990MOL0     H33584   0.710   4.395  11.621 -0.5044 -2.7228  1.6714
  990MOL0     H33585   0.578   4.078  11.361  0.7779 -1.6162  1.0001
  990MOL0     H33586   0.626   4.008  11.519  1.6754  1.8242  0.9200
  990MOL0     H33587   0.376   3.976  11.495 -0.7414 -0.4191 -1.2829
  990MOL0     H33588   0.418   4.088  11.624  0.5477  1.0190  0.2358
  990MOL0     H33589   0.402   4.268  11.413 -0.9955 -0.2223 -1.6259
  990MOL0     H33590   0.318   4.127  11.344  1.1161  0.4146 -0.0388
  990MOL0     H33591   0.146   4.129  11.504  2.9233 -1.2573  2.1092
  990MOL0     H33592   0.223   4.264  11.592 -1.7775 -0.8658  0.4965
  990MOL0     H33593   0.218   4.400  11.370 -0.1494 -0.6898 -1.0700
  990MOL0     H33594   0.099   4.274  11.323  1.2398 -1.9726  0.5911
  990MOL0     H33595   0.071   4.443  11.568 -3.0555 -0.3130  1.2337
  990MOL0     H33596  -0.014   4.500  11.421  0.2948 -0.6326 -1.1896
  990MOL0     H33597  -0.163   4.305  11.438  2.1873  0.0175 -1.9344
  990MOL0     H33598  -0.060   4.228  11.546 -3.9490 -2.2187 -3.3956
  990MOL0     H33599  -0.246   4.464  11.578 -0.7646  1.4974  2.1225
  990MOL0     H33600  -0.105   4.469  11.685  1.1926 -0.4042 -1.1629
  990MOL0     H33601  -0.408   4.210  11.607 -0.6008  2.2257 -0.1373
  990MOL0     H33602  -0.413   3.962  11.740 -1.9657 -1.2316 -0.0680
  990MOL0     H33603  -0.410   3.987  11.916  0.9026 -1.4629 -0.6259
  990MOL0     H33604  -0.583   4.135  11.704  2.0599 -1.3205 -1.3735
  990MOL0     H33605  -0.571   4.174  11.875  0.0277  2.5416 -1.9589
  990MOL0     H33606  -0.635   3.920  11.916 -1.6926  1.1885  1.3784
  990MOL0     H33607  -0.670   3.913  11.746  1.3216  0.2477 -0.2247
  990MOL0     H33608  -0.810   4.124  11.795  0.9887  0.9506  0.2942
  990MOL0     H33609  -0.792   4.080  11.964 -0.0444 -2.1502  0.0412
  990MOL0     H33610  -1.004   4.182  11.806 -0.1056  2.6063 -4.6485
  990MOL0     H33611  -1.320   4.301  11.779 -0.8629 -2.4804 -0.8075
  990MOL0     H33612  -1.153   4.333  11.711  0.3698  0.5893  3.3245
  990MOL0     H33613  -1.276   4.262  11.613 -1.5959  0.9353 -0.6798
  990MOL0     H33614  -1.643   4.061  11.521  1.8653  3.5661  5.3586
  990MOL0     H33615  -1.865   3.995  11.437 -0.5780  0.9372  0.5852
  990MOL0     H33616  -2.142   3.775  11.707  0.9044  1.3252  4.7931
  990MOL0     H33617  -2.139   3.946  11.745 -0.4759  1.3580 -1.5352
  990MOL0     H33618  -2.300   3.815  11.516 -0.0592 -0.5008  0.8777
  990MOL0     H33619  -2.368   3.866  11.669 -1.6533  3.2118  0.1496
  990MOL0     H33620  -2.409   4.013  11.469  1.3989 -2.0191 -1.5181
  990MOL0     H33621  -2.237   4.056  11.472 -0.7382 -0.7963 -1.0905
  990MOL0     H33622  -2.417   4.121  11.719  0.0220  2.2262  1.5640
  990MOL0     H33623  -2.249   4.146  11.693  0.8907 -0.1921 -1.1286
  990MOL0     H33624  -2.499   4.246  11.540 -0.1181 -2.5124  0.8252
  990MOL0     H33625  -2.339   4.291  11.490 -0.2807  0.5858 -0.4358
  990MOL0     H33626  -2.453   4.355  11.773  0.9287 -2.1427 -0.3630
  990MOL0     H33627  -2.296   4.386  11.721  0.1889 -2.0632 -0.6209
  990MOL0     H33628  -2.559   4.493  11.635 -0.0424  1.1299  0.7216
  990MOL0     H33629  -2.411   4.538  11.540  2.9492 -1.1082  1.0704
  990MOL0     H33630  -2.428   4.722  11.678  0.0111 -0.2388 -0.2934
  990MOL0     H33631  -2.306   4.629  11.752  0.5814 -1.9460  2.5309
  990MOL0     H33632  -1.926   3.740  11.773 -2.7504  2.7387 -1.2372
  990MOL0     H33633  -1.709   3.755  11.833 -2.6252 -0.4050  1.3554
  990MOL0     H33634  -1.312   3.795  11.770 -1.5917  1.1419 -1.5385
  990MOL0     H33635  -1.095   3.760  11.845  3.4748 -0.1875  0.2123
  990MOL0     H33636   0.844   4.042  11.417  2.1478  0.7731 -3.3086
  990MOL0     H33637   1.070   4.120  11.425  0.4115  1.9877 -1.2467
  990MOL0     H33638   1.360   4.445  11.652 -1.3391 -0.9450 -1.4282
  990MOL0     H33639   1.595   4.431  11.700 -2.6854 -2.0728  0.7441
  990MOL0     H33640   1.793   4.401  11.746  0.9699  2.3906  0.9267
  990MOL0     H33641   1.947   4.340  11.669  0.7942  1.3892  0.9117
  990MOL0     H33642   1.946   4.589  11.735 -0.1961 -0.6355  0.2656
  990MOL0     H33643   1.803   4.610  11.636 -0.1049  0.1531  2.7616
  990MOL0     H33644   1.922   4.569  11.431 -1.5378  0.5750  0.7832
  990MOL0     H33645   2.071   4.523  11.516 -0.0133 -0.1271  4.5524
  990MOL0     H33646   1.943   4.803  11.514 -0.0515  0.6898 -4.2552
  990MOL0     H33647   2.065   4.727  11.399 -2.0771 -3.8376 -0.9933
  990MOL0     H33648   2.282   4.852  11.758  0.3491  2.5783 -1.4827
  990MOL0     H33649   1.692   4.336  11.298 -1.0302 -0.4957 -0.2737
  990MOL0     H33650   1.454   4.327  11.248  0.9038 -1.6865 -0.8609
  991MOL0     O33651   6.683   4.069   3.184 -0.8295  0.2525 -0.0733
  991MOL0     C33652   6.729   4.177   3.228 -0.1848 -0.0402  0.4045
  991MOL0     O33653   6.658   4.276   3.292  0.8625 -0.7097  0.2066
  991MOL0     C33654   6.522   4.273   3.272 -0.0656 -0.2426  0.0687
  991MOL0     C33655   6.439   4.198   3.361 -1.2062 -0.1213  0.5620
  991MOL0     C33656   6.305   4.191   3.340  0.2502  0.3200  0.9003
  991MOL0     C33657   6.239   4.257   3.234 -0.6686 -0.4776 -0.3581
  991MOL0     O33658   6.101   4.234   3.235  0.1426 -0.6748  1.1043
  991MOL0     C33659   6.039   4.276   3.117 -0.3215 -0.0440  0.4055
  991MOL0     C33660   5.891   4.239   3.106  0.7574 -0.5230  0.1519
  991MOL0     C33661   5.815   4.211   3.230 -0.3321 -0.1946  0.1501
  991MOL0     C33662   5.677   4.168   3.185 -0.0314 -0.5976 -0.1000
  991MOL0     C33663   5.578   4.102   3.290 -0.5425  0.2699 -0.0621
  991MOL0     C33664   5.436   4.098   3.229 -0.1991  0.5454  0.2097
  991MOL0     C33665   5.343   4.020   3.324  0.0501  0.7615  0.2482
  991MOL0     C33666   5.238   3.938   3.251 -0.1521 -0.3934 -0.8429
  991MOL0     N33667   5.117   3.909   3.340  0.4569 -0.0906  0.2404
  991MOL0     C33668   5.004   3.849   3.297 -0.1524 -0.0178  0.5608
  991MOL0     C33669   4.910   3.863   3.394  0.2821 -0.2037  0.2596
  991MOL0     C33670   4.763   3.808   3.409 -0.5220 -0.2034 -0.8548
  991MOL0     C33671   4.769   3.652   3.409  0.3174 -0.8689  0.6234
  991MOL0     C33672   4.863   3.589   3.517  0.1996 -0.0710 -0.0994
  991MOL0     C33673   4.881   3.436   3.490 -0.7568 -0.1281 -0.4639
  991MOL0     O33674   4.760   3.363   3.450  0.4021  0.1380 -0.0148
  991MOL0     C33675   4.673   3.321   3.547  0.1846  0.5934  0.3025
  991MOL0     C33676   4.709   3.271   3.671 -0.0908  0.2323 -0.8041
  991MOL0     C33677   4.614   3.222   3.755 -0.3150 -0.1138 -0.2809
  991MOL0     C33678   4.663   3.171   3.888 -0.0531  0.4004 -0.2800
  991MOL0     C33679   4.476   3.209   3.712 -1.1105 -0.0677  0.8165
  991MOL0     C33680   4.366   3.156   3.791  0.1163 -0.4879  0.4921
  991MOL0     O33681   4.234   3.210   3.757  0.1494 -0.1985  0.6375
  991MOL0     C33682   4.133   3.153   3.835  0.6654 -0.0204 -0.4322
  991MOL0     C33683   4.107   3.016   3.834  1.0125 -0.0003  0.7744
  991MOL0     C33684   3.977   2.964   3.872  0.3686 -0.5080 -0.8510
  991MOL0     C33685   3.889   3.054   3.937  0.0671  1.0216 -0.1125
  991MOL0     O33686   3.769   3.011   3.993 -0.7243 -0.2800  0.0561
  991MOL0     C33687   3.693   2.907   3.932 -1.1836 -0.3006 -0.2433
  991MOL0     C33688   3.552   2.906   3.981 -0.5139  0.6880 -0.1972
  991MOL0     C33689   3.467   2.794   3.911  0.7925 -0.3839 -0.3998
  991MOL0     C33690   3.361   2.857   3.816  0.4727  0.4011 -0.7308
  991MOL0     C33691   3.271   2.750   3.767  0.0962  0.1846  0.2972
  991MOL0     C33692   3.158   2.810   3.679  0.1106  0.0524 -0.0959
  991MOL0     C33693   3.094   2.697   3.590 -0.4438  0.0342  0.1565
  991MOL0     C33694   2.935   2.701   3.578 -0.8613  0.5718  0.1794
  991MOL0    Cl33695   2.864   2.855   3.515 -0.2086 -0.0855 -0.7706
  991MOL0     C33696   3.919   3.190   3.944 -0.6129  0.2335  0.2492
  991MOL0     C33697   4.034   3.236   3.889 -0.6193 -0.7323  0.5638
  991MOL0     O33698   4.391   3.072   3.875 -0.0145  0.1754  0.3648
  991MOL0     C33699   4.443   3.258   3.582  0.2909  1.0076 -0.7226
  991MOL0     C33700   4.541   3.308   3.501 -0.2047 -0.0800 -0.5677
  991MOL0     N33701   4.971   3.921   3.499  0.1257 -0.3465  0.3844
  991MOL0     N33702   5.095   3.935   3.467 -0.4987  0.1750 -0.1697
  991MOL0     C33703   6.317   4.333   3.149 -0.5619 -0.7706  0.5079
  991MOL0     C33704   6.457   4.342   3.173  0.2352  0.6062 -0.0018
  991MOL0     C33705   6.875   4.191   3.217 -0.7265  0.0292  0.4713
  991MOL0     C33706   6.947   4.271   3.305  0.0550 -0.2621 -0.0555
  991MOL0     C33707   7.085   4.275   3.291 -0.5821  0.2285 -0.1331
  991MOL0     C33708   7.159   4.202   3.204  0.6992  0.4062  0.4822
  991MOL0     O33709   7.293   4.234   3.193 -0.2925 -0.7269 -0.1441
  991MOL0     C33710   7.372   4.167   3.091 -0.1645 -0.3423 -0.1953
  991MOL0     C33711   7.516   4.209   3.099 -0.4842 -0.0978  0.9800
  991MOL0     C33712   7.573   4.122   3.216 -0.0757 -0.0498 -0.2025
  991MOL0     C33713   7.712   4.183   3.252  1.3060  0.4549 -0.2360
  991MOL0     C33714   7.814   4.134   3.156  0.4694  0.1699 -0.2094
  991MOL0     C33715   7.913   4.089   3.093 -0.2819 -0.6914 -0.0319
  991MOL0     C33716   7.093   4.121   3.115  0.6652  0.8314  0.3722
  991MOL0     C33717   6.949   4.113   3.124 -0.9217 -1.2022  0.3599
  991MOL0     H33718   6.489   4.139   3.438  1.1856 -2.3943 -2.4587
  991MOL0     H33719   6.243   4.135   3.410 -1.3869 -0.3575 -0.9968
  991MOL0     H33720   6.042   4.386   3.115  1.3704 -0.0565  0.2003
  991MOL0     H33721   6.085   4.229   3.030 -0.9284 -0.1036  0.1117
  991MOL0     H33722   5.839   4.320   3.054 -1.7334 -2.9335 -1.3862
  991MOL0     H33723   5.890   4.153   3.037 -1.6948  0.8671 -1.6837
  991MOL0     H33724   5.860   4.126   3.283  1.1169  0.0422 -0.6495
  991MOL0     H33725   5.809   4.293   3.301  0.0912  1.4002 -1.5738
  991MOL0     H33726   5.633   4.262   3.151  2.5241  1.5517  2.0976
  991MOL0     H33727   5.673   4.104   3.097 -2.4305 -2.0452  0.9644
  991MOL0     H33728   5.618   4.001   3.307 -0.7790  0.2553  0.4297
  991MOL0     H33729   5.581   4.152   3.387 -0.1162 -1.2439  0.7469
  991MOL0     H33730   5.392   4.194   3.201  0.6152  0.5456 -1.2141
  991MOL0     H33731   5.453   4.046   3.134 -0.8666  0.0673  0.3483
  991MOL0     H33732   5.407   3.952   3.382 -1.8891 -0.9263  0.5268
  991MOL0     H33733   5.305   4.089   3.400  1.3350  1.1055  0.6190
  991MOL0     H33734   5.278   3.844   3.213  1.8062 -0.3674  0.9689
  991MOL0     H33735   5.213   3.999   3.163 -0.6007  2.8902  1.3570
  991MOL0     H33736   4.988   3.790   3.208 -0.6041 -0.8056  1.1492
  991MOL0     H33737   4.734   3.837   3.510 -0.4449 -0.9048 -0.6263
  991MOL0     H33738   4.699   3.854   3.334  0.2261  0.4706 -1.0911
  991MOL0     H33739   4.808   3.622   3.311  0.7304  0.5689  0.3134
  991MOL0     H33740   4.670   3.607   3.418  1.1837 -2.5203  2.5862
  991MOL0     H33741   4.824   3.594   3.619  2.2368 -0.4506  0.7452
  991MOL0     H33742   4.960   3.639   3.526 -0.8496  2.3321 -1.2231
  991MOL0     H33743   4.934   3.396   3.577 -4.2304 -3.0864  0.5972
  991MOL0     H33744   4.956   3.428   3.411  0.4845  0.6519  0.5973
  991MOL0     H33745   4.815   3.279   3.695 -0.3046 -1.1545  0.7563
  991MOL0     H33746   4.770   3.181   3.904 -0.1520 -1.0014  1.5277
  991MOL0     H33747   4.600   3.225   3.959  0.7838  1.2902 -0.1908
  991MOL0     H33748   4.642   3.064   3.901  0.6447 -0.2246 -3.3560
  991MOL0     H33749   4.185   2.964   3.779 -0.9780  0.8255 -3.2529
  991MOL0     H33750   3.954   2.858   3.869 -0.7470 -0.3515  0.7777
  991MOL0     H33751   3.701   2.916   3.823  1.9281  1.2502  0.0113
  991MOL0     H33752   3.741   2.813   3.962  4.2542  2.6720  1.7685
  991MOL0     H33753   3.562   2.866   4.083  1.5824 -4.4560 -2.0736
  991MOL0     H33754   3.508   3.006   3.977 -2.2383 -0.0795 -2.1852
  991MOL0     H33755   3.416   2.745   3.995  0.3193  1.4210  0.4071
  991MOL0     H33756   3.525   2.709   3.873  1.1587 -0.0674 -0.5568
  991MOL0     H33757   3.298   2.926   3.875 -0.7091 -0.3827 -1.0338
  991MOL0     H33758   3.399   2.912   3.730 -0.4691  2.4595  0.0950
  991MOL0     H33759   3.235   2.696   3.855 -3.1896 -0.5423 -1.2894
  991MOL0     H33760   3.313   2.677   3.698 -2.3682  1.2370 -2.5651
  991MOL0     H33761   3.082   2.837   3.752  0.8324 -0.3482  0.8160
  991MOL0     H33762   3.183   2.891   3.609 -0.4210 -0.1045 -0.4718
  991MOL0     H33763   3.113   2.592   3.616 -3.2193 -0.8979 -1.2580
  991MOL0     H33764   3.133   2.712   3.489 -1.6560 -2.6934 -0.8256
  991MOL0     H33765   2.893   2.681   3.677 -1.2757  2.6200  0.4416
  991MOL0     H33766   2.894   2.626   3.509  0.3231 -2.1858  2.2414
  991MOL0     H33767   3.847   3.253   3.994 -2.2845 -0.2586 -1.3935
  991MOL0     H33768   4.040   3.344   3.876 -4.1009 -0.3009  1.5464
  991MOL0     H33769   4.341   3.255   3.543  0.4767 -0.5760 -1.1493
  991MOL0     H33770   4.530   3.351   3.402  0.4765 -1.1061 -1.1023
  991MOL0     H33771   6.272   4.394   3.071 -1.1572  0.0482  1.4574
  991MOL0     H33772   6.520   4.403   3.109  2.2957  0.8546  2.1347
  991MOL0     H33773   6.900   4.341   3.373 -1.0011 -2.2989  1.4174
  991MOL0     H33774   7.132   4.347   3.358  1.0350  0.5723 -1.5730
  991MOL0     H33775   7.358   4.059   3.087 -2.2797 -0.1683  1.1876
  991MOL0     H33776   7.333   4.202   2.994  0.4400  1.8877  0.3058
  991MOL0     H33777   7.533   4.316   3.106  5.0879 -0.6575  0.5438
  991MOL0     H33778   7.570   4.179   3.009 -1.4742  1.8811 -0.3412
  991MOL0     H33779   7.583   4.022   3.173 -0.3586  0.0217 -0.4392
  991MOL0     H33780   7.509   4.137   3.303  1.8898  1.7322  1.0414
  991MOL0     H33781   7.731   4.145   3.353 -2.0807 -0.8492  0.0480
  991MOL0     H33782   7.711   4.292   3.251  0.5468  0.6432  3.6542
  991MOL0     H33783   7.988   4.056   3.024 -0.6399 -0.1897 -0.6772
  991MOL0     H33784   7.141   4.054   3.045 -1.3778  0.0687 -0.3905
  991MOL0     H33785   6.897   4.045   3.057  0.1117 -1.8157  0.1557
  992MOL0     O33786   8.526   3.723   5.532 -0.4261  0.5228  0.0120
  992MOL0     C33787   8.597   3.624   5.567  0.0225 -0.8053 -0.9929
  992MOL0     O33788   8.684   3.564   5.490 -0.7880  0.3778 -0.0299
  992MOL0     C33789   8.738   3.630   5.380 -0.0740 -0.0415 -0.8290
  992MOL0     C33790   8.854   3.705   5.394  0.1575  0.5837  0.2657
  992MOL0     C33791   8.911   3.779   5.288 -0.0030  0.0745 -0.3965
  992MOL0     C33792   8.864   3.756   5.152  0.1841 -0.8758  0.1311
  992MOL0     O33793   8.916   3.809   5.039  0.4847  0.4391  0.5882
  992MOL0     C33794   9.028   3.898   5.061  0.4740  0.4474  0.7184
  992MOL0     C33795   9.053   3.959   4.923 -0.5542 -1.2450 -0.3203
  992MOL0     C33796   8.947   4.051   4.862  0.1911 -0.6952  0.8351
  992MOL0     C33797   8.993   4.120   4.737 -0.5814  0.2321  0.8132
  992MOL0     C33798   8.879   4.211   4.688 -0.4124 -0.0723  0.2685
  992MOL0     C33799   8.903   4.297   4.569  0.0514  0.2700  0.1898
  992MOL0     C33800   9.027   4.399   4.574 -0.2336 -0.3854 -0.0880
  992MOL0     C33801   9.041   4.491   4.697 -0.3590  0.9027  0.7737
  992MOL0     N33802   8.947   4.601   4.702  0.9162  0.0471  0.1341
  992MOL0     C33803   8.855   4.620   4.803  0.0345  0.8341  0.1371
  992MOL0     C33804   8.813   4.744   4.796 -0.0919 -0.6044  0.4437
  992MOL0     C33805   8.723   4.822   4.883 -0.3182  0.3981 -0.3281
  992MOL0     C33806   8.621   4.741   4.971 -0.5751 -0.1061 -0.7921
  992MOL0     C33807   8.526   4.652   4.907  1.0120  1.0995 -0.6656
  992MOL0     C33808   8.419   4.718   4.826 -0.5920  0.2504  0.0071
  992MOL0     O33809   8.307   4.742   4.910 -0.3765 -0.0089 -0.0978
  992MOL0     C33810   8.204   4.651   4.924  0.1390  0.6315 -0.7534
  992MOL0     C33811   8.128   4.623   4.815  0.5175 -1.4766  0.1593
  992MOL0     C33812   8.029   4.518   4.810 -0.3679 -0.0453  0.1305
  992MOL0     C33813   7.962   4.484   4.683  0.5041  0.3591 -0.4926
  992MOL0     C33814   7.994   4.456   4.933 -0.1099 -1.0921  1.1169
  992MOL0     C33815   7.893   4.361   4.964 -0.5096  0.7714  0.6731
  992MOL0     O33816   7.930   4.259   5.051 -0.0444 -0.7469  0.1131
  992MOL0     C33817   7.834   4.185   5.108  0.5548 -0.6246 -0.1559
  992MOL0     C33818   7.709   4.238   5.157 -1.1108 -0.9708  0.1616
  992MOL0     C33819   7.621   4.159   5.239 -0.5273 -0.2803  0.5657
  992MOL0     C33820   7.658   4.031   5.283  0.0249  1.0545  0.0507
  992MOL0     O33821   7.589   3.955   5.369  0.4376 -0.4703 -0.1799
  992MOL0     C33822   7.470   4.007   5.436 -0.5337 -0.0775  0.6944
  992MOL0     C33823   7.419   3.906   5.545 -0.4937 -0.2548  0.4070
  992MOL0     C33824   7.371   3.963   5.679 -0.1415 -0.6619 -0.5997
  992MOL0     C33825   7.228   4.011   5.647 -0.7853  0.5532  0.2220
  992MOL0     C33826   7.178   4.073   5.772 -0.2898  0.2198 -0.7433
  992MOL0     C33827   7.052   4.150   5.737  0.7758  0.4978  0.4780
  992MOL0     C33828   6.982   4.200   5.859  0.2947  0.1684 -0.6906
  992MOL0     C33829   6.832   4.215   5.826  0.4439  0.3167 -0.8378
  992MOL0    Cl33830   6.777   4.362   5.745 -0.0380 -0.3230  0.1316
  992MOL0     C33831   7.783   3.984   5.243  0.4792 -0.1183  1.4754
  992MOL0     C33832   7.865   4.057   5.154 -0.0001 -0.4840 -0.0934
  992MOL0     O33833   7.783   4.380   4.918  0.6308  0.6887  0.1341
  992MOL0     C33834   8.074   4.491   5.044  0.3473  0.8214  0.3045
  992MOL0     C33835   8.175   4.585   5.039  0.6327  0.5836 -0.2329
  992MOL0     N33836   8.877   4.809   4.683 -0.2668  0.1528 -0.1355
  992MOL0     N33837   8.958   4.721   4.630 -0.0190 -0.2058 -0.1811
  992MOL0     C33838   8.753   3.673   5.142 -0.8366  0.2972  0.1361
  992MOL0     C33839   8.693   3.606   5.252  1.1162 -0.2599  0.2291
  992MOL0     C33840   8.602   3.597   5.712 -0.3116  0.2290  0.4010
  992MOL0     C33841   8.501   3.638   5.801  0.1684 -0.8511 -0.8693
  992MOL0     C33842   8.519   3.631   5.941 -0.3661 -0.6767 -0.3538
  992MOL0     C33843   8.634   3.588   5.992 -0.7183  0.2950  0.2432
  992MOL0     O33844   8.658   3.573   6.129 -0.0635  0.3817 -0.3462
  992MOL0     C33845   8.712   3.681   6.194  0.1160 -0.0733 -0.7025
  992MOL0     C33846   8.617   3.781   6.231  0.3804  0.2152  0.1183
  992MOL0     C33847   8.500   3.739   6.315  0.1466  0.0598 -0.2472
  992MOL0     C33848   8.396   3.842   6.336  0.3099 -0.5300 -0.8004
  992MOL0     C33849   8.309   3.847   6.214 -0.4274 -0.4948  0.7656
  992MOL0     C33850   8.228   3.857   6.121  0.2140 -0.0861 -0.4753
  992MOL0     C33851   8.737   3.548   5.909 -0.5588 -0.3592  0.1313
  992MOL0     C33852   8.722   3.557   5.767  0.1499 -0.0582  0.4834
  992MOL0     H33853   8.902   3.708   5.491  0.1513 -1.0528  0.3570
  992MOL0     H33854   8.988   3.852   5.309 -0.8555  0.4196  1.8478
  992MOL0     H33855   8.992   3.977   5.127  0.4461 -1.2179  2.7926
  992MOL0     H33856   9.119   3.848   5.096 -0.0670 -1.4324 -0.3688
  992MOL0     H33857   9.142   4.018   4.945 -0.5205 -0.8569 -1.4203
  992MOL0     H33858   9.067   3.881   4.848 -1.0135  1.1781 -3.1062
  992MOL0     H33859   8.850   4.002   4.844 -0.0695 -1.0143  2.9178
  992MOL0     H33860   8.923   4.129   4.934  0.1478 -0.2705  0.3695
  992MOL0     H33861   9.088   4.169   4.761  1.6765 -2.9627 -0.7914
  992MOL0     H33862   9.020   4.043   4.664 -0.5039  1.7748 -0.8700
  992MOL0     H33863   8.787   4.152   4.674 -0.5331  0.4707 -1.3832
  992MOL0     H33864   8.855   4.280   4.769  0.1428 -0.8302  1.1016
  992MOL0     H33865   8.919   4.225   4.489 -1.7127 -2.5120  2.1558
  992MOL0     H33866   8.812   4.353   4.547  0.1046 -0.0415 -0.8680
  992MOL0     H33867   9.115   4.336   4.557  0.2766  0.8401 -2.5534
  992MOL0     H33868   9.014   4.462   4.485  1.0585 -2.0809 -1.5597
  992MOL0     H33869   9.146   4.523   4.690 -0.8145  2.9563  2.3276
  992MOL0     H33870   9.033   4.433   4.789  2.0987  1.0041  1.1392
  992MOL0     H33871   8.836   4.553   4.886  0.6765  3.1415  2.2773
  992MOL0     H33872   8.784   4.886   4.948 -0.1915  1.7296 -1.6992
  992MOL0     H33873   8.665   4.896   4.827  0.9462  1.1723 -0.6631
  992MOL0     H33874   8.573   4.803   5.048 -1.9430  0.5809 -2.1510
  992MOL0     H33875   8.694   4.675   5.018 -0.2900 -0.7876 -2.1501
  992MOL0     H33876   8.479   4.587   4.981 -1.2643  2.0012 -1.2239
  992MOL0     H33877   8.574   4.581   4.839  1.1943 -1.4022  1.8581
  992MOL0     H33878   8.403   4.648   4.743 -4.9298 -1.5892  2.0666
  992MOL0     H33879   8.473   4.808   4.796 -0.5557  1.4980  3.4711
  992MOL0     H33880   8.161   4.666   4.721 -0.7404 -1.4364 -0.2841
  992MOL0     H33881   7.977   4.379   4.656  2.9632  0.5542 -0.0915
  992MOL0     H33882   7.854   4.497   4.694  0.3476 -0.9495 -0.3003
  992MOL0     H33883   7.981   4.546   4.595  1.9088 -1.3994 -1.4756
  992MOL0     H33884   7.677   4.340   5.142  3.4914  1.2429  3.1232
  992MOL0     H33885   7.528   4.202   5.273  0.3817  0.4412  2.2160
  992MOL0     H33886   7.487   4.099   5.493  0.2972  1.0838 -1.3380
  992MOL0     H33887   7.387   4.031   5.370 -1.7172  1.4930  2.6308
  992MOL0     H33888   7.347   3.832   5.508 -2.1218 -0.1910  3.1436
  992MOL0     H33889   7.504   3.844   5.576  0.2762 -0.5172 -2.0176
  992MOL0     H33890   7.440   4.042   5.711  4.3241 -3.8554 -1.4069
  992MOL0     H33891   7.383   3.886   5.755  0.8331  0.1700  0.1250
  992MOL0     H33892   7.231   4.091   5.572 -0.4099 -0.1532 -0.5230
  992MOL0     H33893   7.166   3.927   5.617  0.9673 -1.4529  1.9128
  992MOL0     H33894   7.240   4.155   5.809 -3.4313  2.5289 -0.2095
  992MOL0     H33895   7.147   3.995   5.842 -0.0283  0.5363 -0.2701
  992MOL0     H33896   7.070   4.234   5.670  1.3189 -1.0081 -1.3785
  992MOL0     H33897   6.989   4.090   5.671 -0.6253  1.6048  0.7861
  992MOL0     H33898   7.001   4.299   5.902 -0.3875  0.2617 -0.5923
  992MOL0     H33899   6.985   4.118   5.931 -1.1605  0.9972  0.3515
  992MOL0     H33900   6.774   4.203   5.918  0.9040  0.5557 -0.5154
  992MOL0     H33901   6.808   4.121   5.774  0.5283 -0.6183  0.7686
  992MOL0     H33902   7.824   3.886   5.266  0.7399 -0.0781  1.1905
  992MOL0     H33903   7.964   4.023   5.124  0.3043  0.2616  0.0241
  992MOL0     H33904   8.058   4.449   5.142 -1.6413  1.2372  0.2064
  992MOL0     H33905   8.253   4.582   5.115  1.5971 -2.2686 -1.2281
  992MOL0     H33906   8.718   3.662   5.040  1.3831  2.4193 -0.9664
  992MOL0     H33907   8.607   3.541   5.235  0.7075  0.1604  0.6699
  992MOL0     H33908   8.408   3.686   5.772  0.7214  1.2371  0.5897
  992MOL0     H33909   8.436   3.665   6.002 -0.5637  0.7603 -1.3752
  992MOL0     H33910   8.774   3.642   6.276  1.0974  1.4428 -0.6829
  992MOL0     H33911   8.780   3.730   6.124 -0.6395 -0.7969 -1.9908
  992MOL0     H33912   8.573   3.825   6.141  3.4010 -0.8638 -2.0382
  992MOL0     H33913   8.661   3.859   6.292 -0.2038 -1.3493  2.7109
  992MOL0     H33914   8.536   3.718   6.416 -3.0089  1.3483  1.3110
  992MOL0     H33915   8.448   3.647   6.285 -1.1860 -0.0974  2.2439
  992MOL0     H33916   8.448   3.937   6.350 -0.2947 -0.3565  0.3628
  992MOL0     H33917   8.326   3.821   6.418 -0.8074  0.9558 -1.3169
  992MOL0     H33918   8.164   3.854   6.035 -0.7629 -1.8324  0.2543
  992MOL0     H33919   8.828   3.504   5.948 -1.0897 -0.4965  1.2689
  992MOL0     H33920   8.797   3.521   5.697 -1.2604  0.4907 -1.3827
  993MOL0     O33921   1.442   7.529   0.022  0.1018 -0.8935 -0.5805
  993MOL0     C33922   1.468   7.609   0.103  0.5658 -0.9213 -1.0836
  993MOL0     O33923   1.377   7.682   0.184  0.4644  0.4652 -0.0246
  993MOL0     C33924   1.248   7.634   0.189 -0.7898  0.6960  1.0111
  993MOL0     C33925   1.159   7.701   0.112  0.1876 -0.6840 -0.1318
  993MOL0     C33926   1.029   7.658   0.110 -0.4025 -0.4798  0.1880
  993MOL0     C33927   0.987   7.540   0.174 -0.2617 -0.0447 -0.7771
  993MOL0     O33928   0.855   7.500   0.165 -0.5735 -0.0681 -0.4729
  993MOL0     C33929   0.799   7.416   0.262  0.9916  0.4941  0.4888
  993MOL0     C33930   0.651   7.389   0.250  0.1363 -0.2740  0.1139
  993MOL0     C33931   0.566   7.500   0.274 -0.0199 -0.6308  0.6413
  993MOL0     C33932   0.405   7.469   0.274 -1.0572  0.8034 -0.3489
  993MOL0     C33933   0.329   7.592   0.329 -0.0160  0.3569  0.1663
  993MOL0     C33934   0.331   7.591   0.482  0.0393 -0.2081  1.0468
  993MOL0     C33935   0.279   7.722   0.556 -0.4134  0.2338  0.7432
  993MOL0     C33936   0.135   7.759   0.517 -0.4246  0.0610  0.2335
  993MOL0     N33937   0.050   7.646   0.531 -0.0883  0.0758  0.8685
  993MOL0     C33938  -0.010   7.600   0.644  0.5579 -0.4085 -0.4402
  993MOL0     C33939  -0.077   7.486   0.607 -0.1063 -0.1655  1.2280
  993MOL0     C33940  -0.164   7.412   0.704  0.3759  0.9138 -0.6246
  993MOL0     C33941  -0.291   7.482   0.748  0.1884 -0.6575  1.0955
  993MOL0     C33942  -0.369   7.389   0.829 -0.0929 -0.5902  0.0348
  993MOL0     C33943  -0.508   7.443   0.871 -0.0052 -0.4646 -0.0593
  993MOL0     O33944  -0.583   7.324   0.906 -0.4236  0.5369 -0.1705
  993MOL0     C33945  -0.716   7.322   0.918  0.4326 -0.3594 -0.3525
  993MOL0     C33946  -0.787   7.201   0.936 -0.8787 -0.1879  0.2892
  993MOL0     C33947  -0.926   7.198   0.943 -0.4402 -0.0031 -0.1718
  993MOL0     C33948  -0.980   7.060   0.961  0.4364  0.7621 -1.0025
  993MOL0     C33949  -1.001   7.322   0.945 -0.2105  0.7546 -0.4291
  993MOL0     C33950  -1.145   7.325   0.992  0.1789  0.0172 -0.4910
  993MOL0     O33951  -1.222   7.414   0.933  0.3875 -1.1068  0.1577
  993MOL0     C33952  -1.359   7.379   0.921 -0.4663 -0.0510 -0.4076
  993MOL0     C33953  -1.446   7.482   0.949 -1.1860 -0.3361 -0.6607
  993MOL0     C33954  -1.581   7.455   0.943 -0.0190  0.3996  0.5889
  993MOL0     C33955  -1.634   7.332   0.902 -0.5725 -0.2166 -0.8174
  993MOL0     O33956  -1.766   7.324   0.889 -0.1789  0.1762 -0.2967
  993MOL0     C33957  -1.820   7.215   0.966  0.6031  0.1360 -0.5112
  993MOL0     C33958  -1.960   7.250   1.016  0.0659  0.3850  0.0932
  993MOL0     C33959  -2.064   7.203   0.920 -0.1413 -0.2522 -0.6252
  993MOL0     C33960  -2.202   7.260   0.949  0.2572  0.9630 -0.1492
  993MOL0     C33961  -2.303   7.220   0.837  0.1380 -0.3384  0.1053
  993MOL0     C33962  -2.423   7.315   0.829  0.5153 -0.4033  0.1407
  993MOL0     C33963  -2.541   7.283   0.729  0.1695  0.5737 -0.5265
  993MOL0     C33964  -2.513   7.288   0.576  0.3174  0.2312  0.2304
  993MOL0    Cl33965  -2.673   7.237   0.502  0.1088  0.3544  0.3926
  993MOL0     C33966  -1.536   7.235   0.873  0.3260  0.0667  0.1059
  993MOL0     C33967  -1.406   7.264   0.874  0.4545  0.3588  0.6598
  993MOL0     O33968  -1.185   7.240   1.068  0.0098  0.2252 -0.8384
  993MOL0     C33969  -0.927   7.443   0.928 -0.6752  0.0893  1.0823
  993MOL0     C33970  -0.793   7.437   0.910  0.3404 -0.1662  0.0726
  993MOL0     N33971  -0.066   7.469   0.471 -0.6978  0.4945  0.1829
  993MOL0     N33972   0.017   7.559   0.433 -0.3371  0.2589 -0.3727
  993MOL0     C33973   1.085   7.468   0.242 -0.2470  0.1488  0.3822
  993MOL0     C33974   1.214   7.514   0.249  0.5773  0.4001 -1.0217
  993MOL0     C33975   1.603   7.661   0.114  0.0867  0.3218  0.7686
  993MOL0     C33976   1.641   7.776   0.186 -0.5721  0.2811 -0.5225
  993MOL0     C33977   1.774   7.821   0.192  0.4032  0.7680  0.2564
  993MOL0     C33978   1.869   7.744   0.128 -0.0828  0.8415  0.1301
  993MOL0     O33979   1.998   7.796   0.143  0.3067  0.8987 -0.0449
  993MOL0     C33980   2.095   7.745   0.049 -0.0361  0.7721  0.4193
  993MOL0     C33981   2.193   7.858   0.027  0.0464  0.6502  0.8532
  993MOL0     C33982   2.263   7.897   0.160  0.2499  1.2217  0.0087
  993MOL0     C33983   2.227   8.045   0.200 -1.5208 -0.3265  1.2661
  993MOL0     C33984   2.275   8.077   0.332 -0.2283  0.0484  0.3871
  993MOL0     C33985   2.311   8.102   0.444 -0.1905  0.3100  0.1036
  993MOL0     C33986   1.842   7.622   0.065 -0.2348 -0.0725  0.2974
  993MOL0     C33987   1.708   7.588   0.050 -0.7427 -0.8042  0.4410
  993MOL0     H33988   1.198   7.780   0.047 -0.2800 -0.3109  0.0347
  993MOL0     H33989   0.959   7.707   0.043 -1.3434 -0.4178  1.1886
  993MOL0     H33990   0.838   7.316   0.238 -1.0917  0.4134 -3.5281
  993MOL0     H33991   0.821   7.449   0.364 -2.6166  1.0926  1.1917
  993MOL0     H33992   0.636   7.354   0.148  0.4449 -0.3309  0.0896
  993MOL0     H33993   0.625   7.300   0.309  1.8902 -1.1842 -0.4319
  993MOL0     H33994   0.591   7.552   0.367 -3.8333  0.9220  1.0219
  993MOL0     H33995   0.583   7.560   0.184 -0.0270 -0.6612  0.6203
  993MOL0     H33996   0.378   7.434   0.174  0.4075  0.0234 -0.5014
  993MOL0     H33997   0.386   7.381   0.336  1.4285  1.3821  1.3708
  993MOL0     H33998   0.382   7.680   0.291  2.1561 -0.9768 -0.1110
  993MOL0     H33999   0.227   7.599   0.290 -1.2324 -0.6049  2.9189
  993MOL0     H34000   0.277   7.507   0.527  2.4354 -1.2845  2.1288
  993MOL0     H34001   0.431   7.559   0.514 -0.6709 -1.2107  2.3441
  993MOL0     H34002   0.279   7.698   0.663  2.8533 -1.0920  0.5711
  993MOL0     H34003   0.342   7.809   0.532 -0.5853 -0.0449 -0.8735
  993MOL0     H34004   0.143   7.797   0.415  0.2532 -0.3877  0.1113
  993MOL0     H34005   0.097   7.848   0.568  2.4825  1.0732  0.8127
  993MOL0     H34006  -0.008   7.633   0.748 -0.5710 -2.1634  0.1762
  993MOL0     H34007  -0.199   7.319   0.659 -2.0615  2.0223 -1.1571
  993MOL0     H34008  -0.114   7.370   0.793 -0.6713 -0.6393 -0.7329
  993MOL0     H34009  -0.344   7.501   0.655  2.6909 -0.3176 -0.3300
  993MOL0     H34010  -0.272   7.573   0.806 -0.4161  0.4009 -0.3150
  993MOL0     H34011  -0.307   7.362   0.915  0.7662  2.9052  0.6974
  993MOL0     H34012  -0.397   7.313   0.756  0.1907  1.2999 -2.1838
  993MOL0     H34013  -0.549   7.490   0.781 -1.6644  0.5287  1.1676
  993MOL0     H34014  -0.508   7.518   0.950 -0.3219 -0.1738 -0.3326
  993MOL0     H34015  -0.730   7.110   0.946  0.6003  0.7261  0.5149
  993MOL0     H34016  -0.997   7.043   1.068 -1.8391 -1.0856 -1.5830
  993MOL0     H34017  -1.075   7.040   0.912 -0.9712 -0.4512  1.9543
  993MOL0     H34018  -0.907   6.983   0.935  0.9101 -0.5386  3.3054
  993MOL0     H34019  -1.426   7.580   0.991  0.6682 -0.2088 -1.7228
  993MOL0     H34020  -1.662   7.520   0.974  0.1833  0.8723  0.1371
  993MOL0     H34021  -1.823   7.133   0.894  2.6538 -0.7654  0.3578
  993MOL0     H34022  -1.756   7.187   1.050 -1.0131 -0.5136  0.5466
  993MOL0     H34023  -1.973   7.204   1.115  4.3433 -2.7962 -0.5138
  993MOL0     H34024  -1.968   7.358   1.025  0.1627  0.5277 -1.3092
  993MOL0     H34025  -2.068   7.094   0.926 -2.8026 -0.2082 -0.4352
  993MOL0     H34026  -2.040   7.241   0.820  0.0584  2.5700  0.4006
  993MOL0     H34027  -2.235   7.222   1.047  2.8758  1.0564  0.8530
  993MOL0     H34028  -2.196   7.369   0.956  5.5515  0.8823  1.0515
  993MOL0     H34029  -2.333   7.115   0.847  0.4080 -0.4641 -0.3604
  993MOL0     H34030  -2.244   7.222   0.745  2.0845 -3.7345  1.1316
  993MOL0     H34031  -2.469   7.325   0.928 -0.0951 -2.1839  0.0819
  993MOL0     H34032  -2.388   7.415   0.802 -1.5840  1.0832  2.5102
  993MOL0     H34033  -2.630   7.343   0.750 -0.0823  0.5051 -1.3402
  993MOL0     H34034  -2.557   7.181   0.765  0.4050  0.2414 -1.3243
  993MOL0     H34035  -2.434   7.219   0.546 -0.6605 -0.6289 -0.4395
  993MOL0     H34036  -2.495   7.392   0.548 -2.2983  0.7776  0.2837
  993MOL0     H34037  -1.563   7.138   0.832  0.9949 -0.5574  1.0970
  993MOL0     H34038  -1.341   7.181   0.848 -2.1618 -2.1929  1.7104
  993MOL0     H34039  -0.972   7.542   0.927  2.9410  1.9639 -1.5984
  993MOL0     H34040  -0.741   7.531   0.891  2.3186 -1.2004  0.0685
  993MOL0     H34041   1.061   7.383   0.305 -0.8449  2.4611  3.5122
  993MOL0     H34042   1.281   7.439   0.290  0.7274  1.4022  0.6431
  993MOL0     H34043   1.559   7.813   0.248 -0.1495 -2.6992  2.0853
  993MOL0     H34044   1.802   7.913   0.242  0.4010 -0.3897  2.5363
  993MOL0     H34045   2.144   7.659   0.095  0.0225  2.3359  3.5672
  993MOL0     H34046   2.052   7.717  -0.047  1.0368 -1.5783  0.5731
  993MOL0     H34047   2.139   7.941  -0.019  2.3165  0.7574 -1.8770
  993MOL0     H34048   2.264   7.830  -0.051 -0.0180  0.4920  0.8495
  993MOL0     H34049   2.370   7.885   0.145  0.1698 -0.7560  0.7687
  993MOL0     H34050   2.232   7.830   0.240  1.6391 -1.1848 -1.3696
  993MOL0     H34051   2.120   8.062   0.218 -1.1984  0.0686  2.9957
  993MOL0     H34052   2.253   8.120   0.124 -1.6216 -0.9306  0.6289
  993MOL0     H34053   2.347   8.105   0.545 -1.3651 -1.5737  0.6306
  993MOL0     H34054   1.921   7.553   0.040 -1.8205 -1.3254 -1.5416
  993MOL0     H34055   1.667   7.497   0.007 -0.7665 -1.7848  2.4264
  994MOL0     O34056   3.067   5.219   2.327  0.0752  0.3966  0.2083
  994MOL0     C34057   3.140   5.313   2.355 -0.0434  0.3183  0.4420
  994MOL0     O34058   3.091   5.439   2.392 -0.2099 -0.1908 -0.3885
  994MOL0     C34059   2.962   5.470   2.357  0.6487  0.0005  0.1827
  994MOL0     C34060   2.865   5.457   2.450 -0.1598 -0.1273 -0.0191
  994MOL0     C34061   2.736   5.498   2.428  0.8411  0.2814 -0.2108
  994MOL0     C34062   2.691   5.544   2.306  0.5474 -0.1888 -0.3580
  994MOL0     O34063   2.555   5.565   2.276  0.3611 -0.1838 -0.9138
  994MOL0     C34064   2.472   5.561   2.392  0.3895 -0.0308  0.0420
  994MOL0     C34065   2.321   5.589   2.375  0.2720  0.4862 -0.5048
  994MOL0     C34066   2.260   5.493   2.281 -0.5138  0.6331 -0.3635
  994MOL0     C34067   2.107   5.527   2.271 -0.1964 -0.5312 -0.3354
  994MOL0     C34068   2.055   5.467   2.140  0.0606  0.3758 -0.4689
  994MOL0     C34069   1.903   5.479   2.123 -0.5518  0.6482 -0.8876
  994MOL0     C34070   1.843   5.619   2.149  0.6857 -0.2396 -0.2623
  994MOL0     C34071   1.688   5.620   2.129  0.5362 -0.6343 -0.1287
  994MOL0     N34072   1.616   5.537   2.227  0.2727 -0.8451 -0.3822
  994MOL0     C34073   1.535   5.437   2.192 -0.1017  0.1018  0.5389
  994MOL0     C34074   1.483   5.388   2.308  0.7375  0.5745  0.5122
  994MOL0     C34075   1.368   5.286   2.300  0.3531  0.6077  0.7663
  994MOL0     C34076   1.240   5.368   2.334 -0.1622  0.4804  0.3349
  994MOL0     C34077   1.122   5.282   2.332  0.4764  0.2955 -0.5648
  994MOL0     C34078   0.997   5.368   2.363 -0.3512 -0.5629 -0.3047
  994MOL0     O34079   0.884   5.287   2.337  0.6561  0.1793 -0.0374
  994MOL0     C34080   0.759   5.338   2.362 -0.1575  0.1112 -0.9236
  994MOL0     C34081   0.726   5.470   2.351 -0.0146  0.1376  0.3552
  994MOL0     C34082   0.595   5.519   2.368  0.6572 -0.3080  0.4712
  994MOL0     C34083   0.573   5.671   2.353  0.0164  0.2443  0.7796
  994MOL0     C34084   0.493   5.426   2.378 -0.1581 -0.5519  0.1381
  994MOL0     C34085   0.350   5.469   2.390 -0.1924  0.4842  0.1139
  994MOL0     O34086   0.256   5.392   2.330 -0.8192 -0.2989 -0.6464
  994MOL0     C34087   0.123   5.435   2.335 -0.0961  0.0524  1.0999
  994MOL0     C34088   0.073   5.570   2.346  1.0307  0.1761 -0.4666
  994MOL0     C34089  -0.070   5.596   2.334 -0.2841 -0.7979  0.0674
  994MOL0     C34090  -0.154   5.494   2.297  0.8805  0.0796  0.5677
  994MOL0     O34091  -0.287   5.534   2.280 -0.2554  0.0645 -0.0017
  994MOL0     C34092  -0.381   5.474   2.375  0.0347  0.0974 -0.2056
  994MOL0     C34093  -0.443   5.584   2.454  0.8244 -0.9360 -0.0934
  994MOL0     C34094  -0.573   5.632   2.382  0.2138 -0.1593  0.0155
  994MOL0     C34095  -0.656   5.715   2.481  0.8775 -0.2947  0.7487
  994MOL0     C34096  -0.809   5.704   2.437 -0.2276 -0.7010  0.0969
  994MOL0     C34097  -0.884   5.809   2.510 -0.2988 -0.4566 -0.9956
  994MOL0     C34098  -1.037   5.809   2.493  0.9902  0.7438 -0.4940
  994MOL0     C34099  -1.097   5.783   2.351  0.3658  0.0733  0.2874
  994MOL0    Cl34100  -1.273   5.813   2.349  0.0635 -0.1551  0.2175
  994MOL0     C34101  -0.104   5.371   2.283 -0.7928  1.0008 -0.1772
  994MOL0     C34102   0.030   5.337   2.293 -0.5848 -0.5001 -1.0009
  994MOL0     O34103   0.331   5.558   2.469 -0.1776  0.0405  0.3673
  994MOL0     C34104   0.529   5.290   2.375  0.1471  0.2429 -0.1200
  994MOL0     C34105   0.658   5.244   2.363  0.5510 -0.6319  0.3417
  994MOL0     N34106   1.529   5.469   2.410 -0.2158  0.7458 -0.3010
  994MOL0     N34107   1.611   5.555   2.364  0.6084 -0.2931  0.8961
  994MOL0     C34108   2.787   5.560   2.207 -0.5048  0.0868 -0.2108
  994MOL0     C34109   2.927   5.533   2.233  0.7677 -0.0288 -0.0863
  994MOL0     C34110   3.286   5.295   2.363  0.1884  0.6611  1.0545
  994MOL0     C34111   3.372   5.387   2.422  0.2362 -0.5674  0.0213
  994MOL0     C34112   3.512   5.369   2.412 -0.5266 -0.7727 -0.8767
  994MOL0     C34113   3.563   5.247   2.362  0.3200 -0.1397  0.2013
  994MOL0     O34114   3.694   5.210   2.365 -0.1660 -0.0875  0.2268
  994MOL0     C34115   3.789   5.317   2.365  0.1095  0.1700 -0.0287
  994MOL0     C34116   3.852   5.318   2.499 -0.6810  0.1141 -0.6978
  994MOL0     C34117   3.978   5.398   2.514  0.1017  0.3887 -0.7284
  994MOL0     C34118   3.969   5.537   2.454  0.4079  0.2325 -0.7662
  994MOL0     C34119   3.972   5.552   2.310 -0.1981  0.5426  0.3691
  994MOL0     C34120   3.997   5.565   2.186  0.0546  0.8704 -0.3859
  994MOL0     C34121   3.479   5.160   2.302 -0.1054  0.1541 -0.5001
  994MOL0     C34122   3.340   5.183   2.296 -0.3240  0.8250 -0.6604
  994MOL0     H34123   2.889   5.413   2.546 -0.0511 -1.3925 -0.5938
  994MOL0     H34124   2.673   5.490   2.517 -0.3406 -1.1989 -1.1191
  994MOL0     H34125   2.484   5.458   2.426  0.3446  0.7285  2.5065
  994MOL0     H34126   2.509   5.640   2.458 -2.2024  1.9289 -0.6461
  994MOL0     H34127   2.280   5.601   2.475 -0.8853  1.2807 -1.0431
  994MOL0     H34128   2.298   5.688   2.333  0.6644 -0.3301 -2.8234
  994MOL0     H34129   2.313   5.506   2.186  2.9656 -0.0825  1.3149
  994MOL0     H34130   2.275   5.390   2.315 -2.2696  0.8571  1.2777
  994MOL0     H34131   2.056   5.486   2.359 -1.4874  0.4588 -0.5965
  994MOL0     H34132   2.093   5.636   2.274 -3.2719 -0.7420 -2.6240
  994MOL0     H34133   2.105   5.508   2.052  0.8369  0.3514 -0.0538
  994MOL0     H34134   2.083   5.362   2.136  1.1667  0.3755  3.2843
  994MOL0     H34135   1.866   5.445   2.026 -0.4877  2.9827 -1.8062
  994MOL0     H34136   1.863   5.412   2.199  1.6190 -0.1459 -0.3919
  994MOL0     H34137   1.870   5.651   2.250 -3.1417 -2.1341  1.5873
  994MOL0     H34138   1.889   5.688   2.078 -0.5328 -0.1410 -0.9949
  994MOL0     H34139   1.671   5.606   2.022  1.9680  0.4548 -0.5252
  994MOL0     H34140   1.655   5.721   2.156 -0.6556 -1.2726  0.9137
  994MOL0     H34141   1.525   5.401   2.090  1.9242 -0.1411  0.3886
  994MOL0     H34142   1.347   5.247   2.200 -2.6962 -2.4207  2.3880
  994MOL0     H34143   1.389   5.208   2.373  0.2371 -1.1686 -1.0240
  994MOL0     H34144   1.212   5.447   2.263 -1.6632 -0.8020 -0.5778
  994MOL0     H34145   1.253   5.408   2.435  0.7376  0.7695  0.1194
  994MOL0     H34146   1.137   5.204   2.408  0.9900 -2.2086 -3.0720
  994MOL0     H34147   1.103   5.225   2.241  0.1796 -1.9966  0.8460
  994MOL0     H34148   1.002   5.458   2.301  1.2253  1.3591  2.3772
  994MOL0     H34149   0.993   5.404   2.467 -1.3123 -0.0269 -0.5170
  994MOL0     H34150   0.805   5.544   2.345  2.5015 -2.0176  3.6513
  994MOL0     H34151   0.628   5.711   2.268 -0.7613  1.7516  0.9553
  994MOL0     H34152   0.467   5.697   2.343 -0.6985 -1.6825  2.5684
  994MOL0     H34153   0.605   5.734   2.436  1.5092  0.4646  0.0602
  994MOL0     H34154   0.138   5.654   2.370 -0.0563  0.6496  0.8968
  994MOL0     H34155  -0.107   5.698   2.345 -2.7286 -1.5353 -0.7126
  994MOL0     H34156  -0.447   5.411   2.315 -1.2579  4.2282 -3.5866
  994MOL0     H34157  -0.331   5.407   2.445 -2.1053 -1.7677 -0.3652
  994MOL0     H34158  -0.461   5.542   2.554  0.6739 -0.7486 -0.0419
  994MOL0     H34159  -0.384   5.674   2.475 -1.8532  0.2899  3.1230
  994MOL0     H34160  -0.630   5.547   2.343 -1.4353  0.8456  0.1115
  994MOL0     H34161  -0.544   5.693   2.296  2.8086 -2.2426 -0.7074
  994MOL0     H34162  -0.643   5.665   2.578  0.2771 -1.3253  0.3078
  994MOL0     H34163  -0.624   5.820   2.475 -0.8548  0.2273  0.0887
  994MOL0     H34164  -0.854   5.614   2.479 -5.1653  1.4601  0.0764
  994MOL0     H34165  -0.819   5.720   2.329 -1.5932 -1.6698  0.0554
  994MOL0     H34166  -0.869   5.820   2.618 -3.7568  2.8409 -0.6373
  994MOL0     H34167  -0.845   5.903   2.471  3.5030 -2.4062 -2.4028
  994MOL0     H34168  -1.075   5.905   2.529  3.1879  2.7346 -3.0922
  994MOL0     H34169  -1.068   5.724   2.554  0.4666  1.4655  0.2671
  994MOL0     H34170  -1.071   5.682   2.318  0.0815  0.3649 -0.8817
  994MOL0     H34171  -1.042   5.851   2.285  3.5635 -2.4044  0.1909
  994MOL0     H34172  -0.168   5.290   2.249  1.2744  0.0795 -2.1564
  994MOL0     H34173   0.068   5.239   2.266  0.0311  0.1947 -2.7875
  994MOL0     H34174   0.452   5.215   2.384  1.2223 -1.1994 -2.0583
  994MOL0     H34175   0.681   5.138   2.360 -2.7259 -1.4262  0.3932
  994MOL0     H34176   2.757   5.593   2.108  1.2518  0.4815 -0.6514
  994MOL0     H34177   3.014   5.544   2.168  0.1328  1.7818 -0.6818
  994MOL0     H34178   3.339   5.474   2.478  0.6401 -2.4816  3.4944
  994MOL0     H34179   3.570   5.454   2.447 -1.3202 -0.0552 -1.2683
  994MOL0     H34180   3.864   5.291   2.289 -0.1463  0.3273 -0.3382
  994MOL0     H34181   3.742   5.413   2.341 -1.2311 -0.5231 -0.2964
  994MOL0     H34182   3.881   5.216   2.525  0.3250  0.7129  0.6859
  994MOL0     H34183   3.777   5.348   2.573  0.4568  2.0540 -0.2558
  994MOL0     H34184   4.065   5.342   2.478 -0.1750 -1.4335  1.2328
  994MOL0     H34185   3.997   5.410   2.621  0.8552 -3.0072 -0.3607
  994MOL0     H34186   4.053   5.592   2.497 -0.8227  0.7101  1.1441
  994MOL0     H34187   3.885   5.592   2.497  1.9239  2.1082 -0.0436
  994MOL0     H34188   4.011   5.579   2.081 -0.7861  0.3773 -0.5795
  994MOL0     H34189   3.518   5.069   2.258  0.3758 -0.9237  1.9875
  994MOL0     H34190   3.277   5.127   2.228 -1.5627 -0.4976  1.4640
  995MOL0     O34191   8.497   1.122   2.466 -0.2699 -0.0954  0.3698
  995MOL0     C34192   8.489   1.093   2.580 -0.2113  0.1066 -0.1216
  995MOL0     O34193   8.385   1.038   2.644 -0.6949 -0.1618  0.0059
  995MOL0     C34194   8.273   0.979   2.583 -0.1717 -1.0600  0.5274
  995MOL0     C34195   8.186   0.936   2.674 -0.2070  0.3262  0.1487
  995MOL0     C34196   8.060   0.886   2.633 -0.0018  0.9049  0.1529
  995MOL0     C34197   8.024   0.879   2.498  0.6412 -0.3386 -0.4371
  995MOL0     O34198   7.911   0.809   2.465 -0.4284 -0.4791 -0.8452
  995MOL0     C34199   7.848   0.867   2.347  0.2611 -0.1187  0.4932
  995MOL0     C34200   7.699   0.853   2.367  0.3862  0.3206  0.6594
  995MOL0     C34201   7.613   0.885   2.240 -0.3327 -0.0797  0.2595
  995MOL0     C34202   7.469   0.832   2.277  0.4020  0.1330  0.3172
  995MOL0     C34203   7.358   0.886   2.184  0.1008 -0.3296  0.4807
  995MOL0     C34204   7.351   0.823   2.039  0.1677  0.1326  0.0976
  995MOL0     C34205   7.243   0.894   1.950 -0.8357  0.0920 -0.2555
  995MOL0     C34206   7.099   0.893   1.995  0.8900 -0.7529 -0.7498
  995MOL0     N34207   7.020   0.970   1.900  0.1910  0.4371  0.1645
  995MOL0     C34208   7.049   1.009   1.771  0.3387 -0.2907  1.1325
  995MOL0     C34209   6.923   1.021   1.713  0.6445 -0.6937  0.2141
  995MOL0     C34210   6.896   1.068   1.573 -0.4290 -0.2375  0.1621
  995MOL0     C34211   6.773   1.163   1.559 -0.1881  0.3507 -0.4419
  995MOL0     C34212   6.757   1.276   1.662  0.4452  0.7541 -0.0204
  995MOL0     C34213   6.627   1.351   1.661  0.6937  0.6266 -0.0460
  995MOL0     O34214   6.594   1.395   1.532 -0.1984 -0.2937  0.1737
  995MOL0     C34215   6.475   1.346   1.475 -0.1936 -0.3022  0.1434
  995MOL0     C34216   6.412   1.434   1.386  0.1443  0.3138  1.0035
  995MOL0     C34217   6.296   1.394   1.319  0.0456  0.0041  0.4717
  995MOL0     C34218   6.234   1.492   1.214 -0.3272  0.0861  0.4167
  995MOL0     C34219   6.225   1.275   1.349  0.0958  0.1729 -0.4713
  995MOL0     C34220   6.085   1.250   1.295 -0.1531 -0.6365 -0.8095
  995MOL0     O34221   6.012   1.347   1.258  0.6015 -0.5666 -0.5178
  995MOL0     C34222   5.890   1.317   1.210 -0.1434 -0.2863  0.3342
  995MOL0     C34223   5.868   1.393   1.095  0.4525 -0.1737  0.2229
  995MOL0     C34224   5.739   1.384   1.033 -0.5545  1.1108  0.0694
  995MOL0     C34225   5.637   1.300   1.086  0.3833 -0.6431  0.1884
  995MOL0     O34226   5.519   1.307   1.021  0.2155 -0.2456  0.2546
  995MOL0     C34227   5.398   1.255   1.074 -1.0431  0.5965  0.3015
  995MOL0     C34228   5.296   1.241   0.958 -0.2275  0.3890  0.2961
  995MOL0     C34229   5.252   1.386   0.907 -0.9610  1.2239  0.5689
  995MOL0     C34230   5.133   1.377   0.818  0.2265 -0.2607 -0.0695
  995MOL0     C34231   5.054   1.507   0.813 -0.1805  0.2237 -0.6532
  995MOL0     C34232   4.906   1.509   0.771 -0.4843  0.2854 -0.1226
  995MOL0     C34233   4.860   1.654   0.761 -0.2820  0.5790 -0.2071
  995MOL0     C34234   4.889   1.722   0.622  0.0242 -0.3827  0.7376
  995MOL0    Cl34235   4.795   1.647   0.485  0.0842  0.1015  0.1393
  995MOL0     C34236   5.656   1.234   1.201 -0.4351 -0.1952 -1.6678
  995MOL0     C34237   5.784   1.239   1.266 -0.0515 -0.5828 -0.0648
  995MOL0     O34238   6.059   1.131   1.293 -0.6568 -0.1425  0.4604
  995MOL0     C34239   6.293   1.182   1.433 -0.2167 -0.1921  0.1100
  995MOL0     C34240   6.414   1.225   1.497  0.2917  0.3362  0.3676
  995MOL0     N34241   6.827   0.970   1.807  0.0511  0.2875 -0.2238
  995MOL0     N34242   6.882   0.954   1.916 -1.1380  0.5019  0.5959
  995MOL0     C34243   8.119   0.929   2.403  0.7176 -0.6231  0.4832
  995MOL0     C34244   8.237   0.992   2.451 -0.8682  0.1392 -0.2214
  995MOL0     C34245   8.612   1.120   2.670 -0.0864  0.2095  0.3168
  995MOL0     C34246   8.743   1.140   2.608 -0.5594  0.4173 -0.9008
  995MOL0     C34247   8.856   1.141   2.697  0.2610  0.0110 -0.6649
  995MOL0     C34248   8.845   1.141   2.836 -0.5079  0.1895  0.8830
  995MOL0     O34249   8.961   1.131   2.915  0.2124 -0.2421 -0.4730
  995MOL0     C34250   8.960   1.185   3.048 -0.0791 -0.6087  0.5321
  995MOL0     C34251   9.082   1.271   3.072  0.5657 -0.1907 -0.3232
  995MOL0     C34252   9.100   1.291   3.225  0.5629 -0.6052 -0.0756
  995MOL0     C34253   9.240   1.355   3.259  0.3611 -1.2673 -0.8608
  995MOL0     C34254   9.347   1.275   3.202 -0.1183 -0.2855  0.1421
  995MOL0     C34255   9.436   1.221   3.143  0.6477 -0.6368  0.0837
  995MOL0     C34256   8.717   1.131   2.895  0.8539  0.6213  0.2849
  995MOL0     C34257   8.601   1.122   2.812  0.1955  0.7284  0.6443
  995MOL0     H34258   8.210   0.950   2.779  2.4120  0.4688 -0.3935
  995MOL0     H34259   7.984   0.846   2.699 -1.9424  2.8321 -0.7711
  995MOL0     H34260   7.870   0.973   2.331 -1.9785  0.2902 -0.2827
  995MOL0     H34261   7.876   0.820   2.252 -0.9196  1.6003 -0.7583
  995MOL0     H34262   7.676   0.749   2.390 -0.6745 -0.0887 -1.9700
  995MOL0     H34263   7.664   0.914   2.452 -0.5682 -0.9049  1.1803
  995MOL0     H34264   7.612   0.992   2.217 -1.6250  0.0262  0.7339
  995MOL0     H34265   7.660   0.835   2.155  1.1663  1.1239  0.3320
  995MOL0     H34266   7.470   0.723   2.286  0.2102  0.0085 -0.9851
  995MOL0     H34267   7.455   0.864   2.381  1.8481  0.0786  0.5570
  995MOL0     H34268   7.262   0.874   2.234  0.2830  1.0672  1.2177
  995MOL0     H34269   7.382   0.993   2.177  3.0323 -0.8608  1.1350
  995MOL0     H34270   7.451   0.829   1.995 -0.0714 -2.7105 -1.0629
  995MOL0     H34271   7.317   0.720   2.057  0.0771  0.4819  2.2009
  995MOL0     H34272   7.280   0.997   1.952 -0.1262 -0.1644  0.0743
  995MOL0     H34273   7.259   0.860   1.848 -0.4817  1.1165 -0.5550
  995MOL0     H34274   7.082   0.931   2.096 -2.6318 -0.8763 -1.1963
  995MOL0     H34275   7.066   0.789   1.992  0.2684 -0.5939  0.1465
  995MOL0     H34276   7.151   1.025   1.737  0.6994 -2.5572  0.9431
  995MOL0     H34277   6.991   1.103   1.531 -2.0561  1.5358 -2.4285
  995MOL0     H34278   6.866   0.981   1.513  2.3036 -1.4515  0.4306
  995MOL0     H34279   6.682   1.102   1.565  0.7722 -1.0685  0.3849
  995MOL0     H34280   6.782   1.207   1.459 -0.5761 -1.4740 -1.3211
  995MOL0     H34281   6.839   1.348   1.650  0.2984  0.8747 -0.3025
  995MOL0     H34282   6.778   1.228   1.758  1.2413 -1.6221 -1.2984
  995MOL0     H34283   6.653   1.446   1.710  3.2148  1.5677 -2.8698
  995MOL0     H34284   6.550   1.290   1.708 -0.3419  0.1988 -2.2077
  995MOL0     H34285   6.458   1.529   1.360 -1.0315  0.3822 -1.0267
  995MOL0     H34286   6.162   1.564   1.254 -1.6902 -0.4492 -0.9901
  995MOL0     H34287   6.317   1.551   1.174 -2.1264 -0.3681 -4.7319
  995MOL0     H34288   6.197   1.440   1.125 -2.7635  1.0599  0.7757
  995MOL0     H34289   5.942   1.462   1.056 -0.7283 -0.0251 -1.8586
  995MOL0     H34290   5.711   1.451   0.952  0.5450  0.3713 -0.9613
  995MOL0     H34291   5.417   1.154   1.112 -0.5324  0.5764  0.0015
  995MOL0     H34292   5.355   1.322   1.149 -0.3897  0.8213  0.4831
  995MOL0     H34293   5.341   1.194   0.871  1.0311  1.9489  0.0458
  995MOL0     H34294   5.206   1.198   1.003 -0.5292  1.4480  0.7384
  995MOL0     H34295   5.339   1.435   0.862  0.5635  0.8356  2.9352
  995MOL0     H34296   5.225   1.445   0.995  0.4247 -0.4465  2.1886
  995MOL0     H34297   5.160   1.346   0.716 -4.7498 -0.6140 -1.5587
  995MOL0     H34298   5.065   1.301   0.858  0.8284 -0.2077  1.0907
  995MOL0     H34299   5.106   1.581   0.751 -1.0274  0.1991 -1.4126
  995MOL0     H34300   5.049   1.555   0.911  0.4534 -3.0181  1.0663
  995MOL0     H34301   4.881   1.458   0.678 -1.0162  1.8296 -0.8693
  995MOL0     H34302   4.868   1.445   0.851  3.3707  0.2327  1.8921
  995MOL0     H34303   4.915   1.714   0.834  0.4209  0.3801 -0.5645
  995MOL0     H34304   4.752   1.663   0.771 -0.4664  0.4299 -1.8298
  995MOL0     H34305   4.995   1.728   0.594  0.0288 -1.5247  0.4576
  995MOL0     H34306   4.865   1.829   0.618  1.5960 -0.0236 -2.2916
  995MOL0     H34307   5.591   1.170   1.260  1.4639 -0.8748 -0.2061
  995MOL0     H34308   5.798   1.199   1.366  0.2609 -2.8552 -0.9470
  995MOL0     H34309   6.259   1.084   1.467 -1.3094  0.4178  0.8317
  995MOL0     H34310   6.441   1.155   1.575  0.7231  1.9510  1.7224
  995MOL0     H34311   8.099   0.921   2.296 -1.7597 -1.8986  0.9608
  995MOL0     H34312   8.295   1.031   2.368 -1.8093  0.8465 -0.5587
  995MOL0     H34313   8.766   1.127   2.503 -1.4574  3.2999 -1.5715
  995MOL0     H34314   8.953   1.134   2.649  0.1293  2.6997 -1.4758
  995MOL0     H34315   8.865   1.237   3.066  0.5156  0.0979  1.6970
  995MOL0     H34316   8.964   1.095   3.109  0.6586 -2.4001 -1.9814
  995MOL0     H34317   9.063   1.365   3.019 -2.7780 -2.4488 -3.5760
  995MOL0     H34318   9.171   1.237   3.018  0.5391 -0.5811 -0.1206
  995MOL0     H34319   9.099   1.200   3.287  3.7429  2.0390  4.4788
  995MOL0     H34320   9.010   1.342   3.261 -0.3299 -1.5489 -0.8948
  995MOL0     H34321   9.264   1.357   3.365  2.9174  2.5554 -1.3499
  995MOL0     H34322   9.257   1.457   3.225  0.4305 -1.1073 -0.3527
  995MOL0     H34323   9.527   1.182   3.101  2.4675  0.8183  2.3983
  995MOL0     H34324   8.702   1.120   3.001  0.6694 -6.1522  0.0230
  995MOL0     H34325   8.511   1.099   2.869  1.2061  0.7823  2.3148
  996MOL0     O34326   6.503  10.750   4.282 -1.2951  0.4426  0.0266
  996MOL0     C34327   6.594  10.664   4.266  1.0255  0.2661 -0.6993
  996MOL0     O34328   6.600  10.543   4.332 -0.5957 -0.0243  0.5564
  996MOL0     C34329   6.514  10.516   4.430  0.3726 -0.5209 -0.4508
  996MOL0     C34330   6.431  10.410   4.416 -0.6667  0.4228  0.5027
  996MOL0     C34331   6.349  10.359   4.514  0.3283 -0.6324 -0.5021
  996MOL0     C34332   6.347  10.425   4.641 -0.1295 -0.6557 -0.7933
  996MOL0     O34333   6.276  10.385   4.754  0.2523  0.5041 -0.0067
  996MOL0     C34334   6.171  10.290   4.733 -0.4958  0.1176  0.2099
  996MOL0     C34335   6.078  10.301   4.853  0.7523 -0.1083  0.2310
  996MOL0     C34336   5.961  10.196   4.857 -0.1729 -0.2404  0.2464
  996MOL0     C34337   5.886  10.210   4.989 -0.4390  0.0687  0.3337
  996MOL0     C34338   5.759  10.135   4.994  0.8584 -0.4651 -0.0261
  996MOL0     C34339   5.646  10.198   4.907  0.7350  0.0402 -0.8249
  996MOL0     C34340   5.515  10.111   4.927  1.1873  0.1986  1.0205
  996MOL0     C34341   5.403  10.194   4.853 -1.2528  0.6615 -0.4452
  996MOL0     N34342   5.270  10.165   4.907 -0.8788  0.2478 -0.6738
  996MOL0     C34343   5.170  10.257   4.899  0.5927 -0.4128 -0.5939
  996MOL0     C34344   5.051  10.197   4.897  0.2881 -0.5990  0.2715
  996MOL0     C34345   4.920  10.271   4.911 -0.6827 -0.6126  0.3304
  996MOL0     C34346   4.822  10.179   4.981  0.6643 -1.0201  0.5860
  996MOL0     C34347   4.677  10.235   4.974 -0.1952 -0.1794 -0.1535
  996MOL0     C34348   4.561  10.130   4.995 -0.6500 -0.0399  0.2690
  996MOL0     O34349   4.439  10.196   5.006  0.1731 -0.3182 -0.1832
  996MOL0     C34350   4.321  10.134   4.998  0.3424 -0.2431  1.0685
  996MOL0     C34351   4.211  10.202   5.054 -0.3486 -0.1160 -0.6694
  996MOL0     C34352   4.081  10.150   5.058 -0.3458 -0.2149  0.2925
  996MOL0     C34353   3.982  10.218   5.143  0.8063 -0.0167 -0.3991
  996MOL0     C34354   4.049  10.035   4.982  0.3604 -0.0883 -0.0186
  996MOL0     C34355   3.914   9.976   4.980  0.8349 -0.8961 -0.8592
  996MOL0     O34356   3.842   9.976   5.095 -0.2673  0.1080  0.6609
  996MOL0     C34357   3.704   9.966   5.088  0.9762  0.6585  0.0989
  996MOL0     C34358   3.649   9.839   5.059 -0.8948 -0.5059  0.5711
  996MOL0     C34359   3.513   9.834   5.024  0.1036 -0.3892  0.7327
  996MOL0     C34360   3.435   9.948   5.008 -0.2141  0.1386  0.1611
  996MOL0     O34361   3.302   9.961   4.969  0.0691  0.2313  0.2031
  996MOL0     C34362   3.250   9.869   4.878 -0.3842 -0.7912  0.9522
  996MOL0     C34363   3.161   9.768   4.951 -0.4214  0.3605 -0.3400
  996MOL0     C34364   3.087   9.695   4.841 -0.3770 -0.5945  0.3913
  996MOL0     C34365   2.995   9.588   4.895 -0.1289 -0.5852 -0.5271
  996MOL0     C34366   2.891   9.543   4.793  0.5922  0.0998  0.5845
  996MOL0     C34367   2.813   9.425   4.848  0.0414  0.1190  0.3120
  996MOL0     C34368   2.718   9.370   4.751  0.2803 -0.3306  1.0915
  996MOL0     C34369   2.690   9.229   4.784  0.5762  0.1302 -0.0038
  996MOL0    Cl34370   2.539   9.174   4.684  0.0207  0.2494  0.2133
  996MOL0     C34371   3.486  10.068   5.041  0.7188 -0.7136  0.3278
  996MOL0     C34372   3.625  10.081   5.072  0.1840 -0.4017 -0.1939
  996MOL0     O34373   3.876   9.943   4.865 -0.3332  0.0187 -0.2828
  996MOL0     C34374   4.153   9.979   4.904  0.6539 -0.8903  0.1137
  996MOL0     C34375   4.286  10.019   4.928  0.3659  0.0909 -0.0848
  996MOL0     N34376   5.081  10.067   4.910  0.1737  0.3977 -0.5060
  996MOL0     N34377   5.208  10.047   4.919  0.3978 -0.2123 -0.1203
  996MOL0     C34378   6.432  10.535   4.661  0.2782 -0.3092  0.3104
  996MOL0     C34379   6.508  10.582   4.554 -0.0959  0.3745  0.0756
  996MOL0     C34380   6.700  10.701   4.166  0.3132  0.0611 -0.4009
  996MOL0     C34381   6.763  10.605   4.100 -0.4407  0.0632 -0.5730
  996MOL0     C34382   6.857  10.640   4.009  0.8439  0.7187  0.3714
  996MOL0     C34383   6.891  10.776   3.982 -0.4303  0.6015  1.1041
  996MOL0     O34384   6.989  10.776   3.896 -0.3105 -0.4369  0.0918
  996MOL0     C34385   7.050  10.902   3.863  0.3884  0.3606 -0.4104
  996MOL0     C34386   7.168  10.941   3.960 -0.3152 -0.6794  0.0640
  996MOL0     C34387   7.274  10.830   3.956 -0.1912  0.0241  0.0840
  996MOL0     C34388   7.387  10.854   3.857 -0.1607 -0.7717  0.4216
  996MOL0     C34389   7.483  10.749   3.844 -0.4144 -0.3257  0.3207
  996MOL0     C34390   7.568  10.661   3.832  0.0201  0.1100  0.1795
  996MOL0     C34391   6.828  10.874   4.059  0.2375 -0.2311 -0.0821
  996MOL0     C34392   6.736  10.838   4.150 -0.1915  0.2706 -0.0616
  996MOL0     H34393   6.441  10.353   4.325  1.7950 -0.8341  1.4631
  996MOL0     H34394   6.284  10.275   4.494  1.2087 -1.6123  0.6018
  996MOL0     H34395   6.130  10.320   4.636  2.0592  0.9794 -0.6782
  996MOL0     H34396   6.212  10.189   4.733  0.8492  0.6372 -0.9509
  996MOL0     H34397   6.132  10.305   4.947 -0.1002 -1.3294  0.8093
  996MOL0     H34398   6.038  10.402   4.847  0.3921 -0.2890 -0.5370
  996MOL0     H34399   5.900  10.216   4.769 -0.2931  0.1046  0.4101
  996MOL0     H34400   6.005  10.097   4.840  1.0380  0.6568 -2.5750
  996MOL0     H34401   5.944  10.171   5.073  1.1343  4.1234  1.3870
  996MOL0     H34402   5.865  10.316   5.004  1.1341  0.2938  1.1029
  996MOL0     H34403   5.778  10.032   4.963  0.4852  0.2336 -2.8905
  996MOL0     H34404   5.716  10.149   5.093 -1.1371  4.5015 -1.2907
  996MOL0     H34405   5.643  10.301   4.942  0.7371 -0.6956  1.5492
  996MOL0     H34406   5.663  10.194   4.799 -1.9279  0.5467 -1.3383
  996MOL0     H34407   5.529  10.011   4.885 -0.1953  0.5268 -0.3243
  996MOL0     H34408   5.494  10.116   5.035 -2.4225  0.3279  0.4473
  996MOL0     H34409   5.394  10.155   4.752  1.6723  2.1577 -1.4193
  996MOL0     H34410   5.420  10.302   4.853 -0.8860  0.6440  1.5222
  996MOL0     H34411   5.184  10.365   4.896  1.7505 -0.5723 -2.0025
  996MOL0     H34412   4.924  10.368   4.962  0.1584  0.9214 -2.4676
  996MOL0     H34413   4.881  10.309   4.816 -3.7832 -1.2373  1.2124
  996MOL0     H34414   4.860  10.161   5.082  0.4015 -0.8655  0.7124
  996MOL0     H34415   4.826  10.081   4.933  2.4920 -1.2636  1.1491
  996MOL0     H34416   4.658  10.275   4.874 -1.4988 -0.8058 -0.1722
  996MOL0     H34417   4.663  10.315   5.048 -3.0221 -0.5459 -0.1855
  996MOL0     H34418   4.584  10.077   5.087 -0.0676  2.1588  1.4487
  996MOL0     H34419   4.555  10.062   4.909  0.0691  1.0996 -0.7116
  996MOL0     H34420   4.233  10.285   5.121  0.9179 -2.6042  2.2133
  996MOL0     H34421   4.018  10.313   5.182  0.5276  0.0871 -0.3875
  996MOL0     H34422   3.891  10.246   5.089  1.1269 -0.1228 -1.0045
  996MOL0     H34423   3.965  10.164   5.236  2.2673  0.8270  0.3761
  996MOL0     H34424   3.712   9.752   5.039  0.5040  0.6199 -0.1628
  996MOL0     H34425   3.457   9.741   5.021 -1.0454  0.0830  3.7117
  996MOL0     H34426   3.187   9.929   4.811  1.0341 -0.4543 -0.1457
  996MOL0     H34427   3.328   9.835   4.808 -3.4925  0.8181 -3.8228
  996MOL0     H34428   3.216   9.702   5.018 -1.5248  0.5492  0.7956
  996MOL0     H34429   3.100   9.834   5.013  1.4210  2.0605 -0.2307
  996MOL0     H34430   3.157   9.649   4.771  0.4820 -1.6590  1.9078
  996MOL0     H34431   3.023   9.767   4.787 -1.2315 -2.6245 -1.4655
  996MOL0     H34432   3.049   9.497   4.925 -1.6510 -1.7762 -1.2895
  996MOL0     H34433   2.944   9.614   4.988 -0.2368  0.5489 -0.8902
  996MOL0     H34434   2.947   9.505   4.707 -0.1881 -0.5657  0.3594
  996MOL0     H34435   2.833   9.631   4.764  1.6929  2.0674  3.8121
  996MOL0     H34436   2.887   9.349   4.873 -1.7568 -1.0955  2.2797
  996MOL0     H34437   2.758   9.460   4.936  0.1191 -0.6034  0.6572
  996MOL0     H34438   2.764   9.386   4.653 -0.9078 -0.7017  0.4523
  996MOL0     H34439   2.619   9.417   4.750 -0.6740 -2.2082 -0.3446
  996MOL0     H34440   2.662   9.222   4.890  3.4219 -1.9544  0.7409
  996MOL0     H34441   2.779   9.170   4.757  0.9469  1.1525 -1.0548
  996MOL0     H34442   3.437  10.162   5.021 -1.7740 -1.5550  2.0015
  996MOL0     H34443   3.658  10.185   5.077 -0.7155 -0.0830 -0.6939
  996MOL0     H34444   4.140   9.896   4.835  1.9562  0.5453 -1.9873
  996MOL0     H34445   4.367   9.969   4.877 -0.9106  1.5436 -3.8763
  996MOL0     H34446   6.424  10.594   4.752 -0.3733  0.8518 -0.4615
  996MOL0     H34447   6.572  10.666   4.581  2.2546 -1.5983  1.1313
  996MOL0     H34448   6.746  10.504   4.136  2.4671 -0.3487 -0.1514
  996MOL0     H34449   6.905  10.560   3.955  1.2822  1.0582  0.2487
  996MOL0     H34450   7.094  10.880   3.766 -0.7433 -2.1929 -0.4291
  996MOL0     H34451   6.975  10.982   3.860 -0.1921 -0.0046  2.1077
  996MOL0     H34452   7.118  10.945   4.058  0.2870  1.4666  0.3413
  996MOL0     H34453   7.214  11.037   3.935 -1.4667 -0.1376 -0.0807
  996MOL0     H34454   7.227  10.735   3.931 -0.7058  0.3904 -0.3773
  996MOL0     H34455   7.320  10.826   4.055  0.6927  0.0954 -0.3117
  996MOL0     H34456   7.444  10.946   3.875 -1.9407  0.4396  0.0800
  996MOL0     H34457   7.344  10.882   3.761 -0.9537  3.1975  1.7285
  996MOL0     H34458   7.639  10.581   3.820 -1.2739 -0.7072 -2.7668
  996MOL0     H34459   6.846  10.981   4.048 -1.1220 -0.1832 -2.3215
  996MOL0     H34460   6.681  10.915   4.204 -1.0219 -1.0932  1.1075
  997MOL0     O34461   9.218  11.159   8.944  0.5574  1.0259  0.2941
  997MOL0     C34462   9.280  11.229   9.026  0.8068  0.7321 -0.4350
  997MOL0     O34463   9.228  11.311   9.128  0.1295 -0.5954 -0.5788
  997MOL0     C34464   9.090  11.316   9.119  0.3210  0.9322  0.5980
  997MOL0     C34465   9.028  11.398   9.028  0.2494  0.7008  0.8105
  997MOL0     C34466   8.888  11.397   9.026  0.4848 -0.3786 -0.5021
  997MOL0     C34467   8.811  11.305   9.099 -0.0066 -0.0885  0.0762
  997MOL0     O34468   8.672  11.297   9.075  0.1301 -0.4158  0.0526
  997MOL0     C34469   8.582  11.236   9.180 -0.4161 -0.0374  0.4673
  997MOL0     C34470   8.433  11.277   9.162 -0.2515  0.1135 -0.1680
  997MOL0     C34471   8.331  11.243   9.270 -0.6652 -0.1002 -0.6685
  997MOL0     C34472   8.234  11.128   9.233 -1.0929  0.0490 -0.1094
  997MOL0     C34473   8.114  11.184   9.147  0.6131 -0.2575 -0.4188
  997MOL0     C34474   8.003  11.077   9.150  0.3493  0.4676 -0.3798
  997MOL0     C34475   7.895  11.122   9.042 -0.6037  0.2846 -0.1090
  997MOL0     C34476   7.800  10.996   9.018  0.1366  0.3085 -0.2569
  997MOL0     N34477   7.699  11.026   8.917 -0.3551  0.4383  0.5077
  997MOL0     C34478   7.721  11.040   8.779  0.0866  0.2162 -1.0720
  997MOL0     C34479   7.594  11.050   8.735  0.6031 -0.1120 -0.5222
  997MOL0     C34480   7.546  11.058   8.588  0.4700  0.4478  0.7423
  997MOL0     C34481   7.413  11.141   8.559 -0.2881  0.2177 -0.3854
  997MOL0     C34482   7.397  11.150   8.407 -0.2647  0.1888  0.2968
  997MOL0     C34483   7.260  11.216   8.381  0.7178  0.3571  0.1148
  997MOL0     O34484   7.152  11.120   8.424 -0.7032  0.7186 -0.1677
  997MOL0     C34485   7.031  11.145   8.358  0.1321 -0.1371  0.6107
  997MOL0     C34486   6.996  11.257   8.272 -0.0827 -0.2510  0.0828
  997MOL0     C34487   6.867  11.282   8.231  0.5363 -0.2350  0.3071
  997MOL0     C34488   6.840  11.402   8.149  0.6840  0.5981  0.6233
  997MOL0     C34489   6.770  11.184   8.253  0.1437  0.6478  0.4272
  997MOL0     C34490   6.633  11.200   8.211  0.9602  0.5022  0.8731
  997MOL0     O34491   6.572  11.079   8.165 -0.9321  0.0808  0.7487
  997MOL0     C34492   6.429  11.061   8.166 -0.7880  0.1573 -0.1595
  997MOL0     C34493   6.353  11.155   8.098  0.2494 -0.8736 -0.1076
  997MOL0     C34494   6.208  11.134   8.102 -0.3057  0.3725  0.1458
  997MOL0     C34495   6.153  11.018   8.164 -0.5368  0.8751 -0.4180
  997MOL0     O34496   6.018  10.989   8.151 -0.2589 -0.1874  0.2454
  997MOL0     C34497   5.947  10.949   8.269 -0.1162  0.4965 -0.2366
  997MOL0     C34498   5.820  10.862   8.246 -0.7127 -0.0760 -0.1509
  997MOL0     C34499   5.861  10.740   8.158  0.3014  0.2171 -0.0172
  997MOL0     C34500   5.758  10.626   8.128  0.3968 -0.5045 -0.7056
  997MOL0     C34501   5.672  10.666   8.009  0.5805  0.4494 -0.3038
  997MOL0     C34502   5.540  10.588   7.995  0.0936  0.5637 -0.2638
  997MOL0     C34503   5.563  10.437   7.989  0.7642  0.2483  0.3661
  997MOL0     C34504   5.474  10.362   7.902 -0.0097  0.3672 -0.3261
  997MOL0    Cl34505   5.479  10.176   7.931 -0.3060 -0.3574  0.3086
  997MOL0     C34506   6.238  10.929   8.241 -0.3625 -1.1229  0.1670
  997MOL0     C34507   6.375  10.959   8.240  1.0700 -0.1639  0.1762
  997MOL0     O34508   6.574  11.304   8.216  0.6648  0.0845 -0.2113
  997MOL0     C34509   6.802  11.074   8.344  0.3441  0.2514  0.1088
  997MOL0     C34510   6.931  11.053   8.385 -0.1058 -0.1992  0.4539
  997MOL0     N34511   7.508  11.040   8.839 -0.3832 -0.0260 -0.3992
  997MOL0     N34512   7.569  11.025   8.948 -0.6794 -0.8818 -0.2596
  997MOL0     C34513   8.871  11.244   9.201 -0.2254  0.2841 -0.1473
  997MOL0     C34514   9.010  11.241   9.209 -0.2535  0.7804  1.0897
  997MOL0     C34515   9.429  11.241   9.013 -0.0099  0.1825  0.3713
  997MOL0     C34516   9.490  11.355   9.065  0.1851 -0.6038  0.3419
  997MOL0     C34517   9.622  11.378   9.055  0.1136 -0.1441 -0.6596
  997MOL0     C34518   9.699  11.286   8.978 -0.8505  1.0845  0.6780
  997MOL0     O34519   9.824  11.323   8.946 -0.1761 -0.2639  0.2312
  997MOL0     C34520   9.846  11.339   8.806  0.1806  0.5176 -0.1643
  997MOL0     C34521   9.990  11.311   8.768  0.3399 -1.0852 -0.2926
  997MOL0     C34522  10.080  11.426   8.815  0.3262 -0.2854 -0.7523
  997MOL0     C34523  10.216  11.414   8.741  0.2722  0.1343  0.1205
  997MOL0     C34524  10.301  11.526   8.788 -0.5573  0.4836  0.4282
  997MOL0     C34525  10.383  11.615   8.821 -0.0159  0.0870  0.4496
  997MOL0     C34526   9.640  11.167   8.936 -0.5243  0.1200  0.8352
  997MOL0     C34527   9.504  11.147   8.944 -0.4063  0.7391  0.0826
  997MOL0     H34528   9.072  11.465   8.954  0.6361 -1.2275 -0.8054
  997MOL0     H34529   8.846  11.453   8.944 -0.0857  3.6551  2.2311
  997MOL0     H34530   8.597  11.128   9.174 -0.7996 -0.0762  0.2156
  997MOL0     H34531   8.604  11.278   9.279  0.8561 -1.1910  0.7164
  997MOL0     H34532   8.435  11.386   9.153  1.5375  0.1814  0.6491
  997MOL0     H34533   8.389  11.239   9.070  0.1137 -0.9088  0.0690
  997MOL0     H34534   8.396  11.216   9.354  0.3178  0.3158 -1.2844
  997MOL0     H34535   8.271  11.331   9.293 -0.1277  0.1280 -0.1019
  997MOL0     H34536   8.297  11.056   9.180 -1.9941 -1.0199  0.2382
  997MOL0     H34537   8.192  11.084   9.324 -1.6408  1.2356  0.2273
  997MOL0     H34538   8.080  11.275   9.197 -1.6505 -0.6352 -1.1866
  997MOL0     H34539   8.140  11.225   9.049  0.1679 -0.8876 -0.8022
  997MOL0     H34540   8.055  10.985   9.120 -0.2068  0.1612 -0.4090
  997MOL0     H34541   7.966  11.070   9.252 -1.3208 -1.5881 -1.0585
  997MOL0     H34542   7.837  11.208   9.077 -0.1319  0.5540  0.0251
  997MOL0     H34543   7.921  11.146   8.939 -2.9913 -1.2138 -1.1250
  997MOL0     H34544   7.752  10.956   9.108  0.2136 -2.0961 -1.2285
  997MOL0     H34545   7.855  10.915   8.969 -1.3851  0.0389 -1.6090
  997MOL0     H34546   7.815  11.032   8.726  1.1656  2.4092  0.3438
  997MOL0     H34547   7.628  11.101   8.529  1.2662 -3.2834 -1.1347
  997MOL0     H34548   7.525  10.955   8.557 -1.8929  0.3494  2.4361
  997MOL0     H34549   7.427  11.240   8.603  3.2718 -0.4617  0.3533
  997MOL0     H34550   7.323  11.097   8.601  0.3525 -2.5494 -1.6887
  997MOL0     H34551   7.395  11.059   8.346  0.7477  1.2821 -1.4559
  997MOL0     H34552   7.476  11.208   8.359 -1.4123  1.2156 -0.3946
  997MOL0     H34553   7.254  11.227   8.272 -0.9713  0.0589  0.1571
  997MOL0     H34554   7.260  11.310   8.437  1.2226  0.9794 -0.9025
  997MOL0     H34555   7.071  11.332   8.245  1.3909 -1.7853 -0.2476
  997MOL0     H34556   6.779  11.380   8.061  0.5817 -1.4963  1.1799
  997MOL0     H34557   6.771  11.472   8.197 -0.8086  0.5806 -1.3799
  997MOL0     H34558   6.917  11.476   8.124 -1.0969  2.6076  0.8480
  997MOL0     H34559   6.397  11.246   8.058  1.2133 -0.8403  1.0189
  997MOL0     H34560   6.139  11.211   8.071 -1.2650  0.6864  2.7656
  997MOL0     H34561   6.011  10.892   8.337 -3.0825 -1.5834  1.0406
  997MOL0     H34562   5.920  11.042   8.320 -0.1328 -0.9272  2.5478
  997MOL0     H34563   5.782  10.828   8.342 -3.5700  1.0453 -0.7864
  997MOL0     H34564   5.744  10.927   8.201 -0.4921  0.7006  0.5661
  997MOL0     H34565   5.949  10.691   8.201 -0.0667 -0.1104  0.3651
  997MOL0     H34566   5.884  10.776   8.057 -2.2770  0.4018 -0.5885
  997MOL0     H34567   5.812  10.532   8.111 -0.2138 -1.0735  0.4001
  997MOL0     H34568   5.693  10.614   8.216 -1.1498 -1.9733 -1.9780
  997MOL0     H34569   5.729  10.653   7.917 -0.7095 -3.0711 -0.7999
  997MOL0     H34570   5.651  10.770   8.034 -1.8756  0.0526 -0.4021
  997MOL0     H34571   5.479  10.617   8.081 -0.3504 -0.0934 -0.3557
  997MOL0     H34572   5.489  10.616   7.903 -3.1297 -0.2370  1.1639
  997MOL0     H34573   5.540  10.395   8.087 -0.7562 -1.5407 -0.7068
  997MOL0     H34574   5.669  10.414   7.972  0.4103  0.0804 -1.9316
  997MOL0     H34575   5.509  10.392   7.802 -0.1617  0.7952 -0.2530
  997MOL0     H34576   5.371  10.392   7.919 -0.6203 -2.3391  1.2217
  997MOL0     H34577   6.202  10.836   8.285  1.5759 -2.6491 -1.2663
  997MOL0     H34578   6.442  10.890   8.290 -2.7073 -2.7891  2.0459
  997MOL0     H34579   6.727  11.000   8.369 -2.6174  2.7632 -0.7106
  997MOL0     H34580   6.965  10.977   8.454  3.0200  0.5800 -0.0723
  997MOL0     H34581   8.809  11.188   9.269 -2.6208  1.8989 -0.8667
  997MOL0     H34582   9.051  11.181   9.290 -0.4128 -0.1505  0.4965
  997MOL0     H34583   9.448  11.444   9.109  3.4216  0.5485  1.3976
  997MOL0     H34584   9.659  11.472   9.094 -1.5346  0.5016 -0.5593
  997MOL0     H34585   9.789  11.264   8.751 -2.1333  0.5697  1.9704
  997MOL0     H34586   9.804  11.433   8.767  0.4102  1.6249  2.0560
  997MOL0     H34587   9.993  11.302   8.659 -2.4976 -0.5541 -0.4937
  997MOL0     H34588  10.014  11.215   8.815  1.2485  0.6336  3.0584
  997MOL0     H34589  10.104  11.433   8.921 -0.2677 -0.0747 -0.6256
  997MOL0     H34590  10.035  11.521   8.786 -0.6218 -0.5307 -0.1385
  997MOL0     H34591  10.195  11.426   8.634  0.7193 -1.6103 -0.1958
  997MOL0     H34592  10.259  11.316   8.764  1.1014  0.7531  1.2888
  997MOL0     H34593  10.453  11.686   8.860 -0.8923  0.8240  0.7081
  997MOL0     H34594   9.691  11.087   8.883 -0.7480 -0.1920  1.0886
  997MOL0     H34595   9.464  11.057   8.899  2.5942  0.8387 -3.2422
  998MOL0     O34596   8.821   3.010   3.757 -0.6253 -0.4130  0.3974
  998MOL0     C34597   8.910   2.960   3.681 -0.3126 -0.2862  0.6903
  998MOL0     O34598   8.896   2.867   3.577 -0.4660 -0.3424  0.5854
  998MOL0     C34599   8.764   2.833   3.544  0.4088 -0.2996  0.5119
  998MOL0     C34600   8.712   2.883   3.420 -0.8755  0.4137 -0.3822
  998MOL0     C34601   8.582   2.849   3.393 -0.6173  0.0747 -0.7696
  998MOL0     C34602   8.494   2.781   3.483  0.6025  1.1095  0.7982
  998MOL0     O34603   8.372   2.745   3.442  0.0714 -0.5408  0.0083
  998MOL0     C34604   8.269   2.696   3.530 -0.0085  0.1237 -1.1666
  998MOL0     C34605   8.141   2.691   3.450  0.3394 -0.2334 -1.5515
  998MOL0     C34606   8.006   2.677   3.529 -0.2196  0.3166 -0.2588
  998MOL0     C34607   7.894   2.646   3.423 -0.4366  0.6490 -0.1673
  998MOL0     C34608   7.855   2.774   3.331  0.2180  0.5223  0.0649
  998MOL0     C34609   7.726   2.738   3.254 -0.1169 -0.8129 -0.1110
  998MOL0     C34610   7.727   2.607   3.175  0.3423 -0.1064  0.2321
  998MOL0     C34611   7.828   2.615   3.067  0.1861  0.1898 -0.5274
  998MOL0     N34612   7.822   2.500   2.972  0.2089  0.2719  0.0339
  998MOL0     C34613   7.714   2.475   2.885  0.1137 -0.7059 -0.5106
  998MOL0     C34614   7.753   2.374   2.807 -0.2790 -0.2562  0.1010
  998MOL0     C34615   7.675   2.302   2.705 -0.3337 -0.4272 -0.7183
  998MOL0     C34616   7.604   2.169   2.764 -0.0284 -0.0454 -0.0652
  998MOL0     C34617   7.544   2.069   2.665 -0.4899  0.0765  0.0487
  998MOL0     C34618   7.465   1.954   2.715 -0.2579  1.0969 -0.0455
  998MOL0     O34619   7.337   1.980   2.771  0.4211  0.3571  0.5357
  998MOL0     C34620   7.231   2.026   2.696 -0.0249  0.5716 -0.6234
  998MOL0     C34621   7.110   2.048   2.773 -0.5333 -0.8296  0.2397
  998MOL0     C34622   6.989   2.088   2.705  0.6363  0.1312 -0.7866
  998MOL0     C34623   6.871   2.100   2.803  0.6799 -0.0620 -0.2085
  998MOL0     C34624   6.984   2.107   2.563 -0.3237  0.4430  0.3778
  998MOL0     C34625   6.870   2.155   2.496  0.6443 -0.2014 -0.4714
  998MOL0     O34626   6.801   2.259   2.559 -0.0996 -0.2057  0.1093
  998MOL0     C34627   6.667   2.279   2.542 -0.0352  0.4276  0.6387
  998MOL0     C34628   6.585   2.168   2.527  0.9952  0.0277  0.3005
  998MOL0     C34629   6.452   2.166   2.508  0.5653 -0.3067  0.2855
  998MOL0     C34630   6.386   2.289   2.526  0.1852  0.7404  0.7279
  998MOL0     O34631   6.249   2.293   2.497  0.4087  0.1875 -0.0886
  998MOL0     C34632   6.160   2.386   2.574 -0.5020 -0.4418  0.0249
  998MOL0     C34633   6.097   2.477   2.470 -0.2893 -0.4473 -0.1127
  998MOL0     C34634   5.944   2.430   2.463 -0.0646 -0.8372 -0.7027
  998MOL0     C34635   5.851   2.532   2.393 -0.5936  0.5468 -0.2021
  998MOL0     C34636   5.709   2.480   2.400  0.6712  0.2692  0.6259
  998MOL0     C34637   5.612   2.563   2.321  0.1205 -0.3578 -0.6914
  998MOL0     C34638   5.648   2.571   2.178  0.1156  0.0332  0.0631
  998MOL0     C34639   5.554   2.643   2.096  0.4315 -0.0571  0.2522
  998MOL0    Cl34640   5.576   2.816   2.131  0.5636 -0.0019  0.0356
  998MOL0     C34641   6.461   2.406   2.555 -0.4536 -0.5617 -0.7206
  998MOL0     C34642   6.604   2.403   2.559  0.5281  0.4639  0.5114
  998MOL0     O34643   6.847   2.116   2.380 -0.2052 -0.0994  0.1295
  998MOL0     C34644   7.104   2.076   2.499 -0.5015  0.2164  0.4360
  998MOL0     C34645   7.223   2.041   2.556 -1.0086 -0.0361  0.4386
  998MOL0     N34646   7.875   2.336   2.839  0.0252  0.6795 -0.7105
  998MOL0     N34647   7.919   2.401   2.948 -0.6419  0.7145  0.6552
  998MOL0     C34648   8.549   2.740   3.606 -0.0158  0.2592 -0.6615
  998MOL0     C34649   8.683   2.768   3.636 -0.6956  0.4532  0.3115
  998MOL0     C34650   9.048   3.012   3.700  0.3848  0.0898 -0.4594
  998MOL0     C34651   9.155   2.968   3.627 -0.7940  0.5113  0.4114
  998MOL0     C34652   9.287   3.005   3.657 -0.5266 -0.7745 -0.7152
  998MOL0     C34653   9.313   3.093   3.763 -0.2004 -0.1311  0.1614
  998MOL0     O34654   9.443   3.118   3.806  0.5069  0.1611  0.5809
  998MOL0     C34655   9.554   3.100   3.719  0.3965  0.2223  0.1519
  998MOL0     C34656   9.679   3.075   3.811  0.8103 -0.4078  0.2595
  998MOL0     C34657   9.692   3.187   3.914  0.6101 -1.2661 -0.0531
  998MOL0     C34658   9.794   3.292   3.864 -0.3368  0.7008  0.6780
  998MOL0     C34659   9.934   3.260   3.881  0.3854  0.9947 -0.4416
  998MOL0     C34660  10.051   3.255   3.899 -0.0474  0.5880  0.0946
  998MOL0     C34661   9.203   3.143   3.834 -0.9680 -0.5190  0.0233
  998MOL0     C34662   9.069   3.096   3.806 -0.9227  0.3738 -0.4304
  998MOL0     H34663   8.775   2.934   3.349 -0.3940 -2.0500 -1.8525
  998MOL0     H34664   8.539   2.885   3.300  0.9155  1.2168 -1.0666
  998MOL0     H34665   8.293   2.591   3.550 -1.0097  0.0514 -0.2749
  998MOL0     H34666   8.267   2.749   3.625  0.4383  0.1307 -1.1585
  998MOL0     H34667   8.145   2.781   3.388  1.6866  1.7527  1.2411
  998MOL0     H34668   8.151   2.600   3.389  2.2014 -2.4844  1.7866
  998MOL0     H34669   8.009   2.593   3.598  1.4326  0.2681 -0.3516
  998MOL0     H34670   7.985   2.774   3.576  0.5966  0.3809 -0.0126
  998MOL0     H34671   7.938   2.577   3.351  0.5658  2.8196 -1.7355
  998MOL0     H34672   7.805   2.606   3.474  0.8257  1.3865  2.8837
  998MOL0     H34673   7.842   2.859   3.398  1.8914  0.6549  0.2462
  998MOL0     H34674   7.933   2.799   3.259  0.7328 -1.2313 -0.0467
  998MOL0     H34675   7.642   2.746   3.324 -0.3002 -0.4732 -0.3696
  998MOL0     H34676   7.713   2.824   3.188 -0.5709 -0.0885  0.8993
  998MOL0     H34677   7.751   2.532   3.251 -0.8264 -0.8847 -0.1337
  998MOL0     H34678   7.629   2.582   3.134  0.3282 -0.6946  0.6118
  998MOL0     H34679   7.926   2.600   3.113  1.3060  3.2136 -1.6482
  998MOL0     H34680   7.820   2.709   3.010  1.2916 -0.0081 -1.0486
  998MOL0     H34681   7.621   2.530   2.882  1.3196  1.5407 -4.0932
  998MOL0     H34682   7.594   2.371   2.681  1.5639  1.6686 -1.5529
  998MOL0     H34683   7.743   2.269   2.626  0.9243  1.9824 -0.7358
  998MOL0     H34684   7.521   2.202   2.826 -0.2125 -1.3201  0.4058
  998MOL0     H34685   7.676   2.120   2.830  0.6442 -0.0219 -0.7658
  998MOL0     H34686   7.633   2.025   2.618 -1.5208 -2.2578  0.1487
  998MOL0     H34687   7.483   2.120   2.590 -1.1409 -0.5363  0.1609
  998MOL0     H34688   7.512   1.897   2.796 -0.4796  2.6958  1.2440
  998MOL0     H34689   7.456   1.885   2.630  1.1797 -0.0275  0.6766
  998MOL0     H34690   7.125   2.037   2.880 -1.3352  1.7933  0.6909
  998MOL0     H34691   6.774   2.071   2.760  0.3170  0.3008  0.3576
  998MOL0     H34692   6.881   2.051   2.900 -1.9835 -0.0898  0.1219
  998MOL0     H34693   6.865   2.207   2.824 -0.7058 -0.2663  0.5661
  998MOL0     H34694   6.627   2.068   2.523  0.3695 -0.3530  2.0451
  998MOL0     H34695   6.391   2.081   2.481 -0.1112  0.2494  0.0272
  998MOL0     H34696   6.092   2.338   2.643 -2.5952  0.8328 -1.0504
  998MOL0     H34697   6.210   2.450   2.647 -2.0210 -1.4213  2.0092
  998MOL0     H34698   6.096   2.579   2.509 -2.1118 -0.6251  0.3920
  998MOL0     H34699   6.138   2.467   2.370 -3.3871  2.3002 -1.8463
  998MOL0     H34700   5.901   2.421   2.563  2.4381 -0.6352  0.4642
  998MOL0     H34701   5.946   2.330   2.418  0.3162 -0.5761 -1.2799
  998MOL0     H34702   5.859   2.634   2.432  1.5856  0.6170 -0.6938
  998MOL0     H34703   5.878   2.533   2.287  0.5178  0.5950  0.0674
  998MOL0     H34704   5.677   2.468   2.504 -0.0508  0.0207  0.3831
  998MOL0     H34705   5.708   2.380   2.355  1.5836  0.5532 -0.0474
  998MOL0     H34706   5.516   2.511   2.328 -0.5342  0.9939  1.8100
  998MOL0     H34707   5.608   2.666   2.359 -0.4650 -0.1334 -1.3382
  998MOL0     H34708   5.656   2.467   2.147  2.0759  0.3804 -0.7434
  998MOL0     H34709   5.742   2.625   2.167  0.3460 -0.2323  0.6557
  998MOL0     H34710   5.448   2.628   2.118 -0.0101  3.2758  0.8412
  998MOL0     H34711   5.567   2.636   1.988  0.7707 -0.1746  0.2998
  998MOL0     H34712   6.414   2.503   2.565 -0.6173 -0.6232 -0.8879
  998MOL0     H34713   6.661   2.493   2.576 -0.9761  1.6332 -0.3339
  998MOL0     H34714   7.122   2.085   2.392 -0.7801  2.6782  0.5440
  998MOL0     H34715   7.308   2.027   2.491 -0.1200 -0.5080  1.6592
  998MOL0     H34716   8.485   2.692   3.679 -2.0400  1.5591 -1.5007
  998MOL0     H34717   8.728   2.746   3.732 -1.1609  2.4168  1.0309
  998MOL0     H34718   9.139   2.901   3.543 -2.4572  0.4997  0.7166
  998MOL0     H34719   9.363   2.964   3.591  0.9457 -0.9153  0.9792
  998MOL0     H34720   9.539   3.003   3.670 -1.1376  1.0989 -1.2273
  998MOL0     H34721   9.559   3.176   3.640 -0.6920  1.0985  0.9056
  998MOL0     H34722   9.767   3.070   3.745  1.8655  0.4499  1.5361
  998MOL0     H34723   9.674   2.979   3.863  0.2054  0.2923  1.5355
  998MOL0     H34724   9.719   3.144   4.011 -0.8924  2.0082  1.9837
  998MOL0     H34725   9.598   3.242   3.925  1.0252 -0.1345 -1.8410
  998MOL0     H34726   9.773   3.387   3.914 -0.7592 -0.5550  3.0113
  998MOL0     H34727   9.779   3.310   3.757 -1.4268  2.5634  1.0971
  998MOL0     H34728  10.155   3.248   3.922 -0.0063  0.5968 -0.0998
  998MOL0     H34729   9.229   3.206   3.918 -0.2127 -1.1156  0.2523
  998MOL0     H34730   8.985   3.133   3.863 -0.7319  1.4008 -0.7933
  999MOL0     O34731   2.196   3.637   6.024 -0.1412  0.1614  0.2825
  999MOL0     C34732   2.233   3.528   6.070  0.5390  0.0341  0.4299
  999MOL0     O34733   2.162   3.447   6.150  0.0513  0.9237  0.3353
  999MOL0     C34734   2.042   3.482   6.195 -0.4509  0.5039  0.2223
  999MOL0     C34735   2.036   3.514   6.335  0.0802  0.0152 -0.2466
  999MOL0     C34736   1.910   3.558   6.374 -0.5853 -0.1274 -0.5614
  999MOL0     C34737   1.796   3.560   6.289 -0.5363 -0.4639  0.2438
  999MOL0     O34738   1.671   3.582   6.343  0.4378 -0.5678 -0.4616
  999MOL0     C34739   1.569   3.642   6.263  0.5164 -0.3323 -0.4342
  999MOL0     C34740   1.434   3.664   6.326  1.0204 -0.7879  0.0367
  999MOL0     C34741   1.345   3.761   6.242 -0.2706  0.4853  0.3108
  999MOL0     C34742   1.201   3.740   6.291 -0.2621 -0.6409  0.0420
  999MOL0     C34743   1.111   3.841   6.217  0.9375  0.0619  0.4396
  999MOL0     C34744   0.959   3.825   6.255  0.0768 -0.0752 -0.3969
  999MOL0     C34745   0.866   3.929   6.189  0.1604 -0.0555  0.9250
  999MOL0     C34746   0.724   3.923   6.251 -0.4943 -0.0072  0.9418
  999MOL0     N34747   0.630   4.005   6.173  0.5708  0.7884 -0.4814
  999MOL0     C34748   0.552   3.944   6.075 -0.2768  0.0087  0.1936
  999MOL0     C34749   0.486   4.049   6.012 -0.6207  0.4311  0.0583
  999MOL0     C34750   0.392   4.042   5.890 -0.3730  0.3145  0.0744
  999MOL0     C34751   0.250   4.017   5.939  0.2071  0.2781  0.4516
  999MOL0     C34752   0.153   3.998   5.823  1.0237  0.1276 -0.4328
  999MOL0     C34753   0.164   3.853   5.774  0.1990  0.1544 -1.0885
  999MOL0     O34754   0.105   3.771   5.874 -0.0022 -0.2613  0.1783
  999MOL0     C34755   0.043   3.657   5.829  0.1399 -0.1461 -0.5289
  999MOL0     C34756   0.112   3.566   5.751 -0.5155  0.5805 -0.1651
  999MOL0     C34757   0.058   3.440   5.711  0.4569  0.2438  0.2049
  999MOL0     C34758   0.154   3.337   5.655 -0.7244 -0.2348 -0.5615
  999MOL0     C34759  -0.086   3.423   5.717 -0.8562  0.1246  0.0003
  999MOL0     C34760  -0.160   3.311   5.650  0.1458 -0.1430  0.2872
  999MOL0     O34761  -0.278   3.265   5.710 -0.6263  0.1946  0.3747
  999MOL0     C34762  -0.328   3.156   5.643  0.5775  0.0430  0.2760
  999MOL0     C34763  -0.344   3.036   5.727  0.4985 -0.2058 -0.1179
  999MOL0     C34764  -0.374   2.908   5.671 -0.2270  0.3262 -0.3619
  999MOL0     C34765  -0.416   2.904   5.546  0.2841 -0.1792 -0.2791
  999MOL0     O34766  -0.461   2.784   5.501  0.0414  0.3763  0.2259
  999MOL0     C34767  -0.595   2.774   5.453 -0.5073  0.5131 -0.5874
  999MOL0     C34768  -0.646   2.626   5.459 -0.0341  0.8350 -0.1252
  999MOL0     C34769  -0.581   2.545   5.348  0.5729 -0.0061  0.4393
  999MOL0     C34770  -0.610   2.595   5.203 -0.0379 -0.8359  0.3639
  999MOL0     C34771  -0.568   2.495   5.096  0.7419  0.3793 -0.3659
  999MOL0     C34772  -0.650   2.369   5.079  0.1406  0.8857  1.1844
  999MOL0     C34773  -0.581   2.267   4.976  0.0815 -0.6503  0.4368
  999MOL0     C34774  -0.640   2.276   4.832 -1.0800  0.2267 -0.3512
  999MOL0    Cl34775  -0.637   2.444   4.774 -0.3255 -0.3829 -0.2659
  999MOL0     C34776  -0.406   3.025   5.467 -0.2646  0.2643  0.4029
  999MOL0     C34777  -0.363   3.145   5.512  0.5498 -0.0401  0.8189
  999MOL0     O34778  -0.108   3.271   5.541  0.2510 -0.0740 -0.6431
  999MOL0     C34779  -0.159   3.525   5.774 -0.1637 -0.6684 -0.3739
  999MOL0     C34780  -0.092   3.638   5.834 -0.0247 -0.7383  0.4257
  999MOL0     N34781   0.521   4.161   6.083  0.1434 -0.2097 -0.3802
  999MOL0     N34782   0.609   4.140   6.170 -0.2625  0.0780  0.3945
  999MOL0     C34783   1.813   3.548   6.151  0.4702  0.1023  0.3908
  999MOL0     C34784   1.935   3.505   6.105 -0.1661  0.0606 -0.1064
  999MOL0     C34785   2.351   3.457   6.007  0.1436 -0.3388  0.4926
  999MOL0     C34786   2.420   3.522   5.904  0.2851  0.2053 -0.2500
  999MOL0     C34787   2.527   3.457   5.836  0.7631  0.4263  0.0457
  999MOL0     C34788   2.568   3.328   5.877  0.1461 -0.1288 -0.1531
  999MOL0     O34789   2.660   3.254   5.800 -0.6379  0.2883 -0.1058
  999MOL0     C34790   2.749   3.148   5.847 -0.7819 -0.1473 -0.4246
  999MOL0     C34791   2.848   3.218   5.940 -0.9323  0.7375 -0.2217
  999MOL0     C34792   2.934   3.321   5.874 -0.2520  0.2776  0.0564
  999MOL0     C34793   3.038   3.387   5.976  0.9107  0.0408 -0.6757
  999MOL0     C34794   2.962   3.493   6.052  0.4258 -0.5604 -0.1328
  999MOL0     C34795   2.884   3.571   6.102  0.1359 -0.5213  0.0881
  999MOL0     C34796   2.514   3.274   5.988 -0.7763  0.0353 -1.0962
  999MOL0     C34797   2.398   3.332   6.043  0.0369  0.4950  0.4023
  999MOL0     H34798   2.122   3.496   6.397 -0.2034  2.1963  0.8703
  999MOL0     H34799   1.902   3.580   6.480  0.5178  4.3154 -1.2094
  999MOL0     H34800   1.602   3.741   6.229  1.0090 -0.9042 -1.6977
  999MOL0     H34801   1.551   3.583   6.173  0.1943 -0.3177 -0.3798
  999MOL0     H34802   1.379   3.570   6.324 -1.4650  0.5724  0.3002
  999MOL0     H34803   1.446   3.686   6.433  1.1064  2.1458 -0.4916
  999MOL0     H34804   1.381   3.864   6.245  1.3653  0.0191 -1.2814
  999MOL0     H34805   1.345   3.736   6.136  0.7581 -1.1314  0.6518
  999MOL0     H34806   1.158   3.643   6.265  1.9605 -1.9351  0.9147
  999MOL0     H34807   1.205   3.760   6.399  0.3224  1.3663 -0.3243
  999MOL0     H34808   1.147   3.943   6.236 -0.7646  1.1057 -1.4936
  999MOL0     H34809   1.111   3.827   6.108  1.4699  1.0259  0.3010
  999MOL0     H34810   0.908   3.731   6.233 -0.7993  0.2612  0.1685
  999MOL0     H34811   0.949   3.829   6.364 -0.0208  0.1284 -0.4139
  999MOL0     H34812   0.910   4.024   6.220  1.0216 -0.6089  1.4610
  999MOL0     H34813   0.864   3.911   6.081  1.1794 -2.8103  1.2771
  999MOL0     H34814   0.739   3.976   6.345  0.7980  0.1191  0.6837
  999MOL0     H34815   0.705   3.816   6.262  3.4832 -1.1674 -1.3395
  999MOL0     H34816   0.560   3.837   6.059  0.7555  0.1076 -0.0047
  999MOL0     H34817   0.386   4.138   5.838 -2.5058  0.0023 -0.3744
  999MOL0     H34818   0.428   3.971   5.814  2.0268  0.7984  0.6821
  999MOL0     H34819   0.219   4.098   6.005 -0.4770  0.2672  0.1593
  999MOL0     H34820   0.258   3.919   5.987  1.4625 -0.5036 -1.2506
  999MOL0     H34821   0.178   4.068   5.744 -1.7444  2.3915  0.5202
  999MOL0     H34822   0.052   4.024   5.858  1.5553  0.1881  1.1531
  999MOL0     H34823   0.262   3.812   5.746  0.5978 -1.3881  2.1332
  999MOL0     H34824   0.097   3.854   5.687 -1.1355 -2.5635 -0.2072
  999MOL0     H34825   0.219   3.584   5.749 -0.5826  1.4897  1.7765
  999MOL0     H34826   0.139   3.236   5.694 -0.8329  0.3605  1.0528
  999MOL0     H34827   0.158   3.350   5.547 -1.4000  0.1729 -0.5444
  999MOL0     H34828   0.255   3.358   5.692 -1.2040 -2.7792  2.6638
  999MOL0     H34829  -0.326   3.035   5.834  1.1072 -1.4629 -0.2095
  999MOL0     H34830  -0.360   2.832   5.748  1.5757  1.5774  0.6391
  999MOL0     H34831  -0.652   2.836   5.523  1.1313 -2.3537  3.6862
  999MOL0     H34832  -0.601   2.811   5.350 -0.4527 -0.8218 -1.0865
  999MOL0     H34833  -0.624   2.582   5.557  1.8715  0.0113 -0.8773
  999MOL0     H34834  -0.755   2.619   5.452 -0.0914 -1.6187  1.7440
  999MOL0     H34835  -0.616   2.444   5.368 -0.7920  0.0985 -1.1732
  999MOL0     H34836  -0.473   2.532   5.361  0.5844  0.1035  0.4612
  999MOL0     H34837  -0.717   2.618   5.196  0.4216  1.3529 -0.2444
  999MOL0     H34838  -0.562   2.693   5.197 -0.1484 -0.4725  3.6048
  999MOL0     H34839  -0.467   2.459   5.117  0.7026  1.0995  1.2446
  999MOL0     H34840  -0.569   2.557   5.005  2.4678  2.4083  0.8865
  999MOL0     H34841  -0.656   2.310   5.171  0.8580 -1.6860 -0.3177
  999MOL0     H34842  -0.748   2.385   5.033  0.9183  0.6952 -0.6246
  999MOL0     H34843  -0.597   2.165   5.010  0.1138 -0.4024  1.2117
  999MOL0     H34844  -0.472   2.281   4.985 -0.3266  2.0354  2.9304
  999MOL0     H34845  -0.743   2.243   4.816 -1.1879 -1.9786  3.5655
  999MOL0     H34846  -0.574   2.212   4.772 -2.8011 -0.8750 -1.1544
  999MOL0     H34847  -0.436   3.022   5.362  0.7973 -1.1173  0.1066
  999MOL0     H34848  -0.366   3.235   5.451  1.6993 -0.5078  0.0459
  999MOL0     H34849  -0.267   3.537   5.773  0.0405  1.5712 -0.6996
  999MOL0     H34850  -0.143   3.711   5.896  2.0226  0.6898  0.5431
  999MOL0     H34851   1.744   3.579   6.073  1.0345 -2.4644 -1.2608
  999MOL0     H34852   1.955   3.511   5.998 -4.1020  4.3832 -0.9463
  999MOL0     H34853   2.399   3.623   5.869  0.9579  0.4861  0.1251
  999MOL0     H34854   2.562   3.494   5.740  1.7758 -0.9253 -0.1281
  999MOL0     H34855   2.696   3.074   5.908 -0.7335 -0.9069 -1.2790
  999MOL0     H34856   2.812   3.104   5.769 -0.5735 -1.3843  0.4059
  999MOL0     H34857   2.909   3.138   5.983  0.4368  1.8800  0.0544
  999MOL0     H34858   2.804   3.268   6.027 -1.9683 -2.5291  1.2692
  999MOL0     H34859   2.869   3.398   5.831  0.7727  2.3337  2.0061
  999MOL0     H34860   3.001   3.284   5.795  0.7778 -1.7016  1.7412
  999MOL0     H34861   3.121   3.440   5.927  1.3550 -0.1244 -0.1108
  999MOL0     H34862   3.080   3.306   6.036  0.2338 -0.8988 -1.4393
  999MOL0     H34863   2.805   3.629   6.145  1.6153  0.5137  1.5704
  999MOL0     H34864   2.553   3.186   6.038  0.0020  0.6635 -0.5956
  999MOL0     H34865   2.339   3.294   6.125  0.9424 -2.0121 -0.0050
 1000MOL0     O34866   6.491   0.384   2.923 -0.1945  0.4742  0.1399
 1000MOL0     C34867   6.566   0.403   2.829 -0.7102  0.6659  0.1464
 1000MOL0     O34868   6.537   0.433   2.703  0.1028 -0.3248 -0.4507
 1000MOL0     C34869   6.407   0.446   2.665 -0.2070 -0.5076 -0.1571
 1000MOL0     C34870   6.386   0.545   2.564 -0.5101  0.2980  0.1914
 1000MOL0     C34871   6.261   0.566   2.507  0.4382  0.5705 -0.6340
 1000MOL0     C34872   6.151   0.475   2.537 -0.4481  0.1317  0.1853
 1000MOL0     O34873   6.026   0.489   2.501  0.8158 -0.0445 -0.4318
 1000MOL0     C34874   5.996   0.588   2.399  0.3762  0.0218 -0.0483
 1000MOL0     C34875   5.844   0.611   2.393 -0.5457  0.2491 -0.5586
 1000MOL0     C34876   5.771   0.506   2.310 -0.0990  0.3038 -0.2229
 1000MOL0     C34877   5.620   0.532   2.293  0.6098 -0.8032  0.3493
 1000MOL0     C34878   5.548   0.422   2.201 -0.9036  0.9017 -0.0669
 1000MOL0     C34879   5.404   0.417   2.205  0.8172 -0.3637  1.1858
 1000MOL0     C34880   5.342   0.312   2.125 -0.2489 -0.2083  0.2337
 1000MOL0     C34881   5.190   0.305   2.138  0.9783 -0.5191 -0.2073
 1000MOL0     N34882   5.154   0.222   2.025  0.0072 -0.1776  0.4170
 1000MOL0     C34883   5.143   0.279   1.906 -0.9331  0.2088 -0.0784
 1000MOL0     C34884   5.110   0.179   1.824 -0.2033  0.4066  0.2161
 1000MOL0     C34885   5.074   0.189   1.678 -0.2781 -0.2345  0.0073
 1000MOL0     C34886   5.198   0.169   1.589 -0.1475 -1.0134 -0.3315
 1000MOL0     C34887   5.153   0.182   1.446  0.3304 -0.5605  1.2664
 1000MOL0     C34888   5.274   0.151   1.348  0.7022  0.2603 -0.5017
 1000MOL0     O34889   5.292   0.009   1.340  0.5295 -0.5542 -0.2098
 1000MOL0     C34890   5.380  -0.044   1.240  1.6134 -0.5892 -0.2772
 1000MOL0     C34891   5.387  -0.178   1.251  0.0695 -0.7229  0.6360
 1000MOL0     C34892   5.473  -0.256   1.167  0.1934  0.1956  0.1229
 1000MOL0     C34893   5.451  -0.413   1.172 -0.3679  0.3961  0.6274
 1000MOL0     C34894   5.562  -0.183   1.080 -0.0165 -0.3131  0.0407
 1000MOL0     C34895   5.649  -0.259   0.990  0.6277 -0.0545  0.4853
 1000MOL0     O34896   5.748  -0.189   0.932  0.1695  0.0314 -0.2233
 1000MOL0     C34897   5.834  -0.247   0.850  0.3813  0.4191 -0.0183
 1000MOL0     C34898   5.862  -0.203   0.718  0.1996  0.1317 -0.6299
 1000MOL0     C34899   5.933  -0.283   0.626  0.2062  0.0263 -0.1699
 1000MOL0     C34900   5.986  -0.405   0.668 -0.1017  0.3212  0.7163
 1000MOL0     O34901   6.047  -0.473   0.569  0.1875  0.1058 -0.0114
 1000MOL0     C34902   6.027  -0.614   0.576 -0.0104  0.3516 -0.4662
 1000MOL0     C34903   6.029  -0.694   0.448 -1.3463  0.0392 -0.0125
 1000MOL0     C34904   6.091  -0.839   0.470 -0.4601 -0.3954 -0.2411
 1000MOL0     C34905   6.004  -0.922   0.564 -0.4850  0.1396  0.0861
 1000MOL0     C34906   6.051  -1.070   0.581  0.6110  0.5833 -0.3477
 1000MOL0     C34907   6.194  -1.094   0.596 -0.4399  0.7790 -0.0715
 1000MOL0     C34908   6.227  -1.248   0.626 -1.2068  0.6147 -0.4463
 1000MOL0     C34909   6.374  -1.280   0.594 -0.4270  0.8799 -0.0196
 1000MOL0    Cl34910   6.496  -1.164   0.677 -0.3095 -0.2991  0.3504
 1000MOL0     C34911   5.974  -0.444   0.796  1.0502 -0.2583 -0.0298
 1000MOL0     C34912   5.907  -0.361   0.891 -0.1398  0.2020 -0.6637
 1000MOL0     O34913   5.615  -0.368   0.955 -0.1775 -0.4809  0.3075
 1000MOL0     C34914   5.565  -0.043   1.087  0.2434 -0.3557 -0.0623
 1000MOL0     C34915   5.464   0.026   1.167 -1.3133  0.0926  0.6580
 1000MOL0     N34916   5.094   0.062   1.893  0.0466 -0.0652  0.4664
 1000MOL0     N34917   5.120   0.090   2.016 -0.0854  0.8075  0.1503
 1000MOL0     C34918   6.176   0.380   2.635  1.2264 -0.3196 -0.0388
 1000MOL0     C34919   6.298   0.363   2.700 -0.2846  0.9569  1.2213
 1000MOL0     C34920   6.708   0.389   2.858  0.2863 -0.3387 -0.9208
 1000MOL0     C34921   6.800   0.457   2.779 -0.8454 -0.7382 -0.1707
 1000MOL0     C34922   6.937   0.440   2.804 -0.6437 -0.2733  0.1410
 1000MOL0     C34923   6.981   0.358   2.902 -0.3702 -0.7263 -1.1621
 1000MOL0     O34924   7.115   0.353   2.938  0.6854 -0.4400 -0.6655
 1000MOL0     C34925   7.215   0.383   2.840 -0.2991  0.6460 -0.3117
 1000MOL0     C34926   7.370   0.369   2.899  1.0260  0.0884  0.0672
 1000MOL0     C34927   7.413   0.228   2.911 -0.8487  0.2689  0.3064
 1000MOL0     C34928   7.351   0.155   3.029 -0.4476 -0.3276  0.6070
 1000MOL0     C34929   7.443   0.067   3.089  0.3259 -0.2434 -0.4665
 1000MOL0     C34930   7.523  -0.018   3.116 -0.0106 -0.6507  0.3086
 1000MOL0     C34931   6.887   0.283   2.971 -0.1036  0.1278  0.1552
 1000MOL0     C34932   6.755   0.296   2.947  0.4389 -1.0437 -0.0793
 1000MOL0     H34933   6.486   0.583   2.545 -0.4925  0.0408 -0.2357
 1000MOL0     H34934   6.251   0.657   2.450 -0.7438  1.5866  1.1130
 1000MOL0     H34935   6.044   0.685   2.413  0.7549 -0.1670 -0.0148
 1000MOL0     H34936   6.036   0.538   2.310 -0.9429 -0.7122 -0.2486
 1000MOL0     H34937   5.805   0.619   2.495  0.9154 -1.4220  0.1952
 1000MOL0     H34938   5.832   0.709   2.346 -1.0942  0.9240  0.9130
 1000MOL0     H34939   5.814   0.501   2.209 -0.4623  0.3833 -0.3829
 1000MOL0     H34940   5.793   0.408   2.353  0.7183  0.1238 -0.9990
 1000MOL0     H34941   5.565   0.539   2.387 -3.4030 -1.5274 -1.7432
 1000MOL0     H34942   5.596   0.629   2.249 -2.3069 -1.7432 -0.3448
 1000MOL0     H34943   5.583   0.441   2.100  0.2671 -0.6541  0.0069
 1000MOL0     H34944   5.586   0.323   2.227 -3.0213 -0.2367 -1.0330
 1000MOL0     H34945   5.389   0.401   2.312  3.1172 -3.1625  1.2347
 1000MOL0     H34946   5.365   0.515   2.175 -2.0021 -0.5468  3.8369
 1000MOL0     H34947   5.376   0.334   2.024 -0.1964 -0.9017  0.0957
 1000MOL0     H34948   5.369   0.214   2.163 -1.6356 -0.5256  0.4755
 1000MOL0     H34949   5.135   0.400   2.140  0.7082 -0.6808  0.1358
 1000MOL0     H34950   5.153   0.246   2.223 -2.5154 -1.4427 -2.1686
 1000MOL0     H34951   5.161   0.385   1.890  2.0743  0.0353  1.5520
 1000MOL0     H34952   4.994   0.117   1.656  0.0190 -0.5630 -0.0024
 1000MOL0     H34953   5.024   0.284   1.652  0.3201 -0.1969 -1.0814
 1000MOL0     H34954   5.245   0.072   1.609 -2.0909 -1.6242  1.6771
 1000MOL0     H34955   5.270   0.247   1.614  0.6593 -2.0603  0.7605
 1000MOL0     H34956   5.131   0.285   1.418  0.5329 -1.1639 -1.4027
 1000MOL0     H34957   5.075   0.112   1.412 -0.3508  1.3055 -1.3502
 1000MOL0     H34958   5.359   0.205   1.392 -1.2526  2.4104  0.8867
 1000MOL0     H34959   5.251   0.196   1.251 -1.5162  1.0031  0.3077
 1000MOL0     H34960   5.311  -0.233   1.307 -0.1905 -0.6460  0.3648
 1000MOL0     H34961   5.412  -0.452   1.077  3.2219 -3.2753  0.3675
 1000MOL0     H34962   5.545  -0.458   1.206 -2.1706 -3.0403  1.5186
 1000MOL0     H34963   5.377  -0.437   1.249  0.6003 -2.7662  0.7331
 1000MOL0     H34964   5.799  -0.117   0.699 -1.6602 -1.4853 -2.2587
 1000MOL0     H34965   5.946  -0.267   0.520  0.4445  2.7882  0.1973
 1000MOL0     H34966   6.107  -0.651   0.641  0.7253 -0.5273 -1.8279
 1000MOL0     H34967   5.931  -0.634   0.624  0.8844 -0.8048  0.9229
 1000MOL0     H34968   5.933  -0.699   0.397 -0.3348 -1.9573 -1.8572
 1000MOL0     H34969   6.091  -0.633   0.381 -0.4755  0.0717  0.7998
 1000MOL0     H34970   6.192  -0.846   0.511  1.0284  0.2225 -3.4838
 1000MOL0     H34971   6.099  -0.890   0.374 -1.2576 -0.4511 -0.2856
 1000MOL0     H34972   6.002  -0.871   0.661  0.1252 -1.7809  1.1632
 1000MOL0     H34973   5.903  -0.929   0.523  0.1874 -0.3661 -1.5739
 1000MOL0     H34974   6.018  -1.131   0.497  3.0296  0.5424 -1.3578
 1000MOL0     H34975   6.005  -1.099   0.676 -0.7491  2.8072 -0.2601
 1000MOL0     H34976   6.246  -1.073   0.503 -0.4807 -0.2699 -0.3507
 1000MOL0     H34977   6.235  -1.026   0.671  3.2094 -0.3279 -0.8763
 1000MOL0     H34978   6.162  -1.301   0.556 -0.6870 -2.9185  1.4622
 1000MOL0     H34979   6.209  -1.274   0.731 -1.7566  1.0750 -0.4224
 1000MOL0     H34980   6.382  -1.266   0.486  3.1347 -1.1389 -0.1693
 1000MOL0     H34981   6.386  -1.385   0.623 -0.4659  0.4225 -1.5715
 1000MOL0     H34982   6.021  -0.534   0.834 -2.0831 -1.4801  1.2473
 1000MOL0     H34983   5.887  -0.393   0.993 -0.3589  0.3516 -0.6575
 1000MOL0     H34984   5.638   0.023   1.041 -1.0272 -0.2425 -2.0365
 1000MOL0     H34985   5.485   0.131   1.178  2.6163 -0.6083  1.1926
 1000MOL0     H34986   6.100   0.310   2.667  0.1895  0.8390  0.0668
 1000MOL0     H34987   6.313   0.284   2.773 -0.9532  1.4409  1.9036
 1000MOL0     H34988   6.775   0.534   2.706  0.1297 -0.3964 -0.1703
 1000MOL0     H34989   6.992   0.513   2.746  0.4412 -1.3622 -0.2330
 1000MOL0     H34990   7.214   0.315   2.754  0.1637  3.0443 -2.3473
 1000MOL0     H34991   7.200   0.480   2.792 -0.3370 -0.5515 -2.8868
 1000MOL0     H34992   7.379   0.414   2.998  0.7107 -0.7626  0.4968
 1000MOL0     H34993   7.440   0.410   2.825  1.0166 -2.6303 -1.6124
 1000MOL0     H34994   7.522   0.224   2.924 -0.4208  2.3324 -1.9579
 1000MOL0     H34995   7.386   0.170   2.822  1.8974 -0.3062 -0.2691
 1000MOL0     H34996   7.257   0.106   3.001 -1.6482  1.3727  1.4896
 1000MOL0     H34997   7.319   0.225   3.107  0.2181 -1.9431  2.4069
 1000MOL0     H34998   7.594  -0.096   3.133  2.2727  1.5381  1.5401
 1000MOL0     H34999   6.928   0.226   3.054 -0.4936 -1.1261 -0.5002
 1000MOL0     H35000   6.696   0.234   3.013  1.8087  0.6828  2.9796
 1001MOL0     O35001   2.062  10.771   1.184 -0.7222  0.2785 -0.5670
 1001MOL0     C35002   2.098  10.723   1.076  0.4915  0.2166  0.1558
 1001MOL0     O35003   2.037  10.619   1.015  0.1094  0.2454  0.2279
 1001MOL0     C35004   1.918  10.570   1.061 -0.1639  0.1934 -0.0597
 1001MOL0     C35005   1.895  10.522   1.194  0.3019  0.1157 -0.3017
 1001MOL0     C35006   1.771  10.455   1.228 -0.2145 -0.5640  0.2144
 1001MOL0     C35007   1.673  10.444   1.136  0.7642  0.1952 -0.0746
 1001MOL0     O35008   1.542  10.418   1.169  0.4735  0.1549 -0.3132
 1001MOL0     C35009   1.502  10.373   1.302 -1.0513 -0.0369 -0.2921
 1001MOL0     C35010   1.351  10.350   1.302  0.0520 -0.6576 -0.1469
 1001MOL0     C35011   1.262  10.474   1.286  1.1665  0.5384 -0.5178
 1001MOL0     C35012   1.259  10.557   1.412  0.5170 -0.8898  0.2222
 1001MOL0     C35013   1.126  10.638   1.413 -0.5139  0.0932 -0.1586
 1001MOL0     C35014   1.093  10.699   1.551 -0.5205  0.6499 -0.0850
 1001MOL0     C35015   1.201  10.796   1.611  0.6069 -0.1314  0.3031
 1001MOL0     C35016   1.148  10.883   1.717 -0.1466 -0.5642 -0.3029
 1001MOL0     N35017   1.100  10.797   1.823 -0.4401  0.1056 -1.1133
 1001MOL0     C35018   0.967  10.768   1.852 -0.1685 -0.0539  0.6524
 1001MOL0     C35019   0.967  10.717   1.976  0.2946  0.0041 -0.5054
 1001MOL0     C35020   0.842  10.687   2.055  0.7290 -0.0010 -0.2667
 1001MOL0     C35021   0.853  10.590   2.170 -0.4495  0.2064  0.2129
 1001MOL0     C35022   0.710  10.539   2.216 -0.4702  0.3591 -0.2268
 1001MOL0     C35023   0.626  10.656   2.266 -0.6919 -0.2833  0.7754
 1001MOL0     O35024   0.491  10.608   2.275  0.5058  0.0541 -0.6762
 1001MOL0     C35025   0.418  10.601   2.154 -0.2118  0.9135  0.1363
 1001MOL0     C35026   0.467  10.638   2.026 -0.2196  0.0692  0.2261
 1001MOL0     C35027   0.389  10.610   1.912  0.5239 -0.4532 -0.1187
 1001MOL0     C35028   0.445  10.622   1.772 -0.0681 -0.4228  0.3398
 1001MOL0     C35029   0.257  10.570   1.936  0.6897 -0.4347  0.2241
 1001MOL0     C35030   0.166  10.548   1.822  0.3760  0.7370 -0.9064
 1001MOL0     O35031   0.038  10.599   1.834  0.1143 -0.1199  0.4680
 1001MOL0     C35032  -0.031  10.614   1.712  0.7314  0.3767 -0.1952
 1001MOL0     C35033  -0.169  10.594   1.715 -0.3808  0.0474  0.5189
 1001MOL0     C35034  -0.251  10.606   1.608  0.8585 -0.6304  0.0720
 1001MOL0     C35035  -0.197  10.656   1.486 -0.1713 -0.4364 -0.3242
 1001MOL0     O35036  -0.268  10.664   1.372  0.9428  0.4282 -0.5286
 1001MOL0     C35037  -0.407  10.715   1.374  0.0618 -0.3541 -0.5251
 1001MOL0     C35038  -0.460  10.773   1.245 -0.0960 -0.2913  0.9234
 1001MOL0     C35039  -0.589  10.852   1.256 -0.0894 -0.2891 -0.0006
 1001MOL0     C35040  -0.710  10.789   1.322 -0.0670  0.4443  0.9005
 1001MOL0     C35041  -0.819  10.889   1.323 -0.6034  0.0948  0.2733
 1001MOL0     C35042  -0.936  10.795   1.346  0.0828  0.1553 -0.3100
 1001MOL0     C35043  -1.062  10.873   1.369 -0.2771 -0.2402  0.5041
 1001MOL0     C35044  -1.183  10.782   1.375  1.3355  0.1160  0.1011
 1001MOL0    Cl35045  -1.353  10.872   1.390 -0.2433 -0.2091  0.5018
 1001MOL0     C35046  -0.064  10.696   1.487  1.0150  0.8088  0.3233
 1001MOL0     C35047   0.025  10.669   1.594  0.4252 -0.1755  0.5718
 1001MOL0     O35048   0.206  10.479   1.727  0.3100 -0.6293 -0.1769
 1001MOL0     C35049   0.201  10.545   2.061  0.4240  0.2693 -0.2625
 1001MOL0     C35050   0.286  10.550   2.169 -0.3425 -0.7370 -0.4840
 1001MOL0     N35051   1.096  10.694   2.013 -0.9559  0.4040  0.6765
 1001MOL0     N35052   1.175  10.727   1.910 -0.5500  0.1057 -0.5573
 1001MOL0     C35053   1.691  10.497   1.008  0.3496 -0.3907  0.7787
 1001MOL0     C35054   1.816  10.555   0.974  0.1667 -0.9648 -0.1359
 1001MOL0     C35055   2.224  10.774   1.019  0.4440  0.0882 -0.0952
 1001MOL0     C35056   2.289  10.877   1.089 -0.5911  0.2983 -0.2269
 1001MOL0     C35057   2.391  10.950   1.030 -0.3083 -0.3525  0.4189
 1001MOL0     C35058   2.434  10.920   0.899  0.2619 -0.0705 -0.2946
 1001MOL0     O35059   2.546  10.966   0.834 -0.3342  0.8782  0.2894
 1001MOL0     C35060   2.607  11.088   0.876 -0.5510  0.1255  0.2967
 1001MOL0     C35061   2.696  11.140   0.754  0.1432  0.6392 -0.5054
 1001MOL0     C35062   2.788  11.245   0.799 -0.3208 -0.0322  0.3474
 1001MOL0     C35063   2.879  11.288   0.682 -0.8263  0.5094 -0.3088
 1001MOL0     C35064   2.955  11.178   0.612 -1.0026 -0.1810  0.5457
 1001MOL0     C35065   3.022  11.092   0.551  0.5822  0.0986 -1.1499
 1001MOL0     C35066   2.377  10.812   0.833  0.4881  0.0448 -0.7001
 1001MOL0     C35067   2.267  10.746   0.892 -0.4079  0.1785  0.3671
 1001MOL0     H35068   1.957  10.532   1.283  1.5613  0.6151 -1.1931
 1001MOL0     H35069   1.757  10.427   1.332  2.1839 -2.2844  0.1575
 1001MOL0     H35070   1.557  10.282   1.331 -1.0357 -0.3142 -1.1797
 1001MOL0     H35071   1.523  10.441   1.385 -1.8946 -0.9481  0.7045
 1001MOL0     H35072   1.329  10.276   1.224 -0.5846 -2.0883  1.3501
 1001MOL0     H35073   1.326  10.295   1.393 -1.9247 -0.0102 -0.2558
 1001MOL0     H35074   1.291  10.533   1.199  0.6522  2.0000  0.2769
 1001MOL0     H35075   1.167  10.427   1.257  0.4235  1.3223  0.5597
 1001MOL0     H35076   1.270  10.506   1.508 -1.8755  0.6720  1.4194
 1001MOL0     H35077   1.343  10.627   1.410 -0.1386 -0.1001  0.0435
 1001MOL0     H35078   1.121  10.717   1.338  1.7165 -0.9902 -1.5664
 1001MOL0     H35079   1.042  10.574   1.383  1.1762 -2.1178 -0.4974
 1001MOL0     H35080   0.998  10.754   1.543 -1.5416 -0.9556  0.3994
 1001MOL0     H35081   1.068  10.627   1.630 -1.1543  0.0910 -0.7760
 1001MOL0     H35082   1.278  10.737   1.660  1.0570  1.2020  1.2735
 1001MOL0     H35083   1.240  10.846   1.522 -0.7454  2.5070  1.0672
 1001MOL0     H35084   1.074  10.954   1.679 -0.4926 -0.9964 -0.4500
 1001MOL0     H35085   1.231  10.945   1.753  0.9353 -2.8328  1.3162
 1001MOL0     H35086   0.888  10.796   1.783  1.5283  0.3799 -1.1933
 1001MOL0     H35087   0.808  10.784   2.091 -1.5863 -0.7063 -0.4155
 1001MOL0     H35088   0.764  10.654   1.986  0.7685  0.9790 -0.7900
 1001MOL0     H35089   0.901  10.639   2.255 -1.1296  1.1149  0.0898
 1001MOL0     H35090   0.920  10.507   2.146 -0.3025 -0.2566  2.0732
 1001MOL0     H35091   0.728  10.465   2.294 -0.0705  2.3683  1.7050
 1001MOL0     H35092   0.658  10.489   2.135 -0.2320  3.1088 -2.2195
 1001MOL0     H35093   0.633  10.738   2.194 -1.1378  1.2819  2.4369
 1001MOL0     H35094   0.662  10.695   2.362 -1.3017 -0.5333  1.1126
 1001MOL0     H35095   0.564  10.687   2.020 -0.5697  0.7822  0.2129
 1001MOL0     H35096   0.391  10.693   1.709  3.7405  2.4569 -0.0642
 1001MOL0     H35097   0.548  10.659   1.780  0.0178 -0.1888 -1.5376
 1001MOL0     H35098   0.452  10.528   1.716  0.2685  1.0876 -2.3257
 1001MOL0     H35099  -0.206  10.546   1.805 -0.5387  0.4014  0.6430
 1001MOL0     H35100  -0.356  10.580   1.624  0.2837  0.3346 -1.8845
 1001MOL0     H35101  -0.473  10.639   1.416 -3.9599  1.8529 -2.3139
 1001MOL0     H35102  -0.404  10.796   1.447 -1.7207  0.7248 -1.5831
 1001MOL0     H35103  -0.378  10.828   1.198  2.2601 -4.7191 -0.7359
 1001MOL0     H35104  -0.484  10.691   1.177  0.9791  1.2690 -1.4700
 1001MOL0     H35105  -0.626  10.873   1.155 -3.3387 -0.5312  1.0106
 1001MOL0     H35106  -0.565  10.946   1.306  1.2460 -0.3370 -0.5100
 1001MOL0     H35107  -0.738  10.701   1.262 -0.3624 -0.1866  1.9357
 1001MOL0     H35108  -0.700  10.764   1.428 -0.7671  4.8395  2.1843
 1001MOL0     H35109  -0.830  10.949   1.232  1.4865  0.2319  0.0707
 1001MOL0     H35110  -0.809  10.954   1.410 -0.4394 -0.6058  0.7858
 1001MOL0     H35111  -0.941  10.728   1.260  0.9460 -1.0256  0.5282
 1001MOL0     H35112  -0.916  10.730   1.432  1.5206  0.5329 -0.3276
 1001MOL0     H35113  -1.067  10.951   1.292  2.6504  0.4515  0.8724
 1001MOL0     H35114  -1.052  10.923   1.466 -2.4849 -4.5531  3.2777
 1001MOL0     H35115  -1.164  10.709   1.453 -0.7771 -1.3265 -0.6498
 1001MOL0     H35116  -1.189  10.713   1.290 -2.5625 -0.6373  0.8232
 1001MOL0     H35117  -0.027  10.755   1.404  1.8614  3.2996  2.3313
 1001MOL0     H35118   0.129  10.699   1.585  1.0186 -2.1581  0.4822
 1001MOL0     H35119   0.099  10.517   2.083  0.9061  0.2304  2.2607
 1001MOL0     H35120   0.248  10.540   2.270  0.3306  1.9347  0.1214
 1001MOL0     H35121   1.609  10.493   0.937  1.7884  0.3844 -1.0115
 1001MOL0     H35122   1.831  10.598   0.875  0.8695 -1.7141 -0.3635
 1001MOL0     H35123   2.266  10.920   1.186  2.2241 -0.0592  0.6974
 1001MOL0     H35124   2.429  11.036   1.084 -2.0976  0.7179  0.0566
 1001MOL0     H35125   2.541  11.164   0.918 -0.1413 -0.1718  1.5295
 1001MOL0     H35126   2.673  11.057   0.958 -2.6506 -1.2590  1.5599
 1001MOL0     H35127   2.635  11.151   0.663 -1.9414 -2.1550  0.4032
 1001MOL0     H35128   2.749  11.050   0.723 -0.7020  0.1229 -0.5060
 1001MOL0     H35129   2.846  11.208   0.884  1.8386 -0.9246 -1.4319
 1001MOL0     H35130   2.731  11.334   0.829  0.1954  0.9673 -1.4883
 1001MOL0     H35131   2.943  11.365   0.727  0.3085 -0.3423 -0.4090
 1001MOL0     H35132   2.827  11.337   0.599  1.7923  2.5253 -0.9307
 1001MOL0     H35133   3.080  11.014   0.508 -0.3736 -0.7019 -1.0297
 1001MOL0     H35134   2.412  10.788   0.733 -0.6530  1.8217 -1.5879
 1001MOL0     H35135   2.225  10.672   0.824 -2.1346 -1.3719  2.9251
 1002MOL0     O35136   3.336   8.637  11.145 -0.6285 -0.3381  0.7926
 1002MOL0     C35137   3.416   8.636  11.046  0.3302  0.7712 -0.2316
 1002MOL0     O35138   3.386   8.655  10.908 -0.5080  0.2343 -0.5454
 1002MOL0     C35139   3.263   8.691  10.865 -0.6784  0.8693  0.6468
 1002MOL0     C35140   3.272   8.762  10.746  0.0769 -0.2991  0.0635
 1002MOL0     C35141   3.155   8.825  10.707 -0.0125  0.0010  0.6884
 1002MOL0     C35142   3.028   8.804  10.764  0.5470  0.3480  0.0996
 1002MOL0     O35143   2.914   8.864  10.714 -0.7697  0.1256 -0.2888
 1002MOL0     C35144   2.788   8.851  10.771  1.5310 -0.0074 -0.3379
 1002MOL0     C35145   2.702   8.978  10.719  0.9061  0.5060  0.3411
 1002MOL0     C35146   2.585   8.934  10.624  0.5508 -0.2011 -0.3287
 1002MOL0     C35147   2.494   9.059  10.601 -0.3976  0.4397 -0.5280
 1002MOL0     C35148   2.365   9.015  10.538  0.3140  0.2673  1.0631
 1002MOL0     C35149   2.276   9.135  10.497 -0.5704 -0.5482 -0.3026
 1002MOL0     C35150   2.155   9.110  10.418  0.3606 -0.4746 -0.1246
 1002MOL0     C35151   2.050   9.029  10.492  0.6855 -0.0311  0.7441
 1002MOL0     N35152   1.997   9.115  10.600  0.6392 -0.0861  0.1477
 1002MOL0     C35153   1.936   9.240  10.596  0.4042  0.2646  0.0568
 1002MOL0     C35154   1.882   9.255  10.720 -0.0212  0.5489  0.0676
 1002MOL0     C35155   1.817   9.375  10.791 -0.3054  0.0225 -0.7941
 1002MOL0     C35156   1.667   9.347  10.819  0.4752  0.0698 -0.0870
 1002MOL0     C35157   1.609   9.459  10.907  0.1041  0.3118 -0.1079
 1002MOL0     C35158   1.461   9.461  10.913  0.6842 -0.3681  0.4396
 1002MOL0     O35159   1.415   9.332  10.949 -0.7499  0.3399  0.2244
 1002MOL0     C35160   1.285   9.300  10.949  0.2204  0.1666  0.0573
 1002MOL0     C35161   1.187   9.363  10.875  0.0992 -1.1967 -1.4012
 1002MOL0     C35162   1.046   9.329  10.888  0.3454 -0.0580 -0.2994
 1002MOL0     C35163   0.951   9.421  10.812 -0.2523  0.8008  0.6331
 1002MOL0     C35164   1.017   9.208  10.960 -0.4108 -0.4167 -0.3182
 1002MOL0     C35165   0.873   9.149  10.968  0.1558  0.4512  0.4303
 1002MOL0     O35166   0.769   9.233  10.949  0.0051 -0.0953 -0.0964
 1002MOL0     C35167   0.639   9.204  10.985 -0.1576  0.2766  0.5315
 1002MOL0     C35168   0.566   9.319  11.021  0.2260  0.0837  0.0495
 1002MOL0     C35169   0.426   9.318  11.032  0.1103  0.4084  0.4346
 1002MOL0     C35170   0.353   9.199  10.999 -0.7443 -1.4258 -0.2163
 1002MOL0     O35171   0.221   9.207  11.018 -0.3293 -0.2458 -0.1317
 1002MOL0     C35172   0.146   9.096  10.976 -0.1816  0.8184 -0.4252
 1002MOL0     C35173  -0.001   9.129  10.971 -0.2287 -0.3442 -0.7483
 1002MOL0     C35174  -0.095   9.027  10.911 -0.2161 -0.4878 -0.6049
 1002MOL0     C35175  -0.058   8.878  10.942  0.3358 -0.0819  1.2478
 1002MOL0     C35176  -0.137   8.783  10.863  0.6218  0.2441 -0.7633
 1002MOL0     C35177  -0.282   8.796  10.899  0.6345  0.1672 -0.3184
 1002MOL0     C35178  -0.325   8.767  11.046  0.1359 -0.6635 -0.1718
 1002MOL0     C35179  -0.468   8.706  11.048 -0.9669 -0.6220 -0.1635
 1002MOL0    Cl35180  -0.597   8.836  11.018  0.3845  0.1217  0.3917
 1002MOL0     C35181   0.431   9.090  10.950  0.4996  0.3177  0.0062
 1002MOL0     C35182   0.570   9.089  10.952  0.2113  0.4945  0.7516
 1002MOL0     O35183   0.866   9.030  11.001  0.3650  0.1427 -0.0793
 1002MOL0     C35184   1.116   9.129  11.008 -0.3688 -0.2626 -0.2598
 1002MOL0     C35185   1.244   9.179  11.015 -0.6220  0.2024  0.4684
 1002MOL0     N35186   1.909   9.139  10.790  0.7768 -0.3966  0.0884
 1002MOL0     N35187   1.982   9.055  10.720 -0.2685 -0.5500  0.3486
 1002MOL0     C35188   3.023   8.712  10.873  0.3242 -0.5740 -1.1419
 1002MOL0     C35189   3.138   8.665  10.930  0.7429  1.2863 -0.3268
 1002MOL0     C35190   3.557   8.618  11.082 -0.4793 -0.2276 -0.4230
 1002MOL0     C35191   3.643   8.536  11.007 -0.6711  0.4144  0.5402
 1002MOL0     C35192   3.778   8.506  11.047  0.5758  0.4105  0.9929
 1002MOL0     C35193   3.834   8.565  11.155  0.3357  0.0246 -0.2716
 1002MOL0     O35194   3.967   8.545  11.152  0.1960  0.1016  0.4474
 1002MOL0     C35195   4.044   8.621  11.239 -0.4461 -0.7506 -0.3413
 1002MOL0     C35196   4.189   8.642  11.182 -0.0319  0.3200 -0.3447
 1002MOL0     C35197   4.289   8.625  11.300  0.1442 -0.1875 -0.1356
 1002MOL0     C35198   4.433   8.670  11.264  0.1091 -0.3096  0.1902
 1002MOL0     C35199   4.523   8.676  11.380  0.1117 -0.1829 -0.7484
 1002MOL0     C35200   4.578   8.672  11.488  0.2177  0.3817 -0.2065
 1002MOL0     C35201   3.747   8.649  11.239 -0.2302  0.4607  0.7822
 1002MOL0     C35202   3.614   8.668  11.197  0.0894  0.5455  0.4042
 1002MOL0     H35203   3.368   8.802  10.716  0.1242  1.2407  2.0463
 1002MOL0     H35204   3.155   8.890  10.620  0.8394 -0.8005  0.0730
 1002MOL0     H35205   2.747   8.752  10.749 -0.6831  0.2690  2.0746
 1002MOL0     H35206   2.802   8.860  10.879 -0.4541 -1.5683  0.0993
 1002MOL0     H35207   2.662   9.035  10.804  2.8470  2.4735  0.0362
 1002MOL0     H35208   2.768   9.050  10.669  1.5193  1.0740  1.8931
 1002MOL0     H35209   2.629   8.887  10.536  1.4238  0.5122 -0.2863
 1002MOL0     H35210   2.533   8.861  10.687  1.5972 -3.3732 -2.8775
 1002MOL0     H35211   2.474   9.117  10.691 -0.4755  1.9073 -1.4586
 1002MOL0     H35212   2.549   9.133  10.543  0.1687  0.6113  0.2208
 1002MOL0     H35213   2.384   8.962  10.444  0.4969 -0.5661  1.5588
 1002MOL0     H35214   2.306   8.949  10.603 -2.5906  2.0571  0.4466
 1002MOL0     H35215   2.266   9.182  10.596  2.2238 -1.9188  0.7549
 1002MOL0     H35216   2.336   9.202  10.435  2.3899 -2.4380  0.2845
 1002MOL0     H35217   2.108   9.200  10.379 -0.1772 -1.5123 -2.0004
 1002MOL0     H35218   2.187   9.054  10.330 -0.1579  0.6696 -1.0648
 1002MOL0     H35219   2.101   8.940  10.530 -1.0394 -1.4801 -0.1640
 1002MOL0     H35220   1.973   9.001  10.419 -0.0484  2.6504  0.3702
 1002MOL0     H35221   1.934   9.307  10.510 -1.2305  1.3854  0.9062
 1002MOL0     H35222   1.856   9.394  10.892  0.2444 -0.9905 -0.7947
 1002MOL0     H35223   1.813   9.468  10.734 -1.4501 -0.3994 -1.4207
 1002MOL0     H35224   1.660   9.245  10.859  0.2097  0.4454  0.8491
 1002MOL0     H35225   1.613   9.348  10.724  0.1842  1.8272  0.0623
 1002MOL0     H35226   1.640   9.555  10.864 -1.1421  1.9283  2.3528
 1002MOL0     H35227   1.649   9.444  11.007 -1.6100 -1.3342  0.3976
 1002MOL0     H35228   1.427   9.485  10.812  2.2127 -0.4217 -0.1243
 1002MOL0     H35229   1.429   9.544  10.977 -0.7096  1.5265 -2.4928
 1002MOL0     H35230   1.212   9.447  10.811 -2.8493  1.4180  0.5745
 1002MOL0     H35231   0.950   9.386  10.708  0.8290 -0.4966  1.0199
 1002MOL0     H35232   0.855   9.429  10.864 -0.1973 -0.8719  1.0732
 1002MOL0     H35233   0.990   9.523  10.818 -0.2867  0.8679 -0.2077
 1002MOL0     H35234   0.629   9.407  11.030  0.7739 -0.3274  0.2801
 1002MOL0     H35235   0.368   9.402  11.068  0.1559 -0.6240  3.0896
 1002MOL0     H35236   0.166   9.062  10.874  0.5533  2.1991 -0.7685
 1002MOL0     H35237   0.164   9.018  11.050  1.8268  1.4997 -0.1293
 1002MOL0     H35238  -0.029   9.128  11.077  1.0951 -1.3034 -0.3890
 1002MOL0     H35239  -0.020   9.228  10.929 -2.3759 -0.2331  0.3351
 1002MOL0     H35240  -0.091   9.037  10.803  1.3040  2.6188 -0.3550
 1002MOL0     H35241  -0.193   9.052  10.954  0.3767  1.6389 -0.4020
 1002MOL0     H35242   0.041   8.854  10.901 -0.2585 -2.7832  1.1833
 1002MOL0     H35243  -0.046   8.856  11.049  3.1065  0.6831  1.1841
 1002MOL0     H35244  -0.103   8.681  10.884 -1.8760 -0.3462  0.7550
 1002MOL0     H35245  -0.122   8.794  10.755  1.7241 -1.6376 -0.8543
 1002MOL0     H35246  -0.322   8.895  10.876  2.7696  1.2114  0.1614
 1002MOL0     H35247  -0.329   8.726  10.830  0.5975  1.8057 -2.0239
 1002MOL0     H35248  -0.333   8.860  11.104  0.1953  1.7411 -3.7365
 1002MOL0     H35249  -0.254   8.698  11.092  1.8763 -0.6811 -2.7356
 1002MOL0     H35250  -0.487   8.674  11.151 -1.3413 -0.0105 -0.0334
 1002MOL0     H35251  -0.466   8.626  10.974  2.8658  0.1234 -1.0901
 1002MOL0     H35252   0.388   8.999  10.910  2.6529 -0.7323 -0.0426
 1002MOL0     H35253   0.623   9.005  10.908 -2.3724 -2.4344  2.7830
 1002MOL0     H35254   1.096   9.031  11.051  1.8075  1.2557  4.8848
 1002MOL0     H35255   1.327   9.117  11.047 -0.2914  0.6373  0.4766
 1002MOL0     H35256   2.932   8.687  10.925 -0.0703  1.2738 -0.8611
 1002MOL0     H35257   3.132   8.591  11.010 -1.7587  3.6264  1.8609
 1002MOL0     H35258   3.603   8.489  10.918  0.6281  1.1957 -0.4907
 1002MOL0     H35259   3.840   8.446  10.982 -0.9791 -2.3993  1.9339
 1002MOL0     H35260   4.003   8.720  11.262  1.0875 -0.5418  1.9168
 1002MOL0     H35261   4.058   8.562  11.330 -1.1999 -0.2214  0.1244
 1002MOL0     H35262   4.196   8.743  11.141  1.4875  1.5501  2.6650
 1002MOL0     H35263   4.216   8.572  11.102  1.1645 -0.7342  0.9162
 1002MOL0     H35264   4.288   8.521  11.335  3.4354 -0.2715  0.0543
 1002MOL0     H35265   4.260   8.681  11.389 -3.0929 -0.4298 -0.9266
 1002MOL0     H35266   4.425   8.771  11.222  1.7735 -0.7094 -1.1881
 1002MOL0     H35267   4.471   8.607  11.183 -0.6777  0.0067 -0.4457
 1002MOL0     H35268   4.624   8.654  11.583 -2.4938  1.5704  1.4237
 1002MOL0     H35269   3.781   8.704  11.326 -0.8737  0.6670  0.9044
 1002MOL0     H35270   3.564   8.741  11.261  0.3789  1.8477 -0.7964
 1003MOL0     O35271   7.065  10.453   8.595 -0.0890  0.1614 -0.1168
 1003MOL0     C35272   7.111  10.543   8.660 -0.5326  0.6061  0.6277
 1003MOL0     O35273   7.034  10.654   8.702 -0.3311 -0.0507 -0.6172
 1003MOL0     C35274   6.896  10.660   8.679 -0.2755 -0.1325 -0.0552
 1003MOL0     C35275   6.843  10.794   8.673 -0.0162  0.3973 -0.3439
 1003MOL0     C35276   6.710  10.816   8.653  0.8749 -0.5550 -0.4561
 1003MOL0     C35277   6.623  10.715   8.640  0.1485 -0.3817 -0.3828
 1003MOL0     O35278   6.487  10.746   8.610 -0.1868 -0.4258  0.2451
 1003MOL0     C35279   6.384  10.656   8.649  0.3392  0.3419  0.4015
 1003MOL0     C35280   6.259  10.746   8.645  0.2879  0.4709  0.4671
 1003MOL0     C35281   6.130  10.668   8.648  0.0102  0.8728 -0.5974
 1003MOL0     C35282   6.014  10.771   8.642 -0.3157  0.2798  0.4368
 1003MOL0     C35283   5.884  10.697   8.689  0.8964  0.8020 -0.4747
 1003MOL0     C35284   5.772  10.788   8.662  0.4936  0.0090 -0.2137
 1003MOL0     C35285   5.658  10.762   8.766  0.4921 -0.9336 -0.0619
 1003MOL0     C35286   5.532  10.838   8.727 -0.4606  0.4659 -0.7053
 1003MOL0     N35287   5.422  10.794   8.822 -0.2129 -0.1845  0.3458
 1003MOL0     C35288   5.382  10.665   8.844 -0.6217 -0.5847 -0.8093
 1003MOL0     C35289   5.269  10.685   8.916  0.3278 -0.9286  0.9100
 1003MOL0     C35290   5.189  10.573   8.960  0.6631  0.3766 -0.6449
 1003MOL0     C35291   5.030  10.585   8.952  0.2147  0.4003 -0.8939
 1003MOL0     C35292   4.952  10.697   9.030  0.1916  0.2211 -0.6670
 1003MOL0     C35293   4.797  10.684   9.010 -0.1890 -0.3951  0.0352
 1003MOL0     O35294   4.765  10.666   8.871  0.4212 -0.2446 -0.3547
 1003MOL0     C35295   4.640  10.611   8.842  0.4111  0.1036  0.1483
 1003MOL0     C35296   4.535  10.596   8.933 -0.1969  0.1881 -0.1182
 1003MOL0     C35297   4.417  10.527   8.887  0.0013  0.3355 -0.5139
 1003MOL0     C35298   4.312  10.492   8.999  0.0295  0.9909 -0.1372
 1003MOL0     C35299   4.412  10.476   8.756 -0.4216  0.4493  0.3145
 1003MOL0     C35300   4.289  10.402   8.707 -0.1167 -1.1093 -0.3680
 1003MOL0     O35301   4.166  10.437   8.761  0.5143  0.1753 -0.4308
 1003MOL0     C35302   4.071  10.351   8.720 -0.4347  0.7232 -0.0168
 1003MOL0     C35303   3.988  10.375   8.612 -0.4931 -0.1248 -0.0050
 1003MOL0     C35304   3.900  10.273   8.565 -0.0805 -0.2928  0.6204
 1003MOL0     C35305   3.886  10.156   8.637 -0.1930 -0.7826  0.9016
 1003MOL0     O35306   3.795  10.066   8.580 -0.5281 -0.5546  0.6562
 1003MOL0     C35307   3.696  10.014   8.675 -0.3602  0.5839 -0.3560
 1003MOL0     C35308   3.558  10.008   8.621  0.9223 -0.8754 -0.0210
 1003MOL0     C35309   3.494  10.142   8.634 -0.2892 -0.4923 -0.8719
 1003MOL0     C35310   3.355  10.124   8.563 -0.6211  0.5873 -0.1957
 1003MOL0     C35311   3.282  10.261   8.549  0.1803 -0.6076 -0.0562
 1003MOL0     C35312   3.149  10.265   8.466 -0.3866 -0.5699 -0.1678
 1003MOL0     C35313   3.094  10.410   8.479 -0.0677  0.5901 -0.3693
 1003MOL0     C35314   2.941  10.411   8.466 -0.4166  0.1221  0.2457
 1003MOL0    Cl35315   2.861  10.321   8.595 -0.2357 -0.3833  0.0472
 1003MOL0     C35316   3.963  10.132   8.755 -0.0539 -0.1940 -0.1427
 1003MOL0     C35317   4.052  10.228   8.795 -0.7472  0.5866 -0.3205
 1003MOL0     O35318   4.310  10.323   8.622  0.0133  0.2122  0.1621
 1003MOL0     C35319   4.517  10.491   8.668 -0.4527  0.4863 -0.1628
 1003MOL0     C35320   4.629  10.553   8.714  0.3677 -0.7223 -0.2661
 1003MOL0     N35321   5.240  10.815   8.935  0.1872 -0.4127 -0.6510
 1003MOL0     N35322   5.345  10.878   8.891 -0.1131 -0.5309 -0.6514
 1003MOL0     C35323   6.670  10.582   8.645 -0.5150 -0.2292  0.4104
 1003MOL0     C35324   6.806  10.558   8.665  0.9194  0.3023  1.2127
 1003MOL0     C35325   7.254  10.541   8.709  0.3004  0.7203 -0.2925
 1003MOL0     C35326   7.306  10.652   8.777  0.4515  0.0009 -0.2707
 1003MOL0     C35327   7.432  10.661   8.832  0.1134 -0.5062  0.7747
 1003MOL0     C35328   7.520  10.555   8.819  0.4936 -0.6566  0.7260
 1003MOL0     O35329   7.650  10.560   8.857  0.2705 -0.0093 -0.4714
 1003MOL0     C35330   7.678  10.637   8.974 -0.1161  0.1787 -1.0070
 1003MOL0     C35331   7.834  10.639   8.970 -0.9762 -0.4787  0.7744
 1003MOL0     C35332   7.894  10.502   8.971 -0.6041 -0.2439  0.0658
 1003MOL0     C35333   7.959  10.474   8.834 -0.0011  0.8192 -0.6953
 1003MOL0     C35334   8.003  10.334   8.839 -0.2653  0.3537 -0.0110
 1003MOL0     C35335   8.050  10.225   8.855  0.0459  0.5666  0.2306
 1003MOL0     C35336   7.477  10.439   8.752 -0.4042  0.4215 -0.3692
 1003MOL0     C35337   7.343  10.434   8.693 -0.0381  0.4867 -1.0483
 1003MOL0     H35338   6.909  10.880   8.679  2.2838 -1.0348 -2.8495
 1003MOL0     H35339   6.687  10.922   8.643 -0.0533 -0.7388 -0.3857
 1003MOL0     H35340   6.380  10.579   8.571 -2.2050 -1.3239  2.0134
 1003MOL0     H35341   6.408  10.614   8.747  1.3606 -0.0502 -0.0097
 1003MOL0     H35342   6.263  10.812   8.732  0.4962 -0.2708  1.0321
 1003MOL0     H35343   6.261  10.815   8.560  1.2765  1.3278  1.1595
 1003MOL0     H35344   6.129  10.592   8.568  0.9049  0.6709 -0.4335
 1003MOL0     H35345   6.127  10.616   8.744  0.7475  2.9213  0.5902
 1003MOL0     H35346   6.030  10.860   8.705  0.8650  0.5559 -0.2247
 1003MOL0     H35347   6.004  10.803   8.538 -0.7711 -2.2820 -0.3704
 1003MOL0     H35348   5.852  10.605   8.639  1.8256  0.1611  0.0786
 1003MOL0     H35349   5.898  10.676   8.796 -0.1817  1.7556 -0.1285
 1003MOL0     H35350   5.801  10.893   8.665 -2.1369  0.8844 -2.2044
 1003MOL0     H35351   5.727  10.770   8.564 -2.6661 -0.0642  1.1122
 1003MOL0     H35352   5.646  10.654   8.762 -0.5945 -0.8358  0.2351
 1003MOL0     H35353   5.690  10.791   8.867 -0.2226  0.4873 -0.2104
 1003MOL0     H35354   5.500  10.820   8.624 -0.8612 -0.2243 -0.4664
 1003MOL0     H35355   5.536  10.948   8.732  0.6073  0.4610 -1.2575
 1003MOL0     H35356   5.429  10.573   8.812 -0.0622 -0.3246 -0.7549
 1003MOL0     H35357   5.216  10.489   8.896 -4.5745  1.1595 -4.5271
 1003MOL0     H35358   5.216  10.561   9.066  0.4290 -0.5945 -0.6882
 1003MOL0     H35359   4.997  10.486   8.986 -0.1245  0.6512 -0.4781
 1003MOL0     H35360   5.012  10.585   8.844  1.3747  0.5780 -1.1009
 1003MOL0     H35361   4.981  10.789   8.979  3.6628  0.1403  0.8631
 1003MOL0     H35362   4.968  10.701   9.138  2.2338 -0.1026 -0.9180
 1003MOL0     H35363   4.748  10.770   9.057  1.5227  0.0368  1.1600
 1003MOL0     H35364   4.760  10.610   9.082 -0.0729  0.8406  1.4160
 1003MOL0     H35365   4.538  10.640   9.032 -0.8208 -0.8711  0.3903
 1003MOL0     H35366   4.297  10.384   9.008 -1.6180  1.3120  1.7268
 1003MOL0     H35367   4.349  10.533   9.094  3.6676 -3.4325  0.7450
 1003MOL0     H35368   4.212  10.534   8.984 -0.7099 -1.1828 -1.7838
 1003MOL0     H35369   3.995  10.469   8.558  2.2159  0.0500  0.4920
 1003MOL0     H35370   3.839  10.273   8.476  1.1239 -1.8799 -0.2754
 1003MOL0     H35371   3.732   9.913   8.697  1.8555  1.3975  0.0523
 1003MOL0     H35372   3.699  10.064   8.773  3.0519  0.5239 -0.2821
 1003MOL0     H35373   3.565   9.981   8.515  0.1622 -0.8728 -0.0791
 1003MOL0     H35374   3.507   9.927   8.674 -0.0914  0.8871  1.8332
 1003MOL0     H35375   3.558  10.213   8.582 -1.5985  1.1949 -0.2987
 1003MOL0     H35376   3.476  10.180   8.735  1.9161  2.0583 -1.3305
 1003MOL0     H35377   3.367  10.086   8.462 -0.8116 -1.0282  0.3637
 1003MOL0     H35378   3.283  10.062   8.617 -0.4338 -0.0110 -0.6267
 1003MOL0     H35379   3.354  10.324   8.495 -1.6110  2.3020  0.7107
 1003MOL0     H35380   3.271  10.319   8.641  2.3519  2.7616 -1.7314
 1003MOL0     H35381   3.157  10.226   8.364  0.6600  1.5550 -0.9427
 1003MOL0     H35382   3.086  10.195   8.523 -0.1264 -0.6424  0.0355
 1003MOL0     H35383   3.142  10.463   8.397  0.1106  0.4556 -0.3528
 1003MOL0     H35384   3.124  10.465   8.569 -1.2538 -4.2229  3.4388
 1003MOL0     H35385   2.912  10.372   8.368 -4.8099 -2.8197  2.3755
 1003MOL0     H35386   2.904  10.514   8.468 -1.5962 -0.2573  2.6893
 1003MOL0     H35387   3.958  10.036   8.806  1.0066  0.1793  0.7041
 1003MOL0     H35388   4.110  10.216   8.886  1.7075  0.2053 -1.8408
 1003MOL0     H35389   4.519  10.447   8.569  1.5366  0.1339  0.0010
 1003MOL0     H35390   4.721  10.546   8.658 -1.0758 -2.9452 -2.5638
 1003MOL0     H35391   6.610  10.492   8.641 -1.8860  0.7084 -2.0979
 1003MOL0     H35392   6.831  10.453   8.680  3.8652  0.2966 -2.3751
 1003MOL0     H35393   7.247  10.742   8.789  0.9127  0.3732 -0.8036
 1003MOL0     H35394   7.462  10.760   8.866  0.7100 -0.2940 -0.3289
 1003MOL0     H35395   7.647  10.742   8.968 -0.7171  0.2453  1.9957
 1003MOL0     H35396   7.638  10.586   9.062 -0.8554  1.6676 -0.4432
 1003MOL0     H35397   7.883  10.689   9.054  0.0192  1.0893 -0.6893
 1003MOL0     H35398   7.863  10.692   8.879 -3.0859  1.7946  1.3022
 1003MOL0     H35399   7.816  10.427   8.984  0.4904 -1.3844  0.1378
 1003MOL0     H35400   7.963  10.479   9.052 -2.2769 -2.5864  0.9168
 1003MOL0     H35401   8.043  10.542   8.820  0.5747  1.5729  4.5230
 1003MOL0     H35402   7.884  10.491   8.755 -0.9051 -0.9521 -0.2925
 1003MOL0     H35403   8.063  10.119   8.860 -0.2836  0.1126 -4.1260
 1003MOL0     H35404   7.539  10.351   8.740  0.6557  1.0940  0.0129
 1003MOL0     H35405   7.307  10.347   8.639 -2.6485  1.2384 -0.6576
 1004MOL0     O35406   1.384   7.629   5.730  0.4982  0.4410 -0.1869
 1004MOL0     C35407   1.466   7.721   5.760  1.1936  1.4500 -0.8941
 1004MOL0     O35408   1.432   7.856   5.767 -0.4725 -0.7269  0.3552
 1004MOL0     C35409   1.299   7.895   5.763  0.4846 -0.2747  1.0439
 1004MOL0     C35410   1.243   7.957   5.874  0.1882  0.4428  0.1767
 1004MOL0     C35411   1.105   7.990   5.858 -0.1705 -0.4627 -0.3085
 1004MOL0     C35412   1.031   7.949   5.743  0.7452  0.0924 -0.0091
 1004MOL0     O35413   0.901   7.984   5.720 -0.5359 -0.5018  0.1196
 1004MOL0     C35414   0.808   7.875   5.701  0.1591  0.4870  0.5408
 1004MOL0     C35415   0.780   7.831   5.549  0.3155 -0.4284 -0.2103
 1004MOL0     C35416   0.638   7.774   5.530 -0.2701 -0.1442 -0.0844
 1004MOL0     C35417   0.634   7.709   5.396  0.3145  0.3562  0.7311
 1004MOL0     C35418   0.489   7.663   5.362  0.4682  0.2878  0.0986
 1004MOL0     C35419   0.425   7.772   5.268 -0.1169  0.2242  0.2477
 1004MOL0     C35420   0.307   7.708   5.201  0.3123 -0.0701  0.4358
 1004MOL0     C35421   0.184   7.704   5.295 -0.0089  0.0375  0.7463
 1004MOL0     N35422   0.062   7.689   5.218 -0.5649  0.2042  0.0089
 1004MOL0     C35423  -0.042   7.787   5.221 -0.2230  0.4290  0.0983
 1004MOL0     C35424  -0.147   7.736   5.154 -0.7289 -0.4347  0.7931
 1004MOL0     C35425  -0.288   7.797   5.144  0.4690  0.3711  0.5592
 1004MOL0     C35426  -0.328   7.877   5.020  0.3328  0.9872 -0.6776
 1004MOL0     C35427  -0.484   7.905   5.019 -0.1032 -0.0812 -0.8980
 1004MOL0     C35428  -0.564   7.962   5.139 -0.2663  0.7469  1.1545
 1004MOL0     O35429  -0.493   8.072   5.195 -0.6297  0.1890 -0.2803
 1004MOL0     C35430  -0.503   8.098   5.335 -0.9263 -0.8076 -0.0883
 1004MOL0     C35431  -0.624   8.088   5.409 -0.2875 -0.1867 -0.2316
 1004MOL0     C35432  -0.628   8.120   5.543 -0.6087 -0.0171  0.2367
 1004MOL0     C35433  -0.766   8.096   5.598  0.1408  0.2155  0.6283
 1004MOL0     C35434  -0.516   8.192   5.597 -0.6844 -0.5954 -0.4530
 1004MOL0     C35435  -0.515   8.258   5.735 -1.0697 -0.6994  0.4222
 1004MOL0     O35436  -0.401   8.283   5.807 -1.1098  0.0178 -0.3346
 1004MOL0     C35437  -0.415   8.362   5.922 -0.3999 -0.3356 -0.0450
 1004MOL0     C35438  -0.387   8.308   6.048  0.5094 -0.0520 -0.5171
 1004MOL0     C35439  -0.405   8.383   6.170  0.1224 -0.2942  0.1566
 1004MOL0     C35440  -0.461   8.512   6.165  0.5366 -0.2703  0.7513
 1004MOL0     O35441  -0.490   8.595   6.273  0.0960 -0.0047  0.1634
 1004MOL0     C35442  -0.524   8.527   6.390  0.2890 -0.4204  0.6682
 1004MOL0     C35443  -0.563   8.626   6.490 -0.0255 -0.2919 -0.2239
 1004MOL0     C35444  -0.699   8.687   6.453  0.2033  0.0142  0.3251
 1004MOL0     C35445  -0.810   8.601   6.515 -0.2574 -0.1326 -0.8002
 1004MOL0     C35446  -0.945   8.604   6.445  0.0499  0.4816 -1.2506
 1004MOL0     C35447  -1.018   8.739   6.458 -0.2560 -0.3508  0.4610
 1004MOL0     C35448  -1.133   8.762   6.358  0.8411 -0.0200  0.1636
 1004MOL0     C35449  -1.164   8.912   6.374  0.7502 -0.6302  0.1905
 1004MOL0    Cl35450  -1.291   8.968   6.245  0.1812  0.2467 -0.0613
 1004MOL0     C35451  -0.489   8.569   6.036  0.0778 -0.0843 -0.1563
 1004MOL0     C35452  -0.474   8.494   5.917 -0.4191 -0.6771 -0.2539
 1004MOL0     O35453  -0.621   8.306   5.764  0.4562 -0.0966 -0.4743
 1004MOL0     C35454  -0.402   8.209   5.520  0.6012 -0.3413  0.6176
 1004MOL0     C35455  -0.392   8.156   5.388  0.1420 -0.1162 -0.0849
 1004MOL0     N35456  -0.107   7.618   5.109  0.0378 -0.4309 -0.5145
 1004MOL0     N35457   0.009   7.579   5.152  0.0351  0.0173  0.1081
 1004MOL0     C35458   1.099   7.892   5.637 -0.6587 -1.4216  0.1151
 1004MOL0     C35459   1.230   7.870   5.646 -0.1936 -0.4111  0.3909
 1004MOL0     C35460   1.600   7.670   5.790  0.3962  0.0239  0.3683
 1004MOL0     C35461   1.630   7.542   5.815 -0.4215  0.1583 -0.2164
 1004MOL0     C35462   1.770   7.499   5.830  0.5407  0.4828  0.3720
 1004MOL0     C35463   1.869   7.599   5.822 -0.5427  0.7075 -0.0043
 1004MOL0     O35464   2.008   7.573   5.839 -0.7203 -0.0679  0.1799
 1004MOL0     C35465   2.040   7.446   5.899 -0.1029 -0.0983 -0.9625
 1004MOL0     C35466   2.191   7.442   5.941  1.2269 -0.1909  0.6879
 1004MOL0     C35467   2.209   7.309   6.012 -0.0005 -0.0869 -0.3268
 1004MOL0     C35468   2.353   7.272   6.053  0.3833 -0.5085  0.2250
 1004MOL0     C35469   2.398   7.337   6.180  0.7166 -0.6137 -0.5673
 1004MOL0     C35470   2.414   7.404   6.283 -0.7719  0.8174 -0.4844
 1004MOL0     C35471   1.829   7.731   5.788 -0.1308  1.3484  0.3347
 1004MOL0     C35472   1.701   7.767   5.772 -0.0592 -0.3534  0.2251
 1004MOL0     H35473   1.297   7.980   5.966  0.8887 -1.1294  0.1974
 1004MOL0     H35474   1.060   8.035   5.946 -0.1135  2.9780 -1.8951
 1004MOL0     H35475   0.829   7.786   5.760  0.6183  1.3380  1.7045
 1004MOL0     H35476   0.711   7.915   5.733 -0.9799 -0.1919 -1.8632
 1004MOL0     H35477   0.786   7.920   5.485 -2.2138  1.4674  1.9478
 1004MOL0     H35478   0.850   7.760   5.505  0.4400  0.6795 -1.9204
 1004MOL0     H35479   0.613   7.706   5.612 -0.8111 -1.1235 -1.0382
 1004MOL0     H35480   0.559   7.850   5.532 -0.7768 -0.6478 -0.6562
 1004MOL0     H35481   0.663   7.776   5.316 -5.6129  1.5833 -0.9242
 1004MOL0     H35482   0.699   7.623   5.411 -3.0172 -2.4922  0.2040
 1004MOL0     H35483   0.490   7.573   5.301  0.3098  0.2569  0.1410
 1004MOL0     H35484   0.432   7.649   5.454  0.5535 -0.3460  0.0540
 1004MOL0     H35485   0.385   7.857   5.324  0.7507  0.3499  0.6977
 1004MOL0     H35486   0.500   7.815   5.201  0.0085 -0.1936  0.1163
 1004MOL0     H35487   0.269   7.765   5.116  3.9528  1.1953 -0.5247
 1004MOL0     H35488   0.328   7.606   5.168  1.6144  0.5790 -0.8660
 1004MOL0     H35489   0.189   7.807   5.332  2.5129  2.4111 -4.8563
 1004MOL0     H35490   0.189   7.635   5.379 -0.1258 -2.3328 -1.0858
 1004MOL0     H35491  -0.033   7.886   5.265  1.7702  0.5443 -0.4452
 1004MOL0     H35492  -0.357   7.712   5.152  1.0143 -0.1388 -0.0022
 1004MOL0     H35493  -0.302   7.855   5.235  2.0629 -2.5695  2.8593
 1004MOL0     H35494  -0.304   7.810   4.936  0.3810  0.5952 -0.3562
 1004MOL0     H35495  -0.263   7.965   5.013 -1.5736  2.4013 -1.3636
 1004MOL0     H35496  -0.520   7.802   5.016  1.2086 -0.5545 -1.3628
 1004MOL0     H35497  -0.511   7.954   4.925 -2.1967  3.7535  1.4592
 1004MOL0     H35498  -0.570   7.875   5.205  1.0421  0.1874  0.5817
 1004MOL0     H35499  -0.665   7.992   5.110  0.0202 -0.2275 -1.1161
 1004MOL0     H35500  -0.714   8.056   5.358 -1.5733  1.3054  1.0136
 1004MOL0     H35501  -0.833   8.179   5.621 -0.4022  1.2176 -3.6127
 1004MOL0     H35502  -0.833   8.047   5.526 -0.5214 -0.0478  1.4115
 1004MOL0     H35503  -0.762   8.030   5.685  1.5119 -0.8843 -0.2261
 1004MOL0     H35504  -0.363   8.202   6.046 -3.3912 -1.2110  1.6760
 1004MOL0     H35505  -0.392   8.337   6.267  0.4454 -0.5912 -0.0281
 1004MOL0     H35506  -0.594   8.446   6.369 -0.7902  0.5438  0.3735
 1004MOL0     H35507  -0.434   8.481   6.430  0.6919  0.2561  0.5590
 1004MOL0     H35508  -0.573   8.585   6.591  1.6510 -1.5907 -0.5407
 1004MOL0     H35509  -0.495   8.711   6.493 -0.0906 -0.2555  1.1611
 1004MOL0     H35510  -0.719   8.702   6.347  0.3253  3.9771  0.7259
 1004MOL0     H35511  -0.711   8.789   6.491 -2.7874 -0.4501  0.8614
 1004MOL0     H35512  -0.780   8.495   6.517  0.1951 -0.0089 -0.8332
 1004MOL0     H35513  -0.817   8.621   6.622 -3.6573 -0.2841 -0.8901
 1004MOL0     H35514  -1.007   8.522   6.484  0.5560  0.1279 -1.1834
 1004MOL0     H35515  -0.918   8.574   6.343  1.4331 -2.6817 -0.0845
 1004MOL0     H35516  -1.046   8.761   6.562  0.7242 -1.5108  0.9866
 1004MOL0     H35517  -0.941   8.812   6.430  0.6451 -0.2325  3.0146
 1004MOL0     H35518  -1.223   8.706   6.386 -0.1223  0.3904 -1.9335
 1004MOL0     H35519  -1.104   8.745   6.254 -0.8950 -0.0315 -0.3549
 1004MOL0     H35520  -1.070   8.968   6.365 -0.3174  1.3280  0.6250
 1004MOL0     H35521  -1.206   8.924   6.475  0.0123  4.5682 -0.4542
 1004MOL0     H35522  -0.515   8.674   6.028 -2.2480 -0.6874 -1.5921
 1004MOL0     H35523  -0.495   8.546   5.824  1.4535  0.2753 -0.1944
 1004MOL0     H35524  -0.320   8.267   5.561  0.1458  0.9374 -0.2410
 1004MOL0     H35525  -0.299   8.157   5.332 -0.1001 -2.0599 -0.6107
 1004MOL0     H35526   1.050   7.880   5.541  0.5531  2.2603 -1.1561
 1004MOL0     H35527   1.290   7.826   5.567  1.5012 -1.1512  1.9940
 1004MOL0     H35528   1.557   7.462   5.823  1.0089 -1.4850 -2.4919
 1004MOL0     H35529   1.799   7.397   5.850  2.3016  0.9378  0.2804
 1004MOL0     H35530   1.969   7.442   5.983 -0.9171 -1.1264 -1.6672
 1004MOL0     H35531   2.005   7.372   5.827 -6.7697  2.0806 -0.7215
 1004MOL0     H35532   2.206   7.528   6.007  1.1209 -0.0234  0.4947
 1004MOL0     H35533   2.256   7.446   5.854 -1.1362 -2.3271 -1.3237
 1004MOL0     H35534   2.180   7.225   5.947 -2.1866  0.0801  0.3463
 1004MOL0     H35535   2.148   7.306   6.102  0.9536 -2.3799  0.3258
 1004MOL0     H35536   2.430   7.299   5.980  0.3094  3.1387  1.2977
 1004MOL0     H35537   2.352   7.164   6.069 -1.2250 -0.4245  0.8203
 1004MOL0     H35538   2.427   7.460   6.374 -0.5371 -0.3545  0.2164
 1004MOL0     H35539   1.909   7.802   5.770  2.2230 -1.6230 -2.0722
 1004MOL0     H35540   1.687   7.874   5.755  1.4979  0.1638  1.8975
 1005MOL0     O35541   4.213   4.440   7.324 -0.2459  0.3493 -0.1598
 1005MOL0     C35542   4.257   4.547   7.364 -0.0416 -0.7348  0.1420
 1005MOL0     O35543   4.195   4.643   7.434  0.1508  0.1935 -0.0118
 1005MOL0     C35544   4.061   4.625   7.445 -0.0173  0.0701 -0.7759
 1005MOL0     C35545   4.003   4.552   7.545 -0.7756 -0.1352 -0.0708
 1005MOL0     C35546   3.867   4.544   7.557 -0.4872 -0.5145  0.2763
 1005MOL0     C35547   3.787   4.590   7.447  0.2654  0.3748 -0.5026
 1005MOL0     O35548   3.648   4.576   7.445  0.0013  0.1147 -0.3713
 1005MOL0     C35549   3.577   4.465   7.502  0.4767 -0.8913  0.5411
 1005MOL0     C35550   3.605   4.326   7.425 -0.1695  0.6444  0.4802
 1005MOL0     C35551   3.546   4.202   7.486  0.2641  0.8307 -0.6017
 1005MOL0     C35552   3.607   4.178   7.625  0.1140 -0.4961 -1.1052
 1005MOL0     C35553   3.584   4.038   7.679  0.1515  0.1887 -0.4659
 1005MOL0     C35554   3.638   4.025   7.822  0.1964  0.0142 -0.5186
 1005MOL0     C35555   3.601   3.902   7.906 -0.3958 -0.3478 -0.0570
 1005MOL0     C35556   3.692   3.777   7.869 -0.7370 -0.9967 -0.1221
 1005MOL0     N35557   3.634   3.694   7.753 -0.3894 -0.0948  0.0254
 1005MOL0     C35558   3.569   3.573   7.772 -0.2370  0.4615  0.1927
 1005MOL0     C35559   3.546   3.532   7.647 -0.2387 -0.3223  0.1377
 1005MOL0     C35560   3.512   3.394   7.598 -0.0277  0.7062  0.0160
 1005MOL0     C35561   3.376   3.388   7.544 -0.0642  0.4234 -0.0674
 1005MOL0     C35562   3.360   3.263   7.448 -0.5810  0.3455 -0.4444
 1005MOL0     C35563   3.234   3.255   7.354 -0.3386 -0.3282 -0.0135
 1005MOL0     O35564   3.115   3.246   7.426  0.2248 -0.2307 -0.3172
 1005MOL0     C35565   3.000   3.229   7.351  0.2695 -0.0940 -0.0796
 1005MOL0     C35566   2.980   3.179   7.225  0.7355 -0.3153  0.6096
 1005MOL0     C35567   2.846   3.153   7.172 -0.5129 -0.3241 -0.2449
 1005MOL0     C35568   2.846   3.103   7.028 -0.4429  0.6241 -0.3603
 1005MOL0     C35569   2.734   3.184   7.246 -0.2013  0.7333  0.0613
 1005MOL0     C35570   2.593   3.159   7.210  0.5292 -0.5427  0.4929
 1005MOL0     O35571   2.491   3.221   7.288 -0.8165  0.9589 -0.2584
 1005MOL0     C35572   2.368   3.179   7.246 -0.2523  0.4801  0.3985
 1005MOL0     C35573   2.323   3.042   7.254 -0.1468  0.3360 -0.3903
 1005MOL0     C35574   2.191   3.006   7.219  0.3684  0.1286 -0.5724
 1005MOL0     C35575   2.093   3.111   7.203 -0.5549  0.6131 -0.2173
 1005MOL0     O35576   1.961   3.072   7.180 -0.3199 -0.4138  0.5784
 1005MOL0     C35577   1.915   2.945   7.218  1.2546 -0.0900 -0.0554
 1005MOL0     C35578   1.755   2.957   7.235 -0.2039 -0.6054  0.4116
 1005MOL0     C35579   1.678   3.043   7.134  0.2299 -0.1569  0.1800
 1005MOL0     C35580   1.529   3.012   7.150  0.1922  0.7346 -0.6030
 1005MOL0     C35581   1.433   3.112   7.084 -0.1953  0.4873  0.3465
 1005MOL0     C35582   1.287   3.076   7.112  0.4022  0.6476  0.3484
 1005MOL0     C35583   1.182   3.186   7.055  0.4809 -0.0054  0.2805
 1005MOL0     C35584   1.052   3.124   7.003 -1.1632  0.2090 -0.1102
 1005MOL0    Cl35585   0.976   3.025   7.145 -0.0140  0.1500 -0.3142
 1005MOL0     C35586   2.133   3.241   7.201 -0.4454  0.2892  0.0224
 1005MOL0     C35587   2.270   3.273   7.229  1.0852 -0.5281  0.5772
 1005MOL0     O35588   2.575   3.096   7.107  0.4213  0.7731 -0.9512
 1005MOL0     C35589   2.756   3.241   7.372  0.1361  0.5498 -0.1172
 1005MOL0     C35590   2.888   3.260   7.423 -0.1774 -0.6044  0.4564
 1005MOL0     N35591   3.583   3.624   7.549 -0.1106  0.1046 -0.5268
 1005MOL0     N35592   3.634   3.725   7.616 -0.7037 -0.2358 -0.2158
 1005MOL0     C35593   3.841   4.663   7.341 -0.3086 -0.3815  0.1055
 1005MOL0     C35594   3.979   4.683   7.348  0.9366 -0.4955  0.1253
 1005MOL0     C35595   4.396   4.595   7.314  1.1054  0.1025 -0.6132
 1005MOL0     C35596   4.455   4.705   7.371 -0.5872 -0.6936  0.0777
 1005MOL0     C35597   4.575   4.749   7.314 -0.0138 -0.3237 -0.5810
 1005MOL0     C35598   4.640   4.673   7.212 -0.7077 -0.9066 -0.2489
 1005MOL0     O35599   4.756   4.722   7.164  0.2302 -0.2384 -0.4880
 1005MOL0     C35600   4.845   4.794   7.250  0.3927 -0.0779  0.2280
 1005MOL0     C35601   4.990   4.772   7.216 -0.0984  0.3782 -0.1305
 1005MOL0     C35602   5.026   4.626   7.237 -0.2637  0.7768 -0.6705
 1005MOL0     C35603   5.150   4.590   7.148  0.4799  0.1732 -0.1811
 1005MOL0     C35604   5.268   4.671   7.190  0.4147  0.6578  0.1217
 1005MOL0     C35605   5.343   4.746   7.244 -0.1091  0.2095  0.2445
 1005MOL0     C35606   4.579   4.560   7.158 -0.1224  0.1784 -0.2829
 1005MOL0     C35607   4.456   4.519   7.211  0.1020 -0.3868 -0.1677
 1005MOL0     H35608   4.070   4.508   7.619  1.0032 -0.5361 -1.8330
 1005MOL0     H35609   3.819   4.516   7.650 -0.3949 -0.1823  0.4269
 1005MOL0     H35610   3.608   4.451   7.606  1.4332 -1.7548  0.1497
 1005MOL0     H35611   3.472   4.495   7.495  1.3113  2.4845  0.2984
 1005MOL0     H35612   3.570   4.333   7.322 -0.6476  1.3855  0.6870
 1005MOL0     H35613   3.713   4.310   7.420 -0.1780  0.2639  1.3456
 1005MOL0     H35614   3.437   4.208   7.484  0.3443  2.4857 -1.3628
 1005MOL0     H35615   3.572   4.120   7.418 -2.8735 -0.5325 -0.3409
 1005MOL0     H35616   3.713   4.200   7.639 -0.1682  1.7251 -1.9756
 1005MOL0     H35617   3.565   4.251   7.695  0.1315 -0.4202 -1.1729
 1005MOL0     H35618   3.475   4.023   7.685 -0.0852  2.0280  0.3675
 1005MOL0     H35619   3.641   3.974   7.610  2.0676  0.7275  0.5757
 1005MOL0     H35620   3.747   4.029   7.821  0.1670  2.5040 -1.2757
 1005MOL0     H35621   3.612   4.120   7.871  1.6315  1.0009 -1.5711
 1005MOL0     H35622   3.603   3.931   8.011 -0.2683  2.6653 -0.8111
 1005MOL0     H35623   3.499   3.874   7.878  0.7693 -5.2800 -0.2657
 1005MOL0     H35624   3.700   3.712   7.956 -3.9000  0.2330  1.2123
 1005MOL0     H35625   3.792   3.812   7.840 -1.8406  2.1581 -0.5741
 1005MOL0     H35626   3.570   3.517   7.865 -1.3041  2.9564  1.8097
 1005MOL0     H35627   3.574   3.363   7.513 -1.1279 -1.3099 -0.1043
 1005MOL0     H35628   3.529   3.328   7.684  1.8737  2.2082  0.8714
 1005MOL0     H35629   3.351   3.475   7.483  5.2424  1.4631 -1.2683
 1005MOL0     H35630   3.310   3.374   7.630  2.0893  1.7153  1.9087
 1005MOL0     H35631   3.364   3.167   7.500  2.3035  0.1491 -0.8701
 1005MOL0     H35632   3.449   3.276   7.386  1.9266  0.5938  2.9593
 1005MOL0     H35633   3.248   3.170   7.286 -1.6665  1.4410 -2.7065
 1005MOL0     H35634   3.233   3.347   7.295 -0.5135 -0.4435 -0.1906
 1005MOL0     H35635   3.066   3.172   7.159  0.2626  0.8436 -0.1563
 1005MOL0     H35636   2.946   3.078   6.992 -1.3335 -0.6586 -2.1296
 1005MOL0     H35637   2.793   3.008   7.012  3.9150 -2.6630  2.3294
 1005MOL0     H35638   2.798   3.175   6.961  2.8871  4.5356  1.0527
 1005MOL0     H35639   2.401   2.968   7.266  1.1464  0.8915 -4.1429
 1005MOL0     H35640   2.166   2.901   7.214 -2.1163  0.6132  0.1394
 1005MOL0     H35641   1.944   2.866   7.148  1.7290  0.2498 -0.2470
 1005MOL0     H35642   1.966   2.910   7.308  0.1215 -2.5365 -0.2665
 1005MOL0     H35643   1.707   2.859   7.233 -1.1334 -0.1546  0.0081
 1005MOL0     H35644   1.745   3.002   7.335 -0.6713 -1.8233  0.9369
 1005MOL0     H35645   1.715   3.014   7.036  1.0354 -1.6302  0.8855
 1005MOL0     H35646   1.704   3.149   7.140 -0.8444  0.1086  0.4634
 1005MOL0     H35647   1.506   2.920   7.096 -1.2321  1.9247 -2.1168
 1005MOL0     H35648   1.497   3.013   7.255 -0.6153  3.2179 -0.8131
 1005MOL0     H35649   1.439   3.108   6.975  0.9303 -0.4932  0.4352
 1005MOL0     H35650   1.468   3.212   7.112  1.0350 -0.4308  2.2385
 1005MOL0     H35651   1.262   2.978   7.070 -3.3150  0.2675  2.9688
 1005MOL0     H35652   1.259   3.063   7.217 -2.3330 -1.5666 -0.5353
 1005MOL0     H35653   1.214   3.246   6.969 -1.0854  4.3393  2.4194
 1005MOL0     H35654   1.146   3.249   7.137 -1.8823 -0.3762 -0.3874
 1005MOL0     H35655   1.083   3.058   6.922  2.9305 -1.1774  2.3012
 1005MOL0     H35656   0.974   3.196   6.975 -1.2839  0.6339  1.2589
 1005MOL0     H35657   2.062   3.323   7.188 -0.6218 -0.0991 -1.7652
 1005MOL0     H35658   2.300   3.375   7.248  2.9371 -0.8586 -0.3831
 1005MOL0     H35659   2.673   3.274   7.435 -0.2984  0.2909 -0.5411
 1005MOL0     H35660   2.900   3.316   7.515 -0.2339 -0.7410  0.5473
 1005MOL0     H35661   3.787   4.726   7.271  1.5666  1.8405  0.5271
 1005MOL0     H35662   4.020   4.750   7.272 -0.4273  0.2973  0.0653
 1005MOL0     H35663   4.402   4.756   7.451 -1.7878 -0.7100 -0.6770
 1005MOL0     H35664   4.605   4.845   7.353 -1.2852  1.8712 -4.4430
 1005MOL0     H35665   4.827   4.902   7.254 -0.5518 -0.2485  1.1355
 1005MOL0     H35666   4.830   4.770   7.355 -4.0398  2.3259  0.4096
 1005MOL0     H35667   5.045   4.828   7.292  0.0983 -1.0846  0.8581
 1005MOL0     H35668   5.026   4.809   7.119  2.8814 -0.3167  0.5813
 1005MOL0     H35669   4.942   4.564   7.206  1.4985 -0.7166 -2.7537
 1005MOL0     H35670   5.053   4.616   7.342 -0.0703 -0.4718 -0.8311
 1005MOL0     H35671   5.126   4.622   7.046 -2.1804 -1.3166 -0.1027
 1005MOL0     H35672   5.183   4.486   7.143  0.0412  0.0809 -1.3106
 1005MOL0     H35673   5.423   4.805   7.283 -1.3417  2.0692  0.0664
 1005MOL0     H35674   4.630   4.501   7.082 -0.2083  2.9768 -2.7104
 1005MOL0     H35675   4.409   4.431   7.169 -4.8931  1.3461  1.0601
 1006MOL0     O35676   0.382   5.606   5.133 -0.4240  0.1632 -0.2322
 1006MOL0     C35677   0.455   5.515   5.097 -0.9365  0.0765 -0.5424
 1006MOL0     O35678   0.417   5.394   5.044  0.9602 -0.1592 -0.1735
 1006MOL0     C35679   0.288   5.372   5.009  0.5433 -0.3918 -0.4455
 1006MOL0     C35680   0.235   5.248   5.051  0.3092 -0.1606 -0.1012
 1006MOL0     C35681   0.098   5.211   5.033  0.0083  0.4441  0.3527
 1006MOL0     C35682   0.014   5.298   4.968  0.3188 -0.5661 -0.6335
 1006MOL0     O35683  -0.110   5.259   4.945  0.2241  0.4559  0.1201
 1006MOL0     C35684  -0.200   5.308   5.042  0.1349  0.8498 -1.1678
 1006MOL0     C35685  -0.322   5.368   4.966  0.7125 -0.8477  0.6889
 1006MOL0     C35686  -0.409   5.264   4.884 -0.3349  1.1314 -0.4845
 1006MOL0     C35687  -0.535   5.324   4.815 -0.2215 -0.2509  0.0302
 1006MOL0     C35688  -0.603   5.226   4.734  0.5190 -0.3609  0.1861
 1006MOL0     C35689  -0.748   5.267   4.690 -0.6604  0.1535  0.5609
 1006MOL0     C35690  -0.801   5.146   4.619  0.1717 -0.2621 -0.3246
 1006MOL0     C35691  -0.780   5.152   4.469  0.8544  0.2861  0.1946
 1006MOL0     N35692  -0.834   5.033   4.407  0.3564 -0.1232  0.2834
 1006MOL0     C35693  -0.765   4.908   4.408 -0.4646  0.3853 -0.6493
 1006MOL0     C35694  -0.843   4.835   4.329 -0.0075  0.3961 -0.1260
 1006MOL0     C35695  -0.808   4.690   4.307 -0.2697 -0.1770 -0.3002
 1006MOL0     C35696  -0.923   4.591   4.350  0.0877 -0.9001 -0.3119
 1006MOL0     C35697  -0.872   4.449   4.326  0.2443  0.6835  0.0825
 1006MOL0     C35698  -0.982   4.347   4.358  0.1561  0.0865 -0.9483
 1006MOL0     O35699  -1.028   4.350   4.493  0.0256  0.1701  0.9326
 1006MOL0     C35700  -1.149   4.303   4.516 -0.8916 -0.2512 -1.3007
 1006MOL0     C35701  -1.217   4.342   4.625 -0.3286 -0.8033 -0.7200
 1006MOL0     C35702  -1.343   4.294   4.664  0.1088  0.6912 -0.3194
 1006MOL0     C35703  -1.402   4.360   4.789 -0.4749  0.2385  0.3101
 1006MOL0     C35704  -1.397   4.180   4.590 -0.1033  0.4517  0.7038
 1006MOL0     C35705  -1.521   4.094   4.612 -0.0418 -0.5099 -0.0506
 1006MOL0     O35706  -1.582   4.015   4.512  0.2353 -0.5586  0.4852
 1006MOL0     C35707  -1.688   3.939   4.546  0.2579  0.0822 -0.1773
 1006MOL0     C35708  -1.693   3.801   4.540  0.5201 -0.5392 -0.0851
 1006MOL0     C35709  -1.808   3.730   4.577  0.6189 -0.2861 -0.4657
 1006MOL0     C35710  -1.932   3.792   4.615 -0.8655  0.1312  0.5933
 1006MOL0     O35711  -2.041   3.715   4.643  0.1055 -0.3783 -0.0108
 1006MOL0     C35712  -2.025   3.577   4.685  0.6358 -0.0367 -0.6912
 1006MOL0     C35713  -2.149   3.514   4.732 -0.3606  0.7737 -0.6311
 1006MOL0     C35714  -2.184   3.592   4.862 -0.0536  0.4649 -0.8236
 1006MOL0     C35715  -2.258   3.499   4.963 -0.3501  0.3121  0.2328
 1006MOL0     C35716  -2.166   3.410   5.033 -0.5463 -0.6989  0.5347
 1006MOL0     C35717  -2.235   3.325   5.143  0.1466 -0.5696  0.3803
 1006MOL0     C35718  -2.314   3.412   5.249 -0.2492  0.7176  0.3196
 1006MOL0     C35719  -2.399   3.331   5.349  0.0765 -0.3642  0.5860
 1006MOL0    Cl35720  -2.527   3.245   5.257  0.0779 -0.2369 -0.4001
 1006MOL0     C35721  -1.920   3.930   4.622  0.8209  0.7671  0.7840
 1006MOL0     C35722  -1.802   4.004   4.590 -1.4686  0.2477  0.2891
 1006MOL0     O35723  -1.562   4.097   4.730 -0.2641 -0.0489 -1.0085
 1006MOL0     C35724  -1.331   4.154   4.471 -0.5949 -0.0847 -0.0009
 1006MOL0     C35725  -1.201   4.206   4.439  1.2441 -0.6921  0.3942
 1006MOL0     N35726  -0.955   4.900   4.288  0.1971  0.0177  0.7882
 1006MOL0     N35727  -0.951   5.015   4.341 -0.1900 -0.2511 -0.5203
 1006MOL0     C35728   0.065   5.417   4.923  0.4933 -0.0173  0.0112
 1006MOL0     C35729   0.199   5.454   4.935 -0.5426 -0.3029 -0.2705
 1006MOL0     C35730   0.599   5.533   5.123  0.4377  0.5700  0.7644
 1006MOL0     C35731   0.691   5.423   5.113 -0.0422  0.7556  0.3334
 1006MOL0     C35732   0.825   5.440   5.122 -0.4673 -0.2486  0.0270
 1006MOL0     C35733   0.881   5.566   5.140 -0.2501 -0.4603  0.4722
 1006MOL0     O35734   1.018   5.572   5.141 -0.4461  0.7562  0.0222
 1006MOL0     C35735   1.077   5.702   5.161  0.9441  0.3832 -0.4051
 1006MOL0     C35736   1.222   5.683   5.199 -0.2940  0.0826  0.0925
 1006MOL0     C35737   1.300   5.593   5.103 -0.2393  0.6101 -0.9639
 1006MOL0     C35738   1.449   5.620   5.133 -0.9917  0.8012  0.4077
 1006MOL0     C35739   1.539   5.587   5.020  0.7714 -0.3765 -0.0666
 1006MOL0     C35740   1.626   5.579   4.936  0.8338 -0.0037  0.1656
 1006MOL0     C35741   0.794   5.674   5.149 -0.7074  0.6791 -0.7954
 1006MOL0     C35742   0.662   5.660   5.144 -0.4219 -0.6261 -0.2252
 1006MOL0     H35743   0.302   5.182   5.106 -0.8481  0.4558  2.1574
 1006MOL0     H35744   0.051   5.116   5.056 -0.6196  0.7316  0.2632
 1006MOL0     H35745  -0.227   5.224   5.107  1.8421  0.7434 -0.5504
 1006MOL0     H35746  -0.164   5.380   5.116  1.6325 -1.3505  0.3684
 1006MOL0     H35747  -0.390   5.429   5.025  1.7540  1.8526 -0.6860
 1006MOL0     H35748  -0.276   5.439   4.897  0.5727 -0.4061  1.0444
 1006MOL0     H35749  -0.344   5.207   4.817 -2.2682 -3.2212  0.9618
 1006MOL0     H35750  -0.443   5.187   4.954  3.0314 -0.8353 -0.8121
 1006MOL0     H35751  -0.603   5.365   4.890 -0.9491 -0.6748 -0.3832
 1006MOL0     H35752  -0.499   5.410   4.758  1.9859  0.1668  1.9373
 1006MOL0     H35753  -0.540   5.204   4.648  1.1117  0.5389  0.3750
 1006MOL0     H35754  -0.609   5.134   4.792 -3.6587 -0.7800 -0.5911
 1006MOL0     H35755  -0.821   5.306   4.762 -0.5278 -0.4190  1.0120
 1006MOL0     H35756  -0.734   5.339   4.608 -0.1928 -3.8924 -3.2642
 1006MOL0     H35757  -0.754   5.058   4.663  0.4640  0.1037  0.1084
 1006MOL0     H35758  -0.909   5.140   4.631  0.1668 -0.1029 -0.2888
 1006MOL0     H35759  -0.673   5.154   4.449  1.0502 -2.9258  0.4071
 1006MOL0     H35760  -0.833   5.240   4.430  0.3633  0.4982  1.2791
 1006MOL0     H35761  -0.674   4.886   4.463 -2.0016 -1.5860  1.2359
 1006MOL0     H35762  -0.789   4.684   4.200 -1.0570  2.7526 -0.7023
 1006MOL0     H35763  -0.707   4.670   4.346 -1.5094 -1.5821  2.4688
 1006MOL0     H35764  -1.016   4.617   4.298  0.9575  3.1383 -0.1632
 1006MOL0     H35765  -0.937   4.606   4.458  4.0982  0.2863  0.1780
 1006MOL0     H35766  -0.780   4.438   4.385  2.0451  5.5091 -1.3912
 1006MOL0     H35767  -0.843   4.424   4.224  1.3904 -2.2062  1.0124
 1006MOL0     H35768  -0.946   4.245   4.342 -3.7906 -1.8111  0.8697
 1006MOL0     H35769  -1.060   4.364   4.284 -1.4407 -3.2971 -0.1980
 1006MOL0     H35770  -1.176   4.425   4.681  1.2748 -1.2706 -1.1635
 1006MOL0     H35771  -1.351   4.337   4.883 -1.0663 -1.1313  0.3170
 1006MOL0     H35772  -1.408   4.469   4.780 -1.4353  0.0407 -2.0613
 1006MOL0     H35773  -1.505   4.323   4.792  0.7978 -3.7822  2.5893
 1006MOL0     H35774  -1.604   3.760   4.493  1.4747  3.7664 -2.5535
 1006MOL0     H35775  -1.813   3.621   4.577 -0.2945 -0.3155  2.2749
 1006MOL0     H35776  -2.002   3.523   4.592  0.7995 -2.6797  0.7682
 1006MOL0     H35777  -1.947   3.555   4.759  1.1629  0.2293 -1.1627
 1006MOL0     H35778  -2.226   3.520   4.655 -2.1586 -3.3403  0.6045
 1006MOL0     H35779  -2.125   3.408   4.741 -0.6348  0.3445 -3.9205
 1006MOL0     H35780  -2.247   3.676   4.831 -0.9630 -0.1778 -0.7692
 1006MOL0     H35781  -2.096   3.634   4.912  0.9131 -0.8819 -1.3188
 1006MOL0     H35782  -2.315   3.565   5.029 -0.8222 -2.6519  3.0491
 1006MOL0     H35783  -2.332   3.440   4.908  0.7576 -1.1339  0.2396
 1006MOL0     H35784  -2.089   3.470   5.084 -2.0892  1.4446  0.4998
 1006MOL0     H35785  -2.110   3.340   4.971 -0.9328 -1.1694  0.7059
 1006MOL0     H35786  -2.310   3.265   5.091  0.7141 -1.0225  0.0718
 1006MOL0     H35787  -2.167   3.257   5.196 -1.0135 -0.3993  2.1822
 1006MOL0     H35788  -2.381   3.484   5.202 -1.2764  0.9180  1.9889
 1006MOL0     H35789  -2.240   3.467   5.308 -0.3452 -0.0913  1.2306
 1006MOL0     H35790  -2.433   3.392   5.434 -0.2157  0.6547 -0.2434
 1006MOL0     H35791  -2.340   3.252   5.396  1.7467  1.8453  2.4604
 1006MOL0     H35792  -2.009   3.988   4.642 -0.5322 -0.8666 -0.2511
 1006MOL0     H35793  -1.815   4.112   4.590 -0.6159  0.3590 -0.5280
 1006MOL0     H35794  -1.357   4.077   4.398 -0.5206 -0.3714  0.2732
 1006MOL0     H35795  -1.156   4.175   4.345  0.1693 -0.3920 -0.2346
 1006MOL0     H35796  -0.004   5.481   4.870  0.7675  0.5234  0.2957
 1006MOL0     H35797   0.227   5.548   4.890  0.9036 -0.1357  0.9198
 1006MOL0     H35798   0.662   5.320   5.090 -1.0138  1.0260  0.2832
 1006MOL0     H35799   0.894   5.358   5.107  0.9533  0.8980  0.1016
 1006MOL0     H35800   1.075   5.762   5.070  0.9169  0.0696 -0.6138
 1006MOL0     H35801   1.033   5.771   5.234 -0.2755  1.3186 -1.9568
 1006MOL0     H35802   1.233   5.654   5.304  1.5009 -0.2830 -0.1778
 1006MOL0     H35803   1.273   5.779   5.200  2.3439 -1.2303  2.1612
 1006MOL0     H35804   1.265   5.579   5.000 -3.7675  2.7590 -0.2551
 1006MOL0     H35805   1.288   5.495   5.148 -3.2184  1.2982 -0.0112
 1006MOL0     H35806   1.479   5.547   5.209 -0.7849 -1.4596 -1.7136
 1006MOL0     H35807   1.464   5.721   5.170 -2.2957  1.3212 -0.4114
 1006MOL0     H35808   1.705   5.582   4.863  0.8743  0.9920  0.2392
 1006MOL0     H35809   0.836   5.773   5.164  2.3614 -0.4247 -1.2748
 1006MOL0     H35810   0.596   5.745   5.160  1.6174  0.9437  0.2082
 1007MOL0     O35811   8.698   3.691   3.550  0.4431  0.4887  0.7681
 1007MOL0     C35812   8.670   3.755   3.653  0.2522 -0.4165 -0.4936
 1007MOL0     O35813   8.752   3.844   3.726 -0.5465 -0.4974 -0.3117
 1007MOL0     C35814   8.879   3.852   3.691  0.0033  0.7608  0.2706
 1007MOL0     C35815   8.981   3.859   3.787 -0.4896 -0.3982 -0.8675
 1007MOL0     C35816   9.122   3.858   3.750  0.5557  0.6846 -0.2467
 1007MOL0     C35817   9.166   3.877   3.617  0.1605  0.2753  0.2928
 1007MOL0     O35818   9.300   3.889   3.594 -0.7108  0.1916 -1.2351
 1007MOL0     C35819   9.340   3.926   3.464  0.5912  0.1649  0.7066
 1007MOL0     C35820   9.489   3.930   3.451  0.5996  0.0269 -0.8640
 1007MOL0     C35821   9.554   4.047   3.527 -0.6428 -0.1505 -0.0825
 1007MOL0     C35822   9.698   4.071   3.479  0.2048  0.3767 -0.7280
 1007MOL0     C35823   9.800   4.143   3.572 -0.2512 -0.3641  0.0286
 1007MOL0     C35824   9.735   4.272   3.626  0.0000 -0.2245 -0.4783
 1007MOL0     C35825   9.841   4.355   3.712  0.4898 -0.6183 -0.1698
 1007MOL0     C35826   9.964   4.388   3.630 -0.7403  0.0029  0.5086
 1007MOL0     N35827  10.060   4.485   3.680 -0.2237 -0.1742  0.0132
 1007MOL0     C35828  10.106   4.484   3.812  0.2691  0.1850  0.0756
 1007MOL0     C35829  10.181   4.595   3.824  0.6198 -0.2590  0.5475
 1007MOL0     C35830  10.251   4.648   3.949  0.5748  1.0508 -0.8694
 1007MOL0     C35831  10.168   4.654   4.078 -0.4603  0.4123  0.6654
 1007MOL0     C35832  10.022   4.706   4.046  0.6902 -0.0949  0.1649
 1007MOL0     C35833   9.917   4.703   4.161  0.2076  0.0738 -0.1044
 1007MOL0     O35834   9.865   4.571   4.172 -0.2589  0.3544  0.4510
 1007MOL0     C35835   9.775   4.548   4.272 -0.8709  1.0060 -0.5017
 1007MOL0     C35836   9.635   4.557   4.260 -0.6332  0.3233  0.1700
 1007MOL0     C35837   9.547   4.516   4.364 -0.0424 -0.8380 -1.5237
 1007MOL0     C35838   9.400   4.550   4.340  0.1437 -0.4161  0.0331
 1007MOL0     C35839   9.593   4.455   4.486 -0.1778 -0.5775 -0.3046
 1007MOL0     C35840   9.507   4.428   4.606  0.0466  0.3435  0.0312
 1007MOL0     O35841   9.563   4.335   4.687  0.7213 -0.3146  0.9988
 1007MOL0     C35842   9.504   4.318   4.810  0.4180 -0.2705  0.8932
 1007MOL0     C35843   9.379   4.270   4.814  0.3022  0.0697 -0.0351
 1007MOL0     C35844   9.304   4.257   4.938  0.7384 -0.4751  1.1577
 1007MOL0     C35845   9.378   4.263   5.054  0.3458 -0.2153  0.9812
 1007MOL0     O35846   9.300   4.256   5.169  0.4459 -0.0401  0.5270
 1007MOL0     C35847   9.352   4.191   5.285  0.2500 -0.1893 -0.0848
 1007MOL0     C35848   9.411   4.296   5.383  0.4053  0.8662  0.3292
 1007MOL0     C35849   9.294   4.341   5.474  0.5520  0.1579  1.0883
 1007MOL0     C35850   9.332   4.447   5.579 -0.1577 -0.1083  0.2259
 1007MOL0     C35851   9.207   4.516   5.650 -0.7951 -0.1562 -0.1142
 1007MOL0     C35852   9.191   4.649   5.571 -0.4350 -0.1117  0.0351
 1007MOL0     C35853   9.042   4.691   5.565  0.3503 -0.0519 -0.3594
 1007MOL0     C35854   8.988   4.733   5.702 -0.2285  0.0617  0.6328
 1007MOL0    Cl35855   8.813   4.749   5.670 -0.3300  0.1184  0.0121
 1007MOL0     C35856   9.516   4.293   5.049  1.1204  0.2106 -0.4719
 1007MOL0     C35857   9.578   4.324   4.930  0.9369 -0.0404 -0.1601
 1007MOL0     O35858   9.399   4.483   4.619  0.3271  1.1319 -1.1627
 1007MOL0     C35859   9.731   4.432   4.483  0.2101 -1.1222  0.0457
 1007MOL0     C35860   9.821   4.470   4.384 -0.1965 -0.3449  0.1645
 1007MOL0     N35861  10.193   4.655   3.697 -0.0813  0.1782 -0.3486
 1007MOL0     N35862  10.113   4.591   3.617 -0.6714  0.0499 -0.5134
 1007MOL0     C35863   9.061   3.884   3.523 -0.2706  0.2632  0.5921
 1007MOL0     C35864   8.927   3.870   3.557 -0.4881 -0.2239  0.3355
 1007MOL0     C35865   8.523   3.765   3.676 -0.7258 -0.6716 -0.7956
 1007MOL0     C35866   8.465   3.812   3.798 -0.4452  1.6074  0.9529
 1007MOL0     C35867   8.324   3.807   3.813 -0.1003 -0.2059  0.5398
 1007MOL0     C35868   8.229   3.773   3.717  0.3818 -0.2405 -0.4144
 1007MOL0     O35869   8.091   3.772   3.731 -0.6362 -0.7798  0.0788
 1007MOL0     C35870   8.033   3.834   3.840 -0.0722 -0.7727  0.0546
 1007MOL0     C35871   7.885   3.857   3.823  0.7800  0.1219 -0.8515
 1007MOL0     C35872   7.841   3.952   3.939 -0.2429 -1.1781  0.6393
 1007MOL0     C35873   7.693   3.996   3.923  0.4592 -0.5008  0.5261
 1007MOL0     C35874   7.592   3.892   3.893 -0.2494  1.2409  0.4157
 1007MOL0     C35875   7.527   3.790   3.870  0.0919 -0.0553  0.0034
 1007MOL0     C35876   8.290   3.722   3.605 -1.8182 -0.1849  0.1883
 1007MOL0     C35877   8.431   3.726   3.579  0.1742  0.0250  0.4916
 1007MOL0     H35878   8.948   3.860   3.891  0.6873 -0.2155 -0.4773
 1007MOL0     H35879   9.194   3.843   3.829 -2.0882  0.2899  2.2371
 1007MOL0     H35880   9.301   3.856   3.389 -0.2287  0.3317  0.9686
 1007MOL0     H35881   9.295   4.021   3.435  0.2283  0.6687  2.7978
 1007MOL0     H35882   9.540   3.835   3.470 -0.6871 -0.5569 -0.1784
 1007MOL0     H35883   9.507   3.956   3.346  0.5980 -1.9412 -1.3965
 1007MOL0     H35884   9.487   4.133   3.522  0.4702  0.7395  0.0055
 1007MOL0     H35885   9.556   4.018   3.632 -0.7693  1.4065  0.3830
 1007MOL0     H35886   9.745   3.973   3.471 -0.0453 -0.0123  1.9054
 1007MOL0     H35887   9.690   4.121   3.381  0.1365 -1.3124 -1.6158
 1007MOL0     H35888   9.846   4.081   3.650  0.7995  2.0277  1.4464
 1007MOL0     H35889   9.887   4.161   3.507 -0.2262  0.8122  0.3640
 1007MOL0     H35890   9.708   4.330   3.537  0.2231  1.1673  0.3349
 1007MOL0     H35891   9.652   4.243   3.690  0.1145  0.3969 -0.0415
 1007MOL0     H35892   9.798   4.453   3.732  0.0098 -0.5201 -1.5538
 1007MOL0     H35893   9.859   4.311   3.810  1.1131 -1.1065 -0.4956
 1007MOL0     H35894   9.930   4.426   3.533 -2.9492 -0.1321  1.1794
 1007MOL0     H35895  10.012   4.296   3.597 -0.6352  0.6320 -1.1973
 1007MOL0     H35896  10.091   4.403   3.883  0.8880  0.5389  0.6168
 1007MOL0     H35897  10.351   4.608   3.970 -1.5171 -4.1588  0.5633
 1007MOL0     H35898  10.263   4.755   3.926  1.2206  0.6977 -2.2905
 1007MOL0     H35899  10.219   4.724   4.145  1.3279  0.6136 -0.8123
 1007MOL0     H35900  10.167   4.554   4.120  0.8812 -1.0397 -2.3993
 1007MOL0     H35901   9.977   4.642   3.970  1.9886 -0.6149 -0.1755
 1007MOL0     H35902  10.027   4.810   4.013  1.3691 -0.4140 -0.7838
 1007MOL0     H35903   9.835   4.775   4.156  0.3262  0.4660  2.2773
 1007MOL0     H35904   9.957   4.745   4.254 -0.2809 -0.5840  0.4161
 1007MOL0     H35905   9.583   4.599   4.175  1.6035 -2.5674 -2.9149
 1007MOL0     H35906   9.378   4.572   4.236 -0.3064 -3.7025 -0.6852
 1007MOL0     H35907   9.329   4.475   4.375 -0.7795  1.0062  1.3489
 1007MOL0     H35908   9.376   4.640   4.398 -2.3832  0.2743 -1.9420
 1007MOL0     H35909   9.323   4.258   4.722  1.7172 -0.2997 -0.8779
 1007MOL0     H35910   9.198   4.233   4.945  0.2246  0.7235 -1.3887
 1007MOL0     H35911   9.274   4.128   5.329 -0.9526  1.2239 -0.1281
 1007MOL0     H35912   9.431   4.120   5.258 -0.2161 -0.3890 -0.9665
 1007MOL0     H35913   9.477   4.239   5.449 -0.2758  0.2549  0.4914
 1007MOL0     H35914   9.464   4.375   5.330  1.2895 -1.5505 -2.6641
 1007MOL0     H35915   9.254   4.252   5.523 -1.0579  0.0596 -0.2872
 1007MOL0     H35916   9.218   4.378   5.404  0.3807 -1.6022  0.2747
 1007MOL0     H35917   9.401   4.406   5.654  1.1472 -0.3981 -1.0769
 1007MOL0     H35918   9.387   4.530   5.534  2.5224 -1.9595 -0.1650
 1007MOL0     H35919   9.232   4.532   5.755  1.8116  0.4478 -0.7743
 1007MOL0     H35920   9.109   4.468   5.639 -0.9251  0.4551 -2.2384
 1007MOL0     H35921   9.239   4.735   5.618  0.3389 -0.6347  0.2152
 1007MOL0     H35922   9.224   4.641   5.467  0.9378 -2.0086  0.5474
 1007MOL0     H35923   8.991   4.600   5.533 -0.4678 -0.2437  1.3862
 1007MOL0     H35924   9.032   4.770   5.489  2.2016 -0.3810 -0.9884
 1007MOL0     H35925   9.019   4.827   5.748 -0.5216  0.8555 -0.7366
 1007MOL0     H35926   9.014   4.648   5.767  1.3276  0.8797  1.1303
 1007MOL0     H35927   9.578   4.300   5.137 -0.0833 -0.3498  0.4440
 1007MOL0     H35928   9.682   4.356   4.930  0.8765  0.1924  1.1861
 1007MOL0     H35929   9.773   4.383   4.570 -0.8596 -3.0524 -0.4716
 1007MOL0     H35930   9.927   4.448   4.387 -0.3649 -1.1214  1.4960
 1007MOL0     H35931   9.097   3.900   3.422  1.6734 -3.3090  0.5395
 1007MOL0     H35932   8.862   3.887   3.472 -1.1072 -0.8539  0.6747
 1007MOL0     H35933   8.523   3.827   3.888 -2.6505  3.1794  2.2040
 1007MOL0     H35934   8.282   3.837   3.908  1.4485  1.2418  0.8130
 1007MOL0     H35935   8.067   3.785   3.932  1.5004 -2.2075 -1.2106
 1007MOL0     H35936   8.071   3.936   3.852 -2.9165  0.4964 -0.8171
 1007MOL0     H35937   7.834   3.762   3.840 -0.6610  1.1169  0.7527
 1007MOL0     H35938   7.877   3.888   3.719  2.8659  1.4627 -0.6710
 1007MOL0     H35939   7.901   4.044   3.937 -1.9852  0.0317 -2.1364
 1007MOL0     H35940   7.851   3.894   4.031 -0.7069 -0.5189  1.1169
 1007MOL0     H35941   7.683   4.071   3.845  0.2297 -1.3185 -0.2514
 1007MOL0     H35942   7.659   4.039   4.017 -4.1578 -0.4289 -0.9260
 1007MOL0     H35943   7.478   3.702   3.834 -2.3343  0.6932  1.3020
 1007MOL0     H35944   8.222   3.673   3.536 -2.0531  2.5522 -1.6792
 1007MOL0     H35945   8.473   3.678   3.492  4.2099  3.0818  0.4797
 1008MOL0     O35946   4.866   3.672   0.369 -0.4687 -0.5215  0.0621
 1008MOL0     C35947   4.865   3.619   0.260  0.0000 -0.7360 -0.1942
 1008MOL0     O35948   4.759   3.557   0.199 -0.2090 -0.6382 -0.6316
 1008MOL0     C35949   4.642   3.533   0.268 -0.0804  0.0311 -0.6243
 1008MOL0     C35950   4.550   3.635   0.274  0.9855 -0.7011  0.7850
 1008MOL0     C35951   4.421   3.618   0.334  0.0025  0.1088  0.1844
 1008MOL0     C35952   4.408   3.514   0.423  0.5116  0.8170 -0.2608
 1008MOL0     O35953   4.299   3.495   0.516 -0.0308 -0.7954  1.3252
 1008MOL0     C35954   4.279   3.616   0.588 -0.2478 -0.8362 -0.6938
 1008MOL0     C35955   4.232   3.575   0.727  0.2617  0.8331 -0.1271
 1008MOL0     C35956   4.105   3.492   0.719  0.1907  0.1790 -0.7647
 1008MOL0     C35957   4.016   3.518   0.846  0.2407 -0.3025 -0.0721
 1008MOL0     C35958   3.892   3.423   0.827 -0.3897 -0.1682  0.0302
 1008MOL0     C35959   3.787   3.462   0.934 -0.2926 -0.4869  0.4662
 1008MOL0     C35960   3.679   3.359   0.968 -0.1719 -0.7052  0.3890
 1008MOL0     C35961   3.584   3.425   1.066  1.0294  0.1258 -0.6306
 1008MOL0     N35962   3.523   3.321   1.148  0.5123  0.3741 -0.6385
 1008MOL0     C35963   3.465   3.199   1.110 -0.2690 -0.4309 -0.0022
 1008MOL0     C35964   3.414   3.143   1.228  0.4152 -0.0838 -0.0611
 1008MOL0     C35965   3.348   3.013   1.254 -0.2799  1.3049  0.3068
 1008MOL0     C35966   3.436   2.888   1.216  0.1437 -0.4060 -1.0695
 1008MOL0     C35967   3.362   2.762   1.261  0.8478 -0.1182  0.0135
 1008MOL0     C35968   3.391   2.716   1.406 -0.4039 -0.2665 -0.5156
 1008MOL0     O35969   3.337   2.591   1.451  0.2314 -0.5678 -0.5032
 1008MOL0     C35970   3.217   2.584   1.518 -0.4734 -0.4688  0.1469
 1008MOL0     C35971   3.131   2.696   1.530  1.2345  0.5732 -0.5633
 1008MOL0     C35972   3.014   2.680   1.608  0.2958  0.8724 -0.1934
 1008MOL0     C35973   2.939   2.807   1.632 -0.1979  0.7499 -0.3502
 1008MOL0     C35974   2.980   2.553   1.669 -0.3721  0.1289  0.3415
 1008MOL0     C35975   2.858   2.541   1.758 -0.3985 -0.3500 -0.0914
 1008MOL0     O35976   2.832   2.407   1.781  0.1482 -0.7380  0.6570
 1008MOL0     C35977   2.715   2.385   1.850 -0.0147  0.1004  0.2141
 1008MOL0     C35978   2.714   2.348   1.985 -0.1148 -0.5481 -0.3968
 1008MOL0     C35979   2.593   2.330   2.047  0.5902  0.6939 -0.6865
 1008MOL0     C35980   2.472   2.357   1.987 -0.1599  0.6216 -0.0714
 1008MOL0     O35981   2.352   2.329   2.063  0.7403  0.1372  0.0571
 1008MOL0     C35982   2.227   2.367   2.007 -0.3141  0.0001  0.2878
 1008MOL0     C35983   2.121   2.337   2.102  0.0865 -0.2917  0.2630
 1008MOL0     C35984   1.984   2.351   2.043 -0.3071  0.0251  0.0487
 1008MOL0     C35985   1.889   2.293   2.136  1.1993 -0.2710 -0.8688
 1008MOL0     C35986   1.743   2.284   2.090 -0.9151  0.3285 -0.7034
 1008MOL0     C35987   1.651   2.207   2.182 -0.2583  0.0744 -0.5794
 1008MOL0     C35988   1.508   2.178   2.126 -0.0944  0.3526  0.2579
 1008MOL0     C35989   1.412   2.102   2.219  0.0956 -0.2650 -0.3661
 1008MOL0    Cl35990   1.391   2.195   2.372  0.2982  0.2419 -0.1722
 1008MOL0     C35991   2.478   2.401   1.853  0.0307 -0.5682  0.1700
 1008MOL0     C35992   2.594   2.402   1.780 -0.8004  1.0827 -0.2590
 1008MOL0     O35993   2.788   2.637   1.791  0.5397 -0.3849 -0.1269
 1008MOL0     C35994   3.072   2.448   1.657  0.2094 -0.7928 -0.0651
 1008MOL0     C35995   3.187   2.462   1.581  0.1331 -0.1137  0.0314
 1008MOL0     N35996   3.432   3.233   1.339  0.2921 -0.3341 -0.1195
 1008MOL0     N35997   3.501   3.332   1.284  0.0853 -0.1001  0.0193
 1008MOL0     C35998   4.507   3.407   0.427  1.1084  0.6999  0.1604
 1008MOL0     C35999   4.626   3.417   0.350  0.3476  0.1494  0.5444
 1008MOL0     C36000   4.985   3.615   0.174 -0.6494 -0.4536 -0.2756
 1008MOL0     C36001   5.092   3.696   0.197 -0.1521 -0.5790 -0.9715
 1008MOL0     C36002   5.196   3.699   0.100  0.5635 -0.4791 -1.6761
 1008MOL0     C36003   5.201   3.613  -0.012  0.1446 -0.0783  0.5172
 1008MOL0     O36004   5.308   3.613  -0.105  0.2341 -0.0098 -0.0073
 1008MOL0     C36005   5.395   3.726  -0.125  0.3859 -0.9974 -0.6057
 1008MOL0     C36006   5.432   3.708  -0.271 -0.0321 -0.5955 -0.2014
 1008MOL0     C36007   5.525   3.818  -0.305 -0.5274 -0.3260 -0.6984
 1008MOL0     C36008   5.559   3.807  -0.451 -0.2262  0.3420  0.1458
 1008MOL0     C36009   5.624   3.927  -0.499 -0.1946 -0.6996  0.2099
 1008MOL0     C36010   5.655   4.027  -0.557 -0.3495 -0.6391 -0.1175
 1008MOL0     C36011   5.097   3.522  -0.031  0.0016  0.6038 -0.9594
 1008MOL0     C36012   4.986   3.528   0.063  0.0902  0.2228  0.7827
 1008MOL0     H36013   4.569   3.730   0.224  0.7926  0.6771  3.1902
 1008MOL0     H36014   4.342   3.691   0.335  1.3072  1.5733  0.0662
 1008MOL0     H36015   4.373   3.672   0.586  0.1406 -1.5064 -2.1542
 1008MOL0     H36016   4.202   3.674   0.536 -0.7311 -2.3221 -1.6943
 1008MOL0     H36017   4.308   3.513   0.776  1.3832  3.3138  1.4393
 1008MOL0     H36018   4.216   3.660   0.794 -3.6790  1.1747 -1.2662
 1008MOL0     H36019   4.058   3.511   0.623 -0.4942  0.5219 -0.3729
 1008MOL0     H36020   4.136   3.387   0.713  2.5345  0.6026  1.8574
 1008MOL0     H36021   4.074   3.504   0.937  0.0906  0.8776  0.2219
 1008MOL0     H36022   3.980   3.621   0.841 -0.1835 -0.4172  0.5114
 1008MOL0     H36023   3.851   3.416   0.726 -1.4058 -2.0916  0.5285
 1008MOL0     H36024   3.935   3.324   0.845  1.7541  1.0047  1.9128
 1008MOL0     H36025   3.846   3.499   1.019  1.7115  0.7713 -1.3796
 1008MOL0     H36026   3.737   3.547   0.888  3.3386 -0.1758 -3.5275
 1008MOL0     H36027   3.627   3.320   0.880 -1.2620 -0.4839  0.9308
 1008MOL0     H36028   3.731   3.277   1.019 -0.1387  0.2957  2.0134
 1008MOL0     H36029   3.502   3.477   1.017  0.5615 -0.2378 -0.2458
 1008MOL0     H36030   3.616   3.503   1.136 -2.4764  1.4959 -0.3410
 1008MOL0     H36031   3.466   3.152   1.012  2.7569 -1.5864  0.4591
 1008MOL0     H36032   3.330   3.002   1.361  0.1991  1.0676  0.3703
 1008MOL0     H36033   3.261   3.010   1.188  0.3566  0.7819 -0.5310
 1008MOL0     H36034   3.534   2.902   1.261 -0.9602  3.9383  0.4558
 1008MOL0     H36035   3.439   2.891   1.106 -1.2552 -2.8208 -1.2520
 1008MOL0     H36036   3.401   2.685   1.193 -0.0569 -0.5736 -0.0032
 1008MOL0     H36037   3.254   2.773   1.248  1.0892  0.3304 -1.8544
 1008MOL0     H36038   3.355   2.799   1.467  0.1308  0.4995 -1.2216
 1008MOL0     H36039   3.498   2.712   1.426 -0.7306  0.8008  1.7641
 1008MOL0     H36040   3.159   2.792   1.488  3.8425  1.1291  2.0788
 1008MOL0     H36041   2.925   2.823   1.739 -0.1122  0.9723 -0.3713
 1008MOL0     H36042   2.989   2.892   1.584 -0.2311  1.4102  0.7657
 1008MOL0     H36043   2.842   2.796   1.584 -0.3822  1.2437 -0.0974
 1008MOL0     H36044   2.812   2.344   2.031 -0.4878 -1.0438  0.3773
 1008MOL0     H36045   2.593   2.293   2.149  2.5263 -1.5924 -1.4362
 1008MOL0     H36046   2.232   2.473   1.982  2.1701 -0.8816 -3.8012
 1008MOL0     H36047   2.219   2.307   1.916  0.0459  0.8999 -0.3519
 1008MOL0     H36048   2.136   2.238   2.147 -2.2403  0.4240  2.9525
 1008MOL0     H36049   2.135   2.414   2.179  0.6990 -0.0330 -0.0977
 1008MOL0     H36050   1.974   2.291   1.952  0.1575 -0.2147  0.1492
 1008MOL0     H36051   1.957   2.453   2.016 -3.3167 -1.2010 -1.9758
 1008MOL0     H36052   1.908   2.185   2.144 -0.8243 -0.6436 -0.4120
 1008MOL0     H36053   1.884   2.356   2.226  2.6714  1.6708 -2.0697
 1008MOL0     H36054   1.744   2.228   1.996 -1.0533 -0.6141 -0.1583
 1008MOL0     H36055   1.707   2.387   2.081 -0.7350  0.6189  1.4696
 1008MOL0     H36056   1.695   2.110   2.204  0.4885  0.2907 -1.0568
 1008MOL0     H36057   1.636   2.270   2.270 -1.0248 -0.2141 -0.4968
 1008MOL0     H36058   1.526   2.123   2.033  2.4606  2.4559 -0.6170
 1008MOL0     H36059   1.455   2.269   2.096 -2.3149 -1.3199 -1.2029
 1008MOL0     H36060   1.455   2.005   2.244  2.3798  0.3943 -1.4680
 1008MOL0     H36061   1.313   2.087   2.177 -1.1096  3.0390  0.9469
 1008MOL0     H36062   2.378   2.432   1.825 -1.0680 -0.5209  3.6642
 1008MOL0     H36063   2.579   2.425   1.675  0.6552  1.6232 -0.3770
 1008MOL0     H36064   3.062   2.354   1.709 -0.8695 -0.5938  0.1305
 1008MOL0     H36065   3.262   2.384   1.572  0.2788  0.1698 -1.6455
 1008MOL0     H36066   4.490   3.322   0.492 -0.4811  0.6721 -0.2330
 1008MOL0     H36067   4.698   3.340   0.327 -1.2243 -0.6817 -2.0862
 1008MOL0     H36068   5.113   3.762   0.281  3.1747 -0.0987 -2.0229
 1008MOL0     H36069   5.280   3.764   0.125 -0.1806  0.8303 -2.4377
 1008MOL0     H36070   5.337   3.816  -0.101  0.5998 -0.8658 -0.5696
 1008MOL0     H36071   5.486   3.713  -0.064  0.5484 -0.0761 -0.6249
 1008MOL0     H36072   5.344   3.697  -0.334 -0.2411 -1.1620  0.1844
 1008MOL0     H36073   5.493   3.617  -0.279 -0.1229 -0.5173 -2.2973
 1008MOL0     H36074   5.621   3.810  -0.253 -0.5084 -4.9295 -1.0457
 1008MOL0     H36075   5.476   3.913  -0.280 -1.9520 -0.7342 -1.8469
 1008MOL0     H36076   5.473   3.781  -0.513  0.5672 -2.0580 -0.0419
 1008MOL0     H36077   5.628   3.726  -0.477 -2.0586 -0.2405 -3.5309
 1008MOL0     H36078   5.684   4.103  -0.627 -1.6582 -0.7923 -0.8466
 1008MOL0     H36079   5.098   3.456  -0.117  2.0074 -1.9019  0.8721
 1008MOL0     H36080   4.896   3.470   0.044  0.1962  0.4993 -0.6453
 1009MOL0     O36081   8.760  10.325   1.607 -0.4286  0.0455 -0.2493
 1009MOL0     C36082   8.794  10.300   1.494 -0.3418  0.4002 -0.2328
 1009MOL0     O36083   8.764  10.182   1.429 -0.0656  0.6874  0.1962
 1009MOL0     C36084   8.669  10.101   1.476  0.2079 -0.5301  0.7928
 1009MOL0     C36085   8.689  10.009   1.580 -0.1118  0.1568 -0.2302
 1009MOL0     C36086   8.585   9.917   1.606 -0.0256 -0.6779 -0.5222
 1009MOL0     C36087   8.457   9.930   1.554 -0.1059  0.4085 -0.5616
 1009MOL0     O36088   8.358   9.832   1.582  0.3286 -0.1881  0.5673
 1009MOL0     C36089   8.302   9.757   1.472  0.5767  0.5189  0.7107
 1009MOL0     C36090   8.278   9.611   1.511  0.2455  0.6793 -0.7418
 1009MOL0     C36091   8.136   9.558   1.496  0.3812  0.1052 -0.0459
 1009MOL0     C36092   8.040   9.634   1.599  0.7299 -0.7564  0.4826
 1009MOL0     C36093   7.902   9.568   1.582 -0.2750 -0.2095 -0.4266
 1009MOL0     C36094   7.822   9.635   1.471  0.3198  0.4361 -0.0593
 1009MOL0     C36095   7.771   9.767   1.505  0.5612  0.2642  0.4445
 1009MOL0     C36096   7.683   9.772   1.624  0.1676 -0.3213 -0.3229
 1009MOL0     N36097   7.567   9.678   1.640 -0.6614  0.0234  0.1790
 1009MOL0     C36098   7.438   9.716   1.609  1.2941  0.4877 -0.4451
 1009MOL0     C36099   7.368   9.617   1.654 -0.2741  1.1086  0.3509
 1009MOL0     C36100   7.223   9.603   1.664 -0.5667 -0.3531 -0.8415
 1009MOL0     C36101   7.176   9.588   1.810 -0.5303  1.1785  0.5654
 1009MOL0     C36102   7.040   9.505   1.791 -0.0516  0.9232  0.4376
 1009MOL0     C36103   7.004   9.444   1.930  0.0809  0.2370  0.1303
 1009MOL0     O36104   6.879   9.374   1.906  0.5739  0.5617  0.1755
 1009MOL0     C36105   6.787   9.381   2.006 -0.2908  0.3300  0.5228
 1009MOL0     C36106   6.663   9.402   1.954 -0.2087  0.9511  0.1944
 1009MOL0     C36107   6.554   9.413   2.038  0.5670 -0.0465  0.3920
 1009MOL0     C36108   6.413   9.421   1.970  0.1656 -0.4938  0.3427
 1009MOL0     C36109   6.584   9.400   2.184  0.1238 -0.1747  0.4610
 1009MOL0     C36110   6.477   9.418   2.284 -0.7689  0.4814  0.3654
 1009MOL0     O36111   6.523   9.429   2.410  0.0412  0.8975 -0.2838
 1009MOL0     C36112   6.433   9.421   2.517 -0.0328 -0.0940  0.1251
 1009MOL0     C36113   6.332   9.324   2.515  0.2798  0.3790 -0.0189
 1009MOL0     C36114   6.267   9.300   2.633 -0.1170 -0.2470  0.9151
 1009MOL0     C36115   6.290   9.386   2.742 -0.0941  0.4085 -0.4230
 1009MOL0     O36116   6.225   9.362   2.864 -1.1754  0.6164  0.5393
 1009MOL0     C36117   6.155   9.473   2.916 -0.3116 -0.4242 -0.3202
 1009MOL0     C36118   6.064   9.433   3.031  0.2618  0.3154 -0.7375
 1009MOL0     C36119   5.960   9.337   2.983  0.5843  0.2916  0.6036
 1009MOL0     C36120   5.841   9.320   3.074  0.7504  0.3483 -0.3086
 1009MOL0     C36121   5.733   9.238   2.998  0.4860  0.2261  0.2297
 1009MOL0     C36122   5.629   9.169   3.095 -0.3275  0.0461  0.0032
 1009MOL0     C36123   5.543   9.062   3.022 -0.8801 -0.3461  0.6424
 1009MOL0     C36124   5.432   9.121   2.945 -0.5422 -0.2237  0.2896
 1009MOL0    Cl36125   5.388   8.996   2.830  0.3191  0.4070  0.2020
 1009MOL0     C36126   6.373   9.497   2.734 -0.0658  0.2676 -0.1109
 1009MOL0     C36127   6.451   9.506   2.624 -0.0151 -0.0336  0.6156
 1009MOL0     O36128   6.365   9.418   2.247  0.4694  0.2524  0.1240
 1009MOL0     C36129   6.717   9.381   2.230 -0.5812  0.5019 -0.2890
 1009MOL0     C36130   6.816   9.369   2.145 -0.3948 -1.1016  0.5751
 1009MOL0     N36131   7.448   9.518   1.692 -0.0523  0.1762  0.9369
 1009MOL0     N36132   7.574   9.550   1.680 -0.1199 -0.7363  0.7278
 1009MOL0     C36133   8.438  10.034   1.463  0.7735  0.6586 -0.7122
 1009MOL0     C36134   8.547  10.111   1.419  1.2602  0.2393  0.7849
 1009MOL0     C36135   8.863  10.419   1.427  0.5347 -0.1042 -0.4379
 1009MOL0     C36136   8.880  10.537   1.500 -0.4253  0.8479 -0.3614
 1009MOL0     C36137   8.949  10.641   1.448  0.4625 -0.7371  0.2079
 1009MOL0     C36138   9.005  10.636   1.315 -0.0562 -0.2753  0.3426
 1009MOL0     O36139   9.084  10.734   1.255 -0.4511 -0.1896  0.1165
 1009MOL0     C36140   9.122  10.844   1.329 -0.5762  0.3796  0.3108
 1009MOL0     C36141   9.262  10.818   1.408 -0.1378  0.6046  0.4719
 1009MOL0     C36142   9.395  10.784   1.323 -0.3620 -0.1998 -0.0669
 1009MOL0     C36143   9.508  10.732   1.411 -0.2641  0.1824  0.5182
 1009MOL0     C36144   9.633  10.732   1.333 -0.3684 -0.6124 -0.7093
 1009MOL0     C36145   9.723  10.732   1.251 -0.6809 -0.3277  0.1374
 1009MOL0     C36146   8.964  10.523   1.235 -0.1844  0.1462 -0.1970
 1009MOL0     C36147   8.888  10.416   1.291 -1.1310  0.5337 -0.0148
 1009MOL0     H36148   8.783  10.015   1.633 -1.4684  3.0956  2.1110
 1009MOL0     H36149   8.599   9.842   1.682 -1.0742  1.8793  2.4269
 1009MOL0     H36150   8.203   9.796   1.448  1.2524  2.6684  1.2569
 1009MOL0     H36151   8.373   9.763   1.389 -0.0890  2.2337  0.2339
 1009MOL0     H36152   8.342   9.547   1.450 -1.2477 -1.0369 -0.6067
 1009MOL0     H36153   8.315   9.602   1.613 -0.5136  3.2902 -0.1829
 1009MOL0     H36154   8.102   9.579   1.394 -1.2401  2.7647  0.9242
 1009MOL0     H36155   8.136   9.451   1.516  0.7653  0.3496  1.3906
 1009MOL0     H36156   8.075   9.633   1.702  0.0484  0.5658  0.7420
 1009MOL0     H36157   8.048   9.740   1.575  0.3846 -1.4273 -3.1630
 1009MOL0     H36158   7.919   9.461   1.563 -1.6574 -1.6228  4.6009
 1009MOL0     H36159   7.846   9.561   1.676  1.8950 -2.1202  0.8399
 1009MOL0     H36160   7.892   9.648   1.388  1.9277 -0.8904  1.0325
 1009MOL0     H36161   7.736   9.574   1.441  0.5032 -0.4724  1.1814
 1009MOL0     H36162   7.851   9.842   1.509  0.9678 -0.1259 -0.1966
 1009MOL0     H36163   7.707   9.800   1.422  0.6482  0.0043  0.2745
 1009MOL0     H36164   7.655   9.876   1.644  0.6629  0.5964 -3.7832
 1009MOL0     H36165   7.744   9.746   1.711 -2.5732  3.1401  3.0356
 1009MOL0     H36166   7.404   9.807   1.559 -3.1401 -1.3391 -1.1288
 1009MOL0     H36167   7.182   9.700   1.638 -1.0269  0.2120  1.7311
 1009MOL0     H36168   7.181   9.523   1.601 -1.8493  0.0478 -0.5184
 1009MOL0     H36169   7.163   9.681   1.864  0.3398  1.7790 -0.2242
 1009MOL0     H36170   7.241   9.524   1.870  0.0556  0.7402 -0.5118
 1009MOL0     H36171   7.050   9.417   1.726  2.8603 -0.6614  2.7978
 1009MOL0     H36172   6.957   9.563   1.749 -1.2589 -1.8532 -1.3136
 1009MOL0     H36173   6.996   9.518   2.010 -1.4981 -1.3933  1.5990
 1009MOL0     H36174   7.074   9.372   1.974 -0.4425 -0.8606 -0.7876
 1009MOL0     H36175   6.656   9.407   1.846  2.0793  2.4959  0.0329
 1009MOL0     H36176   6.417   9.440   1.862 -0.8445 -0.4269  0.3076
 1009MOL0     H36177   6.360   9.326   1.976 -1.7523  0.4017 -1.3162
 1009MOL0     H36178   6.348   9.502   2.002  1.0968  1.1338 -1.6712
 1009MOL0     H36179   6.296   9.260   2.435  0.0670  0.1859  0.2332
 1009MOL0     H36180   6.197   9.217   2.641 -1.4594  0.3576 -2.6115
 1009MOL0     H36181   6.219   9.553   2.954 -3.2871  1.6026  0.7973
 1009MOL0     H36182   6.088   9.522   2.845  0.6523  2.1041  0.4229
 1009MOL0     H36183   6.125   9.391   3.111 -0.3217 -3.1359 -1.9491
 1009MOL0     H36184   6.016   9.527   3.062  0.9630  0.6969 -0.7830
 1009MOL0     H36185   6.001   9.243   2.945  0.7704  1.6378 -2.8272
 1009MOL0     H36186   5.922   9.389   2.895  0.1886 -0.0258  0.5879
 1009MOL0     H36187   5.874   9.263   3.162 -0.0152  0.9867  0.4123
 1009MOL0     H36188   5.798   9.418   3.096  0.9170  0.4483 -0.4209
 1009MOL0     H36189   5.777   9.160   2.935 -0.2249  1.3053 -1.6728
 1009MOL0     H36190   5.675   9.301   2.931  1.1893  0.6659  0.0266
 1009MOL0     H36191   5.684   9.121   3.176 -1.3660 -1.0534  0.0959
 1009MOL0     H36192   5.561   9.234   3.151  1.5101  3.0667 -1.0080
 1009MOL0     H36193   5.508   8.982   3.088  0.9843 -3.2759 -1.6131
 1009MOL0     H36194   5.618   9.014   2.958 -0.0449  0.1676  1.2168
 1009MOL0     H36195   5.452   9.220   2.902  2.7202 -0.9836 -0.1979
 1009MOL0     H36196   5.341   9.136   3.004 -0.5850  3.3623 -0.4219
 1009MOL0     H36197   6.398   9.558   2.820 -0.5249 -2.0519  1.7713
 1009MOL0     H36198   6.530   9.580   2.613  2.7355 -3.0620 -1.9686
 1009MOL0     H36199   6.746   9.385   2.334 -2.5755 -1.5991  0.4402
 1009MOL0     H36200   6.920   9.355   2.173  0.0648  1.4685  0.4100
 1009MOL0     H36201   8.344  10.058   1.415  0.6488 -1.2932 -1.5538
 1009MOL0     H36202   8.539  10.177   1.334  3.0542 -0.5764 -0.0688
 1009MOL0     H36203   8.838  10.549   1.600 -3.0184  1.7658 -1.4831
 1009MOL0     H36204   8.956  10.730   1.510 -5.2723  0.7593 -0.7151
 1009MOL0     H36205   9.146  10.921   1.255  0.4942 -0.1832  0.0470
 1009MOL0     H36206   9.051  10.888   1.399 -2.8376  1.0447 -2.2061
 1009MOL0     H36207   9.243  10.729   1.468  1.0074 -0.5715 -0.8326
 1009MOL0     H36208   9.297  10.902   1.469 -0.4065  0.9865  0.1061
 1009MOL0     H36209   9.410  10.875   1.263 -0.6369 -0.0339  0.1117
 1009MOL0     H36210   9.360  10.699   1.264 -3.0886  0.7532  0.0151
 1009MOL0     H36211   9.489  10.627   1.436  2.1886 -0.9964 -2.1345
 1009MOL0     H36212   9.512  10.799   1.498 -0.7001  1.6519 -0.5522
 1009MOL0     H36213   9.789  10.748   1.169 -1.4973  0.7497 -0.3377
 1009MOL0     H36214   9.011  10.527   1.137 -0.1269 -3.0131 -0.4044
 1009MOL0     H36215   8.853  10.323   1.246 -0.9471 -0.4936  1.8616
 1010MOL0     O36216   4.532   1.477  10.453  0.1158 -0.4631 -0.7559
 1010MOL0     C36217   4.587   1.590  10.451 -0.9117  0.3353  0.4600
 1010MOL0     O36218   4.532   1.709  10.488  0.4245 -0.7338  0.0127
 1010MOL0     C36219   4.411   1.709  10.542  0.0089 -0.4400 -0.1368
 1010MOL0     C36220   4.387   1.670  10.673 -0.3344  0.6821  0.6265
 1010MOL0     C36221   4.257   1.670  10.725 -0.5906 -0.4014 -0.8748
 1010MOL0     C36222   4.148   1.711  10.648  0.2777 -0.0715  0.0073
 1010MOL0     O36223   4.024   1.725  10.708 -0.7527  0.4667  0.1778
 1010MOL0     C36224   3.990   1.652  10.826 -0.2773 -0.2624  0.2869
 1010MOL0     C36225   3.840   1.655  10.837  0.3844 -0.6093  0.3638
 1010MOL0     C36226   3.788   1.804  10.844 -0.5708  0.4516  0.4491
 1010MOL0     C36227   3.644   1.825  10.846  0.3850 -0.9954  0.3025
 1010MOL0     C36228   3.597   1.958  10.896 -0.5154 -0.3028 -0.4678
 1010MOL0     C36229   3.451   1.987  10.870 -0.1115  0.4857  1.3373
 1010MOL0     C36230   3.408   2.115  10.946  0.1427 -0.0517  0.7710
 1010MOL0     C36231   3.268   2.163  10.904 -0.2705 -0.1335 -0.7021
 1010MOL0     N36232   3.163   2.119  11.002 -0.1619 -1.7068  0.8920
 1010MOL0     C36233   3.170   2.127  11.137 -0.0467 -0.3555  0.2112
 1010MOL0     C36234   3.050   2.079  11.178  0.5707 -0.2392  0.1341
 1010MOL0     C36235   3.000   2.070  11.321  0.3173 -0.5444 -0.1985
 1010MOL0     C36236   3.046   1.939  11.388 -0.2696  0.5529  0.6387
 1010MOL0     C36237   2.990   1.802  11.329 -0.4106 -0.6933 -0.5794
 1010MOL0     C36238   3.029   1.677  11.406 -0.3742 -0.3206 -0.1397
 1010MOL0     O36239   3.007   1.694  11.552 -0.2938  0.2050 -0.2161
 1010MOL0     C36240   2.873   1.677  11.594  0.3934 -0.0621 -0.5713
 1010MOL0     C36241   2.758   1.651  11.513 -0.0564 -0.2685  0.4920
 1010MOL0     C36242   2.628   1.630  11.564  0.1384 -0.6664  0.4574
 1010MOL0     C36243   2.521   1.595  11.474  0.7262 -1.0144  1.0918
 1010MOL0     C36244   2.608   1.637  11.709  0.3059  0.0708  0.3313
 1010MOL0     C36245   2.479   1.622  11.784  0.0143  0.5874 -0.3983
 1010MOL0     O36246   2.374   1.569  11.723  0.4625  0.4131 -0.1460
 1010MOL0     C36247   2.253   1.601  11.771 -0.2976 -0.3528 -0.2695
 1010MOL0     C36248   2.210   1.734  11.773  0.7957 -0.1574  1.0181
 1010MOL0     C36249   2.081   1.782  11.805 -0.3718  0.6099 -0.1340
 1010MOL0     C36250   1.985   1.684  11.831  0.0160  0.1483  0.2183
 1010MOL0     O36251   1.850   1.699  11.856  0.8432 -0.7497  1.0278
 1010MOL0     C36252   1.803   1.837  11.833 -0.4548 -0.2941 -0.2017
 1010MOL0     C36253   1.642   1.847  11.853 -0.5227 -0.7286 -0.3922
 1010MOL0     C36254   1.593   1.997  11.882 -0.5713  1.5598  0.6032
 1010MOL0     C36255   1.434   1.980  11.894 -0.4318  0.6310  1.0044
 1010MOL0     C36256   1.398   2.091  12.002  1.4651  0.0932 -0.9375
 1010MOL0     C36257   1.256   2.143  11.989 -0.3127 -0.2238  0.1585
 1010MOL0     C36258   1.198   2.229  12.102  0.0326  0.2552  0.3440
 1010MOL0     C36259   1.260   2.373  12.094 -0.6858  0.5103 -0.6330
 1010MOL0    Cl36260   1.428   2.371  12.175  0.4491  0.2619 -0.0065
 1010MOL0     C36261   2.022   1.546  11.833 -0.4581 -0.5926 -0.0431
 1010MOL0     C36262   2.158   1.509  11.815  1.0308 -0.1758  0.2745
 1010MOL0     O36263   2.478   1.678  11.898 -0.2357  0.7688  0.7160
 1010MOL0     C36264   2.727   1.661  11.790  0.2085  0.4350  0.4589
 1010MOL0     C36265   2.852   1.684  11.733  0.2964 -0.4034  0.4068
 1010MOL0     N36266   2.962   2.068  11.074 -0.4711 -0.4919  0.0881
 1010MOL0     N36267   3.032   2.089  10.966  0.7991 -0.0245  0.3375
 1010MOL0     C36268   4.172   1.766  10.521  1.1050  0.4395 -0.4724
 1010MOL0     C36269   4.303   1.760  10.465 -0.4405  1.3358 -0.7586
 1010MOL0     C36270   4.727   1.604  10.410 -0.3477 -0.3695  0.0711
 1010MOL0     C36271   4.808   1.486  10.386  0.0635  0.5123 -0.4060
 1010MOL0     C36272   4.940   1.504  10.361 -0.1804 -1.1307 -0.8654
 1010MOL0     C36273   5.007   1.626  10.354  0.1402 -0.6075  0.1497
 1010MOL0     O36274   5.147   1.626  10.331  0.1096 -0.6841  0.1784
 1010MOL0     C36275   5.208   1.751  10.299 -0.6098  1.1707  0.8824
 1010MOL0     C36276   5.358   1.703  10.273 -0.5376  0.3501  0.6659
 1010MOL0     C36277   5.450   1.732  10.388  0.3486  0.9287  0.4794
 1010MOL0     C36278   5.435   1.637  10.513  0.5047  0.1529 -0.4802
 1010MOL0     C36279   5.505   1.504  10.497  0.2674 -0.3800 -0.3490
 1010MOL0     C36280   5.569   1.402  10.491 -0.7779 -0.8601  0.2936
 1010MOL0     C36281   4.932   1.745  10.368 -0.9480 -0.2569  0.5812
 1010MOL0     C36282   4.795   1.728  10.400 -0.1111 -0.2097 -0.0259
 1010MOL0     H36283   4.474   1.638  10.729  0.3738  2.6897  0.7357
 1010MOL0     H36284   4.251   1.644  10.831  2.0542  0.5607 -0.4015
 1010MOL0     H36285   4.033   1.551  10.822  0.1476 -0.1115  0.8925
 1010MOL0     H36286   4.039   1.702  10.909  1.0689  0.4861 -0.9180
 1010MOL0     H36287   3.804   1.602  10.749  3.3201  0.1082 -1.4152
 1010MOL0     H36288   3.801   1.596  10.920  0.3735 -1.8370 -0.4832
 1010MOL0     H36289   3.830   1.835  10.940 -0.6170  3.1530 -0.3200
 1010MOL0     H36290   3.826   1.858  10.757 -2.6610  1.8828  0.3571
 1010MOL0     H36291   3.617   1.824  10.740 -0.3056 -0.3337  0.4590
 1010MOL0     H36292   3.590   1.748  10.902 -1.9701  0.4692  0.1810
 1010MOL0     H36293   3.622   1.961  11.003  3.8216  0.5056 -1.3270
 1010MOL0     H36294   3.659   2.029  10.842 -0.4135 -0.8585 -1.0933
 1010MOL0     H36295   3.430   1.978  10.763  2.2353 -0.9448  0.9213
 1010MOL0     H36296   3.393   1.907  10.916  1.6888 -1.1918  0.8374
 1010MOL0     H36297   3.415   2.091  11.053  3.1212  0.0552  0.6876
 1010MOL0     H36298   3.488   2.187  10.924  0.1423 -0.1326  0.5021
 1010MOL0     H36299   3.235   2.127  10.806 -4.7016  0.0908  0.4479
 1010MOL0     H36300   3.286   2.270  10.911  2.3742 -0.4900 -1.2243
 1010MOL0     H36301   3.257   2.161  11.193  0.4265 -1.2889  0.0735
 1010MOL0     H36302   3.036   2.156  11.379  0.3324 -0.4045 -0.4118
 1010MOL0     H36303   2.891   2.074  11.326  0.3867  2.3314  1.5677
 1010MOL0     H36304   3.013   1.955  11.491 -0.7090  2.0591  0.2812
 1010MOL0     H36305   3.155   1.937  11.389 -0.2559  0.7324  0.0650
 1010MOL0     H36306   3.012   1.791  11.223  2.2756  3.2364 -0.6309
 1010MOL0     H36307   2.881   1.812  11.340 -0.7179 -0.3947 -3.4058
 1010MOL0     H36308   3.136   1.661  11.393 -0.7074 -0.8025 -2.7188
 1010MOL0     H36309   2.975   1.585  11.384  3.1078 -2.6706  0.4786
 1010MOL0     H36310   2.778   1.647  11.407  0.5909  1.5719  0.5098
 1010MOL0     H36311   2.573   1.552  11.388  3.6626  0.7450  1.8397
 1010MOL0     H36312   2.437   1.538  11.514 -1.2130  2.4951  2.5208
 1010MOL0     H36313   2.479   1.688  11.434  0.7198 -0.4731  2.3164
 1010MOL0     H36314   2.274   1.819  11.751  3.7172 -2.5363 -0.2829
 1010MOL0     H36315   2.063   1.889  11.800 -0.8555  0.5217 -0.3678
 1010MOL0     H36316   1.853   1.896  11.910 -0.9357  0.0958 -0.1826
 1010MOL0     H36317   1.831   1.858  11.729 -1.2680 -1.3624 -0.6569
 1010MOL0     H36318   1.613   1.815  11.753  1.7872  0.4273 -1.5145
 1010MOL0     H36319   1.600   1.769  11.916 -2.1160 -0.8407 -1.5304
 1010MOL0     H36320   1.611   2.076  11.809  0.8563  1.4827  0.8421
 1010MOL0     H36321   1.641   2.026  11.976  4.9380 -0.7698 -1.0949
 1010MOL0     H36322   1.390   2.005  11.797  0.7781 -3.4573 -0.8279
 1010MOL0     H36323   1.402   1.882  11.929  1.2293 -0.9363 -1.5334
 1010MOL0     H36324   1.461   2.178  11.986 -0.6894  1.8872 -0.1999
 1010MOL0     H36325   1.410   2.042  12.099 -1.9996  0.1242 -0.3493
 1010MOL0     H36326   1.253   2.199  11.895  3.5399 -0.3010 -0.1650
 1010MOL0     H36327   1.183   2.062  11.983  0.7501 -1.0774 -3.4550
 1010MOL0     H36328   1.206   2.179  12.199 -4.8285 -1.2299  0.2341
 1010MOL0     H36329   1.090   2.231  12.085 -0.2313 -1.8494  1.3518
 1010MOL0     H36330   1.192   2.446  12.140  0.5287  2.3870 -1.7193
 1010MOL0     H36331   1.275   2.388  11.987  0.5210  0.6217 -0.4627
 1010MOL0     H36332   1.935   1.481  11.829  0.5541 -2.3241  2.8682
 1010MOL0     H36333   2.186   1.405  11.831  0.9862 -0.1241  0.7095
 1010MOL0     H36334   2.724   1.659  11.898 -2.5676  2.1512  0.5367
 1010MOL0     H36335   2.924   1.710  11.809 -1.7054 -0.3663  2.3732
 1010MOL0     H36336   4.081   1.804  10.476  0.4037 -0.3875  0.2046
 1010MOL0     H36337   4.339   1.811  10.376  4.1252 -0.5125 -0.2684
 1010MOL0     H36338   4.769   1.385  10.384  1.0264  0.0632  1.3046
 1010MOL0     H36339   4.996   1.412  10.344  0.5377 -0.4168 -2.6229
 1010MOL0     H36340   5.158   1.804  10.218 -0.5848 -0.1325 -0.0320
 1010MOL0     H36341   5.202   1.815  10.387 -1.1267  1.2092  0.8207
 1010MOL0     H36342   5.392   1.752  10.181 -1.1543 -1.9311 -0.8473
 1010MOL0     H36343   5.371   1.597  10.254 -0.8575  0.4834 -0.3557
 1010MOL0     H36344   5.432   1.835  10.422  1.9159  0.8299  1.7248
 1010MOL0     H36345   5.551   1.729  10.345  1.3179 -1.3135  2.6454
 1010MOL0     H36346   5.331   1.624  10.543 -0.4265 -0.7239 -3.6959
 1010MOL0     H36347   5.482   1.681  10.601  0.1060 -1.3946  0.5404
 1010MOL0     H36348   5.636   1.319  10.479  0.3326 -0.1274  1.2060
 1010MOL0     H36349   4.977   1.843  10.353 -0.1446 -0.5461  1.0278
 1010MOL0     H36350   4.730   1.814  10.415 -1.2340 -1.1619  0.8249
 1011MOL0     O36351  11.234   9.419  10.190  0.2025  0.0974 -0.0724
 1011MOL0     C36352  11.185   9.492  10.100  0.0658 -0.1467 -0.2431
 1011MOL0     O36353  11.048   9.505  10.071  0.8279  0.1865  0.4647
 1011MOL0     C36354  10.940   9.443  10.139 -0.1339  0.3260  0.5177
 1011MOL0     C36355  10.949   9.322  10.211  0.6826  0.3648  0.3691
 1011MOL0     C36356  10.833   9.278  10.284  0.1717 -0.4403 -0.4459
 1011MOL0     C36357  10.714   9.351  10.282 -0.3129 -0.2320 -0.5072
 1011MOL0     O36358  10.613   9.300  10.361  0.3272  0.0716 -0.0071
 1011MOL0     C36359  10.481   9.323  10.319 -0.6279 -0.3384  0.3180
 1011MOL0     C36360  10.400   9.198  10.371 -0.0047 -0.0335  0.2031
 1011MOL0     C36361  10.253   9.200  10.326 -0.0250 -0.0204  0.6793
 1011MOL0     C36362  10.171   9.083  10.384  0.2029  0.6152  0.1995
 1011MOL0     C36363  10.029   9.087  10.314 -0.4768  0.6658 -0.3502
 1011MOL0     C36364   9.934   8.985  10.384  0.0785 -0.1783  0.5482
 1011MOL0     C36365   9.797   8.975  10.312  0.0942  0.3654 -0.1374
 1011MOL0     C36366   9.712   8.866  10.366  0.5700  1.5927  0.3491
 1011MOL0     N36367   9.658   8.894  10.497 -0.1717  0.7325  0.3020
 1011MOL0     C36368   9.522   8.922  10.511  0.9919  0.1483 -0.6535
 1011MOL0     C36369   9.525   8.952  10.642  0.1141 -0.2555 -0.2264
 1011MOL0     C36370   9.406   9.009  10.705  0.6585 -0.0924  0.0456
 1011MOL0     C36371   9.329   8.901  10.787  0.7427 -0.6189 -0.0698
 1011MOL0     C36372   9.203   8.973  10.843 -0.2219  0.1902  0.7510
 1011MOL0     C36373   9.102   8.869  10.889 -0.3987 -0.6289 -0.3958
 1011MOL0     O36374   9.003   8.949  10.952  0.0532  1.0331  0.2094
 1011MOL0     C36375   8.896   8.887  11.006 -0.1870 -0.2292 -0.1703
 1011MOL0     C36376   8.863   8.757  11.000  0.5902 -0.1025 -0.7971
 1011MOL0     C36377   8.732   8.711  11.029 -0.1623 -0.3816 -0.0013
 1011MOL0     C36378   8.704   8.559  11.015  0.4183 -0.3386 -0.5297
 1011MOL0     C36379   8.638   8.808  11.090 -0.6064 -0.1341  0.5114
 1011MOL0     C36380   8.504   8.766  11.124  0.2872 -0.3153 -0.6435
 1011MOL0     O36381   8.446   8.835  11.233  0.0578  0.2211 -0.6246
 1011MOL0     C36382   8.310   8.815  11.249 -0.3927  0.3969 -0.1713
 1011MOL0     C36383   8.262   8.701  11.315 -0.2378 -0.4577  0.3131
 1011MOL0     C36384   8.125   8.685  11.329  0.1530  0.2859 -0.0649
 1011MOL0     C36385   8.031   8.777  11.281 -0.3147  0.4120  0.7026
 1011MOL0     O36386   7.900   8.745  11.269 -0.0176  0.1350 -0.5775
 1011MOL0     C36387   7.808   8.853  11.232 -0.6776  0.2515  0.2569
 1011MOL0     C36388   7.669   8.814  11.267 -0.5563  0.3760 -0.3576
 1011MOL0     C36389   7.571   8.932  11.253  0.0197 -0.1526  0.3286
 1011MOL0     C36390   7.428   8.884  11.283  0.1567  0.2519  0.0634
 1011MOL0     C36391   7.323   8.991  11.267 -0.6140  0.0944 -0.4711
 1011MOL0     C36392   7.191   8.913  11.306 -0.6918 -0.4581 -0.1330
 1011MOL0     C36393   7.078   9.015  11.294  0.3658 -0.1394  0.6966
 1011MOL0     C36394   6.951   8.955  11.350  0.1093 -0.0279 -1.4379
 1011MOL0    Cl36395   6.914   8.807  11.252  0.3748 -0.2293 -0.1357
 1011MOL0     C36396   8.084   8.895  11.225  0.5514 -0.0225 -0.0675
 1011MOL0     C36397   8.219   8.905  11.204 -0.1314 -0.5395  0.7025
 1011MOL0     O36398   8.444   8.696  11.042 -0.7821  0.8126 -0.5682
 1011MOL0     C36399   8.681   8.938  11.110  0.0991 -0.9185 -0.0075
 1011MOL0     C36400   8.806   8.980  11.070  0.4504 -0.3556 -1.1182
 1011MOL0     N36401   9.646   8.930  10.709  0.6086  0.2869 -0.1445
 1011MOL0     N36402   9.724   8.899  10.615 -0.3298  0.1745 -0.0612
 1011MOL0     C36403  10.702   9.460  10.197 -0.3235 -0.5720 -0.4005
 1011MOL0     C36404  10.816   9.505  10.132  0.0467 -0.2104 -0.8388
 1011MOL0     C36405  11.278   9.566  10.013 -0.6636  0.4056 -0.1324
 1011MOL0     C36406  11.411   9.528  10.006  0.0730 -0.4303 -0.1555
 1011MOL0     C36407  11.491   9.599   9.921  0.0596  0.3554 -0.2908
 1011MOL0     C36408  11.451   9.704   9.839  0.8144 -0.2428 -0.0100
 1011MOL0     O36409  11.525   9.761   9.733  0.7078 -0.3906  0.3229
 1011MOL0     C36410  11.656   9.796   9.775  0.0445 -0.3841  0.5837
 1011MOL0     C36411  11.694   9.935   9.724 -0.0331 -0.7590  0.7558
 1011MOL0     C36412  11.832   9.971   9.766  0.0514  0.4234  0.7376
 1011MOL0     C36413  11.939   9.878   9.702 -0.0675 -0.1444 -0.3805
 1011MOL0     C36414  12.065   9.914   9.757 -0.4201  0.4631  0.7150
 1011MOL0     C36415  12.169   9.950   9.808  0.0088 -0.2742  0.1966
 1011MOL0     C36416  11.309   9.740   9.852  0.2936 -0.7154  0.4899
 1011MOL0     C36417  11.231   9.672   9.938 -0.2232 -0.7449  0.2140
 1011MOL0     H36418  11.045   9.271  10.219  0.5260 -0.2394 -1.1989
 1011MOL0     H36419  10.834   9.186  10.343 -0.1983 -1.1916 -1.5824
 1011MOL0     H36420  10.439   9.419  10.350 -0.4482 -0.1990  0.1368
 1011MOL0     H36421  10.480   9.321  10.209  1.3296 -0.5387  0.2705
 1011MOL0     H36422  10.443   9.103  10.339  1.4181  0.2522  1.1688
 1011MOL0     H36423  10.408   9.192  10.480 -1.7744 -0.2908  0.3438
 1011MOL0     H36424  10.202   9.289  10.365  2.1908  1.8627 -0.5044
 1011MOL0     H36425  10.252   9.200  10.216  1.1131 -2.8923  0.5824
 1011MOL0     H36426  10.209   8.982  10.368 -0.9625  0.6062 -3.5620
 1011MOL0     H36427  10.158   9.110  10.489 -0.8513  2.2153 -0.2958
 1011MOL0     H36428   9.982   9.180  10.345  0.4412  0.5038  1.6884
 1011MOL0     H36429  10.026   9.070  10.206 -1.3819  1.5970 -0.4873
 1011MOL0     H36430   9.978   8.885  10.377  0.1368 -0.1090 -0.1388
 1011MOL0     H36431   9.921   8.996  10.492 -0.5519 -0.9700  0.5666
 1011MOL0     H36432   9.748   9.073  10.316  3.0719  1.9660  1.5915
 1011MOL0     H36433   9.812   8.953  10.206  1.2495 -0.2044  0.1240
 1011MOL0     H36434   9.765   8.770  10.357 -1.1546  0.5711  0.7696
 1011MOL0     H36435   9.623   8.856  10.304  0.3172  0.5463  0.8605
 1011MOL0     H36436   9.444   8.924  10.436  1.5393 -1.2662 -1.3033
 1011MOL0     H36437   9.431   9.098  10.764 -2.5052  0.2543  1.0555
 1011MOL0     H36438   9.341   9.046  10.625  1.0467 -1.8089 -1.1123
 1011MOL0     H36439   9.397   8.864  10.864  3.6567  0.8410 -1.7627
 1011MOL0     H36440   9.304   8.823  10.714 -2.5014 -0.9082  1.1670
 1011MOL0     H36441   9.152   9.034  10.768  0.4417  1.5163  1.3356
 1011MOL0     H36442   9.228   9.038  10.928  0.9261  1.2432 -0.3572
 1011MOL0     H36443   9.146   8.808  10.969 -1.8891  2.2138  2.8325
 1011MOL0     H36444   9.069   8.805  10.807 -1.7255 -0.0657 -0.3113
 1011MOL0     H36445   8.931   8.675  10.979 -0.4825 -2.4578  3.6470
 1011MOL0     H36446   8.789   8.498  10.984  0.8503  0.1548 -0.3099
 1011MOL0     H36447   8.656   8.529  11.109 -0.0388  4.1663  0.9168
 1011MOL0     H36448   8.626   8.549  10.938  0.8518  0.0372 -1.0227
 1011MOL0     H36449   8.331   8.633  11.364 -0.6890  0.6091  2.5801
 1011MOL0     H36450   8.095   8.587  11.366 -2.2930  1.3379  0.9152
 1011MOL0     H36451   7.825   8.934  11.303  1.0316 -0.0091  0.1826
 1011MOL0     H36452   7.817   8.891  11.129  0.8333  1.3455  0.7734
 1011MOL0     H36453   7.639   8.725  11.211 -2.1544  0.5616  0.1489
 1011MOL0     H36454   7.663   8.779  11.371 -2.1306 -0.7744 -0.7997
 1011MOL0     H36455   7.574   8.979  11.155 -0.3230  1.8531  1.2326
 1011MOL0     H36456   7.601   9.012  11.322  0.7635  0.0915 -0.2651
 1011MOL0     H36457   7.399   8.794  11.228 -1.9919  2.1615 -2.1648
 1011MOL0     H36458   7.424   8.851  11.387 -3.4934  0.4479  0.1018
 1011MOL0     H36459   7.318   9.026  11.163  0.2428 -0.7542 -0.8190
 1011MOL0     H36460   7.349   9.072  11.336 -1.1963  0.3417 -0.5422
 1011MOL0     H36461   7.177   8.824  11.244 -0.6143 -0.1933 -0.5339
 1011MOL0     H36462   7.199   8.885  11.412  0.3990  0.8915  0.1686
 1011MOL0     H36463   7.048   9.038  11.191  1.7175 -1.2650  0.0248
 1011MOL0     H36464   7.107   9.107  11.345  1.5784 -1.0798  1.7312
 1011MOL0     H36465   6.870   9.028  11.340  0.6464  1.0142  1.1229
 1011MOL0     H36466   6.960   8.925  11.455  0.9278 -0.9938 -1.7679
 1011MOL0     H36467   8.017   8.974  11.192 -1.4416 -1.8044 -0.4903
 1011MOL0     H36468   8.259   8.994  11.156 -3.1639  1.4711  1.6648
 1011MOL0     H36469   8.604   9.009  11.138  2.8685  2.9210 -1.3864
 1011MOL0     H36470   8.832   9.085  11.079  1.8711 -0.8595  1.8761
 1011MOL0     H36471  10.617   9.527  10.204 -2.6550 -3.5194  3.0374
 1011MOL0     H36472  10.814   9.587  10.061  4.0256 -0.0890 -1.0505
 1011MOL0     H36473  11.456   9.447  10.063  0.9364  1.2404  1.6845
 1011MOL0     H36474  11.592   9.560   9.909 -0.0801  0.0919 -0.6563
 1011MOL0     H36475  11.670   9.799   9.884  0.1419  1.8020  0.5608
 1011MOL0     H36476  11.719   9.719   9.730  0.7247  2.2316 -3.4164
 1011MOL0     H36477  11.629  10.008   9.774  0.2654  0.2061 -0.2237
 1011MOL0     H36478  11.680   9.936   9.615  0.7498 -1.4642  0.6457
 1011MOL0     H36479  11.839   9.959   9.875  0.2615  1.6111  0.8742
 1011MOL0     H36480  11.839  10.079   9.750 -0.9146  0.2226 -1.3520
 1011MOL0     H36481  11.935   9.880   9.592 -0.2536  1.1934 -0.3721
 1011MOL0     H36482  11.930   9.776   9.739  1.0477 -1.1983 -2.7895
 1011MOL0     H36483  12.250   9.998   9.858  0.3858 -0.9104  0.2109
 1011MOL0     H36484  11.271   9.802   9.772  2.7194 -1.0784 -1.0705
 1011MOL0     H36485  11.125   9.688   9.952 -0.3474 -0.7660 -0.6143
 1012MOL0     O36486   5.804  10.648  10.861  0.4014  0.9985 -0.9127
 1012MOL0     C36487   5.829  10.742  10.787  0.6663 -0.7746  0.4767
 1012MOL0     O36488   5.745  10.853  10.761  0.1644  0.1258  0.2267
 1012MOL0     C36489   5.630  10.857  10.843  0.3867 -0.0009 -0.1069
 1012MOL0     C36490   5.609  10.962  10.919  0.9708  0.8867 -0.2177
 1012MOL0     C36491   5.499  10.966  11.004 -1.5799  0.4346  0.1190
 1012MOL0     C36492   5.411  10.857  11.011 -0.0093  0.5206  0.5583
 1012MOL0     O36493   5.307  10.855  11.099 -0.2963 -0.5465 -1.2092
 1012MOL0     C36494   5.290  10.742  11.182 -0.3919  0.2999  0.5599
 1012MOL0     C36495   5.254  10.781  11.329 -0.4885 -0.3154  0.4626
 1012MOL0     C36496   5.257  10.657  11.421 -0.2293  0.4963 -0.3893
 1012MOL0     C36497   5.163  10.537  11.369  0.0718 -0.0985 -0.1200
 1012MOL0     C36498   5.142  10.434  11.480 -0.0681 -0.3897  0.0828
 1012MOL0     C36499   5.061  10.461  11.603  0.2942  0.1515  0.0592
 1012MOL0     C36500   5.046  10.326  11.687  0.0469 -0.8950  0.1100
 1012MOL0     C36501   4.934  10.327  11.795  0.9776 -0.4987  0.8001
 1012MOL0     N36502   4.797  10.306  11.738 -0.7751  0.0269  0.2375
 1012MOL0     C36503   4.750  10.225  11.635  0.7711  0.3351  0.3068
 1012MOL0     C36504   4.619  10.258  11.627  0.2429  0.5727  0.4404
 1012MOL0     C36505   4.517  10.197  11.529  0.2572 -0.8132 -0.9604
 1012MOL0     C36506   4.547  10.224  11.386  0.5482  0.0744 -0.0566
 1012MOL0     C36507   4.502  10.119  11.285  0.8002 -0.7833  0.4882
 1012MOL0     C36508   4.511  10.186  11.148  0.5945 -0.1687  0.3694
 1012MOL0     O36509   4.463  10.093  11.044  0.3061 -0.2487 -0.1218
 1012MOL0     C36510   4.331  10.075  11.008  1.1940  0.9464  0.6794
 1012MOL0     C36511   4.223  10.157  11.044  0.0769  0.1302 -1.0159
 1012MOL0     C36512   4.094  10.132  11.001  0.8575  0.6694  0.5677
 1012MOL0     C36513   3.989  10.231  11.042 -0.4421  0.0922  0.8684
 1012MOL0     C36514   4.075  10.017  10.916  0.2208  0.0875 -0.1058
 1012MOL0     C36515   3.938   9.965  10.893  0.3917  0.5271 -0.0145
 1012MOL0     O36516   3.851   9.970  10.998 -0.2334 -0.4788 -0.2887
 1012MOL0     C36517   3.733   9.908  10.964  0.4584 -0.3588  0.9589
 1012MOL0     C36518   3.615   9.986  10.950  0.4553 -0.8384  0.6996
 1012MOL0     C36519   3.487   9.920  10.938 -0.1473 -0.2897  0.1607
 1012MOL0     C36520   3.486   9.780  10.926  0.1469 -1.3049  0.6570
 1012MOL0     O36521   3.369   9.714  10.886  0.0208  0.2368 -0.2364
 1012MOL0     C36522   3.364   9.572  10.896  0.5243  0.2065 -0.1403
 1012MOL0     C36523   3.222   9.537  10.850  0.1021 -0.1421 -0.7296
 1012MOL0     C36524   3.189   9.389  10.876  0.0668  0.0052 -0.1838
 1012MOL0     C36525   3.045   9.370  10.831  0.0855  0.3160  0.4770
 1012MOL0     C36526   3.008   9.225  10.816 -0.8522 -0.0625  0.9342
 1012MOL0     C36527   3.019   9.145  10.951 -0.4213 -0.2479 -0.2255
 1012MOL0     C36528   2.913   9.194  11.050 -0.6868 -0.1212  0.3570
 1012MOL0     C36529   2.914   9.107  11.173 -0.2757  0.7450 -0.5503
 1012MOL0    Cl36530   2.792   9.165  11.294 -0.3863  0.1015 -0.2163
 1012MOL0     C36531   3.604   9.706  10.951 -0.2364  0.3816  0.1493
 1012MOL0     C36532   3.724   9.772  10.964  0.3425 -0.1274 -0.2120
 1012MOL0     O36533   3.932   9.883  10.800 -0.1925  0.2940 -0.3921
 1012MOL0     C36534   4.181   9.939  10.883  0.0896  0.6966 -0.5626
 1012MOL0     C36535   4.308   9.962  10.925  0.4990 -0.5838 -0.0931
 1012MOL0     N36536   4.588  10.343  11.722 -0.2904 -0.4583 -0.5736
 1012MOL0     N36537   4.689  10.370  11.791  0.4970 -0.6121 -0.1342
 1012MOL0     C36538   5.433  10.747  10.929  0.5397  0.7555  0.0695
 1012MOL0     C36539   5.540  10.749  10.843 -0.0230 -0.4712  0.2547
 1012MOL0     C36540   5.955  10.735  10.707 -0.1768 -0.7056  0.3443
 1012MOL0     C36541   6.000  10.836  10.614 -0.1910 -0.2738  0.1646
 1012MOL0     C36542   6.117  10.823  10.540  0.8359  0.4076 -0.0325
 1012MOL0     C36543   6.202  10.713  10.552 -0.0750 -0.6016  0.4989
 1012MOL0     O36544   6.322  10.717  10.476  0.1013  0.2138  0.6733
 1012MOL0     C36545   6.406  10.608  10.513 -0.3870 -0.0798 -0.1901
 1012MOL0     C36546   6.363  10.496  10.424 -0.5601 -0.0372 -0.2934
 1012MOL0     C36547   6.421  10.359  10.484 -0.0298 -0.1702  0.6410
 1012MOL0     C36548   6.416  10.226  10.402  1.4869  0.2300 -0.5417
 1012MOL0     C36549   6.287  10.224  10.329 -0.2020 -0.0290  0.6183
 1012MOL0     C36550   6.181  10.216  10.271  0.3998 -0.3481 -0.5286
 1012MOL0     C36551   6.150  10.610  10.638  0.0573  0.6363 -0.3966
 1012MOL0     C36552   6.034  10.622  10.713  0.0753  0.1351  0.6601
 1012MOL0     H36553   5.674  11.049  10.922 -1.4992  2.8183  1.3048
 1012MOL0     H36554   5.483  11.054  11.066 -3.2736 -0.7777  1.4937
 1012MOL0     H36555   5.200  10.696  11.142  0.8208  0.0111 -2.0606
 1012MOL0     H36556   5.375  10.675  11.169  0.2035  0.9491  0.9988
 1012MOL0     H36557   5.324  10.849  11.379 -1.3889  0.5094  0.6213
 1012MOL0     H36558   5.163  10.842  11.333  1.3731  2.5899  2.0075
 1012MOL0     H36559   5.358  10.614  11.423  0.1269  1.2674  2.0540
 1012MOL0     H36560   5.221  10.681  11.521  1.8285 -0.8900  0.7528
 1012MOL0     H36561   5.072  10.577  11.323  0.5642 -0.8441 -1.8231
 1012MOL0     H36562   5.216  10.482  11.291 -3.1639 -2.8961 -0.5796
 1012MOL0     H36563   5.079  10.357  11.436 -0.3794 -1.0528  1.6207
 1012MOL0     H36564   5.234  10.384  11.513 -0.3789  0.6076  2.7435
 1012MOL0     H36565   5.113  10.530  11.670 -0.2603 -2.4915  3.4579
 1012MOL0     H36566   4.960  10.495  11.582 -0.4490 -1.6242  0.6236
 1012MOL0     H36567   5.024  10.243  11.619 -0.3454 -0.2528 -0.5569
 1012MOL0     H36568   5.143  10.301  11.730  1.3457  3.8553  0.5084
 1012MOL0     H36569   4.927  10.419  11.854 -0.1267  0.4662 -0.7597
 1012MOL0     H36570   4.956  10.247  11.866  2.4697 -0.7496  0.0955
 1012MOL0     H36571   4.803  10.150  11.577 -1.0459 -0.6731 -0.1015
 1012MOL0     H36572   4.534  10.091  11.553 -0.7530 -0.8118 -0.1162
 1012MOL0     H36573   4.417  10.231  11.559  1.4558  2.8322 -0.6457
 1012MOL0     H36574   4.652  10.253  11.378  0.0146  1.7944 -1.4695
 1012MOL0     H36575   4.498  10.318  11.357 -0.6225 -1.1275 -2.1525
 1012MOL0     H36576   4.396  10.095  11.295  0.7258 -0.4903  0.4093
 1012MOL0     H36577   4.559  10.026  11.292  2.5913  0.2195 -0.0913
 1012MOL0     H36578   4.615  10.212  11.126  0.2825  0.0090 -0.9845
 1012MOL0     H36579   4.455  10.279  11.157  1.0935  0.2122 -0.3255
 1012MOL0     H36580   4.240  10.243  11.107  0.0516 -0.7638  0.2407
 1012MOL0     H36581   3.900  10.228  10.979 -0.3392 -3.7988  0.6481
 1012MOL0     H36582   3.944  10.208  11.138  0.4744 -0.7735  1.1078
 1012MOL0     H36583   4.016  10.336  11.024 -0.8938 -0.2582 -2.4081
 1012MOL0     H36584   3.621  10.094  10.955 -0.0735 -0.8490  1.9469
 1012MOL0     H36585   3.402   9.986  10.923  1.7605  2.4008  0.3070
 1012MOL0     H36586   3.439   9.521  10.834 -1.4085 -1.3331 -1.3412
 1012MOL0     H36587   3.381   9.551  11.002 -3.1483 -0.2753  0.4617
 1012MOL0     H36588   3.154   9.605  10.902 -0.1187 -0.7274 -0.2420
 1012MOL0     H36589   3.211   9.559  10.743  0.0918 -2.5522 -1.2748
 1012MOL0     H36590   3.212   9.347  10.974 -0.7342 -1.8227 -0.7543
 1012MOL0     H36591   3.256   9.327  10.817 -0.1222 -1.8934  1.4926
 1012MOL0     H36592   2.977   9.421  10.899 -0.2771 -0.4518  0.7020
 1012MOL0     H36593   3.035   9.404  10.727  1.2864 -1.3935 -0.2670
 1012MOL0     H36594   3.073   9.170  10.747 -0.0386  0.6945  1.0748
 1012MOL0     H36595   2.908   9.214  10.774 -0.6642 -0.2711  0.5376
 1012MOL0     H36596   3.006   9.039  10.927 -3.2031 -0.2966  1.0509
 1012MOL0     H36597   3.116   9.161  10.998 -1.8923  5.4703  1.6965
 1012MOL0     H36598   2.815   9.193  11.003  0.6994 -0.4265 -2.7758
 1012MOL0     H36599   2.920   9.299  11.080 -2.6807  0.2600 -0.3975
 1012MOL0     H36600   3.016   9.113  11.210  0.1656  1.9998 -1.8857
 1012MOL0     H36601   2.886   9.005  11.145 -0.7406  0.1214  1.9114
 1012MOL0     H36602   3.616   9.598  10.957 -0.6258  0.2124 -1.7166
 1012MOL0     H36603   3.812   9.709  10.959  0.3643 -0.0274 -3.0596
 1012MOL0     H36604   4.164   9.859  10.811  0.3324  1.2423 -1.2453
 1012MOL0     H36605   4.390   9.892  10.912  0.9561 -0.1141  0.2044
 1012MOL0     H36606   5.364  10.665  10.945  0.0366  1.1809  0.1370
 1012MOL0     H36607   5.552  10.665  10.775  0.9106 -0.9636  1.0110
 1012MOL0     H36608   5.942  10.925  10.593  2.0906  1.0765 -0.7515
 1012MOL0     H36609   6.146  10.888  10.458  0.3340  0.2391 -0.3453
 1012MOL0     H36610   6.510  10.639  10.505 -0.6797  1.2019  0.6436
 1012MOL0     H36611   6.404  10.589  10.621 -3.0184 -0.9299 -0.3233
 1012MOL0     H36612   6.403  10.512  10.323  0.5148  0.6106  0.2162
 1012MOL0     H36613   6.254  10.493  10.410 -0.5309  0.7937 -0.7721
 1012MOL0     H36614   6.363  10.338  10.574 -0.9826 -0.3572  0.0076
 1012MOL0     H36615   6.526  10.381  10.506  0.3636 -2.4420  1.2798
 1012MOL0     H36616   6.427  10.138  10.466  1.7997 -0.1541 -1.1151
 1012MOL0     H36617   6.497  10.235  10.328  2.9802  2.4720  1.2201
 1012MOL0     H36618   6.093  10.217  10.210 -0.7830 -0.4573  1.1174
 1012MOL0     H36619   6.193  10.512  10.655 -3.0943 -0.9071 -0.4621
 1012MOL0     H36620   6.002  10.542  10.779 -2.9215 -0.0219 -0.8478
 1013MOL0     O36621   5.736   1.871   1.887  0.0554 -0.6458  0.3654
 1013MOL0     C36622   5.718   1.753   1.918 -0.2849  0.5649  0.2789
 1013MOL0     O36623   5.597   1.690   1.935  0.1481 -0.2758 -0.3075
 1013MOL0     C36624   5.491   1.749   1.875  0.2000 -0.0493 -0.4494
 1013MOL0     C36625   5.487   1.865   1.790 -0.4588 -0.5480  0.0088
 1013MOL0     C36626   5.377   1.928   1.747 -0.4361  0.3686  0.2502
 1013MOL0     C36627   5.249   1.884   1.791 -0.5054  0.5200 -0.3095
 1013MOL0     O36628   5.142   1.959   1.773  0.1188 -0.3881  0.2529
 1013MOL0     C36629   5.153   2.102   1.795 -0.1030  0.2130 -0.3825
 1013MOL0     C36630   5.015   2.173   1.776 -0.3709 -0.3794  0.5389
 1013MOL0     C36631   5.016   2.323   1.820 -0.7254  0.1415 -0.4784
 1013MOL0     C36632   4.897   2.396   1.764  0.5841  0.3867 -0.3725
 1013MOL0     C36633   4.894   2.546   1.779 -1.1277  0.4295  0.1111
 1013MOL0     C36634   4.976   2.600   1.890  1.0338 -0.8107 -0.4872
 1013MOL0     C36635   4.934   2.738   1.937 -0.0300  0.3150  0.3073
 1013MOL0     C36636   5.001   2.847   1.846  0.4217 -1.0146 -0.5896
 1013MOL0     N36637   4.994   2.982   1.911 -0.2827  0.4397  0.7534
 1013MOL0     C36638   5.087   3.028   1.996 -0.4593 -0.0614 -0.2721
 1013MOL0     C36639   5.065   3.165   1.990  0.8138  0.5053 -0.4611
 1013MOL0     C36640   5.151   3.281   2.050  0.4810 -0.9151 -0.2350
 1013MOL0     C36641   5.076   3.377   2.144  0.5933  0.7145 -0.7927
 1013MOL0     C36642   5.131   3.511   2.187 -0.2915 -0.8789  0.4245
 1013MOL0     C36643   5.246   3.499   2.283  0.2726 -0.1082 -0.2394
 1013MOL0     O36644   5.251   3.601   2.385  0.0593 -0.5851  0.2999
 1013MOL0     C36645   5.167   3.601   2.493 -0.0657  0.7261 -0.1590
 1013MOL0     C36646   5.192   3.701   2.592  0.6823  0.3204  0.6338
 1013MOL0     C36647   5.112   3.708   2.709 -0.2167  0.5278 -0.0706
 1013MOL0     C36648   5.140   3.815   2.814 -0.1661 -0.6163  0.6827
 1013MOL0     C36649   5.007   3.613   2.728 -0.2123 -0.0881  0.7565
 1013MOL0     C36650   4.918   3.608   2.850 -1.5198 -0.1137 -0.1774
 1013MOL0     O36651   4.783   3.583   2.839 -0.0391  0.0513 -0.3321
 1013MOL0     C36652   4.714   3.603   2.960 -0.1353  0.3597  0.1953
 1013MOL0     C36653   4.642   3.717   2.970  0.9229 -1.0195 -0.4710
 1013MOL0     C36654   4.560   3.736   3.081  1.0756 -0.7142  0.5866
 1013MOL0     C36655   4.536   3.632   3.173  0.5547 -0.7553  0.3521
 1013MOL0     O36656   4.464   3.657   3.286 -0.4529  0.4235 -0.4035
 1013MOL0     C36657   4.353   3.752   3.285 -1.3854 -0.4764 -0.7283
 1013MOL0     C36658   4.290   3.748   3.429 -0.0110  0.6241  0.2770
 1013MOL0     C36659   4.238   3.613   3.472  0.4422 -0.7433  0.1236
 1013MOL0     C36660   4.203   3.607   3.620  0.2168 -0.5617 -0.3117
 1013MOL0     C36661   4.102   3.729   3.679 -0.5517 -0.5034 -0.3709
 1013MOL0     C36662   4.035   3.678   3.809  0.6018 -0.1625  0.7321
 1013MOL0     C36663   4.147   3.658   3.922  0.4636 -0.3788 -0.4024
 1013MOL0     C36664   4.081   3.662   4.061  0.3727 -0.2000  0.0050
 1013MOL0    Cl36665   3.967   3.522   4.078  0.2477 -0.0318 -0.3439
 1013MOL0     C36666   4.605   3.510   3.151  0.0014  0.0703 -0.4517
 1013MOL0     C36667   4.691   3.495   3.043 -0.8292  0.2844 -0.3501
 1013MOL0     O36668   4.978   3.636   2.962  0.5659 -0.4876 -0.2662
 1013MOL0     C36669   4.987   3.507   2.636  0.0369  0.6056  0.3934
 1013MOL0     C36670   5.063   3.510   2.518  0.4679 -0.3787 -1.1146
 1013MOL0     N36671   4.957   3.196   1.903 -0.5087  1.0545 -1.6555
 1013MOL0     N36672   4.923   3.079   1.857  0.1860  0.0276  0.1970
 1013MOL0     C36673   5.243   1.768   1.868 -0.2809  0.8559  0.8051
 1013MOL0     C36674   5.361   1.698   1.903 -0.0419 -0.3862  0.0638
 1013MOL0     C36675   5.846   1.686   1.952 -0.1337 -0.1392 -0.8071
 1013MOL0     C36676   5.845   1.562   2.014  0.5204 -0.2013 -0.0713
 1013MOL0     C36677   5.967   1.495   2.063  0.3166  1.1344  0.5757
 1013MOL0     C36678   6.092   1.548   2.037 -0.0836 -0.4838  0.1480
 1013MOL0     O36679   6.200   1.473   2.076 -0.3644 -0.4785 -0.4939
 1013MOL0     C36680   6.331   1.535   2.057  1.1275 -0.0546 -0.0362
 1013MOL0     C36681   6.441   1.456   2.115  0.0192 -0.2257 -0.1842
 1013MOL0     C36682   6.443   1.310   2.062 -0.1463 -1.1344  0.3680
 1013MOL0     C36683   6.577   1.286   1.988  0.8731 -0.5846 -0.4522
 1013MOL0     C36684   6.686   1.271   2.082 -0.2145 -0.5997  0.4075
 1013MOL0     C36685   6.767   1.246   2.161 -0.3877  0.5260  0.6250
 1013MOL0     C36686   6.086   1.670   1.969 -0.3314  0.5058  0.3638
 1013MOL0     C36687   5.972   1.739   1.929  0.3309  0.1735 -0.1214
 1013MOL0     H36688   5.572   1.903   1.734  0.1871 -0.4799  1.0035
 1013MOL0     H36689   5.391   2.009   1.677 -1.1470  1.9008  1.8144
 1013MOL0     H36690   5.183   2.121   1.899 -1.1557  1.1234 -0.2293
 1013MOL0     H36691   5.226   2.151   1.730  1.3096  0.0129  0.9804
 1013MOL0     H36692   4.988   2.152   1.672  2.5054  1.3315 -0.6767
 1013MOL0     H36693   4.937   2.132   1.841 -0.8895  2.6155  1.9572
 1013MOL0     H36694   5.007   2.325   1.929  0.4329  1.9555 -0.3593
 1013MOL0     H36695   5.112   2.369   1.793  0.4554 -2.6010 -1.3042
 1013MOL0     H36696   4.892   2.387   1.655  1.6677 -1.4273 -0.3091
 1013MOL0     H36697   4.806   2.352   1.806  0.3261 -0.1611 -1.4563
 1013MOL0     H36698   4.940   2.586   1.689 -0.1003 -1.6474 -0.3578
 1013MOL0     H36699   4.794   2.590   1.775 -2.1022 -1.7735 -2.8727
 1013MOL0     H36700   4.965   2.547   1.985  1.2305  1.7107  1.0299
 1013MOL0     H36701   5.080   2.606   1.857  0.6374  1.1709 -1.5103
 1013MOL0     H36702   4.826   2.748   1.929 -0.5111 -1.9424  2.7367
 1013MOL0     H36703   4.957   2.756   2.042 -4.4845  0.9542  1.3477
 1013MOL0     H36704   4.955   2.839   1.747  0.1824  0.5788 -0.6358
 1013MOL0     H36705   5.107   2.829   1.829 -0.1921 -2.0280 -4.2201
 1013MOL0     H36706   5.159   2.965   2.048 -1.1344 -0.7744 -0.1847
 1013MOL0     H36707   5.240   3.251   2.107 -1.0505 -0.2889  2.7074
 1013MOL0     H36708   5.180   3.326   1.955  2.6462  1.4818  1.4372
 1013MOL0     H36709   5.061   3.319   2.236 -0.8816  0.4866 -1.1420
 1013MOL0     H36710   4.975   3.394   2.104  0.4978  2.1581 -0.0014
 1013MOL0     H36711   5.053   3.569   2.238  0.4103  1.6602 -1.2018
 1013MOL0     H36712   5.160   3.569   2.099 -2.7681 -1.1036 -0.6267
 1013MOL0     H36713   5.340   3.493   2.228 -0.9605 -0.1715 -2.4393
 1013MOL0     H36714   5.220   3.409   2.341  1.1032  0.4778  1.0915
 1013MOL0     H36715   5.257   3.781   2.558 -1.8320  1.3971 -2.0950
 1013MOL0     H36716   5.055   3.866   2.862 -0.5942 -0.5599 -0.1190
 1013MOL0     H36717   5.191   3.757   2.892 -0.7683 -4.0026 -1.2556
 1013MOL0     H36718   5.210   3.890   2.776 -0.9012 -0.4116 -0.3051
 1013MOL0     H36719   4.651   3.795   2.895  0.0953 -0.3126  0.1582
 1013MOL0     H36720   4.526   3.833   3.116 -0.0473 -0.9907  0.3023
 1013MOL0     H36721   4.390   3.850   3.252  1.0622 -1.0544  0.0901
 1013MOL0     H36722   4.282   3.719   3.209  2.0448 -1.4128 -3.8249
 1013MOL0     H36723   4.367   3.783   3.499  0.3621 -0.9174  0.6813
 1013MOL0     H36724   4.208   3.821   3.423 -0.3383  0.1362 -1.7740
 1013MOL0     H36725   4.310   3.531   3.462 -0.2489 -1.4232  0.6086
 1013MOL0     H36726   4.146   3.590   3.418 -0.6449  1.9569  0.6979
 1013MOL0     H36727   4.158   3.511   3.648  1.3058 -0.7193  0.9749
 1013MOL0     H36728   4.296   3.609   3.677  0.0909 -0.0563 -0.1178
 1013MOL0     H36729   4.029   3.767   3.607  1.0137 -2.5810 -3.2940
 1013MOL0     H36730   4.152   3.825   3.693 -3.0756  0.9506 -0.7172
 1013MOL0     H36731   3.963   3.753   3.845 -0.9221 -0.7480 -0.9200
 1013MOL0     H36732   3.991   3.581   3.783 -1.4323  0.9864 -0.4070
 1013MOL0     H36733   4.223   3.736   3.920  3.0761 -2.7061  1.0609
 1013MOL0     H36734   4.194   3.560   3.908 -0.8630 -0.9411 -1.1239
 1013MOL0     H36735   4.037   3.762   4.073 -0.8364 -0.8421  1.0729
 1013MOL0     H36736   4.157   3.650   4.139  0.0502  3.1113  0.9998
 1013MOL0     H36737   4.570   3.424   3.206 -2.7367  0.3996 -1.5551
 1013MOL0     H36738   4.739   3.400   3.024 -1.8342 -0.0516 -1.3052
 1013MOL0     H36739   4.902   3.441   2.646  1.9919 -2.0276  0.7764
 1013MOL0     H36740   5.029   3.429   2.455 -1.9525 -1.8142  1.7857
 1013MOL0     H36741   5.143   1.742   1.900 -0.9000  2.2371  0.1194
 1013MOL0     H36742   5.343   1.610   1.964 -1.1446 -0.2490 -0.0444
 1013MOL0     H36743   5.749   1.514   2.023 -0.0154  0.2766 -2.4816
 1013MOL0     H36744   5.948   1.394   2.098 -1.4208  0.0060 -3.0978
 1013MOL0     H36745   6.330   1.551   1.949  0.5663 -1.6093 -0.2830
 1013MOL0     H36746   6.336   1.635   2.101 -1.2306 -0.3377  1.0939
 1013MOL0     H36747   6.407   1.461   2.219 -1.3581  0.7087 -0.6564
 1013MOL0     H36748   6.539   1.503   2.106 -0.2975  0.1224 -2.5174
 1013MOL0     H36749   6.362   1.303   1.989  1.0573 -2.4937 -0.9138
 1013MOL0     H36750   6.417   1.249   2.149 -0.8298 -0.3075  0.7574
 1013MOL0     H36751   6.598   1.374   1.927  2.4133 -0.6951 -0.1362
 1013MOL0     H36752   6.577   1.195   1.928  0.3766  0.0245 -1.3956
 1013MOL0     H36753   6.833   1.217   2.240 -0.1126  0.9968  0.5726
 1013MOL0     H36754   6.185   1.706   1.944  0.0303  0.5654  1.8313
 1013MOL0     H36755   5.981   1.837   1.883  0.5627  0.8391  1.2733
 1014MOL0     O36756   5.992   2.359   7.925 -0.9379 -0.6204  0.2197
 1014MOL0     C36757   6.011   2.468   7.980 -0.7585  0.7751  0.0717
 1014MOL0     O36758   5.924   2.535   8.072  0.1048 -0.0841 -0.6456
 1014MOL0     C36759   5.830   2.457   8.135 -0.5968 -0.3065  0.8269
 1014MOL0     C36760   5.862   2.363   8.230  0.1278  0.5074 -0.2298
 1014MOL0     C36761   5.758   2.304   8.301  0.0418  0.8268 -0.8794
 1014MOL0     C36762   5.625   2.325   8.253  0.1597  0.4394 -0.0081
 1014MOL0     O36763   5.512   2.268   8.306 -0.1345 -0.6745 -0.2316
 1014MOL0     C36764   5.528   2.159   8.392  0.3257  0.7291 -0.5091
 1014MOL0     C36765   5.389   2.108   8.432 -0.2224 -0.0426 -0.9809
 1014MOL0     C36766   5.292   2.062   8.321 -0.1586 -0.6394  0.1172
 1014MOL0     C36767   5.161   1.993   8.384  0.4201 -0.3676 -0.2561
 1014MOL0     C36768   5.048   1.983   8.275 -0.2584 -0.3755 -1.0547
 1014MOL0     C36769   5.095   1.898   8.152 -0.0167 -0.2794 -0.5342
 1014MOL0     C36770   5.071   1.743   8.172 -0.9281  0.3695  0.1194
 1014MOL0     C36771   5.101   1.654   8.050  0.5147 -0.9126 -0.3110
 1014MOL0     N36772   5.011   1.682   7.937  0.7391  0.3322  0.0606
 1014MOL0     C36773   5.040   1.749   7.823  1.1689  0.0158  0.6688
 1014MOL0     C36774   4.922   1.768   7.758  0.0868 -0.1059 -0.8099
 1014MOL0     C36775   4.905   1.831   7.628  0.0483 -0.0743  0.5910
 1014MOL0     C36776   4.952   1.731   7.533  0.0107  0.4191  0.4164
 1014MOL0     C36777   4.941   1.793   7.396  0.6437 -0.3091  0.7195
 1014MOL0     C36778   5.088   1.823   7.348 -0.7575 -0.2433 -0.0949
 1014MOL0     O36779   5.150   1.920   7.439  0.5771  0.4208 -0.2038
 1014MOL0     C36780   5.282   1.924   7.447  0.3919  0.4836  0.0703
 1014MOL0     C36781   5.378   1.869   7.360 -0.4920 -0.3604  0.6662
 1014MOL0     C36782   5.519   1.865   7.387 -0.5270 -0.4496  0.0947
 1014MOL0     C36783   5.616   1.829   7.282  0.0416 -0.1354 -0.4948
 1014MOL0     C36784   5.563   1.915   7.518 -0.3480  0.5590 -0.5256
 1014MOL0     C36785   5.697   1.908   7.573 -0.6393  0.0404  0.1264
 1014MOL0     O36786   5.738   2.023   7.628 -0.1336  0.1084  0.5205
 1014MOL0     C36787   5.859   2.019   7.683  0.0295  0.0202 -0.1238
 1014MOL0     C36788   5.884   2.079   7.807  0.4388  0.8189  1.7738
 1014MOL0     C36789   6.009   2.079   7.859 -0.2670 -0.7367  0.0514
 1014MOL0     C36790   6.117   2.020   7.811  0.0126  0.3339  0.8139
 1014MOL0     O36791   6.236   2.023   7.882 -0.0580 -0.1634  0.1201
 1014MOL0     C36792   6.361   2.007   7.807  0.1357  0.2479 -0.3089
 1014MOL0     C36793   6.454   2.086   7.902  0.6592  0.4707 -0.4634
 1014MOL0     C36794   6.606   2.057   7.869 -0.2295 -0.4447 -0.6045
 1014MOL0     C36795   6.642   1.913   7.912 -0.4556 -0.1809  0.1111
 1014MOL0     C36796   6.797   1.894   7.936  0.7557 -0.5816 -0.1212
 1014MOL0     C36797   6.845   1.920   8.072  0.4272 -0.3159  0.2344
 1014MOL0     C36798   6.994   1.959   8.082  0.1530  0.4749  0.5092
 1014MOL0     C36799   7.021   2.107   8.059 -0.0569  0.4811 -0.1969
 1014MOL0    Cl36800   6.980   2.155   7.896 -0.3881 -0.1850 -0.3154
 1014MOL0     C36801   6.107   1.963   7.681  0.7584 -0.5248  1.0863
 1014MOL0     C36802   5.978   1.967   7.614 -1.2548 -0.1121 -0.1682
 1014MOL0     O36803   5.750   1.795   7.568 -0.0540  0.0327  0.5941
 1014MOL0     C36804   5.466   1.954   7.610  0.1422 -0.3417  0.3868
 1014MOL0     C36805   5.325   1.966   7.578 -0.2445  0.0031 -0.1088
 1014MOL0     N36806   4.817   1.709   7.830  0.0016  0.0154 -0.7858
 1014MOL0     N36807   4.878   1.663   7.936  0.3467 -0.3207  0.2166
 1014MOL0     C36808   5.597   2.410   8.150  0.6421  0.4337  0.1383
 1014MOL0     C36809   5.698   2.479   8.089 -0.8803 -0.4476 -0.3826
 1014MOL0     C36810   6.150   2.525   7.968 -0.2960  1.2846  0.3710
 1014MOL0     C36811   6.171   2.655   8.012 -0.0759 -0.0843 -0.2341
 1014MOL0     C36812   6.297   2.721   8.014  0.9563  0.4462 -0.3860
 1014MOL0     C36813   6.402   2.658   7.941 -0.7843 -0.9290 -0.0027
 1014MOL0     O36814   6.507   2.726   7.895 -0.2259 -0.4666 -0.2937
 1014MOL0     C36815   6.545   2.861   7.931 -0.1702 -0.7351  0.2185
 1014MOL0     C36816   6.651   2.918   7.840  1.4602 -1.0432  0.1477
 1014MOL0     C36817   6.781   2.845   7.840  0.0586 -0.5028  1.1444
 1014MOL0     C36818   6.867   2.894   7.718  0.7245 -0.5316  0.3781
 1014MOL0     C36819   6.937   3.027   7.732  0.1729  0.2846  1.4617
 1014MOL0     C36820   6.972   3.142   7.741 -0.3206 -0.4306  0.1180
 1014MOL0     C36821   6.379   2.534   7.884  0.1485 -0.3036 -0.4576
 1014MOL0     C36822   6.257   2.463   7.904  0.1071 -0.1013 -0.2612
 1014MOL0     H36823   5.964   2.342   8.259  0.9482  3.2676 -0.7489
 1014MOL0     H36824   5.779   2.255   8.396 -0.0482  0.9038 -0.8193
 1014MOL0     H36825   5.590   2.081   8.347 -0.1529 -1.0646  1.7213
 1014MOL0     H36826   5.578   2.191   8.484 -0.6559  1.9365 -0.3667
 1014MOL0     H36827   5.408   2.026   8.501  1.3168  1.7440  0.8703
 1014MOL0     H36828   5.335   2.184   8.489 -2.0430 -0.1210 -2.5103
 1014MOL0     H36829   5.268   2.150   8.261  0.4890 -2.0687 -2.4040
 1014MOL0     H36830   5.344   1.989   8.258 -0.0323 -0.2983 -0.1806
 1014MOL0     H36831   5.197   1.895   8.418  2.8331  1.0745  1.7359
 1014MOL0     H36832   5.121   2.054   8.466  2.4501  0.1089  0.4389
 1014MOL0     H36833   4.961   1.934   8.320 -0.8888 -0.5883 -2.4542
 1014MOL0     H36834   5.019   2.082   8.237  0.4352  0.1132 -0.3388
 1014MOL0     H36835   5.038   1.931   8.065  0.5026  0.6926 -0.5298
 1014MOL0     H36836   5.201   1.918   8.133 -0.6894  1.7612 -2.6762
 1014MOL0     H36837   5.133   1.715   8.257 -1.1761 -0.7996 -0.0707
 1014MOL0     H36838   4.964   1.731   8.191 -1.3221 -0.8781 -2.3703
 1014MOL0     H36839   5.074   1.552   8.078 -0.1519  0.1044  3.2055
 1014MOL0     H36840   5.207   1.654   8.024  1.0183 -2.2187  1.5512
 1014MOL0     H36841   5.135   1.778   7.780  0.0000  0.1601 -1.9971
 1014MOL0     H36842   4.798   1.857   7.623 -0.8175 -2.7762  2.6211
 1014MOL0     H36843   4.957   1.927   7.628  0.9287 -0.5190 -0.8741
 1014MOL0     H36844   4.881   1.648   7.533  0.3447  0.0571 -2.0236
 1014MOL0     H36845   5.051   1.690   7.557  0.6211  0.9902 -0.9874
 1014MOL0     H36846   4.878   1.882   7.401 -2.8711 -2.5791  0.6367
 1014MOL0     H36847   4.896   1.721   7.327 -1.8082  0.7383  1.1314
 1014MOL0     H36848   5.093   1.862   7.246  3.4696 -0.7297 -0.2652
 1014MOL0     H36849   5.144   1.730   7.339 -0.1111  0.3067 -2.4048
 1014MOL0     H36850   5.350   1.836   7.261  0.7314  0.6719 -0.0434
 1014MOL0     H36851   5.687   1.752   7.314  0.9020  1.6726  2.2873
 1014MOL0     H36852   5.563   1.781   7.199  1.0960  0.6498 -1.6470
 1014MOL0     H36853   5.670   1.919   7.254 -1.0493  0.7909  0.2796
 1014MOL0     H36854   5.798   2.127   7.854  0.3317  0.8304  1.5679
 1014MOL0     H36855   6.013   2.128   7.956 -1.7848 -0.7603  0.1596
 1014MOL0     H36856   6.397   1.907   7.781 -0.3639  0.4011 -1.6982
 1014MOL0     H36857   6.358   2.057   7.709  0.0630  2.1114  0.6050
 1014MOL0     H36858   6.447   2.194   7.881 -2.7996  0.2763 -0.8532
 1014MOL0     H36859   6.421   2.061   8.003 -1.6878 -4.0308 -2.0576
 1014MOL0     H36860   6.676   2.117   7.927 -2.3424  1.6538 -0.0716
 1014MOL0     H36861   6.606   2.076   7.761 -1.5781  2.0035 -0.2481
 1014MOL0     H36862   6.586   1.864   7.992  2.6379 -3.9545  0.3239
 1014MOL0     H36863   6.616   1.845   7.830 -0.5718 -2.1904  1.7178
 1014MOL0     H36864   6.846   1.955   7.859 -0.5851 -0.0187 -0.5545
 1014MOL0     H36865   6.814   1.788   7.917 -0.0938 -0.8019  0.3376
 1014MOL0     H36866   6.792   1.994   8.132  1.8451  0.0252  1.1104
 1014MOL0     H36867   6.834   1.826   8.128  0.3635  0.6079  1.8183
 1014MOL0     H36868   7.048   1.904   8.004  2.3944  1.5983  1.1776
 1014MOL0     H36869   7.032   1.933   8.181 -1.4206  1.5989  1.4604
 1014MOL0     H36870   7.125   2.131   8.083 -0.8443  2.4676  1.4542
 1014MOL0     H36871   6.967   2.164   8.135  1.0495 -1.2285  1.9941
 1014MOL0     H36872   6.197   1.934   7.628  0.3310 -3.4550  1.7610
 1014MOL0     H36873   5.961   1.931   7.513 -0.6546  1.2249 -0.7752
 1014MOL0     H36874   5.497   1.974   7.712  0.1982 -1.9922  0.7241
 1014MOL0     H36875   5.257   2.011   7.649 -0.4349  1.8056 -1.3649
 1014MOL0     H36876   5.497   2.437   8.119  1.2923  2.3762 -0.4442
 1014MOL0     H36877   5.681   2.561   8.020  2.8249  0.0162 -0.9311
 1014MOL0     H36878   6.098   2.702   8.076  2.9638  1.4966  2.3204
 1014MOL0     H36879   6.292   2.821   8.056 -3.5807  0.1446  0.2783
 1014MOL0     H36880   6.454   2.922   7.929  1.0688  1.3571  2.3200
 1014MOL0     H36881   6.574   2.864   8.037 -0.3420  0.7380  0.2430
 1014MOL0     H36882   6.663   3.026   7.856  1.1061 -0.8688 -0.7060
 1014MOL0     H36883   6.613   2.909   7.738 -1.2593  0.5926  0.9271
 1014MOL0     H36884   6.755   2.742   7.812  0.3906  0.1159 -1.7513
 1014MOL0     H36885   6.838   2.848   7.933  1.4780 -2.7285  0.4203
 1014MOL0     H36886   6.806   2.890   7.628 -1.3918  2.5063  1.4988
 1014MOL0     H36887   6.946   2.820   7.702  1.6701  0.3462  0.8493
 1014MOL0     H36888   7.001   3.246   7.740  0.5528 -0.6663 -0.4874
 1014MOL0     H36889   6.464   2.500   7.825 -0.9850 -2.7093 -0.8051
 1014MOL0     H36890   6.248   2.361   7.869  1.4019 -0.2246 -0.3105
 1015MOL0     O36891  10.904   0.424   7.578  0.4769  1.0439 -0.4569
 1015MOL0     C36892  10.985   0.371   7.652 -0.3805 -0.0266 -0.0035
 1015MOL0     O36893  10.981   0.357   7.786  0.1460 -0.0046 -0.0754
 1015MOL0     C36894  10.872   0.432   7.841 -0.3472  1.1902  0.1274
 1015MOL0     C36895  10.736   0.399   7.824 -0.4214 -0.0963  0.0669
 1015MOL0     C36896  10.635   0.478   7.892  0.0213 -0.2005  0.0706
 1015MOL0     C36897  10.675   0.592   7.969 -0.4137  0.4457 -0.7382
 1015MOL0     O36898  10.579   0.657   8.047 -0.4290 -0.2019  1.0164
 1015MOL0     C36899  10.488   0.583   8.124  0.0624  0.7172 -0.8660
 1015MOL0     C36900  10.474   0.650   8.257  0.1638 -0.3281 -0.3181
 1015MOL0     C36901  10.337   0.617   8.326 -0.2114 -0.2855  0.5671
 1015MOL0     C36902  10.330   0.658   8.476 -0.0192  0.4370 -0.7142
 1015MOL0     C36903  10.190   0.615   8.531 -0.2973  0.0352  0.3698
 1015MOL0     C36904  10.181   0.630   8.677  0.0222 -0.7123  0.1669
 1015MOL0     C36905  10.040   0.579   8.741 -0.5776  0.0639 -0.4051
 1015MOL0     C36906  10.064   0.542   8.884 -0.4790 -0.2617 -0.3052
 1015MOL0     N36907   9.953   0.459   8.932 -0.0399 -0.5525  0.3996
 1015MOL0     C36908   9.817   0.504   8.930  0.0620  0.8668  0.0671
 1015MOL0     C36909   9.746   0.415   9.010 -0.2575  0.1155  1.2246
 1015MOL0     C36910   9.596   0.411   9.040 -0.0739 -0.4535  0.2301
 1015MOL0     C36911   9.509   0.368   8.917  0.6982 -0.3541 -0.5529
 1015MOL0     C36912   9.362   0.413   8.946 -0.9624  0.7061 -0.1322
 1015MOL0     C36913   9.280   0.388   8.821 -0.3495 -0.0462 -1.1387
 1015MOL0     O36914   9.182   0.495   8.820 -0.0366  0.2718  0.4499
 1015MOL0     C36915   9.052   0.449   8.825 -0.1741 -0.7901 -0.3025
 1015MOL0     C36916   8.998   0.358   8.732 -0.7166 -0.2955  0.5879
 1015MOL0     C36917   8.869   0.319   8.733  0.3408 -1.0666  0.3968
 1015MOL0     C36918   8.833   0.209   8.632 -0.0743 -0.3806  0.3522
 1015MOL0     C36919   8.781   0.374   8.832  0.8110  0.8551  0.5628
 1015MOL0     C36920   8.646   0.325   8.853 -0.1136  0.3221  0.6104
 1015MOL0     O36921   8.567   0.408   8.932  0.1221 -1.1697  0.3924
 1015MOL0     C36922   8.445   0.372   8.985  0.7109  0.8604  0.3615
 1015MOL0     C36923   8.354   0.266   8.945 -0.7308  0.2230 -0.1091
 1015MOL0     C36924   8.229   0.245   9.014  0.1333  0.2621 -0.4523
 1015MOL0     C36925   8.181   0.334   9.114 -0.6760 -0.6609  0.8669
 1015MOL0     O36926   8.061   0.309   9.189 -0.1482  0.6152  0.0707
 1015MOL0     C36927   7.952   0.402   9.194  0.0735  1.2127  0.3893
 1015MOL0     C36928   7.836   0.335   9.255  1.0150  0.8708  0.0467
 1015MOL0     C36929   7.778   0.223   9.171 -0.6293 -0.3786  0.1352
 1015MOL0     C36930   7.639   0.180   9.222 -0.4735 -0.3148 -0.1526
 1015MOL0     C36931   7.606   0.026   9.217  0.1153 -0.3747 -0.0017
 1015MOL0     C36932   7.472  -0.012   9.283  0.7341 -0.1450  0.2352
 1015MOL0     C36933   7.438  -0.163   9.264 -1.0941 -0.1006 -0.0521
 1015MOL0     C36934   7.309  -0.198   9.341  0.8541  0.0294 -0.2948
 1015MOL0    Cl36935   7.169  -0.106   9.282  0.1493 -0.1506  0.1976
 1015MOL0     C36936   8.255   0.445   9.140 -0.1141  0.1935  0.0135
 1015MOL0     C36937   8.386   0.467   9.072  0.3145  0.0671 -1.1293
 1015MOL0     O36938   8.610   0.218   8.796 -0.2988 -0.1563 -0.0189
 1015MOL0     C36939   8.831   0.476   8.915  0.1550  0.1449  0.3899
 1015MOL0     C36940   8.963   0.507   8.920  0.5655  0.0845  0.6879
 1015MOL0     N36941   9.839   0.313   9.055  0.1886 -0.1545  0.9444
 1015MOL0     N36942   9.956   0.344   9.013  0.1105  0.0927 -0.2756
 1015MOL0     C36943  10.811   0.623   7.989 -0.1995  0.3573  0.0471
 1015MOL0     C36944  10.909   0.543   7.923 -0.4201  0.4972  0.4038
 1015MOL0     C36945  11.109   0.317   7.587  0.4407 -0.0846  0.3186
 1015MOL0     C36946  11.203   0.246   7.659  0.6315 -0.3061  0.5826
 1015MOL0     C36947  11.317   0.206   7.610 -0.0244  1.3222  0.9118
 1015MOL0     C36948  11.352   0.243   7.475  0.1956  0.1576  0.2807
 1015MOL0     O36949  11.467   0.197   7.425 -0.2597  0.8625  0.4111
 1015MOL0     C36950  11.552   0.099   7.493  0.4511 -0.3634 -0.3771
 1015MOL0     C36951  11.676   0.110   7.414  0.0489  0.0844  0.7599
 1015MOL0     C36952  11.769  -0.004   7.457  0.2618 -0.2145  0.5748
 1015MOL0     C36953  11.893   0.013   7.372  0.1131  0.7244 -0.2857
 1015MOL0     C36954  11.996  -0.073   7.428 -0.5796  0.2802  0.6818
 1015MOL0     C36955  12.082  -0.135   7.482  0.1065  0.6524  0.4317
 1015MOL0     C36956  11.264   0.315   7.382  0.8683  0.6621 -0.3834
 1015MOL0     C36957  11.135   0.347   7.446  0.9942 -0.0919 -0.2778
 1015MOL0     H36958  10.706   0.313   7.765 -2.7667  1.3796 -1.0659
 1015MOL0     H36959  10.534   0.441   7.877 -0.1016  0.2778 -0.3015
 1015MOL0     H36960  10.389   0.573   8.079  0.3602 -0.4235 -1.2901
 1015MOL0     H36961  10.523   0.483   8.150 -2.4666 -0.2178 -0.7326
 1015MOL0     H36962  10.561   0.624   8.318  1.0853  1.6049 -0.7112
 1015MOL0     H36963  10.487   0.757   8.238 -0.1703 -0.2116  0.1042
 1015MOL0     H36964  10.252   0.673   8.284  0.1395  0.2720  0.5804
 1015MOL0     H36965  10.305   0.514   8.312 -0.3390 -0.0540 -1.0724
 1015MOL0     H36966  10.415   0.607   8.523  0.8683  3.6934  1.6215
 1015MOL0     H36967  10.334   0.767   8.490 -2.8760  0.4671  0.5380
 1015MOL0     H36968  10.116   0.682   8.487 -0.0736  1.1354  1.5984
 1015MOL0     H36969  10.165   0.511   8.511  4.4069 -1.7197  2.0727
 1015MOL0     H36970  10.259   0.564   8.716 -0.3986 -0.8438  0.7894
 1015MOL0     H36971  10.215   0.731   8.700  1.0977 -0.9302 -0.3847
 1015MOL0     H36972   9.970   0.662   8.732 -1.5738 -0.4996  1.4913
 1015MOL0     H36973  10.013   0.489   8.685  3.3889 -1.7075  0.1608
 1015MOL0     H36974  10.092   0.631   8.942  1.9835 -1.1825  0.0262
 1015MOL0     H36975  10.159   0.489   8.880 -0.9875 -1.1690 -0.5386
 1015MOL0     H36976   9.776   0.589   8.876  3.1625  0.6963 -2.9269
 1015MOL0     H36977   9.570   0.348   9.125  1.3022 -1.6618 -0.2084
 1015MOL0     H36978   9.565   0.514   9.060  0.3197 -0.5400  1.3125
 1015MOL0     H36979   9.516   0.261   8.896 -0.3958 -0.2358 -1.6496
 1015MOL0     H36980   9.538   0.419   8.825  0.2101  1.7054  0.3707
 1015MOL0     H36981   9.365   0.519   8.971  2.4964  0.9815 -1.1408
 1015MOL0     H36982   9.325   0.355   9.031  0.4388 -3.4637 -2.0676
 1015MOL0     H36983   9.237   0.288   8.832  3.8642 -1.8503  1.4838
 1015MOL0     H36984   9.343   0.393   8.732 -1.6055 -1.0023 -2.1257
 1015MOL0     H36985   9.063   0.329   8.650 -1.1353  3.6663 -1.3829
 1015MOL0     H36986   8.920   0.195   8.568 -2.0915  2.0044 -3.2594
 1015MOL0     H36987   8.807   0.120   8.690  0.6612  1.1930  3.2965
 1015MOL0     H36988   8.748   0.235   8.569 -1.2108  0.3329  2.0771
 1015MOL0     H36989   8.395   0.185   8.885 -0.9756 -1.9855  2.5239
 1015MOL0     H36990   8.167   0.157   9.001 -1.3000  1.2281 -0.3526
 1015MOL0     H36991   7.994   0.494   9.237  0.7807 -0.0724  2.5475
 1015MOL0     H36992   7.926   0.423   9.089  1.9558 -1.9710 -0.8586
 1015MOL0     H36993   7.868   0.298   9.353  1.7657 -6.2748 -2.2754
 1015MOL0     H36994   7.763   0.415   9.271  0.0622 -0.2781  1.8044
 1015MOL0     H36995   7.850   0.140   9.165 -0.4000 -0.4009  2.3013
 1015MOL0     H36996   7.777   0.259   9.068  1.6097 -0.4550  0.0364
 1015MOL0     H36997   7.632   0.195   9.330  1.3665 -1.9422  0.2284
 1015MOL0     H36998   7.553   0.229   9.174 -1.2542 -2.3218 -0.9438
 1015MOL0     H36999   7.676  -0.022   9.286 -2.0161 -3.1958  0.3533
 1015MOL0     H37000   7.619  -0.009   9.114 -1.6309 -2.6173  0.4590
 1015MOL0     H37001   7.466   0.005   9.391  1.3086 -0.4419  0.3165
 1015MOL0     H37002   7.402   0.046   9.222  1.5991  0.3764 -0.2843
 1015MOL0     H37003   7.523  -0.214   9.310 -1.5281  0.8858  1.9653
 1015MOL0     H37004   7.427  -0.205   9.163  2.9616  1.4725 -1.3375
 1015MOL0     H37005   7.335  -0.176   9.445  1.6568 -2.9869  0.2341
 1015MOL0     H37006   7.287  -0.305   9.340  0.9626 -0.0661  2.0808
 1015MOL0     H37007   8.233   0.522   9.213  0.7061 -0.3296  0.8417
 1015MOL0     H37008   8.441   0.556   9.101 -0.6377  0.7909 -1.4602
 1015MOL0     H37009   8.764   0.537   8.975  1.1999  4.0315 -2.0198
 1015MOL0     H37010   9.005   0.580   8.988  0.3426  1.2847 -0.4126
 1015MOL0     H37011  10.849   0.705   8.049  1.1132 -0.3472  0.2263
 1015MOL0     H37012  11.015   0.564   7.933 -0.1007  0.2487 -1.9537
 1015MOL0     H37013  11.173   0.229   7.762 -1.6668 -2.7898 -0.4041
 1015MOL0     H37014  11.379   0.149   7.678 -0.9669  0.5691  1.1660
 1015MOL0     H37015  11.575   0.108   7.599 -0.1749 -1.3721 -0.1379
 1015MOL0     H37016  11.507  -0.001   7.486  1.1833 -1.2176  4.1212
 1015MOL0     H37017  11.725   0.206   7.431 -0.1768  0.1682  0.9362
 1015MOL0     H37018  11.654   0.107   7.307 -1.5383 -0.4864  1.0749
 1015MOL0     H37019  11.721  -0.102   7.451  0.5381 -0.3741  0.8856
 1015MOL0     H37020  11.795   0.014   7.562  2.7862 -2.7582  0.5253
 1015MOL0     H37021  11.932   0.114   7.379  0.0866  0.8147 -1.3520
 1015MOL0     H37022  11.872  -0.016   7.268  0.4104 -0.2196 -0.0993
 1015MOL0     H37023  12.148  -0.204   7.532 -1.4432 -1.9861 -0.9142
 1015MOL0     H37024  11.289   0.350   7.282 -0.0512 -0.4446 -1.0314
 1015MOL0     H37025  11.069   0.410   7.388 -0.1497 -0.5797  0.4502
 1016MOL0     O37026  10.064   1.394   8.595 -0.2513  0.3951  0.6550
 1016MOL0     C37027  10.052   1.443   8.481 -1.2242 -0.4791  0.2784
 1016MOL0     O37028   9.937   1.465   8.408 -0.3855 -0.0657 -0.8300
 1016MOL0     C37029   9.812   1.431   8.455  1.0385 -0.1077 -0.1048
 1016MOL0     C37030   9.781   1.304   8.506 -0.5462 -0.0888 -0.1974
 1016MOL0     C37031   9.658   1.285   8.558  0.1373 -0.2608 -0.1778
 1016MOL0     C37032   9.568   1.385   8.563  0.3481 -0.4577  0.1515
 1016MOL0     O37033   9.447   1.348   8.616 -0.5574 -0.6845 -0.1885
 1016MOL0     C37034   9.335   1.369   8.531 -0.1440  0.3971  0.1791
 1016MOL0     C37035   9.316   1.228   8.463 -0.6619 -0.0209  0.7269
 1016MOL0     C37036   9.191   1.154   8.497 -0.3510  0.5843 -0.0113
 1016MOL0     C37037   9.067   1.195   8.414 -0.6601  0.2335 -0.6680
 1016MOL0     C37038   8.944   1.101   8.433 -0.4479 -0.3755 -0.3534
 1016MOL0     C37039   8.851   1.123   8.311  0.3947  0.6162 -0.0251
 1016MOL0     C37040   8.712   1.058   8.316  0.4502  0.0654  1.0607
 1016MOL0     C37041   8.613   1.113   8.423  0.2934  0.1757 -0.0604
 1016MOL0     N37042   8.486   1.055   8.397  0.2489 -0.1173  0.2379
 1016MOL0     C37043   8.421   0.953   8.464  0.8545 -0.6659  0.0313
 1016MOL0     C37044   8.294   0.947   8.409  0.9853  0.4424 -0.2722
 1016MOL0     C37045   8.194   0.842   8.426  1.1690 -0.4640 -1.2543
 1016MOL0     C37046   8.047   0.895   8.445  0.6068  0.3825 -0.1844
 1016MOL0     C37047   7.959   0.781   8.489 -0.5827 -0.8672 -0.5212
 1016MOL0     C37048   7.803   0.804   8.463 -0.6281  0.1484  0.2926
 1016MOL0     O37049   7.757   0.926   8.526  0.3584  0.5665 -1.1924
 1016MOL0     C37050   7.641   0.969   8.470  0.8418  0.1463 -1.0802
 1016MOL0     C37051   7.515   0.914   8.509 -0.4149 -0.2575 -0.0520
 1016MOL0     C37052   7.393   0.952   8.443 -0.3976  0.4726 -0.0722
 1016MOL0     C37053   7.267   0.864   8.478 -0.1628  0.9463 -0.1779
 1016MOL0     C37054   7.396   1.069   8.361 -0.4743 -0.1521  0.5692
 1016MOL0     C37055   7.272   1.118   8.284  0.0985  1.3206 -0.5504
 1016MOL0     O37056   7.182   1.028   8.256  0.3933  0.1894 -0.5346
 1016MOL0     C37057   7.075   1.040   8.170  0.5589  0.0668 -0.4570
 1016MOL0     C37058   7.058   1.129   8.070 -0.3433  0.2702 -0.1283
 1016MOL0     C37059   6.949   1.138   7.989  0.4815  0.4639 -0.0312
 1016MOL0     C37060   6.834   1.055   8.009 -0.9090 -0.8253  0.1242
 1016MOL0     O37061   6.719   1.053   7.940  0.3484  0.0308  0.3567
 1016MOL0     C37062   6.697   1.171   7.866  0.6815 -1.0496  1.0333
 1016MOL0     C37063   6.565   1.154   7.792 -0.2908  0.5593 -0.6069
 1016MOL0     C37064   6.543   1.280   7.705 -0.1952 -0.5885 -0.4973
 1016MOL0     C37065   6.394   1.305   7.690 -0.3955 -0.6406  0.0476
 1016MOL0     C37066   6.337   1.210   7.587  0.3784  0.1541 -0.7601
 1016MOL0     C37067   6.206   1.266   7.536  0.1494 -0.5168  0.5344
 1016MOL0     C37068   6.098   1.290   7.640  0.0637 -0.5869  0.0891
 1016MOL0     C37069   5.997   1.392   7.586 -0.0075  0.9669 -0.1722
 1016MOL0    Cl37070   5.893   1.343   7.443 -0.3743  0.3328  0.1238
 1016MOL0     C37071   6.847   0.965   8.116  0.7114 -0.3687 -0.9847
 1016MOL0     C37072   6.963   0.951   8.186  0.1954 -0.0151 -0.3449
 1016MOL0     O37073   7.254   1.234   8.270  0.3717 -0.1587  0.3744
 1016MOL0     C37074   7.522   1.131   8.340  0.1306 -0.0735  0.6434
 1016MOL0     C37075   7.643   1.083   8.389  0.2017 -0.0898 -0.3547
 1016MOL0     N37076   8.288   1.045   8.307 -0.7716  0.2794  0.2016
 1016MOL0     N37077   8.393   1.112   8.320  0.2190 -0.1232  0.2374
 1016MOL0     C37078   9.590   1.520   8.520  0.1006  0.5629  1.2104
 1016MOL0     C37079   9.721   1.542   8.466 -0.7858 -0.0383 -0.1717
 1016MOL0     C37080  10.181   1.491   8.414  0.4057 -0.6352 -0.5550
 1016MOL0     C37081  10.173   1.520   8.281  0.5592 -0.2191 -0.2557
 1016MOL0     C37082  10.278   1.571   8.215 -0.3620  0.3951  0.9749
 1016MOL0     C37083  10.391   1.617   8.282 -0.6132 -0.1898  0.2162
 1016MOL0     O37084  10.505   1.674   8.218 -0.0025  0.4314 -0.4091
 1016MOL0     C37085  10.485   1.726   8.087  0.5345  0.0204 -0.1734
 1016MOL0     C37086  10.596   1.823   8.058 -0.4942  0.1091 -0.1695
 1016MOL0     C37087  10.622   1.926   8.173  0.4801  0.4428  0.4392
 1016MOL0     C37088  10.745   2.011   8.182  0.3583  0.1530  0.7074
 1016MOL0     C37089  10.783   2.070   8.053  0.2169  0.3374 -0.1741
 1016MOL0     C37090  10.817   2.127   7.950 -0.0497 -0.5415  0.0949
 1016MOL0     C37091  10.398   1.595   8.421  1.0375 -0.6973  0.6566
 1016MOL0     C37092  10.296   1.532   8.488 -0.5542  0.0414  0.2744
 1016MOL0     H37093   9.858   1.229   8.521  1.6533  2.0932 -0.0256
 1016MOL0     H37094   9.640   1.191   8.608  1.3777 -0.5033 -0.1673
 1016MOL0     H37095   9.244   1.406   8.578  0.9728  0.8020  2.1298
 1016MOL0     H37096   9.360   1.448   8.459 -1.3908  1.6107  1.0458
 1016MOL0     H37097   9.316   1.253   8.356  1.5821  2.6309  1.2212
 1016MOL0     H37098   9.402   1.163   8.486 -2.0548 -2.1013  0.3241
 1016MOL0     H37099   9.216   1.049   8.478 -0.6145  0.8042 -1.7955
 1016MOL0     H37100   9.178   1.164   8.605 -0.5178  1.3711 -0.0953
 1016MOL0     H37101   9.027   1.291   8.448 -1.9328 -0.4561 -0.1293
 1016MOL0     H37102   9.091   1.194   8.307  2.2039 -0.5081 -0.1137
 1016MOL0     H37103   8.959   0.994   8.450  0.8543 -0.2263 -0.4820
 1016MOL0     H37104   8.891   1.130   8.524  2.0118  0.0734  1.0001
 1016MOL0     H37105   8.842   1.232   8.302  0.8274  0.7452  0.9927
 1016MOL0     H37106   8.890   1.091   8.214 -0.5409  1.0940 -0.5681
 1016MOL0     H37107   8.675   1.058   8.214  2.3613  1.7427  0.2785
 1016MOL0     H37108   8.720   0.952   8.339 -0.2459  0.0888  1.4401
 1016MOL0     H37109   8.607   1.222   8.427 -1.5395  0.0697  1.5648
 1016MOL0     H37110   8.637   1.100   8.529  1.4156 -0.4523 -0.3771
 1016MOL0     H37111   8.463   0.878   8.531  1.0661 -1.3445 -0.8501
 1016MOL0     H37112   8.187   0.779   8.337  0.6735 -0.0950 -1.4826
 1016MOL0     H37113   8.223   0.779   8.511  0.1398 -0.0691 -0.5854
 1016MOL0     H37114   8.002   0.926   8.350 -0.9448  0.9940  0.7137
 1016MOL0     H37115   8.046   0.981   8.512  1.1969 -0.0570  0.3974
 1016MOL0     H37116   7.977   0.780   8.597  0.5164  0.3735 -0.6571
 1016MOL0     H37117   7.999   0.689   8.445  0.1844 -1.3275  1.0588
 1016MOL0     H37118   7.747   0.723   8.510 -1.5742  1.4104  1.3962
 1016MOL0     H37119   7.792   0.798   8.354  3.1154 -1.1992 -0.1690
 1016MOL0     H37120   7.506   0.835   8.583 -1.5213 -0.9941 -0.9296
 1016MOL0     H37121   7.279   0.776   8.415  1.8296  0.8680  0.2501
 1016MOL0     H37122   7.272   0.829   8.582  0.4227 -1.4405 -0.9500
 1016MOL0     H37123   7.170   0.911   8.460 -0.5255 -0.2084 -1.3575
 1016MOL0     H37124   7.138   1.200   8.049  1.3541 -1.6028 -0.3252
 1016MOL0     H37125   6.968   1.205   7.906  3.0180  0.4495  0.4622
 1016MOL0     H37126   6.684   1.259   7.929 -1.8957  0.7296 -1.7313
 1016MOL0     H37127   6.768   1.178   7.783 -0.3664 -5.3768 -0.4990
 1016MOL0     H37128   6.579   1.060   7.738  0.8768 -1.0307  2.2377
 1016MOL0     H37129   6.487   1.134   7.866  0.6598  1.0052  0.5544
 1016MOL0     H37130   6.597   1.270   7.610 -0.1064  0.5778 -0.5901
 1016MOL0     H37131   6.590   1.359   7.763 -0.8906 -2.5065  2.9296
 1016MOL0     H37132   6.336   1.287   7.781 -0.0793  0.6941  0.5284
 1016MOL0     H37133   6.383   1.410   7.662  0.3214 -0.9988 -1.6911
 1016MOL0     H37134   6.324   1.114   7.638 -1.5908  0.4342 -0.6617
 1016MOL0     H37135   6.405   1.206   7.501 -0.2296 -3.0307 -1.2159
 1016MOL0     H37136   6.231   1.358   7.482 -3.2501 -0.6160 -1.5053
 1016MOL0     H37137   6.166   1.202   7.457  0.7748 -0.1173 -0.1197
 1016MOL0     H37138   6.145   1.340   7.725  0.0528  1.1670 -0.8891
 1016MOL0     H37139   6.056   1.196   7.676  1.1048  0.7239  5.6233
 1016MOL0     H37140   6.058   1.480   7.562  1.7683  0.3570  1.8119
 1016MOL0     H37141   5.932   1.411   7.672 -1.8793  0.6580 -1.4750
 1016MOL0     H37142   6.758   0.906   8.134  0.7356 -1.1112 -3.0604
 1016MOL0     H37143   6.982   0.867   8.253 -2.0775 -1.9083 -1.9089
 1016MOL0     H37144   7.536   1.219   8.276 -1.2736  0.0451  0.4657
 1016MOL0     H37145   7.734   1.134   8.362  0.0429  0.4016  0.0268
 1016MOL0     H37146   9.521   1.601   8.538 -1.2685 -0.3243  0.2455
 1016MOL0     H37147   9.750   1.638   8.424 -0.2365  0.1526  0.6217
 1016MOL0     H37148  10.089   1.490   8.218  0.5484 -1.2845  0.2432
 1016MOL0     H37149  10.272   1.572   8.107  1.9359 -2.5480  0.6763
 1016MOL0     H37150  10.480   1.654   8.005 -1.0151 -0.3067  0.1773
 1016MOL0     H37151  10.393   1.784   8.081  1.2961  1.5129  1.5505
 1016MOL0     H37152  10.578   1.876   7.964 -0.9207 -0.4087 -0.3856
 1016MOL0     H37153  10.690   1.767   8.055  1.6614  3.3871  0.9655
 1016MOL0     H37154  10.616   1.866   8.265 -1.6360 -1.3806 -0.8052
 1016MOL0     H37155  10.536   1.992   8.159  0.6132  0.3121 -1.0981
 1016MOL0     H37156  10.825   1.953   8.229 -0.9910 -1.8264  0.6923
 1016MOL0     H37157  10.721   2.097   8.245 -2.0521 -1.3945  2.0201
 1016MOL0     H37158  10.861   2.162   7.859  4.0101 -1.1158  1.6337
 1016MOL0     H37159  10.475   1.641   8.484  0.0892  0.0976  1.2657
 1016MOL0     H37160  10.306   1.519   8.595  0.1359  2.9024  0.6450
 1017MOL0     O37161   4.197   7.794   7.251  0.5867 -0.0350 -0.5653
 1017MOL0     C37162   4.216   7.731   7.148 -0.3980 -0.4340  0.4201
 1017MOL0     O37163   4.117   7.677   7.072  0.4557  0.5856  0.0054
 1017MOL0     C37164   3.988   7.676   7.129  0.0075 -0.0535  0.2948
 1017MOL0     C37165   3.962   7.580   7.227 -0.3837 -1.2132 -0.3713
 1017MOL0     C37166   3.838   7.581   7.292  0.3383  0.7202 -0.1653
 1017MOL0     C37167   3.727   7.666   7.266 -0.6650  0.1024 -0.7564
 1017MOL0     O37168   3.615   7.656   7.345  0.4269 -0.3231 -0.1061
 1017MOL0     C37169   3.516   7.767   7.337 -0.3755  0.7996 -0.4214
 1017MOL0     C37170   3.376   7.721   7.374 -0.8841 -0.1850 -0.8715
 1017MOL0     C37171   3.279   7.838   7.360 -0.7001 -0.7609  0.6539
 1017MOL0     C37172   3.233   7.855   7.216  0.9457  0.4681  0.7636
 1017MOL0     C37173   3.186   8.008   7.196 -0.1325 -0.0668  0.1274
 1017MOL0     C37174   3.120   8.024   7.057  0.5678  0.2418  0.5319
 1017MOL0     C37175   3.097   8.181   7.029 -0.0589  0.1021  0.4726
 1017MOL0     C37176   3.015   8.199   6.905  0.5569 -0.3655  0.1470
 1017MOL0     N37177   2.875   8.138   6.919 -0.3914  0.1663 -0.0895
 1017MOL0     C37178   2.795   8.156   7.023 -0.5232  0.5824 -0.0008
 1017MOL0     C37179   2.674   8.101   6.996  0.8723  0.2272  0.6925
 1017MOL0     C37180   2.555   8.101   7.093  0.2105 -0.3760  0.6851
 1017MOL0     C37181   2.442   8.189   7.040  0.0404  0.9527  0.1682
 1017MOL0     C37182   2.332   8.217   7.144 -0.0493 -0.0699 -0.2286
 1017MOL0     C37183   2.220   8.302   7.087 -0.0469  0.4130 -0.2938
 1017MOL0     O37184   2.119   8.316   7.193  0.0748 -0.0698  0.3011
 1017MOL0     C37185   1.989   8.355   7.160 -0.3601  0.0080 -0.1108
 1017MOL0     C37186   1.962   8.389   7.024 -0.6772  0.0201 -0.2631
 1017MOL0     C37187   1.831   8.440   6.982 -0.9336 -1.0939  0.2723
 1017MOL0     C37188   1.800   8.448   6.832 -0.4113 -0.4151  0.4229
 1017MOL0     C37189   1.737   8.478   7.084 -0.4800 -0.0210 -0.6391
 1017MOL0     C37190   1.605   8.539   7.071 -0.3814 -0.1893 -0.1304
 1017MOL0     O37191   1.503   8.499   7.160  0.0316 -0.9603  0.1466
 1017MOL0     C37192   1.385   8.574   7.177 -0.3295 -1.1815 -0.6161
 1017MOL0     C37193   1.354   8.698   7.131  0.0529  0.5079 -1.1666
 1017MOL0     C37194   1.246   8.766   7.182  0.0824  0.2108  1.0727
 1017MOL0     C37195   1.153   8.716   7.277 -0.4962  0.8948 -0.0287
 1017MOL0     O37196   1.063   8.783   7.337  1.1195  0.0905 -0.5351
 1017MOL0     C37197   0.976   8.855   7.253  0.1983 -0.7269  0.5521
 1017MOL0     C37198   0.876   8.922   7.343  1.0804 -0.5705 -0.6062
 1017MOL0     C37199   0.759   8.993   7.273 -0.7080 -0.1495 -0.3080
 1017MOL0     C37200   0.649   9.031   7.372  0.7123 -0.4621 -0.8953
 1017MOL0     C37201   0.504   9.049   7.306 -0.1333  0.5006  0.1533
 1017MOL0     C37202   0.434   8.919   7.264  0.1719 -0.0862 -0.0198
 1017MOL0     C37203   0.285   8.941   7.230  0.8971 -0.4681  0.0593
 1017MOL0     C37204   0.209   8.809   7.184 -0.2258 -0.3422  0.6476
 1017MOL0    Cl37205   0.025   8.826   7.221  0.0606 -0.3533 -0.5891
 1017MOL0     C37206   1.181   8.577   7.316  0.2352 -0.0631 -0.8234
 1017MOL0     C37207   1.294   8.513   7.267 -0.1400  0.0635  0.0921
 1017MOL0     O37208   1.585   8.608   6.971 -0.2714 -0.1714 -0.0640
 1017MOL0     C37209   1.771   8.438   7.221 -0.6512  0.3241  0.0566
 1017MOL0     C37210   1.893   8.377   7.249 -0.4965 -0.0547  0.7563
 1017MOL0     N37211   2.692   8.037   6.870  0.0381 -0.3739  0.2592
 1017MOL0     N37212   2.814   8.059   6.830 -0.8963 -0.1561  0.6821
 1017MOL0     C37213   3.764   7.774   7.173  0.4193 -1.0639  0.3213
 1017MOL0     C37214   3.885   7.773   7.104 -0.1340 -0.9179 -0.0140
 1017MOL0     C37215   4.358   7.712   7.112  0.4711 -0.3808  0.4297
 1017MOL0     C37216   4.386   7.642   6.997 -0.9891  0.3330  0.6480
 1017MOL0     C37217   4.516   7.627   6.943 -0.8631 -0.2303 -0.9326
 1017MOL0     C37218   4.624   7.679   7.018  0.8197  0.2859 -0.0110
 1017MOL0     O37219   4.745   7.655   6.962 -0.3288  0.6187  0.2833
 1017MOL0     C37220   4.857   7.725   7.015  0.5022  0.2533  0.4570
 1017MOL0     C37221   4.980   7.697   6.927 -0.3573  0.4054  0.4830
 1017MOL0     C37222   5.114   7.749   6.973  0.3136 -0.4122  0.1129
 1017MOL0     C37223   5.159   7.884   6.912 -0.0711 -0.6376  0.6981
 1017MOL0     C37224   5.290   7.921   6.962  0.0604 -0.0573 -1.6303
 1017MOL0     C37225   5.403   7.939   7.009 -0.6527 -0.4944 -0.7439
 1017MOL0     C37226   4.603   7.757   7.136  0.3573 -0.2318  0.7637
 1017MOL0     C37227   4.466   7.760   7.187  0.4540 -1.3043 -0.7090
 1017MOL0     H37228   4.041   7.508   7.246  2.2275  1.1162 -1.7167
 1017MOL0     H37229   3.806   7.504   7.360 -0.8785 -0.4126 -1.9259
 1017MOL0     H37230   3.549   7.849   7.402  0.5279  1.3966 -1.5953
 1017MOL0     H37231   3.505   7.795   7.232  0.9979 -4.2007 -2.1641
 1017MOL0     H37232   3.344   7.640   7.309  0.8344 -1.9738  0.4020
 1017MOL0     H37233   3.374   7.678   7.475 -0.4109  1.0367 -0.3226
 1017MOL0     H37234   3.189   7.819   7.420 -2.1742  3.0254 -0.0963
 1017MOL0     H37235   3.320   7.929   7.405 -0.7985 -0.8017  0.8297
 1017MOL0     H37236   3.311   7.838   7.141  0.0335 -2.2103  0.3245
 1017MOL0     H37237   3.150   7.789   7.192  1.9575 -0.2793 -0.8592
 1017MOL0     H37238   3.116   8.033   7.276  0.5587  0.9868  0.4301
 1017MOL0     H37239   3.265   8.085   7.194 -0.4265  0.2421 -2.1135
 1017MOL0     H37240   3.169   7.977   6.972 -0.0375  1.0001 -0.2567
 1017MOL0     H37241   3.021   7.979   7.068  1.3874 -1.4614  1.1679
 1017MOL0     H37242   3.049   8.233   7.113 -1.4576 -1.4564  0.6957
 1017MOL0     H37243   3.194   8.222   7.001  0.5330 -2.2442 -1.2018
 1017MOL0     H37244   3.069   8.161   6.817 -0.4885 -0.3384 -0.5138
 1017MOL0     H37245   3.009   8.307   6.894  1.0368 -0.5119 -2.3176
 1017MOL0     H37246   2.825   8.210   7.112  1.7208 -0.9301  0.2325
 1017MOL0     H37247   2.522   7.998   7.113 -2.2720  0.3817  0.7781
 1017MOL0     H37248   2.583   8.148   7.187  0.6680  1.9823 -0.5374
 1017MOL0     H37249   2.388   8.150   6.952 -1.7467  1.2957  1.0567
 1017MOL0     H37250   2.486   8.287   7.020  1.7550  0.5803  1.8741
 1017MOL0     H37251   2.375   8.263   7.234  1.5042 -1.3256 -0.2991
 1017MOL0     H37252   2.295   8.116   7.163 -0.1352 -0.9038 -4.1636
 1017MOL0     H37253   2.177   8.242   7.007 -1.1766 -0.0534  0.6464
 1017MOL0     H37254   2.255   8.402   7.058  1.9849 -0.1440  0.0369
 1017MOL0     H37255   2.033   8.367   6.944  1.8245 -0.5139  1.9776
 1017MOL0     H37256   1.755   8.542   6.800  1.2092  0.4026  0.4515
 1017MOL0     H37257   1.896   8.441   6.780  1.0468  1.3135  2.6957
 1017MOL0     H37258   1.733   8.368   6.800  0.3315 -0.9259  0.1135
 1017MOL0     H37259   1.429   8.752   7.075  0.2761  3.6954  1.8520
 1017MOL0     H37260   1.234   8.869   7.151  2.6807 -0.1723 -1.6362
 1017MOL0     H37261   1.034   8.924   7.190  0.5241 -0.2836  1.3279
 1017MOL0     H37262   0.921   8.785   7.189 -0.3382  0.9012 -0.8658
 1017MOL0     H37263   0.841   8.853   7.420 -1.1729 -0.3616 -1.3569
 1017MOL0     H37264   0.927   8.996   7.405  1.3204 -1.2496  0.0100
 1017MOL0     H37265   0.720   8.933   7.190  0.9751 -1.0919 -0.4644
 1017MOL0     H37266   0.803   9.082   7.225  1.0167 -0.6044  0.3440
 1017MOL0     H37267   0.650   8.969   7.462  1.0160  2.6469  1.4001
 1017MOL0     H37268   0.663   9.130   7.417 -3.0595 -0.0672 -0.2105
 1017MOL0     H37269   0.509   9.117   7.220  2.2035  0.9064  0.5522
 1017MOL0     H37270   0.448   9.106   7.381 -0.2516  0.4757  0.0844
 1017MOL0     H37271   0.488   8.878   7.177 -0.9474 -0.5958 -0.5010
 1017MOL0     H37272   0.444   8.851   7.349 -0.5048  1.2129  1.1396
 1017MOL0     H37273   0.273   9.018   7.153 -2.3555 -2.2042 -1.3814
 1017MOL0     H37274   0.227   8.981   7.314 -1.7744 -1.6410 -1.1129
 1017MOL0     H37275   0.242   8.718   7.235 -0.6454  1.6473  4.9440
 1017MOL0     H37276   0.234   8.795   7.078  2.2439  1.8796  0.8494
 1017MOL0     H37277   1.121   8.532   7.395  1.3946 -1.6962 -0.8363
 1017MOL0     H37278   1.311   8.420   7.321 -4.0637 -0.1770  1.2698
 1017MOL0     H37279   1.700   8.449   7.302 -1.8227 -1.1556 -0.7166
 1017MOL0     H37280   1.915   8.343   7.350 -0.4550  0.7083  1.0118
 1017MOL0     H37281   3.699   7.859   7.156  1.6556  0.2937  2.0153
 1017MOL0     H37282   3.910   7.854   7.036 -1.3177  1.8676  2.6514
 1017MOL0     H37283   4.296   7.604   6.949  0.5314  0.7379 -2.8577
 1017MOL0     H37284   4.539   7.592   6.843 -0.0451 -0.7082 -0.5882
 1017MOL0     H37285   4.832   7.832   7.024 -2.5254 -0.5543  5.2199
 1017MOL0     H37286   4.873   7.682   7.114 -0.6662 -0.3851  0.3910
 1017MOL0     H37287   4.957   7.733   6.826 -0.2125 -0.3793  0.1592
 1017MOL0     H37288   4.988   7.588   6.926 -0.6695  0.2736 -3.2169
 1017MOL0     H37289   5.182   7.665   6.954  0.0015 -0.7060  0.2949
 1017MOL0     H37290   5.115   7.756   7.082  0.4241 -0.0610  0.0907
 1017MOL0     H37291   5.093   7.965   6.944  1.5863  0.3127  1.8055
 1017MOL0     H37292   5.174   7.878   6.804  2.1772 -1.2178  0.9931
 1017MOL0     H37293   5.502   7.945   7.050 -0.8049 -0.8051 -0.3133
 1017MOL0     H37294   4.681   7.811   7.189  0.2142 -0.9114  1.6804
 1017MOL0     H37295   4.434   7.803   7.281  0.9231 -3.5942  0.5550
 1018MOL0     O37296   5.043   2.295   4.433 -0.5873  0.1264  0.2261
 1018MOL0     C37297   5.128   2.339   4.507  0.0154 -1.1640 -0.4704
 1018MOL0     O37298   5.111   2.380   4.640 -0.7512  0.1845 -0.0722
 1018MOL0     C37299   4.984   2.371   4.689 -0.5763 -0.1278  0.1928
 1018MOL0     C37300   4.913   2.256   4.735  0.1930 -0.0769  1.4310
 1018MOL0     C37301   4.779   2.268   4.784  0.6632  0.2889  0.2800
 1018MOL0     C37302   4.722   2.392   4.799  0.2067  0.1315 -0.3186
 1018MOL0     O37303   4.590   2.386   4.848 -0.2085 -0.1818 -0.2157
 1018MOL0     C37304   4.511   2.508   4.823 -0.0962 -0.3744  0.6515
 1018MOL0     C37305   4.373   2.513   4.897 -0.3727  0.3133 -0.1033
 1018MOL0     C37306   4.395   2.523   5.047 -0.3609 -0.2414  0.1482
 1018MOL0     C37307   4.273   2.571   5.124  0.2362 -0.5567  0.1633
 1018MOL0     C37308   4.266   2.726   5.151 -0.4284  0.0828  0.0395
 1018MOL0     C37309   4.151   2.752   5.257  0.1359  0.2797 -1.3243
 1018MOL0     C37310   4.103   2.894   5.261  0.3032 -0.2302  0.4778
 1018MOL0     C37311   4.009   2.932   5.144 -0.0257 -0.2445  0.3759
 1018MOL0     N37312   3.991   3.086   5.137  0.4049 -0.6938 -0.3048
 1018MOL0     C37313   4.087   3.182   5.096 -0.1470  0.4530  0.1510
 1018MOL0     C37314   4.014   3.289   5.062  0.1013  0.0395 -0.3648
 1018MOL0     C37315   4.091   3.407   5.023 -0.9123 -0.5626 -0.7282
 1018MOL0     C37316   4.139   3.481   5.151  0.3028 -0.3531 -0.0122
 1018MOL0     C37317   4.228   3.599   5.119 -0.5214  0.2082 -0.2716
 1018MOL0     C37318   4.154   3.721   5.050  0.6675 -0.1192 -0.0682
 1018MOL0     O37319   4.234   3.754   4.933  0.2164 -0.5346 -0.4748
 1018MOL0     C37320   4.349   3.825   4.945 -0.6645 -0.0310  0.2322
 1018MOL0     C37321   4.396   3.892   5.060 -0.1711  0.3103  0.3142
 1018MOL0     C37322   4.527   3.951   5.055  0.3625 -0.7365 -0.2711
 1018MOL0     C37323   4.574   4.019   5.182  0.4172 -0.4016  0.2092
 1018MOL0     C37324   4.606   3.960   4.938  0.0398 -0.8630  0.8593
 1018MOL0     C37325   4.750   4.011   4.921 -0.0953 -0.4601  0.8994
 1018MOL0     O37326   4.809   4.028   4.794  0.8707  0.3587  0.6583
 1018MOL0     C37327   4.940   4.063   4.800  0.6371  0.0206  0.5284
 1018MOL0     C37328   4.956   4.186   4.743 -0.2334  0.6391  0.4352
 1018MOL0     C37329   5.092   4.233   4.728  0.7101 -0.4426  0.1380
 1018MOL0     C37330   5.202   4.153   4.763 -0.1765 -0.0736  0.7551
 1018MOL0     O37331   5.337   4.184   4.764  0.1411  0.9698  0.2543
 1018MOL0     C37332   5.380   4.320   4.747 -0.3880  0.4519  0.3781
 1018MOL0     C37333   5.526   4.308   4.727  0.1094 -0.3093 -0.1425
 1018MOL0     C37334   5.563   4.208   4.608  0.0422  0.6928 -0.6026
 1018MOL0     C37335   5.711   4.213   4.576  0.3429 -0.8945  0.1591
 1018MOL0     C37336   5.794   4.174   4.697  0.6942  0.0327  0.1832
 1018MOL0     C37337   5.938   4.144   4.662  0.6076 -0.4109 -0.7522
 1018MOL0     C37338   6.028   4.129   4.779 -0.0824  0.4847  0.5544
 1018MOL0     C37339   6.146   4.034   4.750  0.7141 -0.0547  0.8879
 1018MOL0    Cl37340   6.259   4.091   4.637  0.3104 -0.1670 -0.1467
 1018MOL0     C37341   5.175   4.023   4.811  0.0790  0.0547  0.8878
 1018MOL0     C37342   5.044   3.976   4.832 -0.6456 -0.9099  0.7459
 1018MOL0     O37343   4.810   4.022   5.024 -0.0114 -0.5549 -0.1206
 1018MOL0     C37344   4.550   3.909   4.825 -0.2879 -0.2317 -0.0020
 1018MOL0     C37345   4.433   3.835   4.834 -0.3524  0.6764 -0.1597
 1018MOL0     N37346   3.878   3.269   5.089 -0.4006 -0.7185  0.4258
 1018MOL0     N37347   3.868   3.147   5.131 -0.1921 -0.1801  0.1400
 1018MOL0     C37348   4.796   2.505   4.772 -0.5030  0.4727 -0.3104
 1018MOL0     C37349   4.926   2.487   4.722 -0.7861 -0.4759 -0.6531
 1018MOL0     C37350   5.266   2.361   4.450  0.4769 -0.2605  0.8087
 1018MOL0     C37351   5.364   2.430   4.527  0.0795  0.0558 -0.0568
 1018MOL0     C37352   5.496   2.442   4.461  0.1261 -0.5536  0.3290
 1018MOL0     C37353   5.516   2.408   4.323  0.2018 -0.0602  0.1264
 1018MOL0     O37354   5.635   2.427   4.251 -0.0853 -0.0622 -0.2690
 1018MOL0     C37355   5.737   2.510   4.309 -0.7455  0.0064  0.2452
 1018MOL0     C37356   5.826   2.433   4.408 -1.5075  0.6747 -0.1063
 1018MOL0     C37357   5.979   2.474   4.399  0.6100  0.6643 -0.1428
 1018MOL0     C37358   6.061   2.416   4.511  0.7072  0.3054 -0.4280
 1018MOL0     C37359   6.206   2.435   4.486 -0.3399 -0.2936 -0.3557
 1018MOL0     C37360   6.323   2.448   4.456 -0.5151 -0.5318  0.5340
 1018MOL0     C37361   5.408   2.355   4.250 -0.4169 -0.0921  0.2603
 1018MOL0     C37362   5.288   2.321   4.312 -0.1026  0.7825 -0.0681
 1018MOL0     H37363   4.948   2.154   4.721  2.4696  0.7554  0.5823
 1018MOL0     H37364   4.718   2.184   4.817 -2.6126  2.3841  0.0378
 1018MOL0     H37365   4.581   2.588   4.852  3.1016 -2.0345 -1.8665
 1018MOL0     H37366   4.483   2.510   4.718 -2.1233 -0.5779  1.1390
 1018MOL0     H37367   4.314   2.599   4.865 -4.7804 -1.9006  1.3428
 1018MOL0     H37368   4.308   2.428   4.873 -0.3503 -0.9215  3.5748
 1018MOL0     H37369   4.428   2.422   5.074  1.5845  0.0106 -1.0720
 1018MOL0     H37370   4.473   2.596   5.071  1.3530 -0.9518 -2.7905
 1018MOL0     H37371   4.181   2.531   5.079 -0.4926  1.0174  0.1950
 1018MOL0     H37372   4.280   2.527   5.224  2.8813 -1.7834 -0.4745
 1018MOL0     H37373   4.359   2.761   5.198  0.5805 -2.6982  0.2971
 1018MOL0     H37374   4.253   2.783   5.059  2.8733 -2.1895 -2.0618
 1018MOL0     H37375   4.072   2.683   5.228  0.3628  0.2906 -1.9886
 1018MOL0     H37376   4.184   2.715   5.355  3.0452 -3.2715 -3.3933
 1018MOL0     H37377   4.032   2.917   5.342  0.0613 -1.1257  0.5304
 1018MOL0     H37378   4.192   2.958   5.257  0.7803 -0.9709 -2.3186
 1018MOL0     H37379   3.909   2.893   5.165 -0.0112  0.4017  1.8192
 1018MOL0     H37380   4.054   2.899   5.050  1.0396  0.5711  0.5911
 1018MOL0     H37381   4.191   3.160   5.077  0.0356  0.2609  1.2976
 1018MOL0     H37382   4.183   3.379   4.971  0.3854  0.7712  0.7149
 1018MOL0     H37383   4.038   3.476   4.957 -0.9354 -0.1541 -0.2918
 1018MOL0     H37384   4.204   3.412   5.204 -1.0194 -0.7306  1.1721
 1018MOL0     H37385   4.058   3.518   5.215  0.1244  1.7468 -1.3664
 1018MOL0     H37386   4.308   3.568   5.051  0.9686  0.5005  1.2843
 1018MOL0     H37387   4.276   3.640   5.208  1.4617 -0.7435 -0.8307
 1018MOL0     H37388   4.138   3.809   5.112  1.3648 -0.4032  0.5274
 1018MOL0     H37389   4.053   3.692   5.020  0.2664  1.0904  0.0372
 1018MOL0     H37390   4.340   3.906   5.152 -0.4763 -0.0475  0.1834
 1018MOL0     H37391   4.605   4.121   5.159  2.6170 -0.6723  1.6578
 1018MOL0     H37392   4.490   4.023   5.251  0.2557 -1.1025  0.0598
 1018MOL0     H37393   4.651   3.961   5.234  3.0678  1.2586 -1.6148
 1018MOL0     H37394   4.872   4.249   4.719 -1.9497 -1.0660  1.6889
 1018MOL0     H37395   5.101   4.330   4.681 -2.7515 -0.5564 -1.0381
 1018MOL0     H37396   5.345   4.346   4.646  1.3880 -1.4726 -0.8314
 1018MOL0     H37397   5.339   4.390   4.820 -1.5311 -1.0484  1.2256
 1018MOL0     H37398   5.578   4.401   4.706  2.1197 -1.3351  0.0707
 1018MOL0     H37399   5.574   4.271   4.818  1.8193 -0.2981 -1.0167
 1018MOL0     H37400   5.510   4.243   4.520  0.8323  0.8322 -1.0315
 1018MOL0     H37401   5.543   4.104   4.634  3.4720 -0.0329 -0.3801
 1018MOL0     H37402   5.737   4.148   4.493 -0.9371 -0.8110 -0.3294
 1018MOL0     H37403   5.740   4.306   4.527  1.9364 -2.6033 -2.3584
 1018MOL0     H37404   5.755   4.080   4.738  0.9779 -0.5680 -0.8942
 1018MOL0     H37405   5.800   4.256   4.769 -1.8940  1.1668 -0.7853
 1018MOL0     H37406   5.947   4.052   4.604  4.1628 -0.0973 -0.9242
 1018MOL0     H37407   5.975   4.224   4.596 -1.6651  0.7745 -0.6970
 1018MOL0     H37408   5.974   4.078   4.859  1.9396 -2.5529  0.1731
 1018MOL0     H37409   6.064   4.224   4.818 -1.1184  1.8522 -1.5963
 1018MOL0     H37410   6.102   3.936   4.728 -0.8399 -0.0684  3.5154
 1018MOL0     H37411   6.195   4.023   4.848 -1.8084 -1.1077  2.1376
 1018MOL0     H37412   5.264   3.968   4.839 -0.4256 -0.9080  0.6445
 1018MOL0     H37413   5.023   3.878   4.873  1.8309 -1.6866  0.3465
 1018MOL0     H37414   4.601   3.912   4.729 -1.3610  2.5499 -0.5881
 1018MOL0     H37415   4.413   3.777   4.744 -0.8790  1.1243 -0.3348
 1018MOL0     H37416   4.770   2.608   4.793  0.9102  1.1637 -1.7811
 1018MOL0     H37417   4.977   2.579   4.698  0.1021 -0.1767  2.0470
 1018MOL0     H37418   5.345   2.463   4.628  2.3870 -1.1854  0.8596
 1018MOL0     H37419   5.581   2.483   4.516 -0.8190 -2.0621  3.1351
 1018MOL0     H37420   5.802   2.548   4.228 -1.1328 -0.3021 -0.2143
 1018MOL0     H37421   5.697   2.597   4.363 -0.1004  1.7318 -1.8710
 1018MOL0     H37422   5.812   2.324   4.410 -0.5987  0.5602  0.6311
 1018MOL0     H37423   5.792   2.447   4.511  1.4558 -1.2469  1.2647
 1018MOL0     H37424   5.988   2.581   4.418 -3.0078  0.7995  1.6863
 1018MOL0     H37425   6.006   2.450   4.296 -1.2965  1.0007 -0.7715
 1018MOL0     H37426   6.034   2.310   4.514  1.0462  0.2373  0.9511
 1018MOL0     H37427   6.039   2.452   4.612 -0.2544 -3.9880  1.1086
 1018MOL0     H37428   6.426   2.458   4.426 -0.6479 -4.8433 -2.1636
 1018MOL0     H37429   5.425   2.327   4.147 -1.4455 -0.4609  0.1804
 1018MOL0     H37430   5.205   2.286   4.251 -1.4059  2.6159  0.5285
 1019MOL0     O37431   2.425   2.151   5.979 -0.0606 -0.1886 -0.5541
 1019MOL0     C37432   2.390   2.188   5.864 -0.5853 -0.0023 -0.6101
 1019MOL0     O37433   2.262   2.172   5.809  0.8613 -0.3700 -0.9612
 1019MOL0     C37434   2.162   2.142   5.898  0.0571 -0.1173 -0.0421
 1019MOL0     C37435   2.082   2.247   5.937  0.7953 -0.1577  0.3668
 1019MOL0     C37436   1.976   2.219   6.022 -0.8689  0.1584 -0.8818
 1019MOL0     C37437   1.934   2.091   6.036  0.2414  0.9873  0.0552
 1019MOL0     O37438   1.808   2.078   6.091 -0.4266 -0.0228 -0.0168
 1019MOL0     C37439   1.741   1.953   6.101 -0.0509  0.0691  0.3550
 1019MOL0     C37440   1.598   1.970   6.162  0.1177  0.3077 -0.0549
 1019MOL0     C37441   1.499   1.852   6.158  0.0320 -0.1001  0.3411
 1019MOL0     C37442   1.385   1.865   6.262 -0.6500 -0.0080 -0.3291
 1019MOL0     C37443   1.271   1.782   6.225 -0.6403  0.4254 -0.1585
 1019MOL0     C37444   1.152   1.807   6.321 -0.3692 -0.3466 -0.3828
 1019MOL0     C37445   1.037   1.711   6.295  0.8900 -0.0292 -0.1772
 1019MOL0     C37446   0.929   1.723   6.407 -0.6088  0.5630  0.6267
 1019MOL0     N37447   0.824   1.628   6.363  0.0044 -0.2737  0.1675
 1019MOL0     C37448   0.826   1.501   6.404 -0.5908  0.1525 -0.9471
 1019MOL0     C37449   0.714   1.438   6.364 -0.8910 -0.9941  0.8893
 1019MOL0     C37450   0.695   1.284   6.361  0.4370  0.5675 -0.8302
 1019MOL0     C37451   0.656   1.217   6.494 -0.1883 -0.3086  0.1595
 1019MOL0     C37452   0.750   1.215   6.608 -0.8387 -0.7651  1.1569
 1019MOL0     C37453   0.883   1.141   6.602 -0.2851  0.8001 -0.1091
 1019MOL0     O37454   0.976   1.210   6.513 -0.1623  0.5730 -0.0775
 1019MOL0     C37455   1.098   1.159   6.487 -0.5091 -0.4474 -0.2616
 1019MOL0     C37456   1.142   1.032   6.517  0.1642  0.0296 -0.0474
 1019MOL0     C37457   1.278   0.980   6.500 -0.4085  0.7192  0.2658
 1019MOL0     C37458   1.301   0.832   6.538  0.4106  0.5749 -0.4313
 1019MOL0     C37459   1.371   1.065   6.432 -0.9198 -0.1203 -0.4523
 1019MOL0     C37460   1.515   1.031   6.398 -0.4144 -0.2230 -0.1344
 1019MOL0     O37461   1.577   1.110   6.308 -0.0557 -0.9688  0.9128
 1019MOL0     C37462   1.682   1.068   6.234 -0.1616 -0.2817 -0.9257
 1019MOL0     C37463   1.707   0.940   6.177 -0.6107 -0.1470 -0.4465
 1019MOL0     C37464   1.825   0.911   6.107  0.1089  0.6497 -0.0975
 1019MOL0     C37465   1.929   1.002   6.093 -0.5272  0.1303 -0.0292
 1019MOL0     O37466   2.039   0.950   6.026 -0.1584 -0.2664  0.5361
 1019MOL0     C37467   2.158   1.031   6.050 -0.2605  0.3399  1.0481
 1019MOL0     C37468   2.209   1.101   5.922  0.2039  0.6572 -0.0295
 1019MOL0     C37469   2.327   1.195   5.945  0.3203 -1.2044 -0.4471
 1019MOL0     C37470   2.414   1.199   5.820  0.0457  0.2216 -0.2740
 1019MOL0     C37471   2.542   1.256   5.863 -0.1855  0.4356  0.1900
 1019MOL0     C37472   2.645   1.251   5.746 -0.3399  0.1390 -1.6139
 1019MOL0     C37473   2.782   1.309   5.804 -0.6496  0.6490  0.4975
 1019MOL0     C37474   2.889   1.317   5.687 -0.6565  0.1660 -0.7700
 1019MOL0    Cl37475   2.870   1.464   5.583 -0.0532 -0.0998  0.4069
 1019MOL0     C37476   1.909   1.134   6.149 -0.0573 -0.2126 -0.2527
 1019MOL0     C37477   1.788   1.165   6.218 -0.2589 -0.1506  0.2139
 1019MOL0     O37478   1.563   0.930   6.443  0.1130  0.5065 -0.1008
 1019MOL0     C37479   1.321   1.185   6.379  0.1483  0.2296  0.5711
 1019MOL0     C37480   1.186   1.226   6.406 -0.0506  0.0401 -0.0264
 1019MOL0     N37481   0.644   1.537   6.291 -0.2476 -0.5846  0.0481
 1019MOL0     N37482   0.716   1.652   6.291  0.3823 -0.7509 -0.2028
 1019MOL0     C37483   2.013   1.987   5.982 -0.2931 -0.4800  0.0020
 1019MOL0     C37484   2.131   2.009   5.911  0.3107 -0.3163 -1.8775
 1019MOL0     C37485   2.496   2.250   5.784  1.1471 -0.0235  0.1029
 1019MOL0     C37486   2.466   2.356   5.693 -0.4609  0.3480 -0.0707
 1019MOL0     C37487   2.568   2.423   5.622 -0.1452  0.2909  0.0193
 1019MOL0     C37488   2.704   2.378   5.638  0.1620  0.6410  0.4875
 1019MOL0     O37489   2.815   2.434   5.580 -0.1594 -0.3265 -0.2456
 1019MOL0     C37490   2.820   2.565   5.520  0.0464  0.0605 -0.3244
 1019MOL0     C37491   2.964   2.566   5.466  0.1414  0.2245  0.6666
 1019MOL0     C37492   3.002   2.701   5.411  0.0707  0.2240  0.1107
 1019MOL0     C37493   3.142   2.708   5.352 -0.4597  1.4526 -0.3674
 1019MOL0     C37494   3.245   2.674   5.451 -0.3650  0.1606  0.1397
 1019MOL0     C37495   3.327   2.622   5.524  0.3490 -0.1285 -0.1625
 1019MOL0     C37496   2.732   2.266   5.716  0.1003  0.0134  0.2635
 1019MOL0     C37497   2.627   2.209   5.791 -0.9986  0.3496  0.4900
 1019MOL0     H37498   2.100   2.353   5.920 -0.8940 -0.3754 -3.9117
 1019MOL0     H37499   1.917   2.301   6.063 -0.1990 -0.4051  1.3605
 1019MOL0     H37500   1.741   1.904   6.004  0.8697 -2.2562  1.4457
 1019MOL0     H37501   1.796   1.892   6.174 -2.5120  0.0725  2.3487
 1019MOL0     H37502   1.624   2.006   6.262  1.6172 -0.4879 -0.1297
 1019MOL0     H37503   1.558   2.053   6.103 -2.0880 -1.3861 -1.1052
 1019MOL0     H37504   1.456   1.857   6.058  0.6244 -0.7851  0.0418
 1019MOL0     H37505   1.548   1.754   6.160  0.4023  0.0605 -0.5069
 1019MOL0     H37506   1.411   1.831   6.363  5.7463 -1.8535 -2.1498
 1019MOL0     H37507   1.360   1.972   6.261  0.9064  0.3756 -1.0992
 1019MOL0     H37508   1.243   1.790   6.119 -2.8934 -1.0619  0.2438
 1019MOL0     H37509   1.303   1.677   6.232 -0.5000  0.5793  2.0251
 1019MOL0     H37510   1.182   1.795   6.426 -3.1723  0.9612  0.6727
 1019MOL0     H37511   1.116   1.909   6.304 -1.1285 -0.7001 -0.9713
 1019MOL0     H37512   0.994   1.731   6.197  3.1045 -0.7334 -1.3766
 1019MOL0     H37513   1.066   1.605   6.286 -0.9173 -0.8033  2.1472
 1019MOL0     H37514   0.891   1.825   6.419 -0.7311  0.7286 -0.9936
 1019MOL0     H37515   0.967   1.684   6.502  3.4788 -0.6467 -1.2914
 1019MOL0     H37516   0.901   1.444   6.458 -0.8380  0.6551 -0.0622
 1019MOL0     H37517   0.619   1.256   6.288 -0.7582  0.1767  0.5237
 1019MOL0     H37518   0.792   1.241   6.331  0.2626 -0.4141 -0.0590
 1019MOL0     H37519   0.639   1.112   6.470 -0.2365 -0.3093  0.1975
 1019MOL0     H37520   0.561   1.263   6.521  1.0354  3.3951 -1.2572
 1019MOL0     H37521   0.697   1.182   6.698 -1.2455  0.7185  1.4895
 1019MOL0     H37522   0.780   1.317   6.633 -0.0439 -0.9752  1.0958
 1019MOL0     H37523   0.867   1.044   6.554 -1.3190  1.3370 -0.8914
 1019MOL0     H37524   0.927   1.125   6.701  0.8890 -1.6762 -0.9379
 1019MOL0     H37525   1.072   0.963   6.562 -2.6407  1.7093 -1.5489
 1019MOL0     H37526   1.226   0.759   6.506 -0.2526  0.7692  0.6446
 1019MOL0     H37527   1.393   0.786   6.502 -1.4592 -1.9203 -2.3348
 1019MOL0     H37528   1.302   0.829   6.647 -2.9473 -0.6993 -0.3253
 1019MOL0     H37529   1.634   0.859   6.177 -0.7344 -0.1340 -3.0764
 1019MOL0     H37530   1.829   0.817   6.053 -0.7091  0.2849  0.4473
 1019MOL0     H37531   2.167   1.104   6.131  0.2076  3.0842 -1.2846
 1019MOL0     H37532   2.236   0.968   6.093  1.9056  1.8277 -0.4592
 1019MOL0     H37533   2.235   1.024   5.849  0.0872  1.5591 -1.0518
 1019MOL0     H37534   2.122   1.155   5.884 -0.9548 -0.4752  0.9273
 1019MOL0     H37535   2.386   1.156   6.028 -1.8886 -0.8008  1.4068
 1019MOL0     H37536   2.301   1.296   5.980  0.6662 -1.7994  1.6470
 1019MOL0     H37537   2.452   1.099   5.798  1.1408  0.5163  0.2181
 1019MOL0     H37538   2.370   1.247   5.731 -0.0221  1.0726  0.2029
 1019MOL0     H37539   2.596   1.202   5.942 -0.4111 -3.2491 -1.9607
 1019MOL0     H37540   2.522   1.360   5.891  0.0133  0.3939  0.5046
 1019MOL0     H37541   2.668   1.148   5.717  2.9684 -0.2101  1.5395
 1019MOL0     H37542   2.619   1.316   5.662  0.7998  1.8705 -0.6978
 1019MOL0     H37543   2.825   1.243   5.879  0.1587 -1.0861 -1.3780
 1019MOL0     H37544   2.769   1.408   5.847  0.3695  1.3500 -0.7377
 1019MOL0     H37545   2.884   1.224   5.630 -1.9436  0.4509 -1.1418
 1019MOL0     H37546   2.990   1.315   5.730 -1.0740  3.1435  0.6142
 1019MOL0     H37547   1.986   1.211   6.150 -0.2282  0.1022 -3.1038
 1019MOL0     H37548   1.767   1.268   6.246  1.1598  0.2371 -0.0519
 1019MOL0     H37549   1.373   1.253   6.313 -0.9065  0.4674 -0.0354
 1019MOL0     H37550   1.166   1.327   6.372  1.2518  0.6528  0.9626
 1019MOL0     H37551   1.991   1.882   5.996 -0.2908 -0.6995 -1.4650
 1019MOL0     H37552   2.204   1.931   5.891  2.8982  1.6927 -0.8028
 1019MOL0     H37553   2.363   2.380   5.668 -0.8234  2.5578  2.9804
 1019MOL0     H37554   2.541   2.506   5.557 -0.1690 -0.3775 -0.8339
 1019MOL0     H37555   2.746   2.582   5.442 -2.6124 -0.6318  1.9044
 1019MOL0     H37556   2.794   2.637   5.598 -0.9253  0.6962 -1.2182
 1019MOL0     H37557   2.975   2.492   5.386 -0.6815  0.3880  0.3991
 1019MOL0     H37558   3.039   2.538   5.541  0.4308 -0.0701  0.2732
 1019MOL0     H37559   2.997   2.769   5.497 -2.5751 -0.5749  0.7020
 1019MOL0     H37560   2.938   2.728   5.326 -1.5049 -0.1017  1.1463
 1019MOL0     H37561   3.163   2.813   5.330  0.4486  0.9057 -2.2526
 1019MOL0     H37562   3.156   2.636   5.271 -0.5514  0.4594  0.4750
 1019MOL0     H37563   3.384   2.576   5.602  1.6226  0.4982 -0.6924
 1019MOL0     H37564   2.834   2.230   5.721  0.8228  1.4269 -2.4279
 1019MOL0     H37565   2.669   2.125   5.847  2.0084 -1.1588 -3.5473
 1020MOL0     O37566  11.112   8.586   0.402 -0.1282 -0.3461 -1.3464
 1020MOL0     C37567  11.150   8.691   0.457  0.4917 -0.2194  0.7363
 1020MOL0     O37568  11.075   8.781   0.527  0.2637  0.1404  0.8378
 1020MOL0     C37569  10.938   8.782   0.517 -0.1231 -0.3320  0.0501
 1020MOL0     C37570  10.870   8.857   0.416 -0.2740  0.4114 -0.0356
 1020MOL0     C37571  10.727   8.854   0.412  0.2249 -0.4239 -0.1247
 1020MOL0     C37572  10.656   8.782   0.512  0.1860  0.2885  1.0308
 1020MOL0     O37573  10.516   8.779   0.526  0.4991 -0.5114 -0.6293
 1020MOL0     C37574  10.446   8.807   0.399  0.3005 -0.1707  0.0877
 1020MOL0     C37575  10.288   8.804   0.417 -0.4000  0.1252  0.2298
 1020MOL0     C37576  10.240   8.902   0.526 -0.0595  0.0014 -0.4811
 1020MOL0     C37577  10.089   8.928   0.515  0.0468 -0.2390  0.5173
 1020MOL0     C37578  10.029   9.021   0.613 -0.1688 -0.0405 -0.9545
 1020MOL0     C37579   9.874   9.016   0.608  0.1011 -0.7801  0.5811
 1020MOL0     C37580   9.817   9.123   0.705  0.5610 -0.8218 -0.1456
 1020MOL0     C37581   9.871   9.114   0.851 -0.6961 -0.2590  0.2994
 1020MOL0     N37582   9.862   8.983   0.914 -1.4178 -0.1883 -0.2704
 1020MOL0     C37583   9.749   8.904   0.907 -0.0402 -0.4482  0.4043
 1020MOL0     C37584   9.776   8.792   0.973  0.4805  0.1358  0.2916
 1020MOL0     C37585   9.681   8.673   0.976  0.3628 -0.6567 -0.7610
 1020MOL0     C37586   9.583   8.683   1.098 -0.4319 -0.1214 -0.7362
 1020MOL0     C37587   9.466   8.581   1.096 -0.1721  0.7505 -0.7693
 1020MOL0     C37588   9.360   8.620   0.988 -0.9213  1.0133  1.1596
 1020MOL0     O37589   9.253   8.694   1.048  0.9205  0.1184 -0.1460
 1020MOL0     C37590   9.148   8.623   1.084 -0.5933  0.8245 -1.3906
 1020MOL0     C37591   9.131   8.614   1.225  0.2634 -0.7122  0.0290
 1020MOL0     C37592   9.033   8.538   1.284 -0.0446  0.3470 -0.4439
 1020MOL0     C37593   9.041   8.516   1.432 -0.4662  1.0012  0.2785
 1020MOL0     C37594   8.941   8.476   1.198 -0.5227  0.8894 -0.1051
 1020MOL0     C37595   8.824   8.403   1.249 -0.2864  0.9593 -0.3863
 1020MOL0     O37596   8.784   8.430   1.373 -0.0860 -0.0805  0.1699
 1020MOL0     C37597   8.662   8.410   1.421  0.4686  0.0985  1.0280
 1020MOL0     C37598   8.654   8.378   1.553 -0.2826  0.7321 -0.4060
 1020MOL0     C37599   8.537   8.336   1.614  0.4764 -0.3174 -0.2060
 1020MOL0     C37600   8.420   8.361   1.544  0.3276  0.5034 -0.5690
 1020MOL0     O37601   8.308   8.322   1.622 -0.0516  0.3060 -0.6642
 1020MOL0     C37602   8.186   8.372   1.570 -0.4282 -0.3263 -0.0317
 1020MOL0     C37603   8.096   8.322   1.686  0.8351 -0.5545  0.4640
 1020MOL0     C37604   7.954   8.371   1.669 -0.0021  0.2669  0.9938
 1020MOL0     C37605   7.849   8.313   1.760  0.2212  0.2506  0.0147
 1020MOL0     C37606   7.728   8.397   1.772  0.3353  0.0277 -0.0222
 1020MOL0     C37607   7.629   8.325   1.877  0.0444 -0.4273  0.3226
 1020MOL0     C37608   7.482   8.383   1.868 -0.6082 -0.3285  0.0399
 1020MOL0     C37609   7.392   8.309   1.968 -0.3877 -0.5723  0.5835
 1020MOL0    Cl37610   7.213   8.345   1.930  0.4711 -0.0735  0.3734
 1020MOL0     C37611   8.420   8.401   1.407  0.2821  0.3353  0.6188
 1020MOL0     C37612   8.547   8.421   1.349  0.0111 -0.4297  0.0393
 1020MOL0     O37613   8.775   8.321   1.174  0.4429 -0.2097 -0.6570
 1020MOL0     C37614   8.953   8.498   1.055  0.5575  0.7472 -0.4418
 1020MOL0     C37615   9.056   8.567   0.999  0.4821 -0.6655  0.3861
 1020MOL0     N37616   9.906   8.805   1.020 -0.8533  0.1877  0.6353
 1020MOL0     N37617   9.957   8.922   0.990  0.3717 -0.0630  0.0498
 1020MOL0     C37618  10.720   8.717   0.612 -0.7819  1.0948  0.7041
 1020MOL0     C37619  10.859   8.709   0.610 -0.6085 -0.3012 -0.2140
 1020MOL0     C37620  11.296   8.710   0.472  0.6178  0.0703 -0.9915
 1020MOL0     C37621  11.350   8.787   0.580 -0.5505 -0.3447  1.5240
 1020MOL0     C37622  11.490   8.801   0.593 -0.3537  1.3517 -0.9815
 1020MOL0     C37623  11.571   8.731   0.499  0.2011  0.6311 -0.4150
 1020MOL0     O37624  11.711   8.729   0.498 -0.0864  0.5159 -0.1724
 1020MOL0     C37625  11.776   8.812   0.588 -1.3057 -0.4001  0.5084
 1020MOL0     C37626  11.928   8.798   0.557 -0.0495  0.3055 -0.2081
 1020MOL0     C37627  11.967   8.870   0.432 -0.2336 -0.4140 -0.7262
 1020MOL0     C37628  12.115   8.875   0.382 -0.0076 -0.2973 -0.6854
 1020MOL0     C37629  12.199   8.941   0.480  0.0295  0.6200 -0.1774
 1020MOL0     C37630  12.286   8.989   0.544 -0.2642  0.0676 -0.3608
 1020MOL0     C37631  11.513   8.660   0.397 -0.1527  0.2416  1.0577
 1020MOL0     C37632  11.381   8.649   0.379 -0.5033  1.2532  0.1497
 1020MOL0     H37633  10.934   8.914   0.349  2.5960 -0.3007  1.9080
 1020MOL0     H37634  10.673   8.912   0.337  0.7829  0.2174 -0.0409
 1020MOL0     H37635  10.466   8.912   0.375 -3.0186  0.2667 -1.3237
 1020MOL0     H37636  10.481   8.733   0.327 -0.2415  1.6724 -2.1875
 1020MOL0     H37637  10.249   8.818   0.315 -1.0792 -1.7218  0.1991
 1020MOL0     H37638  10.268   8.701   0.448  1.0752 -0.2592  0.0073
 1020MOL0     H37639  10.262   8.865   0.627  0.3102  1.4355 -0.0096
 1020MOL0     H37640  10.291   8.998   0.517 -0.6316  0.2835 -0.7651
 1020MOL0     H37641  10.068   8.947   0.409  0.2724 -0.1100  0.4959
 1020MOL0     H37642  10.038   8.832   0.528 -0.4255  0.1035  1.2342
 1020MOL0     H37643  10.047   8.987   0.716 -3.3071 -1.4018 -0.7286
 1020MOL0     H37644  10.067   9.121   0.588  4.3579 -1.3050 -0.0771
 1020MOL0     H37645   9.836   9.028   0.507 -0.8715 -2.8109  0.6551
 1020MOL0     H37646   9.836   8.920   0.645 -1.2178 -1.0572 -1.3513
 1020MOL0     H37647   9.826   9.225   0.666 -1.2533 -1.2367 -1.8503
 1020MOL0     H37648   9.708   9.110   0.706  0.5623 -1.1509  2.4994
 1020MOL0     H37649   9.817   9.186   0.913  0.7315  1.4915 -0.4078
 1020MOL0     H37650   9.975   9.146   0.844 -1.3966  1.8364 -4.3497
 1020MOL0     H37651   9.653   8.923   0.859 -1.0517 -1.3996  1.9555
 1020MOL0     H37652   9.625   8.678   0.881  0.3087 -0.3557 -0.7126
 1020MOL0     H37653   9.732   8.576   0.980  0.1866 -0.7357 -0.4191
 1020MOL0     H37654   9.533   8.780   1.109 -0.3005 -0.3456  4.4295
 1020MOL0     H37655   9.638   8.661   1.190 -0.6277 -1.0285 -0.8282
 1020MOL0     H37656   9.415   8.586   1.193  0.5571  1.9829 -0.4387
 1020MOL0     H37657   9.505   8.480   1.082 -3.4434 -0.3367 -3.8390
 1020MOL0     H37658   9.325   8.526   0.944 -1.9088  1.6318  0.6123
 1020MOL0     H37659   9.397   8.672   0.899 -0.8219  0.4010  0.8332
 1020MOL0     H37660   9.208   8.654   1.291 -0.2875 -0.6572  0.6510
 1020MOL0     H37661   8.973   8.587   1.480  1.1621  3.0501 -0.2935
 1020MOL0     H37662   9.031   8.410   1.452 -0.3606  0.5892 -1.6043
 1020MOL0     H37663   9.141   8.543   1.469  0.1128 -2.0636  1.1787
 1020MOL0     H37664   8.750   8.370   1.605 -0.4813 -0.2869 -0.1715
 1020MOL0     H37665   8.541   8.300   1.716  1.5100  1.1796  0.3168
 1020MOL0     H37666   8.195   8.480   1.552 -0.8297 -0.4914 -1.3611
 1020MOL0     H37667   8.153   8.325   1.477  0.2372 -0.4050 -0.2343
 1020MOL0     H37668   8.092   8.213   1.691 -1.6810 -0.5760 -0.5502
 1020MOL0     H37669   8.124   8.368   1.781 -3.3041  2.6865  0.4354
 1020MOL0     H37670   7.914   8.365   1.567  2.7215  1.2993 -0.2524
 1020MOL0     H37671   7.966   8.478   1.687  1.0873  0.2806  0.3225
 1020MOL0     H37672   7.828   8.215   1.716 -1.1064  0.3606  0.3617
 1020MOL0     H37673   7.885   8.297   1.862 -2.2497  0.1469  0.9415
 1020MOL0     H37674   7.684   8.393   1.673  0.4115 -2.1903 -0.0046
 1020MOL0     H37675   7.758   8.499   1.799 -1.0664  1.2755 -2.8217
 1020MOL0     H37676   7.640   8.216   1.876 -0.4848 -0.4892  0.8678
 1020MOL0     H37677   7.666   8.350   1.976  2.1376  0.0067 -0.5129
 1020MOL0     H37678   7.453   8.360   1.765  0.1593  0.1527 -0.2931
 1020MOL0     H37679   7.483   8.492   1.880 -0.3483 -0.4040  0.7324
 1020MOL0     H37680   7.424   8.344   2.066  1.5671 -0.5813 -0.0063
 1020MOL0     H37681   7.395   8.200   1.962 -1.0348 -0.7188  2.4204
 1020MOL0     H37682   8.331   8.415   1.347  1.4309  3.0548 -0.6319
 1020MOL0     H37683   8.551   8.444   1.243  0.4361  0.5652  0.2581
 1020MOL0     H37684   8.875   8.458   0.991  2.0083  2.7712 -3.7036
 1020MOL0     H37685   9.068   8.581   0.892 -2.7172  2.1667  0.2400
 1020MOL0     H37686  10.664   8.663   0.688 -0.2235 -2.4767 -1.2078
 1020MOL0     H37687  10.901   8.644   0.686 -2.4114  1.9462  2.9977
 1020MOL0     H37688  11.291   8.845   0.651 -3.0531  0.5362 -1.1016
 1020MOL0     H37689  11.544   8.850   0.674 -1.0231 -0.0032  0.3231
 1020MOL0     H37690  11.744   8.916   0.574  0.2343 -0.0752 -1.0427
 1020MOL0     H37691  11.749   8.786   0.691 -0.6289 -0.4167  0.6912
 1020MOL0     H37692  11.951   8.691   0.553  0.6760  0.2771  2.6557
 1020MOL0     H37693  11.985   8.832   0.644  2.1088 -2.6072 -0.3328
 1020MOL0     H37694  11.937   8.975   0.439  1.3673  0.1685 -2.0776
 1020MOL0     H37695  11.901   8.839   0.352 -0.0121  3.0847 -2.4557
 1020MOL0     H37696  12.110   8.925   0.285 -2.7248  3.0135  0.9144
 1020MOL0     H37697  12.150   8.773   0.365  1.2777  0.2016 -1.1119
 1020MOL0     H37698  12.379   9.017   0.591 -0.6581  1.8446 -0.5852
 1020MOL0     H37699  11.574   8.622   0.315  0.9321  2.0072  0.9933
 1020MOL0     H37700  11.341   8.586   0.301  0.5461 -0.6534  1.0729
 1021MOL0     O37701  10.442  10.451   9.287 -0.9805 -0.1038  0.1418
 1021MOL0     C37702  10.438  10.534   9.193  0.7202 -0.8349  0.8429
 1021MOL0     O37703  10.331  10.559   9.104  0.0598 -0.1822 -1.0306
 1021MOL0     C37704  10.214  10.493   9.138  0.1406 -0.4226 -0.9513
 1021MOL0     C37705  10.188  10.353   9.124 -0.5453 -0.0769 -0.1158
 1021MOL0     C37706  10.062  10.309   9.157  0.0686 -0.1182  0.3015
 1021MOL0     C37707   9.963  10.385   9.217 -0.7291  0.1504 -0.6189
 1021MOL0     O37708   9.844  10.319   9.258 -0.1446  0.8159 -0.3240
 1021MOL0     C37709   9.737  10.409   9.303 -0.7188  0.0288 -0.2142
 1021MOL0     C37710   9.618  10.313   9.331  0.3815 -0.1729  0.6736
 1021MOL0     C37711   9.488  10.397   9.369  0.0069 -0.2804  0.0289
 1021MOL0     C37712   9.486  10.454   9.514  1.0318 -0.3524 -0.2170
 1021MOL0     C37713   9.360  10.521   9.554  0.5227  1.1433 -0.3937
 1021MOL0     C37714   9.259  10.422   9.606 -0.2156  0.5043  0.2025
 1021MOL0     C37715   9.132  10.484   9.673  0.5865 -0.2716 -0.1087
 1021MOL0     C37716   9.022  10.381   9.714  0.7159 -1.1810 -0.3888
 1021MOL0     N37717   8.942  10.324   9.609  0.9500  0.0018 -0.5039
 1021MOL0     C37718   8.900  10.375   9.487 -0.0946  0.5246 -0.6390
 1021MOL0     C37719   8.834  10.272   9.430  0.4417  0.0367 -0.4182
 1021MOL0     C37720   8.776  10.285   9.291  0.3614  0.0230  0.7686
 1021MOL0     C37721   8.688  10.414   9.276  0.5847 -0.2672 -1.0730
 1021MOL0     C37722   8.626  10.435   9.137 -0.3809 -0.1200  0.2260
 1021MOL0     C37723   8.520  10.341   9.090 -0.1474  0.3800  0.7237
 1021MOL0     O37724   8.389  10.359   9.147 -0.5498  0.0347  0.5595
 1021MOL0     C37725   8.321  10.246   9.172 -0.0920  0.4989  0.2157
 1021MOL0     C37726   8.312  10.137   9.075 -0.0530  0.0593  0.0435
 1021MOL0     C37727   8.228  10.031   9.112 -0.1059  0.1173 -0.1576
 1021MOL0     C37728   8.218   9.924   9.000 -0.5838  0.2366 -0.0649
 1021MOL0     C37729   8.167  10.023   9.236  0.0687  0.6939  0.1110
 1021MOL0     C37730   8.087   9.904   9.281 -0.5841  0.1006  0.3745
 1021MOL0     O37731   8.016   9.933   9.393  0.0903  0.5812 -0.4089
 1021MOL0     C37732   7.930   9.836   9.438 -0.0525 -1.0179  0.0017
 1021MOL0     C37733   7.797   9.828   9.390  0.1865  0.4566 -0.5026
 1021MOL0     C37734   7.713   9.722   9.436 -0.2566  0.0370  0.3220
 1021MOL0     C37735   7.765   9.638   9.539  1.0139  0.3966  0.5687
 1021MOL0     O37736   7.687   9.546   9.602  0.5000 -0.8816  0.0368
 1021MOL0     C37737   7.578   9.483   9.535  0.4657  0.4873  0.1983
 1021MOL0     C37738   7.466   9.468   9.634 -0.3341 -0.9171 -0.3642
 1021MOL0     C37739   7.349   9.385   9.588 -0.1100  0.0631  0.4567
 1021MOL0     C37740   7.225   9.391   9.682 -0.4545  0.0096  0.1866
 1021MOL0     C37741   7.137   9.288   9.624  1.3645  0.0861 -0.1249
 1021MOL0     C37742   7.003   9.303   9.688  0.2185  0.6545  0.3920
 1021MOL0     C37743   7.000   9.249   9.823  1.2806  0.1881 -0.4498
 1021MOL0     C37744   6.867   9.182   9.858  0.0590 -0.1891  0.5350
 1021MOL0    Cl37745   6.873   9.137  10.025  0.7136  0.1949  0.2141
 1021MOL0     C37746   7.895   9.649   9.588  0.1072  0.3265 -0.5016
 1021MOL0     C37747   7.980   9.748   9.533  0.4838 -0.2247 -0.2234
 1021MOL0     O37748   8.111   9.793   9.235  0.0316  0.5809 -0.0558
 1021MOL0     C37749   8.178  10.135   9.321  0.2268 -0.3626  0.3305
 1021MOL0     C37750   8.246  10.246   9.287 -0.2709  0.1518 -0.8591
 1021MOL0     N37751   8.833  10.162   9.511  0.5874  0.5045 -0.4858
 1021MOL0     N37752   8.900  10.194   9.618  0.6528  0.5934  0.8201
 1021MOL0     C37753   9.990  10.526   9.235  0.5751  0.7099  0.5796
 1021MOL0     C37754  10.112  10.582   9.179 -0.1489  0.7914 -0.0727
 1021MOL0     C37755  10.557  10.614   9.145 -0.2558 -0.4462 -0.7510
 1021MOL0     C37756  10.680  10.604   9.224  0.3474 -0.1845  0.0319
 1021MOL0     C37757  10.780  10.698   9.208 -0.0220 -0.7027 -0.1718
 1021MOL0     C37758  10.776  10.800   9.110  1.1903  0.7205  0.1376
 1021MOL0     O37759  10.891  10.875   9.111 -1.0415 -0.5598 -0.7176
 1021MOL0     C37760  10.909  10.981   9.008  0.3735 -0.5897 -0.4346
 1021MOL0     C37761  11.045  11.048   9.046 -0.3760  0.2372  0.6057
 1021MOL0     C37762  11.168  10.963   9.026 -0.0689 -0.7696  0.9615
 1021MOL0     C37763  11.200  10.899   8.890 -0.2998 -0.1032  0.1331
 1021MOL0     C37764  11.174  11.001   8.788  0.7586 -0.9389  0.1788
 1021MOL0     C37765  11.147  11.089   8.704 -0.3320 -0.3620 -0.4083
 1021MOL0     C37766  10.668  10.799   9.033  0.1324 -0.2055  0.9948
 1021MOL0     C37767  10.569  10.707   9.038  0.4059  0.2028 -0.0060
 1021MOL0     H37768  10.267  10.286   9.091  1.1236  1.0851  1.3595
 1021MOL0     H37769  10.043  10.204   9.138  0.5863  0.0841 -1.5703
 1021MOL0     H37770   9.761  10.470   9.391 -0.3179  1.0552 -1.0149
 1021MOL0     H37771   9.714  10.473   9.217  1.6155 -0.6925 -1.4555
 1021MOL0     H37772   9.598  10.261   9.237  1.6258  0.7933 -0.1512
 1021MOL0     H37773   9.653  10.239   9.403  2.6588  1.3324  1.2161
 1021MOL0     H37774   9.477  10.478   9.296  3.7999 -0.3281 -0.8059
 1021MOL0     H37775   9.397  10.336   9.368  0.2587 -0.8244 -3.4083
 1021MOL0     H37776   9.506  10.373   9.583  2.2123 -2.0743 -2.4525
 1021MOL0     H37777   9.571  10.523   9.517  0.4247  0.4460 -0.6107
 1021MOL0     H37778   9.375  10.589   9.638 -2.9982 -0.9501  2.2572
 1021MOL0     H37779   9.326  10.576   9.466  0.6034 -0.7005 -1.6455
 1021MOL0     H37780   9.221  10.357   9.527  1.8763  0.3267 -0.7187
 1021MOL0     H37781   9.319  10.369   9.680 -0.6851 -0.8817 -0.3830
 1021MOL0     H37782   9.152  10.539   9.765 -0.8605  0.1680 -0.0318
 1021MOL0     H37783   9.082  10.549   9.600  1.0867 -0.1276 -0.3231
 1021MOL0     H37784   8.952  10.431   9.782  1.6810 -1.7822  1.0962
 1021MOL0     H37785   9.067  10.308   9.782 -0.6021 -0.2344  1.5922
 1021MOL0     H37786   8.914  10.474   9.446  1.1256  0.9334  0.6725
 1021MOL0     H37787   8.855  10.304   9.217 -0.9202 -0.1236 -0.6954
 1021MOL0     H37788   8.712  10.201   9.263 -0.1536  0.4597  0.5874
 1021MOL0     H37789   8.759  10.494   9.300  1.0566 -1.1108  0.5244
 1021MOL0     H37790   8.608  10.403   9.350 -0.7520 -1.4260 -2.6444
 1021MOL0     H37791   8.711  10.436   9.069 -0.7801 -1.6459 -0.3430
 1021MOL0     H37792   8.591  10.539   9.137  4.2411  1.6747 -1.3208
 1021MOL0     H37793   8.552  10.237   9.095  4.7928  1.2677 -3.5254
 1021MOL0     H37794   8.514  10.343   8.981  2.6755  0.4537  0.4859
 1021MOL0     H37795   8.363  10.152   8.980 -2.4975  1.3227 -1.1724
 1021MOL0     H37796   8.239   9.969   8.902 -2.8441 -1.7535 -1.6100
 1021MOL0     H37797   8.299   9.854   9.022 -0.7895 -0.4593 -1.4116
 1021MOL0     H37798   8.120   9.874   9.000  0.0044 -0.9640 -0.9724
 1021MOL0     H37799   7.768   9.893   9.309  0.3370  0.9400 -0.1692
 1021MOL0     H37800   7.613   9.713   9.395 -0.6793  0.0707  1.3301
 1021MOL0     H37801   7.538   9.526   9.443 -0.1867 -1.4575 -0.4830
 1021MOL0     H37802   7.614   9.385   9.502 -2.4555 -0.7864  0.4529
 1021MOL0     H37803   7.515   9.427   9.723  0.0021 -1.2567 -0.7037
 1021MOL0     H37804   7.441   9.571   9.660 -0.1216 -1.3061  1.5351
 1021MOL0     H37805   7.375   9.280   9.574 -1.4417 -0.0919 -1.0153
 1021MOL0     H37806   7.318   9.426   9.492  0.3507 -0.2665  0.1627
 1021MOL0     H37807   7.249   9.379   9.788  1.2956 -1.6035 -0.3345
 1021MOL0     H37808   7.184   9.492   9.673  0.1754  0.2187 -0.3611
 1021MOL0     H37809   7.170   9.184   9.635  0.3864 -0.0479  1.8878
 1021MOL0     H37810   7.128   9.303   9.516 -2.1912  0.9475  0.1818
 1021MOL0     H37811   6.975   9.408   9.672  0.9471  0.6344 -1.2049
 1021MOL0     H37812   6.926   9.253   9.628 -1.6161  2.0409  1.4594
 1021MOL0     H37813   7.010   9.340   9.883 -1.0225 -0.0241  0.3542
 1021MOL0     H37814   7.081   9.176   9.830  0.8480 -0.2903 -0.4539
 1021MOL0     H37815   6.860   9.090   9.799  0.9344  0.1968 -0.2079
 1021MOL0     H37816   6.782   9.246   9.835 -0.5128 -1.2187 -0.3217
 1021MOL0     H37817   7.920   9.596   9.679  1.4008 -0.3943 -1.2466
 1021MOL0     H37818   8.082   9.774   9.562  0.5375 -0.2774 -0.3598
 1021MOL0     H37819   8.121  10.149   9.413 -0.5478  1.2268 -0.3326
 1021MOL0     H37820   8.236  10.335   9.349 -0.2479 -1.0122  0.9017
 1021MOL0     H37821   9.909  10.588   9.272  0.4748 -0.9118  3.3365
 1021MOL0     H37822  10.134  10.685   9.204  0.3816  1.1358 -1.7748
 1021MOL0     H37823  10.682  10.523   9.296  2.2575  0.6030  0.9231
 1021MOL0     H37824  10.855  10.704   9.287 -0.6689 -4.2330  0.8985
 1021MOL0     H37825  10.901  10.949   8.904  2.6080 -1.0821 -0.5104
 1021MOL0     H37826  10.834  11.060   9.014 -1.2296 -1.9870 -1.2280
 1021MOL0     H37827  11.043  11.091   9.146  2.2784 -0.2368  0.9362
 1021MOL0     H37828  11.068  11.127   8.974  0.5183 -0.0292  0.5908
 1021MOL0     H37829  11.149  10.880   9.094  0.8533 -0.5581  1.4993
 1021MOL0     H37830  11.254  11.023   9.058 -1.0978  0.7443  0.9597
 1021MOL0     H37831  11.141  10.808   8.873  0.3901 -0.2072 -1.9599
 1021MOL0     H37832  11.304  10.866   8.895 -0.2195  0.1025 -0.1708
 1021MOL0     H37833  11.138  11.168   8.632 -1.5151  0.6947  0.8408
 1021MOL0     H37834  10.654  10.871   8.953  0.4837 -0.8711  0.3206
 1021MOL0     H37835  10.490  10.703   8.964  0.7279  0.0041 -0.3498
 1022MOL0     O37836   2.996   2.232   9.213 -0.9502 -0.4017 -0.0613
 1022MOL0     C37837   3.040   2.339   9.262  0.7024 -0.0921  0.4467
 1022MOL0     O37838   2.986   2.402   9.367  0.3737 -0.5356 -0.1024
 1022MOL0     C37839   2.864   2.379   9.427 -0.1716  0.2565 -0.4924
 1022MOL0     C37840   2.791   2.263   9.418 -0.4628  0.0953 -0.4370
 1022MOL0     C37841   2.690   2.245   9.514  0.0437 -0.6994 -0.5370
 1022MOL0     C37842   2.646   2.346   9.605 -0.1181  0.5229 -0.4873
 1022MOL0     O37843   2.543   2.335   9.695  0.3985 -0.0143  0.0096
 1022MOL0     C37844   2.416   2.289   9.643 -0.1188  0.1258 -0.3769
 1022MOL0     C37845   2.322   2.310   9.757 -0.0834  0.4081  0.2950
 1022MOL0     C37846   2.183   2.253   9.731 -0.1258  0.1918 -0.0391
 1022MOL0     C37847   2.067   2.325   9.810  0.2310  1.0215  0.2702
 1022MOL0     C37848   1.927   2.286   9.760 -0.3432  0.4606 -0.4457
 1022MOL0     C37849   1.893   2.141   9.798  0.5205 -0.1426  0.8427
 1022MOL0     C37850   1.745   2.123   9.830 -0.9327  0.1065 -1.4822
 1022MOL0     C37851   1.702   1.980   9.832 -0.2660  0.3880 -0.0048
 1022MOL0     N37852   1.566   1.964   9.887  0.5786 -0.2408  0.5573
 1022MOL0     C37853   1.518   1.993  10.015 -0.5719 -0.7706 -0.0830
 1022MOL0     C37854   1.386   1.954  10.011 -0.3179  0.0341  0.0205
 1022MOL0     C37855   1.284   1.985  10.112 -0.1653  0.5215 -0.2098
 1022MOL0     C37856   1.230   2.131  10.079 -0.8002  0.0275 -0.0445
 1022MOL0     C37857   1.145   2.183  10.195  0.6752 -0.4125  1.0612
 1022MOL0     C37858   1.046   2.285  10.145 -0.0728 -0.5566  0.0864
 1022MOL0     O37859   0.958   2.193  10.082  0.3335 -0.7163 -0.8661
 1022MOL0     C37860   0.875   2.253   9.987 -0.1329  0.3856 -0.5666
 1022MOL0     C37861   0.834   2.166   9.891 -0.5015 -0.3258  0.3148
 1022MOL0     C37862   0.735   2.208   9.800  0.3802  0.2324 -0.2166
 1022MOL0     C37863   0.690   2.102   9.691 -0.2685 -0.1914  0.2052
 1022MOL0     C37864   0.690   2.341   9.797  0.5428 -0.2289  0.3132
 1022MOL0     C37865   0.599   2.395   9.696  0.0215 -1.1985  0.6866
 1022MOL0     O37866   0.491   2.481   9.741 -0.2897  0.3961  0.2416
 1022MOL0     C37867   0.411   2.544   9.644 -0.2761  1.1308 -0.0827
 1022MOL0     C37868   0.465   2.628   9.551 -0.1834 -0.2349 -0.1186
 1022MOL0     C37869   0.378   2.694   9.466  0.6465 -0.0161  0.4235
 1022MOL0     C37870   0.235   2.670   9.473 -1.1423 -0.7376  0.9583
 1022MOL0     O37871   0.140   2.727   9.392  0.0733  0.0974  0.4906
 1022MOL0     C37872   0.168   2.850   9.324  0.5532 -0.0250 -0.1205
 1022MOL0     C37873   0.040   2.926   9.294  0.2573  1.2666 -0.3776
 1022MOL0     C37874   0.070   3.061   9.231  0.0393 -0.4947 -0.2614
 1022MOL0     C37875  -0.062   3.132   9.201  0.3933 -0.3585  0.0391
 1022MOL0     C37876  -0.037   3.266   9.132  0.5995 -0.5272 -0.5594
 1022MOL0     C37877   0.054   3.358   9.223  0.3054  0.5846  0.6169
 1022MOL0     C37878   0.023   3.509   9.191  1.0003 -0.3293  0.2494
 1022MOL0     C37879   0.113   3.606   9.259  0.0053  0.6503 -0.0772
 1022MOL0    Cl37880   0.051   3.778   9.246 -0.3158 -0.0958  0.3156
 1022MOL0     C37881   0.182   2.579   9.568 -0.6670 -0.2533  0.2884
 1022MOL0     C37882   0.276   2.512   9.652  0.5152 -0.5627  0.1189
 1022MOL0     O37883   0.614   2.367   9.580 -0.3396  0.0769 -0.5193
 1022MOL0     C37884   0.738   2.432   9.892 -0.0814 -0.1221  0.1310
 1022MOL0     C37885   0.831   2.386   9.989 -0.6715  0.4073 -0.2889
 1022MOL0     N37886   1.362   1.903   9.881  0.7079 -0.1376  0.3328
 1022MOL0     N37887   1.471   1.909   9.812  0.0009 -0.0542  0.0004
 1022MOL0     C37888   2.722   2.457   9.595 -0.1186 -0.4346 -0.3149
 1022MOL0     C37889   2.830   2.480   9.512 -0.7986  0.4550 -0.7572
 1022MOL0     C37890   3.164   2.378   9.220 -0.3018  0.0005 -0.3321
 1022MOL0     C37891   3.254   2.445   9.312 -0.6191  0.2891  0.3223
 1022MOL0     C37892   3.371   2.508   9.263  0.5573  0.0638 -0.7079
 1022MOL0     C37893   3.409   2.497   9.124 -0.1807  0.2163 -1.2772
 1022MOL0     O37894   3.527   2.561   9.083 -0.2387 -0.4948 -0.5660
 1022MOL0     C37895   3.509   2.672   8.999 -0.7554 -0.5096 -0.4707
 1022MOL0     C37896   3.640   2.757   8.980  0.3793 -0.2392 -0.3562
 1022MOL0     C37897   3.701   2.827   9.105 -1.3400 -0.1558 -0.3651
 1022MOL0     C37898   3.645   2.963   9.144  0.7685  0.9361 -0.5946
 1022MOL0     C37899   3.517   2.940   9.211  0.7448  0.3841 -0.1128
 1022MOL0     C37900   3.405   2.934   9.259  0.1102  0.6967 -0.2182
 1022MOL0     C37901   3.320   2.423   9.036 -0.2389 -1.2786 -0.7020
 1022MOL0     C37902   3.202   2.363   9.083  0.5376  0.1546 -0.0288
 1022MOL0     H37903   2.832   2.176   9.368  0.2441 -1.2165  2.2060
 1022MOL0     H37904   2.637   2.151   9.518 -0.3004 -0.5548 -1.4722
 1022MOL0     H37905   2.364   2.335   9.559 -2.1387  0.3214  0.9238
 1022MOL0     H37906   2.427   2.181   9.629 -1.1785 -0.0644  0.1564
 1022MOL0     H37907   2.367   2.251   9.837  0.0572  0.8745  0.5651
 1022MOL0     H37908   2.320   2.417   9.780  0.4569  0.2432  1.1210
 1022MOL0     H37909   2.165   2.265   9.624 -0.8723  1.4677  0.2053
 1022MOL0     H37910   2.182   2.145   9.748  0.8832  0.1436 -0.2103
 1022MOL0     H37911   2.080   2.300   9.915 -0.6274  1.4597  0.4911
 1022MOL0     H37912   2.067   2.434   9.794  1.6416  1.0100  0.0650
 1022MOL0     H37913   1.853   2.347   9.814  0.1059 -0.9560  1.9343
 1022MOL0     H37914   1.922   2.301   9.652 -1.2564  4.0830 -0.0247
 1022MOL0     H37915   1.918   2.084   9.708  0.2931 -0.3925  0.9348
 1022MOL0     H37916   1.948   2.106   9.886  1.8892  0.0601  0.0840
 1022MOL0     H37917   1.732   2.163   9.931  2.7517  0.0167 -0.8432
 1022MOL0     H37918   1.693   2.182   9.754  0.0787  0.6235 -1.7970
 1022MOL0     H37919   1.768   1.919   9.894 -0.3991 -1.0317 -1.2025
 1022MOL0     H37920   1.697   1.937   9.731  0.2491 -2.4839  1.1069
 1022MOL0     H37921   1.577   2.038  10.095  2.7133  0.7125 -3.0606
 1022MOL0     H37922   1.207   1.908  10.099  1.8877 -1.5513 -0.6774
 1022MOL0     H37923   1.324   1.966  10.212 -1.9159 -2.7178 -0.0010
 1022MOL0     H37924   1.174   2.120   9.985 -3.5451 -1.7983  1.6639
 1022MOL0     H37925   1.318   2.195  10.072  0.0373 -1.0646  0.1454
 1022MOL0     H37926   1.203   2.226  10.277  0.6105 -1.8353  1.8909
 1022MOL0     H37927   1.086   2.108  10.248 -1.8280  2.4909  2.6725
 1022MOL0     H37928   1.099   2.365  10.092 -0.4721  2.5540  3.8880
 1022MOL0     H37929   1.009   2.334  10.235 -1.3778  0.1038 -0.7867
 1022MOL0     H37930   0.858   2.063   9.913  0.4561 -0.1262  0.2417
 1022MOL0     H37931   0.684   2.004   9.738 -0.2710  0.5878  1.9227
 1022MOL0     H37932   0.594   2.128   9.646  1.1123  1.2647 -2.0942
 1022MOL0     H37933   0.763   2.094   9.610 -0.4508 -0.4215  0.0634
 1022MOL0     H37934   0.573   2.629   9.544 -0.2761  0.3920 -2.0260
 1022MOL0     H37935   0.407   2.760   9.385 -1.5808 -0.3609 -0.7596
 1022MOL0     H37936   0.235   2.917   9.378  0.0109  0.1396  0.3469
 1022MOL0     H37937   0.214   2.822   9.228 -0.4973 -1.3737 -0.2644
 1022MOL0     H37938  -0.018   2.860   9.229  2.8509 -0.1282 -1.4135
 1022MOL0     H37939  -0.012   2.932   9.390  1.2657  1.3986  0.1793
 1022MOL0     H37940   0.122   3.046   9.136 -0.8129  2.6569 -1.3509
 1022MOL0     H37941   0.128   3.129   9.293 -2.0151 -0.4845  1.7748
 1022MOL0     H37942  -0.127   3.083   9.128 -0.6767  1.9216 -0.6261
 1022MOL0     H37943  -0.126   3.147   9.289 -2.1598 -0.3913 -1.7017
 1022MOL0     H37944  -0.130   3.322   9.120  1.5889  1.6412  1.1459
 1022MOL0     H37945   0.007   3.257   9.033  2.0539  3.0037 -0.3832
 1022MOL0     H37946   0.026   3.344   9.328  0.6042 -2.3955  0.3679
 1022MOL0     H37947   0.162   3.345   9.208  0.5296  0.7762  1.9231
 1022MOL0     H37948  -0.080   3.534   9.218  0.8905  1.7287 -1.7731
 1022MOL0     H37949   0.031   3.516   9.082  1.5767 -2.8583  0.0740
 1022MOL0     H37950   0.209   3.601   9.207  1.3587  0.4720  2.3037
 1022MOL0     H37951   0.133   3.569   9.360 -0.7283  1.8930  0.5477
 1022MOL0     H37952   0.074   2.569   9.561 -0.7216  1.1122 -3.7289
 1022MOL0     H37953   0.244   2.442   9.728  0.0093 -0.9045 -0.3947
 1022MOL0     H37954   0.717   2.538   9.892 -0.4151 -0.1766 -0.6895
 1022MOL0     H37955   0.876   2.457  10.058 -1.0340 -0.5709  0.9981
 1022MOL0     H37956   2.699   2.527   9.675  1.9209  1.0973 -0.9665
 1022MOL0     H37957   2.902   2.561   9.525 -1.7696  1.4891 -1.5794
 1022MOL0     H37958   3.221   2.447   9.415 -0.3773 -1.1774  0.4557
 1022MOL0     H37959   3.429   2.568   9.333  1.0884 -2.2693  0.9867
 1022MOL0     H37960   3.484   2.639   8.898 -2.5931  0.6278 -0.4450
 1022MOL0     H37961   3.430   2.740   9.033  0.4271  0.2529  0.8605
 1022MOL0     H37962   3.621   2.834   8.905  1.4549  0.2112 -0.1810
 1022MOL0     H37963   3.716   2.696   8.930  0.9424 -1.7020  2.1231
 1022MOL0     H37964   3.806   2.844   9.077 -0.9673 -0.1247  1.0101
 1022MOL0     H37965   3.694   2.766   9.195  0.8501  1.9686  1.3723
 1022MOL0     H37966   3.627   3.027   9.056 -1.4207  0.9251 -0.2141
 1022MOL0     H37967   3.705   3.018   9.217 -0.5899  0.5363  0.8760
 1022MOL0     H37968   3.303   2.925   9.290 -0.1507  1.7814 -0.7156
 1022MOL0     H37969   3.331   2.426   8.928  1.3480  0.2116 -0.5395
 1022MOL0     H37970   3.135   2.320   9.010  0.3495  1.1393 -0.4541
 1023MOL0     O37971   7.218   5.369   6.477  0.4957 -0.4916  0.3411
 1023MOL0     C37972   7.309   5.313   6.543 -0.1529  0.5609  0.3978
 1023MOL0     O37973   7.286   5.227   6.644 -0.2712 -0.1817 -0.5627
 1023MOL0     C37974   7.159   5.219   6.691  0.0418  0.0214 -0.1451
 1023MOL0     C37975   7.084   5.107   6.668 -0.4232  0.5194 -0.1072
 1023MOL0     C37976   6.959   5.078   6.721 -0.7502  0.0129  0.6719
 1023MOL0     C37977   6.917   5.164   6.821 -0.5432  0.4341  0.1655
 1023MOL0     O37978   6.813   5.129   6.907 -0.1147 -0.1604 -0.4161
 1023MOL0     C37979   6.739   5.014   6.879  0.0526  0.1320  1.0426
 1023MOL0     C37980   6.619   4.994   6.973 -0.4065  0.4607  0.7398
 1023MOL0     C37981   6.528   5.121   6.973 -0.6336  0.1858 -0.0876
 1023MOL0     C37982   6.403   5.088   7.066  0.0647 -0.3371  0.0675
 1023MOL0     C37983   6.293   5.003   6.998 -0.1833 -0.0358  0.5342
 1023MOL0     C37984   6.166   5.003   7.087 -0.5128 -0.7618  0.9357
 1023MOL0     C37985   6.061   4.915   7.035  0.2197  0.0802  0.3354
 1023MOL0     C37986   5.945   4.919   7.119 -0.2741  0.1045 -0.1880
 1023MOL0     N37987   5.839   4.836   7.067 -0.0881  0.2519 -0.4486
 1023MOL0     C37988   5.831   4.702   7.083  0.1542  0.3506 -0.9761
 1023MOL0     C37989   5.720   4.670   7.016 -0.3265 -0.2634  0.6524
 1023MOL0     C37990   5.689   4.527   6.964 -1.1552 -0.1405  0.0100
 1023MOL0     C37991   5.596   4.471   7.069 -0.1502 -0.2736 -0.2999
 1023MOL0     C37992   5.547   4.338   7.021 -0.1789 -0.0416  0.3060
 1023MOL0     C37993   5.473   4.338   6.893 -0.5381 -0.4174  0.1981
 1023MOL0     O37994   5.431   4.213   6.846  0.5177  0.3057 -0.5264
 1023MOL0     C37995   5.316   4.165   6.905 -0.7076  0.2734  0.0533
 1023MOL0     C37996   5.197   4.232   6.947 -0.0556 -0.2061 -1.0744
 1023MOL0     C37997   5.105   4.174   7.027 -0.7724  0.1462  0.4812
 1023MOL0     C37998   4.999   4.270   7.079  0.4960 -0.9029  0.2613
 1023MOL0     C37999   5.112   4.033   7.053  0.2979  0.3309 -0.6230
 1023MOL0     C38000   4.997   3.957   7.124 -0.1057 -0.1504  0.3716
 1023MOL0     O38001   4.902   4.020   7.193 -0.1201  0.5007 -0.5077
 1023MOL0     C38002   4.809   3.943   7.260 -0.2031 -0.5006 -0.4415
 1023MOL0     C38003   4.704   3.879   7.197  0.6074 -0.3774  0.7627
 1023MOL0     C38004   4.609   3.807   7.276 -0.8091 -0.9181  0.4170
 1023MOL0     C38005   4.624   3.789   7.411  0.6866 -0.1638  0.3773
 1023MOL0     O38006   4.547   3.694   7.469  0.0965 -0.5350  0.1167
 1023MOL0     C38007   4.615   3.634   7.576 -0.1672  0.0836 -0.3704
 1023MOL0     C38008   4.564   3.493   7.599 -0.6600 -0.1024  0.7188
 1023MOL0     C38009   4.448   3.492   7.708  0.4055 -0.4179 -0.1180
 1023MOL0     C38010   4.352   3.378   7.681 -0.4870  0.2544  0.1252
 1023MOL0     C38011   4.225   3.373   7.771 -0.4243  0.5553 -0.1391
 1023MOL0     C38012   4.127   3.248   7.753  0.4535 -0.0486  0.2968
 1023MOL0     C38013   4.006   3.258   7.844  0.1421  0.9448  0.5535
 1023MOL0     C38014   3.901   3.354   7.785 -0.0368 -0.2800 -0.4056
 1023MOL0    Cl38015   3.778   3.370   7.913  0.2998  0.5829 -0.2216
 1023MOL0     C38016   4.721   3.868   7.473 -0.3245  0.2128  0.0798
 1023MOL0     C38017   4.810   3.945   7.397 -1.1451  0.1525  0.0318
 1023MOL0     O38018   5.016   3.834   7.121 -0.3258 -0.6867 -1.1071
 1023MOL0     C38019   5.227   3.963   7.019  0.7050  0.1601 -0.2003
 1023MOL0     C38020   5.323   4.027   6.942  0.3764 -0.6138 -0.7186
 1023MOL0     N38021   5.652   4.780   6.974 -0.2411 -0.1208  0.2872
 1023MOL0     N38022   5.728   4.883   7.006  0.5584  0.7001  0.1560
 1023MOL0     C38023   6.993   5.279   6.850 -0.3574 -0.3534  0.6551
 1023MOL0     C38024   7.109   5.307   6.786 -0.0548  0.0790 -0.5254
 1023MOL0     C38025   7.451   5.358   6.522  0.3302 -0.0961  0.1391
 1023MOL0     C38026   7.487   5.478   6.454 -1.1009 -0.2183 -0.0175
 1023MOL0     C38027   7.627   5.499   6.433  0.2567 -0.8878 -0.7161
 1023MOL0     C38028   7.726   5.422   6.476  0.1195  0.0578 -0.8486
 1023MOL0     O38029   7.857   5.442   6.447 -0.0067  0.3390 -0.1591
 1023MOL0     C38030   7.897   5.571   6.410  0.4450 -0.8351 -0.1974
 1023MOL0     C38031   8.037   5.604   6.453  0.1841 -1.0584  0.4782
 1023MOL0     C38032   8.131   5.528   6.360  0.6614  0.2822  1.0070
 1023MOL0     C38033   8.277   5.525   6.410  0.0658 -0.3416  0.0235
 1023MOL0     C38034   8.344   5.649   6.366 -0.1169  0.4916  0.1826
 1023MOL0     C38035   8.408   5.750   6.341 -0.1391  0.5540 -0.2971
 1023MOL0     C38036   7.689   5.308   6.547 -0.5153 -0.7928 -0.0832
 1023MOL0     C38037   7.553   5.279   6.567  0.6756  0.4830  0.2453
 1023MOL0     H38038   7.131   5.042   6.595  0.3958 -0.2664  1.0925
 1023MOL0     H38039   6.900   4.995   6.685 -2.0934  1.7347 -1.3637
 1023MOL0     H38040   6.695   5.019   6.779 -0.4774  1.7482  1.3266
 1023MOL0     H38041   6.791   4.919   6.890 -1.2108 -0.5048  1.8179
 1023MOL0     H38042   6.565   4.911   6.928  0.9567 -0.1323  0.1577
 1023MOL0     H38043   6.653   4.963   7.072 -2.8088  2.2602  2.2486
 1023MOL0     H38044   6.590   5.199   7.018  3.5402 -1.9934 -1.5087
 1023MOL0     H38045   6.491   5.143   6.872 -4.5066 -0.6067  0.9647
 1023MOL0     H38046   6.431   5.034   7.157 -1.5746  0.1217  0.8852
 1023MOL0     H38047   6.353   5.182   7.092 -0.6536 -0.0795 -2.0951
 1023MOL0     H38048   6.276   5.041   6.896  1.0788 -2.1806 -0.5478
 1023MOL0     H38049   6.318   4.897   6.993 -0.9077 -0.1871 -0.2988
 1023MOL0     H38050   6.180   4.972   7.192 -0.9125  0.8591  1.4902
 1023MOL0     H38051   6.125   5.104   7.089  0.1555 -0.4245 -1.0298
 1023MOL0     H38052   6.031   4.942   6.933 -0.3199 -1.3343  0.1012
 1023MOL0     H38053   6.094   4.811   7.029 -2.1860 -0.7921  1.2847
 1023MOL0     H38054   5.895   5.016   7.130  1.1185  1.0902 -2.0150
 1023MOL0     H38055   5.970   4.894   7.223  0.9996  0.4237 -0.3940
 1023MOL0     H38056   5.891   4.633   7.141  0.1944 -1.2549 -2.8446
 1023MOL0     H38057   5.642   4.524   6.865 -0.8169 -2.8840 -0.1282
 1023MOL0     H38058   5.780   4.466   6.960 -1.7025 -1.2569  2.4667
 1023MOL0     H38059   5.506   4.531   7.087  0.7271  0.3381  2.5558
 1023MOL0     H38060   5.650   4.453   7.163  1.1116 -1.6793 -1.2602
 1023MOL0     H38061   5.481   4.292   7.095 -1.5855 -1.3595 -1.6611
 1023MOL0     H38062   5.637   4.275   7.015  0.5763  1.1319 -1.6338
 1023MOL0     H38063   5.541   4.365   6.811  1.2232 -1.8085  1.1246
 1023MOL0     H38064   5.391   4.410   6.887  2.5600  3.3273 -2.7181
 1023MOL0     H38065   5.184   4.335   6.917 -0.1797 -0.7449 -3.0235
 1023MOL0     H38066   4.900   4.228   7.061  0.9712 -1.5036 -1.1329
 1023MOL0     H38067   5.010   4.297   7.184  0.9005  0.0820 -0.0174
 1023MOL0     H38068   5.005   4.368   7.029 -0.3546 -0.9383  0.0779
 1023MOL0     H38069   4.705   3.875   7.089  0.1062  0.8871  0.6907
 1023MOL0     H38070   4.532   3.746   7.229 -1.7376 -0.9165  1.8385
 1023MOL0     H38071   4.716   3.609   7.545  0.6471  4.5659 -2.0223
 1023MOL0     H38072   4.616   3.687   7.672 -0.7699 -1.2970  0.4294
 1023MOL0     H38073   4.542   3.434   7.509 -0.8088  1.6456 -0.4302
 1023MOL0     H38074   4.649   3.445   7.650  1.0908  1.2076 -0.8206
 1023MOL0     H38075   4.395   3.587   7.703  0.4078 -0.4152 -0.0867
 1023MOL0     H38076   4.494   3.473   7.805  1.6934  1.4820 -0.2912
 1023MOL0     H38077   4.326   3.363   7.576 -0.3653 -1.2425  0.2803
 1023MOL0     H38078   4.418   3.297   7.715  0.3463  0.6306 -0.5389
 1023MOL0     H38079   4.167   3.462   7.747  0.5116  0.8809 -1.2818
 1023MOL0     H38080   4.264   3.380   7.873  1.5639  2.1746 -0.9288
 1023MOL0     H38081   4.099   3.221   7.651  3.2453  0.7353 -0.7588
 1023MOL0     H38082   4.175   3.162   7.801 -3.1500 -0.6382  3.3630
 1023MOL0     H38083   4.034   3.284   7.947 -0.1004 -0.9209  1.1389
 1023MOL0     H38084   3.959   3.161   7.867  0.1181  1.0575  0.9992
 1023MOL0     H38085   3.866   3.302   7.696  1.0884 -4.0003  1.1484
 1023MOL0     H38086   3.941   3.454   7.767 -0.9746 -0.3436 -3.1919
 1023MOL0     H38087   4.724   3.858   7.581 -0.5093  0.3264  0.0962
 1023MOL0     H38088   4.886   4.004   7.447  0.1847 -0.1263 -1.5815
 1023MOL0     H38089   5.248   3.868   7.065  1.4922  0.7738  0.7389
 1023MOL0     H38090   5.417   3.981   6.914  0.5048  1.6364 -4.7478
 1023MOL0     H38091   6.950   5.342   6.927  0.5187  2.0425 -0.6970
 1023MOL0     H38092   7.166   5.394   6.817  2.2279 -0.5117 -2.7080
 1023MOL0     H38093   7.407   5.539   6.414 -0.8149  2.1632  2.7114
 1023MOL0     H38094   7.640   5.596   6.386  0.9380  0.7928  2.5903
 1023MOL0     H38095   7.898   5.574   6.301 -0.1070  3.3020 -0.2789
 1023MOL0     H38096   7.831   5.651   6.444  0.8525 -0.9591  0.9419
 1023MOL0     H38097   8.066   5.583   6.557  3.8933  1.8133  0.2411
 1023MOL0     H38098   8.063   5.711   6.451  1.0140 -1.2329  1.2882
 1023MOL0     H38099   8.112   5.562   6.258 -1.1164 -3.0958  0.0716
 1023MOL0     H38100   8.085   5.429   6.367 -2.1562  1.5288  1.3268
 1023MOL0     H38101   8.335   5.444   6.364 -0.0206 -0.9999  1.0516
 1023MOL0     H38102   8.280   5.504   6.517 -0.1334 -1.5500 -0.1940
 1023MOL0     H38103   8.454   5.843   6.316  0.0559  1.2375  2.2474
 1023MOL0     H38104   7.762   5.235   6.580 -0.8802 -1.1155  0.0201
 1023MOL0     H38105   7.526   5.181   6.605  2.9494  0.5366  2.2500
 1024MOL0     O38106   9.255   5.148   2.311 -0.0803  0.3948  0.0797
 1024MOL0     C38107   9.245   5.262   2.360 -0.0351 -0.1132 -0.0412
 1024MOL0     O38108   9.142   5.348   2.341 -0.4443 -0.1166 -0.0433
 1024MOL0     C38109   9.035   5.314   2.257 -0.1670  0.9898 -0.3515
 1024MOL0     C38110   9.053   5.268   2.123 -0.2780  0.0302  0.3303
 1024MOL0     C38111   8.947   5.257   2.033  1.2764  0.5349 -0.7020
 1024MOL0     C38112   8.817   5.289   2.076 -0.2351  0.1021 -0.1519
 1024MOL0     O38113   8.728   5.285   1.972 -0.1871 -0.0516  0.3849
 1024MOL0     C38114   8.591   5.303   2.009  0.1091  0.0371 -0.1778
 1024MOL0     C38115   8.501   5.331   1.883  0.5929 -0.2027 -0.0403
 1024MOL0     C38116   8.358   5.355   1.930 -0.3439 -0.3607  0.2334
 1024MOL0     C38117   8.238   5.369   1.835 -0.5148  0.6398  0.9052
 1024MOL0     C38118   8.107   5.371   1.915  0.6685 -0.0214  0.5200
 1024MOL0     C38119   7.986   5.395   1.820  0.2853  0.3658 -0.2617
 1024MOL0     C38120   7.868   5.420   1.891 -0.0388  0.6688 -0.3566
 1024MOL0     C38121   7.758   5.415   1.781 -0.5785 -0.8625  0.7353
 1024MOL0     N38122   7.626   5.439   1.845  0.5041 -0.2904  0.3057
 1024MOL0     C38123   7.529   5.349   1.894  0.6070  0.3633 -0.4844
 1024MOL0     C38124   7.433   5.417   1.962 -0.9422  0.5158 -0.1936
 1024MOL0     C38125   7.307   5.361   2.027  0.2305 -0.8959  0.2483
 1024MOL0     C38126   7.194   5.462   2.061 -0.2403  0.5601 -0.5082
 1024MOL0     C38127   7.099   5.465   1.949 -0.0294 -0.3017  0.0241
 1024MOL0     C38128   6.969   5.533   1.969 -0.3024  0.2384 -0.4339
 1024MOL0     O38129   6.897   5.546   1.852  0.0936  0.4314 -0.8178
 1024MOL0     C38130   6.771   5.592   1.859 -0.7339 -0.1232  0.7579
 1024MOL0     C38131   6.705   5.598   1.731 -0.6819 -0.1029  0.1567
 1024MOL0     C38132   6.574   5.650   1.717  0.0710 -0.3992  0.0700
 1024MOL0     C38133   6.508   5.655   1.579  0.0561  0.2881 -0.3684
 1024MOL0     C38134   6.504   5.678   1.831  0.3099  0.0188 -0.1088
 1024MOL0     C38135   6.357   5.709   1.835  0.1581 -0.8928 -0.2267
 1024MOL0     O38136   6.307   5.788   1.737  0.5561 -0.4790  0.3648
 1024MOL0     C38137   6.171   5.796   1.719  0.3431 -0.8530 -1.0013
 1024MOL0     C38138   6.091   5.891   1.793 -0.5851 -0.2587  0.2199
 1024MOL0     C38139   5.959   5.899   1.783 -0.2907  0.1564  0.8910
 1024MOL0     C38140   5.881   5.823   1.698 -0.0362 -0.2832 -0.6307
 1024MOL0     O38141   5.742   5.827   1.678  0.1145  0.1673 -0.2359
 1024MOL0     C38142   5.655   5.938   1.713  0.1125 -0.6154 -0.3840
 1024MOL0     C38143   5.683   6.065   1.628  0.0145  0.1688 -0.4766
 1024MOL0     C38144   5.599   6.179   1.667 -1.1304  0.5334  0.1428
 1024MOL0     C38145   5.579   6.271   1.546 -0.5059 -0.0119 -0.5668
 1024MOL0     C38146   5.494   6.389   1.569 -0.4836 -1.0454  0.6352
 1024MOL0     C38147   5.541   6.486   1.680  0.3998  1.2121  0.0238
 1024MOL0     C38148   5.467   6.624   1.683 -0.0492 -0.2498 -0.0960
 1024MOL0     C38149   5.542   6.712   1.786  0.3352 -0.2341  0.1304
 1024MOL0    Cl38150   5.697   6.786   1.737  0.1730  0.0565  0.0853
 1024MOL0     C38151   5.956   5.730   1.626 -0.4035 -0.6641 -0.7874
 1024MOL0     C38152   6.098   5.718   1.629 -0.2136  0.4011  0.0725
 1024MOL0     O38153   6.292   5.676   1.930 -0.4598 -0.1465  0.4332
 1024MOL0     C38154   6.565   5.682   1.958 -0.2075 -0.0016  0.1235
 1024MOL0     C38155   6.697   5.636   1.973  0.0790 -0.6568 -0.1625
 1024MOL0     N38156   7.480   5.552   1.964 -0.5104  0.8070  1.0892
 1024MOL0     N38157   7.594   5.560   1.896 -0.4418 -0.7946  0.1033
 1024MOL0     C38158   8.801   5.344   2.205 -0.7607 -0.3585 -0.1951
 1024MOL0     C38159   8.906   5.356   2.297  0.2101  0.2759  0.2847
 1024MOL0     C38160   9.344   5.311   2.459  0.2758  0.7326 -0.1107
 1024MOL0     C38161   9.314   5.378   2.580  1.1018 -0.3036 -0.1651
 1024MOL0     C38162   9.406   5.424   2.664 -0.3229 -0.7833  0.0112
 1024MOL0     C38163   9.544   5.395   2.637  0.6444 -0.1008 -0.6319
 1024MOL0     O38164   9.640   5.463   2.710  0.1249 -0.1743  1.4719
 1024MOL0     C38165   9.757   5.510   2.644  0.5069 -0.4585  0.4023
 1024MOL0     C38166   9.817   5.634   2.718  0.1388 -0.3461 -1.1861
 1024MOL0     C38167   9.872   5.601   2.860 -0.3814  0.0725 -1.1623
 1024MOL0     C38168  10.004   5.516   2.858  1.0050 -1.0509  0.1973
 1024MOL0     C38169  10.055   5.509   2.994  0.8557  0.4377 -0.8838
 1024MOL0     C38170  10.092   5.506   3.114 -0.0038 -0.0829  0.3191
 1024MOL0     C38171   9.574   5.315   2.528 -0.3021  0.2700 -0.2909
 1024MOL0     C38172   9.475   5.270   2.438 -0.9494 -0.4540 -0.6596
 1024MOL0     H38173   9.154   5.245   2.089 -1.7879 -4.6272 -1.8173
 1024MOL0     H38174   8.961   5.212   1.935  0.6154 -1.4837  0.0796
 1024MOL0     H38175   8.556   5.219   2.069 -0.4291  0.5910  0.2967
 1024MOL0     H38176   8.585   5.390   2.074  0.0592 -0.1164  0.0245
 1024MOL0     H38177   8.530   5.430   1.846 -2.7535  1.2200  0.8219
 1024MOL0     H38178   8.510   5.259   1.801 -2.6858  1.0576 -1.7109
 1024MOL0     H38179   8.345   5.278   2.006  2.1111 -2.4752 -1.3469
 1024MOL0     H38180   8.348   5.452   1.980 -1.0606  0.4819 -1.4530
 1024MOL0     H38181   8.249   5.457   1.770  0.5735  0.5990  1.0253
 1024MOL0     H38182   8.234   5.283   1.767 -1.7014  1.0907  0.3642
 1024MOL0     H38183   8.097   5.279   1.973  0.0501  0.9384  1.9856
 1024MOL0     H38184   8.107   5.454   1.986 -0.0221  0.8821 -0.5143
 1024MOL0     H38185   8.011   5.469   1.744 -1.7303  0.9068 -0.4671
 1024MOL0     H38186   7.980   5.301   1.764  2.8003 -0.8142  1.2596
 1024MOL0     H38187   7.859   5.333   1.956  0.7328  0.2094 -0.8538
 1024MOL0     H38188   7.872   5.510   1.953  2.0756  0.4261 -0.0691
 1024MOL0     H38189   7.747   5.323   1.724 -3.2240 -0.0449 -0.2182
 1024MOL0     H38190   7.778   5.484   1.698  1.8054 -2.8723 -0.4869
 1024MOL0     H38191   7.532   5.240   1.890 -1.2427  0.3086 -1.6317
 1024MOL0     H38192   7.272   5.277   1.966 -2.5736 -1.2192  2.1452
 1024MOL0     H38193   7.344   5.322   2.122 -0.3612 -0.5870  0.6118
 1024MOL0     H38194   7.229   5.564   2.077 -2.5753  1.5612 -1.3629
 1024MOL0     H38195   7.150   5.424   2.154  2.1796  1.0452  0.9210
 1024MOL0     H38196   7.099   5.365   1.904 -2.6043 -0.1484 -0.5137
 1024MOL0     H38197   7.158   5.520   1.876  2.7809 -1.4940  1.2797
 1024MOL0     H38198   6.974   5.631   2.019 -2.2783  0.5122 -0.7063
 1024MOL0     H38199   6.900   5.484   2.038 -0.2729  1.9168  0.8617
 1024MOL0     H38200   6.763   5.570   1.644 -0.5388  0.1991  0.1535
 1024MOL0     H38201   6.582   5.620   1.506 -0.5519  2.7314 -2.2929
 1024MOL0     H38202   6.420   5.590   1.579 -1.1183  1.8292 -1.3251
 1024MOL0     H38203   6.487   5.757   1.546 -0.6201 -0.4501 -2.4109
 1024MOL0     H38204   6.153   5.942   1.866  1.7291 -1.8491 -0.5247
 1024MOL0     H38205   5.899   5.965   1.846 -2.3771 -0.7824 -0.0022
 1024MOL0     H38206   5.553   5.910   1.685 -2.3036  5.4571  0.7302
 1024MOL0     H38207   5.644   5.961   1.819 -1.2664  0.1582 -0.6788
 1024MOL0     H38208   5.788   6.093   1.629  1.1472 -3.3901 -2.6373
 1024MOL0     H38209   5.664   6.040   1.523  1.0093 -1.6310 -0.2622
 1024MOL0     H38210   5.655   6.225   1.749  1.2813 -2.4805  0.3829
 1024MOL0     H38211   5.500   6.158   1.708 -0.7794 -2.4843 -0.3197
 1024MOL0     H38212   5.678   6.306   1.515 -0.3591 -0.0742 -0.1739
 1024MOL0     H38213   5.539   6.215   1.460 -2.5647 -0.9180  0.9071
 1024MOL0     H38214   5.386   6.375   1.583 -1.3984  2.5964 -1.3450
 1024MOL0     H38215   5.509   6.442   1.474 -0.2058 -0.8218  0.8013
 1024MOL0     H38216   5.530   6.431   1.774  2.0710 -0.8860 -0.9477
 1024MOL0     H38217   5.647   6.505   1.666  0.5255  0.7329  0.2966
 1024MOL0     H38218   5.366   6.621   1.727  0.8482  0.6187  2.1788
 1024MOL0     H38219   5.475   6.674   1.586  0.6423 -0.3141 -0.0762
 1024MOL0     H38220   5.561   6.656   1.878  1.9043  0.6204  0.3560
 1024MOL0     H38221   5.475   6.797   1.803 -1.1509 -1.0280 -1.3493
 1024MOL0     H38222   5.906   5.668   1.553  0.0099 -3.7768  1.3554
 1024MOL0     H38223   6.160   5.666   1.556  3.2024  4.4182 -0.2536
 1024MOL0     H38224   6.504   5.716   2.041  0.3752  1.6646 -0.0996
 1024MOL0     H38225   6.746   5.652   2.069 -0.3113 -0.4576  0.0023
 1024MOL0     H38226   8.700   5.367   2.238 -0.7981 -2.1543  1.1140
 1024MOL0     H38227   8.869   5.387   2.394 -3.3739 -0.3238 -0.7373
 1024MOL0     H38228   9.209   5.399   2.600  0.9006 -1.0729 -0.3858
 1024MOL0     H38229   9.372   5.493   2.741 -1.6996  0.4081 -1.6135
 1024MOL0     H38230   9.829   5.428   2.646 -1.4174 -2.2687 -0.1590
 1024MOL0     H38231   9.736   5.541   2.541 -2.2735  2.4707  1.6953
 1024MOL0     H38232   9.739   5.707   2.741  1.3307  0.2375  1.3938
 1024MOL0     H38233   9.900   5.681   2.663  1.0982 -0.1254  0.3863
 1024MOL0     H38234   9.793   5.552   2.919 -0.0028  0.4404 -0.3285
 1024MOL0     H38235   9.893   5.697   2.907  3.6878  0.1858 -2.8822
 1024MOL0     H38236  10.077   5.555   2.786  2.6704 -2.1614  1.2188
 1024MOL0     H38237   9.976   5.416   2.823 -0.3246 -0.9848  1.0216
 1024MOL0     H38238  10.122   5.510   3.216  0.7142  1.6652  0.0864
 1024MOL0     H38239   9.676   5.284   2.508  0.3879  2.0288  0.2770
 1024MOL0     H38240   9.494   5.192   2.365 -2.9488 -3.1995  1.5395
  11.34357  11.34357  11.34357
